<UPF version="2.0.1">
  <PP_INFO>

 This pseudopotential file has been produced using the code
 ONCVPSP  (Optimized Norm-Conservinng Vanderbilt PSeudopotential)
 fully-relativistic version 3.3.1 12/12/2017 by D. R. Hamann
 The code is available through a link at URL www.mat-simresearch.com.
 Documentation with the package provides a full discription of the
 input data below.


 While it is not required under the terms of the GNU GPL, it is
 suggested that you cite D. R. Hamann, Phys. Rev. B 88, 085117 (2013)
 in any publication using these pseudopotentials.

    <PP_INPUTFILE>
# ATOM AND REFERENCE CONFIGURATION
# atsym  z   nc   nv     iexc    psfile
  He  2.00    0    1       3      upf
#
#   n    l    f        energy (Ha)
    1    0    2.00
#
# PSEUDOPOTENTIAL AND OPTIMIZATION
# lmax
    1
#
#   l,   rc,     ep,   ncon, nbas, qcut
    0   1.25000  -0.57022    4    8   9.40000
    1   1.13000   0.05000    4    7   9.40000
#
# LOCAL POTENTIAL
# lloc, lpopt,  rc(5),   dvloc0
    4    5   1.00000      0.00000
#
# VANDERBILT-KLEINMAN-BYLANDER PROJECTORs
# l, nproj, debl
    0    2   1.00000
    1    1   1.00000
#
# MODEL CORE CHARGE
# icmod, fcfact, rcfact
    0   0.00000   0.00000
#
# LOG DERIVATIVE ANALYSIS
# epsh1, epsh2, depsh
  -12.00   12.00    0.02
#
# OUTPUT GRID
# rlmax, drl
    6.00    0.01
#
# TEST CONFIGURATIONS
# ncnf
    0
# nvcnf
#   n    l    f
    </PP_INPUTFILE>
  </PP_INFO>
  <!--                               -->
  <!-- END OF HUMAN READABLE SECTION -->
  <!--                               -->
    <PP_HEADER
       generated="Generated using ONCVPSP code by D. R. Hamann"
       author="anonymous"
       date="200721"
       comment=""
       element="He"
       pseudo_type="NC"
       relativistic="full"
       is_ultrasoft="F"
       is_paw="F"
       is_coulomb="F"
       has_so="T"
       has_wfc="F"
       has_gipaw="F"
       core_correction="F"
       functional="PZ"
       z_valence="    2.00"
       total_psenergy="  -5.60831094269E+00"
       rho_cutoff="   7.31000000000E+00"
       l_max="1"
       l_local="-1"
       mesh_size="   732"
       number_of_wfc="1"
       number_of_proj="4"/>
 <PP_MESH>
   <PP_R type="real"  size=" 732" columns="8">
    0.0000    0.0100    0.0200    0.0300    0.0400    0.0500    0.0600    0.0700
    0.0800    0.0900    0.1000    0.1100    0.1200    0.1300    0.1400    0.1500
    0.1600    0.1700    0.1800    0.1900    0.2000    0.2100    0.2200    0.2300
    0.2400    0.2500    0.2600    0.2700    0.2800    0.2900    0.3000    0.3100
    0.3200    0.3300    0.3400    0.3500    0.3600    0.3700    0.3800    0.3900
    0.4000    0.4100    0.4200    0.4300    0.4400    0.4500    0.4600    0.4700
    0.4800    0.4900    0.5000    0.5100    0.5200    0.5300    0.5400    0.5500
    0.5600    0.5700    0.5800    0.5900    0.6000    0.6100    0.6200    0.6300
    0.6400    0.6500    0.6600    0.6700    0.6800    0.6900    0.7000    0.7100
    0.7200    0.7300    0.7400    0.7500    0.7600    0.7700    0.7800    0.7900
    0.8000    0.8100    0.8200    0.8300    0.8400    0.8500    0.8600    0.8700
    0.8800    0.8900    0.9000    0.9100    0.9200    0.9300    0.9400    0.9500
    0.9600    0.9700    0.9800    0.9900    1.0000    1.0100    1.0200    1.0300
    1.0400    1.0500    1.0600    1.0700    1.0800    1.0900    1.1000    1.1100
    1.1200    1.1300    1.1400    1.1500    1.1600    1.1700    1.1800    1.1900
    1.2000    1.2100    1.2200    1.2300    1.2400    1.2500    1.2600    1.2700
    1.2800    1.2900    1.3000    1.3100    1.3200    1.3300    1.3400    1.3500
    1.3600    1.3700    1.3800    1.3900    1.4000    1.4100    1.4200    1.4300
    1.4400    1.4500    1.4600    1.4700    1.4800    1.4900    1.5000    1.5100
    1.5200    1.5300    1.5400    1.5500    1.5600    1.5700    1.5800    1.5900
    1.6000    1.6100    1.6200    1.6300    1.6400    1.6500    1.6600    1.6700
    1.6800    1.6900    1.7000    1.7100    1.7200    1.7300    1.7400    1.7500
    1.7600    1.7700    1.7800    1.7900    1.8000    1.8100    1.8200    1.8300
    1.8400    1.8500    1.8600    1.8700    1.8800    1.8900    1.9000    1.9100
    1.9200    1.9300    1.9400    1.9500    1.9600    1.9700    1.9800    1.9900
    2.0000    2.0100    2.0200    2.0300    2.0400    2.0500    2.0600    2.0700
    2.0800    2.0900    2.1000    2.1100    2.1200    2.1300    2.1400    2.1500
    2.1600    2.1700    2.1800    2.1900    2.2000    2.2100    2.2200    2.2300
    2.2400    2.2500    2.2600    2.2700    2.2800    2.2900    2.3000    2.3100
    2.3200    2.3300    2.3400    2.3500    2.3600    2.3700    2.3800    2.3900
    2.4000    2.4100    2.4200    2.4300    2.4400    2.4500    2.4600    2.4700
    2.4800    2.4900    2.5000    2.5100    2.5200    2.5300    2.5400    2.5500
    2.5600    2.5700    2.5800    2.5900    2.6000    2.6100    2.6200    2.6300
    2.6400    2.6500    2.6600    2.6700    2.6800    2.6900    2.7000    2.7100
    2.7200    2.7300    2.7400    2.7500    2.7600    2.7700    2.7800    2.7900
    2.8000    2.8100    2.8200    2.8300    2.8400    2.8500    2.8600    2.8700
    2.8800    2.8900    2.9000    2.9100    2.9200    2.9300    2.9400    2.9500
    2.9600    2.9700    2.9800    2.9900    3.0000    3.0100    3.0200    3.0300
    3.0400    3.0500    3.0600    3.0700    3.0800    3.0900    3.1000    3.1100
    3.1200    3.1300    3.1400    3.1500    3.1600    3.1700    3.1800    3.1900
    3.2000    3.2100    3.2200    3.2300    3.2400    3.2500    3.2600    3.2700
    3.2800    3.2900    3.3000    3.3100    3.3200    3.3300    3.3400    3.3500
    3.3600    3.3700    3.3800    3.3900    3.4000    3.4100    3.4200    3.4300
    3.4400    3.4500    3.4600    3.4700    3.4800    3.4900    3.5000    3.5100
    3.5200    3.5300    3.5400    3.5500    3.5600    3.5700    3.5800    3.5900
    3.6000    3.6100    3.6200    3.6300    3.6400    3.6500    3.6600    3.6700
    3.6800    3.6900    3.7000    3.7100    3.7200    3.7300    3.7400    3.7500
    3.7600    3.7700    3.7800    3.7900    3.8000    3.8100    3.8200    3.8300
    3.8400    3.8500    3.8600    3.8700    3.8800    3.8900    3.9000    3.9100
    3.9200    3.9300    3.9400    3.9500    3.9600    3.9700    3.9800    3.9900
    4.0000    4.0100    4.0200    4.0300    4.0400    4.0500    4.0600    4.0700
    4.0800    4.0900    4.1000    4.1100    4.1200    4.1300    4.1400    4.1500
    4.1600    4.1700    4.1800    4.1900    4.2000    4.2100    4.2200    4.2300
    4.2400    4.2500    4.2600    4.2700    4.2800    4.2900    4.3000    4.3100
    4.3200    4.3300    4.3400    4.3500    4.3600    4.3700    4.3800    4.3900
    4.4000    4.4100    4.4200    4.4300    4.4400    4.4500    4.4600    4.4700
    4.4800    4.4900    4.5000    4.5100    4.5200    4.5300    4.5400    4.5500
    4.5600    4.5700    4.5800    4.5900    4.6000    4.6100    4.6200    4.6300
    4.6400    4.6500    4.6600    4.6700    4.6800    4.6900    4.7000    4.7100
    4.7200    4.7300    4.7400    4.7500    4.7600    4.7700    4.7800    4.7900
    4.8000    4.8100    4.8200    4.8300    4.8400    4.8500    4.8600    4.8700
    4.8800    4.8900    4.9000    4.9100    4.9200    4.9300    4.9400    4.9500
    4.9600    4.9700    4.9800    4.9900    5.0000    5.0100    5.0200    5.0300
    5.0400    5.0500    5.0600    5.0700    5.0800    5.0900    5.1000    5.1100
    5.1200    5.1300    5.1400    5.1500    5.1600    5.1700    5.1800    5.1900
    5.2000    5.2100    5.2200    5.2300    5.2400    5.2500    5.2600    5.2700
    5.2800    5.2900    5.3000    5.3100    5.3200    5.3300    5.3400    5.3500
    5.3600    5.3700    5.3800    5.3900    5.4000    5.4100    5.4200    5.4300
    5.4400    5.4500    5.4600    5.4700    5.4800    5.4900    5.5000    5.5100
    5.5200    5.5300    5.5400    5.5500    5.5600    5.5700    5.5800    5.5900
    5.6000    5.6100    5.6200    5.6300    5.6400    5.6500    5.6600    5.6700
    5.6800    5.6900    5.7000    5.7100    5.7200    5.7300    5.7400    5.7500
    5.7600    5.7700    5.7800    5.7900    5.8000    5.8100    5.8200    5.8300
    5.8400    5.8500    5.8600    5.8700    5.8800    5.8900    5.9000    5.9100
    5.9200    5.9300    5.9400    5.9500    5.9600    5.9700    5.9800    5.9900
    6.0000    6.0100    6.0200    6.0300    6.0400    6.0500    6.0600    6.0700
    6.0800    6.0900    6.1000    6.1100    6.1200    6.1300    6.1400    6.1500
    6.1600    6.1700    6.1800    6.1900    6.2000    6.2100    6.2200    6.2300
    6.2400    6.2500    6.2600    6.2700    6.2800    6.2900    6.3000    6.3100
    6.3200    6.3300    6.3400    6.3500    6.3600    6.3700    6.3800    6.3900
    6.4000    6.4100    6.4200    6.4300    6.4400    6.4500    6.4600    6.4700
    6.4800    6.4900    6.5000    6.5100    6.5200    6.5300    6.5400    6.5500
    6.5600    6.5700    6.5800    6.5900    6.6000    6.6100    6.6200    6.6300
    6.6400    6.6500    6.6600    6.6700    6.6800    6.6900    6.7000    6.7100
    6.7200    6.7300    6.7400    6.7500    6.7600    6.7700    6.7800    6.7900
    6.8000    6.8100    6.8200    6.8300    6.8400    6.8500    6.8600    6.8700
    6.8800    6.8900    6.9000    6.9100    6.9200    6.9300    6.9400    6.9500
    6.9600    6.9700    6.9800    6.9900    7.0000    7.0100    7.0200    7.0300
    7.0400    7.0500    7.0600    7.0700    7.0800    7.0900    7.1000    7.1100
    7.1200    7.1300    7.1400    7.1500    7.1600    7.1700    7.1800    7.1900
    7.2000    7.2100    7.2200    7.2300    7.2400    7.2500    7.2600    7.2700
    7.2800    7.2900    7.3000    7.3100
   </PP_R>
   <PP_RAB type="real"  size=" 732" columns="8">
    0.0100    0.0100    0.0100    0.0100    0.0100    0.0100    0.0100    0.0100
    0.0100    0.0100    0.0100    0.0100    0.0100    0.0100    0.0100    0.0100
    0.0100    0.0100    0.0100    0.0100    0.0100    0.0100    0.0100    0.0100
    0.0100    0.0100    0.0100    0.0100    0.0100    0.0100    0.0100    0.0100
    0.0100    0.0100    0.0100    0.0100    0.0100    0.0100    0.0100    0.0100
    0.0100    0.0100    0.0100    0.0100    0.0100    0.0100    0.0100    0.0100
    0.0100    0.0100    0.0100    0.0100    0.0100    0.0100    0.0100    0.0100
    0.0100    0.0100    0.0100    0.0100    0.0100    0.0100    0.0100    0.0100
    0.0100    0.0100    0.0100    0.0100    0.0100    0.0100    0.0100    0.0100
    0.0100    0.0100    0.0100    0.0100    0.0100    0.0100    0.0100    0.0100
    0.0100    0.0100    0.0100    0.0100    0.0100    0.0100    0.0100    0.0100
    0.0100    0.0100    0.0100    0.0100    0.0100    0.0100    0.0100    0.0100
    0.0100    0.0100    0.0100    0.0100    0.0100    0.0100    0.0100    0.0100
    0.0100    0.0100    0.0100    0.0100    0.0100    0.0100    0.0100    0.0100
    0.0100    0.0100    0.0100    0.0100    0.0100    0.0100    0.0100    0.0100
    0.0100    0.0100    0.0100    0.0100    0.0100    0.0100    0.0100    0.0100
    0.0100    0.0100    0.0100    0.0100    0.0100    0.0100    0.0100    0.0100
    0.0100    0.0100    0.0100    0.0100    0.0100    0.0100    0.0100    0.0100
    0.0100    0.0100    0.0100    0.0100    0.0100    0.0100    0.0100    0.0100
    0.0100    0.0100    0.0100    0.0100    0.0100    0.0100    0.0100    0.0100
    0.0100    0.0100    0.0100    0.0100    0.0100    0.0100    0.0100    0.0100
    0.0100    0.0100    0.0100    0.0100    0.0100    0.0100    0.0100    0.0100
    0.0100    0.0100    0.0100    0.0100    0.0100    0.0100    0.0100    0.0100
    0.0100    0.0100    0.0100    0.0100    0.0100    0.0100    0.0100    0.0100
    0.0100    0.0100    0.0100    0.0100    0.0100    0.0100    0.0100    0.0100
    0.0100    0.0100    0.0100    0.0100    0.0100    0.0100    0.0100    0.0100
    0.0100    0.0100    0.0100    0.0100    0.0100    0.0100    0.0100    0.0100
    0.0100    0.0100    0.0100    0.0100    0.0100    0.0100    0.0100    0.0100
    0.0100    0.0100    0.0100    0.0100    0.0100    0.0100    0.0100    0.0100
    0.0100    0.0100    0.0100    0.0100    0.0100    0.0100    0.0100    0.0100
    0.0100    0.0100    0.0100    0.0100    0.0100    0.0100    0.0100    0.0100
    0.0100    0.0100    0.0100    0.0100    0.0100    0.0100    0.0100    0.0100
    0.0100    0.0100    0.0100    0.0100    0.0100    0.0100    0.0100    0.0100
    0.0100    0.0100    0.0100    0.0100    0.0100    0.0100    0.0100    0.0100
    0.0100    0.0100    0.0100    0.0100    0.0100    0.0100    0.0100    0.0100
    0.0100    0.0100    0.0100    0.0100    0.0100    0.0100    0.0100    0.0100
    0.0100    0.0100    0.0100    0.0100    0.0100    0.0100    0.0100    0.0100
    0.0100    0.0100    0.0100    0.0100    0.0100    0.0100    0.0100    0.0100
    0.0100    0.0100    0.0100    0.0100    0.0100    0.0100    0.0100    0.0100
    0.0100    0.0100    0.0100    0.0100    0.0100    0.0100    0.0100    0.0100
    0.0100    0.0100    0.0100    0.0100    0.0100    0.0100    0.0100    0.0100
    0.0100    0.0100    0.0100    0.0100    0.0100    0.0100    0.0100    0.0100
    0.0100    0.0100    0.0100    0.0100    0.0100    0.0100    0.0100    0.0100
    0.0100    0.0100    0.0100    0.0100    0.0100    0.0100    0.0100    0.0100
    0.0100    0.0100    0.0100    0.0100    0.0100    0.0100    0.0100    0.0100
    0.0100    0.0100    0.0100    0.0100    0.0100    0.0100    0.0100    0.0100
    0.0100    0.0100    0.0100    0.0100    0.0100    0.0100    0.0100    0.0100
    0.0100    0.0100    0.0100    0.0100    0.0100    0.0100    0.0100    0.0100
    0.0100    0.0100    0.0100    0.0100    0.0100    0.0100    0.0100    0.0100
    0.0100    0.0100    0.0100    0.0100    0.0100    0.0100    0.0100    0.0100
    0.0100    0.0100    0.0100    0.0100    0.0100    0.0100    0.0100    0.0100
    0.0100    0.0100    0.0100    0.0100    0.0100    0.0100    0.0100    0.0100
    0.0100    0.0100    0.0100    0.0100    0.0100    0.0100    0.0100    0.0100
    0.0100    0.0100    0.0100    0.0100    0.0100    0.0100    0.0100    0.0100
    0.0100    0.0100    0.0100    0.0100    0.0100    0.0100    0.0100    0.0100
    0.0100    0.0100    0.0100    0.0100    0.0100    0.0100    0.0100    0.0100
    0.0100    0.0100    0.0100    0.0100    0.0100    0.0100    0.0100    0.0100
    0.0100    0.0100    0.0100    0.0100    0.0100    0.0100    0.0100    0.0100
    0.0100    0.0100    0.0100    0.0100    0.0100    0.0100    0.0100    0.0100
    0.0100    0.0100    0.0100    0.0100    0.0100    0.0100    0.0100    0.0100
    0.0100    0.0100    0.0100    0.0100    0.0100    0.0100    0.0100    0.0100
    0.0100    0.0100    0.0100    0.0100    0.0100    0.0100    0.0100    0.0100
    0.0100    0.0100    0.0100    0.0100    0.0100    0.0100    0.0100    0.0100
    0.0100    0.0100    0.0100    0.0100    0.0100    0.0100    0.0100    0.0100
    0.0100    0.0100    0.0100    0.0100    0.0100    0.0100    0.0100    0.0100
    0.0100    0.0100    0.0100    0.0100    0.0100    0.0100    0.0100    0.0100
    0.0100    0.0100    0.0100    0.0100    0.0100    0.0100    0.0100    0.0100
    0.0100    0.0100    0.0100    0.0100    0.0100    0.0100    0.0100    0.0100
    0.0100    0.0100    0.0100    0.0100    0.0100    0.0100    0.0100    0.0100
    0.0100    0.0100    0.0100    0.0100    0.0100    0.0100    0.0100    0.0100
    0.0100    0.0100    0.0100    0.0100    0.0100    0.0100    0.0100    0.0100
    0.0100    0.0100    0.0100    0.0100    0.0100    0.0100    0.0100    0.0100
    0.0100    0.0100    0.0100    0.0100    0.0100    0.0100    0.0100    0.0100
    0.0100    0.0100    0.0100    0.0100    0.0100    0.0100    0.0100    0.0100
    0.0100    0.0100    0.0100    0.0100    0.0100    0.0100    0.0100    0.0100
    0.0100    0.0100    0.0100    0.0100    0.0100    0.0100    0.0100    0.0100
    0.0100    0.0100    0.0100    0.0100    0.0100    0.0100    0.0100    0.0100
    0.0100    0.0100    0.0100    0.0100    0.0100    0.0100    0.0100    0.0100
    0.0100    0.0100    0.0100    0.0100    0.0100    0.0100    0.0100    0.0100
    0.0100    0.0100    0.0100    0.0100    0.0100    0.0100    0.0100    0.0100
    0.0100    0.0100    0.0100    0.0100    0.0100    0.0100    0.0100    0.0100
    0.0100    0.0100    0.0100    0.0100    0.0100    0.0100    0.0100    0.0100
    0.0100    0.0100    0.0100    0.0100    0.0100    0.0100    0.0100    0.0100
    0.0100    0.0100    0.0100    0.0100    0.0100    0.0100    0.0100    0.0100
    0.0100    0.0100    0.0100    0.0100    0.0100    0.0100    0.0100    0.0100
    0.0100    0.0100    0.0100    0.0100    0.0100    0.0100    0.0100    0.0100
    0.0100    0.0100    0.0100    0.0100    0.0100    0.0100    0.0100    0.0100
    0.0100    0.0100    0.0100    0.0100    0.0100    0.0100    0.0100    0.0100
    0.0100    0.0100    0.0100    0.0100    0.0100    0.0100    0.0100    0.0100
    0.0100    0.0100    0.0100    0.0100    0.0100    0.0100    0.0100    0.0100
    0.0100    0.0100    0.0100    0.0100    0.0100    0.0100    0.0100    0.0100
    0.0100    0.0100    0.0100    0.0100
   </PP_RAB>
 </PP_MESH>
  <PP_LOCAL type="real"  size=" 732" columns="4">
   -8.7516123331E+00   -8.7506659317E+00   -8.7478276615E+00   -8.7431004546E+00
   -8.7364891783E+00   -8.7280006275E+00   -8.7176435098E+00   -8.7054284243E+00
   -8.6913678359E+00   -8.6754760458E+00   -8.6577691570E+00   -8.6382650363E+00
   -8.6169832726E+00   -8.5939451311E+00   -8.5691735051E+00   -8.5426928634E+00
   -8.5145291964E+00   -8.4847099585E+00   -8.4532640088E+00   -8.4202215497E+00
   -8.3856140641E+00   -8.3494742506E+00   -8.3118359584E+00   -8.2727341211E+00
   -8.2322046897E+00   -8.1902845658E+00   -8.1470115351E+00   -8.1024242002E+00
   -8.0565619157E+00   -8.0094647220E+00   -7.9611732821E+00   -7.9117288185E+00
   -7.8611730515E+00   -7.8095481401E+00   -7.7568966233E+00   -7.7032613643E+00
   -7.6486854961E+00   -7.5932123692E+00   -7.5368855017E+00   -7.4797485312E+00
   -7.4218451693E+00   -7.3632191572E+00   -7.3039142248E+00   -7.2439740509E+00
   -7.1834422261E+00   -7.1223622164E+00   -7.0607773306E+00   -6.9987306873E+00
   -6.9362651852E+00   -6.8734234740E+00   -6.8102479266E+00   -6.7467806131E+00
   -6.6830632750E+00   -6.6191373010E+00   -6.5550437030E+00   -6.4908230930E+00
   -6.4265156601E+00   -6.3621611474E+00   -6.2977988301E+00   -6.2334674920E+00
   -6.1692054026E+00   -6.1050502938E+00   -6.0410393357E+00   -5.9772091117E+00
   -5.9135955932E+00   -5.8502341128E+00   -5.7871593368E+00   -5.7244052368E+00
   -5.6620050593E+00   -5.5999912948E+00   -5.5383956450E+00   -5.4772489887E+00
   -5.4165814578E+00   -5.3564214607E+00   -5.2967955094E+00   -5.2376553920E+00
   -5.1791335565E+00   -5.1212250081E+00   -5.0639580066E+00   -5.0073546985E+00
   -4.9514368305E+00   -4.8962248370E+00   -4.8417378473E+00   -4.7879936315E+00
   -4.7350085460E+00   -4.6827974765E+00   -4.6313737799E+00   -4.5807492245E+00
   -4.5309339286E+00   -4.4819362975E+00   -4.4337629592E+00   -4.3864186983E+00
   -4.3399063887E+00   -4.2942269246E+00   -4.2493791507E+00   -4.2053597899E+00
   -4.1621633710E+00   -4.1197821541E+00   -4.0782060547E+00   -4.0374225657E+00
   -3.9974167103E+00   -3.9581708373E+00   -3.9196650790E+00   -3.8818789771E+00
   -3.8447929245E+00   -3.8083881657E+00   -3.7726467218E+00   -3.7375513521E+00
   -3.7030855096E+00   -3.6692332959E+00   -3.6359794194E+00   -3.6033091558E+00
   -3.5712083096E+00   -3.5396631791E+00   -3.5086605214E+00   -3.4781875209E+00
   -3.4482317587E+00   -3.4187811843E+00   -3.3898240886E+00   -3.3613490792E+00
   -3.3333450572E+00   -3.3058011960E+00   -3.2787069213E+00   -3.2520518933E+00
   -3.2258259912E+00   -3.2000192972E+00   -3.1746220848E+00   -3.1496248114E+00
   -3.1250181374E+00   -3.1007929628E+00   -3.0769404860E+00   -3.0534521751E+00
   -3.0303197523E+00   -3.0075351899E+00   -2.9850907000E+00   -2.9629787253E+00
   -2.9411919307E+00   -2.9197231955E+00   -2.8985656052E+00   -2.8777124444E+00
   -2.8571571894E+00   -2.8368935019E+00   -2.8169152218E+00   -2.7972163614E+00
   -2.7777910995E+00   -2.7586337754E+00   -2.7397388833E+00   -2.7211010675E+00
   -2.7027151169E+00   -2.6845759603E+00   -2.6666786618E+00   -2.6490184161E+00
   -2.6315905446E+00   -2.6143904908E+00   -2.5974138167E+00   -2.5806561987E+00
   -2.5641134242E+00   -2.5477813878E+00   -2.5316560882E+00   -2.5157336245E+00
   -2.5000101936E+00   -2.4844820867E+00   -2.4691456867E+00   -2.4539974651E+00
   -2.4390339798E+00   -2.4242518717E+00   -2.4096478629E+00   -2.3952187541E+00
   -2.3809614219E+00   -2.3668728170E+00   -2.3529499619E+00   -2.3391899487E+00
   -2.3255899370E+00   -2.3121471522E+00   -2.2988588835E+00   -2.2857224820E+00
   -2.2727353590E+00   -2.2598949844E+00   -2.2471988848E+00   -2.2346446422E+00
   -2.2222298923E+00   -2.2099523231E+00   -2.1978096732E+00   -2.1857997309E+00
   -2.1739203325E+00   -2.1621693609E+00   -2.1505447448E+00   -2.1390444571E+00
   -2.1276665137E+00   -2.1164089727E+00   -2.1052699330E+00   -2.0942475332E+00
   -2.0833399510E+00   -2.0725454014E+00   -2.0618621366E+00   -2.0512884444E+00
   -2.0408226478E+00   -2.0304631037E+00   -2.0202082020E+00   -2.0100563654E+00
   -2.0000060477E+00   -1.9900557339E+00   -1.9802039386E+00   -1.9704492059E+00
   -1.9607901084E+00   -1.9512252466E+00   -1.9417532480E+00   -1.9323727669E+00
   -1.9230824832E+00   -1.9138811023E+00   -1.9047673540E+00   -1.8957399924E+00
   -1.8867977951E+00   -1.8779395626E+00   -1.8691641177E+00   -1.8604703052E+00
   -1.8518569915E+00   -1.8433230635E+00   -1.8348674288E+00   -1.8264890149E+00
   -1.8181867688E+00   -1.8099596565E+00   -1.8018066627E+00   -1.7937267903E+00
   -1.7857190598E+00   -1.7777825096E+00   -1.7699161946E+00   -1.7621191867E+00
   -1.7543905739E+00   -1.7467294601E+00   -1.7391349651E+00   -1.7316062235E+00
   -1.7241423851E+00   -1.7167426143E+00   -1.7094060896E+00   -1.7021320037E+00
   -1.6949195628E+00   -1.6877679866E+00   -1.6806765080E+00   -1.6736443725E+00
   -1.6666708383E+00   -1.6597551760E+00   -1.6528966681E+00   -1.6460946091E+00
   -1.6393483049E+00   -1.6326570727E+00   -1.6260202409E+00   -1.6194371489E+00
   -1.6129071464E+00   -1.6064295940E+00   -1.6000038622E+00   -1.5936293316E+00
   -1.5873053926E+00   -1.5810314454E+00   -1.5748068995E+00   -1.5686311738E+00
   -1.5625036960E+00   -1.5564239030E+00   -1.5503912403E+00   -1.5444051621E+00
   -1.5384651307E+00   -1.5325706169E+00   -1.5267210995E+00   -1.5209160653E+00
   -1.5151550087E+00   -1.5094374319E+00   -1.5037628445E+00   -1.4981307634E+00
   -1.4925407130E+00   -1.4869922243E+00   -1.4814848357E+00   -1.4760180921E+00
   -1.4705915452E+00   -1.4652047533E+00   -1.4598572812E+00   -1.4545486999E+00
   -1.4492785866E+00   -1.4440465248E+00   -1.4388521037E+00   -1.4336949188E+00
   -1.4285745709E+00   -1.4234906669E+00   -1.4184428190E+00   -1.4134306450E+00
   -1.4084537681E+00   -1.4035118167E+00   -1.3986044244E+00   -1.3937312301E+00
   -1.3888918775E+00   -1.3840860152E+00   -1.3793132969E+00   -1.3745733808E+00
   -1.3698659299E+00   -1.3651906119E+00   -1.3605470988E+00   -1.3559350672E+00
   -1.3513541980E+00   -1.3468041765E+00   -1.3422846920E+00   -1.3377954383E+00
   -1.3333361130E+00   -1.3289064178E+00   -1.3245060583E+00   -1.3201347442E+00
   -1.3157921888E+00   -1.3114781091E+00   -1.3071922261E+00   -1.3029342642E+00
   -1.2987039514E+00   -1.2945010194E+00   -1.2903252030E+00   -1.2861762408E+00
   -1.2820538745E+00   -1.2779578493E+00   -1.2738879134E+00   -1.2698438185E+00
   -1.2658253190E+00   -1.2618321730E+00   -1.2578641410E+00   -1.2539209871E+00
   -1.2500024778E+00   -1.2461083830E+00   -1.2422384751E+00   -1.2383925295E+00
   -1.2345703244E+00   -1.2307716405E+00   -1.2269962615E+00   -1.2232439735E+00
   -1.2195145653E+00   -1.2158078283E+00   -1.2121235564E+00   -1.2084615459E+00
   -1.2048215958E+00   -1.2012035073E+00   -1.1976070839E+00   -1.1940321318E+00
   -1.1904784592E+00   -1.1869458766E+00   -1.1834341969E+00   -1.1799432351E+00
   -1.1764728084E+00   -1.1730227360E+00   -1.1695928396E+00   -1.1661829426E+00
   -1.1627928705E+00   -1.1594224511E+00   -1.1560715138E+00   -1.1527398904E+00
   -1.1494274142E+00   -1.1461339207E+00   -1.1428592471E+00   -1.1396032327E+00
   -1.1363657184E+00   -1.1331465469E+00   -1.1299455628E+00   -1.1267626125E+00
   -1.1235975439E+00   -1.1204502068E+00   -1.1173204526E+00   -1.1142081344E+00
   -1.1111131068E+00   -1.1080352262E+00   -1.1049743505E+00   -1.1019303391E+00
   -1.0989030531E+00   -1.0958923549E+00   -1.0928981086E+00   -1.0899201798E+00
   -1.0869584353E+00   -1.0840127437E+00   -1.0810829747E+00   -1.0781689997E+00
   -1.0752706912E+00   -1.0723879232E+00   -1.0695205711E+00   -1.0666685115E+00
   -1.0638316225E+00   -1.0610097833E+00   -1.0582028744E+00   -1.0554107778E+00
   -1.0526333764E+00   -1.0498705545E+00   -1.0471221977E+00   -1.0443881926E+00
   -1.0416684271E+00   -1.0389627903E+00   -1.0362711723E+00   -1.0335934645E+00
   -1.0309295593E+00   -1.0282793503E+00   -1.0256427321E+00   -1.0230196005E+00
   -1.0204098522E+00   -1.0178133850E+00   -1.0152300979E+00   -1.0126598907E+00
   -1.0101026644E+00   -1.0075583208E+00   -1.0050267628E+00   -1.0025078944E+00
   -1.0000016204E+00   -9.9750784641E-01   -9.9502647930E-01   -9.9255742667E-01
   -9.9010059708E-01   -9.8765589997E-01   -9.8522324572E-01   -9.8280254554E-01
   -9.8039371154E-01   -9.7799665668E-01   -9.7561129477E-01   -9.7323754047E-01
   -9.7087530925E-01   -9.6852451740E-01   -9.6618508205E-01   -9.6385692108E-01
   -9.6153995319E-01   -9.5923409786E-01   -9.5693927534E-01   -9.5465540662E-01
   -9.5238241348E-01   -9.5012021840E-01   -9.4786874462E-01   -9.4562791612E-01
   -9.4339765756E-01   -9.4117789434E-01   -9.3896855255E-01   -9.3676955896E-01
   -9.3458084105E-01   -9.3240232695E-01   -9.3023394548E-01   -9.2807562610E-01
   -9.2592729895E-01   -9.2378889479E-01   -9.2166034502E-01   -9.1954158170E-01
   -9.1743253747E-01   -9.1533314563E-01   -9.1324334005E-01   -9.1116305523E-01
   -9.0909222625E-01   -9.0703078879E-01   -9.0497867910E-01   -9.0293583402E-01
   -9.0090219094E-01   -8.9887768784E-01   -8.9686226323E-01   -8.9485585618E-01
   -8.9285840631E-01   -8.9086985376E-01   -8.8889013923E-01   -8.8691920393E-01
   -8.8495698958E-01   -8.8300343844E-01   -8.8105849324E-01   -8.7912209726E-01
   -8.7719419425E-01   -8.7527472845E-01   -8.7336364461E-01   -8.7146088793E-01
   -8.6956640410E-01   -8.6768013930E-01   -8.6580204015E-01   -8.6393205374E-01
   -8.6207012763E-01   -8.6021620980E-01   -8.5837024870E-01   -8.5653219322E-01
   -8.5470199268E-01   -8.5287959684E-01   -8.5106495588E-01   -8.4925802040E-01
   -8.4745874143E-01   -8.4566707041E-01   -8.4388295919E-01   -8.4210636002E-01
   -8.4033722555E-01   -8.3857550884E-01   -8.3682116334E-01   -8.3507414287E-01
   -8.3333440166E-01   -8.3160189430E-01   -8.2987657578E-01   -8.2815840143E-01
   -8.2644732699E-01   -8.2474330852E-01   -8.2304630248E-01   -8.2135626566E-01
   -8.1967315524E-01   -8.1799692870E-01   -8.1632754391E-01   -8.1466495906E-01
   -8.1300913268E-01   -8.1136002367E-01   -8.0971759121E-01   -8.0808179484E-01
   -8.0645259443E-01   -8.0482995017E-01   -8.0321382255E-01   -8.0160417241E-01
   -8.0000096086E-01   -7.9840414937E-01   -7.9681369968E-01   -7.9522957386E-01
   -7.9365173425E-01   -7.9208014351E-01   -7.9051476460E-01   -7.8895556076E-01
   -7.8740249552E-01   -7.8585553270E-01   -7.8431463641E-01   -7.8277977103E-01
   -7.8125090123E-01   -7.7972799193E-01   -7.7821100835E-01   -7.7669991598E-01
   -7.7519468056E-01   -7.7369526811E-01   -7.7220164490E-01   -7.7071377746E-01
   -7.6923163260E-01   -7.6775517736E-01   -7.6628437904E-01   -7.6481920520E-01
   -7.6335962362E-01   -7.6190560237E-01   -7.6045710971E-01   -7.5901411419E-01
   -7.5757658456E-01   -7.5614448983E-01   -7.5471779924E-01   -7.5329648226E-01
   -7.5188050857E-01   -7.5046984812E-01   -7.4906447104E-01   -7.4766434771E-01
   -7.4626944873E-01   -7.4487974491E-01   -7.4349520728E-01   -7.4211580709E-01
   -7.4074151579E-01   -7.3937230506E-01   -7.3800814677E-01   -7.3664901301E-01
   -7.3529487607E-01   -7.3394570845E-01   -7.3260148283E-01   -7.3126217213E-01
   -7.2992774943E-01   -7.2859818801E-01   -7.2727346138E-01   -7.2595354319E-01
   -7.2463840732E-01   -7.2332802783E-01   -7.2202237895E-01   -7.2072143512E-01
   -7.1942517095E-01   -7.1813356124E-01   -7.1684658095E-01   -7.1556420526E-01
   -7.1428640948E-01   -7.1301316913E-01   -7.1174445989E-01   -7.1048025762E-01
   -7.0922053834E-01   -7.0796527825E-01   -7.0671445371E-01   -7.0546804126E-01
   -7.0422601760E-01   -7.0298835957E-01   -7.0175504421E-01   -7.0052604870E-01
   -6.9930135039E-01   -6.9808092677E-01   -6.9686475550E-01   -6.9565281440E-01
   -6.9444508144E-01   -6.9324153473E-01   -6.9204215255E-01   -6.9084691332E-01
   -6.8965579561E-01   -6.8846877814E-01   -6.8728583977E-01   -6.8610695952E-01
   -6.8493211654E-01   -6.8376129012E-01   -6.8259445970E-01   -6.8143160486E-01
   -6.8027270532E-01   -6.7911774092E-01   -6.7796669167E-01   -6.7681953768E-01
   -6.7567625922E-01   -6.7453683668E-01   -6.7340125058E-01   -6.7226948159E-01
   -6.7114151049E-01   -6.7001731819E-01   -6.6889688574E-01   -6.6778019430E-01
   -6.6666722518E-01   -6.6555795979E-01   -6.6445237967E-01   -6.6335046650E-01
   -6.6225220204E-01   -6.6115756822E-01   -6.6006654707E-01   -6.5897912071E-01
   -6.5789527143E-01   -6.5681498159E-01   -6.5573823369E-01   -6.5466501034E-01
   -6.5359529426E-01   -6.5252906830E-01   -6.5146631538E-01   -6.5040701859E-01
   -6.4935116107E-01   -6.4829872612E-01   -6.4724969711E-01   -6.4620405754E-01
   -6.4516179101E-01   -6.4412288122E-01   -6.4308731198E-01   -6.4205506721E-01
   -6.4102613093E-01   -6.4000048725E-01   -6.3897812039E-01   -6.3795901468E-01
   -6.3694315454E-01   -6.3593052448E-01   -6.3492110913E-01   -6.3391489320E-01