Ag    ONCVPSP-3.3.1  r_core=   2.69244   2.56699   2.50648
     47.0000     19.0000      210905    zatom,zion,pspd
     8 -116133   2     4   600     0    pspcod,pspxc,lmax,lloc,mmax,r2well
  5.99000000  0.00000000  0.00000000    rchrg fchrg qchrg
     2     2     2     0     0    nproj
     1     1           extension_switch
   0                         3.7952948438608D+00  4.5641828732218D-01
     1  0.0000000000000D+00 -4.8517301287632D-12 -3.0722924204696D-12
     2  1.0000000000000D-02  6.0216456000682D-02 -3.5190003118963D-03
     3  2.0000000000000D-02  1.2032546193297D-01 -6.9955129923991D-03
     4  3.0000000000000D-02  1.8021979263060D-01 -1.0387136978161D-02
     5  4.0000000000000D-02  2.3979267221934D-01 -1.3651644310385D-02
     6  5.0000000000000D-02  2.9893799748363D-01 -1.6747066607411D-02
     7  6.0000000000000D-02  3.5755055970142D-01 -1.9631781439526D-02
     8  7.0000000000000D-02  4.1552626444218D-01 -2.2264598569698D-02
     9  8.0000000000000D-02  4.7276234882814D-01 -2.4604846020915D-02
    10  9.0000000000000D-02  5.2915759576450D-01 -2.6612455926897D-02
    11  1.0000000000000D-01  5.8461254465188D-01 -2.8248050118588D-02
    12  1.1000000000000D-01  6.3902969810246D-01 -2.9473025393278D-02
    13  1.2000000000000D-01  6.9231372419079D-01 -3.0249638407829D-02
    14  1.3000000000000D-01  7.4437165378092D-01 -3.0541090130567D-02
    15  1.4000000000000D-01  7.9511307248296D-01 -3.0311609779740D-02
    16  1.5000000000000D-01  8.4445030680536D-01 -2.9526538168741D-02
    17  1.6000000000000D-01  8.9229860408248D-01 -2.8152410370493D-02
    18  1.7000000000000D-01  9.3857630577215D-01 -2.6157037604974D-02
    19  1.8000000000000D-01  9.8320501373337D-01 -2.3509588245192D-02
    20  1.9000000000000D-01  1.0261097491112D+00 -2.0180667828097D-02
    21  2.0000000000000D-01  1.0672191034734D+00 -1.6142397947770D-02
    22  2.1000000000000D-01  1.1064653818609D+00 -1.1368493898899D-02
    23  2.2000000000000D-01  1.1437847374349D+00 -5.8343409293930D-03
    24  2.3000000000000D-01  1.1791172974220D+00  4.8293104818199D-04
    25  2.4000000000000D-01  1.2124072800795D+00  7.6043744461956D-03
    26  2.5000000000000D-01  1.2436031024242D+00  1.5549152860984D-02
    27  2.6000000000000D-01  1.2726574784915D+00  2.4334471978472D-02
    28  2.7000000000000D-01  1.2995275079099D+00  3.3975512712527D-02
    29  2.8000000000000D-01  1.3241747546044D+00  4.4485366769217D-02
    30  2.9000000000000D-01  1.3465653154594D+00  5.5874974838478D-02
    31  3.0000000000000D-01  1.3666698788020D+00  6.8153067621111D-02
    32  3.1000000000000D-01  1.3844637725829D+00  8.1326109905596D-02
    33  3.2000000000000D-01  1.3999270021647D+00  9.5398247914764D-02
    34  3.3000000000000D-01  1.4130442776432D+00  1.1037126014685D-01
    35  3.4000000000000D-01  1.4238050306602D+00  1.2624451194007D-01
    36  3.5000000000000D-01  1.4322034206835D+00  1.4301491399216D-01
    37  3.6000000000000D-01  1.4382383307595D+00  1.6067688506899D-01
    38  3.7000000000000D-01  1.4419133527660D+00  1.7922231913702D-01
    39  3.8000000000000D-01  1.4432367622189D+00  1.9864055715455D-01
    40  3.9000000000000D-01  1.4422214827077D+00  2.1891836375531D-01
    41  4.0000000000000D-01  1.4388850400639D+00  2.4003990905592D-01
    42  4.1000000000000D-01  1.4332495063850D+00  2.6198675581485D-01
    43  4.2000000000000D-01  1.4253414340637D+00  2.8473785216575D-01
    44  4.3000000000000D-01  1.4151917799941D+00  3.0826953014196D-01
    45  4.4000000000000D-01  1.4028358201493D+00  3.3255551020182D-01
    46  4.5000000000000D-01  1.3883130547469D+00  3.5756691195507D-01
    47  4.6000000000000D-01  1.3716671042408D+00  3.8327227128117D-01
    48  4.7000000000000D-01  1.3529455963995D+00  4.0963756401878D-01
    49  4.8000000000000D-01  1.3322000447493D+00  4.3662623639255D-01
    50  4.9000000000000D-01  1.3094857186841D+00  4.6419924233004D-01
    51  5.0000000000000D-01  1.2848615055589D+00  4.9231508780536D-01
    52  5.1000000000000D-01  1.2583897651048D+00  5.2092988233033D-01
    53  5.2000000000000D-01  1.2301361765198D+00  5.4999739769529D-01
    54  5.3000000000000D-01  1.2001695786060D+00  5.7946913404323D-01
    55  5.4000000000000D-01  1.1685618033407D+00  6.0929439334009D-01
    56  5.5000000000000D-01  1.1353875032821D+00  6.3942036028279D-01
    57  5.6000000000000D-01  1.1007239732249D+00  6.6979219066435D-01
    58  5.7000000000000D-01  1.0646509665339D+00  7.0035310719168D-01
    59  5.8000000000000D-01  1.0272505065953D+00  7.3104450272680D-01
    60  5.9000000000000D-01  9.8860669383647D-01  7.6180605089796D-01
    61  6.0000000000000D-01  9.4880550877330D-01  7.9257582399974D-01
    62  6.1000000000000D-01  9.0793461155461D-01  8.2329041807558D-01
    63  6.2000000000000D-01  8.6608313847944D-01  8.5388508504770D-01
    64  6.3000000000000D-01  8.2334149596917D-01  8.8429387173237D-01
    65  6.4000000000000D-01  7.7980115248240D-01  9.1444976554939D-01
    66  6.5000000000000D-01  7.3555442886367D-01  9.4428484670636D-01
    67  6.6000000000000D-01  6.9069428762074D-01  9.7373044660939D-01
    68  6.7000000000000D-01  6.4531412162604D-01  1.0027173122226D+00
    69  6.8000000000000D-01  5.9950754273920D-01  1.0311757760705D+00
    70  6.9000000000000D-01  5.5336817084641D-01  1.0590359315473D+00
    71  7.0000000000000D-01  5.0698942381080D-01  1.0862278131703D+00
    72  7.1000000000000D-01  4.6046430882503D-01  1.1126815813843D+00
    73  7.2000000000000D-01  4.1388521565334D-01  1.1383277114986D+00
    74  7.3000000000000D-01  3.6734371224494D-01  1.1630971863081D+00
    75  7.4000000000000D-01  3.2093034319447D-01  1.1869216919265D+00
    76  7.5000000000000D-01  2.7473443151777D-01  1.2097338163329D+00
    77  7.6000000000000D-01  2.2884388420279D-01  1.2314672501068D+00
    78  7.7000000000000D-01  1.8334500198599D-01  1.2520569888073D+00
    79  7.8000000000000D-01  1.3832229379398D-01  1.2714395364250D+00
    80  7.9000000000000D-01  9.3858296278604D-02  1.2895531093172D+00
    81  8.0000000000000D-01  5.0033398861455D-02  1.3063378400181D+00
    82  8.1000000000000D-01  6.9256746899002D-03  1.3217359802943D+00
    83  8.2000000000000D-01 -3.5389282107121D-02  1.3356921028024D+00
    84  8.3000000000000D-01 -7.6838512490708D-02  1.3481533006906D+00
    85  8.4000000000000D-01 -1.1735184155409D-01  1.3590693844719D+00
    86  8.5000000000000D-01 -1.5686202019513D-01  1.3683930754853D+00
    87  8.6000000000000D-01 -1.9530485909645D-01  1.3760801952564D+00
    88  8.7000000000000D-01 -2.3261935470881D-01  1.3820898500548D+00
    89  8.8000000000000D-01 -2.6874780695211D-01  1.3863846099482D+00
    90  8.9000000000000D-01 -3.0363592836769D-01  1.3889306816450D+00
    91  9.0000000000000D-01 -3.3723294447572D-01  1.3896980744194D+00
    92  9.1000000000000D-01 -3.6949168511187D-01  1.3886607584142D+00
    93  9.2000000000000D-01 -4.0036866653830D-01  1.3857968146196D+00
    94  9.3000000000000D-01 -4.2982416414543D-01  1.3810885758349D+00
    95  9.4000000000000D-01 -4.5782227558236D-01  1.3745227579253D+00
    96  9.5000000000000D-01 -4.8433097417586D-01  1.3660905807003D+00
    97  9.6000000000000D-01 -5.0932215251998D-01  1.3557878777522D+00
    98  9.7000000000000D-01 -5.3277165614054D-01  1.3436151946069D+00
    99  9.8000000000000D-01 -5.5465930716113D-01  1.3295778745619D+00
   100  9.9000000000000D-01 -5.7496891791999D-01  1.3136861316002D+00
   101  1.0000000000000D+00 -5.9368829450905D-01  1.2959551097978D+00
   102  1.0100000000000D+00 -6.1080923022941D-01  1.2764049286617D+00
   103  1.0200000000000D+00 -6.2632748897973D-01  1.2550607138651D+00
   104  1.0300000000000D+00 -6.4024277861517D-01  1.2319526128737D+00
   105  1.0400000000000D+00 -6.5255871433807D-01  1.2071157949887D+00
   106  1.0500000000000D+00 -6.6328277220180D-01  1.1805904353642D+00
   107  1.0600000000000D+00 -6.7242623283094D-01  1.1524216825895D+00
   108  1.0700000000000D+00 -6.8000411548261D-01  1.1226596094679D+00
   109  1.0800000000000D+00 -6.8603510259221D-01  1.0913591466534D+00
   110  1.0900000000000D+00 -6.9054145496900D-01  1.0585799988520D+00
   111  1.1000000000000D+00 -6.9354891782521D-01  1.0243865433333D+00
   112  1.1100000000000D+00 -6.9508661784146D-01  9.8884771053748D-01
   113  1.1200000000000D+00 -6.9518695149005D-01  9.5203684661052D-01
   114  1.1300000000000D+00 -6.9388546485286D-01  9.1403155773423D-01
   115  1.1400000000000D+00 -6.9122072519116D-01  8.7491353617467D-01
   116  1.1500000000000D+00 -6.8723418453780D-01  8.3476836800859D-01
   117  1.1600000000000D+00 -6.8197003559925D-01  7.9368532253925D-01
   118  1.1700000000000D+00 -6.7547506026656D-01  7.5175712344787D-01
   119  1.1800000000000D+00 -6.6779847105195D-01  7.0907970178812D-01
   120  1.1900000000000D+00 -6.5899174577830D-01  6.6575193096945D-01
   121  1.2000000000000D+00 -6.4910845585922D-01  6.2187534391732D-01
   122  1.2100000000000D+00 -6.3820408852009D-01  5.7755383264766D-01
   123  1.2200000000000D+00 -6.2633586332066D-01  5.3289333054296D-01
   124  1.2300000000000D+00 -6.1356254334747D-01  4.8800147765942D-01
   125  1.2400000000000D+00 -5.9994424145072D-01  4.4298726942282D-01
   126  1.2500000000000D+00 -5.8554222191116D-01  3.9796068914084D-01
   127  1.2600000000000D+00 -5.7041869792535D-01  3.5303232479155D-01
   128  1.2700000000000D+00 -5.5463662530114D-01  3.0831297056206D-01
   129  1.2800000000000D+00 -5.3825949276334D-01  2.6391321369423D-01
   130  1.2900000000000D+00 -5.2135110926795D-01  2.1994300721269D-01
   131  1.3000000000000D+00 -5.0397538872674D-01  1.7651122911969D-01
   132  1.3100000000000D+00 -4.8619613254528D-01  1.3372522872620D-01
   133  1.3200000000000D+00 -4.6807681037393D-01  9.1690360791941D-02
   134  1.3300000000000D+00 -4.4968033947496D-01  5.0509508159808D-02
   135  1.3400000000000D+00 -4.3106886310106D-01  1.0282593647719D-02
   136  1.3500000000000D+00 -4.1230352827876D-01 -2.8893918055674D-02
   137  1.3600000000000D+00 -3.9344426339119D-01 -6.6927527713060D-02
   138  1.3700000000000D+00 -3.7454955593664D-01 -1.0373021725053D-01
   139  1.3800000000000D+00 -3.5567623084765D-01 -1.3921897305737D-01
   140  1.3900000000000D+00 -3.3687922974058D-01 -1.7331631601795D-01
   141  1.4000000000000D+00 -3.1821139144842D-01 -2.0595083741782D-01
   142  1.4100000000000D+00 -2.9972323420963D-01 -2.3705773987031D-01
   143  1.4200000000000D+00 -2.8146273983529D-01 -2.6657938236894D-01
   144  1.4300000000000D+00 -2.6347514020215D-01 -2.9446582859808D-01
   145  1.4400000000000D+00 -2.4580270639446D-01 -3.2067539760332D-01
   146  1.4500000000000D+00 -2.2848454078525D-01 -3.4517521594575D-01
   147  1.4600000000000D+00 -2.1155637239114D-01 -3.6794177043869D-01
   148  1.4700000000000D+00 -1.9505035574137D-01 -3.8896146060309D-01
   149  1.4800000000000D+00 -1.7899487357171D-01 -4.0823114994895D-01
   150  1.4900000000000D+00 -1.6341433917690D-01 -4.2575873305893D-01
   151  1.5000000000000D+00 -1.4832902870731D-01 -4.4156359583199D-01
   152  1.5100000000000D+00 -1.3375482602001D-01 -4.5567744285119D-01
   153  1.5200000000000D+00 -1.1970325957377D-01 -4.6814396781338D-01
   154  1.5300000000000D+00 -1.0618100526057D-01 -4.7902067366451D-01
   155  1.5400000000000D+00 -9.3189547453352D-02 -4.8838010826417D-01
   156  1.5500000000000D+00 -8.0726770109900D-02 -4.9630323946405D-01
   157  1.5600000000000D+00 -6.8788152936546D-02 -5.0287454703231D-01
   158  1.5700000000000D+00 -5.7368340990868D-02 -5.0817582585009D-01
   159  1.5800000000000D+00 -4.6461942964257D-02 -5.1228312267395D-01
   160  1.5900000000000D+00 -3.6063008038655D-02 -5.1526910579597D-01
   161  1.6000000000000D+00 -2.6165094425882D-02 -5.1720301211017D-01
   162  1.6100000000000D+00 -1.6761343680220D-02 -5.1815055521664D-01
   163  1.6200000000000D+00 -7.8444721986131D-03 -5.1817418008556D-01
   164  1.6300000000000D+00  5.9320620190081D-04 -5.1733318643862D-01
   165  1.6400000000000D+00  8.5597674531171D-03 -5.1568389014240D-01
   166  1.6500000000000D+00  1.6063661165393D-02 -5.1327976903840D-01
   167  1.6600000000000D+00  2.3113694328267D-02 -5.1017160527775D-01
   168  1.6700000000000D+00  2.9719014533039D-02 -5.0640762305539D-01
   169  1.6800000000000D+00  3.5889092648717D-02 -5.0203362119510D-01
   170  1.6900000000000D+00  4.1633705102019D-02 -4.9709310111262D-01
   171  1.7000000000000D+00  4.6962915739514D-02 -4.9162738979314D-01
   172  1.7100000000000D+00  5.1887057320916D-02 -4.8567575793405D-01
   173  1.7200000000000D+00  5.6416712642207D-02 -4.7927553297369D-01
   174  1.7300000000000D+00  6.0562695351992D-02 -4.7246220724101D-01
   175  1.7400000000000D+00  6.4336030464088D-02 -4.6526954097180D-01
   176  1.7500000000000D+00  6.7747934628126D-02 -4.5772966044036D-01
   177  1.7600000000000D+00  7.0809796170486D-02 -4.4987315100540D-01
   178  1.7700000000000D+00  7.3533154963987D-02 -4.4172914531663D-01
   179  1.7800000000000D+00  7.5929682148881D-02 -4.3332540654972D-01
   180  1.7900000000000D+00  7.8011159758206D-02 -4.2468840689183D-01
   181  1.8000000000000D+00  7.9789460280271D-02 -4.1584340123058D-01
   182  1.8100000000000D+00  8.1276526205258D-02 -4.0681449622369D-01
   183  1.8200000000000D+00  8.2484349597845D-02 -3.9762471480300D-01
   184  1.8300000000000D+00  8.3424951737995D-02 -3.8829605622835D-01
   185  1.8400000000000D+00  8.4110362876674D-02 -3.7884955185180D-01
   186  1.8500000000000D+00  8.4552602147835D-02 -3.6930531663851D-01
   187  1.8600000000000D+00  8.4763657681990D-02 -3.5968259670892D-01
   188  1.8700000000000D+00  8.4755466968425D-02 -3.4999981288587D-01
   189  1.8800000000000D+00  8.4539897501110D-02 -3.4027460058928D-01
   190  1.8900000000000D+00  8.4128727767726D-02 -3.3052384604418D-01
   191  1.9000000000000D+00  8.3533628604038D-02 -3.2076371914063D-01
   192  1.9100000000000D+00  8.2766144978257D-02 -3.1100970298898D-01
   193  1.9200000000000D+00  8.1837678227254D-02 -3.0127662041958D-01
   194  1.9300000000000D+00  8.0759468797608D-02 -2.9157865758002D-01
   195  1.9400000000000D+00  7.9542579531047D-02 -2.8192938480157D-01
   196  1.9500000000000D+00  7.8197879514460D-02 -2.7234177494741D-01
   197  1.9600000000000D+00  7.6736028570388D-02 -2.6282821939964D-01
   198  1.9700000000000D+00  7.5167462363930D-02 -2.5340054187924D-01
   199  1.9800000000000D+00  7.3502378230883D-02 -2.4407001030585D-01
   200  1.9900000000000D+00  7.1750721691146D-02 -2.3484734683836D-01
   201  2.0000000000000D+00  6.9922173723681D-02 -2.2574273632492D-01
   202  2.0100000000000D+00  6.8026138820021D-02 -2.1676583332834D-01
   203  2.0200000000000D+00  6.6071733807990D-02 -2.0792576785807D-01
   204  2.0300000000000D+00  6.4067777547401D-02 -1.9923115011241D-01
   205  2.0400000000000D+00  6.2022781410462D-02 -1.9069007420275D-01
   206  2.0500000000000D+00  5.9944940677158D-02 -1.8231012125142D-01
   207  2.0600000000000D+00  5.7842126780141D-02 -1.7409836184670D-01
   208  2.0700000000000D+00  5.5721880435345D-02 -1.6606135806306D-01
   209  2.0800000000000D+00  5.3591405720357D-02 -1.5820516532102D-01
   210  2.0900000000000D+00  5.1457564989620D-02 -1.5053533392112D-01
   211  2.1000000000000D+00  4.9326874788343D-02 -1.4305691080867D-01
   212  2.1100000000000D+00  4.7205502629976D-02 -1.3577444131243D-01
   213  2.1200000000000D+00  4.5099264702304D-02 -1.2869197116332D-01
   214  2.1300000000000D+00  4.3013624535026D-02 -1.2181304901427D-01
   215  2.1400000000000D+00  4.0953692494435D-02 -1.1514072916182D-01
   216  2.1500000000000D+00  3.8924226275849D-02 -1.0867757513774D-01
   217  2.1600000000000D+00  3.6929632228978D-02 -1.0242566375254D-01
   218  2.1700000000000D+00  3.4973967561879D-02 -9.6386589864343D-02
   219  2.1800000000000D+00  3.3060943465343D-02 -9.0561472145730D-02
   220  2.1900000000000D+00  3.1193928993351D-02 -8.4950959386722D-02
   221  2.2000000000000D+00  2.9375955844494D-02 -7.9555237993005D-02
   222  2.2100000000000D+00  2.7609723914421D-02 -7.4374040324573D-02
   223  2.2200000000000D+00  2.5897607580110D-02 -6.9406653850122D-02
   224  2.2300000000000D+00  2.4241662811922D-02 -6.4651931637470D-02
   225  2.2400000000000D+00  2.2643634918897D-02 -6.0108303526599D-02
   226  2.2500000000000D+00  2.1104967008357D-02 -5.5773788465459D-02
   227  2.2600000000000D+00  1.9626809114201D-02 -5.1646007964795D-02
   228  2.2700000000000D+00  1.8210027863827D-02 -4.7722200230699D-02
   229  2.2800000000000D+00  1.6855216788321D-02 -4.3999235630573D-02
   230  2.2900000000000D+00  1.5562707127705D-02 -4.0473632945452D-02
   231  2.3000000000000D+00  1.4332579098938D-02 -3.7141576402474D-02
   232  2.3100000000000D+00  1.3164673664211D-02 -3.3998933894897D-02
   233  2.3200000000000D+00  1.2058604652568D-02 -3.1041275750897D-02
   234  2.3300000000000D+00  1.1013771246410D-02 -2.8263894335590D-02
   235  2.3400000000000D+00  1.0029370794243D-02 -2.5661824497237D-02
   236  2.3500000000000D+00  9.1044118585592D-03 -2.3229864421258D-02
   237  2.3600000000000D+00  8.2377274912210D-03 -2.0962597210250D-02
   238  2.3700000000000D+00  7.4279886719843D-03 -1.8854412958949D-02
   239  2.3800000000000D+00  6.6737178642154D-03 -1.6899531080093D-02
   240  2.3900000000000D+00  5.9733026333580D-03 -1.5092023132503D-02
   241  2.4000000000000D+00  5.3250092847268D-03 -1.3425835815482D-02
   242  2.4100000000000D+00  4.7269964979290D-03 -1.1894814045647D-02
   243  2.4200000000000D+00  4.1773288414593D-03 -1.0492724199669D-02
   244  2.4300000000000D+00  3.6739901916432D-03 -9.2132772531520D-03
   245  2.4400000000000D+00  3.2148970075863D-03 -8.0501517993482D-03
   246  2.4500000000000D+00  2.7979113218031D-03 -6.9970168346894D-03
   247  2.4600000000000D+00  2.4208535270502D-03 -6.0475542368348D-03
   248  2.4700000000000D+00  2.0815148771466D-03 -5.1954808526651D-03
   249  2.4800000000000D+00  1.7776695556265D-03 -4.4345699851753D-03
   250  2.4900000000000D+00  1.5070864427404D-03 -3.7586723804893D-03
   251  2.5000000000000D+00  1.2675404620311D-03 -3.1617365388141D-03
   252  2.5100000000000D+00  1.0568233633232D-03 -2.6378280889812D-03
   253  2.5200000000000D+00  8.7275411814544D-04 -2.1811484866845D-03
   254  2.5300000000000D+00  7.1318877899972D-04 -1.7860527680923D-03
   255  2.5400000000000D+00  5.7602965754648D-04 -1.4470660615910D-03
   256  2.5500000000000D+00  4.5923404281211D-04 -1.1588992677189D-03
   257  2.5600000000000D+00  3.6082229774935D-04 -9.1646358001813D-04
   258  2.5700000000000D+00  2.7888516691192D-04 -7.1488347863909D-04
   259  2.5800000000000D+00  2.1159056662065D-04 -5.4950876260796D-04
   260  2.5900000000000D+00  1.5718970910371D-04 -4.1592529829257D-04
   261  2.6000000000000D+00  1.1402320669668D-04 -3.0997646868301D-04
   262  2.6100000000000D+00  8.0525316508454D-05 -2.2776490304080D-04
   263  2.6200000000000D+00  5.5220685163858D-05 -1.6555476067113D-04
   264  2.6300000000000D+00  3.6732735680425D-05 -1.1989338747772D-04
   265  2.6400000000000D+00  2.3758367927725D-05 -8.7380977818370D-05
   266  2.6500000000000D+00  1.5232324166556D-05 -6.5974372007070D-05
   267  2.6600000000000D+00  1.0118335044909D-05 -5.3291295517036D-05
   268  2.6700000000000D+00  7.6542937007202D-06 -4.8235999036409D-05
   269  2.6800000000000D+00  6.5325107681869D-06 -4.5516122894077D-05
   270  2.6900000000000D+00  5.7821914795897D-06 -4.1432225663869D-05
   271  2.7000000000000D+00  4.3819221404718D-06 -3.1413196561926D-05
   272  2.7100000000000D+00  2.5343222178205D-06 -1.8014684765285D-05
   273  2.7200000000000D+00  7.1918418500953D-07 -5.0513724346919D-06
   274  2.7300000000000D+00 -3.6009324376511D-07  2.6246937924130D-06
   275  2.7400000000000D+00 -5.6383530560894D-07  4.1019656303337D-06
   276  2.7500000000000D+00 -3.1193185993371D-07  2.2639800496827D-06
   277  2.7600000000000D+00  3.6171961809076D-08 -2.7373790098059D-07
   278  2.7700000000000D+00  1.1736069440665D-07 -8.9065568407503D-07
   279  2.7800000000000D+00  9.4860513735451D-08 -7.2161778119036D-07
   280  2.7900000000000D+00  5.4706833584277D-09 -4.1701254544215D-08
   281  2.8000000000000D+00 -1.3077753681748D-08  9.3705187120827D-08
   282  2.8100000000000D+00 -1.4930869067584D-08  1.0698319557793D-07
   283  2.8200000000000D+00 -5.4845949948597D-09  3.9298415674592D-08
   284  2.8300000000000D+00  0.0000000000000D+00  0.0000000000000D+00
   285  2.8400000000000D+00  0.0000000000000D+00  0.0000000000000D+00
   286  2.8500000000000D+00  0.0000000000000D+00  0.0000000000000D+00
   287  2.8600000000000D+00  0.0000000000000D+00  0.0000000000000D+00
   288  2.8700000000000D+00  0.0000000000000D+00  0.0000000000000D+00
   289  2.8800000000000D+00  0.0000000000000D+00  0.0000000000000D+00
   290  2.8900000000000D+00  0.0000000000000D+00  0.0000000000000D+00
   291  2.9000000000000D+00  0.0000000000000D+00  0.0000000000000D+00
   292  2.9100000000000D+00  0.0000000000000D+00  0.0000000000000D+00
   293  2.9200000000000D+00  0.0000000000000D+00  0.0000000000000D+00
   294  2.9300000000000D+00  0.0000000000000D+00  0.0000000000000D+00
   295  2.9400000000000D+00  0.0000000000000D+00  0.0000000000000D+00
   296  2.9500000000000D+00  0.0000000000000D+00  0.0000000000000D+00
   297  2.9600000000000D+00  0.0000000000000D+00  0.0000000000000D+00
   298  2.9700000000000D+00  0.0000000000000D+00  0.0000000000000D+00
   299  2.9800000000000D+00  0.0000000000000D+00  0.0000000000000D+00
   300  2.9900000000000D+00  0.0000000000000D+00  0.0000000000000D+00
   301  3.0000000000000D+00  0.0000000000000D+00  0.0000000000000D+00
   302  3.0100000000000D+00  0.0000000000000D+00  0.0000000000000D+00
   303  3.0200000000000D+00  0.0000000000000D+00  0.0000000000000D+00
   304  3.0300000000000D+00  0.0000000000000D+00  0.0000000000000D+00
   305  3.0400000000000D+00  0.0000000000000D+00  0.0000000000000D+00
   306  3.0500000000000D+00  0.0000000000000D+00  0.0000000000000D+00
   307  3.0600000000000D+00  0.0000000000000D+00  0.0000000000000D+00
   308  3.0700000000000D+00  0.0000000000000D+00  0.0000000000000D+00
   309  3.0800000000000D+00  0.0000000000000D+00  0.0000000000000D+00
   310  3.0900000000000D+00  0.0000000000000D+00  0.0000000000000D+00
   311  3.1000000000000D+00  0.0000000000000D+00  0.0000000000000D+00
   312  3.1100000000000D+00  0.0000000000000D+00  0.0000000000000D+00
   313  3.1200000000000D+00  0.0000000000000D+00  0.0000000000000D+00
   314  3.1300000000000D+00  0.0000000000000D+00  0.0000000000000D+00
   315  3.1400000000000D+00  0.0000000000000D+00  0.0000000000000D+00
   316  3.1500000000000D+00  0.0000000000000D+00  0.0000000000000D+00
   317  3.1600000000000D+00  0.0000000000000D+00  0.0000000000000D+00
   318  3.1700000000000D+00  0.0000000000000D+00  0.0000000000000D+00
   319  3.1800000000000D+00  0.0000000000000D+00  0.0000000000000D+00
   320  3.1900000000000D+00  0.0000000000000D+00  0.0000000000000D+00
   321  3.2000000000000D+00  0.0000000000000D+00  0.0000000000000D+00
   322  3.2100000000000D+00  0.0000000000000D+00  0.0000000000000D+00
   323  3.2200000000000D+00  0.0000000000000D+00  0.0000000000000D+00
   324  3.2300000000000D+00  0.0000000000000D+00  0.0000000000000D+00
   325  3.2400000000000D+00  0.0000000000000D+00  0.0000000000000D+00
   326  3.2500000000000D+00  0.0000000000000D+00  0.0000000000000D+00
   327  3.2600000000000D+00  0.0000000000000D+00  0.0000000000000D+00
   328  3.2700000000000D+00  0.0000000000000D+00  0.0000000000000D+00
   329  3.2800000000000D+00  0.0000000000000D+00  0.0000000000000D+00
   330  3.2900000000000D+00  0.0000000000000D+00  0.0000000000000D+00
   331  3.3000000000000D+00  0.0000000000000D+00  0.0000000000000D+00
   332  3.3100000000000D+00  0.0000000000000D+00  0.0000000000000D+00
   333  3.3200000000000D+00  0.0000000000000D+00  0.0000000000000D+00
   334  3.3300000000000D+00  0.0000000000000D+00  0.0000000000000D+00
   335  3.3400000000000D+00  0.0000000000000D+00  0.0000000000000D+00
   336  3.3500000000000D+00  0.0000000000000D+00  0.0000000000000D+00
   337  3.3600000000000D+00  0.0000000000000D+00  0.0000000000000D+00
   338  3.3700000000000D+00  0.0000000000000D+00  0.0000000000000D+00
   339  3.3800000000000D+00  0.0000000000000D+00  0.0000000000000D+00
   340  3.3900000000000D+00  0.0000000000000D+00  0.0000000000000D+00
   341  3.4000000000000D+00  0.0000000000000D+00  0.0000000000000D+00
   342  3.4100000000000D+00  0.0000000000000D+00  0.0000000000000D+00
   343  3.4200000000000D+00  0.0000000000000D+00  0.0000000000000D+00
   344  3.4300000000000D+00  0.0000000000000D+00  0.0000000000000D+00
   345  3.4400000000000D+00  0.0000000000000D+00  0.0000000000000D+00
   346  3.4500000000000D+00  0.0000000000000D+00  0.0000000000000D+00
   347  3.4600000000000D+00  0.0000000000000D+00  0.0000000000000D+00
   348  3.4700000000000D+00  0.0000000000000D+00  0.0000000000000D+00
   349  3.4800000000000D+00  0.0000000000000D+00  0.0000000000000D+00
   350  3.4900000000000D+00  0.0000000000000D+00  0.0000000000000D+00
   351  3.5000000000000D+00  0.0000000000000D+00  0.0000000000000D+00
   352  3.5100000000000D+00  0.0000000000000D+00  0.0000000000000D+00
   353  3.5200000000000D+00  0.0000000000000D+00  0.0000000000000D+00
   354  3.5300000000000D+00  0.0000000000000D+00  0.0000000000000D+00
   355  3.5400000000000D+00  0.0000000000000D+00  0.0000000000000D+00
   356  3.5500000000000D+00  0.0000000000000D+00  0.0000000000000D+00
   357  3.5600000000000D+00  0.0000000000000D+00  0.0000000000000D+00
   358  3.5700000000000D+00  0.0000000000000D+00  0.0000000000000D+00
   359  3.5800000000000D+00  0.0000000000000D+00  0.0000000000000D+00
   360  3.5900000000000D+00  0.0000000000000D+00  0.0000000000000D+00
   361  3.6000000000000D+00  0.0000000000000D+00  0.0000000000000D+00
   362  3.6100000000000D+00  0.0000000000000D+00  0.0000000000000D+00
   363  3.6200000000000D+00  0.0000000000000D+00  0.0000000000000D+00
   364  3.6300000000000D+00  0.0000000000000D+00  0.0000000000000D+00
   365  3.6400000000000D+00  0.0000000000000D+00  0.0000000000000D+00
   366  3.6500000000000D+00  0.0000000000000D+00  0.0000000000000D+00
   367  3.6600000000000D+00  0.0000000000000D+00  0.0000000000000D+00
   368  3.6700000000000D+00  0.0000000000000D+00  0.0000000000000D+00
   369  3.6800000000000D+00  0.0000000000000D+00  0.0000000000000D+00
   370  3.6900000000000D+00  0.0000000000000D+00  0.0000000000000D+00
   371  3.7000000000000D+00  0.0000000000000D+00  0.0000000000000D+00
   372  3.7100000000000D+00  0.0000000000000D+00  0.0000000000000D+00
   373  3.7200000000000D+00  0.0000000000000D+00  0.0000000000000D+00
   374  3.7300000000000D+00  0.0000000000000D+00  0.0000000000000D+00
   375  3.7400000000000D+00  0.0000000000000D+00  0.0000000000000D+00
   376  3.7500000000000D+00  0.0000000000000D+00  0.0000000000000D+00
   377  3.7600000000000D+00  0.0000000000000D+00  0.0000000000000D+00
   378  3.7700000000000D+00  0.0000000000000D+00  0.0000000000000D+00
   379  3.7800000000000D+00  0.0000000000000D+00  0.0000000000000D+00
   380  3.7900000000000D+00  0.0000000000000D+00  0.0000000000000D+00
   381  3.8000000000000D+00  0.0000000000000D+00  0.0000000000000D+00
   382  3.8100000000000D+00  0.0000000000000D+00  0.0000000000000D+00
   383  3.8200000000000D+00  0.0000000000000D+00  0.0000000000000D+00
   384  3.8300000000000D+00  0.0000000000000D+00  0.0000000000000D+00
   385  3.8400000000000D+00  0.0000000000000D+00  0.0000000000000D+00
   386  3.8500000000000D+00  0.0000000000000D+00  0.0000000000000D+00
   387  3.8600000000000D+00  0.0000000000000D+00  0.0000000000000D+00
   388  3.8700000000000D+00  0.0000000000000D+00  0.0000000000000D+00
   389  3.8800000000000D+00  0.0000000000000D+00  0.0000000000000D+00
   390  3.8900000000000D+00  0.0000000000000D+00  0.0000000000000D+00
   391  3.9000000000000D+00  0.0000000000000D+00  0.0000000000000D+00
   392  3.9100000000000D+00  0.0000000000000D+00  0.0000000000000D+00
   393  3.9200000000000D+00  0.0000000000000D+00  0.0000000000000D+00
   394  3.9300000000000D+00  0.0000000000000D+00  0.0000000000000D+00
   395  3.9400000000000D+00  0.0000000000000D+00  0.0000000000000D+00
   396  3.9500000000000D+00  0.0000000000000D+00  0.0000000000000D+00
   397  3.9600000000000D+00  0.0000000000000D+00  0.0000000000000D+00
   398  3.9700000000000D+00  0.0000000000000D+00  0.0000000000000D+00
   399  3.9800000000000D+00  0.0000000000000D+00  0.0000000000000D+00
   400  3.9900000000000D+00  0.0000000000000D+00  0.0000000000000D+00
   401  4.0000000000000D+00  0.0000000000000D+00  0.0000000000000D+00
   402  4.0100000000000D+00  0.0000000000000D+00  0.0000000000000D+00
   403  4.0200000000000D+00  0.0000000000000D+00  0.0000000000000D+00
   404  4.0300000000000D+00  0.0000000000000D+00  0.0000000000000D+00
   405  4.0400000000000D+00  0.0000000000000D+00  0.0000000000000D+00
   406  4.0500000000000D+00  0.0000000000000D+00  0.0000000000000D+00
   407  4.0600000000000D+00  0.0000000000000D+00  0.0000000000000D+00
   408  4.0700000000000D+00  0.0000000000000D+00  0.0000000000000D+00
   409  4.0800000000000D+00  0.0000000000000D+00  0.0000000000000D+00
   410  4.0900000000000D+00  0.0000000000000D+00  0.0000000000000D+00
   411  4.1000000000000D+00  0.0000000000000D+00  0.0000000000000D+00
   412  4.1100000000000D+00  0.0000000000000D+00  0.0000000000000D+00
   413  4.1200000000000D+00  0.0000000000000D+00  0.0000000000000D+00
   414  4.1300000000000D+00  0.0000000000000D+00  0.0000000000000D+00
   415  4.1400000000000D+00  0.0000000000000D+00  0.0000000000000D+00
   416  4.1500000000000D+00  0.0000000000000D+00  0.0000000000000D+00
   417  4.1600000000000D+00  0.0000000000000D+00  0.0000000000000D+00
   418  4.1700000000000D+00  0.0000000000000D+00  0.0000000000000D+00
   419  4.1800000000000D+00  0.0000000000000D+00  0.0000000000000D+00
   420  4.1900000000000D+00  0.0000000000000D+00  0.0000000000000D+00
   421  4.2000000000000D+00  0.0000000000000D+00  0.0000000000000D+00
   422  4.2100000000000D+00  0.0000000000000D+00  0.0000000000000D+00