Ag    ONCVPSP-3.3.1  r_core=   2.69244   2.56699   2.50648
     47.0000     19.0000      210905    zatom,zion,pspd
     8 -116133   2     4   600     0    pspcod,pspxc,lmax,lloc,mmax,r2well
  5.99000000  0.00000000  0.00000000    rchrg fchrg qchrg
     2     3     3     0    nproj
     3     1           extension_switch
     4     3     0    nprojso
   0                         4.4798412362021D-01  3.7611541105834D+00
     1  0.0000000000000D+00 -3.0567250119962D-12 -4.8458459467327D-12
     2  1.0000000000000D-02 -3.7637147222004D-03  6.0147138499691D-02
     3  2.0000000000000D-02 -7.4845624069917D-03  1.2018725361246D-01
     4  3.0000000000000D-02 -1.1119763385987D-02  1.8001354582626D-01
     5  4.0000000000000D-02 -1.4626712694154D-02  2.3951966286816D-01
     6  5.0000000000000D-02 -1.7963067333994D-02  2.9859992204846D-01
     7  6.0000000000000D-02 -2.1086833432564D-02  3.5714953107776D-01
     8  7.0000000000000D-02 -2.3956453252054D-02  4.1506480685346D-01
     9  8.0000000000000D-02 -2.6530892011538D-02  4.7224339171744D-01
    10  9.0000000000000D-02 -2.8769724473867D-02  5.2858446669217D-01
    11  1.0000000000000D-01 -3.0633221247084D-02  5.8398896121015D-01
    12  1.1000000000000D-01 -3.2082434744769D-02  6.3835975885977D-01
    13  1.2000000000000D-01 -3.3079284743832D-02  6.9160189868000D-01
    14  1.3000000000000D-01 -3.3586643472135D-02  7.4362277154747D-01
    15  1.4000000000000D-01 -3.3568420151275D-02  7.9433231121042D-01
    16  1.5000000000000D-01 -3.2989644912644D-02  8.4364317953753D-01
    17  1.6000000000000D-01 -3.1816551997063D-02  8.9147094556285D-01
    18  1.7000000000000D-01 -3.0016662140089D-02  9.3773425792314D-01
    19  1.8000000000000D-01 -2.7558864036613D-02  9.8235501029945D-01
    20  1.9000000000000D-01 -2.4413494769823D-02  1.0252584994916D+00
    21  2.0000000000000D-01 -2.0552419080376D-02  1.0663735757717D+00
    22  2.1000000000000D-01 -1.5949107342754D-02  1.1056327851807D+00
    23  2.2000000000000D-01 -1.0578712106930D-02  1.1429725034521D+00
    24  2.3000000000000D-01 -4.4181430538856D-03  1.1783330612663D+00
    25  2.4000000000000D-01  2.5538597947985D-03  1.2116588605581D+00
    26  2.5000000000000D-01  1.0356654782345D-02  1.2428984816253D+00
    27  2.6000000000000D-01  1.9007629414372D-02  1.2720047808021D+00
    28  2.7000000000000D-01  2.8522133434303D-02  1.2989349784894D+00
    29  2.8000000000000D-01  3.8913414369709D-02  1.3236507373523D+00
    30  2.9000000000000D-01  5.0192555750380D-02  1.3461182305208D+00
    31  3.0000000000000D-01  6.2368418205147D-02  1.3663081996524D+00
    32  3.1000000000000D-01  7.5447583650907D-02  1.3841960027397D+00
    33  3.2000000000000D-01  8.9434302792694D-02  1.3997616515693D+00
    34  3.3000000000000D-01  1.0433044615797D-01  1.4129898387642D+00
    35  3.4000000000000D-01  1.2013545889218D-01  1.4238699543647D+00
    36  3.5000000000000D-01  1.3684631954585D-01  1.4323960919284D+00
    37  3.6000000000000D-01  1.5445750308466D-01  1.4385670441543D+00
    38  3.7000000000000D-01  1.7296094835551D-01  1.4423862880605D+00
    39  3.8000000000000D-01  1.9234603024088D-01  1.4438619597688D+00
    40  3.9000000000000D-01  2.1259953673283D-01  1.4430068189755D+00
    41  4.0000000000000D-01  2.3370565115514D-01  1.4398382032090D+00
    42  4.1000000000000D-01  2.5564593975874D-01  1.4343779720017D+00
    43  4.2000000000000D-01  2.7839934491025D-01  1.4266524411246D+00
    44  4.3000000000000D-01  3.0194218408763D-01  1.4166923070572D+00
    45  4.4000000000000D-01  3.2624815488909D-01  1.4045325618886D+00
    46  4.5000000000000D-01  3.5128834625290D-01  1.3902123988654D+00
    47  4.6000000000000D-01  3.7703125607537D-01  1.3737751088270D+00
    48  4.7000000000000D-01  4.0344281540301D-01  1.3552679677863D+00
    49  4.8000000000000D-01  4.3048641936195D-01  1.3347421159372D+00
    50  4.9000000000000D-01  4.5812296497388D-01  1.3122524283877D+00
    51  5.0000000000000D-01  4.8631089599209D-01  1.2878573779380D+00
    52  5.1000000000000D-01  5.1500625487490D-01  1.2616188902388D+00
    53  5.2000000000000D-01  5.4416274199557D-01  1.2336021916858D+00
    54  5.3000000000000D-01  5.7373178216910D-01  1.2038756504191D+00
    55  5.4000000000000D-01  6.0366259855568D-01  1.1725106108137D+00
    56  5.5000000000000D-01  6.3390229397943D-01  1.1395812218627D+00
    57  5.6000000000000D-01  6.6439593967893D-01  1.1051642598655D+00
    58  5.7000000000000D-01  6.9508667148194D-01  1.0693389458490D+00
    59  5.8000000000000D-01  7.2591579337306D-01  1.0321867581596D+00
    60  5.9000000000000D-01  7.5682288839793D-01  9.9379124067477D-01
    61  6.0000000000000D-01  7.8774593682059D-01  9.5423780709239D-01
    62  6.1000000000000D-01  8.1862144142564D-01  9.1361354176463D-01
    63  6.2000000000000D-01  8.4938455982820D-01  8.7200699755002D-01
    64  6.3000000000000D-01  8.7996924362746D-01  8.2950799116383D-01
    65  6.4000000000000D-01  9.1030838421158D-01  7.8620739651163D-01
    66  6.5000000000000D-01  9.4033396499314D-01  7.4219693649471D-01
    67  6.6000000000000D-01  9.6997721982543D-01  6.9756897377903D-01
    68  6.7000000000000D-01  9.9916879732167D-01  6.5241630102042D-01
    69  6.8000000000000D-01  1.0278389307698D+00  6.0683193103966D-01
    70  6.9000000000000D-01  1.0559176133079D+00  5.6090888743966D-01
    71  7.0000000000000D-01  1.0833347779959D+00  5.1473999615566D-01
    72  7.1000000000000D-01  1.1100204823919D+00  4.6841767842578D-01
    73  7.2000000000000D-01  1.1359050972142D+00  4.2203374566527D-01
    74  7.3000000000000D-01  1.1609194986429D+00  3.7567919672252D-01
    75  7.4000000000000D-01  1.1849952637881D+00  3.2944401798836D-01
    76  7.5000000000000D-01  1.2080648688291D+00  2.8341698682254D-01
    77  7.6000000000000D-01  1.2300618893004D+00  2.3768547875306D-01
    78  7.7000000000000D-01  1.2509212019826D+00  1.9233527889405D-01
    79  7.8000000000000D-01  1.2705791878281D+00  1.4745039801741D-01
    80  7.9000000000000D-01  1.2889739353366D+00  1.0311289370189D-01
    81  8.0000000000000D-01  1.3060454437727D+00  5.9402696970555D-02
    82  8.1000000000000D-01  1.3217358255998D+00  1.6397444814187D-02
    83  8.2000000000000D-01  1.3359895074917D+00 -2.5827681016118D-02
    84  8.3000000000000D-01  1.3487534292645D+00 -6.7200108579240D-02
    85  8.4000000000000D-01  1.3599772400627D+00 -1.0765002332529D-01
    86  8.5000000000000D-01  1.3696134911202D+00 -1.4711050835254D-01
    87  8.6000000000000D-01  1.3776178244076D+00 -1.8551767702250D-01
    88  8.7000000000000D-01  1.3839491564746D+00 -2.2281079763349D-01
    89  8.8000000000000D-01  1.3885698567853D+00 -2.5893240987208D-01
    90  8.9000000000000D-01  1.3914459198474D+00 -2.9382843278112D-01
    91  9.0000000000000D-01  1.3925471304323D+00 -3.2744826400282D-01
    92  9.1000000000000D-01  1.3918472211875D+00 -3.5974487007602D-01
    93  9.2000000000000D-01  1.3893240219441D+00 -3.9067486758725D-01
    94  9.3000000000000D-01  1.3849596000315D+00 -4.2019859499686D-01
    95  9.4000000000000D-01  1.3787403909189D+00 -4.4828017498245D-01
    96  9.5000000000000D-01  1.3706573185127D+00 -4.7488756716397D-01
    97  9.6000000000000D-01  1.3607059044563D+00 -4.9999261109683D-01
    98  9.7000000000000D-01  1.3488863657899D+00 -5.2357105944134D-01
    99  9.8000000000000D-01  1.3352037003490D+00 -5.4560260123917D-01
   100  9.9000000000000D-01  1.3196677592992D+00 -5.6607087524978D-01
   101  1.0000000000000D+00  1.3022933062273D+00 -5.8496347332191D-01
   102  1.0100000000000D+00  1.2831000622342D+00 -6.0227193379769D-01
   103  1.0200000000000D+00  1.2621127364997D+00 -6.1799172496895D-01
   104  1.0300000000000D+00  1.2393610418200D+00 -6.3212221862649D-01
   105  1.0400000000000D+00  1.2148796946486D+00 -6.4466665376605D-01
   106  1.0500000000000D+00  1.1887083992028D+00 -6.5563209053495D-01
   107  1.0600000000000D+00  1.1608918152334D+00 -6.6502935452485D-01
   108  1.0700000000000D+00  1.1314795090919D+00 -6.7287297153722D-01
   109  1.0800000000000D+00  1.1005258877626D+00 -6.7918109296659D-01
   110  1.0900000000000D+00  1.0680901155725D+00 -6.8397541196847D-01
   111  1.1000000000000D+00  1.0342360133253D+00 -6.8728107059648D-01
   112  1.1100000000000D+00  9.9903193965315D-01 -6.8912655811259D-01
   113  1.1200000000000D+00  9.6255065441989D-01 -6.8954360069235D-01
   114  1.1300000000000D+00  9.2486916404754D-01 -6.8856704276215D-01
   115  1.1400000000000D+00  8.8606854869277D-01 -6.8623472022564D-01
   116  1.1500000000000D+00  8.4623377123610D-01 -6.8258732584957D-01
   117  1.1600000000000D+00  8.0545346809807D-01 -6.7766826709557D-01
   118  1.1700000000000D+00  7.6381972193133D-01 -6.7152351669606D-01
   119  1.1800000000000D+00  7.2142781629818D-01 -6.6420145628977D-01
   120  1.1900000000000D+00  6.7837597248136D-01 -6.5575271344227D-01
   121  1.2000000000000D+00  6.3476506861760D-01 -6.4622999238741D-01
   122  1.2100000000000D+00  5.9069834139260D-01 -6.3568789883794D-01
   123  1.2200000000000D+00  5.4628107058577D-01 -6.2418275922304D-01
   124  1.2300000000000D+00  5.0162024679449D-01 -6.1177243471851D-01
   125  1.2400000000000D+00  4.5682422269578D-01 -5.9851613044099D-01
   126  1.2500000000000D+00  4.1200234827286D-01 -5.8447420018841D-01
   127  1.2600000000000D+00  3.6726459046573D-01 -5.6970794711139D-01
   128  1.2700000000000D+00  3.2272113771881D-01 -5.5427942070355D-01
   129  1.2800000000000D+00  2.7848198998117D-01 -5.3825121050640D-01
   130  1.2900000000000D+00  2.3465653473277D-01 -5.2168623692301D-01
   131  1.3000000000000D+00  1.9135310961936D-01 -5.0464753953734D-01
   132  1.3100000000000D+00  1.4867855236276D-01 -4.8719806333773D-01
   133  1.3200000000000D+00  1.0673773861661D-01 -4.6940044323878D-01
   134  1.3300000000000D+00  6.5633108449740D-02 -4.5131678729980D-01
   135  1.3400000000000D+00  2.5464182216606D-02 -4.3300845902939D-01
   136  1.3500000000000D+00 -1.3672933442376D-02 -4.1453585916433D-01
   137  1.3600000000000D+00 -5.1686048696584D-02 -3.9595820731130D-01
   138  1.3700000000000D+00 -8.8487401893914D-02 -3.7733332382214D-01
   139  1.3800000000000D+00 -1.2399417840469D-01 -3.5871741228137D-01
   140  1.3900000000000D+00 -1.5812903609036D-01 -3.4016484296994D-01
   141  1.4000000000000D+00 -1.9082063654471D-01 -3.2172793765152D-01
   142  1.4100000000000D+00 -2.2200418125912D-01 -3.0345675604834D-01
   143  1.4200000000000D+00 -2.5162195182355D-01 -2.8539888432214D-01
   144  1.4300000000000D+00 -2.7962385330143D-01 -2.6759922590193D-01
   145  1.4400000000000D+00 -3.0596795988654D-01 -2.5009979497473D-01
   146  1.4500000000000D+00 -3.3062106197266D-01 -2.3293951292401D-01
   147  1.4600000000000D+00 -3.5355921374110D-01 -2.1615400804324D-01
   148  1.4700000000000D+00 -3.7476828040954D-01 -1.9977541875937D-01
   149  1.4800000000000D+00 -3.9424448425628D-01 -1.8383220067031D-01
   150  1.4900000000000D+00 -4.1199496617673D-01 -1.6834893337624D-01
   151  1.5000000000000D+00 -4.2803824168733D-01 -1.5334615634553D-01
   152  1.5100000000000D+00 -4.4240501929188D-01 -1.3884012047385D-01
   153  1.5200000000000D+00 -4.5513787665661D-01 -1.2484282179040D-01
   154  1.5300000000000D+00 -4.6629305883990D-01 -1.1136151951324D-01
   155  1.5400000000000D+00 -4.7594169907616D-01 -9.8398407390903D-02
   156  1.5500000000000D+00 -4.8416328082786D-01 -8.5952147644233D-02
   157  1.5600000000000D+00 -4.9104079357353D-01 -7.4019024829019D-02
   158  1.5700000000000D+00 -4.9665461335991D-01 -6.2594462679418D-02
   159  1.5800000000000D+00 -5.0107947799045D-01 -5.1673796127494D-02
   160  1.5900000000000D+00 -5.0438682617618D-01 -4.1251768134487D-02
   161  1.6000000000000D+00 -5.0664474463295D-01 -3.1322597630792D-02
   162  1.6100000000000D+00 -5.0791787710328D-01 -2.1880052815373D-02
   163  1.6200000000000D+00 -5.0826767460792D-01 -1.2917444821876D-02
   164  1.6300000000000D+00 -5.0775251549863D-01 -4.4276514942440D-03
   165  1.6400000000000D+00 -5.0642786409601D-01  3.5968685123943D-03
   166  1.6500000000000D+00 -5.0434641408322D-01  1.1164058547309D-02
   167  1.6600000000000D+00 -5.0155822789568D-01  1.8282246438899D-02
   168  1.6700000000000D+00 -4.9811087160893D-01  2.4960126533690D-02
   169  1.6800000000000D+00 -4.9404954484558D-01  3.1206741250759D-02
   170  1.6900000000000D+00 -4.8941720606890D-01  3.7031462260428D-02
   171  1.7000000000000D+00 -4.8425469292696D-01  4.2443971273682D-02
   172  1.7100000000000D+00 -4.7860083781528D-01  4.7454240494794D-02
   173  1.7200000000000D+00 -4.7249257837817D-01  5.2072512736927D-02
   174  1.7300000000000D+00 -4.6596506318261D-01  5.6309281262613D-02
   175  1.7400000000000D+00 -4.5905175231430D-01  6.0175269354297D-02
   176  1.7500000000000D+00 -4.5178451314449D-01  6.3681409675333D-02
   177  1.7600000000000D+00 -4.4419371106972D-01  6.6838823435509D-02
   178  1.7700000000000D+00 -4.3630829547033D-01  6.9658799418116D-02
   179  1.7800000000000D+00 -4.2815588075831D-01  7.2152772892405D-02
   180  1.7900000000000D+00 -4.1976282273624D-01  7.4332304463248D-02
   181  1.8000000000000D+00 -4.1115429022231D-01  7.6209058891465D-02
   182  1.8100000000000D+00 -4.0235433211838D-01  7.7794783930883D-02
   183  1.8200000000000D+00 -3.9338593997604D-01  7.9101289223997D-02
   184  1.8300000000000D+00 -3.8427110617642D-01  8.0140425297896D-02
   185  1.8400000000000D+00 -3.7503087788435D-01  8.0924062706428D-02
   186  1.8500000000000D+00 -3.6568540682430D-01  8.1464071359969D-02
   187  1.8600000000000D+00 -3.5625399514114D-01  8.1772300086518D-02
   188  1.8700000000000D+00 -3.4675513733194D-01  8.1860556471719D-02
   189  1.8800000000000D+00 -3.3720655858793D-01  8.1740587010587D-02
   190  1.8900000000000D+00 -3.2762524951594D-01  8.1424057631140D-02
   191  1.9000000000000D+00 -3.1802749757374D-01  8.0922534609797D-02
   192  1.9100000000000D+00 -3.0842891526546D-01  8.0247465943458D-02
   193  1.9200000000000D+00 -2.9884446534344D-01  7.9410163198424D-02
   194  1.9300000000000D+00 -2.8928848316984D-01  7.8421783888442D-02
   195  1.9400000000000D+00 -2.7977469640923D-01  7.7293314420501D-02
   196  1.9500000000000D+00 -2.7031624226232D-01  7.6035553627130D-02
   197  1.9600000000000D+00 -2.6092568239954D-01  7.4659096960571D-02
   198  1.9700000000000D+00 -2.5161501578412D-01  7.3174321323140D-02
   199  1.9800000000000D+00 -2.4239568959403D-01  7.1591370637873D-02
   200  1.9900000000000D+00 -2.3327860837959D-01  6.9920142122198D-02
   201  2.0000000000000D+00 -2.2427414168587D-01  6.8170273339818D-02
   202  2.0100000000000D+00 -2.1539213030408D-01  6.6351130046735D-02
   203  2.0200000000000D+00 -2.0664189128111D-01  6.4471794822043D-02
   204  2.0300000000000D+00 -1.9803222199082D-01  6.2541056583792D-02
   205  2.0400000000000D+00 -1.8957140323579D-01  6.0567400902277D-02
   206  2.0500000000000D+00 -1.8126720177090D-01  5.8559001239036D-02
   207  2.0600000000000D+00 -1.7312687223005D-01  5.6523711045811D-02
   208  2.0700000000000D+00 -1.6515715866247D-01  5.4469056758452D-02
   209  2.0800000000000D+00 -1.5736429595205D-01  5.2402231746185D-02
   210  2.0900000000000D+00 -1.4975401095182D-01  5.0330091105893D-02
   211  2.1000000000000D+00 -1.4233152388900D-01  4.8259147460218D-02
   212  2.1100000000000D+00 -1.3510154978221D-01  4.6195567625459D-02
   213  2.1200000000000D+00 -1.2806830017508D-01  4.4145170212478D-02
   214  2.1300000000000D+00 -1.2123548540562D-01  4.2113424192116D-02
   215  2.1400000000000D+00 -1.1460631711111D-01  4.0105448292138D-02
   216  2.1500000000000D+00 -1.0818351163387D-01  3.8126011392544D-02
   217  2.1600000000000D+00 -1.0196929390942D-01  3.6179533756519D-02
   218  2.1700000000000D+00 -9.5965402108369D-02  3.4270089140997D-02
   219  2.1800000000000D+00 -9.0173093302590D-02  3.2401407826961D-02
   220  2.1900000000000D+00 -8.4593149693746D-02  3.0576880407560D-02
   221  2.2000000000000D+00 -7.9225886059930D-02  2.8799562475012D-02
   222  2.2100000000000D+00 -7.4071158065357D-02  2.7072180078214D-02
   223  2.2200000000000D+00 -6.9128371407253D-02  2.5397135911837D-02
   224  2.2300000000000D+00 -6.4396492316891D-02  2.3776516329678D-02
   225  2.2400000000000D+00 -5.9874058762647D-02  2.2212098991367D-02
   226  2.2500000000000D+00 -5.5559192831873D-02  2.0705361220521D-02
   227  2.2600000000000D+00 -5.1449614246658D-02  1.9257489028805D-02
   228  2.2700000000000D+00 -4.7542654573067D-02  1.7869386678300D-02
   229  2.2800000000000D+00 -4.3835272774800D-02  1.6541686882737D-02
   230  2.2900000000000D+00 -4.0324071565803D-02  1.5274761502495D-02
   231  2.3000000000000D+00 -3.7005314554396D-02  1.4068732700918D-02
   232  2.3100000000000D+00 -3.3874944582422D-02  1.2923484596877D-02
   233  2.3200000000000D+00 -3.0928602623351D-02  1.1838675270293D-02
   234  2.3300000000000D+00 -2.8161647520509D-02  1.0813749130285D-02
   235  2.3400000000000D+00 -2.5569176574774D-02  9.8479496070468D-03
   236  2.3500000000000D+00 -2.3146046547467D-02  8.9403320788835D-03
   237  2.3600000000000D+00 -2.0886895392303D-02  8.0897770245751D-03
   238  2.3700000000000D+00 -1.8786164485820D-02  7.2950033379954D-03
   239  2.3800000000000D+00 -1.6838121113552D-02  6.5545817604321D-03
   240  2.3900000000000D+00 -1.5036881458083D-02  5.8669483742688D-03
   241  2.4000000000000D+00 -1.3376433755621D-02  5.2304181166393D-03
   242  2.4100000000000D+00 -1.1850661537344D-02  4.6431982907909D-03
   243  2.4200000000000D+00 -1.0453367033717D-02  4.1034019576861D-03
   244  2.4300000000000D+00 -9.1782944761187D-03  3.6090612338596D-03
   245  2.4400000000000D+00 -8.0191532778457D-03  3.1581404470821D-03
   246  2.4500000000000D+00 -6.9696409777976D-03  2.7485490097034D-03
   247  2.4600000000000D+00 -6.0234658762317D-03  2.3781540909533D-03
   248  2.4700000000000D+00 -5.1743692780211D-03  2.0447930061928D-03
   249  2.4800000000000D+00 -4.4161471296514D-03  1.7462851777837D-03
   250  2.4900000000000D+00 -3.7426711545298D-03  1.4804437978731D-03
   251  2.5000000000000D+00 -3.1479093082577D-03  1.2450870750130D-03
   252  2.5100000000000D+00 -2.6259452915033D-03  1.0380489226068D-03
   253  2.5200000000000D+00 -2.1709973836378D-03  8.5718926411243D-04
   254  2.5300000000000D+00 -1.7774363266962D-03  7.0040380760173D-04
   255  2.5400000000000D+00 -1.4398019607408D-03  5.6563314612575D-04
   256  2.5500000000000D+00 -1.1528190236182D-03  4.5087140309994D-04
   257  2.5600000000000D+00 -9.1141178592604D-04  3.5417426255646D-04
   258  2.5700000000000D+00 -7.1071715140600D-04  2.7366621878681D-04
   259  2.5800000000000D+00 -5.4609679153059D-04  2.0754731402819D-04
   260  2.5900000000000D+00 -4.1314799032052D-04  1.5409921720845D-04
   261  2.6000000000000D+00 -3.0772494895850D-04  1.1169117329202D-04
   262  2.6100000000000D+00 -2.2594071377766D-04  7.8784276752942D-05
   263  2.6200000000000D+00 -1.6407148297955D-04  5.3929186983423D-05
   264  2.6300000000000D+00 -1.1867609503708D-04  3.5773376323475D-05
   265  2.6400000000000D+00 -8.6369896077915D-05  2.3038003842296D-05
   266  2.6500000000000D+00 -6.5105687079692D-05  1.4670181240619D-05
   267  2.6600000000000D+00 -5.2507898668297D-05  9.6499047686067D-06
   268  2.6700000000000D+00 -4.7471006306960D-05  7.2203737440684D-06
   269  2.6800000000000D+00 -4.4768218941769D-05  6.1183802587371D-06
   270  2.6900000000000D+00 -4.0744365079256D-05  5.4039248437818D-06
   271  2.7000000000000D+00 -3.0891205234307D-05  4.0950188202165D-06
   272  2.7100000000000D+00 -1.7716009485263D-05  2.3698985909488D-06
   273  2.7200000000000D+00 -4.9679075393368D-06  6.7312770657460D-07
   274  2.7300000000000D+00  2.5808889488748D-06 -3.3608400353665D-07
   275  2.7400000000000D+00  4.0335534828992D-06 -5.2631993330748D-07
   276  2.7500000000000D+00  2.2262529348636D-06 -2.9123110687579D-07
   277  2.7600000000000D+00 -2.6911415099559D-07  3.3658611321575D-08
   278  2.7700000000000D+00 -8.7559889147965D-07  1.0918080419107D-07
   279  2.7800000000000D+00 -7.0941002784073D-07  8.8231551297889D-08
   280  2.7900000000000D+00 -4.0995361676527D-08  5.0875292716950D-09
   281  2.8000000000000D+00  9.2148820156023D-08 -1.2222114955074D-08
   282  2.8100000000000D+00  1.0520629168923D-07 -1.3953986484533D-08
   283  2.8200000000000D+00  3.8645700944444D-08 -5.1257541731156D-09
   284  2.8300000000000D+00  0.0000000000000D+00  0.0000000000000D+00
   285  2.8400000000000D+00  0.0000000000000D+00  0.0000000000000D+00
   286  2.8500000000000D+00  0.0000000000000D+00  0.0000000000000D+00
   287  2.8600000000000D+00  0.0000000000000D+00  0.0000000000000D+00
   288  2.8700000000000D+00  0.0000000000000D+00  0.0000000000000D+00
   289  2.8800000000000D+00  0.0000000000000D+00  0.0000000000000D+00
   290  2.8900000000000D+00  0.0000000000000D+00  0.0000000000000D+00
   291  2.9000000000000D+00  0.0000000000000D+00  0.0000000000000D+00
   292  2.9100000000000D+00  0.0000000000000D+00  0.0000000000000D+00
   293  2.9200000000000D+00  0.0000000000000D+00  0.0000000000000D+00
   294  2.9300000000000D+00  0.0000000000000D+00  0.0000000000000D+00
   295  2.9400000000000D+00  0.0000000000000D+00  0.0000000000000D+00
   296  2.9500000000000D+00  0.0000000000000D+00  0.0000000000000D+00
   297  2.9600000000000D+00  0.0000000000000D+00  0.0000000000000D+00
   298  2.9700000000000D+00  0.0000000000000D+00  0.0000000000000D+00
   299  2.9800000000000D+00  0.0000000000000D+00  0.0000000000000D+00
   300  2.9900000000000D+00  0.0000000000000D+00  0.0000000000000D+00
   301  3.0000000000000D+00  0.0000000000000D+00  0.0000000000000D+00
   302  3.0100000000000D+00  0.0000000000000D+00  0.0000000000000D+00
   303  3.0200000000000D+00  0.0000000000000D+00  0.0000000000000D+00
   304  3.0300000000000D+00  0.0000000000000D+00  0.0000000000000D+00
   305  3.0400000000000D+00  0.0000000000000D+00  0.0000000000000D+00
   306  3.0500000000000D+00  0.0000000000000D+00  0.0000000000000D+00
   307  3.0600000000000D+00  0.0000000000000D+00  0.0000000000000D+00
   308  3.0700000000000D+00  0.0000000000000D+00  0.0000000000000D+00
   309  3.0800000000000D+00  0.0000000000000D+00  0.0000000000000D+00
   310  3.0900000000000D+00  0.0000000000000D+00  0.0000000000000D+00
   311  3.1000000000000D+00  0.0000000000000D+00  0.0000000000000D+00
   312  3.1100000000000D+00  0.0000000000000D+00  0.0000000000000D+00
   313  3.1200000000000D+00  0.0000000000000D+00  0.0000000000000D+00
   314  3.1300000000000D+00  0.0000000000000D+00  0.0000000000000D+00
   315  3.1400000000000D+00  0.0000000000000D+00  0.0000000000000D+00
   316  3.1500000000000D+00  0.0000000000000D+00  0.0000000000000D+00
   317  3.1600000000000D+00  0.0000000000000D+00  0.0000000000000D+00
   318  3.1700000000000D+00  0.0000000000000D+00  0.0000000000000D+00
   319  3.1800000000000D+00  0.0000000000000D+00  0.0000000000000D+00
   320  3.1900000000000D+00  0.0000000000000D+00  0.0000000000000D+00
   321  3.2000000000000D+00  0.0000000000000D+00  0.0000000000000D+00
   322  3.2100000000000D+00  0.0000000000000D+00  0.0000000000000D+00
   323  3.2200000000000D+00  0.0000000000000D+00  0.0000000000000D+00
   324  3.2300000000000D+00  0.0000000000000D+00  0.0000000000000D+00
   325  3.2400000000000D+00  0.0000000000000D+00  0.0000000000000D+00
   326  3.2500000000000D+00  0.0000000000000D+00  0.0000000000000D+00
   327  3.2600000000000D+00  0.0000000000000D+00  0.0000000000000D+00
   328  3.2700000000000D+00  0.0000000000000D+00  0.0000000000000D+00
   329  3.2800000000000D+00  0.0000000000000D+00  0.0000000000000D+00
   330  3.2900000000000D+00  0.0000000000000D+00  0.0000000000000D+00
   331  3.3000000000000D+00  0.0000000000000D+00  0.0000000000000D+00
   332  3.3100000000000D+00  0.0000000000000D+00  0.0000000000000D+00
   333  3.3200000000000D+00  0.0000000000000D+00  0.0000000000000D+00
   334  3.3300000000000D+00  0.0000000000000D+00  0.0000000000000D+00
   335  3.3400000000000D+00  0.0000000000000D+00  0.0000000000000D+00
   336  3.3500000000000D+00  0.0000000000000D+00  0.0000000000000D+00
   337  3.3600000000000D+00  0.0000000000000D+00  0.0000000000000D+00
   338  3.3700000000000D+00  0.0000000000000D+00  0.0000000000000D+00
   339  3.3800000000000D+00  0.0000000000000D+00  0.0000000000000D+00
   340  3.3900000000000D+00  0.0000000000000D+00  0.0000000000000D+00
   341  3.4000000000000D+00  0.0000000000000D+00  0.0000000000000D+00
   342  3.4100000000000D+00  0.0000000000000D+00  0.0000000000000D+00
   343  3.4200000000000D+00  0.0000000000000D+00  0.0000000000000D+00
   344  3.4300000000000D+00  0.0000000000000D+00  0.0000000000000D+00
   345  3.4400000000000D+00  0.0000000000000D+00  0.0000000000000D+00
   346  3.4500000000000D+00  0.0000000000000D+00  0.0000000000000D+00
   347  3.4600000000000D+00  0.0000000000000D+00  0.0000000000000D+00
   348  3.4700000000000D+00  0.0000000000000D+00  0.0000000000000D+00
   349  3.4800000000000D+00  0.0000000000000D+00  0.0000000000000D+00
   350  3.4900000000000D+00  0.0000000000000D+00  0.0000000000000D+00
   351  3.5000000000000D+00  0.0000000000000D+00  0.0000000000000D+00
   352  3.5100000000000D+00  0.0000000000000D+00  0.0000000000000D+00
   353  3.5200000000000D+00  0.0000000000000D+00  0.0000000000000D+00
   354  3.5300000000000D+00  0.0000000000000D+00  0.0000000000000D+00
   355  3.5400000000000D+00  0.0000000000000D+00  0.0000000000000D+00
   356  3.5500000000000D+00  0.0000000000000D+00  0.0000000000000D+00
   357  3.5600000000000D+00  0.0000000000000D+00  0.0000000000000D+00
   358  3.5700000000000D+00  0.0000000000000D+00  0.0000000000000D+00
   359  3.5800000000000D+00  0.0000000000000D+00  0.0000000000000D+00
   360  3.5900000000000D+00  0.0000000000000D+00  0.0000000000000D+00
   361  3.6000000000000D+00  0.0000000000000D+00  0.0000000000000D+00
   362  3.6100000000000D+00  0.0000000000000D+00  0.0000000000000D+00
   363  3.6200000000000D+00  0.0000000000000D+00  0.0000000000000D+00
   364  3.6300000000000D+00  0.0000000000000D+00  0.0000000000000D+00
   365  3.6400000000000D+00  0.0000000000000D+00  0.0000000000000D+00
   366  3.6500000000000D+00  0.0000000000000D+00  0.0000000000000D+00
   367  3.6600000000000D+00  0.0000000000000D+00  0.0000000000000D+00
   368  3.6700000000000D+00  0.0000000000000D+00  0.0000000000000D+00
   369  3.6800000000000D+00  0.0000000000000D+00  0.0000000000000D+00
   370  3.6900000000000D+00  0.0000000000000D+00  0.0000000000000D+00
   371  3.7000000000000D+00  0.0000000000000D+00  0.0000000000000D+00
   372  3.7100000000000D+00  0.0000000000000D+00  0.0000000000000D+00
   373  3.7200000000000D+00  0.0000000000000D+00  0.0000000000000D+00
   374  3.7300000000000D+00  0.0000000000000D+00  0.0000000000000D+00
   375  3.7400000000000D+00  0.0000000000000D+00  0.0000000000000D+00
   376  3.7500000000000D+00  0.0000000000000D+00  0.0000000000000D+00
   377  3.7600000000000D+00  0.0000000000000D+00  0.0000000000000D+00
   378  3.7700000000000D+00  0.0000000000000D+00  0.0000000000000D+00
   379  3.7800000000000D+00  0.0000000000000D+00  0.0000000000000D+00
   380  3.7900000000000D+00  0.0000000000000D+00  0.0000000000000D+00
   381  3.8000000000000D+00  0.0000000000000D+00  0.0000000000000D+00
   382  3.8100000000000D+00  0.0000000000000D+00  0.0000000000000D+00
   383  3.8200000000000D+00  0.0000000000000D+00  0.0000000000000D+00
   384  3.8300000000000D+00  0.0000000000000D+00  0.0000000000000D+00
   385  3.8400000000000D+00  0.0000000000000D+00  0.0000000000000D+00
   386  3.8500000000000D+00  0.0000000000000D+00  0.0000000000000D+00
   387  3.8600000000000D+00  0.0000000000000D+00  0.0000000000000D+00
   388  3.8700000000000D+00  0.0000000000000D+00  0.0000000000000D+00
   389  3.8800000000000D+00  0.0000000000000D+00  0.0000000000000D+00
   390  3.8900000000000D+00  0.0000000000000D+00  0.0000000000000D+00
   391  3.9000000000000D+00  0.0000000000000D+00  0.0000000000000D+00
   392  3.9100000000000D+00  0.0000000000000D+00  0.0000000000000D+00
   393  3.9200000000000D+00  0.0000000000000D+00  0.0000000000000D+00
   394  3.9300000000000D+00  0.0000000000000D+00  0.0000000000000D+00
   395  3.9400000000000D+00  0.0000000000000D+00  0.0000000000000D+00
   396  3.9500000000000D+00  0.0000000000000D+00  0.0000000000000D+00
   397  3.9600000000000D+00  0.0000000000000D+00  0.0000000000000D+00
   398  3.9700000000000D+00  0.0000000000000D+00  0.0000000000000D+00
   399  3.9800000000000D+00  0.0000000000000D+00  0.0000000000000D+00
   400  3.9900000000000D+00  0.0000000000000D+00  0.0000000000000D+00
   401  4.0000000000000D+00  0.0000000000000D+00  0.0000000000000D+00
   402  4.0100000000000D+00  0.0000000000000D+00  0.0000000000000D+00
   403  4.0200000000000D+00  0.0000000000000D+00  0.0000000000000D+00
   404  4.0300000000000D+00  0.0000000000000D+00  0.0000000000000D+00
   405  4.0400000000000D+00  0.0000000000000D+00  0.0000000000000D+00
   406  4.0500000000000D+00  0.0000000000000D+00  0.0000000000000D+00
   407  4.0600000000000D+00  0.0000000000000D+00  0.0000000000000D+00
   408  4.0700000000000D+00  0.0000000000000D+00  0.0000000000000D+00
   409  4.0800000000000D+00  0.0000000000000D+00  0.0000000000000D+00
   410  4.0900000000000D+00  0.0000000000000D+00  0.0000000000000D+00
   411  4.1000000000000D+00  0.0000000000000D+00  0.0000000000000D+00
   412  4.1100000000000D+00  0.0000000000000D+00  0.0000000000000D+00
   413  4.1200000000000D+00  0.0000000000000D+00  0.0000000000000D+00
   414  4.1300000000000D+00  0.0000000000000D+00  0.0000000000000D+00
   415  4.1400000000000D+00  0.0000000000000D+00  0.0000000000000D+00
   416  4.1500000000000D+00  0.0000000000000D+00  0.0000000000000D+00
   417  4.1600000000000D+00  0.0000000000000D+00  0.0000000000000D+00
   418  4.1700000000000D+00  0.0000000000000D+00  0.0000000000000D+00
   419  4.1800000000000D+00  0.0000000000000D+00  0.0000000000000D+00
   420  4.1900000000000D+00  0.0000000000000D+00  0.0000000000000D+00
   421  4.2000000000000D+00  0.0000000000000D+00  0.0000000000000D+00
   422  4.2100000000000D+00  0.0000000000000D+00  0.0000000000000D+00