Ar    ONCVPSP-3.3.1  r_core=   2.67516   1.78325
     18.0000      8.0000      210905    zatom,zion,pspd
     8 -116133   1     4   600     0    pspcod,pspxc,lmax,lloc,mmax,r2well
  5.99000000  0.00000000  0.00000000    rchrg fchrg qchrg
     2     2     0     0     0    nproj
     1     1           extension_switch
   0                        -2.9702206387011D+00  2.7645939878164D+00
     1  0.0000000000000D+00 -2.4672985876606D-11 -6.9793615331548D-12
     2  1.0000000000000D-02 -4.1564010641610D-02  2.5726074545865D-02
     3  2.0000000000000D-02 -8.3074348179000D-02  5.1436980474212D-02
     4  3.0000000000000D-02 -1.2447730410989D-01  7.7117587051825D-02
     5  4.0000000000000D-02 -1.6571909999328D-01  1.0275283905488D-01
     6  5.0000000000000D-02 -2.0674585461721D-01  1.2832779387739D-01
     7  6.0000000000000D-02 -2.4750355371371D-01  1.5382765786904D-01
     8  7.0000000000000D-02 -2.8793802304074D-01  1.7923782165387D-01
     9  8.0000000000000D-02 -3.2799490562656D-01  2.0454389418798D-01
    10  9.0000000000000D-02 -3.6761964394123D-01  2.2973173532325D-01
    11  1.0000000000000D-01 -4.0675746772379D-01  2.5478748665436D-01
    12  1.1000000000000D-01 -4.4535338815192D-01  2.7969760043772D-01
    13  1.2000000000000D-01 -4.8335219899409D-01  3.0444886638478D-01
    14  1.3000000000000D-01 -5.2069848533235D-01  3.2902843614625D-01
    15  1.4000000000000D-01 -5.5733664038753D-01  3.5342384531987D-01
    16  1.5000000000000D-01 -5.9321089091818D-01  3.7762303283151D-01
    17  1.6000000000000D-01 -6.2826533159995D-01  4.0161435755719D-01
    18  1.7000000000000D-01 -6.6244396872449D-01  4.2538661207310D-01
    19  1.8000000000000D-01 -6.9569077348587D-01  4.4892903344036D-01
    20  1.9000000000000D-01 -7.2794974504931D-01  4.7223131095175D-01
    21  2.0000000000000D-01 -7.5916498352140D-01  4.9528359078934D-01
    22  2.1000000000000D-01 -7.8928077286385D-01  5.1807647756282D-01
    23  2.2000000000000D-01 -8.1824167371471D-01  5.4060103272101D-01
    24  2.3000000000000D-01 -8.4599262600186D-01  5.6284876985047D-01
    25  2.4000000000000D-01 -8.7247906115513D-01  5.8481164689749D-01
    26  2.5000000000000D-01 -8.9764702364392D-01  6.0648205537177D-01
    27  2.6000000000000D-01 -9.2144330149060D-01  6.2785280661134D-01
    28  2.7000000000000D-01 -9.4381556533249D-01  6.4891711521002D-01
    29  2.8000000000000D-01 -9.6471251553173D-01  6.6966857972888D-01
    30  2.9000000000000D-01 -9.8408403675960D-01  6.9010116083358D-01
    31  3.0000000000000D-01 -1.0018813594130D+00  7.1020915701820D-01
    32  3.1000000000000D-01 -1.0180572271546D+00  7.2998717809475D-01
    33  3.2000000000000D-01 -1.0325660698058D+00  7.4943011664430D-01
    34  3.3000000000000D-01 -1.0453641807643D+00  7.6853311764186D-01
    35  3.4000000000000D-01 -1.0564098980631D+00  7.8729154648160D-01
    36  3.5000000000000D-01 -1.0656637881404D+00  8.0570095564229D-01
    37  3.6000000000000D-01 -1.0730888313459D+00  8.2375705024452D-01
    38  3.7000000000000D-01 -1.0786506081699D+00  8.4145565276156D-01
    39  3.8000000000000D-01 -1.0823174851524D+00  8.5879266715395D-01
    40  3.9000000000000D-01 -1.0840607993996D+00  8.7576404270508D-01
    41  4.0000000000000D-01 -1.0838550406179D+00  8.9236573783974D-01
    42  4.1000000000000D-01 -1.0816780295613D+00  9.0859368421115D-01
    43  4.2000000000000D-01 -1.0775110917809D+00  9.2444375134314D-01
    44  4.3000000000000D-01 -1.0713392255648D+00  9.3991171211394D-01
    45  4.4000000000000D-01 -1.0631512629645D+00  9.5499320936563D-01
    46  4.5000000000000D-01 -1.0529400228139D+00  9.6968372391922D-01
    47  4.6000000000000D-01 -1.0407024546705D+00  9.8397854426938D-01
    48  4.7000000000000D-01 -1.0264397726313D+00  9.9787273822492D-01
    49  4.8000000000000D-01 -1.0101575780119D+00  1.0113611267518D+00
    50  4.9000000000000D-01 -9.9186596991235D-01  1.0244382602640D+00
    51  5.0000000000000D-01 -9.7157964274308D-01  1.0370983975948D+00
    52  5.1000000000000D-01 -9.4931796983232D-01  1.0493354878661D+00
    53  5.2000000000000D-01 -9.2510507229400D-01  1.0611431554582D+00
    54  5.3000000000000D-01 -8.9896987239823D-01  1.0725146882642D+00
    55  5.4000000000000D-01 -8.7094613075268D-01  1.0834430293945D+00
    56  5.5000000000000D-01 -8.4107246667599D-01  1.0939207724778D+00
    57  5.6000000000000D-01 -8.0939236122021D-01  1.1039401606821D+00
    58  5.7000000000000D-01 -7.7595414237978D-01  1.1134930895599D+00
    59  5.8000000000000D-01 -7.4081095210838D-01  1.1225711137951D+00
    60  5.9000000000000D-01 -7.0402069485137D-01  1.1311654579104D+00
    61  6.0000000000000D-01 -6.6564596739157D-01  1.1392670309639D+00
    62  6.1000000000000D-01 -6.2575396989694D-01  1.1468664452448D+00
    63  6.2000000000000D-01 -5.8441639815207D-01  1.1539540389489D+00
    64  6.3000000000000D-01 -5.4170931704949D-01  1.1605199027920D+00
    65  6.4000000000000D-01 -4.9771301551115D-01  1.1665539104928D+00
    66  6.5000000000000D-01 -4.5251184310548D-01  1.1720457530328D+00
    67  6.6000000000000D-01 -4.0619402871940D-01  1.1769849765759D+00
    68  6.7000000000000D-01 -3.5885148173751D-01  1.1813610239068D+00
    69  6.8000000000000D-01 -3.1057957627297D-01  1.1851632792220D+00
    70  6.9000000000000D-01 -2.6147691908349D-01  1.1883811160872D+00
    71  7.0000000000000D-01 -2.1164510189319D-01  1.1910039483502D+00
    72  7.1000000000000D-01 -1.6118843892499D-01  1.1930212837791D+00
    73  7.2000000000000D-01 -1.1021369052878D-01  1.1944227801764D+00
    74  7.3000000000000D-01 -5.8829773867083D-02  1.1951983036982D+00
    75  7.4000000000000D-01 -7.1474616920686D-03  1.1953379890943D+00
    76  7.5000000000000D-01  4.4720929684715D-02  1.1948323015676D+00
    77  7.6000000000000D-01  9.6661862066335D-02  1.1936720999349D+00
    78  7.7000000000000D-01  1.4856090546781D-01  1.1918487007639D+00
    79  7.8000000000000D-01  2.0030307536557D-01  1.1893539431459D+00
    80  7.9000000000000D-01  2.5177317578291D-01  1.1861802537559D+00
    81  8.0000000000000D-01  3.0285614685684D-01  1.1823207118478D+00
    82  8.1000000000000D-01  3.5343741549973D-01  1.1777691138221D+00
    83  8.2000000000000D-01  4.0340324774429D-01  1.1725200370052D+00
    84  8.3000000000000D-01  4.5264110134160D-01  1.1665689022756D+00
    85  8.4000000000000D-01  5.0103997717122D-01  1.1599120351725D+00
    86  8.5000000000000D-01  5.4849076801781D-01  1.1525467251288D+00
    87  8.6000000000000D-01  5.9488660327157D-01  1.1444712824703D+00
    88  8.7000000000000D-01  6.4012318811997D-01  1.1356850928331D+00
    89  8.8000000000000D-01  6.8409913581492D-01  1.1261886686597D+00
    90  8.9000000000000D-01  7.2671629162374D-01  1.1159836974421D+00
    91  9.0000000000000D-01  7.6788004710254D-01  1.1050730863958D+00
    92  9.1000000000000D-01  8.0749964336845D-01  1.0934610032615D+00
    93  9.2000000000000D-01  8.4548846209051D-01  1.0811529129453D+00
    94  9.3000000000000D-01  8.8176430296925D-01  1.0681556097295D+00
    95  9.4000000000000D-01  9.1624964653072D-01  1.0544772448003D+00
    96  9.5000000000000D-01  9.4887190112237D-01  1.0401273488632D+00
    97  9.6000000000000D-01  9.7956363306499D-01  1.0251168496359D+00
    98  9.7000000000000D-01  1.0082627789866D+00  1.0094580840317D+00
    99  9.8000000000000D-01  1.0349128394405D+00  9.9316480487094D-01
   100  9.9000000000000D-01  1.0594630529916D+00  9.7625218198221D-01
   101  1.0000000000000D+00  1.0818685500345D+00  9.5873679757973D-01
   102  1.0100000000000D+00  1.1020904857024D+00  9.4063663583126D-01
   103  1.0200000000000D+00  1.1200961513073D+00  9.2197106655572D-01
   104  1.0300000000000D+00  1.1358590638524D+00  9.0276082301750D-01
   105  1.0400000000000D+00  1.1493590332449D+00  8.8302797381130D-01
   106  1.0500000000000D+00  1.1605822069420D+00  8.6279588885936D-01
   107  1.0600000000000D+00  1.1695210918466D+00  8.4208919956756D-01
   108  1.0700000000000D+00  1.1761745533813D+00  8.2093375321703D-01
   109  1.0800000000000D+00  1.1805477917542D+00  7.9935656169196D-01
   110  1.0900000000000D+00  1.1826522955329D+00  7.7738574467093D-01
   111  1.1000000000000D+00  1.1825057727373D+00  7.5505046743513D-01
   112  1.1100000000000D+00  1.1801320597472D+00  7.3238087346827D-01
   113  1.1200000000000D+00  1.1755610084264D+00  7.0940801205068D-01
   114  1.1300000000000D+00  1.1688283519410D+00  6.8616376106904D-01
   115  1.1400000000000D+00  1.1599755498481D+00  6.6268074528737D-01
   116  1.1500000000000D+00  1.1490496130910D+00  6.3899225033958D-01
   117  1.1600000000000D+00  1.1361029096440D+00  6.1513213272901D-01
   118  1.1700000000000D+00  1.1211929516049D+00  5.9113472613299D-01
   119  1.1800000000000D+00  1.1043821646130D+00  5.6703474432732D-01
   120  1.1900000000000D+00  1.0857376405193D+00  5.4286718105715D-01
   121  1.2000000000000D+00  1.0653308743205D+00  5.1866720719671D-01
   122  1.2100000000000D+00  1.0432374864063D+00  4.9447006554769D-01
   123  1.2200000000000D+00  1.0195369312137D+00  4.7031096363358D-01
   124  1.2300000000000D+00  9.9431219343947D-01  4.4622496485650D-01
   125  1.2400000000000D+00  9.6764947299305D-01  4.2224687838618D-01
   126  1.2500000000000D+00  9.3963785989579D-01  3.9841114815218D-01
   127  1.2600000000000D+00  9.1036900036528D-01  3.7475174131396D-01
   128  1.2700000000000D+00  8.7993675534253D-01  3.5130203657972D-01
   129  1.2800000000000D+00  8.4843685272163D-01  3.2809471274168D-01
   130  1.2900000000000D+00  8.1596653455975D-01  3.0516163779499D-01
   131  1.3000000000000D+00  7.8262420053537D-01  2.8253375899320D-01
   132  1.3100000000000D+00  7.4850904891501D-01  2.6024099418930D-01
   133  1.3200000000000D+00  7.1372071629248D-01  2.3831212480589D-01
   134  1.3300000000000D+00  6.7835891731285D-01  2.1677469075033D-01
   135  1.3400000000000D+00  6.4252308560210D-01  1.9565488759574D-01
   136  1.3500000000000D+00  6.0631201708788D-01  1.7497746632724D-01
   137  1.3600000000000D+00  5.6982351673503D-01  1.5476563541157D-01
   138  1.3700000000000D+00  5.3315405034803D-01  1.3504096876741D-01
   139  1.3800000000000D+00  4.9639840004689D-01  1.1582330662165D-01
   140  1.3900000000000D+00  4.5964933469288D-01  9.7130699020989D-02
   141  1.4000000000000D+00  4.2299726870508D-01  7.8979262874658D-02
   142  1.4100000000000D+00  3.8652994792196D-01  6.1383110966510D-02
   143  1.4200000000000D+00  3.5033218572546D-01  4.4354644954748D-02
   144  1.4300000000000D+00  3.1448565340822D-01  2.7904797157617D-02
   145  1.4400000000000D+00  2.7906873928407D-01  1.2043353966947D-02
   146  1.4500000000000D+00  2.4415638549702D-01 -3.2210638009228D-03
   147  1.4600000000000D+00  2.0981994585741D-01 -1.7881082558765D-02
   148  1.4700000000000D+00  1.7612706159911D-01 -3.1930552580657D-02
   149  1.4800000000000D+00  1.4314155296282D-01 -4.5364567336057D-02
   150  1.4900000000000D+00  1.1092332805798D-01 -5.8179463324484D-02
   151  1.5000000000000D+00  7.9528307883551D-02 -7.0372819325856D-02
   152  1.5100000000000D+00  4.9008367511176D-02 -8.1943450360940D-02
   153  1.5200000000000D+00  1.9411293273979D-02 -9.2891397199287D-02
   154  1.5300000000000D+00 -9.2192446317052D-03 -1.0321791163229D-01
   155  1.5400000000000D+00 -3.6843704278071D-02 -1.1292543762898D-01
   156  1.5500000000000D+00 -6.3426669531977D-02 -1.2201758860709D-01
   157  1.5600000000000D+00 -8.8936833290308D-02 -1.3049912097487D-01
   158  1.5700000000000D+00 -1.1334696705023D-01 -1.3837590416777D-01
   159  1.5800000000000D+00 -1.3663387731999D-01 -1.4565488737651D-01
   160  1.5900000000000D+00 -1.5877834945556D-01 -1.5234406318262D-01
   161  1.6000000000000D+00 -1.7976507957857D-01 -1.5845242832669D-01
   162  1.6100000000000D+00 -1.9958259514315D-01 -1.6398994182411D-01
   163  1.6200000000000D+00 -2.1822316490465D-01 -1.6896748066758D-01
   164  1.6300000000000D+00 -2.3568269886849D-01 -1.7339679333749D-01
   165  1.6400000000000D+00 -2.5196063901544D-01 -1.7729045135857D-01
   166  1.6500000000000D+00 -2.6705984141920D-01 -1.8066179913726D-01
   167  1.6600000000000D+00 -2.8098645054542D-01 -1.8352490230300D-01
   168  1.6700000000000D+00 -2.9374976640870D-01 -1.8589449480784D-01
   169  1.6800000000000D+00 -3.0536210532868D-01 -1.8778592498442D-01
   170  1.6900000000000D+00 -3.1583865502962D-01 -1.8921510082874D-01
   171  1.7000000000000D+00 -3.2519732473311D-01 -1.9019843466527D-01
   172  1.7100000000000D+00 -3.3345859111324D-01 -1.9075278753700D-01
   173  1.7200000000000D+00 -3.4064534063681D-01 -1.9089541341762D-01
   174  1.7300000000000D+00 -3.4678270915635D-01 -1.9064390349848D-01
   175  1.7400000000000D+00 -3.5189791922807D-01 -1.9001613069774D-01
   176  1.7500000000000D+00 -3.5602011615102D-01 -1.8903019474959D-01
   177  1.7600000000000D+00 -3.5918020297893D-01 -1.8770436784684D-01
   178  1.7700000000000D+00 -3.6141067561008D-01 -1.8605704126993D-01
   179  1.7800000000000D+00 -3.6274545813360D-01 -1.8410667298552D-01
   180  1.7900000000000D+00 -3.6321973931647D-01 -1.8187173639903D-01
   181  1.8000000000000D+00 -3.6286981048507D-01 -1.7937067035824D-01
   182  1.8100000000000D+00 -3.6173290574654D-01 -1.7662183075072D-01
   183  1.8200000000000D+00 -3.5984704473003D-01 -1.7364344367061D-01
   184  1.8300000000000D+00 -3.5725087853790D-01 -1.7045356035116D-01
   185  1.8400000000000D+00 -3.5398353930824D-01 -1.6707001397310D-01
   186  1.8500000000000D+00 -3.5008449369277D-01 -1.6351037838340D-01
   187  1.8600000000000D+00 -3.4559340090062D-01 -1.5979192889095D-01
   188  1.8700000000000D+00 -3.4054997522340D-01 -1.5593160509684D-01
   189  1.8800000000000D+00 -3.3499385410749D-01 -1.5194597608973D-01
   190  1.8900000000000D+00 -3.2896447111115D-01 -1.4785120771792D-01
   191  1.9000000000000D+00 -3.2250093507528D-01 -1.4366303234199D-01
   192  1.9100000000000D+00 -3.1564191472416D-01 -1.3939672078002D-01
   193  1.9200000000000D+00 -3.0842552973620D-01 -1.3506705673677D-01
   194  1.9300000000000D+00 -3.0088924789585D-01 -1.3068831355235D-01
   195  1.9400000000000D+00 -2.9306978869533D-01 -1.2627423336050D-01
   196  1.9500000000000D+00 -2.8500303368895D-01 -1.2183800872067D-01
   197  1.9600000000000D+00 -2.7672394308811D-01 -1.1739226652116D-01
   198  1.9700000000000D+00 -2.6826647948569D-01 -1.1294905434474D-01
   199  1.9800000000000D+00 -2.5966353773165D-01 -1.0851982901428D-01
   200  1.9900000000000D+00 -2.5094688201713D-01 -1.0411544760983D-01
   201  2.0000000000000D+00 -2.4214708928785D-01 -9.9746160624999D-02
   202  2.0100000000000D+00 -2.3329349935435D-01 -9.5421607360849D-02
   203  2.0200000000000D+00 -2.2441417175319D-01 -9.1150813539635D-02
   204  2.0300000000000D+00 -2.1553584867459D-01 -8.6942190920947D-02
   205  2.0400000000000D+00 -2.0668392451217D-01 -8.2803538900772D-02
   206  2.0500000000000D+00 -1.9788242116430D-01 -7.8742047957592D-02
   207  2.0600000000000D+00 -1.8915396965785D-01 -7.4764305053121D-02
   208  2.0700000000000D+00 -1.8051979753552D-01 -7.0876300779841D-02
   209  2.0800000000000D+00 -1.7199972167899D-01 -6.7083438120732D-02
   210  2.0900000000000D+00 -1.6361214687127D-01 -6.3390542867172D-02
   211  2.1000000000000D+00 -1.5537406925000D-01 -5.9801875471216D-02
   212  2.1100000000000D+00 -1.4730108486941D-01 -5.6321144258399D-02
   213  2.1200000000000D+00 -1.3940740289353D-01 -5.2951519911109D-02
   214  2.1300000000000D+00 -1.3170586317699D-01 -4.9695651119288D-02
   215  2.1400000000000D+00 -1.2420795821584D-01 -4.6555681339671D-02
   216  2.1500000000000D+00 -1.1692385888081D-01 -4.3533266520701D-02
   217  2.1600000000000D+00 -1.0986244386917D-01 -4.0629593671558D-02
   218  2.1700000000000D+00 -1.0303133253262D-01 -3.7845400207054D-02
   219  2.1800000000000D+00 -9.6436920820134D-02 -3.5180993987452D-02
   220  2.1900000000000D+00 -9.0084420025132D-02 -3.2636273861213D-02
   221  2.2000000000000D+00 -8.3977898173441D-02 -3.0210750757118D-02
   222  2.2100000000000D+00 -7.8120323645119D-02 -2.7903569103521D-02
   223  2.2200000000000D+00 -7.2513610781526D-02 -2.5713528505163D-02
   224  2.2300000000000D+00 -6.7158667468382D-02 -2.3639105738511D-02
   225  2.2400000000000D+00 -6.2055443924239D-02 -2.1678476687875D-02
   226  2.2500000000000D+00 -5.7202982965264D-02 -1.9829538426286D-02
   227  2.2600000000000D+00 -5.2599471307323D-02 -1.8089931255429D-02
   228  2.2700000000000D+00 -4.8242291379684D-02 -1.6457060492065D-02
   229  2.2800000000000D+00 -4.4128074068310D-02 -1.4928118235020D-02
   230  2.2900000000000D+00 -4.0252751532370D-02 -1.3500104753140D-02
   231  2.3000000000000D+00 -3.6611610075025D-02 -1.2169849520144D-02
   232  2.3100000000000D+00 -3.3199343400677D-02 -1.0934032065309D-02
   233  2.3200000000000D+00 -3.0010105018524D-02 -9.7892021415029D-03
   234  2.3300000000000D+00 -2.7037560515080D-02 -8.7317995408748D-03
   235  2.3400000000000D+00 -2.4274939456863D-02 -7.7581734791283D-03
   236  2.3500000000000D+00 -2.1715085944453D-02 -6.8646011806344D-03
   237  2.3600000000000D+00 -1.9350508778076D-02 -6.0473060681082D-03
   238  2.3700000000000D+00 -1.7173430519987D-02 -5.3024752965462D-03
   239  2.3800000000000D+00 -1.5175835026089D-02 -4.6262764907040D-03
   240  2.3900000000000D+00 -1.3349514257255D-02 -4.0148740104248D-03
   241  2.4000000000000D+00 -1.1686113426806D-02 -3.4644444128991D-03
   242  2.4100000000000D+00 -1.0177174543149D-02 -2.9711911541866D-03
   243  2.4200000000000D+00 -8.8141789451572D-03 -2.5313587581587D-03
   244  2.4300000000000D+00 -7.5885877729834D-03 -2.1412461016549D-03
   245  2.4400000000000D+00 -6.4918808247518D-03 -1.7972189905001D-03
   246  2.4500000000000D+00 -5.5155941694402D-03 -1.4957221602530D-03
   247  2.4600000000000D+00 -4.6513554658209D-03 -1.2332903793548D-03
   248  2.4700000000000D+00 -3.8909176824125D-03 -1.0065588955548D-03
   249  2.4800000000000D+00 -3.2261913909970D-03 -8.1227328234706D-04
   250  2.4900000000000D+00 -2.6492746994418D-03 -6.4729843366571D-04
   251  2.5000000000000D+00 -2.1524815987510D-03 -5.0862694610281D-04
   252  2.5100000000000D+00 -1.7283687543526D-03 -3.9338689287984D-04
   253  2.5200000000000D+00 -1.3697600071669D-03 -2.9884883824002D-04
   254  2.5300000000000D+00 -1.0697692882036D-03 -2.2243227235633D-04
   255  2.5400000000000D+00 -8.2182189652087D-04 -1.6171144311369D-04
   256  2.5500000000000D+00 -6.1967365662793D-04 -1.1442054886193D-04
   257  2.5600000000000D+00 -4.5742847578302D-04 -7.8458375542883D-05
   258  2.5700000000000D+00 -3.2955422472890D-04 -5.1892345365822D-05
   259  2.5800000000000D+00 -2.3089671948733D-04 -3.2962054046133D-05
   260  2.5900000000000D+00 -1.5670153185154D-04 -2.0091589622656D-05
   261  2.6000000000000D+00 -1.0258989392869D-04 -1.1857658603703D-05
   262  2.6100000000000D+00 -6.4603194841819D-05 -7.0266322101506D-06
   263  2.6200000000000D+00 -3.9157607163330D-05 -4.5238393468820D-06
   264  2.6300000000000D+00 -2.3233996108677D-05 -3.5466830677341D-06
   265  2.6400000000000D+00 -1.4211430647581D-05 -3.4592332797960D-06
   266  2.6500000000000D+00 -1.0008857404072D-05 -3.8343432999525D-06
   267  2.6600000000000D+00 -8.4845066757902D-06 -4.2013182217272D-06
   268  2.6700000000000D+00 -7.8110222091169D-06 -4.1814064013527D-06
   269  2.6800000000000D+00 -6.4911237620147D-06 -3.4835443304737D-06
   270  2.6900000000000D+00 -4.1661522528698D-06 -2.2080242804756D-06
   271  2.7000000000000D+00 -1.6106223369439D-06 -8.3648056036454D-07
   272  2.7100000000000D+00  2.9526729192559D-07  1.6282932424288D-07
   273  2.7200000000000D+00  7.9305996433139D-07  4.3613766698771D-07
   274  2.7300000000000D+00  5.6135902435185D-07  3.0759785817310D-07
   275  2.7400000000000D+00 -5.0135678558515D-09 -2.9331218416563D-09
   276  2.7500000000000D+00 -1.4589872370025D-07 -8.5753705443751D-08
   277  2.7600000000000D+00 -1.4450888255227D-07 -8.5268549703537D-08
   278  2.7700000000000D+00 -3.5992311115438D-08 -2.1308089544489D-08
   279  2.7800000000000D+00  1.4676188132944D-08  7.8657765338800D-09
   280  2.7900000000000D+00  2.0667613343537D-08  1.1076910882873D-08
   281  2.8000000000000D+00  1.0451382708966D-08  5.6014709074387D-09
   282  2.8100000000000D+00  0.0000000000000D+00  0.0000000000000D+00
   283  2.8200000000000D+00  0.0000000000000D+00  0.0000000000000D+00
   284  2.8300000000000D+00  0.0000000000000D+00  0.0000000000000D+00
   285  2.8400000000000D+00  0.0000000000000D+00  0.0000000000000D+00
   286  2.8500000000000D+00  0.0000000000000D+00  0.0000000000000D+00
   287  2.8600000000000D+00  0.0000000000000D+00  0.0000000000000D+00
   288  2.8700000000000D+00  0.0000000000000D+00  0.0000000000000D+00
   289  2.8800000000000D+00  0.0000000000000D+00  0.0000000000000D+00
   290  2.8900000000000D+00  0.0000000000000D+00  0.0000000000000D+00
   291  2.9000000000000D+00  0.0000000000000D+00  0.0000000000000D+00
   292  2.9100000000000D+00  0.0000000000000D+00  0.0000000000000D+00
   293  2.9200000000000D+00  0.0000000000000D+00  0.0000000000000D+00
   294  2.9300000000000D+00  0.0000000000000D+00  0.0000000000000D+00
   295  2.9400000000000D+00  0.0000000000000D+00  0.0000000000000D+00
   296  2.9500000000000D+00  0.0000000000000D+00  0.0000000000000D+00
   297  2.9600000000000D+00  0.0000000000000D+00  0.0000000000000D+00
   298  2.9700000000000D+00  0.0000000000000D+00  0.0000000000000D+00
   299  2.9800000000000D+00  0.0000000000000D+00  0.0000000000000D+00
   300  2.9900000000000D+00  0.0000000000000D+00  0.0000000000000D+00
   301  3.0000000000000D+00  0.0000000000000D+00  0.0000000000000D+00
   302  3.0100000000000D+00  0.0000000000000D+00  0.0000000000000D+00
   303  3.0200000000000D+00  0.0000000000000D+00  0.0000000000000D+00
   304  3.0300000000000D+00  0.0000000000000D+00  0.0000000000000D+00
   305  3.0400000000000D+00  0.0000000000000D+00  0.0000000000000D+00
   306  3.0500000000000D+00  0.0000000000000D+00  0.0000000000000D+00
   307  3.0600000000000D+00  0.0000000000000D+00  0.0000000000000D+00
   308  3.0700000000000D+00  0.0000000000000D+00  0.0000000000000D+00
   309  3.0800000000000D+00  0.0000000000000D+00  0.0000000000000D+00
   310  3.0900000000000D+00  0.0000000000000D+00  0.0000000000000D+00
   311  3.1000000000000D+00  0.0000000000000D+00  0.0000000000000D+00
   312  3.1100000000000D+00  0.0000000000000D+00  0.0000000000000D+00
   313  3.1200000000000D+00  0.0000000000000D+00  0.0000000000000D+00
   314  3.1300000000000D+00  0.0000000000000D+00  0.0000000000000D+00
   315  3.1400000000000D+00  0.0000000000000D+00  0.0000000000000D+00
   316  3.1500000000000D+00  0.0000000000000D+00  0.0000000000000D+00
   317  3.1600000000000D+00  0.0000000000000D+00  0.0000000000000D+00
   318  3.1700000000000D+00  0.0000000000000D+00  0.0000000000000D+00
   319  3.1800000000000D+00  0.0000000000000D+00  0.0000000000000D+00
   320  3.1900000000000D+00  0.0000000000000D+00  0.0000000000000D+00
   321  3.2000000000000D+00  0.0000000000000D+00  0.0000000000000D+00
   322  3.2100000000000D+00  0.0000000000000D+00  0.0000000000000D+00
   323  3.2200000000000D+00  0.0000000000000D+00  0.0000000000000D+00
   324  3.2300000000000D+00  0.0000000000000D+00  0.0000000000000D+00
   325  3.2400000000000D+00  0.0000000000000D+00  0.0000000000000D+00
   326  3.2500000000000D+00  0.0000000000000D+00  0.0000000000000D+00
   327  3.2600000000000D+00  0.0000000000000D+00  0.0000000000000D+00
   328  3.2700000000000D+00  0.0000000000000D+00  0.0000000000000D+00
   329  3.2800000000000D+00  0.0000000000000D+00  0.0000000000000D+00
   330  3.2900000000000D+00  0.0000000000000D+00  0.0000000000000D+00
   331  3.3000000000000D+00  0.0000000000000D+00  0.0000000000000D+00
   332  3.3100000000000D+00  0.0000000000000D+00  0.0000000000000D+00
   333  3.3200000000000D+00  0.0000000000000D+00  0.0000000000000D+00
   334  3.3300000000000D+00  0.0000000000000D+00  0.0000000000000D+00
   335  3.3400000000000D+00  0.0000000000000D+00  0.0000000000000D+00
   336  3.3500000000000D+00  0.0000000000000D+00  0.0000000000000D+00
   337  3.3600000000000D+00  0.0000000000000D+00  0.0000000000000D+00
   338  3.3700000000000D+00  0.0000000000000D+00  0.0000000000000D+00
   339  3.3800000000000D+00  0.0000000000000D+00  0.0000000000000D+00
   340  3.3900000000000D+00  0.0000000000000D+00  0.0000000000000D+00
   341  3.4000000000000D+00  0.0000000000000D+00  0.0000000000000D+00
   342  3.4100000000000D+00  0.0000000000000D+00  0.0000000000000D+00
   343  3.4200000000000D+00  0.0000000000000D+00  0.0000000000000D+00
   344  3.4300000000000D+00  0.0000000000000D+00  0.0000000000000D+00
   345  3.4400000000000D+00  0.0000000000000D+00  0.0000000000000D+00
   346  3.4500000000000D+00  0.0000000000000D+00  0.0000000000000D+00
   347  3.4600000000000D+00  0.0000000000000D+00  0.0000000000000D+00
   348  3.4700000000000D+00  0.0000000000000D+00  0.0000000000000D+00
   349  3.4800000000000D+00  0.0000000000000D+00  0.0000000000000D+00
   350  3.4900000000000D+00  0.0000000000000D+00  0.0000000000000D+00
   351  3.5000000000000D+00  0.0000000000000D+00  0.0000000000000D+00
   352  3.5100000000000D+00  0.0000000000000D+00  0.0000000000000D+00
   353  3.5200000000000D+00  0.0000000000000D+00  0.0000000000000D+00
   354  3.5300000000000D+00  0.0000000000000D+00  0.0000000000000D+00
   355  3.5400000000000D+00  0.0000000000000D+00  0.0000000000000D+00
   356  3.5500000000000D+00  0.0000000000000D+00  0.0000000000000D+00
   357  3.5600000000000D+00  0.0000000000000D+00  0.0000000000000D+00
   358  3.5700000000000D+00  0.0000000000000D+00  0.0000000000000D+00
   359  3.5800000000000D+00  0.0000000000000D+00  0.0000000000000D+00
   360  3.5900000000000D+00  0.0000000000000D+00  0.0000000000000D+00
   361  3.6000000000000D+00  0.0000000000000D+00  0.0000000000000D+00
   362  3.6100000000000D+00  0.0000000000000D+00  0.0000000000000D+00
   363  3.6200000000000D+00  0.0000000000000D+00  0.0000000000000D+00
   364  3.6300000000000D+00  0.0000000000000D+00  0.0000000000000D+00
   365  3.6400000000000D+00  0.0000000000000D+00  0.0000000000000D+00
   366  3.6500000000000D+00  0.0000000000000D+00  0.0000000000000D+00
   367  3.6600000000000D+00  0.0000000000000D+00  0.0000000000000D+00
   368  3.6700000000000D+00  0.0000000000000D+00  0.0000000000000D+00
   369  3.6800000000000D+00  0.0000000000000D+00  0.0000000000000D+00
   370  3.6900000000000D+00  0.0000000000000D+00  0.0000000000000D+00
   371  3.7000000000000D+00  0.0000000000000D+00  0.0000000000000D+00
   372  3.7100000000000D+00  0.0000000000000D+00  0.0000000000000D+00
   373  3.7200000000000D+00  0.0000000000000D+00  0.0000000000000D+00
   374  3.7300000000000D+00  0.0000000000000D+00  0.0000000000000D+00
   375  3.7400000000000D+00  0.0000000000000D+00  0.0000000000000D+00
   376  3.7500000000000D+00  0.0000000000000D+00  0.0000000000000D+00
   377  3.7600000000000D+00  0.0000000000000D+00  0.0000000000000D+00
   378  3.7700000000000D+00  0.0000000000000D+00  0.0000000000000D+00
   379  3.7800000000000D+00  0.0000000000000D+00  0.0000000000000D+00
   380  3.7900000000000D+00  0.0000000000000D+00  0.0000000000000D+00
   381  3.8000000000000D+00  0.0000000000000D+00  0.0000000000000D+00
   382  3.8100000000000D+00  0.0000000000000D+00  0.0000000000000D+00
   383  3.8200000000000D+00  0.0000000000000D+00  0.0000000000000D+00
   384  3.8300000000000D+00  0.0000000000000D+00  0.0000000000000D+00
   385  3.8400000000000D+00  0.0000000000000D+00  0.0000000000000D+00
   386  3.8500000000000D+00  0.0000000000000D+00  0.0000000000000D+00
   387  3.8600000000000D+00  0.0000000000000D+00  0.0000000000000D+00
   388  3.8700000000000D+00  0.0000000000000D+00  0.0000000000000D+00
   389  3.8800000000000D+00  0.0000000000000D+00  0.0000000000000D+00
   390  3.8900000000000D+00  0.0000000000000D+00  0.0000000000000D+00
   391  3.9000000000000D+00  0.0000000000000D+00  0.0000000000000D+00
   392  3.9100000000000D+00  0.0000000000000D+00  0.0000000000000D+00
   393  3.9200000000000D+00  0.0000000000000D+00  0.0000000000000D+00
   394  3.9300000000000D+00  0.0000000000000D+00  0.0000000000000D+00
   395  3.9400000000000D+00  0.0000000000000D+00  0.0000000000000D+00
   396  3.9500000000000D+00  0.0000000000000D+00  0.0000000000000D+00
   397  3.9600000000000D+00  0.0000000000000D+00  0.0000000000000D+00
   398  3.9700000000000D+00  0.0000000000000D+00  0.0000000000000D+00
   399  3.9800000000000D+00  0.0000000000000D+00  0.0000000000000D+00
   400  3.9900000000000D+00  0.0000000000000D+00  0.0000000000000D+00
   401  4.0000000000000D+00  0.0000000000000D+00  0.0000000000000D+00
   402  4.0100000000000D+00  0.0000000000000D+00  0.0000000000000D+00
   403  4.0200000000000D+00  0.0000000000000D+00  0.0000000000000D+00
   404  4.0300000000000D+00  0.0000000000000D+00  0.0000000000000D+00
   405  4.0400000000000D+00  0.0000000000000D+00  0.0000000000000D+00
   406  4.0500000000000D+00  0.0000000000000D+00  0.0000000000000D+00
   407  4.0600000000000D+00  0.0000000000000D+00  0.0000000000000D+00
   408  4.0700000000000D+00  0.0000000000000D+00  0.0000000000000D+00
   409  4.0800000000000D+00  0.0000000000000D+00  0.0000000000000D+00
   410  4.0900000000000D+00  0.0000000000000D+00  0.0000000000000D+00
   411  4.1000000000000D+00  0.0000000000000D+00  0.0000000000000D+00
   412  4.1100000000000D+00  0.0000000000000D+00  0.0000000000000D+00
   413  4.1200000000000D+00  0.0000000000000D+00  0.0000000000000D+00
   414  4.1300000000000D+00  0.0000000000000D+00  0.0000000000000D+00
   415  4.1400000000000D+00  0.0000000000000D+00  0.0000000000000D+00
   416  4.1500000000000D+00  0.0000000000000D+00  0.0000000000000D+00
   417  4.1600000000000D+00  0.0000000000000D+00  0.0000000000000D+00
   418  4.1700000000000D+00  0.0000000000000D+00  0.0000000000000D+00
   419  4.1800000000000D+00  0.0000000000000D+00  0.0000000000000D+00
   420  4.1900000000000D+00  0.0000000000000D+00  0.0000000000000D+00
   421  4.2000000000000D+00  0.0000000000000D+00  0.0000000000000D+00
   422  4.2100000000000D+00  0.0000000000000D+00  0.0000000000000D+00
   423  4.2200000000000D+00  0.0000000000000D+00  0.0000000000000D+00