As    ONCVPSP-3.3.1  r_core=   2.94957   2.03781   2.94957
     33.0000      5.0000      210905    zatom,zion,pspd
     8 -116133   2     4   600     0    pspcod,pspxc,lmax,lloc,mmax,r2well
  5.99000000  0.00000000  0.00000000    rchrg fchrg qchrg
     2     3     3     0    nproj
     3     1           extension_switch
     4     4     0    nprojso
   0                         6.1130579555669D-01  4.4726736129268D+00
     1  0.0000000000000D+00 -1.7299963545048D-12  7.6127992798547D-13
     2  1.0000000000000D-02 -1.1784875787101D-03  2.6083961258306D-02
     3  2.0000000000000D-02 -2.3719845177422D-03  5.2161048320500D-02
     4  3.0000000000000D-02 -3.5954180951204D-03  7.8224364341893D-02
     5  4.0000000000000D-02 -4.8635516728566D-03  1.0426696726959D-01
     6  5.0000000000000D-02 -6.1909033599925D-03  1.3028184746055D-01
     7  6.0000000000000D-02 -7.5916654197263D-03  1.5626190556577D-01
     8  7.0000000000000D-02 -9.0796246667453D-03  1.8219993076834D-01
     9  8.0000000000000D-02 -1.0668084099162D-02  2.0808857946257D-01
    10  9.0000000000000D-02 -1.2369786007405D-02  2.3392035446023D-01
    11  1.0000000000000D-01 -1.4196836799861D-02  2.5968758480904D-01
    12  1.1000000000000D-01 -1.6160633782115D-02  2.8538240630711D-01
    13  1.2000000000000D-01 -1.8271794123190D-02  3.1099674279554D-01
    14  1.3000000000000D-01 -2.0540086238362D-02  3.3652228830984D-01
    15  1.4000000000000D-01 -2.2974363813705D-02  3.6195049016871D-01
    16  1.5000000000000D-01 -2.5582502692821D-02  3.8727253307699D-01
    17  1.6000000000000D-01 -2.8371340840754D-02  4.1247932431694D-01
    18  1.7000000000000D-01 -3.1346621594417D-02  4.3756148010002D-01
    19  1.8000000000000D-01 -3.4512940402464D-02  4.6250931314818D-01
    20  1.9000000000000D-01 -3.7873695250695D-02  4.8731282157134D-01
    21  2.0000000000000D-01 -4.1431040961824D-02  5.1196167910441D-01
    22  2.1000000000000D-01 -4.5185847550398D-02  5.3644522676400D-01
    23  2.2000000000000D-01 -4.9137662805248D-02  5.6075246598176D-01
    24  2.3000000000000D-01 -5.3284679262977D-02  5.8487205326750D-01
    25  2.4000000000000D-01 -5.7623705726182D-02  6.0879229645153D-01
    26  2.5000000000000D-01 -6.2150143470221D-02  6.3250115255168D-01
    27  2.6000000000000D-01 -6.6857967271540D-02  6.5598622730649D-01
    28  2.7000000000000D-01 -7.1739711379238D-02  6.7923477641133D-01
    29  2.8000000000000D-01 -7.6786460539967D-02  7.0223370849018D-01
    30  2.9000000000000D-01 -8.1987846173588D-02  7.2496958983084D-01
    31  3.0000000000000D-01 -8.7332047784376D-02  7.4742865090653D-01
    32  3.1000000000000D-01 -9.2805799678896D-02  7.6959679470213D-01
    33  3.2000000000000D-01 -9.8394403047718D-02  7.9145960685770D-01
    34  3.3000000000000D-01 -1.0408174345375D-01  8.1300236763715D-01
    35  3.4000000000000D-01 -1.0985031375493D-01  8.3421006572414D-01
    36  3.5000000000000D-01 -1.1568124247329D-01  8.5506741384208D-01
    37  3.6000000000000D-01 -1.2155432760715D-01  8.7555886618910D-01
    38  3.7000000000000D-01 -1.2744807586617D-01  8.9566863767356D-01
    39  3.8000000000000D-01 -1.3333974729275D-01  9.1538072492947D-01
    40  3.9000000000000D-01 -1.3920540521614D-01  9.3467892908551D-01
    41  4.0000000000000D-01 -1.4501997146826D-01  9.5354688025531D-01
    42  4.1000000000000D-01 -1.5075728677272D-01  9.7196806371077D-01
    43  4.2000000000000D-01 -1.5639017620076D-01  9.8992584769397D-01
    44  4.3000000000000D-01 -1.6189051956968D-01  1.0074035128174D+00
    45  4.4000000000000D-01 -1.6722932664168D-01  1.0243842829962D+00
    46  4.5000000000000D-01 -1.7237681696269D-01  1.0408513578496D+00
    47  4.6000000000000D-01 -1.7730250416276D-01  1.0567879465046D+00
    48  4.7000000000000D-01 -1.8197528452162D-01  1.0721773027254D+00
    49  4.8000000000000D-01 -1.8636352958530D-01  1.0870027612909D+00
    50  4.9000000000000D-01 -1.9043518260189D-01  1.1012477755337D+00
    51  5.0000000000000D-01 -1.9415785852742D-01  1.1148959559487D+00
    52  5.1000000000000D-01 -1.9749894733588D-01  1.1279311097762D+00
    53  5.2000000000000D-01 -2.0042572035057D-01  1.1403372814561D+00
    54  5.3000000000000D-01 -2.0290543929854D-01  1.1520987938479D+00
    55  5.4000000000000D-01 -2.0490546777381D-01  1.1632002901032D+00
    56  5.5000000000000D-01 -2.0639338478100D-01  1.1736267760761D+00
    57  5.6000000000000D-01 -2.0733710001626D-01  1.1833636631497D+00
    58  5.7000000000000D-01 -2.0770497052998D-01  1.1923968113543D+00
    59  5.8000000000000D-01 -2.0746591840278D-01  1.2007125726504D+00
    60  5.9000000000000D-01 -2.0658954905542D-01  1.2082978342425D+00
    61  6.0000000000000D-01 -2.0504626980283D-01  1.2151400617908D+00
    62  6.1000000000000D-01 -2.0280740825318D-01  1.2212273423831D+00
    63  6.2000000000000D-01 -1.9984533014522D-01  1.2265484271266D+00
    64  6.3000000000000D-01 -1.9613355621020D-01  1.2310927732182D+00
    65  6.4000000000000D-01 -1.9164687763912D-01  1.2348505853515D+00
    66  6.5000000000000D-01 -1.8636146973248D-01  1.2378128563143D+00
    67  6.6000000000000D-01 -1.8025500330657D-01  1.2399714066344D+00
    68  6.7000000000000D-01 -1.7330675342968D-01  1.2413189231273D+00
    69  6.8000000000000D-01 -1.6549770506142D-01  1.2418489962023D+00
    70  6.9000000000000D-01 -1.5681065517115D-01  1.2415561557839D+00
    71  7.0000000000000D-01 -1.4723031091422D-01  1.2404359057053D+00
    72  7.1000000000000D-01 -1.3674338345040D-01  1.2384847564359D+00
    73  7.2000000000000D-01 -1.2533867699575D-01  1.2357002560028D+00
    74  7.3000000000000D-01 -1.1300717270771D-01  1.2320810189741D+00
    75  7.4000000000000D-01 -9.9742107012887D-02  1.2276267533701D+00
    76  7.5000000000000D-01 -8.5539043999976D-02  1.2223382853772D+00
    77  7.6000000000000D-01 -7.0395941512812D-02  1.2162175817408D+00
    78  7.7000000000000D-01 -5.4313210594552D-02  1.2092677697191D+00
    79  7.8000000000000D-01 -3.7293767950433D-02  1.2014931544862D+00
    80  7.9000000000000D-01 -1.9343081115534D-02  1.1928992338782D+00
    81  8.0000000000000D-01 -4.6920603391485D-04  1.1834927103818D+00
    82  8.1000000000000D-01  1.9317183222778D-02  1.1732815002733D+00
    83  8.2000000000000D-01  4.0002772845726D-02  1.1622747398227D+00
    84  8.3000000000000D-01  6.1571596012278D-02  1.1504827884859D+00
    85  8.4000000000000D-01  8.4005028140099D-02  1.1379172290138D+00
    86  8.5000000000000D-01  1.0728179084229D-01  1.1245908644218D+00
    87  8.6000000000000D-01  1.3137796472528D-01  1.1105177117644D+00
    88  8.7000000000000D-01  1.5626701114126D-01  1.0957129926760D+00
    89  8.8000000000000D-01  1.8191980297626D-01  1.0801931206456D+00
    90  8.9000000000000D-01  2.0830466452261D-01  1.0639756850017D+00
    91  9.0000000000000D-01  2.3538742045227D-01  1.0470794315991D+00
    92  9.1000000000000D-01  2.6313145387395D-01  1.0295242402044D+00
    93  9.2000000000000D-01  2.9149777342228D-01  1.0113310985913D+00
    94  9.3000000000000D-01  3.2044508929315D-01  9.9252207336723D-01
    95  9.4000000000000D-01  3.4992989810415D-01  9.7312027756289D-01
    96  9.5000000000000D-01  3.7990657642329D-01  9.5314983502898D-01
    97  9.6000000000000D-01  4.1032748277418D-01  9.3263584169459D-01
    98  9.7000000000000D-01  4.4114306788966D-01  9.1160432375401D-01
    99  9.8000000000000D-01  4.7230199295143D-01  8.9008219285936D-01
   100  9.9000000000000D-01  5.0375125551703D-01  8.6809719840809D-01
   101  1.0000000000000D+00  5.3543632280138D-01  8.4567787702565D-01
   102  1.0100000000000D+00  5.6730127194568D-01  8.2285349935451D-01
   103  1.0200000000000D+00  5.9928893687305D-01  7.9965401427165D-01
   104  1.0300000000000D+00  6.3134106129756D-01  7.7610999066742D-01
   105  1.0400000000000D+00  6.6339845742058D-01  7.5225255692925D-01
   106  1.0500000000000D+00  6.9540116982043D-01  7.2811333828300D-01
   107  1.0600000000000D+00  7.2728864400807D-01  7.0372439215570D-01
   108  1.0700000000000D+00  7.5899989909636D-01  6.7911814173210D-01
   109  1.0800000000000D+00  7.9047370400267D-01  6.5432730788641D-01
   110  1.0900000000000D+00  8.2164875657852D-01  6.2938483968005D-01
   111  1.1000000000000D+00  8.5246386504030D-01  6.0432384362251D-01
   112  1.1100000000000D+00  8.8285813104834D-01  5.7917751190217D-01
   113  1.1200000000000D+00  9.1277113376606D-01  5.5397904979934D-01
   114  1.1300000000000D+00  9.4214311421094D-01  5.2876160250113D-01
   115  1.1400000000000D+00  9.7091515919603D-01  5.0355818154262D-01
   116  1.1500000000000D+00  9.9902938414461D-01  4.7840159110512D-01
   117  1.1600000000000D+00  1.0264291140511D+00  4.5332435440610D-01
   118  1.1700000000000D+00  1.0530590618522D+00  4.2835864041982D-01
   119  1.1800000000000D+00  1.0788655034668D+00  4.0353619116970D-01
   120  1.1900000000000D+00  1.1037964487573D+00  3.7888824983764D-01
   121  1.2000000000000D+00  1.1278018076649D+00  3.5444548993595D-01
   122  1.2100000000000D+00  1.1508335507726D+00  3.3023794578874D-01
   123  1.2200000000000D+00  1.1728458635521D+00  3.0629494457062D-01
   124  1.2300000000000D+00  1.1937952935556D+00  2.8264504014928D-01
   125  1.2400000000000D+00  1.2136408898289D+00  2.5931594897701D-01
   126  1.2500000000000D+00  1.2323443338199D+00  2.3633448827607D-01
   127  1.2600000000000D+00  1.2498700610816D+00  2.1372651675809D-01
   128  1.2700000000000D+00  1.2661853730865D+00  1.9151687811369D-01
   129  1.2800000000000D+00  1.2812605384683D+00  1.6972934750835D-01
   130  1.2900000000000D+00  1.2950688830489D+00  1.4838658131134D-01
   131  1.3000000000000D+00  1.3075868680298D+00  1.2751007027798D-01
   132  1.3100000000000D+00  1.3187941557237D+00  1.0712009640741D-01
   133  1.3200000000000D+00  1.3286736622676D+00  8.7235693681006D-02
   134  1.3300000000000D+00  1.3372115967740D+00  6.7874612881372D-02
   135  1.3400000000000D+00  1.3443974863746D+00  4.9053290694114D-02
   136  1.3500000000000D+00  1.3502241867052D+00  3.0786823267675D-02
   137  1.3600000000000D+00  1.3546878773682D+00  1.3088944410528D-02
   138  1.3700000000000D+00  1.3577880419360D+00 -4.0279914027287D-03
   139  1.3800000000000D+00  1.3595274321654D+00 -2.0553021074673D-02
   140  1.3900000000000D+00  1.3599120160285D+00 -3.6476579817844D-02
   141  1.4000000000000D+00  1.3589509092872D+00 -5.1790502851743D-02
   142  1.4100000000000D+00  1.3566562903690D+00 -6.6488021748092D-02
   143  1.4200000000000D+00  1.3530432982536D+00 -8.0563755293901D-02
   144  1.4300000000000D+00  1.3481299132858D+00 -9.4013694802439D-02
   145  1.4400000000000D+00  1.3419368206897D+00 -1.0683518376139D-01
   146  1.4500000000000D+00  1.3344872567326D+00 -1.1902689175813D-01
   147  1.4600000000000D+00  1.3258068375016D+00 -1.3058878262759D-01
   148  1.4700000000000D+00  1.3159233701962D+00 -1.4152207674962D-01
   149  1.4800000000000D+00  1.3048666471012D+00 -1.5182920750280D-01
   150  1.4900000000000D+00  1.2926682221509D+00 -1.6151377180406D-01
   151  1.5000000000000D+00  1.2793611703396D+00 -1.7058047476957D-01
   152  1.5100000000000D+00  1.2649798300308D+00 -1.7903506847096D-01
   153  1.5200000000000D+00  1.2495595248137D+00 -1.8688428453702D-01
   154  1.5300000000000D+00  1.2331362897882D+00 -1.9413576253879D-01
   155  1.5400000000000D+00  1.2157465041477D+00 -2.0079796610227D-01
   156  1.5500000000000D+00  1.1974267491703D+00 -2.0688011476750D-01
   157  1.5600000000000D+00  1.1782132078076D+00 -2.1239206897218D-01
   158  1.5700000000000D+00  1.1581411557762D+00 -2.1734422793634D-01
   159  1.5800000000000D+00  1.1372458945583D+00 -2.2174752201302D-01
   160  1.5900000000000D+00  1.1155633840579D+00 -2.2561339696200D-01
   161  1.6000000000000D+00  1.0931311694267D+00 -2.2895386408286D-01
   162  1.6100000000000D+00  1.0699889255022D+00 -2.3178151824880D-01
   163  1.6200000000000D+00  1.0461779114517D+00 -2.3410948578540D-01
   164  1.6300000000000D+00  1.0217408071014D+00 -2.3595139820753D-01
   165  1.6400000000000D+00  9.9672163385571D-01 -2.3732136504253D-01
   166  1.6500000000000D+00  9.7116556259550D-01 -2.3823394027823D-01
   167  1.6600000000000D+00  9.4511876546606D-01 -2.3870408962276D-01
   168  1.6700000000000D+00  9.1862825357869D-01 -2.3874715563375D-01
   169  1.6800000000000D+00  8.9174171876185D-01 -2.3837882197047D-01
   170  1.6900000000000D+00  8.6450737708908D-01 -2.3761507682989D-01
   171  1.7000000000000D+00  8.3697381448950D-01 -2.3647217571315D-01
   172  1.7100000000000D+00  8.0918983505401D-01 -2.3496660376011D-01
   173  1.7200000000000D+00  7.8120431227636D-01 -2.3311503777680D-01
   174  1.7300000000000D+00  7.5306604369130D-01 -2.3093430817122D-01
   175  1.7400000000000D+00  7.2482360913877D-01 -2.2844136091138D-01
   176  1.7500000000000D+00  6.9652523298370D-01 -2.2565321968600D-01
   177  1.7600000000000D+00  6.6821865053244D-01 -2.2258694838348D-01
   178  1.7700000000000D+00  6.3995097887207D-01 -2.1925961402483D-01
   179  1.7800000000000D+00  6.1176859239016D-01 -2.1568825027909D-01
   180  1.7900000000000D+00  5.8371700311993D-01 -2.1188982164554D-01
   181  1.8000000000000D+00  5.5584074619060D-01 -2.0788118845324D-01
   182  1.8100000000000D+00  5.2818327044857D-01 -2.0367907270625D-01
   183  1.8200000000000D+00  5.0078683457277D-01 -1.9930002495475D-01
   184  1.8300000000000D+00  4.7369240864374D-01 -1.9476039216024D-01
   185  1.8400000000000D+00  4.4693958157127D-01 -1.9007628676992D-01
   186  1.8500000000000D+00  4.2056647420158D-01 -1.8526355691219D-01
   187  1.8600000000000D+00  3.9460965859155D-01 -1.8033775794673D-01
   188  1.8700000000000D+00  3.6910408318757D-01 -1.7531412526613D-01
   189  1.8800000000000D+00  3.4408300435509D-01 -1.7020754854141D-01
   190  1.8900000000000D+00  3.1957792406325D-01 -1.6503254735545D-01
   191  1.9000000000000D+00  2.9561853398040D-01 -1.5980324833008D-01
   192  1.9100000000000D+00  2.7223266598132D-01 -1.5453336376877D-01
   193  1.9200000000000D+00  2.4944624899864D-01 -1.4923617181011D-01
   194  1.9300000000000D+00  2.2728327254420D-01 -1.4392449821463D-01
   195  1.9400000000000D+00  2.0576575639802D-01 -1.3861069965349D-01
   196  1.9500000000000D+00  1.8491372712382D-01 -1.3330664871220D-01
   197  1.9600000000000D+00  1.6474520067875D-01 -1.2802372041932D-01
   198  1.9700000000000D+00  1.4527617166296D-01 -1.2277278047372D-01
   199  1.9800000000000D+00  1.2652060877628D-01 -1.1756417507016D-01
   200  1.9900000000000D+00  1.0849045648222D-01 -1.1240772234232D-01
   201  2.0000000000000D+00  9.1195643025003D-02 -1.0731270548280D-01
   202  2.0100000000000D+00  7.4644094112271D-02 -1.0228786737237D-01
   203  2.0200000000000D+00  5.8841752927270D-02 -9.7341406917748D-02
   204  2.0300000000000D+00  4.3792605505925D-02 -9.2480976855624D-02
   205  2.0400000000000D+00  2.9498711910813D-02 -8.7713683159633D-02
   206  2.0500000000000D+00  1.5960242773392D-02 -8.3046085952921D-02
   207  2.0600000000000D+00  3.1755208569827D-03 -7.8484201850877D-02
   208  2.0700000000000D+00 -8.8589320903222D-03 -7.4033507828825D-02
   209  2.0800000000000D+00 -2.0148344081274D-02 -6.9698946387410D-02
   210  2.0900000000000D+00 -3.0699636846920D-02 -6.5484932147050D-02
   211  2.1000000000000D+00 -4.0521365656274D-02 -6.1395359707573D-02
   212  2.1100000000000D+00 -4.9623655210144D-02 -5.7433612735095D-02
   213  2.1200000000000D+00 -5.8018131613541D-02 -5.3602574301462D-02
   214  2.1300000000000D+00 -6.5717851162976D-02 -4.9904638277296D-02
   215  2.1400000000000D+00 -7.2737225797166D-02 -4.6341721859588D-02
   216  2.1500000000000D+00 -7.9091945785098D-02 -4.2915279078609D-02
   217  2.1600000000000D+00 -8.4798899925252D-02 -3.9626315227958D-02
   218  2.1700000000000D+00 -8.9876093414998D-02 -3.6475402210558D-02
   219  2.1800000000000D+00 -9.4342563903603D-02 -3.3462694642225D-02
   220  2.1900000000000D+00 -9.8218295918465D-02 -3.0587946713192D-02
   221  2.2000000000000D+00 -1.0152413402828D-01 -2.7850529705673D-02
   222  2.2100000000000D+00 -1.0428169503098D-01 -2.5249450086318D-02
   223  2.2200000000000D+00 -1.0651327958894D-01 -2.2783368123380D-02
   224  2.2300000000000D+00 -1.0824178345426D-01 -2.0450616940957D-02
   225  2.2400000000000D+00 -1.0949060874291D-01 -1.8249221936766D-02
   226  2.2500000000000D+00 -1.1028357562014D-01 -1.6176920481845D-02
   227  2.2600000000000D+00 -1.1064483434871D-01 -1.4231181872261D-02
   228  2.2700000000000D+00 -1.1059877856024D-01 -1.2409227384891D-02
   229  2.2800000000000D+00 -1.1016995963111D-01 -1.0708050424283D-02
   230  2.2900000000000D+00 -1.0938300232727D-01 -9.1244367121165D-03
   231  2.3000000000000D+00 -1.0826252270208D-01 -7.6549843342112D-03
   232  2.3100000000000D+00 -1.0683304758126D-01 -6.2961237364688D-03
   233  2.3200000000000D+00 -1.0511893643998D-01 -5.0441375079296D-03
   234  2.3300000000000D+00 -1.0314430621886D-01 -3.8951798289942D-03
   235  2.3400000000000D+00 -1.0093295833084D-01 -2.8452957083896D-03
   236  2.3500000000000D+00 -9.8508309009732D-02 -1.8904397801608D-03
   237  2.3600000000000D+00 -9.5893322942138D-02 -1.0264946495039D-03
   238  2.3700000000000D+00 -9.3110449516157D-02 -2.4928890547112D-04
   239  2.3800000000000D+00 -9.0181563624641D-02  4.4538560386002D-04
   240  2.3900000000000D+00 -8.7127909867323D-02  1.0617570159891D-03
   241  2.4000000000000D+00 -8.3970049727582D-02  1.6040571339855D-03
   242  2.4100000000000D+00 -8.0727814294352D-02  2.0765061084053D-03
   243  2.4200000000000D+00 -7.7420260112802D-02  2.4832976136173D-03
   244  2.4300000000000D+00 -7.4065629080219D-02  2.8285847355460D-03
   245  2.4400000000000D+00 -7.0681313245782D-02  3.1164667440246D-03
   246  2.4500000000000D+00 -6.7283823259476D-02  3.3509765206274D-03
   247  2.4600000000000D+00 -6.3888760981168D-02  3.5360687518043D-03
   248  2.4700000000000D+00 -6.0510797605615D-02  3.6756092019300D-03
   249  2.4800000000000D+00 -5.7163655063788D-02  3.7733645853540D-03
   250  2.4900000000000D+00 -5.3860091919849D-02  3.8329933199894D-03
   251  2.5000000000000D+00 -5.0611894446970D-02  3.8580373285244D-03
   252  2.5100000000000D+00 -4.7429871042037D-02  3.8519144910803D-03
   253  2.5200000000000D+00 -4.4323851048382D-02  3.8179119995984D-03
   254  2.5300000000000D+00 -4.1302688300712D-02  3.7591806959876D-03
   255  2.5400000000000D+00 -3.8374267868452D-02  3.6787300685531D-03
   256  2.5500000000000D+00 -3.5545516931707D-02  3.5794241298188D-03
   257  2.5600000000000D+00 -3.2822420183838D-02  3.4639782827668D-03
   258  2.5700000000000D+00 -3.0210038036348D-02  3.3349567896782D-03
   259  2.5800000000000D+00 -2.7712528474017D-02  3.1947710549775D-03
   260  2.5900000000000D+00 -2.5333172900999D-02  3.0456788180190D-03
   261  2.6000000000000D+00 -2.3074404475056D-02  2.8897839152955D-03
   262  2.6100000000000D+00 -2.0937839398542D-02  2.7290367373605D-03
   263  2.6200000000000D+00 -1.8924311683859D-02  2.5652355255324D-03
   264  2.6300000000000D+00 -1.7033909933830D-02  2.4000281663157D-03
   265  2.6400000000000D+00 -1.5266016324110D-02  2.2349145422473D-03
   266  2.6500000000000D+00 -1.3619348385049D-02  2.0712496182298D-03
   267  2.6600000000000D+00 -1.2092002272430D-02  1.9102469416697D-03
   268  2.6700000000000D+00 -1.0681497521304D-02  1.7529825603448D-03
   269  2.6800000000000D+00 -9.3848237329947D-03  1.6003995327759D-03
   270  2.6900000000000D+00 -8.1984881452395D-03  1.4533127439586D-03
   271  2.7000000000000D+00 -7.1185641775458D-03  1.3124140512000D-03
   272  2.7100000000000D+00 -6.1407407209085D-03  1.1782777935117D-03
   273  2.7200000000000D+00 -5.2603718077605D-03  1.0513665256509D-03
   274  2.7300000000000D+00 -4.4725266969716D-03  9.3203698682404D-04
   275  2.7400000000000D+00 -3.7720396595741D-03  8.2054621384143D-04
   276  2.7500000000000D+00 -3.1535594482979D-03  7.1705776873723D-04
   277  2.7600000000000D+00 -2.6115985586631D-03  6.2164808710341D-04
   278  2.7700000000000D+00 -2.1405816329574D-03  5.3431284418445D-04
   279  2.7800000000000D+00 -1.7348924204978D-03  4.5497323724332D-04
   280  2.7900000000000D+00 -1.3889198652490D-03  3.8348226436920D-04
   281  2.8000000000000D+00 -1.0971034836959D-03  3.1963103379523D-04
   282  2.8100000000000D+00 -8.5397554313994D-04  2.6315466225584D-04
   283  2.8200000000000D+00 -6.5420215145222D-04  2.1373812544075D-04
   284  2.8300000000000D+00 -4.9262337318590D-04  1.7102209092474D-04
   285  2.8400000000000D+00 -3.6428937649020D-04  1.3460817744779D-04
   286  2.8500000000000D+00 -2.6451744630204D-04  1.0406844762808D-04
   287  2.8600000000000D+00 -1.8887336116520D-04  7.8940360490373D-05
   288  2.8700000000000D+00 -1.3317304795928D-04  5.8725849549798D-05
   289  2.8800000000000D+00 -9.3619680018260D-05  4.2916935547333D-05
   290  2.8900000000000D+00 -6.6477511602600D-05  3.0875371617353D-05
   291  2.9000000000000D+00 -4.9294285223727D-05  2.2274985358111D-05
   292  2.9100000000000D+00 -3.9599996811783D-05  1.6626397257666D-05
   293  2.9200000000000D+00 -3.5739676255313D-05  1.3613879995485D-05
   294  2.9300000000000D+00 -3.5050091313673D-05  1.2360157099083D-05
   295  2.9400000000000D+00 -3.4307748970977D-05  1.1627545827926D-05
   296  2.9500000000000D+00 -3.1352553166084D-05  1.0507903155038D-05
   297  2.9600000000000D+00 -2.3273624563423D-05  7.7461877391472D-06
   298  2.9700000000000D+00 -1.3435187956973D-05  4.4656623057458D-06
   299  2.9800000000000D+00 -3.9298528940075D-06  1.3080536506166D-06
   300  2.9900000000000D+00  1.9386713981775D-06 -6.3271739109880D-07
   301  3.0000000000000D+00  3.3938568147691D-06 -1.1051806273616D-06
   302  3.0100000000000D+00  2.3840819135244D-06 -7.7512135705718D-07
   303  3.0200000000000D+00  1.8270729057527D-07 -5.9333540506279D-08
   304  3.0300000000000D+00 -5.9102101369323D-07  1.9280669209553D-07
   305  3.0400000000000D+00 -7.2334459599676D-07  2.3571354173981D-07
   306  3.0500000000000D+00 -3.8559559718776D-07  1.2553311033390D-07
   307  3.0600000000000D+00  2.6277201593773D-08 -8.8112074311259D-09
   308  3.0700000000000D+00  8.3578691038836D-08 -2.8025403730194D-08
   309  3.0800000000000D+00  8.0126192818882D-08 -2.6867720410566D-08
   310  3.0900000000000D+00  2.6448955787447D-08 -8.8687996302888D-09
   311  3.1000000000000D+00  0.0000000000000D+00  0.0000000000000D+00
   312  3.1100000000000D+00  0.0000000000000D+00  0.0000000000000D+00
   313  3.1200000000000D+00  0.0000000000000D+00  0.0000000000000D+00
   314  3.1300000000000D+00  0.0000000000000D+00  0.0000000000000D+00
   315  3.1400000000000D+00  0.0000000000000D+00  0.0000000000000D+00
   316  3.1500000000000D+00  0.0000000000000D+00  0.0000000000000D+00
   317  3.1600000000000D+00  0.0000000000000D+00  0.0000000000000D+00
   318  3.1700000000000D+00  0.0000000000000D+00  0.0000000000000D+00
   319  3.1800000000000D+00  0.0000000000000D+00  0.0000000000000D+00
   320  3.1900000000000D+00  0.0000000000000D+00  0.0000000000000D+00
   321  3.2000000000000D+00  0.0000000000000D+00  0.0000000000000D+00
   322  3.2100000000000D+00  0.0000000000000D+00  0.0000000000000D+00
   323  3.2200000000000D+00  0.0000000000000D+00  0.0000000000000D+00
   324  3.2300000000000D+00  0.0000000000000D+00  0.0000000000000D+00
   325  3.2400000000000D+00  0.0000000000000D+00  0.0000000000000D+00
   326  3.2500000000000D+00  0.0000000000000D+00  0.0000000000000D+00
   327  3.2600000000000D+00  0.0000000000000D+00  0.0000000000000D+00
   328  3.2700000000000D+00  0.0000000000000D+00  0.0000000000000D+00
   329  3.2800000000000D+00  0.0000000000000D+00  0.0000000000000D+00
   330  3.2900000000000D+00  0.0000000000000D+00  0.0000000000000D+00
   331  3.3000000000000D+00  0.0000000000000D+00  0.0000000000000D+00
   332  3.3100000000000D+00  0.0000000000000D+00  0.0000000000000D+00
   333  3.3200000000000D+00  0.0000000000000D+00  0.0000000000000D+00
   334  3.3300000000000D+00  0.0000000000000D+00  0.0000000000000D+00
   335  3.3400000000000D+00  0.0000000000000D+00  0.0000000000000D+00
   336  3.3500000000000D+00  0.0000000000000D+00  0.0000000000000D+00
   337  3.3600000000000D+00  0.0000000000000D+00  0.0000000000000D+00
   338  3.3700000000000D+00  0.0000000000000D+00  0.0000000000000D+00
   339  3.3800000000000D+00  0.0000000000000D+00  0.0000000000000D+00
   340  3.3900000000000D+00  0.0000000000000D+00  0.0000000000000D+00
   341  3.4000000000000D+00  0.0000000000000D+00  0.0000000000000D+00
   342  3.4100000000000D+00  0.0000000000000D+00  0.0000000000000D+00
   343  3.4200000000000D+00  0.0000000000000D+00  0.0000000000000D+00
   344  3.4300000000000D+00  0.0000000000000D+00  0.0000000000000D+00
   345  3.4400000000000D+00  0.0000000000000D+00  0.0000000000000D+00
   346  3.4500000000000D+00  0.0000000000000D+00  0.0000000000000D+00
   347  3.4600000000000D+00  0.0000000000000D+00  0.0000000000000D+00
   348  3.4700000000000D+00  0.0000000000000D+00  0.0000000000000D+00
   349  3.4800000000000D+00  0.0000000000000D+00  0.0000000000000D+00
   350  3.4900000000000D+00  0.0000000000000D+00  0.0000000000000D+00
   351  3.5000000000000D+00  0.0000000000000D+00  0.0000000000000D+00
   352  3.5100000000000D+00  0.0000000000000D+00  0.0000000000000D+00
   353  3.5200000000000D+00  0.0000000000000D+00  0.0000000000000D+00
   354  3.5300000000000D+00  0.0000000000000D+00  0.0000000000000D+00
   355  3.5400000000000D+00  0.0000000000000D+00  0.0000000000000D+00
   356  3.5500000000000D+00  0.0000000000000D+00  0.0000000000000D+00
   357  3.5600000000000D+00  0.0000000000000D+00  0.0000000000000D+00
   358  3.5700000000000D+00  0.0000000000000D+00  0.0000000000000D+00
   359  3.5800000000000D+00  0.0000000000000D+00  0.0000000000000D+00
   360  3.5900000000000D+00  0.0000000000000D+00  0.0000000000000D+00
   361  3.6000000000000D+00  0.0000000000000D+00  0.0000000000000D+00
   362  3.6100000000000D+00  0.0000000000000D+00  0.0000000000000D+00
   363  3.6200000000000D+00  0.0000000000000D+00  0.0000000000000D+00
   364  3.6300000000000D+00  0.0000000000000D+00  0.0000000000000D+00
   365  3.6400000000000D+00  0.0000000000000D+00  0.0000000000000D+00
   366  3.6500000000000D+00  0.0000000000000D+00  0.0000000000000D+00
   367  3.6600000000000D+00  0.0000000000000D+00  0.0000000000000D+00
   368  3.6700000000000D+00  0.0000000000000D+00  0.0000000000000D+00
   369  3.6800000000000D+00  0.0000000000000D+00  0.0000000000000D+00
   370  3.6900000000000D+00  0.0000000000000D+00  0.0000000000000D+00
   371  3.7000000000000D+00  0.0000000000000D+00  0.0000000000000D+00
   372  3.7100000000000D+00  0.0000000000000D+00  0.0000000000000D+00
   373  3.7200000000000D+00  0.0000000000000D+00  0.0000000000000D+00
   374  3.7300000000000D+00  0.0000000000000D+00  0.0000000000000D+00
   375  3.7400000000000D+00  0.0000000000000D+00  0.0000000000000D+00
   376  3.7500000000000D+00  0.0000000000000D+00  0.0000000000000D+00
   377  3.7600000000000D+00  0.0000000000000D+00  0.0000000000000D+00
   378  3.7700000000000D+00  0.0000000000000D+00  0.0000000000000D+00
   379  3.7800000000000D+00  0.0000000000000D+00  0.0000000000000D+00
   380  3.7900000000000D+00  0.0000000000000D+00  0.0000000000000D+00
   381  3.8000000000000D+00  0.0000000000000D+00  0.0000000000000D+00
   382  3.8100000000000D+00  0.0000000000000D+00  0.0000000000000D+00
   383  3.8200000000000D+00  0.0000000000000D+00  0.0000000000000D+00
   384  3.8300000000000D+00  0.0000000000000D+00  0.0000000000000D+00
   385  3.8400000000000D+00  0.0000000000000D+00  0.0000000000000D+00
   386  3.8500000000000D+00  0.0000000000000D+00  0.0000000000000D+00
   387  3.8600000000000D+00  0.0000000000000D+00  0.0000000000000D+00
   388  3.8700000000000D+00  0.0000000000000D+00  0.0000000000000D+00
   389  3.8800000000000D+00  0.0000000000000D+00  0.0000000000000D+00
   390  3.8900000000000D+00  0.0000000000000D+00  0.0000000000000D+00
   391  3.9000000000000D+00  0.0000000000000D+00  0.0000000000000D+00
   392  3.9100000000000D+00  0.0000000000000D+00  0.0000000000000D+00
   393  3.9200000000000D+00  0.0000000000000D+00  0.0000000000000D+00
   394  3.9300000000000D+00  0.0000000000000D+00  0.0000000000000D+00
   395  3.9400000000000D+00  0.0000000000000D+00  0.0000000000000D+00
   396  3.9500000000000D+00  0.0000000000000D+00  0.0000000000000D+00
   397  3.9600000000000D+00  0.0000000000000D+00  0.0000000000000D+00
   398  3.9700000000000D+00  0.0000000000000D+00  0.0000000000000D+00
   399  3.9800000000000D+00  0.0000000000000D+00  0.0000000000000D+00
   400  3.9900000000000D+00  0.0000000000000D+00  0.0000000000000D+00
   401  4.0000000000000D+00  0.0000000000000D+00  0.0000000000000D+00
   402  4.0100000000000D+00  0.0000000000000D+00  0.0000000000000D+00
   403  4.0200000000000D+00  0.0000000000000D+00  0.0000000000000D+00
   404  4.0300000000000D+00  0.0000000000000D+00  0.0000000000000D+00
   405  4.0400000000000D+00  0.0000000000000D+00  0.0000000000000D+00
   406  4.0500000000000D+00  0.0000000000000D+00  0.0000000000000D+00
   407  4.0600000000000D+00  0.0000000000000D+00  0.0000000000000D+00
   408  4.0700000000000D+00  0.0000000000000D+00  0.0000000000000D+00
   409  4.0800000000000D+00  0.0000000000000D+00  0.0000000000000D+00
   410  4.0900000000000D+00  0.0000000000000D+00  0.0000000000000D+00
   411  4.1000000000000D+00  0.0000000000000D+00  0.0000000000000D+00
   412  4.1100000000000D+00  0.0000000000000D+00  0.0000000000000D+00
   413  4.1200000000000D+00  0.0000000000000D+00  0.0000000000000D+00
   414  4.1300000000000D+00  0.0000000000000D+00  0.0000000000000D+00
   415  4.1400000000000D+00  0.0000000000000D+00  0.0000000000000D+00
   416  4.1500000000000D+00  0.0000000000000D+00  0.0000000000000D+00
   417  4.1600000000000D+00  0.0000000000000D+00  0.0000000000000D+00
   418  4.1700000000000D+00  0.0000000000000D+00  0.0000000000000D+00
   419  4.1800000000000D+00  0.0000000000000D+00  0.0000000000000D+00
   420  4.1900000000000D+00  0.0000000000000D+00  0.0000000000000D+00
   421  4.2000000000000D+00  0.0000000000000D+00  0.0000000000000D+00
   422  4.2100000000000D+00  0.0000000000000D+00  0.0000000000000D+00