As    ONCVPSP-3.3.1  r_core=   2.94957   2.03781   2.94957
     33.0000      5.0000      210905    zatom,zion,pspd
     8 -116133   2     4   600     0    pspcod,pspxc,lmax,lloc,mmax,r2well
  5.99000000  0.00000000  0.00000000    rchrg fchrg qchrg
     2     2     2     0     0    nproj
     1     1           extension_switch
   0                         4.4715172202764D+00  6.1133134138775D-01
     1  0.0000000000000D+00  7.3677175471687D-13 -1.6545393527467D-12
     2  1.0000000000000D-02  2.6090969392642D-02 -1.1823473816762D-03
     3  2.0000000000000D-02  5.2175051928838D-02 -2.3796892664790D-03
     4  3.0000000000000D-02  7.8245338123003D-02 -3.6069381029701D-03
     5  4.0000000000000D-02  1.0429487332020D-01 -4.8788424791699D-03
     6  5.0000000000000D-02  1.3031663533360D-01 -6.2099058133378D-03
     7  6.0000000000000D-02  1.5630351234797D-01 -7.6143057888563D-03
     8  7.0000000000000D-02  1.8224828117703D-01 -9.1058147793100D-03
     9  8.0000000000000D-02  2.0814358596173D-01 -1.0697721508195D-02
    10  9.0000000000000D-02  2.3398191739558D-01 -1.2402754185563D-02
    11  1.0000000000000D-01  2.5975559256207D-01 -1.4233005361445D-02
    12  1.1000000000000D-01  2.8545673546793D-01 -1.6199858732820D-02
    13  1.2000000000000D-01  3.1107725835437D-01 -1.8313918137600D-02
    14  1.3000000000000D-01  3.3660884386691D-01 -2.0584938965102D-02
    15  1.4000000000000D-01  3.6204292816250D-01 -2.3021762208253D-02
    16  1.5000000000000D-01  3.8737068503042D-01 -2.5632251377825D-02
    17  1.6000000000000D-01  4.1258301110138D-01 -2.8423232493800D-02
    18  1.7000000000000D-01  4.3767051221677D-01 -3.1400437363055D-02
    19  1.8000000000000D-01  4.6262349102716D-01 -3.4568450346337D-02
    20  1.9000000000000D-01  4.8743193588674D-01 -3.7930658810576D-02
    21  2.0000000000000D-01  5.1208551110674D-01 -4.1489207455183D-02
    22  2.1000000000000D-01  5.3657354862845D-01 -4.5244956693283D-02
    23  2.2000000000000D-01  5.6088504117223D-01 -4.9197445260079D-02
    24  2.3000000000000D-01  5.8500863691599D-01 -5.3344857211722D-02
    25  2.4000000000000D-01  6.0893263575245D-01 -5.7683993468525D-02
    26  2.5000000000000D-01  6.3264498717052D-01 -6.2210248046069D-02
    27  2.6000000000000D-01  6.5613328980238D-01 -6.6917589107206D-02
    28  2.7000000000000D-01  6.7938479267292D-01 -7.1798544956636D-02
    29  2.8000000000000D-01  7.0238639818435D-01 -7.6844195087893D-02
    30  2.9000000000000D-01  7.2512466686345D-01 -8.2044166380315D-02
    31  3.0000000000000D-01  7.4758582389482D-01 -8.7386634530421D-02
    32  3.1000000000000D-01  7.6975576745787D-01 -9.2858330788996D-02
    33  3.2000000000000D-01  7.9162007888053D-01 -9.8444554060790D-02
    34  3.3000000000000D-01  8.1316403461736D-01 -1.0412918840956D-01
    35  3.4000000000000D-01  8.3437262005406D-01 -1.0989472599603D-01
    36  3.5000000000000D-01  8.5523054513539D-01 -1.1572229546097D-01
    37  3.6000000000000D-01  8.7572226180717D-01 -1.2159169574956D-01
    38  3.7000000000000D-01  8.9583198325795D-01 -1.2748143535715D-01
    39  3.8000000000000D-01  9.1554370493982D-01 -1.3336877695952D-01
    40  3.9000000000000D-01  9.3484122734176D-01 -1.3922978737406D-01
    41  4.0000000000000D-01  9.5370818048348D-01 -1.4503939278066D-01
    42  4.1000000000000D-01  9.7212805009119D-01 -1.5077143911384D-01
    43  4.2000000000000D-01  9.9008420541109D-01 -1.5639875751957D-01
    44  4.3000000000000D-01  1.0075599286101D+00 -1.6189323475255D-01
    45  4.4000000000000D-01  1.0245384457077D+00 -1.6722588837151D-01
    46  4.5000000000000D-01  1.0410029589758D+00 -1.7236694657227D-01
    47  4.6000000000000D-01  1.0569366807396D+00 -1.7728593247986D-01
    48  4.7000000000000D-01  1.0723228685038D+00 -1.8195175270342D-01
    49  4.8000000000000D-01  1.0871448613251D+00 -1.8633278993968D-01
    50  4.9000000000000D-01  1.1013861173452D+00 -1.9039699939301D-01
    51  5.0000000000000D-01  1.1150302523928D+00 -1.9411200876315D-01
    52  5.1000000000000D-01  1.1280610795584D+00 -1.9744522153423D-01
    53  5.2000000000000D-01  1.1404626496397D+00 -2.0036392328285D-01
    54  5.3000000000000D-01  1.1522192923505D+00 -2.0283539070643D-01
    55  5.4000000000000D-01  1.1633156581832D+00 -2.0482700305791D-01
    56  5.5000000000000D-01  1.1737367608053D+00 -2.0630635565806D-01
    57  5.6000000000000D-01  1.1834680198733D+00 -2.0724137514300D-01
    58  5.7000000000000D-01  1.1924953041364D+00 -2.0760043609051D-01
    59  5.8000000000000D-01  1.2008049747028D+00 -2.0735247865758D-01
    60  5.9000000000000D-01  1.2083839283382D+00 -2.0646712684929D-01
    61  6.0000000000000D-01  1.2152196406588D+00 -2.0491480702964D-01
    62  6.1000000000000D-01  1.2213002090852D+00 -2.0266686627523D-01
    63  6.2000000000000D-01  1.2266143954139D+00 -1.9969569016511D-01
    64  6.3000000000000D-01  1.2311516678681D+00 -1.9597481959310D-01
    65  6.4000000000000D-01  1.2349022424823D+00 -1.9147906618391D-01
    66  6.5000000000000D-01  1.2378571236784D+00 -1.8618462588972D-01
    67  6.6000000000000D-01  1.2400081438881D+00 -1.8006919034193D-01
    68  6.7000000000000D-01  1.2413480020769D+00 -1.7311205553131D-01
    69  6.8000000000000D-01  1.2418703010260D+00 -1.6529422739024D-01
    70  6.9000000000000D-01  1.2415695832284D+00 -1.5659852385264D-01
    71  7.0000000000000D-01  1.2404413652573D+00 -1.4700967297115D-01
    72  7.1000000000000D-01  1.2384821704667D+00 -1.3651440667573D-01
    73  7.2000000000000D-01  1.2356895598871D+00 -1.2510154976521D-01
    74  7.3000000000000D-01  1.2320621611814D+00 -1.1276210373166D-01
    75  7.4000000000000D-01  1.2275996955290D+00 -9.9489325027651D-02
    76  7.5000000000000D-01  1.2223030023120D+00 -8.5278797398702D-02
    77  7.6000000000000D-01  1.2161740614806D+00 -7.0128497916120D-02
    78  7.7000000000000D-01  1.2092160134789D+00 -5.4038856361797D-02
    79  7.8000000000000D-01  1.2014331766204D+00 -3.7012807632306D-02
    80  7.9000000000000D-01  1.1928310618061D+00 -1.9055836849098D-02
    81  8.0000000000000D-01  1.1834163844851D+00 -1.7601688135403D-04
    82  8.1000000000000D-01  1.1731970737669D+00  1.9615961990035D-02
    83  8.2000000000000D-01  1.1621822785978D+00  4.0306770515918D-02
    84  8.3000000000000D-01  1.1503823709257D+00  6.1880427253184D-02
    85  8.4000000000000D-01  1.1378089457838D+00  8.4318293867595D-02
    86  8.5000000000000D-01  1.1244748182334D+00  1.0759907913526D-01
    87  8.6000000000000D-01  1.1103940171132D+00  1.3169885178418D-01
    88  8.7000000000000D-01  1.0955817755558D+00  1.5659106228764D-01
    89  8.8000000000000D-01  1.0800545182377D+00  1.8224657368990D-01
    90  8.9000000000000D-01  1.0638298453417D+00  2.0863370151333D-01
    91  9.0000000000000D-01  1.0469265132208D+00  2.3571826276298D-01
    92  9.1000000000000D-01  1.0293644117625D+00  2.6346363401122D-01
    93  9.2000000000000D-01  1.0111645384639D+00  2.9183081851084D-01
    94  9.3000000000000D-01  9.9234896923857D-01  3.2077852225052D-01
    95  9.4000000000000D-01  9.7294082598821D-01  3.5026323883132D-01
    96  9.5000000000000D-01  9.5296424098216D-01  3.8023934300735D-01
    97  9.6000000000000D-01  9.3244431810005D-01  4.1065919269889D-01
    98  9.7000000000000D-01  9.1140709100413D-01  4.4147323924956D-01
    99  9.8000000000000D-01  8.8987947831859D-01  4.7263014566525D-01
   100  9.9000000000000D-01  8.6788923590539D-01  5.0407691253604D-01
   101  1.0000000000000D+00  8.4546490633645D-01  5.3575901130825D-01
   102  1.0100000000000D+00  8.2263576567372D-01  5.6762052453962D-01
   103  1.0200000000000D+00  7.9943176767921D-01  5.9960429273678D-01
   104  1.0300000000000D+00  7.7588348558789D-01  6.3165206734168D-01
   105  1.0400000000000D+00  7.5202205158687D-01  6.6370466940135D-01
   106  1.0500000000000D+00  7.2787909415388D-01  6.9570215342649D-01
   107  1.0600000000000D+00  7.0348667341863D-01  7.2758397591213D-01
   108  1.0700000000000D+00  6.7887721471942D-01  7.5928916796795D-01
   109  1.0800000000000D+00  6.5408344053672D-01  7.9075651147790D-01
   110  1.0900000000000D+00  6.2913830099402D-01  8.2192471818337D-01
   111  1.1000000000000D+00  6.0407490312352D-01  8.5273261106380D-01
   112  1.1100000000000D+00  5.7892643910320D-01  8.8311930736232D-01
   113  1.1200000000000D+00  5.5372611367760D-01  9.1302440258842D-01
   114  1.1300000000000D+00  5.2850707098190D-01  9.4238815480948D-01
   115  1.1400000000000D+00  5.0330232099368D-01  9.7115166853029D-01
   116  1.1500000000000D+00  4.7814466584319D-01  9.9925707744326D-01
   117  1.1600000000000D+00  4.5306662621665D-01  1.0266477253229D+00
   118  1.1700000000000D+00  4.2810036809142D-01  1.0532683443285D+00
   119  1.1800000000000D+00  4.0327763004426D-01  1.0790652299747D+00
   120  1.1900000000000D+00  3.7862965137767D-01  1.1039864120214D+00
   121  1.2000000000000D+00  3.5418710130994D-01  1.1279818205373D+00
   122  1.2100000000000D+00  3.2998000947570D-01  1.1510034463916D+00
   123  1.2200000000000D+00  3.0603769798468D-01  1.1730054954272D+00
   124  1.2300000000000D+00  2.8238871528540D-01  1.1939445355817D+00
   125  1.2400000000000D+00  2.5906077207841D-01  1.2137796362283D+00
   126  1.2500000000000D+00  2.3608067952420D-01  1.2324724990142D+00
   127  1.2600000000000D+00  2.1347428998578D-01  1.2499875794946D+00
   128  1.2700000000000D+00  1.9126644054192D-01  1.2662921988803D+00
   129  1.2800000000000D+00  1.6948089950722D-01  1.2813566452141D+00
   130  1.2900000000000D+00  1.4814031618545D-01  1.2951542633352D+00
   131  1.3000000000000D+00  1.2726617407648D-01  1.3076615330119D+00
   132  1.3100000000000D+00  1.0687874775896D-01  1.3188581346174D+00
   133  1.3200000000000D+00  8.6997063653565D-02  1.3287270017899D+00
   134  1.3300000000000D+00  6.7638864866743D-02  1.3372543605371D+00
   135  1.3400000000000D+00  4.8820580317131D-02  1.3444297542359D+00
   136  1.3500000000000D+00  3.0557298319679D-02  1.3502460540795D+00
   137  1.3600000000000D+00  1.2862744806748D-02  1.3546994545068D+00
   138  1.3700000000000D+00 -4.2507336424095D-03  1.3577894531786D+00
   139  1.3800000000000D+00 -2.0772181822200D-02  1.3595188151714D+00
   140  1.3900000000000D+00 -3.6692042811445D-02  1.3598935209934D+00
   141  1.4000000000000D+00 -5.2002159649208D-02  1.3589226981518D+00
   142  1.4100000000000D+00 -6.6695771659830D-02  1.3566185360272D+00
   143  1.4200000000000D+00 -8.0767505296858D-02  1.3529961837680D+00
   144  1.4300000000000D+00 -9.4213359436025D-02  1.3480736311173D+00
   145  1.4400000000000D+00 -1.0703068500671D-01  1.3418715719501D+00
   146  1.4500000000000D+00 -1.1921815890189D-01  1.3344132504685D+00
   147  1.4600000000000D+00 -1.3077575211216D-01  1.3257242900175D+00
   148  1.4700000000000D+00 -1.4170469201084D-01  1.3158325044265D+00
   149  1.4800000000000D+00 -1.5200741879723D-01  1.3047676920389D+00
   150  1.4900000000000D+00 -1.6168753602740D-01  1.2925614123444D+00
   151  1.5000000000000D+00 -1.7074975526813D-01  1.2792467454647D+00
   152  1.5100000000000D+00 -1.7919983484818D-01  1.2648580345490D+00
   153  1.5200000000000D+00 -1.8704451245681D-01  1.2494306077269D+00
   154  1.5300000000000D+00 -1.9429143352890D-01  1.2330005044944D+00
   155  1.5400000000000D+00 -2.0094906735616D-01  1.2156041084272D+00
   156  1.5500000000000D+00 -2.0702663895861D-01  1.1972780052581D+00
   157  1.5600000000000D+00 -2.1253401406212D-01  1.1780583826601D+00
   158  1.5700000000000D+00 -2.1748159697781D-01  1.1579805214704D+00
   159  1.5800000000000D+00 -2.2188032304003D-01  1.1370797286451D+00
   160  1.5900000000000D+00 -2.2574164294015D-01  1.1153919698457D+00
   161  1.6000000000000D+00 -2.2907757290245D-01  1.0929547958463D+00
   162  1.6100000000000D+00 -2.3190071274369D-01  1.0698078867049D+00
   163  1.6200000000000D+00 -2.3422419371304D-01  1.0459925063911D+00
   164  1.6300000000000D+00 -2.3606165220861D-01  1.0215513390051D+00
   165  1.6400000000000D+00 -2.3742720258604D-01  9.9652840959718D-01
   166  1.6500000000000D+00 -2.3833540358484D-01  9.7096889200081D-01
   167  1.6600000000000D+00 -2.3880122556982D-01  9.4491896056851D-01
   168  1.6700000000000D+00 -2.3884001564190D-01  9.1842562783609D-01
   169  1.6800000000000D+00 -2.3846746187300D-01  8.9153658625031D-01
   170  1.6900000000000D+00 -2.3769955672629D-01  8.6430005168491D-01
   171  1.7000000000000D+00 -2.3655255980821D-01  8.3676460905027D-01
   172  1.7100000000000D+00 -2.3504296018999D-01  8.0897906060737D-01
   173  1.7200000000000D+00 -2.3318743842374D-01  7.8099227722478D-01
   174  1.7300000000000D+00 -2.3100282846826D-01  7.5285305303894D-01
   175  1.7400000000000D+00 -2.2850607963867D-01  7.2460996374603D-01
   176  1.7500000000000D+00 -2.2571421876003D-01  6.9631122885372D-01
   177  1.7600000000000D+00 -2.2264431264063D-01  6.6800457813295D-01
   178  1.7700000000000D+00 -2.1931343100052D-01  6.3973712249531D-01
   179  1.7800000000000D+00 -2.1573860998364D-01  6.1155522955263D-01
   180  1.7900000000000D+00 -2.1193681633793D-01  5.8350440400360D-01
   181  1.8000000000000D+00 -2.0792491241374D-01  5.5562917312608D-01
   182  1.8100000000000D+00 -2.0371962200883D-01  5.2797297744101D-01
   183  1.8200000000000D+00 -1.9933749724013D-01  5.0057806687009D-01
   184  1.8300000000000D+00 -1.9479488641041D-01  4.7348540234757D-01
   185  1.8400000000000D+00 -1.9010790308474D-01  4.4673456328946D-01
   186  1.8500000000000D+00 -1.8529239628884D-01  4.2036366074223D-01
   187  1.8600000000000D+00 -1.8036392206246D-01  3.9440925669718D-01
   188  1.8700000000000D+00 -1.7533771626497D-01  3.6890628930892D-01
   189  1.8800000000000D+00 -1.7022866882519D-01  3.4388800446321D-01
   190  1.8900000000000D+00 -1.6505129937973D-01  3.1938589349893D-01
   191  1.9000000000000D+00 -1.5981973440524D-01  2.9542963733966D-01
   192  1.9100000000000D+00 -1.5454768586670D-01  2.7204705703574D-01
   193  1.9200000000000D+00 -1.4924843137688D-01  2.4926407064934D-01
   194  1.9300000000000D+00 -1.4393479598927D-01  2.2710465680801D-01
   195  1.9400000000000D+00 -1.3861913549338D-01  2.0559082442479D-01
   196  1.9500000000000D+00 -1.3331332142509D-01  1.8474258924330D-01
   197  1.9600000000000D+00 -1.2802872760242D-01  1.6457795647589D-01
   198  1.9700000000000D+00 -1.2277621835988D-01  1.4511291008018D-01
   199  1.9800000000000D+00 -1.1756613838136D-01  1.2636140824142D-01
   200  1.9900000000000D+00 -1.1240830415077D-01  1.0833538506084D-01
   201  2.0000000000000D+00 -1.0731199707952D-01  9.1044758595684D-02
   202  2.0100000000000D+00 -1.0228595814364D-01  7.4497444563580D-02
   203  2.0200000000000D+00 -9.7338384229341D-02  5.8699376375037D-02
   204  2.0300000000000D+00 -9.2476925944944D-02  4.3654530529543D-02
   205  2.0400000000000D+00 -8.7708687035878D-02  2.9364957807190D-02
   206  2.0500000000000D+00 -8.3040225305239D-02  1.5830819827257D-02
   207  2.0600000000000D+00 -7.8477554964567D-02  3.0504306262315D-03
   208  2.0700000000000D+00 -7.4026150509593D-02 -8.9796964755631D-03
   209  2.0800000000000D+00 -6.9690951893652D-02 -2.0264797607122D-02
   210  2.0900000000000D+00 -6.5476371130150D-02 -3.0811802293071D-02
   211  2.1000000000000D+00 -6.1386300160145D-02 -4.0629273263458D-02
   212  2.1100000000000D+00 -5.7424119947127D-02 -4.9727342338924D-02
   213  2.1200000000000D+00 -5.3592710824257D-02 -5.8117642395762D-02
   214  2.1300000000000D+00 -4.9894463895127D-02 -6.5813236147000D-02
   215  2.1400000000000D+00 -4.6331293568939D-02 -7.2828541588168D-02
   216  2.1500000000000D+00 -4.2904651074881D-02 -7.9179254681553D-02
   217  2.1600000000000D+00 -3.9615538899480D-02 -8.4882269552763D-02
   218  2.1700000000000D+00 -3.6464526139742D-02 -8.9955596358622D-02
   219  2.1800000000000D+00 -3.3451764613700D-02 -9.4418277339717D-02
   220  2.1900000000000D+00 -3.0577005728705D-02 -9.8290301247283D-02
   221  2.2000000000000D+00 -2.7839618005553D-02 -1.0159251650803D-01
   222  2.2100000000000D+00 -2.5238605177307D-02 -1.0434654341474D-01
   223  2.2200000000000D+00 -2.2772624812552D-02 -1.0657468576507D-01
   224  2.2300000000000D+00 -2.0440007375532D-02 -1.0829984209138D-01
   225  2.2400000000000D+00 -1.8238775649530D-02 -1.0954541694027D-01
   226  2.2500000000000D+00 -1.6166664441898D-02 -1.1033523256430D-01
   227  2.2600000000000D+00 -1.4221140540900D-02 -1.1069344097709D-01
   228  2.2700000000000D+00 -1.2399422776241D-02 -1.1064443723254D-01
   229  2.2800000000000D+00 -1.0698502170440D-02 -1.1021277380914D-01
   230  2.2900000000000D+00 -9.1151621322295D-03 -1.0942307626511D-01
   231  2.3000000000000D+00 -7.6459985077354D-03 -1.0829996114468D-01
   232  2.3100000000000D+00 -6.2874395803068D-03 -1.0686795547213D-01
   233  2.3200000000000D+00 -5.0357658569918D-03 -1.0515141863913D-01
   234  2.3300000000000D+00 -3.8871295189792D-03 -1.0317446723485D-01
   235  2.3400000000000D+00 -2.8375736606766D-03 -1.0096090206686D-01
   236  2.3500000000000D+00 -1.8830510891255D-03 -9.8534138521170D-02
   237  2.3600000000000D+00 -1.0194426724259D-03 -9.5917140203794D-02
   238  2.3700000000000D+00 -2.4257535281040D-04 -9.3132355207396D-02
   239  2.3800000000000D+00  4.5176057514534D-04 -9.0201656920396D-02
   240  2.3900000000000D+00  1.0677947082737D-03 -8.7146288242771D-02
   241  2.4000000000000D+00  1.6097602105445D-03 -8.3986808761543D-02
   242  2.4100000000000D+00  2.0818784982555D-03 -8.0743047500696D-02
   243  2.4200000000000D+00  2.4883444160912D-03 -7.7434058784360D-02
   244  2.4300000000000D+00  2.8333121263986D-03 -7.4078082151569D-02
   245  2.4400000000000D+00  3.1208818814865D-03 -7.0692507166374D-02
   246  2.4500000000000D+00  3.3550874531157D-03 -6.7293841883299D-02
   247  2.4600000000000D+00  3.5398843277851D-03 -6.3897685473563D-02
   248  2.4700000000000D+00  3.6791389793071D-03 -6.0518706355351D-02
   249  2.4800000000000D+00  3.7766187418465D-03 -5.7170623605118D-02
   250  2.4900000000000D+00  3.8359825643683D-03 -5.3866192862773D-02
   251  2.5000000000000D+00  3.8607728153336D-03 -5.0617197424864D-02
   252  2.5100000000000D+00  3.8544077374408D-03 -4.7434442670027D-02
   253  2.5200000000000D+00  3.8201748047591D-03 -4.4327754893840D-02
   254  2.5300000000000D+00  3.7612250636734D-03 -4.1305984864631D-02
   255  2.5400000000000D+00  3.6805681326625D-03 -3.8377014579047D-02
   256  2.5500000000000D+00  3.5810680835039D-03 -3.5547768149176D-02
   257  2.5600000000000D+00  3.4654403105439D-03 -3.2824227213627D-02
   258  2.5700000000000D+00  3.3362490030340D-03 -3.0211449151935D-02
   259  2.5800000000000D+00  3.1959054315193D-03 -2.7713588948366D-02
   260  2.5900000000000D+00  3.0466671445948D-03 -2.5333925047258D-02
   261  2.6000000000000D+00  2.8906377349686D-03 -2.3074887695314D-02
   262  2.6100000000000D+00  2.7297673004014D-03 -2.0938090240430D-02
   263  2.6200000000000D+00  2.5658537444659D-03 -1.8924363904183D-02
   264  2.6300000000000D+00  2.4005445751240D-03 -1.7033794569027D-02
   265  2.6400000000000D+00  2.2353392597707D-03 -1.5265761767056D-02
   266  2.6500000000000D+00  2.0715923158053D-03 -1.3618980467582D-02
   267  2.6600000000000D+00  1.9105168150255D-03 -1.2091544353220D-02
   268  2.6700000000000D+00  1.7531883057714D-03 -1.0680970578692D-02
   269  2.6800000000000D+00  1.6005493275403D-03 -9.3842464621223D-03
   270  2.6900000000000D+00  1.4534142309474D-03 -8.1978770591311D-03
   271  2.7000000000000D+00  1.3124743277801D-03 -7.1179337117851D-03
   272  2.7100000000000D+00  1.1783034045111D-03 -6.1401033412991D-03
   273  2.7200000000000D+00  1.0513634604112D-03 -5.2597381206258D-03
   274  2.7300000000000D+00  9.3201068027010D-04 -4.4719055617395D-03
   275  2.7400000000000D+00  8.2050155143948D-04 -3.7714383031749D-03
   276  2.7500000000000D+00  7.1699909523329D-04 -3.1529835809985D-03
   277  2.7600000000000D+00  6.2157921895536D-04 -2.6110524910203D-03
   278  2.7700000000000D+00  5.3423708554691D-04 -2.1400683935288D-03
   279  2.7800000000000D+00  4.5489339932178D-04 -1.7344138739382D-03
   280  2.7900000000000D+00  3.8340068802209D-04 -1.3884768305197D-03
   281  2.8000000000000D+00  3.1954961526729D-04 -1.0966958520928D-03
   282  2.8100000000000D+00  2.6307488176157D-04 -8.5360239584813D-04
   283  2.8200000000000D+00  2.1366107846940D-04 -6.5386187639254D-04
   284  2.8300000000000D+00  1.7094852213348D-04 -4.9231378087097D-04
   285  2.8400000000000D+00  1.3453851684197D-04 -3.6400781472922D-04
   286  2.8500000000000D+00  1.0400281638200D-04 -2.6426079379451D-04
   287  2.8600000000000D+00  7.8878651749186D-05 -1.8863828888541D-04
   288  2.8700000000000D+00  5.8667850849519D-05 -1.3295642599428D-04
   289  2.8800000000000D+00  4.2862293456056D-05 -9.3418395466755D-05
   290  2.8900000000000D+00  3.0824135641984D-05 -6.6290395470301D-05
   291  2.9000000000000D+00  2.2226149941215D-05 -4.9116726315503D-05
   292  2.9100000000000D+00  1.6578637184810D-05 -3.9426557933247D-05
   293  2.9200000000000D+00  1.3564945257765D-05 -3.5561821625312D-05
   294  2.9300000000000D+00  1.2309217844031D-05 -3.4864664652150D-05
   295  2.9400000000000D+00  1.1576804035350D-05 -3.4122782743852D-05
   296  2.9500000000000D+00  1.0461540060626D-05 -3.1183375929829D-05
   297  2.9600000000000D+00  7.7119584620999D-06 -2.3148639779803D-05
   298  2.9700000000000D+00  4.4460359134164D-06 -1.3363489510372D-05
   299  2.9800000000000D+00  1.3023502543885D-06 -3.9090100628152D-06
   300  2.9900000000000D+00 -6.2986957374017D-07  1.9282668000759D-06
   301  3.0000000000000D+00 -1.1002079064415D-06  3.3756857467310D-06
   302  3.0100000000000D+00 -7.7163657793573D-07  2.3713462297035D-06
   303  3.0200000000000D+00 -5.9067076915468D-08  1.8173334218442D-07
   304  3.0300000000000D+00  1.9191711779422D-07 -5.8777335498657D-07
   305  3.0400000000000D+00  2.3462405112260D-07 -7.1936699951284D-07
   306  3.0500000000000D+00  1.2495198847389D-07 -3.8347395455747D-07
   307  3.0600000000000D+00 -8.7723435707793D-09  2.6135393551716D-08
   308  3.0700000000000D+00 -2.7901791230404D-08  8.3127648697377D-08
   309  3.0800000000000D+00 -2.6749214139771D-08  7.9693782294476D-08
   310  3.0900000000000D+00 -8.8296817462795D-09  2.6306220853468D-08
   311  3.1000000000000D+00  0.0000000000000D+00  0.0000000000000D+00
   312  3.1100000000000D+00  0.0000000000000D+00  0.0000000000000D+00
   313  3.1200000000000D+00  0.0000000000000D+00  0.0000000000000D+00
   314  3.1300000000000D+00  0.0000000000000D+00  0.0000000000000D+00
   315  3.1400000000000D+00  0.0000000000000D+00  0.0000000000000D+00
   316  3.1500000000000D+00  0.0000000000000D+00  0.0000000000000D+00
   317  3.1600000000000D+00  0.0000000000000D+00  0.0000000000000D+00
   318  3.1700000000000D+00  0.0000000000000D+00  0.0000000000000D+00
   319  3.1800000000000D+00  0.0000000000000D+00  0.0000000000000D+00
   320  3.1900000000000D+00  0.0000000000000D+00  0.0000000000000D+00
   321  3.2000000000000D+00  0.0000000000000D+00  0.0000000000000D+00
   322  3.2100000000000D+00  0.0000000000000D+00  0.0000000000000D+00
   323  3.2200000000000D+00  0.0000000000000D+00  0.0000000000000D+00
   324  3.2300000000000D+00  0.0000000000000D+00  0.0000000000000D+00
   325  3.2400000000000D+00  0.0000000000000D+00  0.0000000000000D+00
   326  3.2500000000000D+00  0.0000000000000D+00  0.0000000000000D+00
   327  3.2600000000000D+00  0.0000000000000D+00  0.0000000000000D+00
   328  3.2700000000000D+00  0.0000000000000D+00  0.0000000000000D+00
   329  3.2800000000000D+00  0.0000000000000D+00  0.0000000000000D+00
   330  3.2900000000000D+00  0.0000000000000D+00  0.0000000000000D+00
   331  3.3000000000000D+00  0.0000000000000D+00  0.0000000000000D+00
   332  3.3100000000000D+00  0.0000000000000D+00  0.0000000000000D+00
   333  3.3200000000000D+00  0.0000000000000D+00  0.0000000000000D+00
   334  3.3300000000000D+00  0.0000000000000D+00  0.0000000000000D+00
   335  3.3400000000000D+00  0.0000000000000D+00  0.0000000000000D+00
   336  3.3500000000000D+00  0.0000000000000D+00  0.0000000000000D+00
   337  3.3600000000000D+00  0.0000000000000D+00  0.0000000000000D+00
   338  3.3700000000000D+00  0.0000000000000D+00  0.0000000000000D+00
   339  3.3800000000000D+00  0.0000000000000D+00  0.0000000000000D+00
   340  3.3900000000000D+00  0.0000000000000D+00  0.0000000000000D+00
   341  3.4000000000000D+00  0.0000000000000D+00  0.0000000000000D+00
   342  3.4100000000000D+00  0.0000000000000D+00  0.0000000000000D+00
   343  3.4200000000000D+00  0.0000000000000D+00  0.0000000000000D+00
   344  3.4300000000000D+00  0.0000000000000D+00  0.0000000000000D+00
   345  3.4400000000000D+00  0.0000000000000D+00  0.0000000000000D+00
   346  3.4500000000000D+00  0.0000000000000D+00  0.0000000000000D+00
   347  3.4600000000000D+00  0.0000000000000D+00  0.0000000000000D+00
   348  3.4700000000000D+00  0.0000000000000D+00  0.0000000000000D+00
   349  3.4800000000000D+00  0.0000000000000D+00  0.0000000000000D+00
   350  3.4900000000000D+00  0.0000000000000D+00  0.0000000000000D+00
   351  3.5000000000000D+00  0.0000000000000D+00  0.0000000000000D+00
   352  3.5100000000000D+00  0.0000000000000D+00  0.0000000000000D+00
   353  3.5200000000000D+00  0.0000000000000D+00  0.0000000000000D+00
   354  3.5300000000000D+00  0.0000000000000D+00  0.0000000000000D+00
   355  3.5400000000000D+00  0.0000000000000D+00  0.0000000000000D+00
   356  3.5500000000000D+00  0.0000000000000D+00  0.0000000000000D+00
   357  3.5600000000000D+00  0.0000000000000D+00  0.0000000000000D+00
   358  3.5700000000000D+00  0.0000000000000D+00  0.0000000000000D+00
   359  3.5800000000000D+00  0.0000000000000D+00  0.0000000000000D+00
   360  3.5900000000000D+00  0.0000000000000D+00  0.0000000000000D+00
   361  3.6000000000000D+00  0.0000000000000D+00  0.0000000000000D+00
   362  3.6100000000000D+00  0.0000000000000D+00  0.0000000000000D+00
   363  3.6200000000000D+00  0.0000000000000D+00  0.0000000000000D+00
   364  3.6300000000000D+00  0.0000000000000D+00  0.0000000000000D+00
   365  3.6400000000000D+00  0.0000000000000D+00  0.0000000000000D+00
   366  3.6500000000000D+00  0.0000000000000D+00  0.0000000000000D+00
   367  3.6600000000000D+00  0.0000000000000D+00  0.0000000000000D+00
   368  3.6700000000000D+00  0.0000000000000D+00  0.0000000000000D+00
   369  3.6800000000000D+00  0.0000000000000D+00  0.0000000000000D+00
   370  3.6900000000000D+00  0.0000000000000D+00  0.0000000000000D+00
   371  3.7000000000000D+00  0.0000000000000D+00  0.0000000000000D+00
   372  3.7100000000000D+00  0.0000000000000D+00  0.0000000000000D+00
   373  3.7200000000000D+00  0.0000000000000D+00  0.0000000000000D+00
   374  3.7300000000000D+00  0.0000000000000D+00  0.0000000000000D+00
   375  3.7400000000000D+00  0.0000000000000D+00  0.0000000000000D+00
   376  3.7500000000000D+00  0.0000000000000D+00  0.0000000000000D+00
   377  3.7600000000000D+00  0.0000000000000D+00  0.0000000000000D+00
   378  3.7700000000000D+00  0.0000000000000D+00  0.0000000000000D+00
   379  3.7800000000000D+00  0.0000000000000D+00  0.0000000000000D+00
   380  3.7900000000000D+00  0.0000000000000D+00  0.0000000000000D+00
   381  3.8000000000000D+00  0.0000000000000D+00  0.0000000000000D+00
   382  3.8100000000000D+00  0.0000000000000D+00  0.0000000000000D+00
   383  3.8200000000000D+00  0.0000000000000D+00  0.0000000000000D+00
   384  3.8300000000000D+00  0.0000000000000D+00  0.0000000000000D+00
   385  3.8400000000000D+00  0.0000000000000D+00  0.0000000000000D+00
   386  3.8500000000000D+00  0.0000000000000D+00  0.0000000000000D+00
   387  3.8600000000000D+00  0.0000000000000D+00  0.0000000000000D+00
   388  3.8700000000000D+00  0.0000000000000D+00  0.0000000000000D+00
   389  3.8800000000000D+00  0.0000000000000D+00  0.0000000000000D+00
   390  3.8900000000000D+00  0.0000000000000D+00  0.0000000000000D+00
   391  3.9000000000000D+00  0.0000000000000D+00  0.0000000000000D+00
   392  3.9100000000000D+00  0.0000000000000D+00  0.0000000000000D+00
   393  3.9200000000000D+00  0.0000000000000D+00  0.0000000000000D+00
   394  3.9300000000000D+00  0.0000000000000D+00  0.0000000000000D+00
   395  3.9400000000000D+00  0.0000000000000D+00  0.0000000000000D+00
   396  3.9500000000000D+00  0.0000000000000D+00  0.0000000000000D+00
   397  3.9600000000000D+00  0.0000000000000D+00  0.0000000000000D+00
   398  3.9700000000000D+00  0.0000000000000D+00  0.0000000000000D+00
   399  3.9800000000000D+00  0.0000000000000D+00  0.0000000000000D+00
   400  3.9900000000000D+00  0.0000000000000D+00  0.0000000000000D+00
   401  4.0000000000000D+00  0.0000000000000D+00  0.0000000000000D+00
   402  4.0100000000000D+00  0.0000000000000D+00  0.0000000000000D+00
   403  4.0200000000000D+00  0.0000000000000D+00  0.0000000000000D+00
   404  4.0300000000000D+00  0.0000000000000D+00  0.0000000000000D+00
   405  4.0400000000000D+00  0.0000000000000D+00  0.0000000000000D+00
   406  4.0500000000000D+00  0.0000000000000D+00  0.0000000000000D+00
   407  4.0600000000000D+00  0.0000000000000D+00  0.0000000000000D+00
   408  4.0700000000000D+00  0.0000000000000D+00  0.0000000000000D+00
   409  4.0800000000000D+00  0.0000000000000D+00  0.0000000000000D+00
   410  4.0900000000000D+00  0.0000000000000D+00  0.0000000000000D+00
   411  4.1000000000000D+00  0.0000000000000D+00  0.0000000000000D+00
   412  4.1100000000000D+00  0.0000000000000D+00  0.0000000000000D+00
   413  4.1200000000000D+00  0.0000000000000D+00  0.0000000000000D+00
   414  4.1300000000000D+00  0.0000000000000D+00  0.0000000000000D+00
   415  4.1400000000000D+00  0.0000000000000D+00  0.0000000000000D+00
   416  4.1500000000000D+00  0.0000000000000D+00  0.0000000000000D+00
   417  4.1600000000000D+00  0.0000000000000D+00  0.0000000000000D+00
   418  4.1700000000000D+00  0.0000000000000D+00  0.0000000000000D+00
   419  4.1800000000000D+00  0.0000000000000D+00  0.0000000000000D+00
   420  4.1900000000000D+00  0.0000000000000D+00  0.0000000000000D+00
   421  4.2000000000000D+00  0.0000000000000D+00  0.0000000000000D+00
   422  4.2100000000000D+00  0.0000000000000D+00  0.0000000000000D+00