Au    ONCVPSP-3.3.1  r_core=   2.46102   2.46102   2.18429   3.16160
     79.0000     19.0000      210905    zatom,zion,pspd
     8 -116133   3     4   600     0    pspcod,pspxc,lmax,lloc,mmax,r2well
  5.99000000  0.00000000  0.00000000    rchrg fchrg qchrg
     2     4     4     3    nproj
     3     1           extension_switch
     4     4     4    nprojso
   0                         5.0873724942471D-01  4.0330887963616D+00
     1  0.0000000000000D+00 -1.5535697728275D-11 -2.4646951146678D-13
     2  1.0000000000000D-02  8.3728871725196D-03  5.5812857648743D-02
     3  2.0000000000000D-02  1.6740460640287D-02  1.1153612880572D-01
     4  3.0000000000000D-02  2.5097514598188D-02  1.6708038022040D-01
     5  4.0000000000000D-02  3.3439058282913D-02  2.2235648490217D-01
     6  5.0000000000000D-02  4.1760421604117D-02  2.7727577469379D-01
     7  6.0000000000000D-02  5.0057358518904D-02  3.3175019217740D-01
     8  7.0000000000000D-02  5.8326147415675D-02  3.8569244169064D-01
     9  8.0000000000000D-02  6.6563687788976D-02  4.3901613923111D-01
    10  9.0000000000000D-02  7.4767592506300D-02  4.9163596102734D-01
    11  1.0000000000000D-01  8.2936274990856D-02  5.4346779055519D-01
    12  1.1000000000000D-01  9.1069030670871D-02  5.9442886377880D-01
    13  1.2000000000000D-01  9.9166112076149D-02  6.4443791239604D-01
    14  1.3000000000000D-01  1.0722879699594D-01  6.9341530486890D-01
    15  1.4000000000000D-01  1.1525944914891D-01  7.4128318502020D-01
    16  1.5000000000000D-01  1.2326157085554D-01  7.8796560797890D-01
    17  1.6000000000000D-01  1.3123984724587D-01  8.3338867325723D-01
    18  1.7000000000000D-01  1.3920018158080D-01  8.7748065474439D-01
    19  1.8000000000000D-01  1.4714972131253D-01  9.2017212740245D-01
    20  1.9000000000000D-01  1.5509687456013D-01  9.6139609045229D-01
    21  2.0000000000000D-01  1.6305131672778D-01  1.0010880868385D+00
    22  2.1000000000000D-01  1.7102398704731D-01  1.0391863187650D+00
    23  2.2000000000000D-01  1.7902707488193D-01  1.0756317590937D+00
    24  2.3000000000000D-01  1.8707399568477D-01  1.1103682584040D+00
    25  2.4000000000000D-01  1.9517935656348D-01  1.1433426475100D+00
    26  2.5000000000000D-01  2.0335891146094D-01  1.1745048352377D+00
    27  2.6000000000000D-01  2.1162950602072D-01  1.2038079012680D+00
    28  2.7000000000000D-01  2.2000901226582D-01  1.2312081838530D+00
    29  2.8000000000000D-01  2.2851625327782D-01  1.2566653622193D+00
    30  2.9000000000000D-01  2.3717091812291D-01  1.2801425334744D+00
    31  3.0000000000000D-01  2.4599346732948D-01  1.3016062838403D+00
    32  3.1000000000000D-01  2.5500502927908D-01  1.3210267540380D+00
    33  3.2000000000000D-01  2.6422728792904D-01  1.3383776986597D+00
    34  3.3000000000000D-01  2.7368236233970D-01  1.3536365393642D+00
    35  3.4000000000000D-01  2.8339267853185D-01  1.3667844117436D+00
    36  3.5000000000000D-01  2.9338083425139D-01  1.3778062057124D+00
    37  3.6000000000000D-01  3.0366945726630D-01  1.3866905992797D+00
    38  3.7000000000000D-01  3.1428105786748D-01  1.3934300855730D+00
    39  3.8000000000000D-01  3.2523787628793D-01  1.3980209929906D+00
    40  3.9000000000000D-01  3.3656172579493D-01  1.4004634983688D+00
    41  4.0000000000000D-01  3.4827383224691D-01  1.4007616330593D+00
    42  4.1000000000000D-01  3.6039467093963D-01  1.3989232818248D+00
    43  4.2000000000000D-01  3.7294380159610D-01  1.3949601744683D+00
    44  4.3000000000000D-01  3.8593970238019D-01  1.3888878701269D+00
    45  4.4000000000000D-01  3.9939960383541D-01  1.3807257341691D+00
    46  4.5000000000000D-01  4.1333932366745D-01  1.3704969076512D+00
    47  4.6000000000000D-01  4.2777310330198D-01  1.3582282692990D+00
    48  4.7000000000000D-01  4.4271344715746D-01  1.3439503899962D+00
    49  4.8000000000000D-01  4.5817096557604D-01  1.3276974797737D+00
    50  4.9000000000000D-01  4.7415422235497D-01  1.3095073273124D+00
    51  5.0000000000000D-01  4.9066958781439D-01  1.2894212319838D+00
    52  5.1000000000000D-01  5.0772109832713D-01  1.2674839284711D+00
    53  5.2000000000000D-01  5.2531032322007D-01  1.2437435040290D+00
    54  5.3000000000000D-01  5.4343623993635D-01  1.2182513084587D+00
    55  5.4000000000000D-01  5.6209511832222D-01  1.1910618568910D+00
    56  5.5000000000000D-01  5.8128041487242D-01  1.1622327254869D+00
    57  5.6000000000000D-01  6.0098267773274D-01  1.1318244401881D+00
    58  5.7000000000000D-01  6.2118946321967D-01  1.0999003586615D+00
    59  5.8000000000000D-01  6.4188526457247D-01  1.0665265456069D+00
    60  5.9000000000000D-01  6.6305145360525D-01  1.0317716416119D+00
    61  6.0000000000000D-01  6.8466623587420D-01  9.9570672575947D-01
    62  6.1000000000000D-01  7.0670461991874D-01  9.5840517221091D-01
    63  6.2000000000000D-01  7.2913840107547D-01  9.1994250100851D-01
    64  6.3000000000000D-01  7.5193616030016D-01  8.8039622335929D-01
    65  6.4000000000000D-01  7.7506327836652D-01  8.3984568168164D-01
    66  6.5000000000000D-01  7.9848196574055D-01  7.9837188471495D-01
    67  6.6000000000000D-01  8.2215130835712D-01  7.5605733801122D-01
    68  6.7000000000000D-01  8.4602732945104D-01  7.1298587014597D-01
    69  6.8000000000000D-01  8.7006306751788D-01  6.6924245500338D-01
    70  6.9000000000000D-01  8.9420867040164D-01  6.2491303050849D-01
    71  7.0000000000000D-01  9.1841150542758D-01  5.8008431419539D-01
    72  7.1000000000000D-01  9.4261628541707D-01  5.3484361601725D-01
    73  7.2000000000000D-01  9.6676521034143D-01  4.8927864881856D-01
    74  7.3000000000000D-01  9.9079812429036D-01  4.4347733690525D-01
    75  7.4000000000000D-01  1.0146526873498D+00  3.9752762316141D-01
    76  7.5000000000000D-01  1.0382645619049D+00  3.5151727517408D-01
    77  7.6000000000000D-01  1.0615676128035D+00  3.0553369083913D-01
    78  7.7000000000000D-01  1.0844941207407D+00  2.5966370393142D-01
    79  7.8000000000000D-01  1.1069750081469D+00  2.1399339013148D-01
    80  7.9000000000000D-01  1.1289400767910D+00  1.6860787400882D-01
    81  8.0000000000000D-01  1.1503182562394D+00  1.2359113746793D-01
    82  8.1000000000000D-01  1.1710378622440D+00  7.9025830168187D-02
    83  8.2000000000000D-01  1.1910268640697D+00  3.4993082431982D-02
    84  8.3000000000000D-01  1.2102131597121D+00 -8.4276788429509D-03
    85  8.4000000000000D-01  1.2285248578988D+00 -5.1158910750957D-02
    86  8.5000000000000D-01  1.2458905657206D+00 -9.3125130911320D-02
    87  8.6000000000000D-01  1.2622396806884D+00 -1.3425308945566D-01
    88  8.7000000000000D-01  1.2775026859750D+00 -1.7447193596415D-01
    89  8.8000000000000D-01  1.2916114475617D+00 -2.1371338085209D-01
    90  8.9000000000000D-01  1.3044995119831D+00 -2.5191185071674D-01
    91  9.0000000000000D-01  1.3161024033376D+00 -2.8900463716575D-01
    92  9.1000000000000D-01  1.3263579182142D+00 -3.2493203866030D-01
    93  9.2000000000000D-01  1.3352064171740D+00 -3.5963749492108D-01
    94  9.3000000000000D-01  1.3425911114210D+00 -3.9306771346105D-01
    95  9.4000000000000D-01  1.3484583432960D+00 -4.2517278782727D-01
    96  9.5000000000000D-01  1.3527578592376D+00 -4.5590630715362D-01
    97  9.6000000000000D-01  1.3554430738664D+00 -4.8522545664793D-01
    98  9.7000000000000D-01  1.3564713238714D+00 -5.1309110866036D-01
    99  9.8000000000000D-01  1.3558041104038D+00 -5.3946790400447D-01
   100  9.9000000000000D-01  1.3534073287173D+00 -5.6432432322925D-01
   101  1.0000000000000D+00  1.3492514838353D+00 -5.8763274756764D-01
   102  1.0100000000000D+00  1.3433118910699D+00 -6.0936950931711D-01
   103  1.0200000000000D+00  1.3355688602727D+00 -6.2951493143813D-01
   104  1.0300000000000D+00  1.3260078627525D+00 -6.4805335618792D-01
   105  1.0400000000000D+00  1.3146196798607D+00 -6.6497316264032D-01
   106  1.0500000000000D+00  1.3014005323155D+00 -6.8026677297678D-01
   107  1.0600000000000D+00  1.2863521894044D+00 -6.9393064746585D-01
   108  1.0700000000000D+00  1.2694820572904D+00 -7.0596526808769D-01
   109  1.0800000000000D+00  1.2508032457244D+00 -7.1637511079324D-01
   110  1.0900000000000D+00  1.2303346125573D+00 -7.2516860642536D-01
   111  1.1000000000000D+00  1.2081007855336D+00 -7.3235809036693D-01
   112  1.1100000000000D+00  1.1841321609371D+00 -7.3795974101339D-01
   113  1.1200000000000D+00  1.1584648787634D+00 -7.4199350721078D-01
   114  1.1300000000000D+00  1.1311407741865D+00 -7.4448302483122D-01
   115  1.1400000000000D+00  1.1022073051939D+00 -7.4545552270013D-01
   116  1.1500000000000D+00  1.0717174563426D+00 -7.4494171811475D-01
   117  1.1600000000000D+00  1.0397296187207D+00 -7.4297570224196D-01
   118  1.1700000000000D+00  1.0063074462814D+00 -7.3959481570876D-01
   119  1.1800000000000D+00  9.7151968882560D-01 -7.3483951473712D-01
   120  1.1900000000000D+00  9.3544000198891D-01 -7.2875322819897D-01
   121  1.2000000000000D+00  8.9814673472032D-01 -7.2138220600995D-01
   122  1.2100000000000D+00  8.5972269482188D-01 -7.1277535930439D-01
   123  1.2200000000000D+00  8.2025489319057D-01 -7.0298409285577D-01
   124  1.2300000000000D+00  7.7983426752687D-01 -6.9206213024326D-01
   125  1.2400000000000D+00  7.3855538635721D-01 -6.8006533228695D-01
   126  1.2500000000000D+00  6.9651613428088D-01 -6.6705150929115D-01
   127  1.2600000000000D+00  6.5381737943921D-01 -6.5308022765932D-01
   128  1.2700000000000D+00  6.1056262430606D-01 -6.3821261146719D-01
   129  1.2800000000000D+00  5.6685764093049D-01 -6.2251113958743D-01
   130  1.2900000000000D+00  5.2281009183346D-01 -6.0603943897697D-01
   131  1.3000000000000D+00  4.7852913785476D-01 -5.8886207475374D-01
   132  1.3100000000000D+00  4.3412503424784D-01 -5.7104433768895D-01
   133  1.3200000000000D+00  3.8970871638996D-01 -5.5265202975482D-01
   134  1.3300000000000D+00  3.4539137653257D-01 -5.3375124836812D-01
   135  1.3400000000000D+00  3.0128403300299D-01 -5.1440816996882D-01
   136  1.3500000000000D+00  2.5749709333763D-01 -4.9468883357914D-01
   137  1.3600000000000D+00  2.1413991282227D-01 -4.7465892496798D-01
   138  1.3700000000000D+00  1.7132034992445D-01 -4.5438356206228D-01
   139  1.3800000000000D+00  1.2914432012512D-01 -4.3392708221564D-01
   140  1.3900000000000D+00  8.7715349617877D-02 -4.1335283193556D-01
   141  1.4000000000000D+00  4.7134130390802D-02 -3.9272295968439D-01
   142  1.4100000000000D+00  7.4980781052598D-03 -3.7209821229389D-01
   143  1.4200000000000D+00 -3.1099105748410D-02 -3.5153773558394D-01
   144  1.4300000000000D+00 -6.8567866028811D-02 -3.3109887970297D-01
   145  1.4400000000000D+00 -1.0482321913038D-01 -3.1083700968447D-01
   146  1.4500000000000D+00 -1.3978516975064D-01 -2.9080532175862D-01
   147  1.4600000000000D+00 -1.7337911813117D-01 -2.7105466579305D-01
   148  1.4700000000000D+00 -2.0553625637873D-01 -2.5163337438309D-01
   149  1.4800000000000D+00 -2.3619395286226D-01 -2.3258709891384D-01
   150  1.4900000000000D+00 -2.6529612354481D-01 -2.1395865299126D-01
   151  1.5000000000000D+00 -2.9279358917499D-01 -1.9578786359788D-01
   152  1.5100000000000D+00 -3.1864441760878D-01 -1.7811143018163D-01
   153  1.5200000000000D+00 -3.4281425006901D-01 -1.6096279208431D-01
   154  1.5300000000000D+00 -3.6527661101080D-01 -1.4437200434522D-01
   155  1.5400000000000D+00 -3.8601320043104D-01 -1.2836562227047D-01
   156  1.5500000000000D+00 -4.0501417558918D-01 -1.1296659280185D-01
   157  1.5600000000000D+00 -4.2227837929864D-01 -9.8194164311668D-02
   158  1.5700000000000D+00 -4.3781366581391D-01 -8.4063773489972D-02
   159  1.5800000000000D+00 -4.5163687679085D-01 -7.0587032819220D-02
   160  1.5900000000000D+00 -4.6377410644016D-01 -5.7771639354926D-02
   161  1.6000000000000D+00 -4.7426201963810D-01 -4.5621006406876D-02
   162  1.6100000000000D+00 -4.8314576770511D-01 -3.4134819043885D-02
   163  1.6200000000000D+00 -4.9047609942448D-01 -2.3309804150335D-02
   164  1.6300000000000D+00 -4.9630711305376D-01 -1.3140378243983D-02
   165  1.6400000000000D+00 -5.0069284332116D-01 -3.6196215873477D-03
   166  1.6500000000000D+00 -5.0368767546491D-01  5.2607778478237D-03
   167  1.6600000000000D+00 -5.0534710703860D-01  1.3510660189242D-02
   168  1.6700000000000D+00 -5.0572716393325D-01  2.1141180595166D-02
   169  1.6800000000000D+00 -5.0488453833244D-01  2.8164785123596D-02
   170  1.6900000000000D+00 -5.0287647154381D-01  3.4595119630807D-02
   171  1.7000000000000D+00 -4.9976069759399D-01  4.0446955300367D-02
   172  1.7100000000000D+00 -4.9559536509258D-01  4.5736108972019D-02
   173  1.7200000000000D+00 -4.9043895033533D-01  5.0479361786370D-02
   174  1.7300000000000D+00 -4.8435016256812D-01  5.4694376507961D-02
   175  1.7400000000000D+00 -4.7738784195584D-01  5.8399613712580D-02
   176  1.7500000000000D+00 -4.6961085201008D-01  6.1614247458411D-02
   177  1.7600000000000D+00 -4.6107796711205D-01  6.4358080633420D-02
   178  1.7700000000000D+00 -4.5184775396131D-01  6.6651459760353D-02
   179  1.7800000000000D+00 -4.4197844935535D-01  6.8515189955464D-02
   180  1.7900000000000D+00 -4.3152783613229D-01  6.9970450667135D-02
   181  1.8000000000000D+00 -4.2055311682806D-01  7.1038712071474D-02
   182  1.8100000000000D+00 -4.0911078682527D-01  7.1741652735708D-02
   183  1.8200000000000D+00 -3.9725650784411D-01  7.2101078801499D-02
   184  1.8300000000000D+00 -3.8504498127287D-01  7.2138844600192D-02
   185  1.8400000000000D+00 -3.7252982210558D-01  7.1876774954262D-02
   186  1.8500000000000D+00 -3.5976343560315D-01  7.1336589797464D-02
   187  1.8600000000000D+00 -3.4679689777452D-01  7.0539831495165D-02
   188  1.8700000000000D+00 -3.3367983894092D-01  6.9507794613182D-02
   189  1.8800000000000D+00 -3.2046033242497D-01  6.8261458843444D-02
   190  1.8900000000000D+00 -3.0718478799938D-01  6.6821424876683D-02
   191  1.9000000000000D+00 -2.9389785115996D-01  6.5207853671042D-02
   192  1.9100000000000D+00 -2.8064230818419D-01  6.3440408991204D-02
   193  1.9200000000000D+00 -2.6745899882305D-01  6.1538203862454D-02
   194  1.9300000000000D+00 -2.5438673612557D-01  5.9519750727058D-02
   195  1.9400000000000D+00 -2.4146223405423D-01  5.7402915512417D-02
   196  1.9500000000000D+00 -2.2872004366336D-01  5.5204875855767D-02
   197  1.9600000000000D+00 -2.1619249719246D-01  5.2942083205871D-02
   198  1.9700000000000D+00 -2.0390966207608D-01  5.0630229492269D-02
   199  1.9800000000000D+00 -1.9189930298389D-01  4.8284217647682D-02
   200  1.9900000000000D+00 -1.8018685418357D-01  4.5918136767315D-02
   201  2.0000000000000D+00 -1.6879540075484D-01  4.3545241347068D-02
   202  2.0100000000000D+00 -1.5774566947800D-01  4.1177934856209D-02
   203  2.0200000000000D+00 -1.4705602979348D-01  3.8827757749218D-02
   204  2.0300000000000D+00 -1.3674250328571D-01  3.6505379341455D-02
   205  2.0400000000000D+00 -1.2681878400531D-01  3.4220594318038D-02
   206  2.0500000000000D+00 -1.1729626690390D-01  3.1982322897811D-02
   207  2.0600000000000D+00 -1.0818408622715D-01  2.9798615252107D-02
   208  2.0700000000000D+00 -9.9489162724946D-02  2.7676659751979D-02
   209  2.0800000000000D+00 -9.1216258969792D-02  2.5622794766397D-02
   210  2.0900000000000D+00 -8.3368044059528D-02  2.3642524406001D-02
   211  2.1000000000000D+00 -7.5945165122969D-02  2.1740537307070D-02
   212  2.1100000000000D+00 -6.8946327275496D-02  1.9920728966884D-02
   213  2.1200000000000D+00 -6.2368380364360D-02  1.8186227040429D-02
   214  2.1300000000000D+00 -5.6206411992223D-02  1.6539419390138D-02
   215  2.1400000000000D+00 -5.0453847426041D-02  1.4981985042666D-02
   216  2.1500000000000D+00 -4.5102554191919D-02  1.3514927301837D-02
   217  2.1600000000000D+00 -4.0142952223628D-02  1.2138609244435D-02
   218  2.1700000000000D+00 -3.5564128244870D-02  1.0852791136959D-02
   219  2.1800000000000D+00 -3.1353953583292D-02  9.6566694780817D-03
   220  2.1900000000000D+00 -2.7499205558915D-02  8.5489176412896D-03
   221  2.2000000000000D+00 -2.3985690949092D-02  7.5277276350672D-03
   222  2.2100000000000D+00 -2.0798371339954D-02  6.5908528403742D-03
   223  2.2200000000000D+00 -1.7921489575516D-02  5.7356514347393D-03
   224  2.2300000000000D+00 -1.5338696696011D-02  4.9591303134742D-03
   225  2.2400000000000D+00 -1.3033178400685D-02  4.2579890683423D-03
   226  2.2500000000000D+00 -1.0987780777935D-02  3.6286639889194D-03
   227  2.2600000000000D+00 -9.1851345110229D-03  3.0673717650875D-03
   228  2.2700000000000D+00 -7.6077763438151D-03  2.5701524134845D-03
   229  2.2800000000000D+00 -6.2382684060869D-03  2.1329116898548D-03
   230  2.2900000000000D+00 -5.0593134711701D-03  1.7514622351945D-03
   231  2.3000000000000D+00 -4.0538658699187D-03  1.4215633606407D-03
   232  2.3100000000000D+00 -3.2052389614482D-03  1.1389598167854D-03
   233  2.3200000000000D+00 -2.4972057230287D-03  8.9941824764904D-04
   234  2.3300000000000D+00 -1.9140943852016D-03  6.9876205903803D-04
   235  2.3400000000000D+00 -1.4408786929375D-03  5.3290453912387D-04
   236  2.3500000000000D+00 -1.0632594201929D-03  3.9787897919775D-04
   237  2.3600000000000D+00 -7.6774055455345D-04  2.8986705859074D-04
   238  2.3700000000000D+00 -5.4169783525011D-04  2.0522463482039D-04
   239  2.3800000000000D+00 -3.7348115960966D-04  1.4050497871962D-04
   240  2.3900000000000D+00 -2.5233357165952D-04  9.2477291754198D-05
   241  2.4000000000000D+00 -1.6848936408892D-04  5.8144863512215D-05
   242  2.4100000000000D+00 -1.1297103276517D-04  3.4731137894196D-05
   243  2.4200000000000D+00 -7.8919822710596D-05  1.9796476755364D-05
   244  2.4300000000000D+00 -6.0521931122594D-05  1.1162666763337D-05
   245  2.4400000000000D+00 -5.3765008988559D-05  7.0441995580101D-06
   246  2.4500000000000D+00 -5.0972898306176D-05  5.4150822416173D-06
   247  2.4600000000000D+00 -4.5994673321251D-05  4.6510107405101D-06
   248  2.4700000000000D+00 -3.2458707060566D-05  3.2957451359290D-06
   249  2.4800000000000D+00 -1.5601582979317D-05  1.6207513919976D-06
   250  2.4900000000000D+00 -6.7530617190402D-07  7.2081461809103D-08
   251  2.5000000000000D+00  4.4755856516725D-06 -4.3964833004424D-07
   252  2.5100000000000D+00  3.7480033078003D-06 -3.7011842786447D-07
   253  2.5200000000000D+00  1.7142258683340D-07 -1.7026322782133D-08
   254  2.5300000000000D+00 -9.4165543636874D-07  8.4806333665874D-08
   255  2.5400000000000D+00 -8.8150329139410D-07  7.8942545120514D-08
   256  2.5500000000000D+00 -6.6169139542193D-08  5.8975893584577D-09
   257  2.5600000000000D+00  1.1082641747620D-07 -1.1215619949842D-08
   258  2.5700000000000D+00  1.1362611231737D-07 -1.1498948726762D-08
   259  2.5800000000000D+00  1.5996058060774D-08 -1.6187991274172D-09
   260  2.5900000000000D+00  0.0000000000000D+00  0.0000000000000D+00
   261  2.6000000000000D+00  0.0000000000000D+00  0.0000000000000D+00
   262  2.6100000000000D+00  0.0000000000000D+00  0.0000000000000D+00
   263  2.6200000000000D+00  0.0000000000000D+00  0.0000000000000D+00
   264  2.6300000000000D+00  0.0000000000000D+00  0.0000000000000D+00
   265  2.6400000000000D+00  0.0000000000000D+00  0.0000000000000D+00
   266  2.6500000000000D+00  0.0000000000000D+00  0.0000000000000D+00
   267  2.6600000000000D+00  0.0000000000000D+00  0.0000000000000D+00
   268  2.6700000000000D+00  0.0000000000000D+00  0.0000000000000D+00
   269  2.6800000000000D+00  0.0000000000000D+00  0.0000000000000D+00
   270  2.6900000000000D+00  0.0000000000000D+00  0.0000000000000D+00
   271  2.7000000000000D+00  0.0000000000000D+00  0.0000000000000D+00
   272  2.7100000000000D+00  0.0000000000000D+00  0.0000000000000D+00
   273  2.7200000000000D+00  0.0000000000000D+00  0.0000000000000D+00
   274  2.7300000000000D+00  0.0000000000000D+00  0.0000000000000D+00
   275  2.7400000000000D+00  0.0000000000000D+00  0.0000000000000D+00
   276  2.7500000000000D+00  0.0000000000000D+00  0.0000000000000D+00
   277  2.7600000000000D+00  0.0000000000000D+00  0.0000000000000D+00
   278  2.7700000000000D+00  0.0000000000000D+00  0.0000000000000D+00
   279  2.7800000000000D+00  0.0000000000000D+00  0.0000000000000D+00
   280  2.7900000000000D+00  0.0000000000000D+00  0.0000000000000D+00
   281  2.8000000000000D+00  0.0000000000000D+00  0.0000000000000D+00
   282  2.8100000000000D+00  0.0000000000000D+00  0.0000000000000D+00
   283  2.8200000000000D+00  0.0000000000000D+00  0.0000000000000D+00
   284  2.8300000000000D+00  0.0000000000000D+00  0.0000000000000D+00
   285  2.8400000000000D+00  0.0000000000000D+00  0.0000000000000D+00
   286  2.8500000000000D+00  0.0000000000000D+00  0.0000000000000D+00
   287  2.8600000000000D+00  0.0000000000000D+00  0.0000000000000D+00
   288  2.8700000000000D+00  0.0000000000000D+00  0.0000000000000D+00
   289  2.8800000000000D+00  0.0000000000000D+00  0.0000000000000D+00
   290  2.8900000000000D+00  0.0000000000000D+00  0.0000000000000D+00
   291  2.9000000000000D+00  0.0000000000000D+00  0.0000000000000D+00
   292  2.9100000000000D+00  0.0000000000000D+00  0.0000000000000D+00
   293  2.9200000000000D+00  0.0000000000000D+00  0.0000000000000D+00
   294  2.9300000000000D+00  0.0000000000000D+00  0.0000000000000D+00
   295  2.9400000000000D+00  0.0000000000000D+00  0.0000000000000D+00
   296  2.9500000000000D+00  0.0000000000000D+00  0.0000000000000D+00
   297  2.9600000000000D+00  0.0000000000000D+00  0.0000000000000D+00
   298  2.9700000000000D+00  0.0000000000000D+00  0.0000000000000D+00
   299  2.9800000000000D+00  0.0000000000000D+00  0.0000000000000D+00
   300  2.9900000000000D+00  0.0000000000000D+00  0.0000000000000D+00
   301  3.0000000000000D+00  0.0000000000000D+00  0.0000000000000D+00
   302  3.0100000000000D+00  0.0000000000000D+00  0.0000000000000D+00
   303  3.0200000000000D+00  0.0000000000000D+00  0.0000000000000D+00
   304  3.0300000000000D+00  0.0000000000000D+00  0.0000000000000D+00
   305  3.0400000000000D+00  0.0000000000000D+00  0.0000000000000D+00
   306  3.0500000000000D+00  0.0000000000000D+00  0.0000000000000D+00
   307  3.0600000000000D+00  0.0000000000000D+00  0.0000000000000D+00
   308  3.0700000000000D+00  0.0000000000000D+00  0.0000000000000D+00
   309  3.0800000000000D+00  0.0000000000000D+00  0.0000000000000D+00
   310  3.0900000000000D+00  0.0000000000000D+00  0.0000000000000D+00
   311  3.1000000000000D+00  0.0000000000000D+00  0.0000000000000D+00
   312  3.1100000000000D+00  0.0000000000000D+00  0.0000000000000D+00
   313  3.1200000000000D+00  0.0000000000000D+00  0.0000000000000D+00
   314  3.1300000000000D+00  0.0000000000000D+00  0.0000000000000D+00
   315  3.1400000000000D+00  0.0000000000000D+00  0.0000000000000D+00
   316  3.1500000000000D+00  0.0000000000000D+00  0.0000000000000D+00
   317  3.1600000000000D+00  0.0000000000000D+00  0.0000000000000D+00
   318  3.1700000000000D+00  0.0000000000000D+00  0.0000000000000D+00
   319  3.1800000000000D+00  0.0000000000000D+00  0.0000000000000D+00
   320  3.1900000000000D+00  0.0000000000000D+00  0.0000000000000D+00
   321  3.2000000000000D+00  0.0000000000000D+00  0.0000000000000D+00
   322  3.2100000000000D+00  0.0000000000000D+00  0.0000000000000D+00
   323  3.2200000000000D+00  0.0000000000000D+00  0.0000000000000D+00
   324  3.2300000000000D+00  0.0000000000000D+00  0.0000000000000D+00
   325  3.2400000000000D+00  0.0000000000000D+00  0.0000000000000D+00
   326  3.2500000000000D+00  0.0000000000000D+00  0.0000000000000D+00
   327  3.2600000000000D+00  0.0000000000000D+00  0.0000000000000D+00
   328  3.2700000000000D+00  0.0000000000000D+00  0.0000000000000D+00
   329  3.2800000000000D+00  0.0000000000000D+00  0.0000000000000D+00
   330  3.2900000000000D+00  0.0000000000000D+00  0.0000000000000D+00
   331  3.3000000000000D+00  0.0000000000000D+00  0.0000000000000D+00
   332  3.3100000000000D+00  0.0000000000000D+00  0.0000000000000D+00
   333  3.3200000000000D+00  0.0000000000000D+00  0.0000000000000D+00
   334  3.3300000000000D+00  0.0000000000000D+00  0.0000000000000D+00
   335  3.3400000000000D+00  0.0000000000000D+00  0.0000000000000D+00
   336  3.3500000000000D+00  0.0000000000000D+00  0.0000000000000D+00
   337  3.3600000000000D+00  0.0000000000000D+00  0.0000000000000D+00
   338  3.3700000000000D+00  0.0000000000000D+00  0.0000000000000D+00
   339  3.3800000000000D+00  0.0000000000000D+00  0.0000000000000D+00
   340  3.3900000000000D+00  0.0000000000000D+00  0.0000000000000D+00
   341  3.4000000000000D+00  0.0000000000000D+00  0.0000000000000D+00
   342  3.4100000000000D+00  0.0000000000000D+00  0.0000000000000D+00
   343  3.4200000000000D+00  0.0000000000000D+00  0.0000000000000D+00
   344  3.4300000000000D+00  0.0000000000000D+00  0.0000000000000D+00
   345  3.4400000000000D+00  0.0000000000000D+00  0.0000000000000D+00
   346  3.4500000000000D+00  0.0000000000000D+00  0.0000000000000D+00
   347  3.4600000000000D+00  0.0000000000000D+00  0.0000000000000D+00
   348  3.4700000000000D+00  0.0000000000000D+00  0.0000000000000D+00
   349  3.4800000000000D+00  0.0000000000000D+00  0.0000000000000D+00
   350  3.4900000000000D+00  0.0000000000000D+00  0.0000000000000D+00
   351  3.5000000000000D+00  0.0000000000000D+00  0.0000000000000D+00
   352  3.5100000000000D+00  0.0000000000000D+00  0.0000000000000D+00
   353  3.5200000000000D+00  0.0000000000000D+00  0.0000000000000D+00
   354  3.5300000000000D+00  0.0000000000000D+00  0.0000000000000D+00
   355  3.5400000000000D+00  0.0000000000000D+00  0.0000000000000D+00
   356  3.5500000000000D+00  0.0000000000000D+00  0.0000000000000D+00
   357  3.5600000000000D+00  0.0000000000000D+00  0.0000000000000D+00
   358  3.5700000000000D+00  0.0000000000000D+00  0.0000000000000D+00
   359  3.5800000000000D+00  0.0000000000000D+00  0.0000000000000D+00
   360  3.5900000000000D+00  0.0000000000000D+00  0.0000000000000D+00
   361  3.6000000000000D+00  0.0000000000000D+00  0.0000000000000D+00
   362  3.6100000000000D+00  0.0000000000000D+00  0.0000000000000D+00
   363  3.6200000000000D+00  0.0000000000000D+00  0.0000000000000D+00
   364  3.6300000000000D+00  0.0000000000000D+00  0.0000000000000D+00
   365  3.6400000000000D+00  0.0000000000000D+00  0.0000000000000D+00
   366  3.6500000000000D+00  0.0000000000000D+00  0.0000000000000D+00
   367  3.6600000000000D+00  0.0000000000000D+00  0.0000000000000D+00
   368  3.6700000000000D+00  0.0000000000000D+00  0.0000000000000D+00
   369  3.6800000000000D+00  0.0000000000000D+00  0.0000000000000D+00
   370  3.6900000000000D+00  0.0000000000000D+00  0.0000000000000D+00
   371  3.7000000000000D+00  0.0000000000000D+00  0.0000000000000D+00
   372  3.7100000000000D+00  0.0000000000000D+00  0.0000000000000D+00
   373  3.7200000000000D+00  0.0000000000000D+00  0.0000000000000D+00
   374  3.7300000000000D+00  0.0000000000000D+00  0.0000000000000D+00
   375  3.7400000000000D+00  0.0000000000000D+00  0.0000000000000D+00
   376  3.7500000000000D+00  0.0000000000000D+00  0.0000000000000D+00
   377  3.7600000000000D+00  0.0000000000000D+00  0.0000000000000D+00
   378  3.7700000000000D+00  0.0000000000000D+00  0.0000000000000D+00
   379  3.7800000000000D+00  0.0000000000000D+00  0.0000000000000D+00
   380  3.7900000000000D+00  0.0000000000000D+00  0.0000000000000D+00
   381  3.8000000000000D+00  0.0000000000000D+00  0.0000000000000D+00
   382  3.8100000000000D+00  0.0000000000000D+00  0.0000000000000D+00
   383  3.8200000000000D+00  0.0000000000000D+00  0.0000000000000D+00
   384  3.8300000000000D+00  0.0000000000000D+00  0.0000000000000D+00
   385  3.8400000000000D+00  0.0000000000000D+00  0.0000000000000D+00
   386  3.8500000000000D+00  0.0000000000000D+00  0.0000000000000D+00
   387  3.8600000000000D+00  0.0000000000000D+00  0.0000000000000D+00
   388  3.8700000000000D+00  0.0000000000000D+00  0.0000000000000D+00
   389  3.8800000000000D+00  0.0000000000000D+00  0.0000000000000D+00
   390  3.8900000000000D+00  0.0000000000000D+00  0.0000000000000D+00
   391  3.9000000000000D+00  0.0000000000000D+00  0.0000000000000D+00
   392  3.9100000000000D+00  0.0000000000000D+00  0.0000000000000D+00
   393  3.9200000000000D+00  0.0000000000000D+00  0.0000000000000D+00
   394  3.9300000000000D+00  0.0000000000000D+00  0.0000000000000D+00
   395  3.9400000000000D+00  0.0000000000000D+00  0.0000000000000D+00
   396  3.9500000000000D+00  0.0000000000000D+00  0.0000000000000D+00
   397  3.9600000000000D+00  0.0000000000000D+00  0.0000000000000D+00
   398  3.9700000000000D+00  0.0000000000000D+00  0.0000000000000D+00
   399  3.9800000000000D+00  0.0000000000000D+00  0.0000000000000D+00
   400  3.9900000000000D+00  0.0000000000000D+00  0.0000000000000D+00
   401  4.0000000000000D+00  0.0000000000000D+00  0.0000000000000D+00
   402  4.0100000000000D+00  0.0000000000000D+00  0.0000000000000D+00
   403  4.0200000000000D+00  0.0000000000000D+00  0.0000000000000D+00
   404  4.0300000000000D+00  0.0000000000000D+00  0.0000000000000D+00
   405  4.0400000000000D+00  0.0000000000000D+00  0.0000000000000D+00
   406  4.0500000000000D+00  0.0000000000000D+00  0.0000000000000D+00
   407  4.0600000000000D+00  0.0000000000000D+00  0.0000000000000D+00
   408  4.0700000000000D+00  0.0000000000000D+00  0.0000000000000D+00
   409  4.0800000000000D+00  0.0000000000000D+00  0.0000000000000D+00
   410  4.0900000000000D+00  0.0000000000000D+00  0.0000000000000D+00
   411  4.1000000000000D+00  0.0000000000000D+00  0.0000000000000D+00
   412  4.1100000000000D+00  0.0000000000000D+00  0.0000000000000D+00
   413  4.1200000000000D+00  0.0000000000000D+00  0.0000000000000D+00
   414  4.1300000000000D+00  0.0000000000000D+00  0.0000000000000D+00
   415  4.1400000000000D+00  0.0000000000000D+00  0.0000000000000D+00
   416  4.1500000000000D+00  0.0000000000000D+00  0.0000000000000D+00
   417  4.1600000000000D+00  0.0000000000000D+00  0.0000000000000D+00
   418  4.1700000000000D+00  0.0000000000000D+00  0.0000000000000D+00
   419  4.1800000000000D+00  0.0000000000000D+00  0.0000000000000D+00
   420  4.1900000000000D+00  0.0000000000000D+00  0.0000000000000D+00
   421  4.2000000000000D+00  0.0000000000000D+00  0.0000000000000D+00
   422  4.2100000000000D+00  0.0000000000000D+00  0.0000000000000D+00