Au    ONCVPSP-3.3.1  r_core=   2.46102   2.46102   2.18429   3.16160
     79.0000     19.0000      210905    zatom,zion,pspd
     8 -116133   3     4   600     0    pspcod,pspxc,lmax,lloc,mmax,r2well
  5.99000000  0.00000000  0.00000000    rchrg fchrg qchrg
     2     2     2     2     0    nproj
     1     1           extension_switch
   0                         4.0386453571802D+00  5.0484946994907D-01
     1  0.0000000000000D+00 -2.4197310821705D-13 -1.5959455978987D-11
     2  1.0000000000000D-02  5.5844253121959D-02  8.7781504874255D-03
     3  2.0000000000000D-02  1.1159865696875D-01  1.7549665976568D-02
     4  3.0000000000000D-02  1.6717351597856D-01  2.6308024745563D-02
     5  4.0000000000000D-02  2.2247944179390D-01  3.5046930843888D-02
     6  5.0000000000000D-02  2.7742750630783D-01  4.3760425028334D-02
     7  6.0000000000000D-02  3.3192939404319D-01  5.2442993370620D-02
     8  7.0000000000000D-02  3.8589755364278D-01  6.1089672779341D-02
     9  8.0000000000000D-02  4.3924534824874D-01  6.9696152694844D-02
    10  9.0000000000000D-02  4.9188720454939D-01  7.8258872235592D-02
    11  1.0000000000000D-01  5.4373876027256D-01  8.6775112098123D-02
    12  1.1000000000000D-01  5.9471700990464D-01  9.5243080540067D-02
    13  1.2000000000000D-01  6.4474044841502D-01  1.0366199280666D-01
    14  1.3000000000000D-01  6.9372921276664D-01  1.1203214339528D-01
    15  1.4000000000000D-01  7.4160522099361D-01  1.2035497059048D-01
    16  1.5000000000000D-01  7.8829230862806D-01  1.2863311274243D-01
    17  1.6000000000000D-01  8.3371636225932D-01  1.3687045580536D-01
    18  1.7000000000000D-01  8.7780545000959D-01  1.4507217169936D-01
    19  1.8000000000000D-01  9.2048994871160D-01  1.5324474710738D-01
    20  1.9000000000000D-01  9.6170266757534D-01  1.6139600237092D-01
    21  2.0000000000000D-01  1.0013789681325D+00  1.6953510020111D-01
    22  2.1000000000000D-01  1.0394568802493D+00  1.7767254397737D-01
    23  2.2000000000000D-01  1.0758772140001D+00  1.8582016546236D-01
    24  2.3000000000000D-01  1.1105836671976D+00  1.9399110182058D-01
    25  2.4000000000000D-01  1.1435229283766D+00  2.0219976188692D-01
    26  2.5000000000000D-01  1.1746447750323D+00  2.1046178169195D-01
    27  2.6000000000000D-01  1.2039021669176D+00  2.1879396931103D-01
    28  2.7000000000000D-01  1.2312513342061D+00  2.2721423916565D-01
    29  2.8000000000000D-01  1.2566518603331D+00  2.3574153596587D-01
    30  2.9000000000000D-01  1.2800667593297D+00  2.4439574854365D-01
    31  3.0000000000000D-01  1.3014625474710D+00  2.5319761388646D-01
    32  3.1000000000000D-01  1.3208093090644D+00  2.6216861173986D-01
    33  3.2000000000000D-01  1.3380807562087D+00  2.7133085020508D-01
    34  3.3000000000000D-01  1.3532542823610D+00  2.8070694281451D-01
    35  3.4000000000000D-01  1.3663110095568D+00  2.9031987762176D-01
    36  3.5000000000000D-01  1.3772358291329D+00  3.0019287889611D-01
    37  3.6000000000000D-01  1.3860174358113D+00  3.1034926206041D-01
    38  3.7000000000000D-01  1.3926483550122D+00  3.2081228255950D-01
    39  3.8000000000000D-01  1.3971249632695D+00  3.3160497939056D-01
    40  3.9000000000000D-01  1.3994475016347D+00  3.4275001406781D-01
    41  4.0000000000000D-01  1.3996200819622D+00  3.5426950583268D-01
    42  4.1000000000000D-01  1.3976506859813D+00  3.6618486395405D-01
    43  4.2000000000000D-01  1.3935511570699D+00  3.7851661799450D-01
    44  4.3000000000000D-01  1.3873371846574D+00  3.9128424694449D-01
    45  4.4000000000000D-01  1.3790282811954D+00  4.0450600814874D-01
    46  4.5000000000000D-01  1.3686477516491D+00  4.1819876696743D-01
    47  4.6000000000000D-01  1.3562226554736D+00  4.3237782812746D-01
    48  4.7000000000000D-01  1.3417837610554D+00  4.4705676972843D-01
    49  4.8000000000000D-01  1.3253654926121D+00  4.6224728087155D-01
    50  4.9000000000000D-01  1.3070058695598D+00  4.7795900387899D-01
    51  5.0000000000000D-01  1.2867464383723D+00  4.9419938206513D-01
    52  5.1000000000000D-01  1.2646321969731D+00  5.1097351401079D-01
    53  5.2000000000000D-01  1.2407115117180D+00  5.2828401527521D-01
    54  5.3000000000000D-01  1.2150360270413D+00  5.4613088846040D-01
    55  5.4000000000000D-01  1.1876605678601D+00  5.6451140251635D-01
    56  5.5000000000000D-01  1.1586430348447D+00  5.8341998214520D-01
    57  5.6000000000000D-01  1.1280442926853D+00  6.0284810812719D-01
    58  5.7000000000000D-01  1.0959280515005D+00  6.2278422935085D-01
    59  5.8000000000000D-01  1.0623607415560D+00  6.4321368728535D-01
    60  5.9000000000000D-01  1.0274113814770D+00  6.6411865358411D-01
    61  6.0000000000000D-01  9.9115144015904D-01  6.8547808145459D-01
    62  6.1000000000000D-01  9.5365469260333D-01  7.0726767137294D-01
    63  6.2000000000000D-01  9.1499706991773D-01  7.2945985165987D-01
    64  6.3000000000000D-01  8.7525650374808D-01  7.5202377436992D-01
    65  6.4000000000000D-01  8.3451276542151D-01  7.7492532687809D-01
    66  6.5000000000000D-01  7.9284730010344D-01  7.9812715947639D-01
    67  6.6000000000000D-01  7.5034305628868D-01  8.2158872921941D-01
    68  6.7000000000000D-01  7.0708431096545D-01  8.4526636018148D-01
    69  6.8000000000000D-01  6.6315649080962D-01  8.6911332020984D-01
    70  6.9000000000000D-01  6.1864598978363D-01  8.9307991417823D-01
    71  7.0000000000000D-01  5.7363998353201D-01  9.1711359366414D-01
    72  7.1000000000000D-01  5.2822624098155D-01  9.4115908289090D-01
    73  7.2000000000000D-01  4.8249293356974D-01  9.6515852069265D-01
    74  7.3000000000000D-01  4.3652844254019D-01  9.8905161817806D-01
    75  7.4000000000000D-01  3.9042116475693D-01  1.0127758316856D+00
    76  7.5000000000000D-01  3.4425931750301D-01  1.0362665505417D+00
    77  7.6000000000000D-01  2.9813074273990D-01  1.0594572990528D+00
    78  7.7000000000000D-01  2.5212271131505D-01  1.0822799520820D+00
    79  7.8000000000000D-01  2.0632172761409D-01  1.1046649634855D+00
    80  7.9000000000000D-01  1.6081333516184D-01  1.1265416066078D+00
    81  8.0000000000000D-01  1.1568192368327D-01  1.1478382259640D+00
    82  8.1000000000000D-01  7.1010538139729D-02  1.1684824991675D+00
    83  8.2000000000000D-01  2.6880690260042D-02  1.1884017080970D+00
    84  8.3000000000000D-01 -1.6627826912939D-02  1.2075230182360D+00
    85  8.4000000000000D-01 -5.9437120938995D-02  1.2257737650586D+00
    86  8.5000000000000D-01 -1.0147137784114D-01  1.2430817462868D+00
    87  8.6000000000000D-01 -1.4265703539401D-01  1.2593755187936D+00
    88  8.7000000000000D-01 -1.8292295132915D-01  1.2745846988869D+00
    89  8.8000000000000D-01 -2.2220056595337D-01  1.2886402646702D+00
    90  8.9000000000000D-01 -2.6042405868518D-01  1.3014748591483D+00
    91  9.0000000000000D-01 -2.9753049802491D-01  1.3130230927178D+00
    92  9.1000000000000D-01 -3.3345998448697D-01  1.3232218436674D+00
    93  9.2000000000000D-01 -3.6815578603702D-01  1.3320105552981D+00
    94  9.3000000000000D-01 -4.0156446559313D-01  1.3393315282690D+00
    95  9.4000000000000D-01 -4.3363600016822D-01  1.3451302067750D+00
    96  9.5000000000000D-01 -4.6432389125103D-01  1.3493554571704D+00
    97  9.6000000000000D-01 -4.9358526604452D-01  1.3519598376667D+00
    98  9.7000000000000D-01 -5.2138096920412D-01  1.3528998577533D+00
    99  9.8000000000000D-01 -5.4767564474326D-01  1.3521362260185D+00
   100  9.9000000000000D-01 -5.7243780780037D-01  1.3496340850824D+00
   101  1.0000000000000D+00 -5.9563990598931D-01  1.3453632323907D+00
   102  1.0100000000000D+00 -6.1725837008547D-01  1.3392983256719D+00
   103  1.0200000000000D+00 -6.3727365383007D-01  1.3314190719066D+00
   104  1.0300000000000D+00 -6.5567026266758D-01  1.3217103987207D+00
   105  1.0400000000000D+00 -6.7243677126432D-01  1.3101626071785D+00
   106  1.0500000000000D+00 -6.8756582969146D-01  1.2967715050224D+00
   107  1.0600000000000D+00 -7.0105415818779D-01  1.2815385194753D+00
   108  1.0700000000000D+00 -7.1290253045766D-01  1.2644707888125D+00
   109  1.0800000000000D+00 -7.2311574549250D-01  1.2455812319831D+00
   110  1.0900000000000D+00 -7.3170258794291D-01  1.2248885956581D+00
   111  1.1000000000000D+00 -7.3867577710590D-01  1.2024174781694D+00
   112  1.1100000000000D+00 -7.4405190462518D-01  1.1781983298954D+00
   113  1.1200000000000D+00 -7.4785136104605D-01  1.1522674297556D+00
   114  1.1300000000000D+00 -7.5009825139801D-01  1.1246668375681D+00
   115  1.1400000000000D+00 -7.5082030002076D-01  1.0954443221391D+00
   116  1.1500000000000D+00 -7.5004874487512D-01  1.0646532650227D+00
   117  1.1600000000000D+00 -7.4781822162912D-01  1.0323525400380D+00
   118  1.1700000000000D+00 -7.4416663783535D-01  9.9860636869887D-01
   119  1.1800000000000D+00 -7.3913503755433D-01  9.6348415183794D-01
   120  1.1900000000000D+00 -7.3276745680315D-01  9.2706027777548D-01
   121  1.2000000000000D+00 -7.2511077025196D-01  8.8941390752615D-01
   122  1.2100000000000D+00 -7.1621452961483D-01  8.5062873761627D-01
   123  1.2200000000000D+00 -7.0613079420388D-01  8.1079274115876D-01
   124  1.2300000000000D+00 -6.9491395415215D-01  7.6999788795874D-01
   125  1.2400000000000D+00 -6.8262054683291D-01  7.2833984450736D-01
   126  1.2500000000000D+00 -6.6930906702055D-01  6.8591765478567D-01
   127  1.2600000000000D+00 -6.5503977136179D-01  6.4283340289030D-01
   128  1.2700000000000D+00 -6.3987447775033D-01  5.9919185859508D-01
   129  1.2800000000000D+00 -6.2387636020417D-01  5.5510010699665D-01
   130  1.2900000000000D+00 -6.0710973986296D-01  5.1066716346351D-01
   131  1.3000000000000D+00 -5.8963987273898D-01  4.6600357520526D-01
   132  1.3100000000000D+00 -5.7153273485422D-01  4.2122101078011D-01
   133  1.3200000000000D+00 -5.5285480541044D-01  3.7643183893024D-01
   134  1.3300000000000D+00 -5.3367284863910D-01  3.3174869819371D-01
   135  1.3400000000000D+00 -5.1405369497772D-01  2.8728405872739D-01
   136  1.3500000000000D+00 -4.9406402222439D-01  2.4314977784669D-01
   137  1.3600000000000D+00 -4.7377013730243D-01  1.9945665078299D-01
   138  1.3700000000000D+00 -4.5323775928369D-01  1.5631395817004D-01
   139  1.3800000000000D+00 -4.3253180428710D-01  1.1382901179326D-01
   140  1.3900000000000D+00 -4.1171617286079D-01  7.2106700096821D-02
   141  1.4000000000000D+00 -3.9085354046913D-01  3.1249034991054D-02
   142  1.4100000000000D+00 -3.7000515163076D-01 -8.6452985989167D-03
   143  1.4200000000000D+00 -3.4923061830435D-01 -4.7481388936041D-02
   144  1.4300000000000D+00 -3.2858772304546D-01 -8.5168538009579D-02
   145  1.4400000000000D+00 -3.0813222743416D-01 -1.2162069505843D-01
   146  1.4500000000000D+00 -2.8791768631831D-01 -1.5675688162359D-01
   147  1.4600000000000D+00 -2.6799526825059D-01 -1.9050160700021D-01
   148  1.4700000000000D+00 -2.4841358264537D-01 -2.2278527266871D-01
   149  1.4800000000000D+00 -2.2921851398111D-01 -2.5354456467922D-01
   150  1.4900000000000D+00 -2.1045306344983D-01 -2.8272283282494D-01
   151  1.5000000000000D+00 -1.9215719841328D-01 -3.1027045550635D-01
   152  1.5100000000000D+00 -1.7436770987618D-01 -3.3614518954007D-01
   153  1.5200000000000D+00 -1.5711807838769D-01 -3.6031250369507D-01
   154  1.5300000000000D+00 -1.4043834840691D-01 -3.8274589561350D-01
   155  1.5400000000000D+00 -1.2435501152697D-01 -4.0342719093034D-01
   156  1.5500000000000D+00 -1.0889089653943D-01 -4.2234683174742D-01
   157  1.5600000000000D+00 -9.4065078273458D-02 -4.3950411044328D-01
   158  1.5700000000000D+00 -7.9892762777049D-02 -4.5490750399687D-01
   159  1.5800000000000D+00 -6.6385275581219D-02 -4.6857464902569D-01
   160  1.5900000000000D+00 -5.3549969137051D-02 -4.8053261408782D-01
   161  1.6000000000000D+00 -4.1389845413940D-02 -4.9081925443210D-01
   162  1.6100000000000D+00 -2.9904127058158D-02 -4.9948107060258D-01
   163  1.6200000000000D+00 -1.9089048948595D-02 -5.0657023998762D-01
   164  1.6300000000000D+00 -8.9385225535556D-03 -5.1214230915428D-01
   165  1.6400000000000D+00  5.5486503002638D-04 -5.1625268949691D-01
   166  1.6500000000000D+00  9.3999101171185D-03 -5.1895708587677D-01
   167  1.6600000000000D+00  1.7606933880638D-02 -5.2031228321950D-01
   168  1.6700000000000D+00  2.5187565124802D-02 -5.2037554971326D-01
   169  1.6800000000000D+00  3.2154717345495D-02 -5.1920478225258D-01
   170  1.6900000000000D+00  3.8522496929086D-02 -5.1685838943857D-01
   171  1.7000000000000D+00  4.4306128459885D-02 -5.1339523703933D-01
   172  1.7100000000000D+00  4.9521874813751D-02 -5.0887457151676D-01
   173  1.7200000000000D+00  5.4186955449629D-02 -5.0335593424835D-01
   174  1.7300000000000D+00  5.8319463455042D-02 -4.9689906802599D-01
   175  1.7400000000000D+00  6.1938281607233D-02 -4.8956381666264D-01
   176  1.7500000000000D+00  6.5062997354969D-02 -4.8141001695847D-01
   177  1.7600000000000D+00  6.7713817389158D-02 -4.7249738531974D-01
   178  1.7700000000000D+00  6.9911482277340D-02 -4.6288540031350D-01
   179  1.7800000000000D+00  7.1677181092817D-02 -4.5263318088869D-01
   180  1.7900000000000D+00  7.3032466843381D-02 -4.4179936266402D-01
   181  1.8000000000000D+00  7.3999172858542D-02 -4.3044197284988D-01
   182  1.8100000000000D+00  7.4599329837498D-02 -4.1861830246397D-01
   183  1.8200000000000D+00  7.4855084046642D-02 -4.0638477749436D-01
   184  1.8300000000000D+00  7.4788617480016D-02 -3.9379683162777D-01
   185  1.8400000000000D+00  7.4422070074305D-02 -3.8090878076005D-01
   186  1.8500000000000D+00  7.3777464039048D-02 -3.6777369941831D-01
   187  1.8600000000000D+00  7.2876630855654D-02 -3.5444330077477D-01
   188  1.8700000000000D+00  7.1741140882671D-02 -3.4096782019640D-01
   189  1.8800000000000D+00  7.0392235807364D-02 -3.2739590277822D-01
   190  1.8900000000000D+00  6.8850764035305D-02 -3.1377449551474D-01
   191  1.9000000000000D+00  6.7137119876634D-02 -3.0014874657636D-01
   192  1.9100000000000D+00  6.5271185949941D-02 -2.8656191011327D-01
   193  1.9200000000000D+00  6.3272279451140D-02 -2.7305525844792D-01
   194  1.9300000000000D+00  6.1159102153828D-02 -2.5966800142920D-01
   195  1.9400000000000D+00  5.8949694387838D-02 -2.4643721373702D-01
   196  1.9500000000000D+00  5.6661393228553D-02 -2.3339777087231D-01
   197  1.9600000000000D+00  5.4310794591383D-02 -2.2058229309930D-01
   198  1.9700000000000D+00  5.1913719940182D-02 -2.0802109940907D-01
   199  1.9800000000000D+00  4.9485186889195D-02 -1.9574216959958D-01
   200  1.9900000000000D+00  4.7039384490273D-02 -1.8377111679831D-01
   201  2.0000000000000D+00  4.4589652640145D-02 -1.7213116893294D-01
   202  2.0100000000000D+00  4.2148465866608D-02 -1.6084315998992D-01
   203  2.0200000000000D+00  3.9727421599633D-02 -1.4992553146584D-01
   204  2.0300000000000D+00  3.7337232344561D-02 -1.3939434244063D-01
   205  2.0400000000000D+00  3.4987722536671D-02 -1.2926329062823D-01
   206  2.0500000000000D+00  3.2687829086291D-02 -1.1954374163405D-01
   207  2.0600000000000D+00  3.0445606221796D-02 -1.1024476829854D-01
   208  2.0700000000000D+00  2.8268234198642D-02 -1.0137319896808D-01
   209  2.0800000000000D+00  2.6162031593299D-02 -9.2933673973889D-02
   210  2.0900000000000D+00  2.4132471581610D-02 -8.4928711619244D-02
   211  2.1000000000000D+00  2.2184201284677D-02 -7.7358781050500D-02
   212  2.1100000000000D+00  2.0321064699760D-02 -7.0222383689884D-02
   213  2.1200000000000D+00  1.8546128618664D-02 -6.3516141542604D-02
   214  2.1300000000000D+00  1.6861711322562D-02 -5.7234891859833D-02
   215  2.1400000000000D+00  1.5269414208959D-02 -5.1371788777588D-02
   216  2.1500000000000D+00  1.3770155590672D-02 -4.5918409695005D-02
   217  2.1600000000000D+00  1.2364206895913D-02 -4.0864867277606D-02
   218  2.1700000000000D+00  1.1051230801910D-02 -3.6199925744038D-02
   219  2.1800000000000D+00  9.8303210031196D-03 -3.1911120621894D-02
   220  2.1900000000000D+00  8.7000435876326D-03 -2.7984882120852D-02
   221  2.2000000000000D+00  7.6584795336888D-03 -2.4406660599286D-02
   222  2.2100000000000D+00  6.7032681836759D-03 -2.1161053934214D-02
   223  2.2200000000000D+00  5.8316514013152D-03 -1.8231935993601D-02
   224  2.2300000000000D+00  5.0405182207388D-03 -1.5602585592149D-02
   225  2.2400000000000D+00  4.3264495411213D-03 -1.3255814953760D-02
   226  2.2500000000000D+00  3.6857628327258D-03 -1.1174097417846D-02
   227  2.2600000000000D+00  3.1145565284104D-03 -9.3396935865756D-03
   228  2.2700000000000D+00  2.6087536168990D-03 -7.7347746795666D-03
   229  2.2800000000000D+00  2.1641447042131D-03 -6.3415437041464D-03
   230  2.2900000000000D+00  1.7764297807322D-03 -5.1423524851793D-03
   231  2.3000000000000D+00  1.4412585979834D-03 -4.1198142742563D-03
   232  2.3100000000000D+00  1.1542700060704D-03 -3.2569128528135D-03
   233  2.3200000000000D+00  9.1112893423527D-04 -2.5371046387733D-03
   234  2.3300000000000D+00  7.0756175480402D-04 -1.9444157528474D-03
   235  2.3400000000000D+00  5.3938986639442D-04 -1.4635336192748D-03
   236  2.3500000000000D+00  4.0256022758149D-04 -1.0798896759617D-03
   237  2.3600000000000D+00  2.9317412256127D-04 -7.7973666456336D-04
   238  2.3700000000000D+00  2.0751328850836D-04 -5.5021814790155D-04
   239  2.3800000000000D+00  1.4206377557033D-04 -3.7947316509917D-04
   240  2.3900000000000D+00  9.3533661177662D-05 -2.5655153256191D-04
   241  2.4000000000000D+00  5.8871833349328D-05 -1.7151430818709D-04
   242  2.4100000000000D+00  3.5252748216004D-05 -1.1522411622968D-04
   243  2.4200000000000D+00  2.0202116415815D-05 -8.0716220532948D-05
   244  2.4300000000000D+00  1.1514016040901D-05 -6.2091065482117D-05
   245  2.4400000000000D+00  7.3864334373414D-06 -5.5291093457964D-05
   246  2.4500000000000D+00  5.7532590818644D-06 -5.2475395413169D-05
   247  2.4600000000000D+00  4.9588225940855D-06 -4.7359365702045D-05
   248  2.4700000000000D+00  3.5130020905120D-06 -3.3420136463473D-05
   249  2.4800000000000D+00  1.7248515482838D-06 -1.6061675584512D-05
   250  2.4900000000000D+00  7.6568517879393D-08 -6.9512246151958D-07
   251  2.5000000000000D+00 -4.6981307536632D-07  4.6086685569487D-06
   252  2.5100000000000D+00 -3.9536861341888D-07  3.8593278331421D-06
   253  2.5200000000000D+00 -1.8180527713588D-08  1.7650843776587D-07
   254  2.5300000000000D+00  9.1219551297226D-08 -9.7005688705498D-07
   255  2.5400000000000D+00  8.4950863222865D-08 -9.0811040778746D-07
   256  2.5500000000000D+00  6.3488984655390D-09 -6.8167631945455D-08
   257  2.5600000000000D+00 -1.1957217996126D-08  1.1411397383646D-07
   258  2.5700000000000D+00 -1.2259281008726D-08  1.1699671886360D-07
   259  2.5800000000000D+00 -1.7258371935775D-09  1.6470565345359D-08
   260  2.5900000000000D+00  0.0000000000000D+00  0.0000000000000D+00
   261  2.6000000000000D+00  0.0000000000000D+00  0.0000000000000D+00
   262  2.6100000000000D+00  0.0000000000000D+00  0.0000000000000D+00
   263  2.6200000000000D+00  0.0000000000000D+00  0.0000000000000D+00
   264  2.6300000000000D+00  0.0000000000000D+00  0.0000000000000D+00
   265  2.6400000000000D+00  0.0000000000000D+00  0.0000000000000D+00
   266  2.6500000000000D+00  0.0000000000000D+00  0.0000000000000D+00
   267  2.6600000000000D+00  0.0000000000000D+00  0.0000000000000D+00
   268  2.6700000000000D+00  0.0000000000000D+00  0.0000000000000D+00
   269  2.6800000000000D+00  0.0000000000000D+00  0.0000000000000D+00
   270  2.6900000000000D+00  0.0000000000000D+00  0.0000000000000D+00
   271  2.7000000000000D+00  0.0000000000000D+00  0.0000000000000D+00
   272  2.7100000000000D+00  0.0000000000000D+00  0.0000000000000D+00
   273  2.7200000000000D+00  0.0000000000000D+00  0.0000000000000D+00
   274  2.7300000000000D+00  0.0000000000000D+00  0.0000000000000D+00
   275  2.7400000000000D+00  0.0000000000000D+00  0.0000000000000D+00
   276  2.7500000000000D+00  0.0000000000000D+00  0.0000000000000D+00
   277  2.7600000000000D+00  0.0000000000000D+00  0.0000000000000D+00
   278  2.7700000000000D+00  0.0000000000000D+00  0.0000000000000D+00
   279  2.7800000000000D+00  0.0000000000000D+00  0.0000000000000D+00
   280  2.7900000000000D+00  0.0000000000000D+00  0.0000000000000D+00
   281  2.8000000000000D+00  0.0000000000000D+00  0.0000000000000D+00
   282  2.8100000000000D+00  0.0000000000000D+00  0.0000000000000D+00
   283  2.8200000000000D+00  0.0000000000000D+00  0.0000000000000D+00
   284  2.8300000000000D+00  0.0000000000000D+00  0.0000000000000D+00
   285  2.8400000000000D+00  0.0000000000000D+00  0.0000000000000D+00
   286  2.8500000000000D+00  0.0000000000000D+00  0.0000000000000D+00
   287  2.8600000000000D+00  0.0000000000000D+00  0.0000000000000D+00
   288  2.8700000000000D+00  0.0000000000000D+00  0.0000000000000D+00
   289  2.8800000000000D+00  0.0000000000000D+00  0.0000000000000D+00
   290  2.8900000000000D+00  0.0000000000000D+00  0.0000000000000D+00
   291  2.9000000000000D+00  0.0000000000000D+00  0.0000000000000D+00
   292  2.9100000000000D+00  0.0000000000000D+00  0.0000000000000D+00
   293  2.9200000000000D+00  0.0000000000000D+00  0.0000000000000D+00
   294  2.9300000000000D+00  0.0000000000000D+00  0.0000000000000D+00
   295  2.9400000000000D+00  0.0000000000000D+00  0.0000000000000D+00
   296  2.9500000000000D+00  0.0000000000000D+00  0.0000000000000D+00
   297  2.9600000000000D+00  0.0000000000000D+00  0.0000000000000D+00
   298  2.9700000000000D+00  0.0000000000000D+00  0.0000000000000D+00
   299  2.9800000000000D+00  0.0000000000000D+00  0.0000000000000D+00
   300  2.9900000000000D+00  0.0000000000000D+00  0.0000000000000D+00
   301  3.0000000000000D+00  0.0000000000000D+00  0.0000000000000D+00
   302  3.0100000000000D+00  0.0000000000000D+00  0.0000000000000D+00
   303  3.0200000000000D+00  0.0000000000000D+00  0.0000000000000D+00
   304  3.0300000000000D+00  0.0000000000000D+00  0.0000000000000D+00
   305  3.0400000000000D+00  0.0000000000000D+00  0.0000000000000D+00
   306  3.0500000000000D+00  0.0000000000000D+00  0.0000000000000D+00
   307  3.0600000000000D+00  0.0000000000000D+00  0.0000000000000D+00
   308  3.0700000000000D+00  0.0000000000000D+00  0.0000000000000D+00
   309  3.0800000000000D+00  0.0000000000000D+00  0.0000000000000D+00
   310  3.0900000000000D+00  0.0000000000000D+00  0.0000000000000D+00
   311  3.1000000000000D+00  0.0000000000000D+00  0.0000000000000D+00
   312  3.1100000000000D+00  0.0000000000000D+00  0.0000000000000D+00
   313  3.1200000000000D+00  0.0000000000000D+00  0.0000000000000D+00
   314  3.1300000000000D+00  0.0000000000000D+00  0.0000000000000D+00
   315  3.1400000000000D+00  0.0000000000000D+00  0.0000000000000D+00
   316  3.1500000000000D+00  0.0000000000000D+00  0.0000000000000D+00
   317  3.1600000000000D+00  0.0000000000000D+00  0.0000000000000D+00
   318  3.1700000000000D+00  0.0000000000000D+00  0.0000000000000D+00
   319  3.1800000000000D+00  0.0000000000000D+00  0.0000000000000D+00
   320  3.1900000000000D+00  0.0000000000000D+00  0.0000000000000D+00
   321  3.2000000000000D+00  0.0000000000000D+00  0.0000000000000D+00
   322  3.2100000000000D+00  0.0000000000000D+00  0.0000000000000D+00
   323  3.2200000000000D+00  0.0000000000000D+00  0.0000000000000D+00
   324  3.2300000000000D+00  0.0000000000000D+00  0.0000000000000D+00
   325  3.2400000000000D+00  0.0000000000000D+00  0.0000000000000D+00
   326  3.2500000000000D+00  0.0000000000000D+00  0.0000000000000D+00
   327  3.2600000000000D+00  0.0000000000000D+00  0.0000000000000D+00
   328  3.2700000000000D+00  0.0000000000000D+00  0.0000000000000D+00
   329  3.2800000000000D+00  0.0000000000000D+00  0.0000000000000D+00
   330  3.2900000000000D+00  0.0000000000000D+00  0.0000000000000D+00
   331  3.3000000000000D+00  0.0000000000000D+00  0.0000000000000D+00
   332  3.3100000000000D+00  0.0000000000000D+00  0.0000000000000D+00
   333  3.3200000000000D+00  0.0000000000000D+00  0.0000000000000D+00
   334  3.3300000000000D+00  0.0000000000000D+00  0.0000000000000D+00
   335  3.3400000000000D+00  0.0000000000000D+00  0.0000000000000D+00
   336  3.3500000000000D+00  0.0000000000000D+00  0.0000000000000D+00
   337  3.3600000000000D+00  0.0000000000000D+00  0.0000000000000D+00
   338  3.3700000000000D+00  0.0000000000000D+00  0.0000000000000D+00
   339  3.3800000000000D+00  0.0000000000000D+00  0.0000000000000D+00
   340  3.3900000000000D+00  0.0000000000000D+00  0.0000000000000D+00
   341  3.4000000000000D+00  0.0000000000000D+00  0.0000000000000D+00
   342  3.4100000000000D+00  0.0000000000000D+00  0.0000000000000D+00
   343  3.4200000000000D+00  0.0000000000000D+00  0.0000000000000D+00
   344  3.4300000000000D+00  0.0000000000000D+00  0.0000000000000D+00
   345  3.4400000000000D+00  0.0000000000000D+00  0.0000000000000D+00
   346  3.4500000000000D+00  0.0000000000000D+00  0.0000000000000D+00
   347  3.4600000000000D+00  0.0000000000000D+00  0.0000000000000D+00
   348  3.4700000000000D+00  0.0000000000000D+00  0.0000000000000D+00
   349  3.4800000000000D+00  0.0000000000000D+00  0.0000000000000D+00
   350  3.4900000000000D+00  0.0000000000000D+00  0.0000000000000D+00
   351  3.5000000000000D+00  0.0000000000000D+00  0.0000000000000D+00
   352  3.5100000000000D+00  0.0000000000000D+00  0.0000000000000D+00
   353  3.5200000000000D+00  0.0000000000000D+00  0.0000000000000D+00
   354  3.5300000000000D+00  0.0000000000000D+00  0.0000000000000D+00
   355  3.5400000000000D+00  0.0000000000000D+00  0.0000000000000D+00
   356  3.5500000000000D+00  0.0000000000000D+00  0.0000000000000D+00
   357  3.5600000000000D+00  0.0000000000000D+00  0.0000000000000D+00
   358  3.5700000000000D+00  0.0000000000000D+00  0.0000000000000D+00
   359  3.5800000000000D+00  0.0000000000000D+00  0.0000000000000D+00
   360  3.5900000000000D+00  0.0000000000000D+00  0.0000000000000D+00
   361  3.6000000000000D+00  0.0000000000000D+00  0.0000000000000D+00
   362  3.6100000000000D+00  0.0000000000000D+00  0.0000000000000D+00
   363  3.6200000000000D+00  0.0000000000000D+00  0.0000000000000D+00
   364  3.6300000000000D+00  0.0000000000000D+00  0.0000000000000D+00
   365  3.6400000000000D+00  0.0000000000000D+00  0.0000000000000D+00
   366  3.6500000000000D+00  0.0000000000000D+00  0.0000000000000D+00
   367  3.6600000000000D+00  0.0000000000000D+00  0.0000000000000D+00
   368  3.6700000000000D+00  0.0000000000000D+00  0.0000000000000D+00
   369  3.6800000000000D+00  0.0000000000000D+00  0.0000000000000D+00
   370  3.6900000000000D+00  0.0000000000000D+00  0.0000000000000D+00
   371  3.7000000000000D+00  0.0000000000000D+00  0.0000000000000D+00
   372  3.7100000000000D+00  0.0000000000000D+00  0.0000000000000D+00
   373  3.7200000000000D+00  0.0000000000000D+00  0.0000000000000D+00
   374  3.7300000000000D+00  0.0000000000000D+00  0.0000000000000D+00
   375  3.7400000000000D+00  0.0000000000000D+00  0.0000000000000D+00
   376  3.7500000000000D+00  0.0000000000000D+00  0.0000000000000D+00
   377  3.7600000000000D+00  0.0000000000000D+00  0.0000000000000D+00
   378  3.7700000000000D+00  0.0000000000000D+00  0.0000000000000D+00
   379  3.7800000000000D+00  0.0000000000000D+00  0.0000000000000D+00
   380  3.7900000000000D+00  0.0000000000000D+00  0.0000000000000D+00
   381  3.8000000000000D+00  0.0000000000000D+00  0.0000000000000D+00
   382  3.8100000000000D+00  0.0000000000000D+00  0.0000000000000D+00
   383  3.8200000000000D+00  0.0000000000000D+00  0.0000000000000D+00
   384  3.8300000000000D+00  0.0000000000000D+00  0.0000000000000D+00
   385  3.8400000000000D+00  0.0000000000000D+00  0.0000000000000D+00
   386  3.8500000000000D+00  0.0000000000000D+00  0.0000000000000D+00
   387  3.8600000000000D+00  0.0000000000000D+00  0.0000000000000D+00
   388  3.8700000000000D+00  0.0000000000000D+00  0.0000000000000D+00
   389  3.8800000000000D+00  0.0000000000000D+00  0.0000000000000D+00
   390  3.8900000000000D+00  0.0000000000000D+00  0.0000000000000D+00
   391  3.9000000000000D+00  0.0000000000000D+00  0.0000000000000D+00
   392  3.9100000000000D+00  0.0000000000000D+00  0.0000000000000D+00
   393  3.9200000000000D+00  0.0000000000000D+00  0.0000000000000D+00
   394  3.9300000000000D+00  0.0000000000000D+00  0.0000000000000D+00
   395  3.9400000000000D+00  0.0000000000000D+00  0.0000000000000D+00
   396  3.9500000000000D+00  0.0000000000000D+00  0.0000000000000D+00
   397  3.9600000000000D+00  0.0000000000000D+00  0.0000000000000D+00
   398  3.9700000000000D+00  0.0000000000000D+00  0.0000000000000D+00
   399  3.9800000000000D+00  0.0000000000000D+00  0.0000000000000D+00
   400  3.9900000000000D+00  0.0000000000000D+00  0.0000000000000D+00
   401  4.0000000000000D+00  0.0000000000000D+00  0.0000000000000D+00
   402  4.0100000000000D+00  0.0000000000000D+00  0.0000000000000D+00
   403  4.0200000000000D+00  0.0000000000000D+00  0.0000000000000D+00
   404  4.0300000000000D+00  0.0000000000000D+00  0.0000000000000D+00
   405  4.0400000000000D+00  0.0000000000000D+00  0.0000000000000D+00
   406  4.0500000000000D+00  0.0000000000000D+00  0.0000000000000D+00
   407  4.0600000000000D+00  0.0000000000000D+00  0.0000000000000D+00
   408  4.0700000000000D+00  0.0000000000000D+00  0.0000000000000D+00
   409  4.0800000000000D+00  0.0000000000000D+00  0.0000000000000D+00
   410  4.0900000000000D+00  0.0000000000000D+00  0.0000000000000D+00
   411  4.1000000000000D+00  0.0000000000000D+00  0.0000000000000D+00
   412  4.1100000000000D+00  0.0000000000000D+00  0.0000000000000D+00
   413  4.1200000000000D+00  0.0000000000000D+00  0.0000000000000D+00
   414  4.1300000000000D+00  0.0000000000000D+00  0.0000000000000D+00
   415  4.1400000000000D+00  0.0000000000000D+00  0.0000000000000D+00
   416  4.1500000000000D+00  0.0000000000000D+00  0.0000000000000D+00
   417  4.1600000000000D+00  0.0000000000000D+00  0.0000000000000D+00
   418  4.1700000000000D+00  0.0000000000000D+00  0.0000000000000D+00
   419  4.1800000000000D+00  0.0000000000000D+00  0.0000000000000D+00
   420  4.1900000000000D+00  0.0000000000000D+00  0.0000000000000D+00
   421  4.2000000000000D+00  0.0000000000000D+00  0.0000000000000D+00
   422  4.2100000000000D+00  0.0000000000000D+00  0.0000000000000D+00