B     ONCVPSP-3.3.1  r_core=   1.77019   1.90153
      5.0000      3.0000      210905    zatom,zion,pspd
     8 -116133   1     4   600     0    pspcod,pspxc,lmax,lloc,mmax,r2well
  5.99000000  0.00000000  0.00000000    rchrg fchrg qchrg
     2     2     0     0    nproj
     3     1           extension_switch
     2     0     0    nprojso
   0                         1.8992801391514D-01  4.3456746139435D+00
     1  0.0000000000000D+00  2.3648758645800D-10 -3.9697245490800D-11
     2  1.0000000000000D-02  5.2894122372439D-03  5.3044753971453D-02
     3  2.0000000000000D-02  1.0560188210249D-02  1.0601002894344D-01
     4  3.0000000000000D-02  1.5793513813868D-02  1.5881655833417D-01
     5  4.0000000000000D-02  2.0970223861201D-02  2.1138549922332D-01
     6  5.0000000000000D-02  2.6070637982147D-02  2.6363864125811D-01
     7  6.0000000000000D-02  3.1074410079639D-02  3.1549861207819D-01
     8  7.0000000000000D-02  3.5960395582066D-02  3.6688907814606D-01
     9  8.0000000000000D-02  4.0706540493846D-02  4.1773493990922D-01
    10  9.0000000000000D-02  4.5289795955102D-02  4.6796252026944D-01
    11  1.0000000000000D-01  4.9686061679331D-02  5.1749974539208D-01
    12  1.1000000000000D-01  5.3870161248877D-02  5.6627631695422D-01
    13  1.2000000000000D-01  5.7815851815272D-02  6.1422387500381D-01
    14  1.3000000000000D-01  6.1495870281258D-02  6.6127615068211D-01
    15  1.4000000000000D-01  6.4882017537159D-02  7.0736910814828D-01
    16  1.5000000000000D-01  6.7945281793407D-02  7.5244107513609D-01
    17  1.6000000000000D-01  7.0656001498180D-02  7.9643286166886D-01
    18  1.7000000000000D-01  7.2984067760845D-02  8.3928786655787D-01
    19  1.8000000000000D-01  7.4899165625018D-02  8.8095217141117D-01
    20  1.9000000000000D-01  7.6371052955573D-02  9.2137462198303D-01
    21  2.0000000000000D-01  7.7369875128436D-02  9.6050689679781D-01
    22  2.1000000000000D-01  7.7866513147985D-02  9.9830356308521D-01
    23  2.2000000000000D-01  7.7832962269361D-02  1.0347221201654D+00
    24  2.3000000000000D-01  7.7242737680104D-02  1.0697230305220D+00
    25  2.4000000000000D-01  7.6071303302462D-02  1.1032697388956D+00
    26  2.5000000000000D-01  7.4296519320499D-02  1.1353286798231D+00
    27  2.6000000000000D-01  7.1899103620853D-02  1.1658692741331D+00
    28  2.7000000000000D-01  6.8863101967901D-02  1.1948639149876D+00
    29  2.8000000000000D-01  6.5176361417378D-02  1.2222879441335D+00
    30  2.9000000000000D-01  6.0831001212415D-02  1.2481196190932D+00
    31  3.0000000000000D-01  5.5823875205375D-02  1.2723400720800D+00
    32  3.1000000000000D-01  5.0157019712375D-02  1.2949332614725D+00
    33  3.2000000000000D-01  4.3838080635315D-02  1.3158859167237D+00
    34  3.3000000000000D-01  3.6880713683216D-02  1.3351874776054D+00
    35  3.4000000000000D-01  2.9304951589677D-02  1.3528300287151D+00
    36  3.5000000000000D-01  2.1137532358593D-02  1.3688082301756D+00
    37  3.6000000000000D-01  1.2412182774071D-02  1.3831192454621D+00
    38  3.7000000000000D-01  3.1698516833835D-03  1.3957626672799D+00
    39  3.8000000000000D-01 -6.5411120983766D-03  1.4067404423938D+00
    40  3.9000000000000D-01 -1.6664842009217D-02  1.4160567962840D+00
    41  4.0000000000000D-01 -2.7137900368509D-02  1.4237181584606D+00
    42  4.1000000000000D-01 -3.7889293170426D-02  1.4297330892214D+00
    43  4.2000000000000D-01 -4.8840556222990D-02  1.4341122085840D+00
    44  4.3000000000000D-01 -5.9905915187922D-02  1.4368681280532D+00
    45  4.4000000000000D-01 -7.0992521406801D-02  1.4380153858188D+00
    46  4.5000000000000D-01 -8.2000764693314D-02  1.4375703858963D+00
    47  4.6000000000000D-01 -9.2824663533954D-02  1.4355513416438D+00
    48  4.7000000000000D-01 -1.0335233237973D-01  1.4319782239949D+00
    49  4.8000000000000D-01 -1.1346652493317D-01  1.4268727146627D+00
    50  4.9000000000000D-01 -1.2304525154881D-01  1.4202581644680D+00
    51  5.0000000000000D-01 -1.3196246807853D-01  1.4121595568538D+00
    52  5.1000000000000D-01 -1.4008883270946D-01  1.4026034765508D+00
    53  5.2000000000000D-01 -1.4729252657774D-01  1.3916180832585D+00
    54  5.3000000000000D-01 -1.5344013319411D-01  1.3792330901173D+00
    55  5.4000000000000D-01 -1.5839757100387D-01  1.3654797466502D+00
    56  5.5000000000000D-01 -1.6203107272485D-01  1.3503908257657D+00
    57  5.6000000000000D-01 -1.6420820447601D-01  1.3340006143303D+00
    58  5.7000000000000D-01 -1.6479891712587D-01  1.3163449067383D+00
    59  5.8000000000000D-01 -1.6367662177044D-01  1.2974610008366D+00
    60  5.9000000000000D-01 -1.6071928078990D-01  1.2773876954966D+00
    61  6.0000000000000D-01 -1.5581050554743D-01  1.2561652890680D+00
    62  6.1000000000000D-01 -1.4884065148006D-01  1.2338355779036D+00
    63  6.2000000000000D-01 -1.3970790109944D-01  1.2104418541037D+00
    64  6.3000000000000D-01 -1.2831932527034D-01  1.1860289016024D+00
    65  6.4000000000000D-01 -1.1459191307174D-01  1.1606429896978D+00
    66  6.5000000000000D-01 -9.8453560570032D-02  1.1343318631256D+00
    67  6.6000000000000D-01 -7.9844008949374D-02  1.1071447277733D+00
    68  6.7000000000000D-01 -5.8715722648574D-02  1.0791322311539D+00
    69  6.8000000000000D-01 -3.5034698448345D-02  1.0503464367797D+00
    70  6.9000000000000D-01 -8.7811968373630D-03  1.0208407916152D+00
    71  7.0000000000000D-01  2.0049612545225D-02  9.9067008583885D-01
    72  7.1000000000000D-01  5.1447099038367D-02  9.5989040419767D-01
    73  7.2000000000000D-01  8.5384719675694D-02  9.2855906831100D-01
    74  7.3000000000000D-01  1.2181967479288D-01  8.9673456935605D-01
    75  7.4000000000000D-01  1.6069267605366D-01  8.6447649065501D-01
    76  7.5000000000000D-01  2.0192783157697D-01  8.3184541977878D-01
    77  7.6000000000000D-01  2.4543265194759D-01  7.9890284988417D-01
    78  7.7000000000000D-01  2.9109817994026D-01  7.6571107011019D-01
    79  7.8000000000000D-01  3.3879924579924D-01  7.3233304497204D-01
    80  7.9000000000000D-01  3.8839484888172D-01  6.9883228280993D-01
    81  8.0000000000000D-01  4.3972866542726D-01  6.6527269347045D-01
    82  8.1000000000000D-01  4.9262968114600D-01  6.3171843552054D-01
    83  8.2000000000000D-01  5.4691294624525D-01  5.9823375341818D-01
    84  8.3000000000000D-01  6.0238044944310D-01  5.6488280518592D-01
    85  8.4000000000000D-01  6.5882210646066D-01  5.3172948125482D-01
    86  8.5000000000000D-01  7.1601685744949D-01  4.9883721526399D-01
    87  8.6000000000000D-01  7.7373386680755D-01  4.6626878771428D-01
    88  8.7000000000000D-01  8.3173381787605D-01  4.3408612348287D-01
    89  8.8000000000000D-01  8.8977029409839D-01  4.0235008430653D-01
    90  8.9000000000000D-01  9.4759123737169D-01  3.7112025743498D-01
    91  9.0000000000000D-01  1.0049404735367D+00  3.4045474173994D-01
    92  9.1000000000000D-01  1.0615592942442D+00  3.1040993264054D-01
    93  9.2000000000000D-01  1.1171880838094D+00  2.8104030726919D-01
    94  9.3000000000000D-01  1.1715679791300D+00  2.5239821135472D-01
    95  9.4000000000000D-01  1.2244425503000D+00  2.2453364933911D-01
    96  9.5000000000000D-01  1.2755594892081D+00  1.9749407927153D-01
    97  9.6000000000000D-01  1.3246722931742D+00  1.7132421403674D-01
    98  9.7000000000000D-01  1.3715419305391D+00  1.4606583047532D-01
    99  9.8000000000000D-01  1.4159384751024D+00  1.2175758793849D-01
   100  9.9000000000000D-01  1.4576426963895D+00  9.8434857792661D-02
   101  1.0000000000000D+00  1.4964475929231D+00  7.6129565346268D-02
   102  1.0100000000000D+00  1.5321598559827D+00  5.4870045615738D-02
   103  1.0200000000000D+00  1.5646012517450D+00  3.4680914277323D-02
   104  1.0300000000000D+00  1.5936099102313D+00  1.5582955067590D-02
   105  1.0400000000000D+00  1.6190415100665D+00 -2.4069751950590D-03
   106  1.0500000000000D+00  1.6407703488210D+00 -1.9276022910041D-02
   107  1.0600000000000D+00  1.6586902894761D+00 -3.5015394370501D-02
   108  1.0700000000000D+00  1.6727155744419D+00 -4.9620391999571D-02
   109  1.0800000000000D+00  1.6827814995923D+00 -6.3090429477697D-02
   110  1.0900000000000D+00  1.6888449416443D+00 -7.5429025214194D-02
   111  1.1000000000000D+00  1.6908847335109D+00 -8.6643773796884D-02
   112  1.1100000000000D+00  1.6889018832489D+00 -9.6746295190893D-02
   113  1.1200000000000D+00  1.6829196335114D+00 -1.0575216163324D-01
   114  1.1300000000000D+00  1.6729833595201D+00 -1.1368080231964D-01
   115  1.1400000000000D+00  1.6591603048462D+00 -1.2055538615179D-01
   116  1.1500000000000D+00  1.6415391555883D+00 -1.2640268298544D-01
   117  1.1600000000000D+00  1.6202294547616D+00 -1.3125290398177D-01
   118  1.1700000000000D+00  1.5953608597877D+00 -1.3513952180476D-01
   119  1.1800000000000D+00  1.5670822473225D+00 -1.3809907158253D-01
   120  1.1900000000000D+00  1.5355606708087D+00 -1.4017093369765D-01
   121  1.2000000000000D+00  1.5009801773412D+00 -1.4139709962168D-01
   122  1.2100000000000D+00  1.4635404910347D+00 -1.4182192208626D-01
   123  1.2200000000000D+00  1.4234555717535D+00 -1.4149185108837D-01
   124  1.2300000000000D+00  1.3809520585819D+00 -1.4045515728635D-01
   125  1.2400000000000D+00  1.3362676081350D+00 -1.3876164442975D-01
   126  1.2500000000000D+00  1.2896491388567D+00 -1.3646235258749D-01
   127  1.2600000000000D+00  1.2413509930150D+00 -1.3360925399405D-01
   128  1.2700000000000D+00  1.1916330284211D+00 -1.3025494336551D-01
   129  1.2800000000000D+00  1.1407586525846D+00 -1.2645232460870D-01
   130  1.2900000000000D+00  1.0889928122694D+00 -1.2225429584940D-01
   131  1.3000000000000D+00  1.0365999514431D+00 -1.1771343470368D-01
   132  1.3100000000000D+00  9.8384195098944D-01 -1.1288168574074D-01
   133  1.3200000000000D+00  9.3097606316545D-01 -1.0781005199335D-01
   134  1.3300000000000D+00  8.7825285389229D-01 -1.0254829239357D-01
   135  1.3400000000000D+00  8.2591416574394D-01 -9.7144626936190D-02
   136  1.3500000000000D+00  7.7419110935005D-01 -9.1645450976383D-02
   137  1.3600000000000D+00  7.2330212219827D-01 -8.6095061794260D-02
   138  1.3700000000000D+00  6.7345099659193D-01 -8.0535392912218D-02
   139  1.3800000000000D+00  6.2482530791520D-01 -7.5005781060992D-02
   140  1.3900000000000D+00  5.7759412318894D-01 -6.9542703736863D-02
   141  1.4000000000000D+00  5.3190648672276D-01 -6.4179573549705D-02
   142  1.4100000000000D+00  4.8789289822218D-01 -5.8946694521356D-02
   143  1.4200000000000D+00  4.4566668381964D-01 -5.3871255908361D-02
   144  1.4300000000000D+00  4.0532629121610D-01 -4.8977412169708D-02
   145  1.4400000000000D+00  3.6695474672090D-01 -4.4286238563311D-02
   146  1.4500000000000D+00  3.3061898464798D-01 -3.9815702817467D-02
   147  1.4600000000000D+00  2.9636996831087D-01 -3.5580687087421D-02
   148  1.4700000000000D+00  2.6424262757764D-01 -3.1593019244455D-02
   149  1.4800000000000D+00  2.3425603912789D-01 -2.7861531430822D-02
   150  1.4900000000000D+00  2.0641371898730D-01 -2.4392139742147D-02
   151  1.5000000000000D+00  1.8070405444676D-01 -2.1187945341289D-02
   152  1.5100000000000D+00  1.5710087108279D-01 -1.8249356641952D-02
   153  1.5200000000000D+00  1.3556412330775D-01 -1.5574230632424D-02
   154  1.5300000000000D+00  1.1604070662578D-01 -1.3158032816502D-02
   155  1.5400000000000D+00  9.8465380113681D-02 -1.0994013857340D-02
   156  1.5500000000000D+00  8.2761792180071D-02 -9.0734016678991D-03
   157  1.5600000000000D+00  6.8843599286794D-02 -7.3856071994920D-03
   158  1.5700000000000D+00  5.6615666192006D-02 -5.9184420424515D-03
   159  1.5800000000000D+00  4.5975338080380D-02 -4.6583461792101D-03
   160  1.5900000000000D+00  3.6813770195438D-02 -3.5906236112379D-03
   161  1.6000000000000D+00  2.9017305063791D-02 -2.6996841445460D-03
   162  1.6100000000000D+00  2.2468881913000D-02 -1.9692889524487D-03
   163  1.6200000000000D+00  1.7049467006029D-02 -1.3827979874197D-03
   164  1.6300000000000D+00  1.2639490409654D-02 -9.2341703275915D-04
   165  1.6400000000000D+00  9.1202758408974D-03 -5.7444216834350D-04
   166  1.6500000000000D+00  6.3754512319460D-03 -3.1949977279434D-04
   167  1.6600000000000D+00  4.2923248516394D-03 -1.4277959202870D-04
   168  1.6700000000000D+00  2.7632171095496D-03 -2.9259378906630D-05
   169  1.6800000000000D+00  1.6867317169502D-03  3.5081516105958D-05
   170  1.6900000000000D+00  9.6895923274727D-04  6.3060651229410D-05
   171  1.7000000000000D+00  5.2459581502255D-04  6.6105825493853D-05
   172  1.7100000000000D+00  2.7806751921529D-04  5.4071202503370D-05
   173  1.7200000000000D+00  1.6431418418618D-04  3.5102898494703D-05
   174  1.7300000000000D+00  1.2845140816360D-04  1.5640979579920D-05
   175  1.7400000000000D+00  1.2877427818298D-04  1.7148003112436D-09
   176  1.7500000000000D+00  1.4244533249193D-04 -1.0111679316873D-05
   177  1.7600000000000D+00  1.5474417870480D-04 -1.4576958059351D-05
   178  1.7700000000000D+00  1.3747579702191D-04 -1.3272647251209D-05
   179  1.7800000000000D+00  7.3821874949587D-05 -7.0721865475180D-06
   180  1.7900000000000D+00  7.3750191031636D-06 -6.9428312015493D-07
   181  1.8000000000000D+00 -1.4380714602241D-05  1.4095908956109D-06
   182  1.8100000000000D+00 -4.8084309904686D-06  4.7073168760959D-07
   183  1.8200000000000D+00  2.9783493787758D-06 -2.9783204151192D-07
   184  1.8300000000000D+00  1.8624558537422D-06 -1.8662644405882D-07
   185  1.8400000000000D+00 -2.8936489818711D-07  2.7924910141009D-08
   186  1.8500000000000D+00 -3.0329370573833D-07  2.9269097710670D-08
   187  1.8600000000000D+00  0.0000000000000D+00  0.0000000000000D+00
   188  1.8700000000000D+00  0.0000000000000D+00  0.0000000000000D+00
   189  1.8800000000000D+00  0.0000000000000D+00  0.0000000000000D+00
   190  1.8900000000000D+00  0.0000000000000D+00  0.0000000000000D+00
   191  1.9000000000000D+00  0.0000000000000D+00  0.0000000000000D+00
   192  1.9100000000000D+00  0.0000000000000D+00  0.0000000000000D+00
   193  1.9200000000000D+00  0.0000000000000D+00  0.0000000000000D+00
   194  1.9300000000000D+00  0.0000000000000D+00  0.0000000000000D+00
   195  1.9400000000000D+00  0.0000000000000D+00  0.0000000000000D+00
   196  1.9500000000000D+00  0.0000000000000D+00  0.0000000000000D+00
   197  1.9600000000000D+00  0.0000000000000D+00  0.0000000000000D+00
   198  1.9700000000000D+00  0.0000000000000D+00  0.0000000000000D+00
   199  1.9800000000000D+00  0.0000000000000D+00  0.0000000000000D+00
   200  1.9900000000000D+00  0.0000000000000D+00  0.0000000000000D+00
   201  2.0000000000000D+00  0.0000000000000D+00  0.0000000000000D+00
   202  2.0100000000000D+00  0.0000000000000D+00  0.0000000000000D+00
   203  2.0200000000000D+00  0.0000000000000D+00  0.0000000000000D+00
   204  2.0300000000000D+00  0.0000000000000D+00  0.0000000000000D+00
   205  2.0400000000000D+00  0.0000000000000D+00  0.0000000000000D+00
   206  2.0500000000000D+00  0.0000000000000D+00  0.0000000000000D+00
   207  2.0600000000000D+00  0.0000000000000D+00  0.0000000000000D+00
   208  2.0700000000000D+00  0.0000000000000D+00  0.0000000000000D+00
   209  2.0800000000000D+00  0.0000000000000D+00  0.0000000000000D+00
   210  2.0900000000000D+00  0.0000000000000D+00  0.0000000000000D+00
   211  2.1000000000000D+00  0.0000000000000D+00  0.0000000000000D+00
   212  2.1100000000000D+00  0.0000000000000D+00  0.0000000000000D+00
   213  2.1200000000000D+00  0.0000000000000D+00  0.0000000000000D+00
   214  2.1300000000000D+00  0.0000000000000D+00  0.0000000000000D+00
   215  2.1400000000000D+00  0.0000000000000D+00  0.0000000000000D+00
   216  2.1500000000000D+00  0.0000000000000D+00  0.0000000000000D+00
   217  2.1600000000000D+00  0.0000000000000D+00  0.0000000000000D+00
   218  2.1700000000000D+00  0.0000000000000D+00  0.0000000000000D+00
   219  2.1800000000000D+00  0.0000000000000D+00  0.0000000000000D+00
   220  2.1900000000000D+00  0.0000000000000D+00  0.0000000000000D+00
   221  2.2000000000000D+00  0.0000000000000D+00  0.0000000000000D+00
   222  2.2100000000000D+00  0.0000000000000D+00  0.0000000000000D+00
   223  2.2200000000000D+00  0.0000000000000D+00  0.0000000000000D+00
   224  2.2300000000000D+00  0.0000000000000D+00  0.0000000000000D+00
   225  2.2400000000000D+00  0.0000000000000D+00  0.0000000000000D+00
   226  2.2500000000000D+00  0.0000000000000D+00  0.0000000000000D+00
   227  2.2600000000000D+00  0.0000000000000D+00  0.0000000000000D+00
   228  2.2700000000000D+00  0.0000000000000D+00  0.0000000000000D+00
   229  2.2800000000000D+00  0.0000000000000D+00  0.0000000000000D+00
   230  2.2900000000000D+00  0.0000000000000D+00  0.0000000000000D+00
   231  2.3000000000000D+00  0.0000000000000D+00  0.0000000000000D+00
   232  2.3100000000000D+00  0.0000000000000D+00  0.0000000000000D+00
   233  2.3200000000000D+00  0.0000000000000D+00  0.0000000000000D+00
   234  2.3300000000000D+00  0.0000000000000D+00  0.0000000000000D+00
   235  2.3400000000000D+00  0.0000000000000D+00  0.0000000000000D+00
   236  2.3500000000000D+00  0.0000000000000D+00  0.0000000000000D+00
   237  2.3600000000000D+00  0.0000000000000D+00  0.0000000000000D+00
   238  2.3700000000000D+00  0.0000000000000D+00  0.0000000000000D+00
   239  2.3800000000000D+00  0.0000000000000D+00  0.0000000000000D+00
   240  2.3900000000000D+00  0.0000000000000D+00  0.0000000000000D+00
   241  2.4000000000000D+00  0.0000000000000D+00  0.0000000000000D+00
   242  2.4100000000000D+00  0.0000000000000D+00  0.0000000000000D+00
   243  2.4200000000000D+00  0.0000000000000D+00  0.0000000000000D+00
   244  2.4300000000000D+00  0.0000000000000D+00  0.0000000000000D+00
   245  2.4400000000000D+00  0.0000000000000D+00  0.0000000000000D+00
   246  2.4500000000000D+00  0.0000000000000D+00  0.0000000000000D+00
   247  2.4600000000000D+00  0.0000000000000D+00  0.0000000000000D+00
   248  2.4700000000000D+00  0.0000000000000D+00  0.0000000000000D+00
   249  2.4800000000000D+00  0.0000000000000D+00  0.0000000000000D+00
   250  2.4900000000000D+00  0.0000000000000D+00  0.0000000000000D+00
   251  2.5000000000000D+00  0.0000000000000D+00  0.0000000000000D+00
   252  2.5100000000000D+00  0.0000000000000D+00  0.0000000000000D+00
   253  2.5200000000000D+00  0.0000000000000D+00  0.0000000000000D+00
   254  2.5300000000000D+00  0.0000000000000D+00  0.0000000000000D+00
   255  2.5400000000000D+00  0.0000000000000D+00  0.0000000000000D+00
   256  2.5500000000000D+00  0.0000000000000D+00  0.0000000000000D+00
   257  2.5600000000000D+00  0.0000000000000D+00  0.0000000000000D+00
   258  2.5700000000000D+00  0.0000000000000D+00  0.0000000000000D+00
   259  2.5800000000000D+00  0.0000000000000D+00  0.0000000000000D+00
   260  2.5900000000000D+00  0.0000000000000D+00  0.0000000000000D+00
   261  2.6000000000000D+00  0.0000000000000D+00  0.0000000000000D+00
   262  2.6100000000000D+00  0.0000000000000D+00  0.0000000000000D+00
   263  2.6200000000000D+00  0.0000000000000D+00  0.0000000000000D+00
   264  2.6300000000000D+00  0.0000000000000D+00  0.0000000000000D+00
   265  2.6400000000000D+00  0.0000000000000D+00  0.0000000000000D+00
   266  2.6500000000000D+00  0.0000000000000D+00  0.0000000000000D+00
   267  2.6600000000000D+00  0.0000000000000D+00  0.0000000000000D+00
   268  2.6700000000000D+00  0.0000000000000D+00  0.0000000000000D+00
   269  2.6800000000000D+00  0.0000000000000D+00  0.0000000000000D+00
   270  2.6900000000000D+00  0.0000000000000D+00  0.0000000000000D+00
   271  2.7000000000000D+00  0.0000000000000D+00  0.0000000000000D+00
   272  2.7100000000000D+00  0.0000000000000D+00  0.0000000000000D+00
   273  2.7200000000000D+00  0.0000000000000D+00  0.0000000000000D+00
   274  2.7300000000000D+00  0.0000000000000D+00  0.0000000000000D+00
   275  2.7400000000000D+00  0.0000000000000D+00  0.0000000000000D+00
   276  2.7500000000000D+00  0.0000000000000D+00  0.0000000000000D+00
   277  2.7600000000000D+00  0.0000000000000D+00  0.0000000000000D+00
   278  2.7700000000000D+00  0.0000000000000D+00  0.0000000000000D+00
   279  2.7800000000000D+00  0.0000000000000D+00  0.0000000000000D+00
   280  2.7900000000000D+00  0.0000000000000D+00  0.0000000000000D+00
   281  2.8000000000000D+00  0.0000000000000D+00  0.0000000000000D+00
   282  2.8100000000000D+00  0.0000000000000D+00  0.0000000000000D+00
   283  2.8200000000000D+00  0.0000000000000D+00  0.0000000000000D+00
   284  2.8300000000000D+00  0.0000000000000D+00  0.0000000000000D+00
   285  2.8400000000000D+00  0.0000000000000D+00  0.0000000000000D+00
   286  2.8500000000000D+00  0.0000000000000D+00  0.0000000000000D+00
   287  2.8600000000000D+00  0.0000000000000D+00  0.0000000000000D+00
   288  2.8700000000000D+00  0.0000000000000D+00  0.0000000000000D+00
   289  2.8800000000000D+00  0.0000000000000D+00  0.0000000000000D+00
   290  2.8900000000000D+00  0.0000000000000D+00  0.0000000000000D+00
   291  2.9000000000000D+00  0.0000000000000D+00  0.0000000000000D+00
   292  2.9100000000000D+00  0.0000000000000D+00  0.0000000000000D+00
   293  2.9200000000000D+00  0.0000000000000D+00  0.0000000000000D+00
   294  2.9300000000000D+00  0.0000000000000D+00  0.0000000000000D+00
   295  2.9400000000000D+00  0.0000000000000D+00  0.0000000000000D+00
   296  2.9500000000000D+00  0.0000000000000D+00  0.0000000000000D+00
   297  2.9600000000000D+00  0.0000000000000D+00  0.0000000000000D+00
   298  2.9700000000000D+00  0.0000000000000D+00  0.0000000000000D+00
   299  2.9800000000000D+00  0.0000000000000D+00  0.0000000000000D+00
   300  2.9900000000000D+00  0.0000000000000D+00  0.0000000000000D+00
   301  3.0000000000000D+00  0.0000000000000D+00  0.0000000000000D+00
   302  3.0100000000000D+00  0.0000000000000D+00  0.0000000000000D+00
   303  3.0200000000000D+00  0.0000000000000D+00  0.0000000000000D+00
   304  3.0300000000000D+00  0.0000000000000D+00  0.0000000000000D+00
   305  3.0400000000000D+00  0.0000000000000D+00  0.0000000000000D+00
   306  3.0500000000000D+00  0.0000000000000D+00  0.0000000000000D+00
   307  3.0600000000000D+00  0.0000000000000D+00  0.0000000000000D+00
   308  3.0700000000000D+00  0.0000000000000D+00  0.0000000000000D+00
   309  3.0800000000000D+00  0.0000000000000D+00  0.0000000000000D+00
   310  3.0900000000000D+00  0.0000000000000D+00  0.0000000000000D+00
   311  3.1000000000000D+00  0.0000000000000D+00  0.0000000000000D+00
   312  3.1100000000000D+00  0.0000000000000D+00  0.0000000000000D+00
   313  3.1200000000000D+00  0.0000000000000D+00  0.0000000000000D+00
   314  3.1300000000000D+00  0.0000000000000D+00  0.0000000000000D+00
   315  3.1400000000000D+00  0.0000000000000D+00  0.0000000000000D+00
   316  3.1500000000000D+00  0.0000000000000D+00  0.0000000000000D+00
   317  3.1600000000000D+00  0.0000000000000D+00  0.0000000000000D+00
   318  3.1700000000000D+00  0.0000000000000D+00  0.0000000000000D+00
   319  3.1800000000000D+00  0.0000000000000D+00  0.0000000000000D+00
   320  3.1900000000000D+00  0.0000000000000D+00  0.0000000000000D+00
   321  3.2000000000000D+00  0.0000000000000D+00  0.0000000000000D+00
   322  3.2100000000000D+00  0.0000000000000D+00  0.0000000000000D+00
   323  3.2200000000000D+00  0.0000000000000D+00  0.0000000000000D+00
   324  3.2300000000000D+00  0.0000000000000D+00  0.0000000000000D+00
   325  3.2400000000000D+00  0.0000000000000D+00  0.0000000000000D+00
   326  3.2500000000000D+00  0.0000000000000D+00  0.0000000000000D+00
   327  3.2600000000000D+00  0.0000000000000D+00  0.0000000000000D+00
   328  3.2700000000000D+00  0.0000000000000D+00  0.0000000000000D+00
   329  3.2800000000000D+00  0.0000000000000D+00  0.0000000000000D+00
   330  3.2900000000000D+00  0.0000000000000D+00  0.0000000000000D+00
   331  3.3000000000000D+00  0.0000000000000D+00  0.0000000000000D+00
   332  3.3100000000000D+00  0.0000000000000D+00  0.0000000000000D+00
   333  3.3200000000000D+00  0.0000000000000D+00  0.0000000000000D+00
   334  3.3300000000000D+00  0.0000000000000D+00  0.0000000000000D+00
   335  3.3400000000000D+00  0.0000000000000D+00  0.0000000000000D+00
   336  3.3500000000000D+00  0.0000000000000D+00  0.0000000000000D+00
   337  3.3600000000000D+00  0.0000000000000D+00  0.0000000000000D+00
   338  3.3700000000000D+00  0.0000000000000D+00  0.0000000000000D+00
   339  3.3800000000000D+00  0.0000000000000D+00  0.0000000000000D+00
   340  3.3900000000000D+00  0.0000000000000D+00  0.0000000000000D+00
   341  3.4000000000000D+00  0.0000000000000D+00  0.0000000000000D+00
   342  3.4100000000000D+00  0.0000000000000D+00  0.0000000000000D+00
   343  3.4200000000000D+00  0.0000000000000D+00  0.0000000000000D+00
   344  3.4300000000000D+00  0.0000000000000D+00  0.0000000000000D+00
   345  3.4400000000000D+00  0.0000000000000D+00  0.0000000000000D+00
   346  3.4500000000000D+00  0.0000000000000D+00  0.0000000000000D+00
   347  3.4600000000000D+00  0.0000000000000D+00  0.0000000000000D+00
   348  3.4700000000000D+00  0.0000000000000D+00  0.0000000000000D+00
   349  3.4800000000000D+00  0.0000000000000D+00  0.0000000000000D+00
   350  3.4900000000000D+00  0.0000000000000D+00  0.0000000000000D+00
   351  3.5000000000000D+00  0.0000000000000D+00  0.0000000000000D+00
   352  3.5100000000000D+00  0.0000000000000D+00  0.0000000000000D+00
   353  3.5200000000000D+00  0.0000000000000D+00  0.0000000000000D+00
   354  3.5300000000000D+00  0.0000000000000D+00  0.0000000000000D+00
   355  3.5400000000000D+00  0.0000000000000D+00  0.0000000000000D+00
   356  3.5500000000000D+00  0.0000000000000D+00  0.0000000000000D+00
   357  3.5600000000000D+00  0.0000000000000D+00  0.0000000000000D+00
   358  3.5700000000000D+00  0.0000000000000D+00  0.0000000000000D+00
   359  3.5800000000000D+00  0.0000000000000D+00  0.0000000000000D+00
   360  3.5900000000000D+00  0.0000000000000D+00  0.0000000000000D+00
   361  3.6000000000000D+00  0.0000000000000D+00  0.0000000000000D+00
   362  3.6100000000000D+00  0.0000000000000D+00  0.0000000000000D+00
   363  3.6200000000000D+00  0.0000000000000D+00  0.0000000000000D+00
   364  3.6300000000000D+00  0.0000000000000D+00  0.0000000000000D+00
   365  3.6400000000000D+00  0.0000000000000D+00  0.0000000000000D+00
   366  3.6500000000000D+00  0.0000000000000D+00  0.0000000000000D+00
   367  3.6600000000000D+00  0.0000000000000D+00  0.0000000000000D+00
   368  3.6700000000000D+00  0.0000000000000D+00  0.0000000000000D+00
   369  3.6800000000000D+00  0.0000000000000D+00  0.0000000000000D+00
   370  3.6900000000000D+00  0.0000000000000D+00  0.0000000000000D+00
   371  3.7000000000000D+00  0.0000000000000D+00  0.0000000000000D+00
   372  3.7100000000000D+00  0.0000000000000D+00  0.0000000000000D+00
   373  3.7200000000000D+00  0.0000000000000D+00  0.0000000000000D+00
   374  3.7300000000000D+00  0.0000000000000D+00  0.0000000000000D+00
   375  3.7400000000000D+00  0.0000000000000D+00  0.0000000000000D+00
   376  3.7500000000000D+00  0.0000000000000D+00  0.0000000000000D+00
   377  3.7600000000000D+00  0.0000000000000D+00  0.0000000000000D+00
   378  3.7700000000000D+00  0.0000000000000D+00  0.0000000000000D+00
   379  3.7800000000000D+00  0.0000000000000D+00  0.0000000000000D+00
   380  3.7900000000000D+00  0.0000000000000D+00  0.0000000000000D+00
   381  3.8000000000000D+00  0.0000000000000D+00  0.0000000000000D+00
   382  3.8100000000000D+00  0.0000000000000D+00  0.0000000000000D+00
   383  3.8200000000000D+00  0.0000000000000D+00  0.0000000000000D+00
   384  3.8300000000000D+00  0.0000000000000D+00  0.0000000000000D+00
   385  3.8400000000000D+00  0.0000000000000D+00  0.0000000000000D+00
   386  3.8500000000000D+00  0.0000000000000D+00  0.0000000000000D+00
   387  3.8600000000000D+00  0.0000000000000D+00  0.0000000000000D+00
   388  3.8700000000000D+00  0.0000000000000D+00  0.0000000000000D+00
   389  3.8800000000000D+00  0.0000000000000D+00  0.0000000000000D+00
   390  3.8900000000000D+00  0.0000000000000D+00  0.0000000000000D+00
   391  3.9000000000000D+00  0.0000000000000D+00  0.0000000000000D+00
   392  3.9100000000000D+00  0.0000000000000D+00  0.0000000000000D+00
   393  3.9200000000000D+00  0.0000000000000D+00  0.0000000000000D+00
   394  3.9300000000000D+00  0.0000000000000D+00  0.0000000000000D+00
   395  3.9400000000000D+00  0.0000000000000D+00  0.0000000000000D+00
   396  3.9500000000000D+00  0.0000000000000D+00  0.0000000000000D+00
   397  3.9600000000000D+00  0.0000000000000D+00  0.0000000000000D+00
   398  3.9700000000000D+00  0.0000000000000D+00  0.0000000000000D+00
   399  3.9800000000000D+00  0.0000000000000D+00  0.0000000000000D+00
   400  3.9900000000000D+00  0.0000000000000D+00  0.0000000000000D+00
   401  4.0000000000000D+00  0.0000000000000D+00  0.0000000000000D+00
   402  4.0100000000000D+00  0.0000000000000D+00  0.0000000000000D+00
   403  4.0200000000000D+00  0.0000000000000D+00  0.0000000000000D+00
   404  4.0300000000000D+00  0.0000000000000D+00  0.0000000000000D+00
   405  4.0400000000000D+00  0.0000000000000D+00  0.0000000000000D+00
   406  4.0500000000000D+00  0.0000000000000D+00  0.0000000000000D+00
   407  4.0600000000000D+00  0.0000000000000D+00  0.0000000000000D+00
   408  4.0700000000000D+00  0.0000000000000D+00  0.0000000000000D+00
   409  4.0800000000000D+00  0.0000000000000D+00  0.0000000000000D+00
   410  4.0900000000000D+00  0.0000000000000D+00  0.0000000000000D+00
   411  4.1000000000000D+00  0.0000000000000D+00  0.0000000000000D+00
   412  4.1100000000000D+00  0.0000000000000D+00  0.0000000000000D+00
   413  4.1200000000000D+00  0.0000000000000D+00  0.0000000000000D+00
   414  4.1300000000000D+00  0.0000000000000D+00  0.0000000000000D+00
   415  4.1400000000000D+00  0.0000000000000D+00  0.0000000000000D+00
   416  4.1500000000000D+00  0.0000000000000D+00  0.0000000000000D+00
   417  4.1600000000000D+00  0.0000000000000D+00  0.0000000000000D+00
   418  4.1700000000000D+00  0.0000000000000D+00  0.0000000000000D+00
   419  4.1800000000000D+00  0.0000000000000D+00  0.0000000000000D+00
   420  4.1900000000000D+00  0.0000000000000D+00  0.0000000000000D+00
   421  4.2000000000000D+00  0.0000000000000D+00  0.0000000000000D+00
   422  4.2100000000000D+00  0.0000000000000D+00  0.0000000000000D+00