Be    ONCVPSP-3.3.1  r_core=   2.37691   1.91763
      4.0000      4.0000      210905    zatom,zion,pspd
     8 -116133   1     4   600     0    pspcod,pspxc,lmax,lloc,mmax,r2well
  5.99000000  0.00000000  0.00000000    rchrg fchrg qchrg
     2     2     0     0     0    nproj
     1     1           extension_switch
   0                        -6.3707029086127D+00 -2.0716990170614D+00
     1  0.0000000000000D+00 -5.8679283654328D-11  1.2981010710789D-10
     2  1.0000000000000D-02  6.8986387369631D-02 -3.9417159154716D-02
     3  2.0000000000000D-02  1.3781833774136D-01 -7.8648115993275D-02
     4  3.0000000000000D-02  2.0634196872548D-01 -1.1750756211770D-01
     5  4.0000000000000D-02  2.7440450449407D-01 -1.5581197181394D-01
     6  5.0000000000000D-02  3.4185482244015D-01 -1.9338048054562D-01
     7  6.0000000000000D-02  4.0854399193244D-01 -2.3003574812235D-01
     8  7.0000000000000D-02  4.7432580260002D-01 -2.6560480158680D-01
     9  8.0000000000000D-02  5.3905727963980D-01 -2.9991985299498D-01
    10  9.0000000000000D-02  6.0259918371264D-01 -3.3281908742466D-01
    11  1.0000000000000D-01  6.6481649307981D-01 -3.6414741673677D-01
    12  1.1000000000000D-01  7.2557886573107D-01 -3.9375719483394D-01
    13  1.2000000000000D-01  7.8476107936705D-01 -4.2150889040534D-01
    14  1.3000000000000D-01  8.4224344722214D-01 -4.4727171341820D-01
    15  1.4000000000000D-01  8.9791220784821D-01 -4.7092419191045D-01
    16  1.5000000000000D-01  9.5165988712427D-01 -4.9235469595463D-01
    17  1.6000000000000D-01  1.0033856309104D+00 -5.1146190599828D-01
    18  1.7000000000000D-01  1.0529955069269D+00 -5.2815522313783D-01
    19  1.8000000000000D-01  1.1004027746087D+00 -5.4235511924980D-01
    20  1.9000000000000D-01  1.1455281218600D+00 -5.5399342528180D-01
    21  2.0000000000000D-01  1.1882998678172D+00 -5.6301355639447D-01
    22  2.1000000000000D-01  1.2286541309107D+00 -5.6937067304091D-01
    23  2.2000000000000D-01  1.2665349617049D+00 -5.7303177746999D-01
    24  2.3000000000000D-01  1.3018944401881D+00 -5.7397574554191D-01
    25  2.4000000000000D-01  1.3346927373711D+00 -5.7219329414476D-01
    26  2.5000000000000D-01  1.3648981412458D+00 -5.6768688489845D-01
    27  2.6000000000000D-01  1.3924870473449D+00 -5.6047056522303D-01
    28  2.7000000000000D-01  1.4174439143273D+00 -5.5056974823104D-01
    29  2.8000000000000D-01  1.4397611851990D+00 -5.3802093327448D-01
    30  2.9000000000000D-01  1.4594391749566D+00 -5.2287136933451D-01
    31  3.0000000000000D-01  1.4764859256112D+00 -5.0517866378354D-01
    32  3.1000000000000D-01  1.4909170297180D+00 -4.8501033937309D-01
    33  3.2000000000000D-01  1.5027554236922D+00 -4.6244334260382D-01
    34  3.3000000000000D-01  1.5120311523438D+00 -4.3756350691592D-01
    35  3.4000000000000D-01  1.5187811061996D+00 -4.1046497439556D-01
    36  3.5000000000000D-01  1.5230487333153D+00 -3.8124957992541D-01
    37  3.6000000000000D-01  1.5248837273932D+00 -3.5002620191337D-01
    38  3.7000000000000D-01  1.5243416941343D+00 -3.1691008391115D-01
    39  3.8000000000000D-01  1.5214837978434D+00 -2.8202213158393D-01
    40  3.9000000000000D-01  1.5163763903934D+00 -2.4548818961179D-01
    41  4.0000000000000D-01  1.5090906247197D+00 -2.0743830319309D-01
    42  4.1000000000000D-01  1.4997020550783D+00 -1.6800596887925D-01
    43  4.2000000000000D-01  1.4882902263376D+00 -1.2732737949862D-01
    44  4.3000000000000D-01  1.4749382546116D+00 -8.5540667925500D-02
    45  4.4000000000000D-01  1.4597324015513D+00 -4.2785154417794D-02
    46  4.5000000000000D-01  1.4427616446192D+00  7.9939781464927D-04
    47  4.6000000000000D-01  1.4241172456593D+00  4.5073514240140D-02
    48  4.7000000000000D-01  1.4038923200512D+00  8.9898723381474D-02
    49  4.8000000000000D-01  1.3821814087021D+00  1.3513824963224D-01
    50  4.9000000000000D-01  1.3590800550808D+00  1.8065768037831D-01
    51  5.0000000000000D-01  1.3346843894365D+00  2.2632560348556D-01
    52  5.1000000000000D-01  1.3090907222747D+00  2.7201421143318D-01
    53  5.2000000000000D-01  1.2823951490789D+00  3.1759986861113D-01
    54  5.3000000000000D-01  1.2546931681715D+00  3.6296363855890D-01
    55  5.4000000000000D-01  1.2260793135092D+00  4.0799176819720D-01
    56  5.5000000000000D-01  1.1966468040905D+00  4.5257612639512D-01
    57  5.6000000000000D-01  1.1664872115408D+00  4.9661459451757D-01
    58  5.7000000000000D-01  1.1356901473067D+00  5.4001140691088D-01
    59  5.8000000000000D-01  1.1043429707644D+00  5.8267743960623D-01
    60  5.9000000000000D-01  1.0725305194066D+00  6.2453044584697D-01
    61  6.0000000000000D-01  1.0403348621288D+00  6.6549523737688D-01
    62  6.1000000000000D-01  1.0078350764947D+00  7.0550381075753D-01
    63  6.2000000000000D-01  9.7510705070697D-01  7.4449541831272D-01
    64  6.3000000000000D-01  9.4222331086495D-01  7.8241658362576D-01
    65  6.4000000000000D-01  9.0925287393795D-01  8.1922106183378D-01
    66  6.5000000000000D-01  8.7626112673537D-01  8.5486974527791D-01
    67  6.6000000000000D-01  8.4330973100540D-01  8.8933051536951D-01
    68  6.7000000000000D-01  8.1045655465018D-01  9.2257804182220D-01
    69  6.8000000000000D-01  7.7775562890144D-01  9.5459353067661D-01
    70  6.9000000000000D-01  7.4525713116335D-01  9.8536442280450D-01
    71  7.0000000000000D-01  7.1300739309576D-01  1.0148840448211D+00
    72  7.1000000000000D-01  6.8104893338342D-01  1.0431512145588D+00
    73  7.2000000000000D-01  6.4942051451539D-01  1.0701698034589D+00
    74  7.3000000000000D-01  6.1815722278479D-01  1.0959482584191D+00
    75  7.4000000000000D-01  5.8729057061252D-01  1.1204990857957D+00
    76  7.5000000000000D-01  5.5684862020026D-01  1.1438383003948D+00
    77  7.6000000000000D-01  5.2685612742854D-01  1.1659848423982D+00
    78  7.7000000000000D-01  4.9733470483487D-01  1.1869599652616D+00
    79  7.8000000000000D-01  4.6830300243634D-01  1.2067865976831D+00
    80  7.9000000000000D-01  4.3977690509926D-01  1.2254886827814D+00
    81  8.0000000000000D-01  4.1176974510741D-01  1.2430904976377D+00
    82  8.1000000000000D-01  3.8429252853895D-01  1.2596159563468D+00
    83  8.2000000000000D-01  3.5735417403067D-01  1.2750878996904D+00
    84  8.3000000000000D-01  3.3096176248753D-01  1.2895273744903D+00
    85  8.4000000000000D-01  3.0512079628388D-01  1.3029529056244D+00
    86  8.5000000000000D-01  2.7983546650174D-01  1.3153797635862D+00
    87  8.6000000000000D-01  2.5510892676005D-01  1.3268192303575D+00
    88  8.7000000000000D-01  2.3094357220614D-01  1.3372778662224D+00
    89  8.8000000000000D-01  2.0734132226794D-01  1.3467567800021D+00
    90  8.9000000000000D-01  1.8430390580052D-01  1.3552509050200D+00
    91  9.0000000000000D-01  1.6183314730420D-01  1.3627482829279D+00
    92  9.1000000000000D-01  1.3993125294275D-01  1.3692293573270D+00
    93  9.2000000000000D-01  1.1860109514827D-01  1.3746662789179D+00
    94  9.3000000000000D-01  9.7846494664462D-02  1.3790222237013D+00
    95  9.4000000000000D-01  7.7672498950230D-02  1.3822507255328D+00
    96  9.5000000000000D-01  5.8085655941875D-02  1.3842950241145D+00
    97  9.6000000000000D-01  3.9094282252046D-02  1.3850874292847D+00
    98  9.7000000000000D-01  2.0708724967878D-02  1.3845487022381D+00
    99  9.8000000000000D-01  2.9416162992745D-03  1.3825874540914D+00
   100  9.9000000000000D-01 -1.4191879585732D-02  1.3790995619915D+00
   101  1.0000000000000D+00 -3.0673827439963D-02  1.3739675929434D+00
   102  1.0100000000000D+00 -4.6483293162730D-02  1.3670602901959D+00
   103  1.0200000000000D+00 -6.1596124440975D-02  1.3582320165269D+00
   104  1.0300000000000D+00 -7.5984729829906D-02  1.3473221580909D+00
   105  1.0400000000000D+00 -8.9618026960071D-02  1.3341567751903D+00
   106  1.0500000000000D+00 -1.0246196105761D-01  1.3185575174110D+00
   107  1.0600000000000D+00 -1.1448189400200D-01  1.3003699052956D+00
   108  1.0700000000000D+00 -1.2564546990649D-01  1.2794874979291D+00
   109  1.0800000000000D+00 -1.3592555089251D-01  1.2558685677805D+00
   110  1.0900000000000D+00 -1.4530311407619D-01  1.2295489528743D+00
   111  1.1000000000000D+00 -1.5376953733901D-01  1.2006464985664D+00
   112  1.1100000000000D+00 -1.6132791202368D-01  1.1693566913140D+00
   113  1.1200000000000D+00 -1.6799319913685D-01  1.1359402720076D+00
   114  1.1300000000000D+00 -1.7379124975954D-01  1.1007048844437D+00
   115  1.1400000000000D+00 -1.7875689118766D-01  1.0639836172836D+00
   116  1.1500000000000D+00 -1.8293144288577D-01  1.0261137226693D+00
   117  1.1600000000000D+00 -1.8636006143613D-01  9.8741806348190D-01
   118  1.1700000000000D+00 -1.8908925024572D-01  9.4819098460054D-01
   119  1.1800000000000D+00 -1.9116480932386D-01  9.0868949206676D-01
   120  1.1900000000000D+00 -1.9263035842903D-01  8.6912946743037D-01
   121  1.2000000000000D+00 -1.9352643994478D-01  8.2968604332163D-01
   122  1.2100000000000D+00 -1.9389015139484D-01  7.9049710687834D-01
   123  1.2200000000000D+00 -1.9375519157712D-01  7.5166860111927D-01
   124  1.2300000000000D+00 -1.9315217957771D-01  7.1328061257688D-01
   125  1.2400000000000D+00 -1.9210913932362D-01  6.7539347615034D-01
   126  1.2500000000000D+00 -1.9065203528113D-01  6.3805325046285D-01
   127  1.2600000000000D+00 -1.8880529374723D-01  6.0129635241693D-01
   128  1.2700000000000D+00 -1.8659226700547D-01  5.6515323360789D-01
   129  1.2800000000000D+00 -1.8403560802751D-01  5.2965108375785D-01
   130  1.2900000000000D+00 -1.8115755634151D-01  4.9481571617682D-01
   131  1.3000000000000D+00 -1.7798013751465D-01  4.6067275080430D-01
   132  1.3100000000000D+00 -1.7452528445951D-01  4.2724825160498D-01
   133  1.3200000000000D+00 -1.7081489747331D-01  3.9456896711907D-01
   134  1.3300000000000D+00 -1.6687085381897D-01  3.6266227569268D-01
   135  1.3400000000000D+00 -1.6271498197265D-01  3.3155595959932D-01
   136  1.3500000000000D+00 -1.5836901040213D-01  3.0127786380328D-01
   137  1.3600000000000D+00 -1.5385449954826D-01  2.7185549999091D-01
   138  1.3700000000000D+00 -1.4919276614440D-01  2.4331564719438D-01
   139  1.3800000000000D+00 -1.4440480273530D-01  2.1568395786158D-01
   140  1.3900000000000D+00 -1.3951119818137D-01  1.8898459995138D-01
   141  1.4000000000000D+00 -1.3453206124907D-01  1.6323993866373D-01
   142  1.4100000000000D+00 -1.2948694858283D-01  1.3847026090914D-01
   143  1.4200000000000D+00 -1.2439479932779D-01  1.1469354829062D-01
   144  1.4300000000000D+00 -1.1927387583356D-01  9.1925291960737D-02
   145  1.4400000000000D+00 -1.1414171147671D-01  7.0178350362039D-02
   146  1.4500000000000D+00 -1.0901506530748D-01  4.9462844643816D-02
   147  1.4600000000000D+00 -1.0390988336457D-01  2.9786089094417D-02
   148  1.4700000000000D+00 -9.8841266579647D-02  1.1152552325971D-02
   149  1.4800000000000D+00 -9.3823444794871D-02 -6.4361535491655D-03
   150  1.4900000000000D+00 -8.8869756701819D-02 -2.2981259507295D-02
   151  1.5000000000000D+00 -8.3992635293935D-02 -3.8486804511138D-02
   152  1.5100000000000D+00 -7.9203598546853D-02 -5.2959581322459D-02
   153  1.5200000000000D+00 -7.4513244963790D-02 -6.6409065959811D-02
   154  1.5300000000000D+00 -6.9931253721664D-02 -7.8847332143843D-02
   155  1.5400000000000D+00 -6.5466389058338D-02 -9.0288953588084D-02
   156  1.5500000000000D+00 -6.1126508675170D-02 -1.0075089475628D-01
   157  1.5600000000000D+00 -5.6918575815525D-02 -1.1025239257299D-01
   158  1.5700000000000D+00 -5.2848674799024D-02 -1.1881482968141D-01
   159  1.5800000000000D+00 -4.8922029712142D-02 -1.2646160107984D-01
   160  1.5900000000000D+00 -4.5143026024002D-02 -1.3321797492413D-01
   161  1.6000000000000D+00 -4.1515234865080D-02 -1.3911094877737D-01
   162  1.6100000000000D+00 -3.8041439727696D-02 -1.4416910223311D-01
   163  1.6200000000000D+00 -3.4723665354875D-02 -1.4842244681654D-01
   164  1.6300000000000D+00 -3.1563208569257D-02 -1.5190227415787D-01
   165  1.6400000000000D+00 -2.8560670833815D-02 -1.5464100308160D-01
   166  1.6500000000000D+00 -2.5715992289618D-02 -1.5667202663014D-01
   167  1.6600000000000D+00 -2.3028487088174D-02 -1.5802955947163D-01
   168  1.6700000000000D+00 -2.0496879756677D-02 -1.5874848671093D-01
   169  1.6800000000000D+00 -1.8119342442036D-02 -1.5886421439626D-01
   170  1.6900000000000D+00 -1.5893532765109D-02 -1.5841252272642D-01
   171  1.7000000000000D+00 -1.3816632161435D-02 -1.5742942211697D-01
   172  1.7100000000000D+00 -1.1885384434986D-02 -1.5595101310074D-01
   173  1.7200000000000D+00 -1.0096134431360D-02 -1.5401335011016D-01
   174  1.7300000000000D+00 -8.4448665571616D-03 -1.5165231006403D-01
   175  1.7400000000000D+00 -6.9272430780739D-03 -1.4890346572557D-01
   176  1.7500000000000D+00 -5.5386419318300D-03 -1.4580196466791D-01
   177  1.7600000000000D+00 -4.2741940057266D-03 -1.4238241377464D-01
   178  1.7700000000000D+00 -3.1288196384733D-03 -1.3867876997830D-01
   179  1.7800000000000D+00 -2.0972642986328D-03 -1.3472423718047D-01
   180  1.7900000000000D+00 -1.1741332423172D-03 -1.3055116986357D-01
   181  1.8000000000000D+00 -3.5392508492981D-04 -1.2619098342117D-01
   182  1.8100000000000D+00  3.6893584362383D-04 -1.2167407145580D-01
   183  1.8200000000000D+00  1.0000684675191D-03 -1.1702973022839D-01
   184  1.8300000000000D+00  1.5451052944469D-03 -1.1228609017741D-01
   185  1.8400000000000D+00  2.0096642816165D-03 -1.0747005491976D-01
   186  1.8500000000000D+00  2.3993221563922D-03 -1.0260724726411D-01
   187  1.8600000000000D+00  2.7195894565410D-03 -9.7721962919727D-02
   188  1.8700000000000D+00  2.9758870811673D-03 -9.2837131050726D-02
   189  1.8800000000000D+00  3.1735246835068D-03 -8.7974282532641D-02
   190  1.8900000000000D+00  3.3176806493378D-03 -8.3153524950599D-02
   191  1.9000000000000D+00  3.4133839259934D-03 -7.8393524957099D-02
   192  1.9100000000000D+00  3.4654975406977D-03 -7.3711497346697D-02
   193  1.9200000000000D+00  3.4787039038412D-03 -6.9123200943074D-02
   194  1.9300000000000D+00  3.4574918919706D-03 -6.4642941116558D-02
   195  1.9400000000000D+00  3.4061456049461D-03 -6.0283578465764D-02
   196  1.9500000000000D+00  3.3287349590063D-03 -5.6056543920574D-02
   197  1.9600000000000D+00  3.2291078367775D-03 -5.1971859369710D-02
   198  1.9700000000000D+00  3.1108840392824D-03 -4.8038164245917D-02
   199  1.9800000000000D+00  2.9774507479419D-03 -4.4262747180472D-02
   200  1.9900000000000D+00  2.8319596166894D-03 -4.0651582818819D-02
   201  2.0000000000000D+00  2.6773253793815D-03 -3.7209373352956D-02
   202  2.0100000000000D+00  2.5162258663881D-03 -3.3939594344642D-02
   203  2.0200000000000D+00  2.3511035001187D-03 -3.0844544773286D-02
   204  2.0300000000000D+00  2.1841680136451D-03 -2.7925400623403D-02
   205  2.0400000000000D+00  2.0174005071721D-03 -2.5182271970729D-02
   206  2.0500000000000D+00  1.8525586237348D-03 -2.2614263006410D-02
   207  2.0600000000000D+00  1.6911828242147D-03 -2.0219534709454D-02
   208  2.0700000000000D+00  1.5346036975534D-03 -1.7995369814275D-02
   209  2.0800000000000D+00  1.3839501422820D-03 -1.5938239694808D-02
   210  2.0900000000000D+00  1.2401584286580D-03 -1.4043872745306D-02
   211  2.1000000000000D+00  1.1039819732376D-03 -1.2307324012234D-02
   212  2.1100000000000D+00  9.7600177145331D-04 -1.0723045593647D-02
   213  2.1200000000000D+00  8.5663738990640D-04 -9.2849574506462D-03
   214  2.1300000000000D+00  7.4615843562005D-04 -7.9865185104556D-03
   215  2.1400000000000D+00  6.4469637487752D-04 -6.8207972356925D-03
   216  2.1500000000000D+00  5.5225666912169D-04 -5.7805418840910D-03
   217  2.1600000000000D+00  4.6873108895237D-04 -4.8582497419928D-03
   218  2.1700000000000D+00  3.9391010976983D-04 -4.0462349849276D-03
   219  2.1800000000000D+00  3.2749540729765D-04 -3.3366954200374D-03
   220  2.1900000000000D+00  2.6911218001201D-04 -2.7217768506256D-03
   221  2.2000000000000D+00  2.1832140609289D-04 -2.1936357066191D-03
   222  2.2100000000000D+00  1.7463187640521D-04 -1.7444992869372D-03
   223  2.2200000000000D+00  1.3751183762689D-04 -1.3667229696014D-03
   224  2.2300000000000D+00  1.0640041294709D-04 -1.0528451675341D-03
   225  2.2400000000000D+00  8.0718453812544D-05 -7.9563865327696D-04
   226  2.2500000000000D+00  5.9878907275670D-05 -5.8815865496412D-04
   227  2.2600000000000D+00  4.3296766688309D-05 -4.2378802321149D-04
   228  2.2700000000000D+00  3.0398165336718D-05 -2.9627781239339D-04
   229  2.2800000000000D+00  2.0628998122723D-05 -1.9978478811659D-04
   230  2.2900000000000D+00  1.3462805107236D-05 -1.2890488736552D-04
   231  2.3000000000000D+00  8.4089182659890D-06 -7.8703777895777D-05
   232  2.3100000000000D+00  5.0148644340011D-06 -4.4736553870620D-05
   233  2.3200000000000D+00  2.8748311984509D-06 -2.3072861878280D-05
   234  2.3300000000000D+00  1.6308256774773D-06 -1.0338877550604D-05
   235  2.3400000000000D+00  9.9898758612066D-07 -3.6431843524832D-06
   236  2.3500000000000D+00  7.4832695052510D-07 -6.6694637711019D-07
   237  2.3600000000000D+00  7.0473033939884D-07  3.5919492694452D-07
   238  2.3700000000000D+00  6.9169273463775D-07  4.6583278493699D-07
   239  2.3800000000000D+00  5.9128925223551D-07  2.7585427745129D-07
   240  2.3900000000000D+00  3.6497447417674D-07  8.0472081864138D-08
   241  2.4000000000000D+00  1.1462453344659D-07  1.1467793665624D-09
   242  2.4100000000000D+00 -4.4339910222560D-08 -8.6867551555708D-09
   243  2.4200000000000D+00 -6.9200405664338D-08 -7.4388420054899D-09
   244  2.4300000000000D+00 -2.6180908291252D-08 -8.0814503324849D-10
   245  2.4400000000000D+00  9.9855750066141D-09  7.8031498234442D-09
   246  2.4500000000000D+00  1.4628848606860D-08  1.1608758441562D-08
   247  2.4600000000000D+00  4.9874759460663D-09  4.0079221025357D-09
   248  2.4700000000000D+00 -1.2722580202741D-09 -6.8916781220068D-10
   249  2.4800000000000D+00 -1.7639282542323D-09 -9.5550002945652D-10
   250  2.4900000000000D+00 -5.5175812629022D-10 -2.9888115044261D-10
   251  2.5000000000000D+00  0.0000000000000D+00  0.0000000000000D+00
   252  2.5100000000000D+00  0.0000000000000D+00  0.0000000000000D+00
   253  2.5200000000000D+00  0.0000000000000D+00  0.0000000000000D+00
   254  2.5300000000000D+00  0.0000000000000D+00  0.0000000000000D+00
   255  2.5400000000000D+00  0.0000000000000D+00  0.0000000000000D+00
   256  2.5500000000000D+00  0.0000000000000D+00  0.0000000000000D+00
   257  2.5600000000000D+00  0.0000000000000D+00  0.0000000000000D+00
   258  2.5700000000000D+00  0.0000000000000D+00  0.0000000000000D+00
   259  2.5800000000000D+00  0.0000000000000D+00  0.0000000000000D+00
   260  2.5900000000000D+00  0.0000000000000D+00  0.0000000000000D+00
   261  2.6000000000000D+00  0.0000000000000D+00  0.0000000000000D+00
   262  2.6100000000000D+00  0.0000000000000D+00  0.0000000000000D+00
   263  2.6200000000000D+00  0.0000000000000D+00  0.0000000000000D+00
   264  2.6300000000000D+00  0.0000000000000D+00  0.0000000000000D+00
   265  2.6400000000000D+00  0.0000000000000D+00  0.0000000000000D+00
   266  2.6500000000000D+00  0.0000000000000D+00  0.0000000000000D+00
   267  2.6600000000000D+00  0.0000000000000D+00  0.0000000000000D+00
   268  2.6700000000000D+00  0.0000000000000D+00  0.0000000000000D+00
   269  2.6800000000000D+00  0.0000000000000D+00  0.0000000000000D+00
   270  2.6900000000000D+00  0.0000000000000D+00  0.0000000000000D+00
   271  2.7000000000000D+00  0.0000000000000D+00  0.0000000000000D+00
   272  2.7100000000000D+00  0.0000000000000D+00  0.0000000000000D+00
   273  2.7200000000000D+00  0.0000000000000D+00  0.0000000000000D+00
   274  2.7300000000000D+00  0.0000000000000D+00  0.0000000000000D+00
   275  2.7400000000000D+00  0.0000000000000D+00  0.0000000000000D+00
   276  2.7500000000000D+00  0.0000000000000D+00  0.0000000000000D+00
   277  2.7600000000000D+00  0.0000000000000D+00  0.0000000000000D+00
   278  2.7700000000000D+00  0.0000000000000D+00  0.0000000000000D+00
   279  2.7800000000000D+00  0.0000000000000D+00  0.0000000000000D+00
   280  2.7900000000000D+00  0.0000000000000D+00  0.0000000000000D+00
   281  2.8000000000000D+00  0.0000000000000D+00  0.0000000000000D+00
   282  2.8100000000000D+00  0.0000000000000D+00  0.0000000000000D+00
   283  2.8200000000000D+00  0.0000000000000D+00  0.0000000000000D+00
   284  2.8300000000000D+00  0.0000000000000D+00  0.0000000000000D+00
   285  2.8400000000000D+00  0.0000000000000D+00  0.0000000000000D+00
   286  2.8500000000000D+00  0.0000000000000D+00  0.0000000000000D+00
   287  2.8600000000000D+00  0.0000000000000D+00  0.0000000000000D+00
   288  2.8700000000000D+00  0.0000000000000D+00  0.0000000000000D+00
   289  2.8800000000000D+00  0.0000000000000D+00  0.0000000000000D+00
   290  2.8900000000000D+00  0.0000000000000D+00  0.0000000000000D+00
   291  2.9000000000000D+00  0.0000000000000D+00  0.0000000000000D+00
   292  2.9100000000000D+00  0.0000000000000D+00  0.0000000000000D+00
   293  2.9200000000000D+00  0.0000000000000D+00  0.0000000000000D+00
   294  2.9300000000000D+00  0.0000000000000D+00  0.0000000000000D+00
   295  2.9400000000000D+00  0.0000000000000D+00  0.0000000000000D+00
   296  2.9500000000000D+00  0.0000000000000D+00  0.0000000000000D+00
   297  2.9600000000000D+00  0.0000000000000D+00  0.0000000000000D+00
   298  2.9700000000000D+00  0.0000000000000D+00  0.0000000000000D+00
   299  2.9800000000000D+00  0.0000000000000D+00  0.0000000000000D+00
   300  2.9900000000000D+00  0.0000000000000D+00  0.0000000000000D+00
   301  3.0000000000000D+00  0.0000000000000D+00  0.0000000000000D+00
   302  3.0100000000000D+00  0.0000000000000D+00  0.0000000000000D+00
   303  3.0200000000000D+00  0.0000000000000D+00  0.0000000000000D+00
   304  3.0300000000000D+00  0.0000000000000D+00  0.0000000000000D+00
   305  3.0400000000000D+00  0.0000000000000D+00  0.0000000000000D+00
   306  3.0500000000000D+00  0.0000000000000D+00  0.0000000000000D+00
   307  3.0600000000000D+00  0.0000000000000D+00  0.0000000000000D+00
   308  3.0700000000000D+00  0.0000000000000D+00  0.0000000000000D+00
   309  3.0800000000000D+00  0.0000000000000D+00  0.0000000000000D+00
   310  3.0900000000000D+00  0.0000000000000D+00  0.0000000000000D+00
   311  3.1000000000000D+00  0.0000000000000D+00  0.0000000000000D+00
   312  3.1100000000000D+00  0.0000000000000D+00  0.0000000000000D+00
   313  3.1200000000000D+00  0.0000000000000D+00  0.0000000000000D+00
   314  3.1300000000000D+00  0.0000000000000D+00  0.0000000000000D+00
   315  3.1400000000000D+00  0.0000000000000D+00  0.0000000000000D+00
   316  3.1500000000000D+00  0.0000000000000D+00  0.0000000000000D+00
   317  3.1600000000000D+00  0.0000000000000D+00  0.0000000000000D+00
   318  3.1700000000000D+00  0.0000000000000D+00  0.0000000000000D+00
   319  3.1800000000000D+00  0.0000000000000D+00  0.0000000000000D+00
   320  3.1900000000000D+00  0.0000000000000D+00  0.0000000000000D+00
   321  3.2000000000000D+00  0.0000000000000D+00  0.0000000000000D+00
   322  3.2100000000000D+00  0.0000000000000D+00  0.0000000000000D+00
   323  3.2200000000000D+00  0.0000000000000D+00  0.0000000000000D+00
   324  3.2300000000000D+00  0.0000000000000D+00  0.0000000000000D+00
   325  3.2400000000000D+00  0.0000000000000D+00  0.0000000000000D+00
   326  3.2500000000000D+00  0.0000000000000D+00  0.0000000000000D+00
   327  3.2600000000000D+00  0.0000000000000D+00  0.0000000000000D+00
   328  3.2700000000000D+00  0.0000000000000D+00  0.0000000000000D+00
   329  3.2800000000000D+00  0.0000000000000D+00  0.0000000000000D+00
   330  3.2900000000000D+00  0.0000000000000D+00  0.0000000000000D+00
   331  3.3000000000000D+00  0.0000000000000D+00  0.0000000000000D+00
   332  3.3100000000000D+00  0.0000000000000D+00  0.0000000000000D+00
   333  3.3200000000000D+00  0.0000000000000D+00  0.0000000000000D+00
   334  3.3300000000000D+00  0.0000000000000D+00  0.0000000000000D+00
   335  3.3400000000000D+00  0.0000000000000D+00  0.0000000000000D+00
   336  3.3500000000000D+00  0.0000000000000D+00  0.0000000000000D+00
   337  3.3600000000000D+00  0.0000000000000D+00  0.0000000000000D+00
   338  3.3700000000000D+00  0.0000000000000D+00  0.0000000000000D+00
   339  3.3800000000000D+00  0.0000000000000D+00  0.0000000000000D+00
   340  3.3900000000000D+00  0.0000000000000D+00  0.0000000000000D+00
   341  3.4000000000000D+00  0.0000000000000D+00  0.0000000000000D+00
   342  3.4100000000000D+00  0.0000000000000D+00  0.0000000000000D+00
   343  3.4200000000000D+00  0.0000000000000D+00  0.0000000000000D+00
   344  3.4300000000000D+00  0.0000000000000D+00  0.0000000000000D+00
   345  3.4400000000000D+00  0.0000000000000D+00  0.0000000000000D+00
   346  3.4500000000000D+00  0.0000000000000D+00  0.0000000000000D+00
   347  3.4600000000000D+00  0.0000000000000D+00  0.0000000000000D+00
   348  3.4700000000000D+00  0.0000000000000D+00  0.0000000000000D+00
   349  3.4800000000000D+00  0.0000000000000D+00  0.0000000000000D+00
   350  3.4900000000000D+00  0.0000000000000D+00  0.0000000000000D+00
   351  3.5000000000000D+00  0.0000000000000D+00  0.0000000000000D+00
   352  3.5100000000000D+00  0.0000000000000D+00  0.0000000000000D+00
   353  3.5200000000000D+00  0.0000000000000D+00  0.0000000000000D+00
   354  3.5300000000000D+00  0.0000000000000D+00  0.0000000000000D+00
   355  3.5400000000000D+00  0.0000000000000D+00  0.0000000000000D+00
   356  3.5500000000000D+00  0.0000000000000D+00  0.0000000000000D+00
   357  3.5600000000000D+00  0.0000000000000D+00  0.0000000000000D+00
   358  3.5700000000000D+00  0.0000000000000D+00  0.0000000000000D+00
   359  3.5800000000000D+00  0.0000000000000D+00  0.0000000000000D+00
   360  3.5900000000000D+00  0.0000000000000D+00  0.0000000000000D+00
   361  3.6000000000000D+00  0.0000000000000D+00  0.0000000000000D+00
   362  3.6100000000000D+00  0.0000000000000D+00  0.0000000000000D+00
   363  3.6200000000000D+00  0.0000000000000D+00  0.0000000000000D+00
   364  3.6300000000000D+00  0.0000000000000D+00  0.0000000000000D+00
   365  3.6400000000000D+00  0.0000000000000D+00  0.0000000000000D+00
   366  3.6500000000000D+00  0.0000000000000D+00  0.0000000000000D+00
   367  3.6600000000000D+00  0.0000000000000D+00  0.0000000000000D+00
   368  3.6700000000000D+00  0.0000000000000D+00  0.0000000000000D+00
   369  3.6800000000000D+00  0.0000000000000D+00  0.0000000000000D+00
   370  3.6900000000000D+00  0.0000000000000D+00  0.0000000000000D+00
   371  3.7000000000000D+00  0.0000000000000D+00  0.0000000000000D+00
   372  3.7100000000000D+00  0.0000000000000D+00  0.0000000000000D+00
   373  3.7200000000000D+00  0.0000000000000D+00  0.0000000000000D+00
   374  3.7300000000000D+00  0.0000000000000D+00  0.0000000000000D+00
   375  3.7400000000000D+00  0.0000000000000D+00  0.0000000000000D+00
   376  3.7500000000000D+00  0.0000000000000D+00  0.0000000000000D+00
   377  3.7600000000000D+00  0.0000000000000D+00  0.0000000000000D+00
   378  3.7700000000000D+00  0.0000000000000D+00  0.0000000000000D+00
   379  3.7800000000000D+00  0.0000000000000D+00  0.0000000000000D+00
   380  3.7900000000000D+00  0.0000000000000D+00  0.0000000000000D+00
   381  3.8000000000000D+00  0.0000000000000D+00  0.0000000000000D+00
   382  3.8100000000000D+00  0.0000000000000D+00  0.0000000000000D+00
   383  3.8200000000000D+00  0.0000000000000D+00  0.0000000000000D+00
   384  3.8300000000000D+00  0.0000000000000D+00  0.0000000000000D+00
   385  3.8400000000000D+00  0.0000000000000D+00  0.0000000000000D+00
   386  3.8500000000000D+00  0.0000000000000D+00  0.0000000000000D+00
   387  3.8600000000000D+00  0.0000000000000D+00  0.0000000000000D+00
   388  3.8700000000000D+00  0.0000000000000D+00  0.0000000000000D+00
   389  3.8800000000000D+00  0.0000000000000D+00  0.0000000000000D+00
   390  3.8900000000000D+00  0.0000000000000D+00  0.0000000000000D+00
   391  3.9000000000000D+00  0.0000000000000D+00  0.0000000000000D+00
   392  3.9100000000000D+00  0.0000000000000D+00  0.0000000000000D+00
   393  3.9200000000000D+00  0.0000000000000D+00  0.0000000000000D+00
   394  3.9300000000000D+00  0.0000000000000D+00  0.0000000000000D+00
   395  3.9400000000000D+00  0.0000000000000D+00  0.0000000000000D+00
   396  3.9500000000000D+00  0.0000000000000D+00  0.0000000000000D+00
   397  3.9600000000000D+00  0.0000000000000D+00  0.0000000000000D+00
   398  3.9700000000000D+00  0.0000000000000D+00  0.0000000000000D+00
   399  3.9800000000000D+00  0.0000000000000D+00  0.0000000000000D+00
   400  3.9900000000000D+00  0.0000000000000D+00  0.0000000000000D+00
   401  4.0000000000000D+00  0.0000000000000D+00  0.0000000000000D+00
   402  4.0100000000000D+00  0.0000000000000D+00  0.0000000000000D+00
   403  4.0200000000000D+00  0.0000000000000D+00  0.0000000000000D+00
   404  4.0300000000000D+00  0.0000000000000D+00  0.0000000000000D+00
   405  4.0400000000000D+00  0.0000000000000D+00  0.0000000000000D+00
   406  4.0500000000000D+00  0.0000000000000D+00  0.0000000000000D+00
   407  4.0600000000000D+00  0.0000000000000D+00  0.0000000000000D+00
   408  4.0700000000000D+00  0.0000000000000D+00  0.0000000000000D+00
   409  4.0800000000000D+00  0.0000000000000D+00  0.0000000000000D+00
   410  4.0900000000000D+00  0.0000000000000D+00  0.0000000000000D+00
   411  4.1000000000000D+00  0.0000000000000D+00  0.0000000000000D+00
   412  4.1100000000000D+00  0.0000000000000D+00  0.0000000000000D+00
   413  4.1200000000000D+00  0.0000000000000D+00  0.0000000000000D+00
   414  4.1300000000000D+00  0.0000000000000D+00  0.0000000000000D+00
   415  4.1400000000000D+00  0.0000000000000D+00  0.0000000000000D+00
   416  4.1500000000000D+00  0.0000000000000D+00  0.0000000000000D+00
   417  4.1600000000000D+00  0.0000000000000D+00  0.0000000000000D+00
   418  4.1700000000000D+00  0.0000000000000D+00  0.0000000000000D+00
   419  4.1800000000000D+00  0.0000000000000D+00  0.0000000000000D+00
   420  4.1900000000000D+00  0.0000000000000D+00  0.0000000000000D+00
   421  4.2000000000000D+00  0.0000000000000D+00  0.0000000000000D+00
   422  4.2100000000000D+00  0.0000000000000D+00  0.0000000000000D+00
   423  4.2200000000000D+00  0.0000000000000D+00  0.0000000000000D+00