Be    ONCVPSP-3.3.1  r_core=   2.37691   1.91763
      4.0000      4.0000      210905    zatom,zion,pspd
     8 -116133   1     4   600     0    pspcod,pspxc,lmax,lloc,mmax,r2well
  5.99000000  0.00000000  0.00000000    rchrg fchrg qchrg
     2     2     0     0    nproj
     3     1           extension_switch
     4     0     0    nprojso
   0                        -6.3711916741407D+00 -2.0717905916749D+00
     1  0.0000000000000D+00 -5.8695048821278D-11  1.2984585628928D-10
     2  1.0000000000000D-02  6.8988557515523D-02 -3.9419183371171D-02
     3  2.0000000000000D-02  1.3782266708777D-01 -7.8652147854483D-02
     4  3.0000000000000D-02  2.0634843543692D-01 -1.1751356858877D-01
     5  4.0000000000000D-02  2.7441307595508D-01 -1.5581990361308D-01
     6  5.0000000000000D-02  3.4186545541989D-01 -1.9339027246693D-01
     7  6.0000000000000D-02  4.0855663280265D-01 -2.3004731946288D-01
     8  7.0000000000000D-02  4.7434038760536D-01 -2.6561805667529D-01
     9  8.0000000000000D-02  5.3907373521905D-01 -2.9993468181888D-01
    10  9.0000000000000D-02  6.0261742686901D-01 -3.3283536635130D-01
    11  1.0000000000000D-01  6.6483643179842D-01 -3.6416500932425D-01
    12  1.1000000000000D-01  7.2560039944139D-01 -3.9377595272640D-01
    13  1.2000000000000D-01  7.8478409944781D-01 -4.2152865430702D-01
    14  1.3000000000000D-01  8.4226783754601D-01 -4.4729231413992D-01
    15  1.4000000000000D-01  8.9793784536340D-01 -4.7094545148197D-01
    16  1.5000000000000D-01  9.5168664246988D-01 -4.9237642879574D-01
    17  1.6000000000000D-01  1.0034133690624D+00 -5.1148392014109D-01
    18  1.7000000000000D-01  1.0530240878710D+00 -5.2817732149252D-01
    19  1.8000000000000D-01  1.1004320540371D+00 -5.4237710090578D-01
    20  1.9000000000000D-01  1.1455579518878D+00 -5.5401508683595D-01
    21  2.0000000000000D-01  1.1883300977151D+00 -5.6303469329800D-01
    22  2.1000000000000D-01  1.2286846078496D+00 -5.6939108095626D-01
    23  2.2000000000000D-01  1.2665655315093D+00 -5.7305125362920D-01
    24  2.3000000000000D-01  1.3019249480937D+00 -5.7399409009774D-01
    25  2.4000000000000D-01  1.3347230287830D+00 -5.7221031150604D-01
    26  2.5000000000000D-01  1.3649280624932D+00 -5.6770238504113D-01
    27  2.6000000000000D-01  1.3925164464283D+00 -5.6048436496864D-01
    28  2.7000000000000D-01  1.4174726416547D+00 -5.5058167248447D-01
    29  2.8000000000000D-01  1.4397890943072D+00 -5.3803081621316D-01
    30  2.9000000000000D-01  1.4594661232137D+00 -5.2287905554158D-01
    31  3.0000000000000D-01  1.4765117748970D+00 -5.0518400931773D-01
    32  3.1000000000000D-01  1.4909416470785D+00 -4.8501321276861D-01
    33  3.2000000000000D-01  1.5027786819655D+00 -4.6244362579387D-01
    34  3.3000000000000D-01  1.5120529307537D+00 -4.3756109607412D-01
    35  3.4000000000000D-01  1.5188012909150D+00 -4.1045978068982D-01
    36  3.5000000000000D-01  1.5230672179704D+00 -3.8124153017961D-01
    37  3.6000000000000D-01  1.5249004135694D+00 -3.5001523917265D-01
    38  3.7000000000000D-01  1.5243564917980D+00 -3.1689616790716D-01
    39  3.8000000000000D-01  1.5214966257405D+00 -2.8200523909723D-01
    40  3.9000000000000D-01  1.5163871763966D+00 -2.4546831472901D-01
    41  4.0000000000000D-01  1.5090993061290D+00 -2.0741545745727D-01
    42  4.1000000000000D-01  1.4997085788710D+00 -1.6798018133231D-01
    43  4.2000000000000D-01  1.4882945493696D+00 -1.2729869661574D-01
    44  4.3000000000000D-01  1.4749403437670D+00 -8.5509153441730D-02
    45  4.4000000000000D-01  1.4597322338408D+00 -4.2750889047976D-02
    46  4.5000000000000D-01  1.4427592072274D+00  8.3631676105612D-04
    47  4.6000000000000D-01  1.4241125359398D+00  4.5112973346917D-02
    48  4.7000000000000D-01  1.4038853454718D+00  8.9940593713266D-02
    49  4.8000000000000D-01  1.3821721867387D+00  1.3518238741837D-01
    50  4.9000000000000D-01  1.3590686130619D+00  1.8070392778868D-01
    51  5.0000000000000D-01  1.3346707643397D+00  2.2637378949390D-01
    52  5.1000000000000D-01  1.3090749604761D+00  2.7206415276242D-01
    53  5.2000000000000D-01  1.2823773060567D+00  3.1765137075531D-01
    54  5.3000000000000D-01  1.2546733081671D+00  3.6301649687533D-01
    55  5.4000000000000D-01  1.2260575091456D+00  4.0804576906237D-01
    56  5.5000000000000D-01  1.1966231359530D+00  4.5263104841748D-01
    57  5.6000000000000D-01  1.1664617677200D+00  4.9667020979982D-01
    58  5.7000000000000D-01  1.1356630229080D+00  5.4006748235434D-01
    59  5.8000000000000D-01  1.1043142673864D+00  5.8273373824949D-01
    60  5.9000000000000D-01  1.0725003445906D+00  6.2458672823090D-01
    61  6.0000000000000D-01  1.0403033287843D+00  6.6555126292790D-01
    62  6.1000000000000D-01  1.0078023023016D+00  7.0555933918093D-01
    63  6.2000000000000D-01  9.7507315750027D-01  7.4455021098799D-01
    64  6.3000000000000D-01  9.4218842400305D-01  7.8247040499551D-01
    65  6.4000000000000D-01  9.0921712165975D-01  8.1927368077836D-01
    66  6.5000000000000D-01  8.7622463950846D-01  8.5492093646754D-01
    67  6.6000000000000D-01  8.4327264086929D-01  8.8938006058611D-01
    68  6.7000000000000D-01  8.1041899455788D-01  9.2262573124324D-01
    69  6.8000000000000D-01  7.7771773206283D-01  9.5463916411361D-01
    70  6.9000000000000D-01  7.4521903039378D-01  9.8540781088888D-01
    71  7.0000000000000D-01  7.1296922017319D-01  1.0149250101307D+00
    72  7.1000000000000D-01  6.8101081841740D-01  1.0431895926786D+00
    73  7.2000000000000D-01  6.4938258533101D-01  1.0702054439693D+00
    74  7.3000000000000D-01  6.1811960432481D-01  1.0959810258074D+00
    75  7.4000000000000D-01  5.8725338436053D-01  1.1205288602837D+00
    76  7.5000000000000D-01  5.5681198362780D-01  1.1438649786792D+00
    77  7.6000000000000D-01  5.2682015346882D-01  1.1660083382990D+00
    78  7.7000000000000D-01  4.9729950138580D-01  1.1869802102745D+00
    79  7.8000000000000D-01  4.6826867189505D-01  1.2068035414328D+00
    80  7.9000000000000D-01  4.3974354393054D-01  1.2255022933730D+00
    81  8.0000000000000D-01  4.1173744344799D-01  1.2431007619040D+00
    82  8.1000000000000D-01  3.8426136983950D-01  1.2596228799892D+00
    83  8.2000000000000D-01  3.5732423473732D-01  1.2750915073134D+00
    84  8.3000000000000D-01  3.3093311176418D-01  1.2895277095276D+00
    85  8.4000000000000D-01  3.0509349577676D-01  1.3029500301570D+00
    86  8.5000000000000D-01  2.7980957014724D-01  1.3153737580528D+00
    87  8.6000000000000D-01  2.5508448063661D-01  1.3268101931577D+00
    88  8.7000000000000D-01  2.3092061443105D-01  1.3372659132144D+00
    89  8.8000000000000D-01  2.0731988293939D-01  1.3467420438954D+00
    90  8.9000000000000D-01  1.8428400698523D-01  1.3552335346673D+00
    91  9.0000000000000D-01  1.6181480307074D-01  1.3627284425159D+00
    92  9.1000000000000D-01  1.3991446944038D-01  1.3692072254708D+00
    93  9.2000000000000D-01  1.1858587073113D-01  1.3746420476620D+00
    94  9.3000000000000D-01  9.7832820060532D-02  1.3789960974293D+00
    95  9.4000000000000D-01  7.7660357474559D-02  1.3822229197907D+00
    96  9.5000000000000D-01  5.8075023753170D-02  1.3842657643510D+00
    97  9.6000000000000D-01  3.9085128651779D-02  1.3850569495123D+00
    98  9.7000000000000D-01  2.0701012740806D-02  1.3845172436195D+00
    99  9.8000000000000D-01  2.9353020941547D-03  1.3825552634552D+00
   100  9.9000000000000D-01 -1.4196844836535D-02  1.3790668902817D+00
   101  1.0000000000000D+00 -3.0677498063588D-02  1.3739346936098D+00
   102  1.0100000000000D+00 -4.6485728253368D-02  1.3670274175266D+00
   103  1.0200000000000D+00 -6.1597387327425D-02  1.3581994238637D+00
   104  1.0300000000000D+00 -7.5984887525144D-02  1.3472900961819D+00
   105  1.0400000000000D+00 -8.9617149554200D-02  1.3341254900107D+00
   106  1.0500000000000D+00 -1.0246012064890D-01  1.3185272413495D+00
   107  1.0600000000000D+00 -1.1447916288940D-01  1.3003408402776D+00
   108  1.0700000000000D+00 -1.2564191843502D-01  1.2794597980487D+00
   109  1.0800000000000D+00 -1.3592124544002D-01  1.2558423275832D+00
   110  1.0900000000000D+00 -1.4529811549527D-01  1.2295242024171D+00
   111  1.1000000000000D+00 -1.5376390014474D-01  1.2006232063860D+00
   112  1.1100000000000D+00 -1.6132168443630D-01  1.1693347744551D+00
   113  1.1200000000000D+00 -1.6798642390039D-01  1.1359196109562D+00
   114  1.1300000000000D+00 -1.7378396550890D-01  1.1006853401254D+00
   115  1.1400000000000D+00 -1.7874913405158D-01  1.0639650472731D+00
   116  1.1500000000000D+00 -1.8292324801976D-01  1.0260959944712D+00
   117  1.1600000000000D+00 -1.8635146426477D-01  9.8740106376248D-01
   118  1.1700000000000D+00 -1.8908028728893D-01  9.4817462414067D-01
   119  1.1800000000000D+00 -1.9115551858743D-01  9.0867370698714D-01
   120  1.1900000000000D+00 -1.9262077941719D-01  8.6911421762315D-01
   121  1.2000000000000D+00 -1.9351661338645D-01  8.2967130908368D-01
   122  1.2100000000000D+00 -1.9388011878951D-01  7.9048288467726D-01
   123  1.2200000000000D+00 -1.9374499465793D-01  7.5165489920124D-01
   124  1.2300000000000D+00 -1.9314185976352D-01  7.1326744688140D-01
   125  1.2400000000000D+00 -1.9209873721333D-01  6.7538086681658D-01
   126  1.2500000000000D+00 -1.9064159021890D-01  6.3804121902547D-01
   127  1.2600000000000D+00 -1.8879484347141D-01  6.0128491969445D-01
   128  1.2700000000000D+00 -1.8658184738281D-01  5.6514241822189D-01
   129  1.2800000000000D+00 -1.8402525286483D-01  5.2964090117603D-01
   130  1.2900000000000D+00 -1.8114729726435D-01  4.9480617817524D-01
   131  1.3000000000000D+00 -1.7797000390108D-01  4.6066386524578D-01
   132  1.3100000000000D+00 -1.7451530341671D-01  4.2724002244144D-01
   133  1.3200000000000D+00 -1.7080509384673D-01  3.9456139454623D-01
   134  1.3300000000000D+00 -1.6686125022506D-01  3.6265535639807D-01
   135  1.3400000000000D+00 -1.6270559884817D-01  3.3154968706223D-01
   136  1.3500000000000D+00 -1.5835986606469D-01  3.0127222861628D-01
   137  1.3600000000000D+00 -1.5384561026395D-01  2.7185049018178D-01
   138  1.3700000000000D+00 -1.4918414620005D-01  2.4331124853734D-01
   139  1.3800000000000D+00 -1.4439646451320D-01  2.1568015416908D-01
   140  1.3900000000000D+00 -1.3950315223537D-01  1.8898137334378D-01
   141  1.4000000000000D+00 -1.3452431638137D-01  1.6323726981588D-01
   142  1.4100000000000D+00 -1.2947951192093D-01  1.3846812927412D-01
   143  1.4200000000000D+00 -1.2438767640150D-01  1.1469193230267D-01
   144  1.4300000000000D+00 -1.1926707065194D-01  9.1924169218966D-02
   145  1.4400000000000D+00 -1.1413522660491D-01  7.0177697797183D-02
   146  1.4500000000000D+00 -1.0900890194350D-01  4.9462638670000D-02
   147  1.4600000000000D+00 -1.0390404141595D-01  2.9786305747728D-02
   148  1.4700000000000D+00 -9.8835744739945D-02  1.1153167391464D-02
   149  1.4800000000000D+00 -9.3818240620054D-02 -6.4351644206769D-03
   150  1.4900000000000D+00 -8.8864866686328D-02 -2.2979920691542D-02
   151  1.5000000000000D+00 -8.3988054946394D-02 -3.8485140310888D-02
   152  1.5100000000000D+00 -7.9199322465278D-02 -5.2957615875445D-02
   153  1.5200000000000D+00 -7.4509266910132D-02 -6.6406823153556D-02
   154  1.5300000000000D+00 -6.9927566695542D-02 -7.8844835536874D-02
   155  1.5400000000000D+00 -6.5462985369765D-02 -9.0286226337252D-02
   156  1.5500000000000D+00 -6.1123380016115D-02 -1.0074795954984D-01
   157  1.5600000000000D+00 -5.6915713330122D-02 -1.1024927156931D-01
   158  1.5700000000000D+00 -5.2846069152231D-02 -1.1881154445299D-01
   159  1.5800000000000D+00 -4.8919671156702D-02 -1.2645817256267D-01
   160  1.5900000000000D+00 -4.5140904465526D-02 -1.3321442337214D-01
   161  1.6000000000000D+00 -4.1513339925080D-02 -1.3910729372186D-01
   162  1.6100000000000D+00 -3.8039760804439D-02 -1.4416536244711D-01
   163  1.6200000000000D+00 -3.4722191681908D-02 -1.4841864028389D-01
   164  1.6300000000000D+00 -3.1561929271472D-02 -1.5189841804701D-01
   165  1.6400000000000D+00 -2.8559574980959D-02 -1.5463711372384D-01
   166  1.6500000000000D+00 -2.5715068947128D-02 -1.5666811950236D-01
   167  1.6600000000000D+00 -2.3027725365260D-02 -1.5802564918320D-01
   168  1.6700000000000D+00 -2.0496268851585D-02 -1.5874458699481D-01
   169  1.6800000000000D+00 -1.8118871684424D-02 -1.5886033810394D-01
   170  1.6900000000000D+00 -1.5893191655496D-02 -1.5840868182676D-01
   171  1.7000000000000D+00 -1.3816410407689D-02 -1.5742562769858D-01
   172  1.7100000000000D+00 -1.1885271985839D-02 -1.5594727537786D-01
   173  1.7200000000000D+00 -1.0096121506936D-02 -1.5400967843173D-01
   174  1.7300000000000D+00 -8.4449436765374D-03 -1.5164871292585D-01
   175  1.7400000000000D+00 -6.9274010838784D-03 -1.4889995078536D-01
   176  1.7500000000000D+00 -5.5388720119282D-03 -1.4579853876302D-01
   177  1.7600000000000D+00 -4.2744877120218D-03 -1.4237908294223D-01
   178  1.7700000000000D+00 -3.1291689028869D-03 -1.3867553947780D-01
   179  1.7800000000000D+00 -2.0976614463238D-03 -1.3472111151816D-01
   180  1.7900000000000D+00 -1.1745710022158D-03 -1.3054815281894D-01
   181  1.8000000000000D+00 -3.5439659766806D-04 -1.2618807807504D-01
   182  1.8100000000000D+00  3.6843702029462D-04 -1.2167128021985D-01
   183  1.8200000000000D+00  9.9954835572130D-04 -1.1702705487602D-01
   184  1.8300000000000D+00  1.5445694954777D-03 -1.1228353187568D-01
   185  1.8400000000000D+00  2.0091179774411D-03 -1.0746761426217D-01
   186  1.8500000000000D+00  2.3987701132167D-03 -1.0260492430414D-01
   187  1.8600000000000D+00  2.7190360303325D-03 -9.7719757204901D-02
   188  1.8700000000000D+00  2.9753362250044D-03 -9.2835041657036D-02
   189  1.8800000000000D+00  3.1729799566195D-03 -8.7972308099132D-02
   190  1.8900000000000D+00  3.3171452277141D-03 -8.3151663714005D-02
   191  1.9000000000000D+00  3.4128606144070D-03 -7.8391774786341D-02
   192  1.9100000000000D+00  3.4649887860234D-03 -7.3709855777112D-02
   193  1.9200000000000D+00  3.4782118095197D-03 -6.9121665210216D-02
   194  1.9300000000000D+00  3.4570182334831D-03 -6.4641508189456D-02
   195  1.9400000000000D+00  3.4056918461648D-03 -6.0282245079504D-02
   196  1.9500000000000D+00  3.3283022692766D-03 -5.6055306608089D-02
   197  1.9600000000000D+00  3.2286971086079D-03 -5.1970714492685D-02
   198  1.9700000000000D+00  3.1104959064972D-03 -4.8037108024686D-02
   199  1.9800000000000D+00  2.9770856041793D-03 -4.4261775722836D-02
   200  1.9900000000000D+00  2.8316176341110D-03 -4.0650692147698D-02
   201  2.0000000000000D+00  2.6770065274732D-03 -3.7208559432792D-02
   202  2.0100000000000D+00  2.5159299307379D-03 -3.3938853106506D-02
   203  2.0200000000000D+00  2.3508301010527D-03 -3.0843872138621D-02
   204  2.0300000000000D+00  2.1839166246237D-03 -2.7924792526362D-02
   205  2.0400000000000D+00  2.0171704728361D-03 -2.5181724379068D-02
   206  2.0500000000000D+00  1.8523491775119D-03 -2.2613771940903D-02
   207  2.0600000000000D+00  1.6909931053964D-03 -2.0219096261806D-02
   208  2.0700000000000D+00  1.5344327677570D-03 -1.7994980163525D-02
   209  2.0800000000000D+00  1.3837970012281D-03 -1.5937895122200D-02
   210  2.0900000000000D+00  1.2400220291901D-03 -1.4043569647644D-02
   211  2.1000000000000D+00  1.1038612355270D-03 -1.2307058913720D-02
   212  2.1100000000000D+00  9.7589559633405D-04 -1.0722815156216D-02
   213  2.1200000000000D+00  8.5654467129572D-04 -9.2847584828148D-03
   214  2.1300000000000D+00  7.4607807198492D-04 -7.9863479747181D-03
   215  2.1400000000000D+00  6.4462727971766D-04 -6.8206522544869D-03
   216  2.1500000000000D+00  5.5219778044410D-04 -5.7804197443733D-03
   217  2.1600000000000D+00  4.6868137772281D-04 -4.8581478984607D-03
   218  2.1700000000000D+00  3.9386858733502D-04 -4.0461510619485D-03
   219  2.1800000000000D+00  3.2746113177090D-04 -3.3366272123168D-03
   220  2.1900000000000D+00  2.6908426163641D-04 -2.7217223226849D-03
   221  2.2000000000000D+00  2.1829901158866D-04 -2.1935929911319D-03
   222  2.2100000000000D+00  1.7461423232046D-04 -1.7444666819853D-03
   223  2.2200000000000D+00  1.3749823272480D-04 -1.3666989349228D-03
   224  2.2300000000000D+00  1.0639019964911D-04 -1.0528283198177D-03
   225  2.2400000000000D+00  8.0711048745671D-05 -7.9562776058321D-04
   226  2.2500000000000D+00  5.9873790965193D-05 -5.8815263034195D-04
   227  2.2600000000000D+00  4.3293482431149D-05 -4.2378591757331D-04
   228  2.2700000000000D+00  3.0396317329227D-05 -2.9627880673878D-04
   229  2.2800000000000D+00  2.0628248882789D-05 -1.9978818516760D-04
   230  2.2900000000000D+00  1.3462872253480D-05 -1.2891010269064D-04
   231  2.3000000000000D+00  8.4095728465437D-06 -7.8710343029779D-05
   232  2.3100000000000D+00  5.0159213636089D-06 -4.4744075806914D-05
   233  2.3200000000000D+00  2.8761447648482D-06 -2.3081014595819D-05
   234  2.3300000000000D+00  1.6322690363741D-06 -1.0347303464997D-05
   235  2.3400000000000D+00  1.0005093517825D-06 -3.6518422601707D-06
   236  2.3500000000000D+00  7.4992797529349D-07 -6.7599955689888D-07
   237  2.3600000000000D+00  7.0645380096259D-07  3.4941388217904D-07
   238  2.3700000000000D+00  6.9341029977058D-07  4.5603213876121D-07
   239  2.3800000000000D+00  5.9273392573218D-07  2.6757535521383D-07
   240  2.3900000000000D+00  3.6584618060880D-07  7.5463309993405D-08
   241  2.4000000000000D+00  1.1489302263931D-07 -3.9893289176254D-10
   242  2.4100000000000D+00 -4.4445222673676D-08 -8.0813144968307D-09
   243  2.4200000000000D+00 -6.9363294614454D-08 -6.5017468025158D-09
   244  2.4300000000000D+00 -2.6242054397806D-08 -4.5617686153652D-10
   245  2.4400000000000D+00  1.0010677297527D-08  7.6592419585691D-09
   246  2.4500000000000D+00  1.4665663012195D-08  1.1397692141833D-08
   247  2.4600000000000D+00  5.0000384361827D-09  3.9358940588292D-09
   248  2.4700000000000D+00 -1.2753881166362D-09 -6.7124846332276D-10
   249  2.4800000000000D+00 -1.7682679913953D-09 -9.3065566197798D-10
   250  2.4900000000000D+00 -5.5311559944133D-10 -2.9110981302232D-10
   251  2.5000000000000D+00  0.0000000000000D+00  0.0000000000000D+00
   252  2.5100000000000D+00  0.0000000000000D+00  0.0000000000000D+00
   253  2.5200000000000D+00  0.0000000000000D+00  0.0000000000000D+00
   254  2.5300000000000D+00  0.0000000000000D+00  0.0000000000000D+00
   255  2.5400000000000D+00  0.0000000000000D+00  0.0000000000000D+00
   256  2.5500000000000D+00  0.0000000000000D+00  0.0000000000000D+00
   257  2.5600000000000D+00  0.0000000000000D+00  0.0000000000000D+00
   258  2.5700000000000D+00  0.0000000000000D+00  0.0000000000000D+00
   259  2.5800000000000D+00  0.0000000000000D+00  0.0000000000000D+00
   260  2.5900000000000D+00  0.0000000000000D+00  0.0000000000000D+00
   261  2.6000000000000D+00  0.0000000000000D+00  0.0000000000000D+00
   262  2.6100000000000D+00  0.0000000000000D+00  0.0000000000000D+00
   263  2.6200000000000D+00  0.0000000000000D+00  0.0000000000000D+00
   264  2.6300000000000D+00  0.0000000000000D+00  0.0000000000000D+00
   265  2.6400000000000D+00  0.0000000000000D+00  0.0000000000000D+00
   266  2.6500000000000D+00  0.0000000000000D+00  0.0000000000000D+00
   267  2.6600000000000D+00  0.0000000000000D+00  0.0000000000000D+00
   268  2.6700000000000D+00  0.0000000000000D+00  0.0000000000000D+00
   269  2.6800000000000D+00  0.0000000000000D+00  0.0000000000000D+00
   270  2.6900000000000D+00  0.0000000000000D+00  0.0000000000000D+00
   271  2.7000000000000D+00  0.0000000000000D+00  0.0000000000000D+00
   272  2.7100000000000D+00  0.0000000000000D+00  0.0000000000000D+00
   273  2.7200000000000D+00  0.0000000000000D+00  0.0000000000000D+00
   274  2.7300000000000D+00  0.0000000000000D+00  0.0000000000000D+00
   275  2.7400000000000D+00  0.0000000000000D+00  0.0000000000000D+00
   276  2.7500000000000D+00  0.0000000000000D+00  0.0000000000000D+00
   277  2.7600000000000D+00  0.0000000000000D+00  0.0000000000000D+00
   278  2.7700000000000D+00  0.0000000000000D+00  0.0000000000000D+00
   279  2.7800000000000D+00  0.0000000000000D+00  0.0000000000000D+00
   280  2.7900000000000D+00  0.0000000000000D+00  0.0000000000000D+00
   281  2.8000000000000D+00  0.0000000000000D+00  0.0000000000000D+00
   282  2.8100000000000D+00  0.0000000000000D+00  0.0000000000000D+00
   283  2.8200000000000D+00  0.0000000000000D+00  0.0000000000000D+00
   284  2.8300000000000D+00  0.0000000000000D+00  0.0000000000000D+00
   285  2.8400000000000D+00  0.0000000000000D+00  0.0000000000000D+00
   286  2.8500000000000D+00  0.0000000000000D+00  0.0000000000000D+00
   287  2.8600000000000D+00  0.0000000000000D+00  0.0000000000000D+00
   288  2.8700000000000D+00  0.0000000000000D+00  0.0000000000000D+00
   289  2.8800000000000D+00  0.0000000000000D+00  0.0000000000000D+00
   290  2.8900000000000D+00  0.0000000000000D+00  0.0000000000000D+00
   291  2.9000000000000D+00  0.0000000000000D+00  0.0000000000000D+00
   292  2.9100000000000D+00  0.0000000000000D+00  0.0000000000000D+00
   293  2.9200000000000D+00  0.0000000000000D+00  0.0000000000000D+00
   294  2.9300000000000D+00  0.0000000000000D+00  0.0000000000000D+00
   295  2.9400000000000D+00  0.0000000000000D+00  0.0000000000000D+00
   296  2.9500000000000D+00  0.0000000000000D+00  0.0000000000000D+00
   297  2.9600000000000D+00  0.0000000000000D+00  0.0000000000000D+00
   298  2.9700000000000D+00  0.0000000000000D+00  0.0000000000000D+00
   299  2.9800000000000D+00  0.0000000000000D+00  0.0000000000000D+00
   300  2.9900000000000D+00  0.0000000000000D+00  0.0000000000000D+00
   301  3.0000000000000D+00  0.0000000000000D+00  0.0000000000000D+00
   302  3.0100000000000D+00  0.0000000000000D+00  0.0000000000000D+00
   303  3.0200000000000D+00  0.0000000000000D+00  0.0000000000000D+00
   304  3.0300000000000D+00  0.0000000000000D+00  0.0000000000000D+00
   305  3.0400000000000D+00  0.0000000000000D+00  0.0000000000000D+00
   306  3.0500000000000D+00  0.0000000000000D+00  0.0000000000000D+00
   307  3.0600000000000D+00  0.0000000000000D+00  0.0000000000000D+00
   308  3.0700000000000D+00  0.0000000000000D+00  0.0000000000000D+00
   309  3.0800000000000D+00  0.0000000000000D+00  0.0000000000000D+00
   310  3.0900000000000D+00  0.0000000000000D+00  0.0000000000000D+00
   311  3.1000000000000D+00  0.0000000000000D+00  0.0000000000000D+00
   312  3.1100000000000D+00  0.0000000000000D+00  0.0000000000000D+00
   313  3.1200000000000D+00  0.0000000000000D+00  0.0000000000000D+00
   314  3.1300000000000D+00  0.0000000000000D+00  0.0000000000000D+00
   315  3.1400000000000D+00  0.0000000000000D+00  0.0000000000000D+00
   316  3.1500000000000D+00  0.0000000000000D+00  0.0000000000000D+00
   317  3.1600000000000D+00  0.0000000000000D+00  0.0000000000000D+00
   318  3.1700000000000D+00  0.0000000000000D+00  0.0000000000000D+00
   319  3.1800000000000D+00  0.0000000000000D+00  0.0000000000000D+00
   320  3.1900000000000D+00  0.0000000000000D+00  0.0000000000000D+00
   321  3.2000000000000D+00  0.0000000000000D+00  0.0000000000000D+00
   322  3.2100000000000D+00  0.0000000000000D+00  0.0000000000000D+00
   323  3.2200000000000D+00  0.0000000000000D+00  0.0000000000000D+00
   324  3.2300000000000D+00  0.0000000000000D+00  0.0000000000000D+00
   325  3.2400000000000D+00  0.0000000000000D+00  0.0000000000000D+00
   326  3.2500000000000D+00  0.0000000000000D+00  0.0000000000000D+00
   327  3.2600000000000D+00  0.0000000000000D+00  0.0000000000000D+00
   328  3.2700000000000D+00  0.0000000000000D+00  0.0000000000000D+00
   329  3.2800000000000D+00  0.0000000000000D+00  0.0000000000000D+00
   330  3.2900000000000D+00  0.0000000000000D+00  0.0000000000000D+00
   331  3.3000000000000D+00  0.0000000000000D+00  0.0000000000000D+00
   332  3.3100000000000D+00  0.0000000000000D+00  0.0000000000000D+00
   333  3.3200000000000D+00  0.0000000000000D+00  0.0000000000000D+00
   334  3.3300000000000D+00  0.0000000000000D+00  0.0000000000000D+00
   335  3.3400000000000D+00  0.0000000000000D+00  0.0000000000000D+00
   336  3.3500000000000D+00  0.0000000000000D+00  0.0000000000000D+00
   337  3.3600000000000D+00  0.0000000000000D+00  0.0000000000000D+00
   338  3.3700000000000D+00  0.0000000000000D+00  0.0000000000000D+00
   339  3.3800000000000D+00  0.0000000000000D+00  0.0000000000000D+00
   340  3.3900000000000D+00  0.0000000000000D+00  0.0000000000000D+00
   341  3.4000000000000D+00  0.0000000000000D+00  0.0000000000000D+00
   342  3.4100000000000D+00  0.0000000000000D+00  0.0000000000000D+00
   343  3.4200000000000D+00  0.0000000000000D+00  0.0000000000000D+00
   344  3.4300000000000D+00  0.0000000000000D+00  0.0000000000000D+00
   345  3.4400000000000D+00  0.0000000000000D+00  0.0000000000000D+00
   346  3.4500000000000D+00  0.0000000000000D+00  0.0000000000000D+00
   347  3.4600000000000D+00  0.0000000000000D+00  0.0000000000000D+00
   348  3.4700000000000D+00  0.0000000000000D+00  0.0000000000000D+00
   349  3.4800000000000D+00  0.0000000000000D+00  0.0000000000000D+00
   350  3.4900000000000D+00  0.0000000000000D+00  0.0000000000000D+00
   351  3.5000000000000D+00  0.0000000000000D+00  0.0000000000000D+00
   352  3.5100000000000D+00  0.0000000000000D+00  0.0000000000000D+00
   353  3.5200000000000D+00  0.0000000000000D+00  0.0000000000000D+00
   354  3.5300000000000D+00  0.0000000000000D+00  0.0000000000000D+00
   355  3.5400000000000D+00  0.0000000000000D+00  0.0000000000000D+00
   356  3.5500000000000D+00  0.0000000000000D+00  0.0000000000000D+00
   357  3.5600000000000D+00  0.0000000000000D+00  0.0000000000000D+00
   358  3.5700000000000D+00  0.0000000000000D+00  0.0000000000000D+00
   359  3.5800000000000D+00  0.0000000000000D+00  0.0000000000000D+00
   360  3.5900000000000D+00  0.0000000000000D+00  0.0000000000000D+00
   361  3.6000000000000D+00  0.0000000000000D+00  0.0000000000000D+00
   362  3.6100000000000D+00  0.0000000000000D+00  0.0000000000000D+00
   363  3.6200000000000D+00  0.0000000000000D+00  0.0000000000000D+00
   364  3.6300000000000D+00  0.0000000000000D+00  0.0000000000000D+00
   365  3.6400000000000D+00  0.0000000000000D+00  0.0000000000000D+00
   366  3.6500000000000D+00  0.0000000000000D+00  0.0000000000000D+00
   367  3.6600000000000D+00  0.0000000000000D+00  0.0000000000000D+00
   368  3.6700000000000D+00  0.0000000000000D+00  0.0000000000000D+00
   369  3.6800000000000D+00  0.0000000000000D+00  0.0000000000000D+00
   370  3.6900000000000D+00  0.0000000000000D+00  0.0000000000000D+00
   371  3.7000000000000D+00  0.0000000000000D+00  0.0000000000000D+00
   372  3.7100000000000D+00  0.0000000000000D+00  0.0000000000000D+00
   373  3.7200000000000D+00  0.0000000000000D+00  0.0000000000000D+00
   374  3.7300000000000D+00  0.0000000000000D+00  0.0000000000000D+00
   375  3.7400000000000D+00  0.0000000000000D+00  0.0000000000000D+00
   376  3.7500000000000D+00  0.0000000000000D+00  0.0000000000000D+00
   377  3.7600000000000D+00  0.0000000000000D+00  0.0000000000000D+00
   378  3.7700000000000D+00  0.0000000000000D+00  0.0000000000000D+00
   379  3.7800000000000D+00  0.0000000000000D+00  0.0000000000000D+00
   380  3.7900000000000D+00  0.0000000000000D+00  0.0000000000000D+00
   381  3.8000000000000D+00  0.0000000000000D+00  0.0000000000000D+00
   382  3.8100000000000D+00  0.0000000000000D+00  0.0000000000000D+00
   383  3.8200000000000D+00  0.0000000000000D+00  0.0000000000000D+00
   384  3.8300000000000D+00  0.0000000000000D+00  0.0000000000000D+00
   385  3.8400000000000D+00  0.0000000000000D+00  0.0000000000000D+00
   386  3.8500000000000D+00  0.0000000000000D+00  0.0000000000000D+00
   387  3.8600000000000D+00  0.0000000000000D+00  0.0000000000000D+00
   388  3.8700000000000D+00  0.0000000000000D+00  0.0000000000000D+00
   389  3.8800000000000D+00  0.0000000000000D+00  0.0000000000000D+00
   390  3.8900000000000D+00  0.0000000000000D+00  0.0000000000000D+00
   391  3.9000000000000D+00  0.0000000000000D+00  0.0000000000000D+00
   392  3.9100000000000D+00  0.0000000000000D+00  0.0000000000000D+00
   393  3.9200000000000D+00  0.0000000000000D+00  0.0000000000000D+00
   394  3.9300000000000D+00  0.0000000000000D+00  0.0000000000000D+00
   395  3.9400000000000D+00  0.0000000000000D+00  0.0000000000000D+00
   396  3.9500000000000D+00  0.0000000000000D+00  0.0000000000000D+00
   397  3.9600000000000D+00  0.0000000000000D+00  0.0000000000000D+00
   398  3.9700000000000D+00  0.0000000000000D+00  0.0000000000000D+00
   399  3.9800000000000D+00  0.0000000000000D+00  0.0000000000000D+00
   400  3.9900000000000D+00  0.0000000000000D+00  0.0000000000000D+00
   401  4.0000000000000D+00  0.0000000000000D+00  0.0000000000000D+00
   402  4.0100000000000D+00  0.0000000000000D+00  0.0000000000000D+00
   403  4.0200000000000D+00  0.0000000000000D+00  0.0000000000000D+00
   404  4.0300000000000D+00  0.0000000000000D+00  0.0000000000000D+00
   405  4.0400000000000D+00  0.0000000000000D+00  0.0000000000000D+00
   406  4.0500000000000D+00  0.0000000000000D+00  0.0000000000000D+00
   407  4.0600000000000D+00  0.0000000000000D+00  0.0000000000000D+00
   408  4.0700000000000D+00  0.0000000000000D+00  0.0000000000000D+00
   409  4.0800000000000D+00  0.0000000000000D+00  0.0000000000000D+00
   410  4.0900000000000D+00  0.0000000000000D+00  0.0000000000000D+00
   411  4.1000000000000D+00  0.0000000000000D+00  0.0000000000000D+00
   412  4.1100000000000D+00  0.0000000000000D+00  0.0000000000000D+00
   413  4.1200000000000D+00  0.0000000000000D+00  0.0000000000000D+00
   414  4.1300000000000D+00  0.0000000000000D+00  0.0000000000000D+00
   415  4.1400000000000D+00  0.0000000000000D+00  0.0000000000000D+00
   416  4.1500000000000D+00  0.0000000000000D+00  0.0000000000000D+00
   417  4.1600000000000D+00  0.0000000000000D+00  0.0000000000000D+00
   418  4.1700000000000D+00  0.0000000000000D+00  0.0000000000000D+00
   419  4.1800000000000D+00  0.0000000000000D+00  0.0000000000000D+00
   420  4.1900000000000D+00  0.0000000000000D+00  0.0000000000000D+00
   421  4.2000000000000D+00  0.0000000000000D+00  0.0000000000000D+00
   422  4.2100000000000D+00  0.0000000000000D+00  0.0000000000000D+00