Br    ONCVPSP-3.3.1  r_core=   2.49793   2.49793   2.49793
     35.0000      7.0000      210905    zatom,zion,pspd
     8 -116133   2     4   600     0    pspcod,pspxc,lmax,lloc,mmax,r2well
  5.99000000  0.00000000  0.00000000    rchrg fchrg qchrg
     2     4     3     0    nproj
     3     1           extension_switch
     4     4     0    nprojso
   0                        -2.0235094990634D+00  2.0295711559493D+00
     1  0.0000000000000D+00 -2.6029456368093D-11 -1.1768142016422D-11
     2  1.0000000000000D-02 -2.9034336224224D-02  2.7552640311954D-02
     3  2.0000000000000D-02 -5.8064501853087D-02  5.5072616782358D-02
     4  3.0000000000000D-02 -8.7086129597348D-02  8.2527389170352D-02
     5  4.0000000000000D-02 -1.1609446006323D-01  1.0988466382651D-01
     6  5.0000000000000D-02 -1.4508414890166D-01  1.3711251546670D-01
     7  6.0000000000000D-02 -1.7404907778099D-01  1.6417950712797D-01
     8  7.0000000000000D-02 -2.0298217042699D-01  1.9105480771437D-01
     9  8.0000000000000D-02 -2.3187521494825D-01  2.1770830655218D-01
    10  9.0000000000000D-02 -2.6071869363251D-01  2.4411072438888D-01
    11  1.0000000000000D-01 -2.8950162136138D-01  2.7023372028713D-01
    12  1.1000000000000D-01 -3.1821139374621D-01  2.9604999388564D-01
    13  1.2000000000000D-01 -3.4683364603841D-01  3.2153338252077D-01
    14  1.3000000000000D-01 -3.7535212381133D-01  3.4665895272844D-01
    15  1.4000000000000D-01 -4.0374856635072D-01  3.7140308567289D-01
    16  1.5000000000000D-01 -4.3200260362452D-01  3.9574355607895D-01
    17  1.6000000000000D-01 -4.6009166763302D-01  4.1965960427592D-01
    18  1.7000000000000D-01 -4.8799091886525D-01  4.4313200099520D-01
    19  1.8000000000000D-01 -5.1567318850952D-01  4.6614310459925D-01
    20  1.9000000000000D-01 -5.4310893698341D-01  4.8867691045641D-01
    21  2.0000000000000D-01 -5.7026622926377D-01  5.1071909221513D-01
    22  2.1000000000000D-01 -5.9711072740888D-01  5.3225703477055D-01
    23  2.2000000000000D-01 -6.2360570057476D-01  5.5327985875767D-01
    24  2.3000000000000D-01 -6.4971205273545D-01  5.7377843644684D-01
    25  2.4000000000000D-01 -6.7538836822309D-01  5.9374539896001D-01
    26  2.5000000000000D-01 -7.0059097510927D-01  6.1317513476903D-01
    27  2.6000000000000D-01 -7.2527402635344D-01  6.3206377948041D-01
    28  2.7000000000000D-01 -7.4938959854913D-01  6.5040919695451D-01
    29  2.8000000000000D-01 -7.7288780800356D-01  6.6821095184981D-01
    30  2.9000000000000D-01 -7.9571694379200D-01  6.8547027372630D-01
    31  3.0000000000000D-01 -8.1782361733537D-01  7.0219001288354D-01
    32  3.1000000000000D-01 -8.3915292795856D-01  7.1837458815111D-01
    33  3.2000000000000D-01 -8.5964864379776D-01  7.3402992688915D-01
    34  3.3000000000000D-01 -8.7925339733884D-01  7.4916339749622D-01
    35  3.4000000000000D-01 -8.9790889478556D-01  7.6378373475978D-01
    36  3.5000000000000D-01 -9.1555613837664D-01  7.7790095842095D-01
    37  3.6000000000000D-01 -9.3213566069449D-01  7.9152628535991D-01
    38  3.7000000000000D-01 -9.4758776993701D-01  8.0467203584123D-01
    39  3.8000000000000D-01 -9.6185280505674D-01  8.1735153428938D-01
    40  3.9000000000000D-01 -9.7487139960916D-01  8.2957900509280D-01
    41  4.0000000000000D-01 -9.8658475309570D-01  8.4136946396178D-01
    42  4.1000000000000D-01 -9.9693490853519D-01  8.5273860538875D-01
    43  4.2000000000000D-01 -1.0058650349523D+00  8.6370268678092D-01
    44  4.3000000000000D-01 -1.0133197134322D+00  8.7427840985369D-01
    45  4.4000000000000D-01 -1.0192452253579D+00  8.8448279988888D-01
    46  4.5000000000000D-01 -1.0235898414192D+00  8.9433308347464D-01
    47  4.6000000000000D-01 -1.0263041099642D+00  9.0384656535369D-01
    48  4.7000000000000D-01 -1.0273411432490D+00  9.1304050501330D-01
    49  4.8000000000000D-01 -1.0266569001370D+00  9.2193199365434D-01
    50  4.9000000000000D-01 -1.0242104637992D+00  9.3053783217704D-01
    51  5.0000000000000D-01 -1.0199643129742D+00  9.3887441081894D-01
    52  5.1000000000000D-01 -1.0138845853626D+00  9.4695759107482D-01
    53  5.2000000000000D-01 -1.0059413317504D+00  9.5480259051977D-01
    54  5.3000000000000D-01 -9.9610875948765D-01  9.6242387114466D-01
    55  5.4000000000000D-01 -9.8436546398027D-01  9.6983503179901D-01
    56  5.5000000000000D-01 -9.7069464689798D-01  9.7704870531791D-01
    57  5.6000000000000D-01 -9.5508431984877D-01  9.8407646088974D-01
    58  5.7000000000000D-01 -9.3752749232508D-01  9.9092871219743D-01
    59  5.8000000000000D-01 -9.1802234278853D-01  9.9761463184058D-01
    60  5.9000000000000D-01 -8.9657237182613D-01  1.0041420725165D+00
    61  6.0000000000000D-01 -8.7318653638420D-01  1.0105174954076D+00
    62  6.1000000000000D-01 -8.4787936416286D-01  1.0167459061890D+00
    63  6.2000000000000D-01 -8.2067104733761D-01  1.0228307990341D+00
    64  6.3000000000000D-01 -7.9158751486065D-01  1.0287741089596D+00
    65  6.4000000000000D-01 -7.6066048268675D-01  1.0345761728108D+00
    66  6.5000000000000D-01 -7.2792748136282D-01  1.0402356991465D+00
    67  6.6000000000000D-01 -6.9343186051925D-01  1.0457497472431D+00
    68  6.7000000000000D-01 -6.5722276990232D-01  1.0511137153892D+00
    69  6.8000000000000D-01 -6.1935511669027D-01  1.0563213386022D+00
    70  6.9000000000000D-01 -5.7988949894213D-01  1.0613646958478D+00
    71  7.0000000000000D-01 -5.3889211513518D-01  1.0662342268010D+00
    72  7.1000000000000D-01 -4.9643464985489D-01  1.0709187581379D+00
    73  7.2000000000000D-01 -4.5259413581046D-01  1.0754055393011D+00
    74  7.3000000000000D-01 -4.0745279245759D-01  1.0796802876361D+00
    75  7.4000000000000D-01 -3.6109784161805D-01  1.0837272427468D+00
    76  7.5000000000000D-01 -3.1362130059339D-01  1.0875292298749D+00
    77  7.6000000000000D-01 -2.6511975337512D-01  1.0910677320588D+00
    78  7.7000000000000D-01 -2.1569410065792D-01  1.0943229707884D+00
    79  7.8000000000000D-01 -1.6544928946311D-01  1.0972739948224D+00
    80  7.9000000000000D-01 -1.1449402327828D-01  1.0998987767979D+00
    81  8.0000000000000D-01 -6.2940453713133D-02  1.1021743172188D+00
    82  8.1000000000000D-01 -1.0903854762447D-02  1.1040767553717D+00
    83  8.2000000000000D-01  4.1497719146172D-02  1.1055814866804D+00
    84  8.3000000000000D-01  9.4143790061083D-02  1.1066632859767D+00
    85  8.4000000000000D-01  1.4691182703664D-01  1.1072964361324D+00
    86  8.5000000000000D-01  1.9967762887826D-01  1.1074548614660D+00
    87  8.6000000000000D-01  2.5231571763172D-01  1.1071122653141D+00
    88  8.7000000000000D-01  3.0469974128718D-01  1.1062422711282D+00
    89  8.8000000000000D-01  3.5670288411645D-01  1.1048185664412D+00
    90  8.9000000000000D-01  4.0819828301697D-01  1.1028150490251D+00
    91  9.0000000000000D-01  4.5905944819767D-01  1.1002059745492D+00
    92  9.1000000000000D-01  5.0916068651157D-01  1.0969661050342D+00
    93  9.2000000000000D-01  5.5837752571630D-01  1.0930708573895D+00
    94  9.3000000000000D-01  6.0658713792828D-01  1.0884964513165D+00
    95  9.4000000000000D-01  6.5366876052869D-01  1.0832200558555D+00
    96  9.5000000000000D-01  6.9950411277861D-01  1.0772199338607D+00
    97  9.6000000000000D-01  7.4397780640936D-01  1.0704755836861D+00
    98  9.7000000000000D-01  7.8697774846924D-01  1.0629678773797D+00
    99  9.8000000000000D-01  8.2839553473109D-01  1.0546791946896D+00
   100  9.9000000000000D-01  8.6812683199703D-01  1.0455935522053D+00
   101  1.0000000000000D+00  9.0607174767502D-01  1.0356967269734D+00
   102  1.0100000000000D+00  9.4213518504851D-01  1.0249763739473D+00
   103  1.0200000000000D+00  9.7622718271373D-01  1.0134221366600D+00
   104  1.0300000000000D+00  1.0082632367212D+00  1.0010257505320D+00
   105  1.0400000000000D+00  1.0381646040244D+00  9.8778113826010D-01
   106  1.0500000000000D+00  1.0658585859112D+00  9.7368449676431D-01
   107  1.0600000000000D+00  1.0912787901791D+00  9.5873437520972D-01
   108  1.0700000000000D+00  1.1143653708961D+00  9.4293174365501D-01
   109  1.0800000000000D+00  1.1350652446852D+00  9.2628005192357D-01
   110  1.0900000000000D+00  1.1533322825661D+00  9.0878527833531D-01
   111  1.1000000000000D+00  1.1691274764841D+00  8.9045596798007D-01
   112  1.1100000000000D+00  1.1824190797734D+00  8.7130326026536D-01
   113  1.1200000000000D+00  1.1931827209002D+00  8.5134090551495D-01
   114  1.1300000000000D+00  1.2014014899606D+00  8.3058527045126D-01
   115  1.1400000000000D+00  1.2070659974914D+00  8.0905533243164D-01
   116  1.1500000000000D+00  1.2101744053110D+00  7.8677266237750D-01
   117  1.1600000000000D+00  1.2107324291975D+00  7.6376139637536D-01
   118  1.1700000000000D+00  1.2087533133559D+00  7.4004819599063D-01
   119  1.1800000000000D+00  1.2042577767060D+00  7.1566219737091D-01
   120  1.1900000000000D+00  1.1972739311986D+00  6.9063494929022D-01
   121  1.2000000000000D+00  1.1878371724591D+00  6.6500034032591D-01
   122  1.2100000000000D+00  1.1759900431689D+00  6.3879451540710D-01
   123  1.2200000000000D+00  1.1617820697258D+00  6.1205578202967D-01
   124  1.2300000000000D+00  1.1452695728540D+00  5.8482450648776D-01
   125  1.2400000000000D+00  1.1265154529327D+00  5.5714300051273D-01
   126  1.2500000000000D+00  1.1055889508944D+00  5.2905539874582D-01
   127  1.2600000000000D+00  1.0825653857154D+00  5.0060752754230D-01
   128  1.2700000000000D+00  1.0575258695863D+00  4.7184676563106D-01
   129  1.2800000000000D+00  1.0305570019039D+00  4.4282189717651D-01
   130  1.2900000000000D+00  1.0017505434142D+00  4.1358295786676D-01
   131  1.3000000000000D+00  9.7120307186009D-01  3.8418107466020D-01
   132  1.3100000000000D+00  9.3901562053712D-01  3.5466829984384D-01
   133  1.3200000000000D+00  9.0529330133304D-01  3.2509744012454D-01
   134  1.3300000000000D+00  8.7014491380722D-01  2.9552188146437D-01
   135  1.3400000000000D+00  8.3368254193884D-01  2.6599541040210D-01
   136  1.3500000000000D+00  7.9602114028524D-01  2.3657203264118D-01
   137  1.3600000000000D+00  7.5727811124906D-01  2.0730578966928D-01
   138  1.3700000000000D+00  7.1757287525416D-01  1.7825057421158D-01
   139  1.3800000000000D+00  6.7702643564162D-01  1.4945994531535D-01
   140  1.3900000000000D+00  6.3576094009161D-01  1.2098694386946D-01
   141  1.4000000000000D+00  5.9389924043783D-01  9.2883909369056D-02
   142  1.4100000000000D+00  5.5156445268707D-01  6.5202298716886D-02
   143  1.4200000000000D+00  5.0887951912111D-01  3.7992507877932D-02
   144  1.4300000000000D+00  4.6596677424972D-01  1.1303697137514D-02
   145  1.4400000000000D+00  4.2294751648239D-01 -1.4816379226433D-02
   146  1.4500000000000D+00  3.7994158724210D-01 -4.0321538137312D-02
   147  1.4600000000000D+00  3.3706695925453D-01 -6.5167327046589D-02
   148  1.4700000000000D+00  2.9443933578327D-01 -8.9311176648553D-02
   149  1.4800000000000D+00  2.5217176226224D-01 -1.1271254640076D-01
   150  1.4900000000000D+00  2.1037425216900D-01 -1.3533306206834D-01
   151  1.5000000000000D+00  1.6915342833718D-01 -1.5713664483956D-01
   152  1.5100000000000D+00  1.2861218140629D-01 -1.7808963130545D-01
   153  1.5200000000000D+00  8.8849346580208D-02 -1.9816088386363D-01
   154  1.5300000000000D+00  4.9959399990690D-02 -2.1732189103901D-01
   155  1.5400000000000D+00  1.2032175957941D-02 -2.3554685722226D-01
   156  1.5500000000000D+00 -2.4847394102902D-02 -2.5281278158430D-01
   157  1.5600000000000D+00 -6.0599519650080D-02 -2.6909952557913D-01
   158  1.5700000000000D+00 -9.5149765728212D-02 -2.8438986908742D-01
   159  1.5800000000000D+00 -1.2842924280057D-01 -2.9866955454641D-01
   160  1.5900000000000D+00 -1.6037477203480D-01 -3.1192731933553D-01
   161  1.6000000000000D+00 -1.9092902460050D-01 -3.2415491585293D-01
   162  1.6100000000000D+00 -2.2004063544503D-01 -3.3534711961086D-01
   163  1.6200000000000D+00 -2.4766429053629D-01 -3.4550172498889D-01
   164  1.6300000000000D+00 -2.7376078806445D-01 -3.5461952898181D-01
   165  1.6400000000000D+00 -2.9829707306409D-01 -3.6270430280144D-01
   166  1.6500000000000D+00 -3.2124624597228D-01 -3.6976275167833D-01
   167  1.6600000000000D+00 -3.4258754503769D-01 -3.7580446293064D-01
   168  1.6700000000000D+00 -3.6230630315224D-01 -3.8084184267059D-01
   169  1.6800000000000D+00 -3.8039387941709D-01 -3.8489004139569D-01
   170  1.6900000000000D+00 -3.9684756612740D-01 -3.8796686888500D-01
   171  1.7000000000000D+00 -4.1167047179794D-01 -3.9009269878621D-01
   172  1.7100000000000D+00 -4.2487138109906D-01 -3.9129036339575D-01
   173  1.7200000000000D+00 -4.3646459253025D-01 -3.9158503910770D-01
   174  1.7300000000000D+00 -4.4646973496192D-01 -3.9100412314741D-01
   175  1.7400000000000D+00 -4.5491156396769D-01 -3.8957710210702D-01
   176  1.7500000000000D+00 -4.6181973940322D-01 -3.8733541303672D-01
   177  1.7600000000000D+00 -4.6722858515274D-01 -3.8431229761073D-01
   178  1.7700000000000D+00 -4.7117683285616D-01 -3.8054265026599D-01
   179  1.7800000000000D+00 -4.7370735048014D-01 -3.7606286081598D-01
   180  1.7900000000000D+00 -4.7486685787340D-01 -3.7091065255732D-01
   181  1.8000000000000D+00 -4.7470563012577D-01 -3.6512491637191D-01
   182  1.8100000000000D+00 -4.7327719107768D-01 -3.5874554189268D-01
   183  1.8200000000000D+00 -4.7063799787228D-01 -3.5181324630220D-01
   184  1.8300000000000D+00 -4.6684711886251D-01 -3.4436940176007D-01
   185  1.8400000000000D+00 -4.6196590606810D-01 -3.3645586220062D-01
   186  1.8500000000000D+00 -4.5605766414424D-01 -3.2811479030029D-01
   187  1.8600000000000D+00 -4.4918731755631D-01 -3.1938848557204D-01
   188  1.8700000000000D+00 -4.4142107746358D-01 -3.1031921419505D-01
   189  1.8800000000000D+00 -4.3282611032024D-01 -3.0094904161916D-01
   190  1.8900000000000D+00 -4.2347020957407D-01 -2.9131966855294D-01
   191  1.9000000000000D+00 -4.1342147221160D-01 -2.8147227115959D-01
   192  1.9100000000000D+00 -4.0274798204853D-01 -2.7144734639717D-01
   193  1.9200000000000D+00 -3.9151750046253D-01 -2.6128456271884D-01
   194  1.9300000000000D+00 -3.7979716764775D-01 -2.5102261771500D-01
   195  1.9400000000000D+00 -3.6765321366497D-01 -2.4069910215542D-01
   196  1.9500000000000D+00 -3.5515068320092D-01 -2.3035037242759D-01
   197  1.9600000000000D+00 -3.4235317298551D-01 -2.2001143069393D-01
   198  1.9700000000000D+00 -3.2932258478775D-01 -2.0971581420100D-01
   199  1.9800000000000D+00 -3.1611889465361D-01 -1.9949549398895D-01
   200  1.9900000000000D+00 -3.0279993840128D-01 -1.8938078291013D-01
   201  2.0000000000000D+00 -2.8942121707254D-01 -1.7940025476834D-01
   202  2.0100000000000D+00 -2.7603571909927D-01 -1.6958067283382D-01
   203  2.0200000000000D+00 -2.6269376465886D-01 -1.5994693042565D-01
   204  2.0300000000000D+00 -2.4944286881526D-01 -1.5052200175936D-01
   205  2.0400000000000D+00 -2.3632762619032D-01 -1.4132690435461D-01
   206  2.0500000000000D+00 -2.2338961814028D-01 -1.3238067340830D-01
   207  2.0600000000000D+00 -2.1066733921931D-01 -1.2370034645266D-01
   208  2.0700000000000D+00 -1.9819614901035D-01 -1.1530096122803D-01
   209  2.0800000000000D+00 -1.8600824303880D-01 -1.0719556359055D-01
   210  2.0900000000000D+00 -1.7413264747766D-01 -9.9395227688365D-02
   211  2.1000000000000D+00 -1.6259523597932D-01 -9.1909087510737D-02
   212  2.1100000000000D+00 -1.5141876609150D-01 -8.4744378492802D-02
   213  2.1200000000000D+00 -1.4062294031610D-01 -7.7906491547751D-02
   214  2.1300000000000D+00 -1.3022448483491D-01 -7.1399036073565D-02
   215  2.1400000000000D+00 -1.2023725036243D-01 -6.5223913998114D-02
   216  2.1500000000000D+00 -1.1067233278021D-01 -5.9381403652423D-02
   217  2.1600000000000D+00 -1.0153821028862D-01 -5.3870251834219D-02
   218  2.1700000000000D+00 -9.2840907489988D-02 -4.8687778663949D-02
   219  2.1800000000000D+00 -8.4584149771040D-02 -4.3829979061586D-02
   220  2.1900000000000D+00 -7.6769559615148D-02 -3.9291643118124D-02
   221  2.2000000000000D+00 -6.9396959139428D-02 -3.5066522687054D-02
   222  2.2100000000000D+00 -6.2464286340439D-02 -3.1147333114895D-02
   223  2.2200000000000D+00 -5.5968088632038D-02 -2.7526001957093D-02
   224  2.2300000000000D+00 -4.9903862151567D-02 -2.4193853032860D-02
   225  2.2400000000000D+00 -4.4266496603933D-02 -2.1141836623419D-02
   226  2.2500000000000D+00 -3.9049584683110D-02 -1.8360268878020D-02
   227  2.2600000000000D+00 -3.4245342173738D-02 -1.5838832283162D-02
   228  2.2700000000000D+00 -2.9844372262877D-02 -1.3566515572284D-02
   229  2.2800000000000D+00 -2.5835653263824D-02 -1.1531651140850D-02
   230  2.2900000000000D+00 -2.2205605559315D-02 -9.7215538745112D-03
   231  2.3000000000000D+00 -1.8938952548801D-02 -8.1229333257171D-03
   232  2.3100000000000D+00 -1.6018853300867D-02 -6.7219918921476D-03
   233  2.3200000000000D+00 -1.3427381769174D-02 -5.5046728138243D-03
   234  2.3300000000000D+00 -1.1145465090830D-02 -4.4566694013691D-03
   235  2.3400000000000D+00 -9.1532046268952D-03 -3.5636006894411D-03
   236  2.3500000000000D+00 -7.4301028794580D-03 -2.8111442506707D-03
   237  2.3600000000000D+00 -5.9552512122975D-03 -2.1851501407806D-03
   238  2.3700000000000D+00 -4.7075423384019D-03 -1.6717641085314D-03
   239  2.3800000000000D+00 -3.6658649953158D-03 -1.2575409211181D-03
   240  2.3900000000000D+00 -2.8092886574925D-03 -9.2955134242389D-04
   241  2.4000000000000D+00 -2.1172413714329D-03 -6.7548440390182D-04
   242  2.4100000000000D+00 -1.5696708965451D-03 -4.8373981998795D-04
   243  2.4200000000000D+00 -1.1475967691386D-03 -3.4368427995367D-04
   244  2.4300000000000D+00 -8.3166501045220D-04 -2.4505713261484D-04
   245  2.4400000000000D+00 -6.0372539430700D-04 -1.7868075636696D-04
   246  2.4500000000000D+00 -4.4508784897555D-04 -1.3584012243639D-04
   247  2.4600000000000D+00 -3.4712915879422D-04 -1.1212856786160D-04
   248  2.4700000000000D+00 -2.9925214054739D-04 -1.0305419285294D-04
   249  2.4800000000000D+00 -2.9114042656731D-04 -1.0479017736936D-04
   250  2.4900000000000D+00 -2.8349375780514D-04 -1.0395463989419D-04
   251  2.5000000000000D+00 -2.4672731514021D-04 -9.0853450878723D-05
   252  2.5100000000000D+00 -1.6076224665998D-04 -5.9287131572403D-05
   253  2.5200000000000D+00 -6.4494591027337D-05 -2.3772188192179D-05
   254  2.5300000000000D+00  8.6512073358093D-06  3.2093339186888D-06
   255  2.5400000000000D+00  2.7566014718991D-05  1.0233496701046D-05
   256  2.5500000000000D+00  1.7752735836796D-05  6.5933269657488D-06
   257  2.5600000000000D+00 -1.3793863779438D-06 -5.1245073162954D-07
   258  2.5700000000000D+00 -5.9534367274777D-06 -2.2128716335892D-06
   259  2.5800000000000D+00 -4.4998577365749D-06 -1.6732920218388D-06
   260  2.5900000000000D+00  9.4572307425035D-08  3.4797573524105D-08
   261  2.6000000000000D+00  6.9154246273244D-07  2.5445080433347D-07
   262  2.6100000000000D+00  6.0196298772653D-07  2.2149032729066D-07
   263  2.6200000000000D+00  5.8307281998580D-10  2.1453975139019D-10
   264  2.6300000000000D+00  0.0000000000000D+00  0.0000000000000D+00
   265  2.6400000000000D+00  0.0000000000000D+00  0.0000000000000D+00
   266  2.6500000000000D+00  0.0000000000000D+00  0.0000000000000D+00
   267  2.6600000000000D+00  0.0000000000000D+00  0.0000000000000D+00
   268  2.6700000000000D+00  0.0000000000000D+00  0.0000000000000D+00
   269  2.6800000000000D+00  0.0000000000000D+00  0.0000000000000D+00
   270  2.6900000000000D+00  0.0000000000000D+00  0.0000000000000D+00
   271  2.7000000000000D+00  0.0000000000000D+00  0.0000000000000D+00
   272  2.7100000000000D+00  0.0000000000000D+00  0.0000000000000D+00
   273  2.7200000000000D+00  0.0000000000000D+00  0.0000000000000D+00
   274  2.7300000000000D+00  0.0000000000000D+00  0.0000000000000D+00
   275  2.7400000000000D+00  0.0000000000000D+00  0.0000000000000D+00
   276  2.7500000000000D+00  0.0000000000000D+00  0.0000000000000D+00
   277  2.7600000000000D+00  0.0000000000000D+00  0.0000000000000D+00
   278  2.7700000000000D+00  0.0000000000000D+00  0.0000000000000D+00
   279  2.7800000000000D+00  0.0000000000000D+00  0.0000000000000D+00
   280  2.7900000000000D+00  0.0000000000000D+00  0.0000000000000D+00
   281  2.8000000000000D+00  0.0000000000000D+00  0.0000000000000D+00
   282  2.8100000000000D+00  0.0000000000000D+00  0.0000000000000D+00
   283  2.8200000000000D+00  0.0000000000000D+00  0.0000000000000D+00
   284  2.8300000000000D+00  0.0000000000000D+00  0.0000000000000D+00
   285  2.8400000000000D+00  0.0000000000000D+00  0.0000000000000D+00
   286  2.8500000000000D+00  0.0000000000000D+00  0.0000000000000D+00
   287  2.8600000000000D+00  0.0000000000000D+00  0.0000000000000D+00
   288  2.8700000000000D+00  0.0000000000000D+00  0.0000000000000D+00
   289  2.8800000000000D+00  0.0000000000000D+00  0.0000000000000D+00
   290  2.8900000000000D+00  0.0000000000000D+00  0.0000000000000D+00
   291  2.9000000000000D+00  0.0000000000000D+00  0.0000000000000D+00
   292  2.9100000000000D+00  0.0000000000000D+00  0.0000000000000D+00
   293  2.9200000000000D+00  0.0000000000000D+00  0.0000000000000D+00
   294  2.9300000000000D+00  0.0000000000000D+00  0.0000000000000D+00
   295  2.9400000000000D+00  0.0000000000000D+00  0.0000000000000D+00
   296  2.9500000000000D+00  0.0000000000000D+00  0.0000000000000D+00
   297  2.9600000000000D+00  0.0000000000000D+00  0.0000000000000D+00
   298  2.9700000000000D+00  0.0000000000000D+00  0.0000000000000D+00
   299  2.9800000000000D+00  0.0000000000000D+00  0.0000000000000D+00
   300  2.9900000000000D+00  0.0000000000000D+00  0.0000000000000D+00
   301  3.0000000000000D+00  0.0000000000000D+00  0.0000000000000D+00
   302  3.0100000000000D+00  0.0000000000000D+00  0.0000000000000D+00
   303  3.0200000000000D+00  0.0000000000000D+00  0.0000000000000D+00
   304  3.0300000000000D+00  0.0000000000000D+00  0.0000000000000D+00
   305  3.0400000000000D+00  0.0000000000000D+00  0.0000000000000D+00
   306  3.0500000000000D+00  0.0000000000000D+00  0.0000000000000D+00
   307  3.0600000000000D+00  0.0000000000000D+00  0.0000000000000D+00
   308  3.0700000000000D+00  0.0000000000000D+00  0.0000000000000D+00
   309  3.0800000000000D+00  0.0000000000000D+00  0.0000000000000D+00
   310  3.0900000000000D+00  0.0000000000000D+00  0.0000000000000D+00
   311  3.1000000000000D+00  0.0000000000000D+00  0.0000000000000D+00
   312  3.1100000000000D+00  0.0000000000000D+00  0.0000000000000D+00
   313  3.1200000000000D+00  0.0000000000000D+00  0.0000000000000D+00
   314  3.1300000000000D+00  0.0000000000000D+00  0.0000000000000D+00
   315  3.1400000000000D+00  0.0000000000000D+00  0.0000000000000D+00
   316  3.1500000000000D+00  0.0000000000000D+00  0.0000000000000D+00
   317  3.1600000000000D+00  0.0000000000000D+00  0.0000000000000D+00
   318  3.1700000000000D+00  0.0000000000000D+00  0.0000000000000D+00
   319  3.1800000000000D+00  0.0000000000000D+00  0.0000000000000D+00
   320  3.1900000000000D+00  0.0000000000000D+00  0.0000000000000D+00
   321  3.2000000000000D+00  0.0000000000000D+00  0.0000000000000D+00
   322  3.2100000000000D+00  0.0000000000000D+00  0.0000000000000D+00
   323  3.2200000000000D+00  0.0000000000000D+00  0.0000000000000D+00
   324  3.2300000000000D+00  0.0000000000000D+00  0.0000000000000D+00
   325  3.2400000000000D+00  0.0000000000000D+00  0.0000000000000D+00
   326  3.2500000000000D+00  0.0000000000000D+00  0.0000000000000D+00
   327  3.2600000000000D+00  0.0000000000000D+00  0.0000000000000D+00
   328  3.2700000000000D+00  0.0000000000000D+00  0.0000000000000D+00
   329  3.2800000000000D+00  0.0000000000000D+00  0.0000000000000D+00
   330  3.2900000000000D+00  0.0000000000000D+00  0.0000000000000D+00
   331  3.3000000000000D+00  0.0000000000000D+00  0.0000000000000D+00
   332  3.3100000000000D+00  0.0000000000000D+00  0.0000000000000D+00
   333  3.3200000000000D+00  0.0000000000000D+00  0.0000000000000D+00
   334  3.3300000000000D+00  0.0000000000000D+00  0.0000000000000D+00
   335  3.3400000000000D+00  0.0000000000000D+00  0.0000000000000D+00
   336  3.3500000000000D+00  0.0000000000000D+00  0.0000000000000D+00
   337  3.3600000000000D+00  0.0000000000000D+00  0.0000000000000D+00
   338  3.3700000000000D+00  0.0000000000000D+00  0.0000000000000D+00
   339  3.3800000000000D+00  0.0000000000000D+00  0.0000000000000D+00
   340  3.3900000000000D+00  0.0000000000000D+00  0.0000000000000D+00
   341  3.4000000000000D+00  0.0000000000000D+00  0.0000000000000D+00
   342  3.4100000000000D+00  0.0000000000000D+00  0.0000000000000D+00
   343  3.4200000000000D+00  0.0000000000000D+00  0.0000000000000D+00
   344  3.4300000000000D+00  0.0000000000000D+00  0.0000000000000D+00
   345  3.4400000000000D+00  0.0000000000000D+00  0.0000000000000D+00
   346  3.4500000000000D+00  0.0000000000000D+00  0.0000000000000D+00
   347  3.4600000000000D+00  0.0000000000000D+00  0.0000000000000D+00
   348  3.4700000000000D+00  0.0000000000000D+00  0.0000000000000D+00
   349  3.4800000000000D+00  0.0000000000000D+00  0.0000000000000D+00
   350  3.4900000000000D+00  0.0000000000000D+00  0.0000000000000D+00
   351  3.5000000000000D+00  0.0000000000000D+00  0.0000000000000D+00
   352  3.5100000000000D+00  0.0000000000000D+00  0.0000000000000D+00
   353  3.5200000000000D+00  0.0000000000000D+00  0.0000000000000D+00
   354  3.5300000000000D+00  0.0000000000000D+00  0.0000000000000D+00
   355  3.5400000000000D+00  0.0000000000000D+00  0.0000000000000D+00
   356  3.5500000000000D+00  0.0000000000000D+00  0.0000000000000D+00
   357  3.5600000000000D+00  0.0000000000000D+00  0.0000000000000D+00
   358  3.5700000000000D+00  0.0000000000000D+00  0.0000000000000D+00
   359  3.5800000000000D+00  0.0000000000000D+00  0.0000000000000D+00
   360  3.5900000000000D+00  0.0000000000000D+00  0.0000000000000D+00
   361  3.6000000000000D+00  0.0000000000000D+00  0.0000000000000D+00
   362  3.6100000000000D+00  0.0000000000000D+00  0.0000000000000D+00
   363  3.6200000000000D+00  0.0000000000000D+00  0.0000000000000D+00
   364  3.6300000000000D+00  0.0000000000000D+00  0.0000000000000D+00
   365  3.6400000000000D+00  0.0000000000000D+00  0.0000000000000D+00
   366  3.6500000000000D+00  0.0000000000000D+00  0.0000000000000D+00
   367  3.6600000000000D+00  0.0000000000000D+00  0.0000000000000D+00
   368  3.6700000000000D+00  0.0000000000000D+00  0.0000000000000D+00
   369  3.6800000000000D+00  0.0000000000000D+00  0.0000000000000D+00
   370  3.6900000000000D+00  0.0000000000000D+00  0.0000000000000D+00
   371  3.7000000000000D+00  0.0000000000000D+00  0.0000000000000D+00
   372  3.7100000000000D+00  0.0000000000000D+00  0.0000000000000D+00
   373  3.7200000000000D+00  0.0000000000000D+00  0.0000000000000D+00
   374  3.7300000000000D+00  0.0000000000000D+00  0.0000000000000D+00
   375  3.7400000000000D+00  0.0000000000000D+00  0.0000000000000D+00
   376  3.7500000000000D+00  0.0000000000000D+00  0.0000000000000D+00
   377  3.7600000000000D+00  0.0000000000000D+00  0.0000000000000D+00
   378  3.7700000000000D+00  0.0000000000000D+00  0.0000000000000D+00
   379  3.7800000000000D+00  0.0000000000000D+00  0.0000000000000D+00
   380  3.7900000000000D+00  0.0000000000000D+00  0.0000000000000D+00
   381  3.8000000000000D+00  0.0000000000000D+00  0.0000000000000D+00
   382  3.8100000000000D+00  0.0000000000000D+00  0.0000000000000D+00
   383  3.8200000000000D+00  0.0000000000000D+00  0.0000000000000D+00
   384  3.8300000000000D+00  0.0000000000000D+00  0.0000000000000D+00
   385  3.8400000000000D+00  0.0000000000000D+00  0.0000000000000D+00
   386  3.8500000000000D+00  0.0000000000000D+00  0.0000000000000D+00
   387  3.8600000000000D+00  0.0000000000000D+00  0.0000000000000D+00
   388  3.8700000000000D+00  0.0000000000000D+00  0.0000000000000D+00
   389  3.8800000000000D+00  0.0000000000000D+00  0.0000000000000D+00
   390  3.8900000000000D+00  0.0000000000000D+00  0.0000000000000D+00
   391  3.9000000000000D+00  0.0000000000000D+00  0.0000000000000D+00
   392  3.9100000000000D+00  0.0000000000000D+00  0.0000000000000D+00
   393  3.9200000000000D+00  0.0000000000000D+00  0.0000000000000D+00
   394  3.9300000000000D+00  0.0000000000000D+00  0.0000000000000D+00
   395  3.9400000000000D+00  0.0000000000000D+00  0.0000000000000D+00
   396  3.9500000000000D+00  0.0000000000000D+00  0.0000000000000D+00
   397  3.9600000000000D+00  0.0000000000000D+00  0.0000000000000D+00
   398  3.9700000000000D+00  0.0000000000000D+00  0.0000000000000D+00
   399  3.9800000000000D+00  0.0000000000000D+00  0.0000000000000D+00
   400  3.9900000000000D+00  0.0000000000000D+00  0.0000000000000D+00
   401  4.0000000000000D+00  0.0000000000000D+00  0.0000000000000D+00
   402  4.0100000000000D+00  0.0000000000000D+00  0.0000000000000D+00
   403  4.0200000000000D+00  0.0000000000000D+00  0.0000000000000D+00
   404  4.0300000000000D+00  0.0000000000000D+00  0.0000000000000D+00
   405  4.0400000000000D+00  0.0000000000000D+00  0.0000000000000D+00
   406  4.0500000000000D+00  0.0000000000000D+00  0.0000000000000D+00
   407  4.0600000000000D+00  0.0000000000000D+00  0.0000000000000D+00
   408  4.0700000000000D+00  0.0000000000000D+00  0.0000000000000D+00
   409  4.0800000000000D+00  0.0000000000000D+00  0.0000000000000D+00
   410  4.0900000000000D+00  0.0000000000000D+00  0.0000000000000D+00
   411  4.1000000000000D+00  0.0000000000000D+00  0.0000000000000D+00
   412  4.1100000000000D+00  0.0000000000000D+00  0.0000000000000D+00
   413  4.1200000000000D+00  0.0000000000000D+00  0.0000000000000D+00
   414  4.1300000000000D+00  0.0000000000000D+00  0.0000000000000D+00
   415  4.1400000000000D+00  0.0000000000000D+00  0.0000000000000D+00
   416  4.1500000000000D+00  0.0000000000000D+00  0.0000000000000D+00
   417  4.1600000000000D+00  0.0000000000000D+00  0.0000000000000D+00
   418  4.1700000000000D+00  0.0000000000000D+00  0.0000000000000D+00
   419  4.1800000000000D+00  0.0000000000000D+00  0.0000000000000D+00
   420  4.1900000000000D+00  0.0000000000000D+00  0.0000000000000D+00
   421  4.2000000000000D+00  0.0000000000000D+00  0.0000000000000D+00
   422  4.2100000000000D+00  0.0000000000000D+00  0.0000000000000D+00