C     ONCVPSP-3.3.1  r_core=   1.42330   1.40643
      6.0000      4.0000      210905    zatom,zion,pspd
     8 -116133   1     4   600     0    pspcod,pspxc,lmax,lloc,mmax,r2well
  5.99000000  0.00000000  0.00000000    rchrg fchrg qchrg
     2     2     0     0    nproj
     3     1           extension_switch
     4     0     0    nprojso
   0                         6.6201261073070D-01  7.5767717341596D+00
     1  0.0000000000000D+00 -1.6100670796604D-10 -5.4126847448543D-10
     2  1.0000000000000D-02 -3.2192269302314D-02  6.8111598150513D-02
     3  2.0000000000000D-02 -6.4289277272979D-02  1.3607399131848D-01
     4  3.0000000000000D-02 -9.6195553289789D-02  2.0373874258155D-01
     5  4.0000000000000D-02 -1.2781521334266D-01  2.7095894182985D-01
     6  5.0000000000000D-02 -1.5905176628254D-01  3.3758994604270D-01
     7  6.0000000000000D-02 -1.8980793548866D-01  4.0349009220079D-01
     8  7.0000000000000D-02 -2.1998550090591D-01  4.6852137435764D-01
     9  8.0000000000000D-02 -2.4948516624256D-01  5.3255007693564D-01
    10  9.0000000000000D-02 -2.7820645591820D-01  5.9544735697362D-01
    11  1.0000000000000D-01 -3.0604764611114D-01  6.5708976882601D-01
    12  1.1000000000000D-01 -3.3290573397458D-01  7.1735972568610D-01
    13  1.2000000000000D-01 -3.5867644877240D-01  7.7614589326620D-01
    14  1.3000000000000D-01 -3.8325430832853D-01  8.3334351200006D-01
    15  1.4000000000000D-01 -4.0653272378932D-01  8.8885464522416D-01
    16  1.5000000000000D-01 -4.2840415526777D-01  9.4258835192704D-01
    17  1.6000000000000D-01 -4.4876032047180D-01  9.9446078381358D-01
    18  1.7000000000000D-01 -4.6749245791928D-01  1.0443952075962D+00
    19  1.8000000000000D-01 -4.8449164580956D-01  1.0923219545803D+00
    20  1.9000000000000D-01 -4.9964917705940D-01  1.1381783007377D+00
    21  2.0000000000000D-01 -5.1285699042071D-01  1.1819082815451D+00
    22  2.1000000000000D-01 -5.2400815698289D-01  1.2234624468816D+00
    23  2.2000000000000D-01 -5.3299742072547D-01  1.2627975622237D+00
    24  2.3000000000000D-01 -5.3972179113213D-01  1.2998762632179D+00
    25  2.4000000000000D-01 -5.4408118520849D-01  1.3346666714551D+00
    26  2.5000000000000D-01 -5.4597911556784D-01  1.3671419798827D+00
    27  2.6000000000000D-01 -5.4532342056637D-01  1.3972800167797D+00
    28  2.7000000000000D-01 -5.4202703178843D-01  1.4250627975605D+00
    29  2.8000000000000D-01 -5.3600877350824D-01  1.4504760738707D+00
    30  2.9000000000000D-01 -5.2719418809382D-01  1.4735088894752D+00
    31  3.0000000000000D-01 -5.1551638067952D-01  1.4941531523245D+00
    32  3.1000000000000D-01 -5.0091687582181D-01  1.5124032319103D+00
    33  3.2000000000000D-01 -4.8334647827633D-01  1.5282555905898D+00
    34  3.3000000000000D-01 -4.6276612950241D-01  1.5417084569771D+00
    35  3.4000000000000D-01 -4.3914775102001D-01  1.5527615487705D+00
    36  3.5000000000000D-01 -4.1247506532379D-01  1.5614158515232D+00
    37  3.6000000000000D-01 -3.8274438470766D-01  1.5676734588720D+00
    38  3.7000000000000D-01 -3.4996535807753D-01  1.5715374786427D+00
    39  3.8000000000000D-01 -3.1416166564178D-01  1.5730120080494D+00
    40  3.9000000000000D-01 -2.7537165127205D-01  1.5721021799325D+00
    41  4.0000000000000D-01 -2.3364888233258D-01  1.5688142806427D+00
    42  4.1000000000000D-01 -1.8906262688879D-01  1.5631559388053D+00
    43  4.2000000000000D-01 -1.4169823843374D-01  1.5551363828022D+00
    44  4.3000000000000D-01 -9.1657438618460D-02  1.5447667634234D+00
    45  4.4000000000000D-01 -3.9058488944537D-02  1.5320605367733D+00
    46  4.5000000000000D-01  1.5963757021962D-02  1.5170339012063D+00
    47  4.6000000000000D-01  7.3257928624275D-02  1.4997062808228D+00
    48  4.7000000000000D-01  1.3265634712247D-01  1.4801008469081D+00
    49  4.8000000000000D-01  1.9397537458507D-01  1.4582450676669D+00
    50  4.9000000000000D-01  2.5701590739127D-01  1.4341712757040D+00
    51  5.0000000000000D-01  3.2156401781883D-01  1.4079172419582D+00
    52  5.1000000000000D-01  3.8739174582152D-01  1.3795267442209D+00
    53  5.2000000000000D-01  4.5425804161422D-01  1.3490501179756D+00
    54  5.3000000000000D-01  5.2190985809319D-01  1.3165447770963D+00
    55  5.4000000000000D-01  5.9008339043407D-01  1.2820756919479D+00
    56  5.5000000000000D-01  6.5850545844129D-01  1.2457158126428D+00
    57  5.6000000000000D-01  7.2689502538762D-01  1.2075464256350D+00
    58  5.7000000000000D-01  7.9496484519172D-01  1.1676574324650D+00
    59  5.8000000000000D-01  8.6242322785677D-01  1.1261475403150D+00
    60  5.9000000000000D-01  9.2897591114987D-01  1.0831243550705D+00
    61  6.0000000000000D-01  9.9432802455949D-01  1.0387043688205D+00
    62  6.1000000000000D-01  1.0581861296480D+00  9.9301283513022D-01
    63  6.2000000000000D-01  1.1202603190422D+00  9.4618352698604D-01
    64  6.3000000000000D-01  1.1802663544870D+00  8.9835837401740D-01
    65  6.4000000000000D-01  1.2379278226693D+00  8.4968697741497D-01
    66  6.5000000000000D-01  1.2929782858951D+00  8.0032600288145D-01
    67  6.6000000000000D-01  1.3451634032185D+00  7.5043845392818D-01
    68  6.7000000000000D-01  1.3942429962840D+00  7.0019282983732D-01
    69  6.8000000000000D-01  1.4399930329738D+00  6.4976217464348D-01
    70  6.9000000000000D-01  1.4822075009757D+00  5.9932302548175D-01
    71  7.0000000000000D-01  1.5207001426088D+00  5.4905427060017D-01
    72  7.1000000000000D-01  1.5553060216971D+00  4.9913592919847D-01
    73  7.2000000000000D-01  1.5858828929505D+00  4.4974786701521D-01
    74  7.3000000000000D-01  1.6123123442424D+00  4.0106846319594D-01
    75  7.4000000000000D-01  1.6345006823399D+00  3.5327324542607D-01
    76  7.5000000000000D-01  1.6523795330718D+00  3.0653351157116D-01
    77  7.6000000000000D-01  1.6659061275996D+00  2.6101495711098D-01
    78  7.7000000000000D-01  1.6750632473983D+00  2.1687632847276D-01
    79  7.8000000000000D-01  1.6798588017420D+00  1.7426812293277D-01
    80  7.9000000000000D-01  1.6803250129164D+00  1.3333135606536D-01
    81  8.0000000000000D-01  1.6765171858245D+00  9.4196417751539D-02
    82  8.1000000000000D-01  1.6685120413625D+00  5.6982037577825D-02
    83  8.2000000000000D-01  1.6564055967544D+00  2.1794379877613D-02
    84  8.3000000000000D-01  1.6403106193883D+00 -1.1273710459895D-02
    85  8.4000000000000D-01  1.6203543935422D+00 -4.2143274256334D-02
    86  8.5000000000000D-01  1.5966783614500D+00 -7.0749607862680D-02
    87  8.6000000000000D-01  1.5694382483785D+00 -9.7042545101983D-02
    88  8.7000000000000D-01  1.5388040126207D+00 -1.2098667560332D-01
    89  8.8000000000000D-01  1.5049596677307D+00 -1.4256148259716D-01
    90  8.9000000000000D-01  1.4681029052475D+00 -1.6176138953653D-01
    91  9.0000000000000D-01  1.4284445010646D+00 -1.7859570340268D-01
    92  9.1000000000000D-01  1.3862075022903D+00 -1.9308844438579D-01
    93  9.2000000000000D-01  1.3416262021559D+00 -2.0527805404241D-01
    94  9.3000000000000D-01  1.2949449173064D+00 -2.1521697679049D-01
    95  9.4000000000000D-01  1.2464165861102D+00 -2.2297111246182D-01
    96  9.5000000000000D-01  1.1963012094018D+00 -2.2861914045042D-01
    97  9.6000000000000D-01  1.1448641568702D+00 -2.3225171869303D-01
    98  9.7000000000000D-01  1.0923743634776D+00 -2.3397056324842D-01
    99  9.8000000000000D-01  1.0391024410229D+00 -2.3388741659324D-01
   100  9.9000000000000D-01  9.8531873036895D-01 -2.3212291481061D-01
   101  1.0000000000000D+00  9.3129131997965D-01 -2.2880536581304D-01
   102  1.0100000000000D+00  8.7728405627180D-01 -2.2406945230894D-01
   103  1.0200000000000D+00  8.2355457091305D-01 -2.1805487462331D-01
   104  1.0300000000000D+00  7.7035234959107D-01 -2.1090494958571D-01
   105  1.0400000000000D+00  7.1791686591096D-01 -2.0276518253368D-01
   106  1.0500000000000D+00  6.6647580307328D-01 -1.9378183001730D-01
   107  1.0600000000000D+00  6.1624338467833D-01 -1.8410047109778D-01
   108  1.0700000000000D+00  5.6741883451870D-01 -1.7386460510472D-01
   109  1.0800000000000D+00  5.2018498361568D-01 -1.6321429345795D-01
   110  1.0900000000000D+00  4.7470704082059D-01 -1.5228486257131D-01
   111  1.1000000000000D+00  4.3113154150587D-01 -1.4120568414627D-01
   112  1.1100000000000D+00  3.8958548661806D-01 -1.3009904808919D-01
   113  1.1200000000000D+00  3.5017568214496D-01 -1.1907914200886D-01
   114  1.1300000000000D+00  3.1298828673104D-01 -1.0825114978891D-01
   115  1.1400000000000D+00  2.7808857280258D-01 -9.7710480100987D-02
   116  1.1500000000000D+00  2.4552090429461D-01 -8.7542134096536D-02
   117  1.1600000000000D+00  2.1530893122376D-01 -7.7820219271582D-02
   118  1.1700000000000D+00  1.8745599907222D-01 -6.8607614587796D-02
   119  1.1800000000000D+00  1.6194576872894D-01 -5.9955790044563D-02
   120  1.1900000000000D+00  1.3874304013905D-01 -5.1904781597049D-02
   121  1.2000000000000D+00  1.1779477038981D-01 -4.4483320024465D-02
   122  1.2100000000000D+00  9.9031274701391D-02 -3.7709110115552D-02
   123  1.2200000000000D+00  8.2367597580892D-02 -3.1589255401770D-02
   124  1.2300000000000D+00  6.7705038079690D-02 -2.6120820221034D-02
   125  1.2400000000000D+00  5.4932812144780D-02 -2.1291519758571D-02
   126  1.2500000000000D+00  4.3929833792194D-02 -1.7080527389291D-02
   127  1.2600000000000D+00  3.4566594617820D-02 -1.3459386084061D-02
   128  1.2700000000000D+00  2.6707120438532D-02 -1.0393009563125D-02
   129  1.2800000000000D+00  2.0210983291711D-02 -7.8407582097136D-03
   130  1.2900000000000D+00  1.4935345662282D-02 -5.7575729024235D-03
   131  1.3000000000000D+00  1.0737013940751D-02 -4.0951495475347D-03
   132  1.3100000000000D+00  7.4744778585576D-03 -2.8031368402015D-03
   133  1.3200000000000D+00  5.0099123593337D-03 -1.8303387746481D-03
   134  1.3300000000000D+00  3.2111198332504D-03 -1.1259043692227D-03
   135  1.3400000000000D+00  1.9533896599187D-03 -6.4048630253419D-04
   136  1.3500000000000D+00  1.1212542188622D-03 -3.2735122793809D-04
   137  1.3600000000000D+00  6.1012204076252D-04 -1.4342593757845D-04
   138  1.3700000000000D+00  3.2776729622869D-04 -5.0262125811286D-05
   139  1.3800000000000D+00  1.9593264474366D-04 -1.4967631561887D-05
   140  1.3900000000000D+00  1.5003296704557D-04 -1.0651826556456D-05
   141  1.4000000000000D+00  1.4103321512604D-04 -1.7365641227621D-05
   142  1.4100000000000D+00  1.4940918759820D-04 -2.4596283025492D-05
   143  1.4200000000000D+00  1.4615684834859D-04 -2.5501906613406D-05
   144  1.4300000000000D+00  8.2983801064446D-05 -1.4451393761795D-05
   145  1.4400000000000D+00  2.3251598169220D-06 -4.0214498672881D-07
   146  1.4500000000000D+00 -1.2993924285080D-05  2.2937676285659D-06
   147  1.4600000000000D+00  1.5517549404318D-06 -2.7400397373169D-07
   148  1.4700000000000D+00  2.3683433400879D-06 -4.1866898931792D-07
   149  1.4800000000000D+00 -3.0932546538395D-07  5.3862974772153D-08
   150  1.4900000000000D+00 -1.7491223561305D-07  3.0457541937170D-08
   151  1.5000000000000D+00  0.0000000000000D+00  0.0000000000000D+00
   152  1.5100000000000D+00  0.0000000000000D+00  0.0000000000000D+00
   153  1.5200000000000D+00  0.0000000000000D+00  0.0000000000000D+00
   154  1.5300000000000D+00  0.0000000000000D+00  0.0000000000000D+00
   155  1.5400000000000D+00  0.0000000000000D+00  0.0000000000000D+00
   156  1.5500000000000D+00  0.0000000000000D+00  0.0000000000000D+00
   157  1.5600000000000D+00  0.0000000000000D+00  0.0000000000000D+00
   158  1.5700000000000D+00  0.0000000000000D+00  0.0000000000000D+00
   159  1.5800000000000D+00  0.0000000000000D+00  0.0000000000000D+00
   160  1.5900000000000D+00  0.0000000000000D+00  0.0000000000000D+00
   161  1.6000000000000D+00  0.0000000000000D+00  0.0000000000000D+00
   162  1.6100000000000D+00  0.0000000000000D+00  0.0000000000000D+00
   163  1.6200000000000D+00  0.0000000000000D+00  0.0000000000000D+00
   164  1.6300000000000D+00  0.0000000000000D+00  0.0000000000000D+00
   165  1.6400000000000D+00  0.0000000000000D+00  0.0000000000000D+00
   166  1.6500000000000D+00  0.0000000000000D+00  0.0000000000000D+00
   167  1.6600000000000D+00  0.0000000000000D+00  0.0000000000000D+00
   168  1.6700000000000D+00  0.0000000000000D+00  0.0000000000000D+00
   169  1.6800000000000D+00  0.0000000000000D+00  0.0000000000000D+00
   170  1.6900000000000D+00  0.0000000000000D+00  0.0000000000000D+00
   171  1.7000000000000D+00  0.0000000000000D+00  0.0000000000000D+00
   172  1.7100000000000D+00  0.0000000000000D+00  0.0000000000000D+00
   173  1.7200000000000D+00  0.0000000000000D+00  0.0000000000000D+00
   174  1.7300000000000D+00  0.0000000000000D+00  0.0000000000000D+00
   175  1.7400000000000D+00  0.0000000000000D+00  0.0000000000000D+00
   176  1.7500000000000D+00  0.0000000000000D+00  0.0000000000000D+00
   177  1.7600000000000D+00  0.0000000000000D+00  0.0000000000000D+00
   178  1.7700000000000D+00  0.0000000000000D+00  0.0000000000000D+00
   179  1.7800000000000D+00  0.0000000000000D+00  0.0000000000000D+00
   180  1.7900000000000D+00  0.0000000000000D+00  0.0000000000000D+00
   181  1.8000000000000D+00  0.0000000000000D+00  0.0000000000000D+00
   182  1.8100000000000D+00  0.0000000000000D+00  0.0000000000000D+00
   183  1.8200000000000D+00  0.0000000000000D+00  0.0000000000000D+00
   184  1.8300000000000D+00  0.0000000000000D+00  0.0000000000000D+00
   185  1.8400000000000D+00  0.0000000000000D+00  0.0000000000000D+00
   186  1.8500000000000D+00  0.0000000000000D+00  0.0000000000000D+00
   187  1.8600000000000D+00  0.0000000000000D+00  0.0000000000000D+00
   188  1.8700000000000D+00  0.0000000000000D+00  0.0000000000000D+00
   189  1.8800000000000D+00  0.0000000000000D+00  0.0000000000000D+00
   190  1.8900000000000D+00  0.0000000000000D+00  0.0000000000000D+00
   191  1.9000000000000D+00  0.0000000000000D+00  0.0000000000000D+00
   192  1.9100000000000D+00  0.0000000000000D+00  0.0000000000000D+00
   193  1.9200000000000D+00  0.0000000000000D+00  0.0000000000000D+00
   194  1.9300000000000D+00  0.0000000000000D+00  0.0000000000000D+00
   195  1.9400000000000D+00  0.0000000000000D+00  0.0000000000000D+00
   196  1.9500000000000D+00  0.0000000000000D+00  0.0000000000000D+00
   197  1.9600000000000D+00  0.0000000000000D+00  0.0000000000000D+00
   198  1.9700000000000D+00  0.0000000000000D+00  0.0000000000000D+00
   199  1.9800000000000D+00  0.0000000000000D+00  0.0000000000000D+00
   200  1.9900000000000D+00  0.0000000000000D+00  0.0000000000000D+00
   201  2.0000000000000D+00  0.0000000000000D+00  0.0000000000000D+00
   202  2.0100000000000D+00  0.0000000000000D+00  0.0000000000000D+00
   203  2.0200000000000D+00  0.0000000000000D+00  0.0000000000000D+00
   204  2.0300000000000D+00  0.0000000000000D+00  0.0000000000000D+00
   205  2.0400000000000D+00  0.0000000000000D+00  0.0000000000000D+00
   206  2.0500000000000D+00  0.0000000000000D+00  0.0000000000000D+00
   207  2.0600000000000D+00  0.0000000000000D+00  0.0000000000000D+00
   208  2.0700000000000D+00  0.0000000000000D+00  0.0000000000000D+00
   209  2.0800000000000D+00  0.0000000000000D+00  0.0000000000000D+00
   210  2.0900000000000D+00  0.0000000000000D+00  0.0000000000000D+00
   211  2.1000000000000D+00  0.0000000000000D+00  0.0000000000000D+00
   212  2.1100000000000D+00  0.0000000000000D+00  0.0000000000000D+00
   213  2.1200000000000D+00  0.0000000000000D+00  0.0000000000000D+00
   214  2.1300000000000D+00  0.0000000000000D+00  0.0000000000000D+00
   215  2.1400000000000D+00  0.0000000000000D+00  0.0000000000000D+00
   216  2.1500000000000D+00  0.0000000000000D+00  0.0000000000000D+00
   217  2.1600000000000D+00  0.0000000000000D+00  0.0000000000000D+00
   218  2.1700000000000D+00  0.0000000000000D+00  0.0000000000000D+00
   219  2.1800000000000D+00  0.0000000000000D+00  0.0000000000000D+00
   220  2.1900000000000D+00  0.0000000000000D+00  0.0000000000000D+00
   221  2.2000000000000D+00  0.0000000000000D+00  0.0000000000000D+00
   222  2.2100000000000D+00  0.0000000000000D+00  0.0000000000000D+00
   223  2.2200000000000D+00  0.0000000000000D+00  0.0000000000000D+00
   224  2.2300000000000D+00  0.0000000000000D+00  0.0000000000000D+00
   225  2.2400000000000D+00  0.0000000000000D+00  0.0000000000000D+00
   226  2.2500000000000D+00  0.0000000000000D+00  0.0000000000000D+00
   227  2.2600000000000D+00  0.0000000000000D+00  0.0000000000000D+00
   228  2.2700000000000D+00  0.0000000000000D+00  0.0000000000000D+00
   229  2.2800000000000D+00  0.0000000000000D+00  0.0000000000000D+00
   230  2.2900000000000D+00  0.0000000000000D+00  0.0000000000000D+00
   231  2.3000000000000D+00  0.0000000000000D+00  0.0000000000000D+00
   232  2.3100000000000D+00  0.0000000000000D+00  0.0000000000000D+00
   233  2.3200000000000D+00  0.0000000000000D+00  0.0000000000000D+00
   234  2.3300000000000D+00  0.0000000000000D+00  0.0000000000000D+00
   235  2.3400000000000D+00  0.0000000000000D+00  0.0000000000000D+00
   236  2.3500000000000D+00  0.0000000000000D+00  0.0000000000000D+00
   237  2.3600000000000D+00  0.0000000000000D+00  0.0000000000000D+00
   238  2.3700000000000D+00  0.0000000000000D+00  0.0000000000000D+00
   239  2.3800000000000D+00  0.0000000000000D+00  0.0000000000000D+00
   240  2.3900000000000D+00  0.0000000000000D+00  0.0000000000000D+00
   241  2.4000000000000D+00  0.0000000000000D+00  0.0000000000000D+00
   242  2.4100000000000D+00  0.0000000000000D+00  0.0000000000000D+00
   243  2.4200000000000D+00  0.0000000000000D+00  0.0000000000000D+00
   244  2.4300000000000D+00  0.0000000000000D+00  0.0000000000000D+00
   245  2.4400000000000D+00  0.0000000000000D+00  0.0000000000000D+00
   246  2.4500000000000D+00  0.0000000000000D+00  0.0000000000000D+00
   247  2.4600000000000D+00  0.0000000000000D+00  0.0000000000000D+00
   248  2.4700000000000D+00  0.0000000000000D+00  0.0000000000000D+00
   249  2.4800000000000D+00  0.0000000000000D+00  0.0000000000000D+00
   250  2.4900000000000D+00  0.0000000000000D+00  0.0000000000000D+00
   251  2.5000000000000D+00  0.0000000000000D+00  0.0000000000000D+00
   252  2.5100000000000D+00  0.0000000000000D+00  0.0000000000000D+00
   253  2.5200000000000D+00  0.0000000000000D+00  0.0000000000000D+00
   254  2.5300000000000D+00  0.0000000000000D+00  0.0000000000000D+00
   255  2.5400000000000D+00  0.0000000000000D+00  0.0000000000000D+00
   256  2.5500000000000D+00  0.0000000000000D+00  0.0000000000000D+00
   257  2.5600000000000D+00  0.0000000000000D+00  0.0000000000000D+00
   258  2.5700000000000D+00  0.0000000000000D+00  0.0000000000000D+00
   259  2.5800000000000D+00  0.0000000000000D+00  0.0000000000000D+00
   260  2.5900000000000D+00  0.0000000000000D+00  0.0000000000000D+00
   261  2.6000000000000D+00  0.0000000000000D+00  0.0000000000000D+00
   262  2.6100000000000D+00  0.0000000000000D+00  0.0000000000000D+00
   263  2.6200000000000D+00  0.0000000000000D+00  0.0000000000000D+00
   264  2.6300000000000D+00  0.0000000000000D+00  0.0000000000000D+00
   265  2.6400000000000D+00  0.0000000000000D+00  0.0000000000000D+00
   266  2.6500000000000D+00  0.0000000000000D+00  0.0000000000000D+00
   267  2.6600000000000D+00  0.0000000000000D+00  0.0000000000000D+00
   268  2.6700000000000D+00  0.0000000000000D+00  0.0000000000000D+00
   269  2.6800000000000D+00  0.0000000000000D+00  0.0000000000000D+00
   270  2.6900000000000D+00  0.0000000000000D+00  0.0000000000000D+00
   271  2.7000000000000D+00  0.0000000000000D+00  0.0000000000000D+00
   272  2.7100000000000D+00  0.0000000000000D+00  0.0000000000000D+00
   273  2.7200000000000D+00  0.0000000000000D+00  0.0000000000000D+00
   274  2.7300000000000D+00  0.0000000000000D+00  0.0000000000000D+00
   275  2.7400000000000D+00  0.0000000000000D+00  0.0000000000000D+00
   276  2.7500000000000D+00  0.0000000000000D+00  0.0000000000000D+00
   277  2.7600000000000D+00  0.0000000000000D+00  0.0000000000000D+00
   278  2.7700000000000D+00  0.0000000000000D+00  0.0000000000000D+00
   279  2.7800000000000D+00  0.0000000000000D+00  0.0000000000000D+00
   280  2.7900000000000D+00  0.0000000000000D+00  0.0000000000000D+00
   281  2.8000000000000D+00  0.0000000000000D+00  0.0000000000000D+00
   282  2.8100000000000D+00  0.0000000000000D+00  0.0000000000000D+00
   283  2.8200000000000D+00  0.0000000000000D+00  0.0000000000000D+00
   284  2.8300000000000D+00  0.0000000000000D+00  0.0000000000000D+00
   285  2.8400000000000D+00  0.0000000000000D+00  0.0000000000000D+00
   286  2.8500000000000D+00  0.0000000000000D+00  0.0000000000000D+00
   287  2.8600000000000D+00  0.0000000000000D+00  0.0000000000000D+00
   288  2.8700000000000D+00  0.0000000000000D+00  0.0000000000000D+00
   289  2.8800000000000D+00  0.0000000000000D+00  0.0000000000000D+00
   290  2.8900000000000D+00  0.0000000000000D+00  0.0000000000000D+00
   291  2.9000000000000D+00  0.0000000000000D+00  0.0000000000000D+00
   292  2.9100000000000D+00  0.0000000000000D+00  0.0000000000000D+00
   293  2.9200000000000D+00  0.0000000000000D+00  0.0000000000000D+00
   294  2.9300000000000D+00  0.0000000000000D+00  0.0000000000000D+00
   295  2.9400000000000D+00  0.0000000000000D+00  0.0000000000000D+00
   296  2.9500000000000D+00  0.0000000000000D+00  0.0000000000000D+00
   297  2.9600000000000D+00  0.0000000000000D+00  0.0000000000000D+00
   298  2.9700000000000D+00  0.0000000000000D+00  0.0000000000000D+00
   299  2.9800000000000D+00  0.0000000000000D+00  0.0000000000000D+00
   300  2.9900000000000D+00  0.0000000000000D+00  0.0000000000000D+00
   301  3.0000000000000D+00  0.0000000000000D+00  0.0000000000000D+00
   302  3.0100000000000D+00  0.0000000000000D+00  0.0000000000000D+00
   303  3.0200000000000D+00  0.0000000000000D+00  0.0000000000000D+00
   304  3.0300000000000D+00  0.0000000000000D+00  0.0000000000000D+00
   305  3.0400000000000D+00  0.0000000000000D+00  0.0000000000000D+00
   306  3.0500000000000D+00  0.0000000000000D+00  0.0000000000000D+00
   307  3.0600000000000D+00  0.0000000000000D+00  0.0000000000000D+00
   308  3.0700000000000D+00  0.0000000000000D+00  0.0000000000000D+00
   309  3.0800000000000D+00  0.0000000000000D+00  0.0000000000000D+00
   310  3.0900000000000D+00  0.0000000000000D+00  0.0000000000000D+00
   311  3.1000000000000D+00  0.0000000000000D+00  0.0000000000000D+00
   312  3.1100000000000D+00  0.0000000000000D+00  0.0000000000000D+00
   313  3.1200000000000D+00  0.0000000000000D+00  0.0000000000000D+00
   314  3.1300000000000D+00  0.0000000000000D+00  0.0000000000000D+00
   315  3.1400000000000D+00  0.0000000000000D+00  0.0000000000000D+00
   316  3.1500000000000D+00  0.0000000000000D+00  0.0000000000000D+00
   317  3.1600000000000D+00  0.0000000000000D+00  0.0000000000000D+00
   318  3.1700000000000D+00  0.0000000000000D+00  0.0000000000000D+00
   319  3.1800000000000D+00  0.0000000000000D+00  0.0000000000000D+00
   320  3.1900000000000D+00  0.0000000000000D+00  0.0000000000000D+00
   321  3.2000000000000D+00  0.0000000000000D+00  0.0000000000000D+00
   322  3.2100000000000D+00  0.0000000000000D+00  0.0000000000000D+00
   323  3.2200000000000D+00  0.0000000000000D+00  0.0000000000000D+00
   324  3.2300000000000D+00  0.0000000000000D+00  0.0000000000000D+00
   325  3.2400000000000D+00  0.0000000000000D+00  0.0000000000000D+00
   326  3.2500000000000D+00  0.0000000000000D+00  0.0000000000000D+00
   327  3.2600000000000D+00  0.0000000000000D+00  0.0000000000000D+00
   328  3.2700000000000D+00  0.0000000000000D+00  0.0000000000000D+00
   329  3.2800000000000D+00  0.0000000000000D+00  0.0000000000000D+00
   330  3.2900000000000D+00  0.0000000000000D+00  0.0000000000000D+00
   331  3.3000000000000D+00  0.0000000000000D+00  0.0000000000000D+00
   332  3.3100000000000D+00  0.0000000000000D+00  0.0000000000000D+00
   333  3.3200000000000D+00  0.0000000000000D+00  0.0000000000000D+00
   334  3.3300000000000D+00  0.0000000000000D+00  0.0000000000000D+00
   335  3.3400000000000D+00  0.0000000000000D+00  0.0000000000000D+00
   336  3.3500000000000D+00  0.0000000000000D+00  0.0000000000000D+00
   337  3.3600000000000D+00  0.0000000000000D+00  0.0000000000000D+00
   338  3.3700000000000D+00  0.0000000000000D+00  0.0000000000000D+00
   339  3.3800000000000D+00  0.0000000000000D+00  0.0000000000000D+00
   340  3.3900000000000D+00  0.0000000000000D+00  0.0000000000000D+00
   341  3.4000000000000D+00  0.0000000000000D+00  0.0000000000000D+00
   342  3.4100000000000D+00  0.0000000000000D+00  0.0000000000000D+00
   343  3.4200000000000D+00  0.0000000000000D+00  0.0000000000000D+00
   344  3.4300000000000D+00  0.0000000000000D+00  0.0000000000000D+00
   345  3.4400000000000D+00  0.0000000000000D+00  0.0000000000000D+00
   346  3.4500000000000D+00  0.0000000000000D+00  0.0000000000000D+00
   347  3.4600000000000D+00  0.0000000000000D+00  0.0000000000000D+00
   348  3.4700000000000D+00  0.0000000000000D+00  0.0000000000000D+00
   349  3.4800000000000D+00  0.0000000000000D+00  0.0000000000000D+00
   350  3.4900000000000D+00  0.0000000000000D+00  0.0000000000000D+00
   351  3.5000000000000D+00  0.0000000000000D+00  0.0000000000000D+00
   352  3.5100000000000D+00  0.0000000000000D+00  0.0000000000000D+00
   353  3.5200000000000D+00  0.0000000000000D+00  0.0000000000000D+00
   354  3.5300000000000D+00  0.0000000000000D+00  0.0000000000000D+00
   355  3.5400000000000D+00  0.0000000000000D+00  0.0000000000000D+00
   356  3.5500000000000D+00  0.0000000000000D+00  0.0000000000000D+00
   357  3.5600000000000D+00  0.0000000000000D+00  0.0000000000000D+00
   358  3.5700000000000D+00  0.0000000000000D+00  0.0000000000000D+00
   359  3.5800000000000D+00  0.0000000000000D+00  0.0000000000000D+00
   360  3.5900000000000D+00  0.0000000000000D+00  0.0000000000000D+00
   361  3.6000000000000D+00  0.0000000000000D+00  0.0000000000000D+00
   362  3.6100000000000D+00  0.0000000000000D+00  0.0000000000000D+00
   363  3.6200000000000D+00  0.0000000000000D+00  0.0000000000000D+00
   364  3.6300000000000D+00  0.0000000000000D+00  0.0000000000000D+00
   365  3.6400000000000D+00  0.0000000000000D+00  0.0000000000000D+00
   366  3.6500000000000D+00  0.0000000000000D+00  0.0000000000000D+00
   367  3.6600000000000D+00  0.0000000000000D+00  0.0000000000000D+00
   368  3.6700000000000D+00  0.0000000000000D+00  0.0000000000000D+00
   369  3.6800000000000D+00  0.0000000000000D+00  0.0000000000000D+00
   370  3.6900000000000D+00  0.0000000000000D+00  0.0000000000000D+00
   371  3.7000000000000D+00  0.0000000000000D+00  0.0000000000000D+00
   372  3.7100000000000D+00  0.0000000000000D+00  0.0000000000000D+00
   373  3.7200000000000D+00  0.0000000000000D+00  0.0000000000000D+00
   374  3.7300000000000D+00  0.0000000000000D+00  0.0000000000000D+00
   375  3.7400000000000D+00  0.0000000000000D+00  0.0000000000000D+00
   376  3.7500000000000D+00  0.0000000000000D+00  0.0000000000000D+00
   377  3.7600000000000D+00  0.0000000000000D+00  0.0000000000000D+00
   378  3.7700000000000D+00  0.0000000000000D+00  0.0000000000000D+00
   379  3.7800000000000D+00  0.0000000000000D+00  0.0000000000000D+00
   380  3.7900000000000D+00  0.0000000000000D+00  0.0000000000000D+00
   381  3.8000000000000D+00  0.0000000000000D+00  0.0000000000000D+00
   382  3.8100000000000D+00  0.0000000000000D+00  0.0000000000000D+00
   383  3.8200000000000D+00  0.0000000000000D+00  0.0000000000000D+00
   384  3.8300000000000D+00  0.0000000000000D+00  0.0000000000000D+00
   385  3.8400000000000D+00  0.0000000000000D+00  0.0000000000000D+00
   386  3.8500000000000D+00  0.0000000000000D+00  0.0000000000000D+00
   387  3.8600000000000D+00  0.0000000000000D+00  0.0000000000000D+00
   388  3.8700000000000D+00  0.0000000000000D+00  0.0000000000000D+00
   389  3.8800000000000D+00  0.0000000000000D+00  0.0000000000000D+00
   390  3.8900000000000D+00  0.0000000000000D+00  0.0000000000000D+00
   391  3.9000000000000D+00  0.0000000000000D+00  0.0000000000000D+00
   392  3.9100000000000D+00  0.0000000000000D+00  0.0000000000000D+00
   393  3.9200000000000D+00  0.0000000000000D+00  0.0000000000000D+00
   394  3.9300000000000D+00  0.0000000000000D+00  0.0000000000000D+00
   395  3.9400000000000D+00  0.0000000000000D+00  0.0000000000000D+00
   396  3.9500000000000D+00  0.0000000000000D+00  0.0000000000000D+00
   397  3.9600000000000D+00  0.0000000000000D+00  0.0000000000000D+00
   398  3.9700000000000D+00  0.0000000000000D+00  0.0000000000000D+00
   399  3.9800000000000D+00  0.0000000000000D+00  0.0000000000000D+00
   400  3.9900000000000D+00  0.0000000000000D+00  0.0000000000000D+00
   401  4.0000000000000D+00  0.0000000000000D+00  0.0000000000000D+00
   402  4.0100000000000D+00  0.0000000000000D+00  0.0000000000000D+00
   403  4.0200000000000D+00  0.0000000000000D+00  0.0000000000000D+00
   404  4.0300000000000D+00  0.0000000000000D+00  0.0000000000000D+00
   405  4.0400000000000D+00  0.0000000000000D+00  0.0000000000000D+00
   406  4.0500000000000D+00  0.0000000000000D+00  0.0000000000000D+00
   407  4.0600000000000D+00  0.0000000000000D+00  0.0000000000000D+00
   408  4.0700000000000D+00  0.0000000000000D+00  0.0000000000000D+00
   409  4.0800000000000D+00  0.0000000000000D+00  0.0000000000000D+00
   410  4.0900000000000D+00  0.0000000000000D+00  0.0000000000000D+00
   411  4.1000000000000D+00  0.0000000000000D+00  0.0000000000000D+00
   412  4.1100000000000D+00  0.0000000000000D+00  0.0000000000000D+00
   413  4.1200000000000D+00  0.0000000000000D+00  0.0000000000000D+00
   414  4.1300000000000D+00  0.0000000000000D+00  0.0000000000000D+00
   415  4.1400000000000D+00  0.0000000000000D+00  0.0000000000000D+00
   416  4.1500000000000D+00  0.0000000000000D+00  0.0000000000000D+00
   417  4.1600000000000D+00  0.0000000000000D+00  0.0000000000000D+00
   418  4.1700000000000D+00  0.0000000000000D+00  0.0000000000000D+00
   419  4.1800000000000D+00  0.0000000000000D+00  0.0000000000000D+00
   420  4.1900000000000D+00  0.0000000000000D+00  0.0000000000000D+00
   421  4.2000000000000D+00  0.0000000000000D+00  0.0000000000000D+00
   422  4.2100000000000D+00  0.0000000000000D+00  0.0000000000000D+00