Ca    ONCVPSP-3.3.1  r_core=   2.24135   2.49537   2.43654
     20.0000     10.0000      210905    zatom,zion,pspd
     8 -116133   2     4   600     0    pspcod,pspxc,lmax,lloc,mmax,r2well
  5.99000000  0.00000000  0.00000000    rchrg fchrg qchrg
     2     2     2     0     0    nproj
     1     1           extension_switch
   0                         2.4165714826434D+00 -3.8533471649942D-01
     1  0.0000000000000D+00  6.5368266355392D-12  1.1796570664746D-11
     2  1.0000000000000D-02  5.6867925695313D-02  6.3309008025989D-03
     3  2.0000000000000D-02  1.1364725661487D-01  1.2681030765778D-02
     4  3.0000000000000D-02  1.7024952989161D-01  1.9069527470861D-02
     5  4.0000000000000D-02  2.2658654646496D-01  2.5515345841239D-02
     6  5.0000000000000D-02  2.8257050295551D-01  3.2037168061853D-02
     7  6.0000000000000D-02  3.3811412350041D-01  3.8653314988458D-02
     8  7.0000000000000D-02  3.9313079152911D-01  4.5381659529386D-02
     9  8.0000000000000D-02  4.4753468145186D-01  5.2239542470717D-02
    10  9.0000000000000D-02  5.0124089022593D-01  5.9243691201207D-02
    11  1.0000000000000D-01  5.5416556875439D-01  6.6410141775935D-02
    12  1.1000000000000D-01  6.0622605306201D-01  7.3754164737731D-02
    13  1.2000000000000D-01  6.5734099518007D-01  8.1290195092984D-02
    14  1.3000000000000D-01  7.0743049365903D-01  8.9031766813597D-02
    15  1.4000000000000D-01  7.5641622361312D-01  9.6991452209836D-02
    16  1.5000000000000D-01  8.0422156618583D-01  1.0518080648977D-01
    17  1.6000000000000D-01  8.5077173730905D-01  1.1361031778998D-01
    18  1.7000000000000D-01  8.9599391561156D-01  1.2228936292961D-01
    19  1.8000000000000D-01  9.3981736931554D-01  1.3122616910570D-01
    20  1.9000000000000D-01  9.8217358194174D-01  1.4042778171234D-01
    21  2.0000000000000D-01  1.0229963766262D+00  1.4990003842949D-01
    22  2.1000000000000D-01  1.0622220388334D+00  1.5964754969044D-01
    23  2.2000000000000D-01  1.0997894372329D+00  1.6967368559825D-01
    24  2.3000000000000D-01  1.1356401424896D+00  1.7998056932389D-01
    25  2.4000000000000D-01  1.1697185436986D+00  1.9056907697958D-01
    26  2.5000000000000D-01  1.2019719621834D+00  2.0143884392299D-01
    27  2.6000000000000D-01  1.2323507623556D+00  2.1258827740942D-01
    28  2.7000000000000D-01  1.2608084593237D+00  2.2401457547168D-01
    29  2.8000000000000D-01  1.2873018229241D+00  2.3571375187059D-01
    30  2.9000000000000D-01  1.3117909778328D+00  2.4768066692308D-01
    31  3.0000000000000D-01  1.3342394994108D+00  2.5990906398035D-01
    32  3.1000000000000D-01  1.3546145049221D+00  2.7239161129544D-01
    33  3.2000000000000D-01  1.3728867397589D+00  2.8511994898783D-01
    34  3.3000000000000D-01  1.3890306583023D+00  2.9808474078322D-01
    35  3.4000000000000D-01  1.4030244990441D+00  3.1127573017865D-01
    36  3.5000000000000D-01  1.4148503535924D+00  3.2468180065801D-01
    37  3.6000000000000D-01  1.4244942291870D+00  3.3829103955918D-01
    38  3.7000000000000D-01  1.4319461043511D+00  3.5209080517413D-01
    39  3.8000000000000D-01  1.4371999773139D+00  3.6606779664449D-01
    40  3.9000000000000D-01  1.4402539068445D+00  3.8020812620025D-01
    41  4.0000000000000D-01  1.4411100451497D+00  3.9449739327645D-01
    42  4.1000000000000D-01  1.4397746624986D+00  4.0892076003326D-01
    43  4.2000000000000D-01  1.4362581632554D+00  4.2346302779801D-01
    44  4.3000000000000D-01  1.4305750930169D+00  4.3810871394435D-01
    45  4.4000000000000D-01  1.4227441365719D+00  4.5284212872279D-01
    46  4.5000000000000D-01  1.4127881064234D+00  4.6764745155969D-01
    47  4.6000000000000D-01  1.4007339216380D+00  4.8250880634686D-01
    48  4.7000000000000D-01  1.3866125768141D+00  4.9741033525278D-01
    49  4.8000000000000D-01  1.3704591009912D+00  5.1233627059764D-01
    50  4.9000000000000D-01  1.3523125063517D+00  5.2727100434887D-01
    51  5.0000000000000D-01  1.3322157266021D+00  5.4219915481098D-01
    52  5.1000000000000D-01  1.3102155449534D+00  5.5710563010329D-01
    53  5.2000000000000D-01  1.2863625116602D+00  5.7197568804175D-01
    54  5.3000000000000D-01  1.2607108511121D+00  5.8679499206570D-01
    55  5.4000000000000D-01  1.2333183585149D+00  6.0154966287799D-01
    56  5.5000000000000D-01  1.2042462862371D+00  6.1622632549568D-01
    57  5.6000000000000D-01  1.1735592199393D+00  6.3081215144045D-01
    58  5.7000000000000D-01  1.1413249446477D+00  6.4529489583047D-01
    59  5.8000000000000D-01  1.1076143009744D+00  6.5966292917018D-01
    60  5.9000000000000D-01  1.0725010317309D+00  6.7390526367062D-01
    61  6.0000000000000D-01  1.0360616192257D+00  6.8801157396974D-01
    62  6.1000000000000D-01  9.9837511357805D-01  7.0197221216042D-01
    63  6.2000000000000D-01  9.5952295242406D-01  7.1577821707220D-01
    64  6.3000000000000D-01  9.1958877243385D-01  7.2942131779231D-01
    65  6.4000000000000D-01  8.7865821309834D-01  7.4289393145025D-01
    66  6.5000000000000D-01  8.3681871328596D-01  7.5618915532975D-01
    67  6.6000000000000D-01  7.9415930110746D-01  7.6930075341063D-01
    68  6.7000000000000D-01  7.5077037766500D-01  7.8222313748137D-01
    69  6.8000000000000D-01  7.0674349529658D-01  7.9495134300043D-01
    70  6.9000000000000D-01  6.6217113096114D-01  8.0748099992121D-01
    71  7.0000000000000D-01  6.1714645544019D-01  8.1980829873025D-01
    72  7.1000000000000D-01  5.7176309906117D-01  8.3192995198181D-01
    73  7.2000000000000D-01  5.2611491467390D-01  8.4384315164416D-01
    74  7.3000000000000D-01  4.8029573863458D-01  8.5554552260247D-01
    75  7.4000000000000D-01  4.3439915057259D-01  8.6703507269103D-01
    76  7.5000000000000D-01  3.8851823273233D-01  8.7831013965287D-01
    77  7.6000000000000D-01  3.4274532969657D-01  8.8936933544789D-01
    78  7.7000000000000D-01  2.9717180930801D-01  9.0021148835059D-01
    79  7.8000000000000D-01  2.5188782561318D-01  9.1083558329608D-01
    80  7.9000000000000D-01  2.0698208465604D-01  9.2124070094742D-01
    81  8.0000000000000D-01  1.6254161394821D-01  9.3142595596887D-01
    82  8.1000000000000D-01  1.1865153643928D-01  9.4139043499775D-01
    83  8.2000000000000D-01  7.5394849802252D-02  9.5113313481292D-01
    84  8.3000000000000D-01  3.2852211838050D-02  9.6065290119942D-01
    85  8.4000000000000D-01 -8.8982672125973D-03  9.6994836900788D-01
    86  8.5000000000000D-01 -4.9781224680534D-02  9.7901790390184D-01
    87  8.6000000000000D-01 -8.9724237056483D-02  9.8785954627886D-01
    88  8.7000000000000D-01 -1.2865800243632D-01  9.9647095783933D-01
    89  8.8000000000000D-01 -1.6651651313346D-01  1.0048493712630D+00
    90  8.9000000000000D-01 -2.0323721780208D-01  1.0129915434353D+00
    91  9.0000000000000D-01 -2.3876117245170D-01  1.0208937126446D+00
    92  9.1000000000000D-01 -2.7303317977369D-01  1.0285515601488D+00
    93  9.2000000000000D-01 -3.0600191624349D-01  1.0359601764825D+00
    94  9.3000000000000D-01 -3.3762004650799D-01  1.0431140328472D+00
    95  9.4000000000000D-01 -3.6784432461633D-01  1.0500069578958D+00
    96  9.5000000000000D-01 -3.9663568170329D-01  1.0566321201876D+00
    97  9.6000000000000D-01 -4.2395929978732D-01  1.0629820165568D+00
    98  9.7000000000000D-01 -4.4978467140143D-01  1.0690484665959D+00
    99  9.8000000000000D-01 -4.7408564483029D-01  1.0748226134194D+00
   100  9.9000000000000D-01 -4.9684045478667D-01  1.0802949308302D+00
   101  1.0000000000000D+00 -5.1803173841927D-01  1.0854552369696D+00
   102  1.0100000000000D+00 -5.3764653660405D-01  1.0902927144897D+00
   103  1.0200000000000D+00 -5.5567628053233D-01  1.0947959372413D+00
   104  1.0300000000000D+00 -5.7211676366952D-01  1.0989529034283D+00
   105  1.0400000000000D+00 -5.8696809922190D-01  1.1027510751343D+00
   106  1.0500000000000D+00 -6.0023466330379D-01  1.1061774240842D+00
   107  1.0600000000000D+00 -6.1192502406509D-01  1.1092184834590D+00
   108  1.0700000000000D+00 -6.2205185709298D-01  1.1118604055395D+00
   109  1.0800000000000D+00 -6.3063184746116D-01  1.1140890249131D+00
   110  1.0900000000000D+00 -6.3768557885941D-01  1.1158899269354D+00
   111  1.1000000000000D+00 -6.4323741028214D-01  1.1172485211057D+00
   112  1.1100000000000D+00 -6.4731534081857D-01  1.1181501189679D+00
   113  1.1200000000000D+00 -6.4995086312865D-01  1.1185800161235D+00
   114  1.1300000000000D+00 -6.5117880624207D-01  1.1185235779013D+00
   115  1.1400000000000D+00 -6.5103716835579D-01  1.1179663282081D+00
   116  1.1500000000000D+00 -6.4956694035280D-01  1.1168940410472D+00
   117  1.1600000000000D+00 -6.4681192080128D-01  1.1152928341734D+00
   118  1.1700000000000D+00 -6.4281852322884D-01  1.1131492643265D+00
   119  1.1800000000000D+00 -6.3763557649119D-01  1.1104504234747D+00
   120  1.1900000000000D+00 -6.3131411909104D-01  1.1071840354743D+00
   121  1.2000000000000D+00 -6.2390718832055D-01  1.1033385525482D+00
   122  1.2100000000000D+00 -6.1546960511919D-01  1.0989032509742D+00
   123  1.2200000000000D+00 -6.0605775555368D-01  1.0938683253732D+00
   124  1.2300000000000D+00 -5.9572936984080D-01  1.0882249809802D+00
   125  1.2400000000000D+00 -5.8454329983267D-01  1.0819655232965D+00
   126  1.2500000000000D+00 -5.7255929589163D-01  1.0750834445136D+00
   127  1.2600000000000D+00 -5.5983778407758D-01  1.0675735061204D+00
   128  1.2700000000000D+00 -5.4643964455558D-01  1.0594318171255D+00
   129  1.2800000000000D+00 -5.3242599213465D-01  1.0506559073236D+00
   130  1.2900000000000D+00 -5.1785795982170D-01  1.0412447950771D+00
   131  1.3000000000000D+00 -5.0279648624396D-01  1.0311990491153D+00
   132  1.3100000000000D+00 -4.8730210780331D-01  1.0205208438445D+00
   133  1.3200000000000D+00 -4.7143475636190D-01  1.0092140077394D+00
   134  1.3300000000000D+00 -4.5525356322363D-01  9.9728406441468D-01
   135  1.3400000000000D+00 -4.3881667019851D-01  9.8473826595922D-01
   136  1.3500000000000D+00 -4.2218104841115D-01  9.7158561824578D-01
   137  1.3600000000000D+00 -4.0540232552626D-01  9.5783689791070D-01
   138  1.3700000000000D+00 -3.8853462204175D-01  9.4350466072801D-01
   139  1.3800000000000D+00 -3.7163039714974D-01  9.2860324124474D-01
   140  1.3900000000000D+00 -3.5474030474864D-01  9.1314874346495D-01
   141  1.4000000000000D+00 -3.3791306004275D-01  8.9715902251244D-01
   142  1.4100000000000D+00 -3.2119531709397D-01  8.8065365726390D-01
   143  1.4200000000000D+00 -3.0463155778576D-01  8.6365391386117D-01
   144  1.4300000000000D+00 -2.8826399235494D-01  8.4618270028634D-01
   145  1.4400000000000D+00 -2.7213247183665D-01  8.2826451201093D-01
   146  1.4500000000000D+00 -2.5627441255104D-01  8.0992536892807D-01
   147  1.4600000000000D+00 -2.4072473269755D-01  7.9119274382265D-01
   148  1.4700000000000D+00 -2.2551580124625D-01  7.7209548253733D-01
   149  1.4800000000000D+00 -2.1067739891831D-01  7.5266371632020D-01
   150  1.4900000000000D+00 -1.9623669140575D-01  7.3292876654603D-01
   151  1.5000000000000D+00 -1.8221821451994D-01  7.1292304238007D-01
   152  1.5100000000000D+00 -1.6864387119628D-01  6.9267993175488D-01
   153  1.5200000000000D+00 -1.5553294009682D-01  6.7223368618855D-01
   154  1.5300000000000D+00 -1.4290209544123D-01  6.5161930003854D-01
   155  1.5400000000000D+00 -1.3076543788624D-01  6.3087238466719D-01
   156  1.5500000000000D+00 -1.1913453581437D-01  6.1002903829580D-01
   157  1.5600000000000D+00 -1.0801847688565D-01  5.8912571201172D-01
   158  1.5700000000000D+00 -9.7423929060130D-02  5.6819907279238D-01
   159  1.5800000000000D+00 -8.7355210839869D-02  5.4728586408803D-01
   160  1.5900000000000D+00 -7.7814369939272D-02  5.2642276481040D-01
   161  1.6000000000000D+00 -6.8801269958038D-02  5.0564624737407D-01
   162  1.6100000000000D+00 -6.0313684301371D-02  4.8499243560606D-01
   163  1.6200000000000D+00 -5.2347396776275D-02  4.6449696323334D-01
   164  1.6300000000000D+00 -4.4896308130390D-02  4.4419483374997D-01
   165  1.6400000000000D+00 -3.7952547868047D-02  4.2412028238078D-01
   166  1.6500000000000D+00 -3.1506590609301D-02  4.0430664095082D-01
   167  1.6600000000000D+00 -2.5547376287990D-02  3.8478620632988D-01
   168  1.6700000000000D+00 -2.0062433432380D-02  3.6559011328502D-01
   169  1.6800000000000D+00 -1.5038004837638D-02  3.4674821231686D-01
   170  1.6900000000000D+00 -1.0459174837381D-02  3.2828895334037D-01
   171  1.7000000000000D+00 -6.3099975378498D-03  3.1023927566284D-01
   172  1.7100000000000D+00 -2.5736251851065D-03  2.9262450513377D-01
   173  1.7200000000000D+00  7.6756389330355D-04  2.7546825878916D-01
   174  1.7300000000000D+00  3.7318386196827D-03  2.5879235784175D-01
   175  1.7400000000000D+00  6.3379902519004D-03  2.4261674923179D-01
   176  1.7500000000000D+00  8.6052100442240D-03  2.2695943649960D-01
   177  1.7600000000000D+00  1.0552969919054D-02  2.1183642014494D-01
   178  1.7700000000000D+00  1.2200906868197D-02  1.9726164804313D-01
   179  1.7800000000000D+00  1.3568711540872D-02  1.8324697612959D-01
   180  1.7900000000000D+00  1.4676021526780D-02  1.6980213959806D-01
   181  1.8000000000000D+00  1.5542319915293D-02  1.5693473500125D-01
   182  1.8100000000000D+00  1.6186839291866D-02  1.4465021301685D-01
   183  1.8200000000000D+00  1.6628472006126D-02  1.3295188259582D-01
   184  1.8300000000000D+00  1.6885686374437D-02  1.2184092561292D-01
   185  1.8400000000000D+00  1.6976450040668D-02  1.1131642320770D-01
   186  1.8500000000000D+00  1.6918159539228D-02  1.0137539218584D-01
   187  1.8600000000000D+00  1.6727577664776D-02  9.2012833093314D-02
   188  1.8700000000000D+00  1.6420777342498D-02  8.3221787956004D-02
   189  1.8800000000000D+00  1.6013093417618D-02  7.4993409005836D-02
   190  1.8900000000000D+00  1.5519081369427D-02  6.7317036823591D-02
   191  1.9000000000000D+00  1.4952483651106D-02  6.0180288314411D-02
   192  1.9100000000000D+00  1.4326203328754D-02  5.3569153761011D-02
   193  1.9200000000000D+00  1.3652284766670D-02  4.7468102265469D-02
   194  1.9300000000000D+00  1.2941901866385D-02  4.1860195745070D-02
   195  1.9400000000000D+00  1.2205352603624D-02  3.6727209738315D-02
   196  1.9500000000000D+00  1.1452061040946D-02  3.2049761834142D-02
   197  1.9600000000000D+00  1.0690585130214D-02  2.7807445617283D-02
   198  1.9700000000000D+00  9.9286312059762D-03  2.3978970570254D-02
   199  1.9800000000000D+00  9.1730740971622D-03  2.0542306513545D-02
   200  1.9900000000000D+00  8.4299827484584D-03  1.7474832019176D-02
   201  2.0000000000000D+00  7.7046512159040D-03  1.4753486213940D-02
   202  2.0100000000000D+00  7.0016340072920D-03  1.2354922726752D-02
   203  2.0200000000000D+00  6.3247861594752D-03  1.0255665437059D-02
   204  2.0300000000000D+00  5.6773068597548D-03  8.4322648788222D-03
   205  2.0400000000000D+00  5.0617866367793D-03  6.8614545431293D-03
   206  2.0500000000000D+00  4.4802574801841D-03  5.5203063133766D-03
   207  2.0600000000000D+00  3.9342453886034D-03  4.3863842301990D-03
   208  2.0700000000000D+00  3.4248270526611D-03  3.4378977484955D-03
   209  2.0800000000000D+00  2.9526774095615D-03  2.6538404004873D-03
   210  2.0900000000000D+00  2.5181436379916D-03  2.0141514601929D-03
   211  2.1000000000000D+00  2.1212867093675D-03  1.4998376251568D-03
   212  2.1100000000000D+00  1.7619199532791D-03  1.0930856782595D-03
   213  2.1200000000000D+00  1.4396915325626D-03  7.7741315452881D-04
   214  2.1300000000000D+00  1.1542673667997D-03  5.3793075818994D-04
   215  2.1400000000000D+00  9.0516981357268D-04  3.6121447337564D-04
   216  2.1500000000000D+00  6.9170495686484D-04  2.3526995568871D-04
   217  2.1600000000000D+00  5.1287870674757D-04  1.4947959552684D-04
   218  2.1700000000000D+00  3.6731755130758D-04  9.4618477958588D-05
   219  2.1800000000000D+00  2.5294439888647D-04  6.2344612951406D-05
   220  2.1900000000000D+00  1.6701483628319D-04  4.5460013631407D-05
   221  2.2000000000000D+00  1.0608744610382D-04  3.7991136140275D-05
   222  2.2100000000000D+00  6.7449747112618D-05  3.6643482965342D-05
   223  2.2200000000000D+00  4.7962317744919D-05  3.9224249072440D-05
   224  2.2300000000000D+00  4.0572837405270D-05  4.1746322760331D-05
   225  2.2400000000000D+00  3.5798066563965D-05  3.9193979127512D-05
   226  2.2500000000000D+00  2.4400208780431D-05  2.7025356644027D-05
   227  2.2600000000000D+00  1.0186878886002D-05  1.1211689345107D-05
   228  2.2700000000000D+00 -1.0519279569546D-06 -1.2119231963580D-06
   229  2.2800000000000D+00 -3.5690236086271D-06 -4.1265211762383D-06
   230  2.2900000000000D+00 -1.7367488901411D-06 -2.0109716105334D-06
   231  2.3000000000000D+00  4.5218863107117D-07  5.3270980534992D-07
   232  2.3100000000000D+00  7.5974755373221D-07  8.9862963554591D-07
   233  2.3200000000000D+00  2.3405405040958D-07  2.7775113971265D-07
   234  2.3300000000000D+00 -7.5952235659773D-08 -8.3209619549626D-08
   235  2.3400000000000D+00 -9.0665027367542D-08 -9.9328247130258D-08
   236  2.3500000000000D+00 -9.3219342242685D-09 -1.0212663176139D-08
   237  2.3600000000000D+00  0.0000000000000D+00  0.0000000000000D+00
   238  2.3700000000000D+00  0.0000000000000D+00  0.0000000000000D+00
   239  2.3800000000000D+00  0.0000000000000D+00  0.0000000000000D+00
   240  2.3900000000000D+00  0.0000000000000D+00  0.0000000000000D+00
   241  2.4000000000000D+00  0.0000000000000D+00  0.0000000000000D+00
   242  2.4100000000000D+00  0.0000000000000D+00  0.0000000000000D+00
   243  2.4200000000000D+00  0.0000000000000D+00  0.0000000000000D+00
   244  2.4300000000000D+00  0.0000000000000D+00  0.0000000000000D+00
   245  2.4400000000000D+00  0.0000000000000D+00  0.0000000000000D+00
   246  2.4500000000000D+00  0.0000000000000D+00  0.0000000000000D+00
   247  2.4600000000000D+00  0.0000000000000D+00  0.0000000000000D+00
   248  2.4700000000000D+00  0.0000000000000D+00  0.0000000000000D+00
   249  2.4800000000000D+00  0.0000000000000D+00  0.0000000000000D+00
   250  2.4900000000000D+00  0.0000000000000D+00  0.0000000000000D+00
   251  2.5000000000000D+00  0.0000000000000D+00  0.0000000000000D+00
   252  2.5100000000000D+00  0.0000000000000D+00  0.0000000000000D+00
   253  2.5200000000000D+00  0.0000000000000D+00  0.0000000000000D+00
   254  2.5300000000000D+00  0.0000000000000D+00  0.0000000000000D+00
   255  2.5400000000000D+00  0.0000000000000D+00  0.0000000000000D+00
   256  2.5500000000000D+00  0.0000000000000D+00  0.0000000000000D+00
   257  2.5600000000000D+00  0.0000000000000D+00  0.0000000000000D+00
   258  2.5700000000000D+00  0.0000000000000D+00  0.0000000000000D+00
   259  2.5800000000000D+00  0.0000000000000D+00  0.0000000000000D+00
   260  2.5900000000000D+00  0.0000000000000D+00  0.0000000000000D+00
   261  2.6000000000000D+00  0.0000000000000D+00  0.0000000000000D+00
   262  2.6100000000000D+00  0.0000000000000D+00  0.0000000000000D+00
   263  2.6200000000000D+00  0.0000000000000D+00  0.0000000000000D+00
   264  2.6300000000000D+00  0.0000000000000D+00  0.0000000000000D+00
   265  2.6400000000000D+00  0.0000000000000D+00  0.0000000000000D+00
   266  2.6500000000000D+00  0.0000000000000D+00  0.0000000000000D+00
   267  2.6600000000000D+00  0.0000000000000D+00  0.0000000000000D+00
   268  2.6700000000000D+00  0.0000000000000D+00  0.0000000000000D+00
   269  2.6800000000000D+00  0.0000000000000D+00  0.0000000000000D+00
   270  2.6900000000000D+00  0.0000000000000D+00  0.0000000000000D+00
   271  2.7000000000000D+00  0.0000000000000D+00  0.0000000000000D+00
   272  2.7100000000000D+00  0.0000000000000D+00  0.0000000000000D+00
   273  2.7200000000000D+00  0.0000000000000D+00  0.0000000000000D+00
   274  2.7300000000000D+00  0.0000000000000D+00  0.0000000000000D+00
   275  2.7400000000000D+00  0.0000000000000D+00  0.0000000000000D+00
   276  2.7500000000000D+00  0.0000000000000D+00  0.0000000000000D+00
   277  2.7600000000000D+00  0.0000000000000D+00  0.0000000000000D+00
   278  2.7700000000000D+00  0.0000000000000D+00  0.0000000000000D+00
   279  2.7800000000000D+00  0.0000000000000D+00  0.0000000000000D+00
   280  2.7900000000000D+00  0.0000000000000D+00  0.0000000000000D+00
   281  2.8000000000000D+00  0.0000000000000D+00  0.0000000000000D+00
   282  2.8100000000000D+00  0.0000000000000D+00  0.0000000000000D+00
   283  2.8200000000000D+00  0.0000000000000D+00  0.0000000000000D+00
   284  2.8300000000000D+00  0.0000000000000D+00  0.0000000000000D+00
   285  2.8400000000000D+00  0.0000000000000D+00  0.0000000000000D+00
   286  2.8500000000000D+00  0.0000000000000D+00  0.0000000000000D+00
   287  2.8600000000000D+00  0.0000000000000D+00  0.0000000000000D+00
   288  2.8700000000000D+00  0.0000000000000D+00  0.0000000000000D+00
   289  2.8800000000000D+00  0.0000000000000D+00  0.0000000000000D+00
   290  2.8900000000000D+00  0.0000000000000D+00  0.0000000000000D+00
   291  2.9000000000000D+00  0.0000000000000D+00  0.0000000000000D+00
   292  2.9100000000000D+00  0.0000000000000D+00  0.0000000000000D+00
   293  2.9200000000000D+00  0.0000000000000D+00  0.0000000000000D+00
   294  2.9300000000000D+00  0.0000000000000D+00  0.0000000000000D+00
   295  2.9400000000000D+00  0.0000000000000D+00  0.0000000000000D+00
   296  2.9500000000000D+00  0.0000000000000D+00  0.0000000000000D+00
   297  2.9600000000000D+00  0.0000000000000D+00  0.0000000000000D+00
   298  2.9700000000000D+00  0.0000000000000D+00  0.0000000000000D+00
   299  2.9800000000000D+00  0.0000000000000D+00  0.0000000000000D+00
   300  2.9900000000000D+00  0.0000000000000D+00  0.0000000000000D+00
   301  3.0000000000000D+00  0.0000000000000D+00  0.0000000000000D+00
   302  3.0100000000000D+00  0.0000000000000D+00  0.0000000000000D+00
   303  3.0200000000000D+00  0.0000000000000D+00  0.0000000000000D+00
   304  3.0300000000000D+00  0.0000000000000D+00  0.0000000000000D+00
   305  3.0400000000000D+00  0.0000000000000D+00  0.0000000000000D+00
   306  3.0500000000000D+00  0.0000000000000D+00  0.0000000000000D+00
   307  3.0600000000000D+00  0.0000000000000D+00  0.0000000000000D+00
   308  3.0700000000000D+00  0.0000000000000D+00  0.0000000000000D+00
   309  3.0800000000000D+00  0.0000000000000D+00  0.0000000000000D+00
   310  3.0900000000000D+00  0.0000000000000D+00  0.0000000000000D+00
   311  3.1000000000000D+00  0.0000000000000D+00  0.0000000000000D+00
   312  3.1100000000000D+00  0.0000000000000D+00  0.0000000000000D+00
   313  3.1200000000000D+00  0.0000000000000D+00  0.0000000000000D+00
   314  3.1300000000000D+00  0.0000000000000D+00  0.0000000000000D+00
   315  3.1400000000000D+00  0.0000000000000D+00  0.0000000000000D+00
   316  3.1500000000000D+00  0.0000000000000D+00  0.0000000000000D+00
   317  3.1600000000000D+00  0.0000000000000D+00  0.0000000000000D+00
   318  3.1700000000000D+00  0.0000000000000D+00  0.0000000000000D+00
   319  3.1800000000000D+00  0.0000000000000D+00  0.0000000000000D+00
   320  3.1900000000000D+00  0.0000000000000D+00  0.0000000000000D+00
   321  3.2000000000000D+00  0.0000000000000D+00  0.0000000000000D+00
   322  3.2100000000000D+00  0.0000000000000D+00  0.0000000000000D+00
   323  3.2200000000000D+00  0.0000000000000D+00  0.0000000000000D+00
   324  3.2300000000000D+00  0.0000000000000D+00  0.0000000000000D+00
   325  3.2400000000000D+00  0.0000000000000D+00  0.0000000000000D+00
   326  3.2500000000000D+00  0.0000000000000D+00  0.0000000000000D+00
   327  3.2600000000000D+00  0.0000000000000D+00  0.0000000000000D+00
   328  3.2700000000000D+00  0.0000000000000D+00  0.0000000000000D+00
   329  3.2800000000000D+00  0.0000000000000D+00  0.0000000000000D+00
   330  3.2900000000000D+00  0.0000000000000D+00  0.0000000000000D+00
   331  3.3000000000000D+00  0.0000000000000D+00  0.0000000000000D+00
   332  3.3100000000000D+00  0.0000000000000D+00  0.0000000000000D+00
   333  3.3200000000000D+00  0.0000000000000D+00  0.0000000000000D+00
   334  3.3300000000000D+00  0.0000000000000D+00  0.0000000000000D+00
   335  3.3400000000000D+00  0.0000000000000D+00  0.0000000000000D+00
   336  3.3500000000000D+00  0.0000000000000D+00  0.0000000000000D+00
   337  3.3600000000000D+00  0.0000000000000D+00  0.0000000000000D+00
   338  3.3700000000000D+00  0.0000000000000D+00  0.0000000000000D+00
   339  3.3800000000000D+00  0.0000000000000D+00  0.0000000000000D+00
   340  3.3900000000000D+00  0.0000000000000D+00  0.0000000000000D+00
   341  3.4000000000000D+00  0.0000000000000D+00  0.0000000000000D+00
   342  3.4100000000000D+00  0.0000000000000D+00  0.0000000000000D+00
   343  3.4200000000000D+00  0.0000000000000D+00  0.0000000000000D+00
   344  3.4300000000000D+00  0.0000000000000D+00  0.0000000000000D+00
   345  3.4400000000000D+00  0.0000000000000D+00  0.0000000000000D+00
   346  3.4500000000000D+00  0.0000000000000D+00  0.0000000000000D+00
   347  3.4600000000000D+00  0.0000000000000D+00  0.0000000000000D+00
   348  3.4700000000000D+00  0.0000000000000D+00  0.0000000000000D+00
   349  3.4800000000000D+00  0.0000000000000D+00  0.0000000000000D+00
   350  3.4900000000000D+00  0.0000000000000D+00  0.0000000000000D+00
   351  3.5000000000000D+00  0.0000000000000D+00  0.0000000000000D+00
   352  3.5100000000000D+00  0.0000000000000D+00  0.0000000000000D+00
   353  3.5200000000000D+00  0.0000000000000D+00  0.0000000000000D+00
   354  3.5300000000000D+00  0.0000000000000D+00  0.0000000000000D+00
   355  3.5400000000000D+00  0.0000000000000D+00  0.0000000000000D+00
   356  3.5500000000000D+00  0.0000000000000D+00  0.0000000000000D+00
   357  3.5600000000000D+00  0.0000000000000D+00  0.0000000000000D+00
   358  3.5700000000000D+00  0.0000000000000D+00  0.0000000000000D+00
   359  3.5800000000000D+00  0.0000000000000D+00  0.0000000000000D+00
   360  3.5900000000000D+00  0.0000000000000D+00  0.0000000000000D+00
   361  3.6000000000000D+00  0.0000000000000D+00  0.0000000000000D+00
   362  3.6100000000000D+00  0.0000000000000D+00  0.0000000000000D+00
   363  3.6200000000000D+00  0.0000000000000D+00  0.0000000000000D+00
   364  3.6300000000000D+00  0.0000000000000D+00  0.0000000000000D+00
   365  3.6400000000000D+00  0.0000000000000D+00  0.0000000000000D+00
   366  3.6500000000000D+00  0.0000000000000D+00  0.0000000000000D+00
   367  3.6600000000000D+00  0.0000000000000D+00  0.0000000000000D+00
   368  3.6700000000000D+00  0.0000000000000D+00  0.0000000000000D+00
   369  3.6800000000000D+00  0.0000000000000D+00  0.0000000000000D+00
   370  3.6900000000000D+00  0.0000000000000D+00  0.0000000000000D+00
   371  3.7000000000000D+00  0.0000000000000D+00  0.0000000000000D+00
   372  3.7100000000000D+00  0.0000000000000D+00  0.0000000000000D+00
   373  3.7200000000000D+00  0.0000000000000D+00  0.0000000000000D+00
   374  3.7300000000000D+00  0.0000000000000D+00  0.0000000000000D+00
   375  3.7400000000000D+00  0.0000000000000D+00  0.0000000000000D+00
   376  3.7500000000000D+00  0.0000000000000D+00  0.0000000000000D+00
   377  3.7600000000000D+00  0.0000000000000D+00  0.0000000000000D+00
   378  3.7700000000000D+00  0.0000000000000D+00  0.0000000000000D+00
   379  3.7800000000000D+00  0.0000000000000D+00  0.0000000000000D+00
   380  3.7900000000000D+00  0.0000000000000D+00  0.0000000000000D+00
   381  3.8000000000000D+00  0.0000000000000D+00  0.0000000000000D+00
   382  3.8100000000000D+00  0.0000000000000D+00  0.0000000000000D+00
   383  3.8200000000000D+00  0.0000000000000D+00  0.0000000000000D+00
   384  3.8300000000000D+00  0.0000000000000D+00  0.0000000000000D+00
   385  3.8400000000000D+00  0.0000000000000D+00  0.0000000000000D+00
   386  3.8500000000000D+00  0.0000000000000D+00  0.0000000000000D+00
   387  3.8600000000000D+00  0.0000000000000D+00  0.0000000000000D+00
   388  3.8700000000000D+00  0.0000000000000D+00  0.0000000000000D+00
   389  3.8800000000000D+00  0.0000000000000D+00  0.0000000000000D+00
   390  3.8900000000000D+00  0.0000000000000D+00  0.0000000000000D+00
   391  3.9000000000000D+00  0.0000000000000D+00  0.0000000000000D+00
   392  3.9100000000000D+00  0.0000000000000D+00  0.0000000000000D+00
   393  3.9200000000000D+00  0.0000000000000D+00  0.0000000000000D+00
   394  3.9300000000000D+00  0.0000000000000D+00  0.0000000000000D+00
   395  3.9400000000000D+00  0.0000000000000D+00  0.0000000000000D+00
   396  3.9500000000000D+00  0.0000000000000D+00  0.0000000000000D+00
   397  3.9600000000000D+00  0.0000000000000D+00  0.0000000000000D+00
   398  3.9700000000000D+00  0.0000000000000D+00  0.0000000000000D+00
   399  3.9800000000000D+00  0.0000000000000D+00  0.0000000000000D+00
   400  3.9900000000000D+00  0.0000000000000D+00  0.0000000000000D+00
   401  4.0000000000000D+00  0.0000000000000D+00  0.0000000000000D+00
   402  4.0100000000000D+00  0.0000000000000D+00  0.0000000000000D+00
   403  4.0200000000000D+00  0.0000000000000D+00  0.0000000000000D+00
   404  4.0300000000000D+00  0.0000000000000D+00  0.0000000000000D+00
   405  4.0400000000000D+00  0.0000000000000D+00  0.0000000000000D+00
   406  4.0500000000000D+00  0.0000000000000D+00  0.0000000000000D+00
   407  4.0600000000000D+00  0.0000000000000D+00  0.0000000000000D+00
   408  4.0700000000000D+00  0.0000000000000D+00  0.0000000000000D+00
   409  4.0800000000000D+00  0.0000000000000D+00  0.0000000000000D+00
   410  4.0900000000000D+00  0.0000000000000D+00  0.0000000000000D+00
   411  4.1000000000000D+00  0.0000000000000D+00  0.0000000000000D+00
   412  4.1100000000000D+00  0.0000000000000D+00  0.0000000000000D+00
   413  4.1200000000000D+00  0.0000000000000D+00  0.0000000000000D+00
   414  4.1300000000000D+00  0.0000000000000D+00  0.0000000000000D+00
   415  4.1400000000000D+00  0.0000000000000D+00  0.0000000000000D+00
   416  4.1500000000000D+00  0.0000000000000D+00  0.0000000000000D+00
   417  4.1600000000000D+00  0.0000000000000D+00  0.0000000000000D+00
   418  4.1700000000000D+00  0.0000000000000D+00  0.0000000000000D+00
   419  4.1800000000000D+00  0.0000000000000D+00  0.0000000000000D+00
   420  4.1900000000000D+00  0.0000000000000D+00  0.0000000000000D+00
   421  4.2000000000000D+00  0.0000000000000D+00  0.0000000000000D+00
   422  4.2100000000000D+00  0.0000000000000D+00  0.0000000000000D+00