Ca    ONCVPSP-3.3.1  r_core=   2.24135   2.49537   2.43654
     20.0000     10.0000      210905    zatom,zion,pspd
     8 -116133   2     4   600     0    pspcod,pspxc,lmax,lloc,mmax,r2well
  5.99000000  0.00000000  0.00000000    rchrg fchrg qchrg
     2     2     2     0    nproj
     3     1           extension_switch
     4     4     0    nprojso
   0                        -3.8504044622138D-01  2.4172521149962D+00
     1  0.0000000000000D+00  1.1809879463254D-11  6.5471517096682D-12
     2  1.0000000000000D-02  6.3252157907984D-03  5.6866765218687D-02
     3  2.0000000000000D-02  1.2669667051581D-02  1.1364494439454D-01
     4  3.0000000000000D-02  1.9052497622665D-02  1.7024608338633D-01
     5  4.0000000000000D-02  2.5492668586049D-02  2.2658199184512D-01
     6  5.0000000000000D-02  3.2008868135789D-02  2.8256487508148D-01
     7  6.0000000000000D-02  3.8619422939442D-02  3.3810746589329D-01
     8  7.0000000000000D-02  4.5342211473725D-02  3.9312315633338D-01
     9  8.0000000000000D-02  5.2194579805692D-02  4.4752612938954D-01
    10  9.0000000000000D-02  5.9193260276164D-02  5.0123149054153D-01
    11  1.0000000000000D-01  6.6354293524761D-02  5.5415539915022D-01
    12  1.1000000000000D-01  7.3692954275938D-02  6.0621519962291D-01
    13  1.2000000000000D-01  8.1223681282940D-02  6.5732955228696D-01
    14  1.3000000000000D-01  8.8960011801767D-02  7.0741856389029D-01
    15  1.4000000000000D-01  9.6914520940170D-02  7.5640391763297D-01
    16  1.5000000000000D-01  1.0509876619758D-01  8.0420900261882D-01
    17  1.6000000000000D-01  1.1352323748093D-01  8.5075904259961D-01
    18  1.7000000000000D-01  1.2219731284853D-01  8.9598122386770D-01
    19  1.8000000000000D-01  1.3112922020021D-01  9.3980482213570D-01
    20  1.9000000000000D-01  1.4032600509616D-01  9.8216132822378D-01
    21  2.0000000000000D-01  1.4979350485073D-01  1.0229845723576D+00
    22  2.1000000000000D-01  1.5953632900978D-01  1.0622108468617D+00
    23  2.2000000000000D-01  1.6955784628226D-01  1.0997790270158D+00
    24  2.3000000000000D-01  1.7986017795850D-01  1.1356306898227D+00
    25  2.4000000000000D-01  1.9044419780870D-01  1.1697102304221D+00
    26  2.5000000000000D-01  2.0130953841718D-01  1.2019649758650D+00
    27  2.6000000000000D-01  2.1245460386927D-01  1.2323452959500D+00
    28  2.7000000000000D-01  2.2387658867048D-01  1.2608047108082D+00
    29  2.8000000000000D-01  2.3557150274050D-01  1.2872999949093D+00
    30  2.9000000000000D-01  2.4753420228884D-01  1.3117912771490D+00
    31  3.0000000000000D-01  2.5975842634436D-01  1.3342421366689D+00
    32  3.1000000000000D-01  2.7223683867740D-01  1.3546196940499D+00
    33  3.2000000000000D-01  2.8496107482218D-01  1.3728946975120D+00
    34  3.3000000000000D-01  2.9792179387684D-01  1.3890416037512D+00
    35  3.4000000000000D-01  3.1110873473128D-01  1.4030386530362D+00
    36  3.5000000000000D-01  3.2451077634688D-01  1.4148679381908D+00
    37  3.6000000000000D-01  3.3811600168954D-01  1.4245154670864D+00
    38  3.7000000000000D-01  3.5191176489632D-01  1.4319712182716D+00
    39  3.8000000000000D-01  3.6588476123801D-01  1.4372291893740D+00
    40  3.9000000000000D-01  3.8002109942478D-01  1.4402874379146D+00
    41  4.0000000000000D-01  3.9430637578916D-01  1.4411481141871D+00
    42  4.1000000000000D-01  4.0872574987132D-01  1.4398174858662D+00
    43  4.2000000000000D-01  4.2326402092470D-01  1.4363059540255D+00
    44  4.3000000000000D-01  4.3790570485663D-01  1.4306280602621D+00
    45  4.4000000000000D-01  4.5263511111773D-01  1.4228024846452D+00
    46  4.5000000000000D-01  4.6743641905661D-01  1.4128520342298D+00
    47  4.6000000000000D-01  4.8229375326172D-01  1.4008036218999D+00
    48  4.7000000000000D-01  4.9719125742057D-01  1.3866882353331D+00
    49  4.8000000000000D-01  5.1211316623848D-01  1.3705408959090D+00
    50  4.9000000000000D-01  5.2704387497283D-01  1.3524006074127D+00
    51  5.0000000000000D-01  5.4196800615629D-01  1.3323102944205D+00
    52  5.1000000000000D-01  5.5687047310237D-01  1.3103167302887D+00
    53  5.2000000000000D-01  5.7173653980892D-01  1.2864704547020D+00
    54  5.3000000000000D-01  5.8655187690046D-01  1.2608256807800D+00
    55  5.4000000000000D-01  6.0130261327707D-01  1.2334401917746D+00
    56  5.5000000000000D-01  6.1597538316729D-01  1.2043752274367D+00
    57  5.6000000000000D-01  6.3055736831363D-01  1.1736953601692D+00
    58  5.7000000000000D-01  6.4503633505238D-01  1.1414683611264D+00
    59  5.8000000000000D-01  6.5940066608419D-01  1.1077650564645D+00
    60  5.9000000000000D-01  6.7363938676790D-01  1.0726591739877D+00
    61  6.0000000000000D-01  6.8774218580700D-01  1.0362271804817D+00
    62  6.1000000000000D-01  7.0169943023653D-01  9.9854811006618D-01
    63  6.2000000000000D-01  7.1550217465661D-01  9.5970338394294D-01
    64  6.3000000000000D-01  7.2914216469810D-01  9.1977662195755D-01
    65  6.4000000000000D-01  7.4261183474498D-01  8.7885344643347D-01
    66  6.5000000000000D-01  7.5590429997743D-01  8.3702127877851D-01
    67  6.6000000000000D-01  7.6901334283847D-01  7.9436912940200D-01
    68  6.7000000000000D-01  7.8193339406507D-01  7.5098738151814D-01
    69  6.8000000000000D-01  7.9465950846252D-01  7.0696756944698D-01
    70  6.9000000000000D-01  8.0718733563693D-01  6.6240215205762D-01
    71  7.0000000000000D-01  8.1951308593602D-01  6.1738428202978D-01
    72  7.1000000000000D-01  8.3163349188208D-01  5.7200757163821D-01
    73  7.2000000000000D-01  8.4354576541248D-01  5.2636585579148D-01
    74  7.3000000000000D-01  8.5524755127360D-01  4.8055295307902D-01
    75  7.4000000000000D-01  8.6673687694105D-01  4.3466242560161D-01
    76  7.5000000000000D-01  8.7801209946537D-01  3.8878733837731D-01
    77  7.6000000000000D-01  8.8907184966433D-01  3.4302001912867D-01
    78  7.7000000000000D-01  8.9991497410410D-01  2.9745181926817D-01
    79  7.8000000000000D-01  9.1054047532828D-01  2.5217287690530D-01
    80  7.9000000000000D-01  9.2094745080874D-01  2.0727188270242D-01
    81  8.0000000000000D-01  9.3113503110325D-01  1.6283584940639D-01
    82  8.1000000000000D-01  9.4110231771360D-01  1.1894988587848D-01
    83  8.2000000000000D-01  9.5084832114267D-01  7.5696976438022D-02
    84  8.3000000000000D-01  9.6037189965083D-01  3.3157766322861D-02
    85  8.4000000000000D-01  9.6967169921074D-01 -8.5896459449199D-03
    86  8.5000000000000D-01  9.7874609515467D-01 -4.9469908519237D-02
    87  8.6000000000000D-01  9.8759313600050D-01 -8.9410607769934D-02
    88  8.7000000000000D-01  9.9621048993128D-01 -1.2834245068279D-01
    89  8.8000000000000D-01  1.0045953943887D+00 -1.6619943742998D-01
    90  8.9000000000000D-01  1.0127446092233D+00 -2.0291902345496D-01
    91  9.0000000000000D-01  1.0206543738231D+00 -2.3844227045240D-01
    92  9.1000000000000D-01  1.0283203686191D+00 -2.7271398566420D-01
    93  9.2000000000000D-01  1.0357376813408D+00 -3.0568284895521D-01
    94  9.3000000000000D-01  1.0429007783622D+00 -3.3730152717854D-01
    95  9.4000000000000D-01  1.0498034814521D+00 -3.6752677538884D-01
    96  9.5000000000000D-01  1.0564389502051D+00 -3.9631952451256D-01
    97  9.6000000000000D-01  1.0627996703946D+00 -4.2364495513788D-01
    98  9.7000000000000D-01  1.0688774484517D+00 -4.4947255714199D-01
    99  9.8000000000000D-01  1.0746634122344D+00 -4.7377617492967D-01
   100  9.9000000000000D-01  1.0801480182105D+00 -4.9653403811603D-01
   101  1.0000000000000D+00  1.0853210651338D+00 -5.1772877754548D-01
   102  1.0100000000000D+00  1.0901717142534D+00 -5.3734742659927D-01
   103  1.0200000000000D+00  1.0946885160495D+00 -5.5538140780453D-01
   104  1.0300000000000D+00  1.0988594434458D+00 -5.7182650481880D-01
   105  1.0400000000000D+00  1.1026719314041D+00 -5.8668281992741D-01
   106  1.0500000000000D+00  1.1061129227640D+00 -5.9995471724576D-01
   107  1.0600000000000D+00  1.1091689201464D+00 -6.1165075188653D-01
   108  1.0700000000000D+00  1.1118260436934D+00 -6.2178358540544D-01
   109  1.0800000000000D+00  1.1140700943828D+00 -6.3036988789871D-01
   110  1.0900000000000D+00  1.1158866226038D+00 -6.3743022718467D-01
   111  1.1000000000000D+00  1.1172610016559D+00 -6.4298894554842D-01
   112  1.1100000000000D+00  1.1181785057807D+00 -6.4707402459133D-01
   113  1.1200000000000D+00  1.1186243923121D+00 -6.4971693876979D-01
   114  1.1300000000000D+00  1.1185839874908D+00 -6.5095249825993D-01
   115  1.1400000000000D+00  1.1180427754634D+00 -6.5081868182361D-01
   116  1.1500000000000D+00  1.1169864899570D+00 -6.4935646039806D-01
   117  1.1600000000000D+00  1.1154012080918D+00 -6.4660961216801D-01
   118  1.1700000000000D+00  1.1132734457778D+00 -6.4262452991468D-01
   119  1.1800000000000D+00  1.1105902541225D+00 -6.3745002146058D-01
   120  1.1900000000000D+00  1.1073393162579D+00 -6.3113710406572D-01
   121  1.2000000000000D+00  1.1035090439862D+00 -6.2373879364808D-01
   122  1.2100000000000D+00  1.0990886736369D+00 -6.1530988971974D-01
   123  1.2200000000000D+00  1.0940683605209D+00 -6.0590675694536D-01
   124  1.2300000000000D+00  1.0884392713686D+00 -5.9558710424297D-01
   125  1.2400000000000D+00  1.0821936741440D+00 -5.8440976234665D-01
   126  1.2500000000000D+00  1.0753250246293D+00 -5.7243446075772D-01
   127  1.2600000000000D+00  1.0678280491877D+00 -5.5972160500705D-01
   128  1.2700000000000D+00  1.0596988231364D+00 -5.4633205513574D-01
   129  1.2800000000000D+00  1.0509348441585D+00 -5.3232690630511D-01
   130  1.2900000000000D+00  1.0415351002227D+00 -5.1776727241927D-01
   131  1.3000000000000D+00  1.0315001315139D+00 -5.0271407361352D-01
   132  1.3100000000000D+00  1.0208320858674D+00 -4.8722782847166D-01
   133  1.3200000000000D+00  1.0095347672742D+00 -4.7136845177121D-01
   134  1.3300000000000D+00  9.9761367705789D-01 -4.5519505852099D-01
   135  1.3400000000000D+00  9.8507604730560D-01 -4.3876577507781D-01
   136  1.3500000000000D+00  9.7193086626180D-01 -4.2213755800303D-01
   137  1.3600000000000D+00  9.5818889538285D-01 -4.0536602133216D-01
   138  1.3700000000000D+00  9.4386267777409D-01 -3.8850527290739D-01
   139  1.3800000000000D+00  9.2896653787669D-01 -3.7160776027351D-01
   140  1.3900000000000D+00  9.1351657219106D-01 -3.5472412672021D-01
   141  1.4000000000000D+00  8.9753063096696D-01 -3.3790307790697D-01
   142  1.4100000000000D+00  8.8102829085168D-01 -3.2119125943504D-01
   143  1.4200000000000D+00  8.6403081840472D-01 -3.0463314582689D-01
   144  1.4300000000000D+00  8.4656112466300D-01 -2.8827094106819D-01
   145  1.4400000000000D+00  8.2864371076762D-01 -2.7214449105806D-01
   146  1.4500000000000D+00  8.1030460486124D-01 -2.5629120809591D-01
   147  1.4600000000000D+00  7.9157129051125D-01 -2.4074600747096D-01
   148  1.4700000000000D+00  7.7247262681685D-01 -2.2554125634373D-01
   149  1.4800000000000D+00  7.5303876068607D-01 -2.1070673471202D-01
   150  1.4900000000000D+00  7.3330103147515D-01 -1.9626960861121D-01
   151  1.5000000000000D+00  7.1329186855953D-01 -1.8225441523895D-01
   152  1.5100000000000D+00  6.9304468220748D-01 -1.6868305993142D-01
   153  1.5200000000000D+00  6.7259374828532D-01 -1.5557482473339D-01
   154  1.5300000000000D+00  6.5197408738897D-01 -1.4294638819263D-01
   155  1.5400000000000D+00  6.3122133887855D-01 -1.3081185619884D-01
   156  1.5500000000000D+00  6.1037163059377D-01 -1.1918280322859D-01
   157  1.5600000000000D+00  5.8946144471496D-01 -1.0806832384965D-01
   158  1.5700000000000D+00  5.6852748063488D-01 -9.7475093693340D-02
   159  1.5800000000000D+00  5.4760651538353D-01 -8.7407439643560D-02
   160  1.5900000000000D+00  5.2673526245425D-01 -7.7867418451760D-02
   161  1.6000000000000D+00  5.0595022967870D-01 -6.8854903352465D-02
   162  1.6100000000000D+00  4.8528757696708D-01 -6.0367677924285D-02
   163  1.6200000000000D+00  4.6478297462426D-01 -5.2401536625613D-02
   164  1.6300000000000D+00  4.4447146304452D-01 -4.4950391271764D-02
   165  1.6400000000000D+00  4.2438731450256D-01 -3.8006382788594D-02
   166  1.6500000000000D+00  4.0456389785112D-01 -3.1559997508711D-02
   167  1.6600000000000D+00  3.8503354679535D-01 -2.5600187306655D-02
   168  1.6700000000000D+00  3.6582743257785D-01 -2.0114492816962D-02
   169  1.6800000000000D+00  3.4697544165085D-01 -1.5089169044658D-02
   170  1.6900000000000D+00  3.2850605919752D-01 -1.0509312575822D-02
   171  1.7000000000000D+00  3.1044625895545D-01 -6.3589897520051D-03
   172  1.7100000000000D+00  2.9282140021844D-01 -2.6213649793041D-03
   173  1.7200000000000D+00  2.7565513233922D-01  7.2117138625245D-04
   174  1.7300000000000D+00  2.5896930758610D-01  3.6868764240957D-03
   175  1.7400000000000D+00  2.4278390256817D-01  6.2945297865084D-03
   176  1.7500000000000D+00  2.2711694899158D-01  8.5633114083743D-03
   177  1.7600000000000D+00  2.1198447391197D-01  1.0512682224942D-02
   178  1.7700000000000D+00  1.9740045005398D-01  1.2162268615947D-02
   179  1.7800000000000D+00  1.8337675640981D-01  1.3531751033141D-02
   180  1.7900000000000D+00  1.6992314936240D-01  1.4640757319364D-02
   181  1.8000000000000D+00  1.5704724472279D-01  1.5508761300028D-02
   182  1.8100000000000D+00  1.4475451044413D-01  1.6154986808096D-02
   183  1.8200000000000D+00  1.3304827073058D-01  1.6598317976694D-02
   184  1.8300000000000D+00  1.2192972065986D-01  1.6857215462421D-02
   185  1.8400000000000D+00  1.1139795250940D-01  1.6949639822524D-02
   186  1.8500000000000D+00  1.0144999215404D-01  1.6892981090615D-02
   187  1.8600000000000D+00  9.2080847149960D-02  1.6703996154593D-02
   188  1.8700000000000D+00  8.3283564495114D-02  1.6398752631414D-02
   189  1.8800000000000D+00  7.5049299388929D-02  1.5992580656781D-02
   190  1.8900000000000D+00  6.7367393419807D-02  1.5500031595598D-02
   191  1.9000000000000D+00  6.0225462596993D-02  1.4934844374220D-02
   192  1.9100000000000D+00  5.3609494471093D-02  1.4309919108162D-02
   193  1.9200000000000D+00  4.7503953653425D-02  1.3637297772521D-02
   194  1.9300000000000D+00  4.1891895900043D-02  1.2928152422472D-02
   195  1.9400000000000D+00  3.6755089014537D-02  1.2192779708682D-02
   196  1.9500000000000D+00  3.2074141383875D-02  1.1440602864955D-02
   197  1.9600000000000D+00  2.7828636037684D-02  1.0680179483110D-02
   198  1.9700000000000D+00  2.3997270672280D-02  9.9192159758723D-03
   199  1.9800000000000D+00  2.0558002219318D-02  9.1645876557540D-03
   200  1.9900000000000D+00  1.7488195393758D-02  8.4223643214252D-03
   201  2.0000000000000D+00  1.4764774636899D-02  7.6978412162963D-03
   202  2.0100000000000D+00  1.2364378207418D-02  6.9955743303914D-03
   203  2.0200000000000D+00  1.0263514077286D-02  6.3194204376220D-03
   204  2.0300000000000D+00  8.4387164855563D-03  5.6725806761418D-03
   205  2.0400000000000D+00  6.8667023925063D-03  5.0576476973945D-03
   206  2.0500000000000D+00  5.5245270671381D-03  4.4766557433880D-03
   207  2.0600000000000D+00  4.3897380043275D-03  3.9311331521176D-03
   208  2.0700000000000D+00  3.4405283345736D-03  3.4221589961828D-03
   209  2.0800000000000D+00  2.6558756295308D-03  2.9504106029351D-03
   210  2.0900000000000D+00  2.0157037274843D-03  2.5162374935418D-03
   211  2.1000000000000D+00  1.5010045426815D-03  2.1197029060237D-03
   212  2.1100000000000D+00  1.0939508479515D-03  1.7606223365943D-03
   213  2.1200000000000D+00  7.7804709612523D-04  1.4386459568574D-03
   214  2.1300000000000D+00  5.3839209457094D-04  1.1534414085365D-03
   215  2.1400000000000D+00  3.6155102813775D-04  9.0453262013090D-04
   216  2.1500000000000D+00  2.3551984107868D-04  6.9122716071987D-04
   217  2.1600000000000D+00  1.4967227449984D-04  5.1253241427039D-04
   218  2.1700000000000D+00  9.4775941114387D-05  3.6707636636309D-04
   219  2.1800000000000D+00  6.2481968661069D-05  2.5278400215401D-04
   220  2.1900000000000D+00  4.5586412446483D-05  1.6691339866564D-04
   221  2.2000000000000D+00  3.8110779786791D-05  1.0602606252009D-04
   222  2.2100000000000D+00  3.6759298257602D-05  6.7410325656313D-05
   223  2.2200000000000D+00  3.9338885217416D-05  4.7928059763642D-05
   224  2.2300000000000D+00  4.1857340653241D-05  4.0534220143468D-05
   225  2.2400000000000D+00  3.9290810056236D-05  3.5756923600317D-05
   226  2.2500000000000D+00  2.7089392375216D-05  2.4369733970503D-05
   227  2.2600000000000D+00  1.1237551860104D-05  1.0173604435529D-05
   228  2.2700000000000D+00 -1.2147461787365D-06 -1.0505597471379D-06
   229  2.2800000000000D+00 -4.1360497824313D-06 -3.5643136780017D-06
   230  2.2900000000000D+00 -2.0155843265432D-06 -1.7344335927613D-06
   231  2.3000000000000D+00  5.3397880834003D-07  4.5161166384586D-07
   232  2.3100000000000D+00  9.0076706008982D-07  7.5877352576703D-07
   233  2.3200000000000D+00  2.7841095737310D-07  2.3375280781597D-07
   234  2.3300000000000D+00 -8.3413523889574D-08 -7.5863404120937D-08
   235  2.3400000000000D+00 -9.9571650005779D-08 -9.0558988172913D-08
   236  2.3500000000000D+00 -1.0237689205045D-08 -9.3110315595230D-09
   237  2.3600000000000D+00  0.0000000000000D+00  0.0000000000000D+00
   238  2.3700000000000D+00  0.0000000000000D+00  0.0000000000000D+00
   239  2.3800000000000D+00  0.0000000000000D+00  0.0000000000000D+00
   240  2.3900000000000D+00  0.0000000000000D+00  0.0000000000000D+00
   241  2.4000000000000D+00  0.0000000000000D+00  0.0000000000000D+00
   242  2.4100000000000D+00  0.0000000000000D+00  0.0000000000000D+00
   243  2.4200000000000D+00  0.0000000000000D+00  0.0000000000000D+00
   244  2.4300000000000D+00  0.0000000000000D+00  0.0000000000000D+00
   245  2.4400000000000D+00  0.0000000000000D+00  0.0000000000000D+00
   246  2.4500000000000D+00  0.0000000000000D+00  0.0000000000000D+00
   247  2.4600000000000D+00  0.0000000000000D+00  0.0000000000000D+00
   248  2.4700000000000D+00  0.0000000000000D+00  0.0000000000000D+00
   249  2.4800000000000D+00  0.0000000000000D+00  0.0000000000000D+00
   250  2.4900000000000D+00  0.0000000000000D+00  0.0000000000000D+00
   251  2.5000000000000D+00  0.0000000000000D+00  0.0000000000000D+00
   252  2.5100000000000D+00  0.0000000000000D+00  0.0000000000000D+00
   253  2.5200000000000D+00  0.0000000000000D+00  0.0000000000000D+00
   254  2.5300000000000D+00  0.0000000000000D+00  0.0000000000000D+00
   255  2.5400000000000D+00  0.0000000000000D+00  0.0000000000000D+00
   256  2.5500000000000D+00  0.0000000000000D+00  0.0000000000000D+00
   257  2.5600000000000D+00  0.0000000000000D+00  0.0000000000000D+00
   258  2.5700000000000D+00  0.0000000000000D+00  0.0000000000000D+00
   259  2.5800000000000D+00  0.0000000000000D+00  0.0000000000000D+00
   260  2.5900000000000D+00  0.0000000000000D+00  0.0000000000000D+00
   261  2.6000000000000D+00  0.0000000000000D+00  0.0000000000000D+00
   262  2.6100000000000D+00  0.0000000000000D+00  0.0000000000000D+00
   263  2.6200000000000D+00  0.0000000000000D+00  0.0000000000000D+00
   264  2.6300000000000D+00  0.0000000000000D+00  0.0000000000000D+00
   265  2.6400000000000D+00  0.0000000000000D+00  0.0000000000000D+00
   266  2.6500000000000D+00  0.0000000000000D+00  0.0000000000000D+00
   267  2.6600000000000D+00  0.0000000000000D+00  0.0000000000000D+00
   268  2.6700000000000D+00  0.0000000000000D+00  0.0000000000000D+00
   269  2.6800000000000D+00  0.0000000000000D+00  0.0000000000000D+00
   270  2.6900000000000D+00  0.0000000000000D+00  0.0000000000000D+00
   271  2.7000000000000D+00  0.0000000000000D+00  0.0000000000000D+00
   272  2.7100000000000D+00  0.0000000000000D+00  0.0000000000000D+00
   273  2.7200000000000D+00  0.0000000000000D+00  0.0000000000000D+00
   274  2.7300000000000D+00  0.0000000000000D+00  0.0000000000000D+00
   275  2.7400000000000D+00  0.0000000000000D+00  0.0000000000000D+00
   276  2.7500000000000D+00  0.0000000000000D+00  0.0000000000000D+00
   277  2.7600000000000D+00  0.0000000000000D+00  0.0000000000000D+00
   278  2.7700000000000D+00  0.0000000000000D+00  0.0000000000000D+00
   279  2.7800000000000D+00  0.0000000000000D+00  0.0000000000000D+00
   280  2.7900000000000D+00  0.0000000000000D+00  0.0000000000000D+00
   281  2.8000000000000D+00  0.0000000000000D+00  0.0000000000000D+00
   282  2.8100000000000D+00  0.0000000000000D+00  0.0000000000000D+00
   283  2.8200000000000D+00  0.0000000000000D+00  0.0000000000000D+00
   284  2.8300000000000D+00  0.0000000000000D+00  0.0000000000000D+00
   285  2.8400000000000D+00  0.0000000000000D+00  0.0000000000000D+00
   286  2.8500000000000D+00  0.0000000000000D+00  0.0000000000000D+00
   287  2.8600000000000D+00  0.0000000000000D+00  0.0000000000000D+00
   288  2.8700000000000D+00  0.0000000000000D+00  0.0000000000000D+00
   289  2.8800000000000D+00  0.0000000000000D+00  0.0000000000000D+00
   290  2.8900000000000D+00  0.0000000000000D+00  0.0000000000000D+00
   291  2.9000000000000D+00  0.0000000000000D+00  0.0000000000000D+00
   292  2.9100000000000D+00  0.0000000000000D+00  0.0000000000000D+00
   293  2.9200000000000D+00  0.0000000000000D+00  0.0000000000000D+00
   294  2.9300000000000D+00  0.0000000000000D+00  0.0000000000000D+00
   295  2.9400000000000D+00  0.0000000000000D+00  0.0000000000000D+00
   296  2.9500000000000D+00  0.0000000000000D+00  0.0000000000000D+00
   297  2.9600000000000D+00  0.0000000000000D+00  0.0000000000000D+00
   298  2.9700000000000D+00  0.0000000000000D+00  0.0000000000000D+00
   299  2.9800000000000D+00  0.0000000000000D+00  0.0000000000000D+00
   300  2.9900000000000D+00  0.0000000000000D+00  0.0000000000000D+00
   301  3.0000000000000D+00  0.0000000000000D+00  0.0000000000000D+00
   302  3.0100000000000D+00  0.0000000000000D+00  0.0000000000000D+00
   303  3.0200000000000D+00  0.0000000000000D+00  0.0000000000000D+00
   304  3.0300000000000D+00  0.0000000000000D+00  0.0000000000000D+00
   305  3.0400000000000D+00  0.0000000000000D+00  0.0000000000000D+00
   306  3.0500000000000D+00  0.0000000000000D+00  0.0000000000000D+00
   307  3.0600000000000D+00  0.0000000000000D+00  0.0000000000000D+00
   308  3.0700000000000D+00  0.0000000000000D+00  0.0000000000000D+00
   309  3.0800000000000D+00  0.0000000000000D+00  0.0000000000000D+00
   310  3.0900000000000D+00  0.0000000000000D+00  0.0000000000000D+00
   311  3.1000000000000D+00  0.0000000000000D+00  0.0000000000000D+00
   312  3.1100000000000D+00  0.0000000000000D+00  0.0000000000000D+00
   313  3.1200000000000D+00  0.0000000000000D+00  0.0000000000000D+00
   314  3.1300000000000D+00  0.0000000000000D+00  0.0000000000000D+00
   315  3.1400000000000D+00  0.0000000000000D+00  0.0000000000000D+00
   316  3.1500000000000D+00  0.0000000000000D+00  0.0000000000000D+00
   317  3.1600000000000D+00  0.0000000000000D+00  0.0000000000000D+00
   318  3.1700000000000D+00  0.0000000000000D+00  0.0000000000000D+00
   319  3.1800000000000D+00  0.0000000000000D+00  0.0000000000000D+00
   320  3.1900000000000D+00  0.0000000000000D+00  0.0000000000000D+00
   321  3.2000000000000D+00  0.0000000000000D+00  0.0000000000000D+00
   322  3.2100000000000D+00  0.0000000000000D+00  0.0000000000000D+00
   323  3.2200000000000D+00  0.0000000000000D+00  0.0000000000000D+00
   324  3.2300000000000D+00  0.0000000000000D+00  0.0000000000000D+00
   325  3.2400000000000D+00  0.0000000000000D+00  0.0000000000000D+00
   326  3.2500000000000D+00  0.0000000000000D+00  0.0000000000000D+00
   327  3.2600000000000D+00  0.0000000000000D+00  0.0000000000000D+00
   328  3.2700000000000D+00  0.0000000000000D+00  0.0000000000000D+00
   329  3.2800000000000D+00  0.0000000000000D+00  0.0000000000000D+00
   330  3.2900000000000D+00  0.0000000000000D+00  0.0000000000000D+00
   331  3.3000000000000D+00  0.0000000000000D+00  0.0000000000000D+00
   332  3.3100000000000D+00  0.0000000000000D+00  0.0000000000000D+00
   333  3.3200000000000D+00  0.0000000000000D+00  0.0000000000000D+00
   334  3.3300000000000D+00  0.0000000000000D+00  0.0000000000000D+00
   335  3.3400000000000D+00  0.0000000000000D+00  0.0000000000000D+00
   336  3.3500000000000D+00  0.0000000000000D+00  0.0000000000000D+00
   337  3.3600000000000D+00  0.0000000000000D+00  0.0000000000000D+00
   338  3.3700000000000D+00  0.0000000000000D+00  0.0000000000000D+00
   339  3.3800000000000D+00  0.0000000000000D+00  0.0000000000000D+00
   340  3.3900000000000D+00  0.0000000000000D+00  0.0000000000000D+00
   341  3.4000000000000D+00  0.0000000000000D+00  0.0000000000000D+00
   342  3.4100000000000D+00  0.0000000000000D+00  0.0000000000000D+00
   343  3.4200000000000D+00  0.0000000000000D+00  0.0000000000000D+00
   344  3.4300000000000D+00  0.0000000000000D+00  0.0000000000000D+00
   345  3.4400000000000D+00  0.0000000000000D+00  0.0000000000000D+00
   346  3.4500000000000D+00  0.0000000000000D+00  0.0000000000000D+00
   347  3.4600000000000D+00  0.0000000000000D+00  0.0000000000000D+00
   348  3.4700000000000D+00  0.0000000000000D+00  0.0000000000000D+00
   349  3.4800000000000D+00  0.0000000000000D+00  0.0000000000000D+00
   350  3.4900000000000D+00  0.0000000000000D+00  0.0000000000000D+00
   351  3.5000000000000D+00  0.0000000000000D+00  0.0000000000000D+00
   352  3.5100000000000D+00  0.0000000000000D+00  0.0000000000000D+00
   353  3.5200000000000D+00  0.0000000000000D+00  0.0000000000000D+00
   354  3.5300000000000D+00  0.0000000000000D+00  0.0000000000000D+00
   355  3.5400000000000D+00  0.0000000000000D+00  0.0000000000000D+00
   356  3.5500000000000D+00  0.0000000000000D+00  0.0000000000000D+00
   357  3.5600000000000D+00  0.0000000000000D+00  0.0000000000000D+00
   358  3.5700000000000D+00  0.0000000000000D+00  0.0000000000000D+00
   359  3.5800000000000D+00  0.0000000000000D+00  0.0000000000000D+00
   360  3.5900000000000D+00  0.0000000000000D+00  0.0000000000000D+00
   361  3.6000000000000D+00  0.0000000000000D+00  0.0000000000000D+00
   362  3.6100000000000D+00  0.0000000000000D+00  0.0000000000000D+00
   363  3.6200000000000D+00  0.0000000000000D+00  0.0000000000000D+00
   364  3.6300000000000D+00  0.0000000000000D+00  0.0000000000000D+00
   365  3.6400000000000D+00  0.0000000000000D+00  0.0000000000000D+00
   366  3.6500000000000D+00  0.0000000000000D+00  0.0000000000000D+00
   367  3.6600000000000D+00  0.0000000000000D+00  0.0000000000000D+00
   368  3.6700000000000D+00  0.0000000000000D+00  0.0000000000000D+00
   369  3.6800000000000D+00  0.0000000000000D+00  0.0000000000000D+00
   370  3.6900000000000D+00  0.0000000000000D+00  0.0000000000000D+00
   371  3.7000000000000D+00  0.0000000000000D+00  0.0000000000000D+00
   372  3.7100000000000D+00  0.0000000000000D+00  0.0000000000000D+00
   373  3.7200000000000D+00  0.0000000000000D+00  0.0000000000000D+00
   374  3.7300000000000D+00  0.0000000000000D+00  0.0000000000000D+00
   375  3.7400000000000D+00  0.0000000000000D+00  0.0000000000000D+00
   376  3.7500000000000D+00  0.0000000000000D+00  0.0000000000000D+00
   377  3.7600000000000D+00  0.0000000000000D+00  0.0000000000000D+00
   378  3.7700000000000D+00  0.0000000000000D+00  0.0000000000000D+00
   379  3.7800000000000D+00  0.0000000000000D+00  0.0000000000000D+00
   380  3.7900000000000D+00  0.0000000000000D+00  0.0000000000000D+00
   381  3.8000000000000D+00  0.0000000000000D+00  0.0000000000000D+00
   382  3.8100000000000D+00  0.0000000000000D+00  0.0000000000000D+00
   383  3.8200000000000D+00  0.0000000000000D+00  0.0000000000000D+00
   384  3.8300000000000D+00  0.0000000000000D+00  0.0000000000000D+00
   385  3.8400000000000D+00  0.0000000000000D+00  0.0000000000000D+00
   386  3.8500000000000D+00  0.0000000000000D+00  0.0000000000000D+00
   387  3.8600000000000D+00  0.0000000000000D+00  0.0000000000000D+00
   388  3.8700000000000D+00  0.0000000000000D+00  0.0000000000000D+00
   389  3.8800000000000D+00  0.0000000000000D+00  0.0000000000000D+00
   390  3.8900000000000D+00  0.0000000000000D+00  0.0000000000000D+00
   391  3.9000000000000D+00  0.0000000000000D+00  0.0000000000000D+00
   392  3.9100000000000D+00  0.0000000000000D+00  0.0000000000000D+00
   393  3.9200000000000D+00  0.0000000000000D+00  0.0000000000000D+00
   394  3.9300000000000D+00  0.0000000000000D+00  0.0000000000000D+00
   395  3.9400000000000D+00  0.0000000000000D+00  0.0000000000000D+00
   396  3.9500000000000D+00  0.0000000000000D+00  0.0000000000000D+00
   397  3.9600000000000D+00  0.0000000000000D+00  0.0000000000000D+00
   398  3.9700000000000D+00  0.0000000000000D+00  0.0000000000000D+00
   399  3.9800000000000D+00  0.0000000000000D+00  0.0000000000000D+00
   400  3.9900000000000D+00  0.0000000000000D+00  0.0000000000000D+00
   401  4.0000000000000D+00  0.0000000000000D+00  0.0000000000000D+00
   402  4.0100000000000D+00  0.0000000000000D+00  0.0000000000000D+00
   403  4.0200000000000D+00  0.0000000000000D+00  0.0000000000000D+00
   404  4.0300000000000D+00  0.0000000000000D+00  0.0000000000000D+00
   405  4.0400000000000D+00  0.0000000000000D+00  0.0000000000000D+00
   406  4.0500000000000D+00  0.0000000000000D+00  0.0000000000000D+00
   407  4.0600000000000D+00  0.0000000000000D+00  0.0000000000000D+00
   408  4.0700000000000D+00  0.0000000000000D+00  0.0000000000000D+00
   409  4.0800000000000D+00  0.0000000000000D+00  0.0000000000000D+00
   410  4.0900000000000D+00  0.0000000000000D+00  0.0000000000000D+00
   411  4.1000000000000D+00  0.0000000000000D+00  0.0000000000000D+00
   412  4.1100000000000D+00  0.0000000000000D+00  0.0000000000000D+00
   413  4.1200000000000D+00  0.0000000000000D+00  0.0000000000000D+00
   414  4.1300000000000D+00  0.0000000000000D+00  0.0000000000000D+00
   415  4.1400000000000D+00  0.0000000000000D+00  0.0000000000000D+00
   416  4.1500000000000D+00  0.0000000000000D+00  0.0000000000000D+00
   417  4.1600000000000D+00  0.0000000000000D+00  0.0000000000000D+00
   418  4.1700000000000D+00  0.0000000000000D+00  0.0000000000000D+00
   419  4.1800000000000D+00  0.0000000000000D+00  0.0000000000000D+00
   420  4.1900000000000D+00  0.0000000000000D+00  0.0000000000000D+00
   421  4.2000000000000D+00  0.0000000000000D+00  0.0000000000000D+00
   422  4.2100000000000D+00  0.0000000000000D+00  0.0000000000000D+00