Cd    ONCVPSP-3.3.1  r_core=   2.33990   2.70000   3.04207
     48.0000     20.0000      210905    zatom,zion,pspd
     8 -116133   2     4   600     0    pspcod,pspxc,lmax,lloc,mmax,r2well
  5.99000000  0.00000000  0.00000000    rchrg fchrg qchrg
     2     3     3     0    nproj
     3     1           extension_switch
     4     3     0    nprojso
   0                        -6.9221878259404D-01  1.9580503190829D+00
     1  0.0000000000000D+00  5.5239007812347D-12 -1.8260393197522D-12
     2  1.0000000000000D-02  1.5332830698905D-02  5.6452204490051D-02
     3  2.0000000000000D-02  3.0679762253640D-02  1.1279921644767D-01
     4  3.0000000000000D-02  4.6054813404883D-02  1.6893605095443D-01
     5  4.0000000000000D-02  6.1471839001699D-02  2.2475813793356D-01
     6  5.0000000000000D-02  7.6944448901053D-02  2.8016152860556D-01
     7  6.0000000000000D-02  9.2485927877798D-02  3.3504310078662D-01
     8  7.0000000000000D-02  1.0810915687545D-01  3.8930076264649D-01
     9  8.0000000000000D-02  1.2382653592255D-01  4.4283365454394D-01
    10  9.0000000000000D-02  1.3964990903249D-01  4.9554234856048D-01
    11  1.0000000000000D-01  1.5559049139651D-01  5.4732904535566D-01
    12  1.1000000000000D-01  1.7165879917018D-01  5.9809776797042D-01
    13  1.2000000000000D-01  1.8786458214274D-01  6.4775455220903D-01
    14  1.3000000000000D-01  2.0421675956706D-01  6.9620763323397D-01
    15  1.4000000000000D-01  2.2072335941480D-01  7.4336762801308D-01
    16  1.5000000000000D-01  2.3739146130705D-01  7.8914771326334D-01
    17  1.6000000000000D-01  2.5422714335596D-01  8.3346379854164D-01
    18  1.7000000000000D-01  2.7123543313629D-01  8.7623469413876D-01
    19  1.8000000000000D-01  2.8842026298919D-01  9.1738227343994D-01
    20  1.9000000000000D-01  3.0578442984223D-01  9.5683162942244D-01
    21  2.0000000000000D-01  3.2332955971168D-01  9.9451122496862D-01
    22  2.1000000000000D-01  3.4105607703298D-01  1.0303530366812D+00
    23  2.2000000000000D-01  3.5896317894628D-01  1.0642926918970D+00
    24  2.3000000000000D-01  3.7704881464290D-01  1.0962695986033D+00
    25  2.4000000000000D-01  3.9530966985821D-01  1.1262270679748D+00
    26  2.5000000000000D-01  4.1374115657494D-01  1.1541124292545D+00
    27  2.6000000000000D-01  4.3233740797977D-01  1.1798771367192D+00
    28  2.7000000000000D-01  4.5109127869452D-01  1.2034768684766D+00
    29  2.8000000000000D-01  4.6999435028137D-01  1.2248716168589D+00
    30  2.9000000000000D-01  4.8903694200046D-01  1.2440257701865D+00
    31  3.0000000000000D-01  5.0820812677612D-01  1.2609081856919D+00
    32  3.1000000000000D-01  5.2749575230744D-01  1.2754922534084D+00
    33  3.2000000000000D-01  5.4688646723727D-01  1.2877559508414D+00
    34  3.3000000000000D-01  5.6636575227363D-01  1.2976818882578D+00
    35  3.4000000000000D-01  5.8591795613730D-01  1.3052573444448D+00
    36  3.5000000000000D-01  6.0552633618967D-01  1.3104742928058D+00
    37  3.6000000000000D-01  6.2517310357626D-01  1.3133294176795D+00
    38  3.7000000000000D-01  6.4483947270312D-01  1.3138241207863D+00
    39  3.8000000000000D-01  6.6450571484572D-01  1.3119645177244D+00
    40  3.9000000000000D-01  6.8415121567383D-01  1.3077614244581D+00
    41  4.0000000000000D-01  7.0375453646003D-01  1.3012303337607D+00
    42  4.1000000000000D-01  7.2329347872509D-01  1.2923913815941D+00
    43  4.2000000000000D-01  7.4274515205991D-01  1.2812693034291D+00
    44  4.3000000000000D-01  7.6208604485150D-01  1.2678933805316D+00
    45  4.4000000000000D-01  7.8129209762917D-01  1.2522973762610D+00
    46  4.5000000000000D-01  8.0033877873716D-01  1.2345194624512D+00
    47  4.6000000000000D-01  8.1920116203141D-01  1.2146021359653D+00
    48  4.7000000000000D-01  8.3785400629064D-01  1.1925921255398D+00
    49  4.8000000000000D-01  8.5627183602586D-01  1.1685402890561D+00
    50  4.9000000000000D-01  8.7442902336788D-01  1.1425015014018D+00
    51  5.0000000000000D-01  8.9229987070891D-01  1.1145345331067D+00
    52  5.1000000000000D-01  9.0985869377250D-01  1.0847019199640D+00
    53  5.2000000000000D-01  9.2707990478542D-01  1.0530698238694D+00
    54  5.3000000000000D-01  9.4393809542608D-01  1.0197078851355D+00
    55  5.4000000000000D-01  9.6040811922617D-01  9.8468906656282D-01
    56  5.5000000000000D-01  9.7646517310570D-01  9.4808948957197D-01
    57  5.6000000000000D-01  9.9208487772700D-01  9.0998826272543D-01
    58  5.7000000000000D-01  1.0072433563588D+00  8.7046730299007D-01
    59  5.8000000000000D-01  1.0219173119498D+00  8.2961115011466D-01
    60  5.9000000000000D-01  1.0360841021192D+00  7.8750677451849D-01
    61  6.0000000000000D-01  1.0497218117826D+00  7.4424337910956D-01
    62  6.1000000000000D-01  1.0628093231419D+00  6.9991219547109D-01
    63  6.2000000000000D-01  1.0753263827807D+00  6.5460627487622D-01
    64  6.3000000000000D-01  1.0872536656197D+00  6.0842027460966D-01
    65  6.4000000000000D-01  1.0985728355018D+00  5.6145024009416D-01
    66  6.5000000000000D-01  1.1092666021902D+00  5.1379338333688D-01
    67  6.6000000000000D-01  1.1193187745809D+00  4.6554785822758D-01
    68  6.7000000000000D-01  1.1287143099460D+00  4.1681253323566D-01
    69  6.8000000000000D-01  1.1374393590431D+00  3.6768676206718D-01
    70  6.9000000000000D-01  1.1454813069437D+00  3.1827015285587D-01
    71  7.0000000000000D-01  1.1528288094523D+00  2.6866233647302D-01
    72  7.1000000000000D-01  1.1594718250069D+00  2.1896273455126D-01
    73  7.2000000000000D-01  1.1654016419717D+00  1.6927032782511D-01
    74  7.3000000000000D-01  1.1706109012512D+00  1.1968342539758D-01
    75  7.4000000000000D-01  1.1750936141768D+00  7.0299435547071D-02
    76  7.5000000000000D-01  1.1788451756351D+00  2.1214638691246D-02
    77  7.6000000000000D-01  1.1818623724277D+00 -2.7476036874115D-02
    78  7.7000000000000D-01  1.1841433868738D+00 -7.5679235844397D-02
    79  7.8000000000000D-01  1.1856877956831D+00 -1.2330339276962D-01
    80  7.9000000000000D-01  1.1864965641493D+00 -1.7025894430309D-01
    81  8.0000000000000D-01  1.1865720357314D+00 -2.1645853623329D-01
    82  8.1000000000000D-01  1.1859179171105D+00 -2.6181722470616D-01
    83  8.2000000000000D-01  1.1845392588244D+00 -3.0625267105608D-01
    84  8.3000000000000D-01  1.1824424316038D+00 -3.4968532967733D-01
    85  8.4000000000000D-01  1.1796350985482D+00 -3.9203862838321D-01
    86  8.5000000000000D-01  1.1761261832949D+00 -4.3323914071729D-01
    87  8.6000000000000D-01  1.1719258343526D+00 -4.7321674970135D-01
    88  8.7000000000000D-01  1.1670453857807D+00 -5.1190480252586D-01
    89  8.8000000000000D-01  1.1614973144142D+00 -5.4924025571268D-01
    90  8.9000000000000D-01  1.1552951938408D+00 -5.8516381030525D-01
    91  9.0000000000000D-01  1.1484536453512D+00 -6.1962003666939D-01
    92  9.1000000000000D-01  1.1409882860940D+00 -6.5255748851673D-01
    93  9.2000000000000D-01  1.1329156746723D+00 -6.8392880579427D-01
    94  9.3000000000000D-01  1.1242532544298D+00 -7.1369080611651D-01
    95  9.4000000000000D-01  1.1150192946802D+00 -7.4180456445054D-01
    96  9.5000000000000D-01  1.1052328301371D+00 -7.6823548080075D-01
    97  9.6000000000000D-01  1.0949135988076D+00 -7.9295333567676D-01
    98  9.7000000000000D-01  1.0840819786156D+00 -8.1593233316662D-01
    99  9.8000000000000D-01  1.0727589230194D+00 -8.3715113147687D-01
   100  9.9000000000000D-01  1.0609658958939D+00 -8.5659286084114D-01
   101  1.0000000000000D+00  1.0487248059405D+00 -8.7424512874106D-01
   102  1.0100000000000D+00  1.0360579408909D+00 -8.9010001242345D-01
   103  1.0200000000000D+00  1.0229879017644D+00 -9.0415403874145D-01
   104  1.0300000000000D+00  1.0095375374361D+00 -9.1640815138934D-01
   105  1.0400000000000D+00  9.9572987976482D-01 -9.2686766564314D-01
   106  1.0500000000000D+00  9.8158807952738D-01 -9.3554221076186D-01
   107  1.0600000000000D+00  9.6713534339318D-01 -9.4244566024788D-01
   108  1.0700000000000D+00  9.5239487216867D-01 -9.4759605020294D-01
   109  1.0800000000000D+00  9.3738980052899D-01 -9.5101548606269D-01
   110  1.0900000000000D+00  9.2214313844489D-01 -9.5273003802941D-01
   111  1.1000000000000D+00  9.0667771450148D-01 -9.5276962556376D-01
   112  1.1100000000000D+00  8.9101612129298D-01 -9.5116789133517D-01
   113  1.1200000000000D+00  8.7518066306692D-01 -9.4796206506331D-01
   114  1.1300000000000D+00  8.5919330577535D-01 -9.4319281772524D-01
   115  1.1400000000000D+00  8.4307562967907D-01 -9.3690410663127D-01
   116  1.1500000000000D+00  8.2684878463491D-01 -9.2914301190832D-01
   117  1.1600000000000D+00  8.1053344818532D-01 -9.1995956495244D-01
   118  1.1700000000000D+00  7.9414978655004D-01 -9.0940656944966D-01
   119  1.1800000000000D+00  7.7771741860753D-01 -8.9753941558313D-01
   120  1.1900000000000D+00  7.6125538293845D-01 -8.8441588806825D-01
   121  1.2000000000000D+00  7.4478210798988D-01 -8.7009596867761D-01
   122  1.2100000000000D+00  7.2831538540077D-01 -8.5464163393841D-01
   123  1.2200000000000D+00  7.1187234651449D-01 -8.3811664869698D-01
   124  1.2300000000000D+00  6.9546944209677D-01 -8.2058635625454D-01
   125  1.2400000000000D+00  6.7912242525282D-01 -8.0211746579438D-01
   126  1.2500000000000D+00  6.6284633752767D-01 -7.8277783782009D-01
   127  1.2600000000000D+00  6.4665549816523D-01 -7.6263626832963D-01
   128  1.2700000000000D+00  6.3056349648107D-01 -7.4176227245272D-01
   129  1.2800000000000D+00  6.1458318729217D-01 -7.2022586826902D-01
   130  1.2900000000000D+00  5.9872668934214D-01 -6.9809736152554D-01
   131  1.3000000000000D+00  5.8300538664174D-01 -6.7544713196142D-01
   132  1.3100000000000D+00  5.6742993263304D-01 -6.5234542192374D-01
   133  1.3200000000000D+00  5.5201025708602D-01 -6.2886212796479D-01
   134  1.3300000000000D+00  5.3675557561566D-01 -6.0506659607764D-01
   135  1.3400000000000D+00  5.2167440170236D-01 -5.8102742119091D-01
   136  1.3500000000000D+00  5.0677456110063D-01 -5.5681225157152D-01
   137  1.3600000000000D+00  4.9206320849843D-01 -5.3248759869270D-01
   138  1.3700000000000D+00  4.7754684629650D-01 -5.0811865312960D-01
   139  1.3800000000000D+00  4.6323134536915D-01 -4.8376910704057D-01
   140  1.3900000000000D+00  4.4912196765892D-01 -4.5950098367461D-01
   141  1.4000000000000D+00  4.3522339046346D-01 -4.3537447441252D-01
   142  1.4100000000000D+00  4.2153973226244D-01 -4.1144778374347D-01
   143  1.4200000000000D+00  4.0807457993780D-01 -3.8777698252378D-01
   144  1.4300000000000D+00  3.9483101723491D-01 -3.6441586994169D-01
   145  1.4400000000000D+00  3.8181165431795D-01 -3.4141584437774D-01
   146  1.4500000000000D+00  3.6901865826957D-01 -3.1882578350941D-01
   147  1.4600000000000D+00  3.5645378438853D-01 -2.9669193382219D-01
   148  1.4700000000000D+00  3.4411840814761D-01 -2.7505780967270D-01
   149  1.4800000000000D+00  3.3201355766087D-01 -2.5396410211749D-01
   150  1.4900000000000D+00  3.2013994654337D-01 -2.3344859742567D-01
   151  1.5000000000000D+00  3.0849800701074D-01 -2.1354610549658D-01
   152  1.5100000000000D+00  2.9708792311587D-01 -1.9428839798291D-01
   153  1.5200000000000D+00  2.8590966398774D-01 -1.7570415619648D-01
   154  1.5300000000000D+00  2.7496301696714D-01 -1.5781892862357D-01
   155  1.5400000000000D+00  2.6424762053828D-01 -1.4065509789983D-01
   156  1.5500000000000D+00  2.5376299694084D-01 -1.2423185713224D-01
   157  1.5600000000000D+00  2.4350858440294D-01 -1.0856519519663D-01
   158  1.5700000000000D+00  2.3348376886706D-01 -9.3667890946832D-02
   159  1.5800000000000D+00  2.2368791519147D-01 -7.9549515783479D-02
   160  1.5900000000000D+00  2.1412039769420D-01 -6.6216444516466D-02
   161  1.6000000000000D+00  2.0478063004887D-01 -5.3671873882383D-02
   162  1.6100000000000D+00  1.9566809441731D-01 -4.1915848555548D-02
   163  1.6200000000000D+00  1.8678236983377D-01 -3.0945294021761D-02
   164  1.6300000000000D+00  1.7812315975604D-01 -2.0754056025822D-02
   165  1.6400000000000D+00  1.6969031963731D-01 -1.1332944412500D-02
   166  1.6500000000000D+00  1.6148387987120D-01 -2.6697895774486D-03
   167  1.6600000000000D+00  1.5350407845210D-01  5.2505166083471D-03
   168  1.6700000000000D+00  1.4575136836596D-01  1.2445926463475D-02
   169  1.6800000000000D+00  1.3822642638526D-01  1.8937147270894D-02
   170  1.6900000000000D+00  1.3093029344482D-01  2.4747796072462D-02
   171  1.7000000000000D+00  1.2386429521443D-01  2.9904134168713D-02
   172  1.7100000000000D+00  1.1702970408670D-01  3.4434334877382D-02
   173  1.7200000000000D+00  1.1042752132188D-01  3.8367926502685D-02
   174  1.7300000000000D+00  1.0405820661476D-01  4.1735073986511D-02
   175  1.7400000000000D+00  9.7921525014465D-02  4.4566091588916D-02
   176  1.7500000000000D+00  9.2016711272994D-02  4.6891536064447D-02
   177  1.7600000000000D+00  8.6342534761593D-02  4.8742115937926D-02
   178  1.7700000000000D+00  8.0897284011849D-02  5.0148480086156D-02
   179  1.7800000000000D+00  7.5678821839466D-02  5.1141133909061D-02
   180  1.7900000000000D+00  7.0684609134232D-02  5.1750309954819D-02
   181  1.8000000000000D+00  6.5911735978871D-02  5.2005860225391D-02
   182  1.8100000000000D+00  6.1356949405676D-02  5.1937151663361D-02
   183  1.8200000000000D+00  5.7016679567725D-02  5.1572967484088D-02
   184  1.8300000000000D+00  5.2887064511781D-02  5.0941415314198D-02
   185  1.8400000000000D+00  4.8963973578949D-02  5.0069841535848D-02
   186  1.8500000000000D+00  4.5243029640976D-02  4.8984752785497D-02
   187  1.8600000000000D+00  4.1719630181843D-02  4.7711744041834D-02
   188  1.8700000000000D+00  3.8388967412846D-02  4.6275433974878D-02
   189  1.8800000000000D+00  3.5246047454803D-02  4.4699407246031D-02
   190  1.8900000000000D+00  3.2285708709715D-02  4.3006163959782D-02
   191  1.9000000000000D+00  2.9502639524596D-02  4.1217076385350D-02
   192  1.9100000000000D+00  2.6891395156196D-02  3.9352352525164D-02
   193  1.9200000000000D+00  2.4446414247991D-02  3.7431007183617D-02
   194  1.9300000000000D+00  2.2162034691128D-02  3.5470839481988D-02
   195  1.9400000000000D+00  2.0032509169074D-02  3.3488417823865D-02
   196  1.9500000000000D+00  1.8052020209018D-02  3.1499071108492D-02
   197  1.9600000000000D+00  1.6214694972844D-02  2.9516886817971D-02
   198  1.9700000000000D+00  1.4514619730810D-02  2.7554715362350D-02
   199  1.9800000000000D+00  1.2945854055153D-02  2.5624180449732D-02
   200  1.9900000000000D+00  1.1502444873380D-02  2.3735695657857D-02
   201  2.0000000000000D+00  1.0178440190783D-02  2.1898486131853D-02
   202  2.0100000000000D+00  8.9679027841337D-03  2.0120616121002D-02
   203  2.0200000000000D+00  7.8649236000235D-03  1.8409021082668D-02
   204  2.0300000000000D+00  6.8636350615054D-03  1.6769544655299D-02
   205  2.0400000000000D+00  5.9582242095152D-03  1.5206979918581D-02
   206  2.0500000000000D+00  5.1429456208184D-03  1.3725114415078D-02
   207  2.0600000000000D+00  4.4121342510571D-03  1.2326778957777D-02
   208  2.0700000000000D+00  3.7602179789963D-03  1.1013899340634D-02
   209  2.0800000000000D+00  3.1817300299325D-03  9.7875509363162D-03
   210  2.0900000000000D+00  2.6713211317156D-03  8.6480155654644D-03
   211  2.1000000000000D+00  2.2237714005592D-03  7.5948402496919D-03
   212  2.1100000000000D+00  1.8340019964168D-03  6.6268974566543D-03
   213  2.1200000000000D+00  1.4970864001298D-03  5.7424464622468D-03
   214  2.1300000000000D+00  1.2082613912172D-03  4.9391952311485D-03
   215  2.1400000000000D+00  9.6293762183039D-04  4.2143626134698D-03
   216  2.1500000000000D+00  7.5670976579040D-04  3.5647403944962D-03
   217  2.1600000000000D+00  5.8536622049663D-04  2.9867545081225D-03
   218  2.1700000000000D+00  4.4489831387089D-04  2.4765256789453D-03
   219  2.1800000000000D+00  3.3150896426705D-04  2.0299282892829D-03
   220  2.1900000000000D+00  2.4162077496324D-04  1.6426476522803D-03
   221  2.2000000000000D+00  1.7188354385377D-04  1.3102355292173D-03
   222  2.2100000000000D+00  1.1918107099004D-04  1.0281625259006D-03
   223  2.2200000000000D+00  8.0637358050514D-05  7.9186851916672D-04
   224  2.2300000000000D+00  5.3622056618095D-05  5.9680966291682D-04
   225  2.2400000000000D+00  3.5755145581124D-05  4.3850183448704D-04
   226  2.2500000000000D+00  2.4910958355420D-05  3.1256153122733D-04
   227  2.2600000000000D+00  1.9233031116542D-05  2.1473907972613D-04
   228  2.2700000000000D+00  1.7123988828207D-05  1.4095416466245D-04
   229  2.2800000000000D+00  1.7161338511757D-05  8.7344358717458D-05
   230  2.2900000000000D+00  1.8105090906606D-05  5.0246679708054D-05
   231  2.3000000000000D+00  1.9369552190903D-05  2.6234824691916D-05
   232  2.3100000000000D+00  2.0827839957216D-05  1.2135928451900D-05
   233  2.3200000000000D+00  2.2776316429435D-05  5.1773445891381D-06
   234  2.3300000000000D+00  2.3399118644591D-05  2.5400140087195D-06
   235  2.3400000000000D+00  2.1075512155623D-05  1.8898492831911D-06
   236  2.3500000000000D+00  1.3891790929658D-05  1.2698678989954D-06
   237  2.3600000000000D+00  5.5714716993891D-06  5.6818151567771D-07
   238  2.3700000000000D+00 -7.1928910837281D-07 -5.3211035127312D-08
   239  2.3800000000000D+00 -2.2371480431531D-06 -1.6844915384513D-07
   240  2.3900000000000D+00 -1.2104915061701D-06 -9.3498762580321D-08
   241  2.4000000000000D+00  2.3281273554168D-07  1.0701167994021D-08
   242  2.4100000000000D+00  5.0456674680679D-07  2.2026258635325D-08
   243  2.4200000000000D+00  2.4459191029157D-07  1.0212480039464D-08
   244  2.4300000000000D+00 -3.3530784574940D-08 -3.0090963787678D-09
   245  2.4400000000000D+00 -5.9459837830701D-08 -5.3360034656690D-09
   246  2.4500000000000D+00 -2.5050861458682D-08 -2.2480970086417D-09
   247  2.4600000000000D+00  0.0000000000000D+00  0.0000000000000D+00
   248  2.4700000000000D+00  0.0000000000000D+00  0.0000000000000D+00
   249  2.4800000000000D+00  0.0000000000000D+00  0.0000000000000D+00
   250  2.4900000000000D+00  0.0000000000000D+00  0.0000000000000D+00
   251  2.5000000000000D+00  0.0000000000000D+00  0.0000000000000D+00
   252  2.5100000000000D+00  0.0000000000000D+00  0.0000000000000D+00
   253  2.5200000000000D+00  0.0000000000000D+00  0.0000000000000D+00
   254  2.5300000000000D+00  0.0000000000000D+00  0.0000000000000D+00
   255  2.5400000000000D+00  0.0000000000000D+00  0.0000000000000D+00
   256  2.5500000000000D+00  0.0000000000000D+00  0.0000000000000D+00
   257  2.5600000000000D+00  0.0000000000000D+00  0.0000000000000D+00
   258  2.5700000000000D+00  0.0000000000000D+00  0.0000000000000D+00
   259  2.5800000000000D+00  0.0000000000000D+00  0.0000000000000D+00
   260  2.5900000000000D+00  0.0000000000000D+00  0.0000000000000D+00
   261  2.6000000000000D+00  0.0000000000000D+00  0.0000000000000D+00
   262  2.6100000000000D+00  0.0000000000000D+00  0.0000000000000D+00
   263  2.6200000000000D+00  0.0000000000000D+00  0.0000000000000D+00
   264  2.6300000000000D+00  0.0000000000000D+00  0.0000000000000D+00
   265  2.6400000000000D+00  0.0000000000000D+00  0.0000000000000D+00
   266  2.6500000000000D+00  0.0000000000000D+00  0.0000000000000D+00
   267  2.6600000000000D+00  0.0000000000000D+00  0.0000000000000D+00
   268  2.6700000000000D+00  0.0000000000000D+00  0.0000000000000D+00
   269  2.6800000000000D+00  0.0000000000000D+00  0.0000000000000D+00
   270  2.6900000000000D+00  0.0000000000000D+00  0.0000000000000D+00
   271  2.7000000000000D+00  0.0000000000000D+00  0.0000000000000D+00
   272  2.7100000000000D+00  0.0000000000000D+00  0.0000000000000D+00
   273  2.7200000000000D+00  0.0000000000000D+00  0.0000000000000D+00
   274  2.7300000000000D+00  0.0000000000000D+00  0.0000000000000D+00
   275  2.7400000000000D+00  0.0000000000000D+00  0.0000000000000D+00
   276  2.7500000000000D+00  0.0000000000000D+00  0.0000000000000D+00
   277  2.7600000000000D+00  0.0000000000000D+00  0.0000000000000D+00
   278  2.7700000000000D+00  0.0000000000000D+00  0.0000000000000D+00
   279  2.7800000000000D+00  0.0000000000000D+00  0.0000000000000D+00
   280  2.7900000000000D+00  0.0000000000000D+00  0.0000000000000D+00
   281  2.8000000000000D+00  0.0000000000000D+00  0.0000000000000D+00
   282  2.8100000000000D+00  0.0000000000000D+00  0.0000000000000D+00
   283  2.8200000000000D+00  0.0000000000000D+00  0.0000000000000D+00
   284  2.8300000000000D+00  0.0000000000000D+00  0.0000000000000D+00
   285  2.8400000000000D+00  0.0000000000000D+00  0.0000000000000D+00
   286  2.8500000000000D+00  0.0000000000000D+00  0.0000000000000D+00
   287  2.8600000000000D+00  0.0000000000000D+00  0.0000000000000D+00
   288  2.8700000000000D+00  0.0000000000000D+00  0.0000000000000D+00
   289  2.8800000000000D+00  0.0000000000000D+00  0.0000000000000D+00
   290  2.8900000000000D+00  0.0000000000000D+00  0.0000000000000D+00
   291  2.9000000000000D+00  0.0000000000000D+00  0.0000000000000D+00
   292  2.9100000000000D+00  0.0000000000000D+00  0.0000000000000D+00
   293  2.9200000000000D+00  0.0000000000000D+00  0.0000000000000D+00
   294  2.9300000000000D+00  0.0000000000000D+00  0.0000000000000D+00
   295  2.9400000000000D+00  0.0000000000000D+00  0.0000000000000D+00
   296  2.9500000000000D+00  0.0000000000000D+00  0.0000000000000D+00
   297  2.9600000000000D+00  0.0000000000000D+00  0.0000000000000D+00
   298  2.9700000000000D+00  0.0000000000000D+00  0.0000000000000D+00
   299  2.9800000000000D+00  0.0000000000000D+00  0.0000000000000D+00
   300  2.9900000000000D+00  0.0000000000000D+00  0.0000000000000D+00
   301  3.0000000000000D+00  0.0000000000000D+00  0.0000000000000D+00
   302  3.0100000000000D+00  0.0000000000000D+00  0.0000000000000D+00
   303  3.0200000000000D+00  0.0000000000000D+00  0.0000000000000D+00
   304  3.0300000000000D+00  0.0000000000000D+00  0.0000000000000D+00
   305  3.0400000000000D+00  0.0000000000000D+00  0.0000000000000D+00
   306  3.0500000000000D+00  0.0000000000000D+00  0.0000000000000D+00
   307  3.0600000000000D+00  0.0000000000000D+00  0.0000000000000D+00
   308  3.0700000000000D+00  0.0000000000000D+00  0.0000000000000D+00
   309  3.0800000000000D+00  0.0000000000000D+00  0.0000000000000D+00
   310  3.0900000000000D+00  0.0000000000000D+00  0.0000000000000D+00
   311  3.1000000000000D+00  0.0000000000000D+00  0.0000000000000D+00
   312  3.1100000000000D+00  0.0000000000000D+00  0.0000000000000D+00
   313  3.1200000000000D+00  0.0000000000000D+00  0.0000000000000D+00
   314  3.1300000000000D+00  0.0000000000000D+00  0.0000000000000D+00
   315  3.1400000000000D+00  0.0000000000000D+00  0.0000000000000D+00
   316  3.1500000000000D+00  0.0000000000000D+00  0.0000000000000D+00
   317  3.1600000000000D+00  0.0000000000000D+00  0.0000000000000D+00
   318  3.1700000000000D+00  0.0000000000000D+00  0.0000000000000D+00
   319  3.1800000000000D+00  0.0000000000000D+00  0.0000000000000D+00
   320  3.1900000000000D+00  0.0000000000000D+00  0.0000000000000D+00
   321  3.2000000000000D+00  0.0000000000000D+00  0.0000000000000D+00
   322  3.2100000000000D+00  0.0000000000000D+00  0.0000000000000D+00
   323  3.2200000000000D+00  0.0000000000000D+00  0.0000000000000D+00
   324  3.2300000000000D+00  0.0000000000000D+00  0.0000000000000D+00
   325  3.2400000000000D+00  0.0000000000000D+00  0.0000000000000D+00
   326  3.2500000000000D+00  0.0000000000000D+00  0.0000000000000D+00
   327  3.2600000000000D+00  0.0000000000000D+00  0.0000000000000D+00
   328  3.2700000000000D+00  0.0000000000000D+00  0.0000000000000D+00
   329  3.2800000000000D+00  0.0000000000000D+00  0.0000000000000D+00
   330  3.2900000000000D+00  0.0000000000000D+00  0.0000000000000D+00
   331  3.3000000000000D+00  0.0000000000000D+00  0.0000000000000D+00
   332  3.3100000000000D+00  0.0000000000000D+00  0.0000000000000D+00
   333  3.3200000000000D+00  0.0000000000000D+00  0.0000000000000D+00
   334  3.3300000000000D+00  0.0000000000000D+00  0.0000000000000D+00
   335  3.3400000000000D+00  0.0000000000000D+00  0.0000000000000D+00
   336  3.3500000000000D+00  0.0000000000000D+00  0.0000000000000D+00
   337  3.3600000000000D+00  0.0000000000000D+00  0.0000000000000D+00
   338  3.3700000000000D+00  0.0000000000000D+00  0.0000000000000D+00
   339  3.3800000000000D+00  0.0000000000000D+00  0.0000000000000D+00
   340  3.3900000000000D+00  0.0000000000000D+00  0.0000000000000D+00
   341  3.4000000000000D+00  0.0000000000000D+00  0.0000000000000D+00
   342  3.4100000000000D+00  0.0000000000000D+00  0.0000000000000D+00
   343  3.4200000000000D+00  0.0000000000000D+00  0.0000000000000D+00
   344  3.4300000000000D+00  0.0000000000000D+00  0.0000000000000D+00
   345  3.4400000000000D+00  0.0000000000000D+00  0.0000000000000D+00
   346  3.4500000000000D+00  0.0000000000000D+00  0.0000000000000D+00
   347  3.4600000000000D+00  0.0000000000000D+00  0.0000000000000D+00
   348  3.4700000000000D+00  0.0000000000000D+00  0.0000000000000D+00
   349  3.4800000000000D+00  0.0000000000000D+00  0.0000000000000D+00
   350  3.4900000000000D+00  0.0000000000000D+00  0.0000000000000D+00
   351  3.5000000000000D+00  0.0000000000000D+00  0.0000000000000D+00
   352  3.5100000000000D+00  0.0000000000000D+00  0.0000000000000D+00
   353  3.5200000000000D+00  0.0000000000000D+00  0.0000000000000D+00
   354  3.5300000000000D+00  0.0000000000000D+00  0.0000000000000D+00
   355  3.5400000000000D+00  0.0000000000000D+00  0.0000000000000D+00
   356  3.5500000000000D+00  0.0000000000000D+00  0.0000000000000D+00
   357  3.5600000000000D+00  0.0000000000000D+00  0.0000000000000D+00
   358  3.5700000000000D+00  0.0000000000000D+00  0.0000000000000D+00
   359  3.5800000000000D+00  0.0000000000000D+00  0.0000000000000D+00
   360  3.5900000000000D+00  0.0000000000000D+00  0.0000000000000D+00
   361  3.6000000000000D+00  0.0000000000000D+00  0.0000000000000D+00
   362  3.6100000000000D+00  0.0000000000000D+00  0.0000000000000D+00
   363  3.6200000000000D+00  0.0000000000000D+00  0.0000000000000D+00
   364  3.6300000000000D+00  0.0000000000000D+00  0.0000000000000D+00
   365  3.6400000000000D+00  0.0000000000000D+00  0.0000000000000D+00
   366  3.6500000000000D+00  0.0000000000000D+00  0.0000000000000D+00
   367  3.6600000000000D+00  0.0000000000000D+00  0.0000000000000D+00
   368  3.6700000000000D+00  0.0000000000000D+00  0.0000000000000D+00
   369  3.6800000000000D+00  0.0000000000000D+00  0.0000000000000D+00
   370  3.6900000000000D+00  0.0000000000000D+00  0.0000000000000D+00
   371  3.7000000000000D+00  0.0000000000000D+00  0.0000000000000D+00
   372  3.7100000000000D+00  0.0000000000000D+00  0.0000000000000D+00
   373  3.7200000000000D+00  0.0000000000000D+00  0.0000000000000D+00
   374  3.7300000000000D+00  0.0000000000000D+00  0.0000000000000D+00
   375  3.7400000000000D+00  0.0000000000000D+00  0.0000000000000D+00
   376  3.7500000000000D+00  0.0000000000000D+00  0.0000000000000D+00
   377  3.7600000000000D+00  0.0000000000000D+00  0.0000000000000D+00
   378  3.7700000000000D+00  0.0000000000000D+00  0.0000000000000D+00
   379  3.7800000000000D+00  0.0000000000000D+00  0.0000000000000D+00
   380  3.7900000000000D+00  0.0000000000000D+00  0.0000000000000D+00
   381  3.8000000000000D+00  0.0000000000000D+00  0.0000000000000D+00
   382  3.8100000000000D+00  0.0000000000000D+00  0.0000000000000D+00
   383  3.8200000000000D+00  0.0000000000000D+00  0.0000000000000D+00
   384  3.8300000000000D+00  0.0000000000000D+00  0.0000000000000D+00
   385  3.8400000000000D+00  0.0000000000000D+00  0.0000000000000D+00
   386  3.8500000000000D+00  0.0000000000000D+00  0.0000000000000D+00
   387  3.8600000000000D+00  0.0000000000000D+00  0.0000000000000D+00
   388  3.8700000000000D+00  0.0000000000000D+00  0.0000000000000D+00
   389  3.8800000000000D+00  0.0000000000000D+00  0.0000000000000D+00
   390  3.8900000000000D+00  0.0000000000000D+00  0.0000000000000D+00
   391  3.9000000000000D+00  0.0000000000000D+00  0.0000000000000D+00
   392  3.9100000000000D+00  0.0000000000000D+00  0.0000000000000D+00
   393  3.9200000000000D+00  0.0000000000000D+00  0.0000000000000D+00
   394  3.9300000000000D+00  0.0000000000000D+00  0.0000000000000D+00
   395  3.9400000000000D+00  0.0000000000000D+00  0.0000000000000D+00
   396  3.9500000000000D+00  0.0000000000000D+00  0.0000000000000D+00
   397  3.9600000000000D+00  0.0000000000000D+00  0.0000000000000D+00
   398  3.9700000000000D+00  0.0000000000000D+00  0.0000000000000D+00
   399  3.9800000000000D+00  0.0000000000000D+00  0.0000000000000D+00
   400  3.9900000000000D+00  0.0000000000000D+00  0.0000000000000D+00
   401  4.0000000000000D+00  0.0000000000000D+00  0.0000000000000D+00
   402  4.0100000000000D+00  0.0000000000000D+00  0.0000000000000D+00
   403  4.0200000000000D+00  0.0000000000000D+00  0.0000000000000D+00
   404  4.0300000000000D+00  0.0000000000000D+00  0.0000000000000D+00
   405  4.0400000000000D+00  0.0000000000000D+00  0.0000000000000D+00
   406  4.0500000000000D+00  0.0000000000000D+00  0.0000000000000D+00
   407  4.0600000000000D+00  0.0000000000000D+00  0.0000000000000D+00
   408  4.0700000000000D+00  0.0000000000000D+00  0.0000000000000D+00
   409  4.0800000000000D+00  0.0000000000000D+00  0.0000000000000D+00
   410  4.0900000000000D+00  0.0000000000000D+00  0.0000000000000D+00
   411  4.1000000000000D+00  0.0000000000000D+00  0.0000000000000D+00
   412  4.1100000000000D+00  0.0000000000000D+00  0.0000000000000D+00
   413  4.1200000000000D+00  0.0000000000000D+00  0.0000000000000D+00
   414  4.1300000000000D+00  0.0000000000000D+00  0.0000000000000D+00
   415  4.1400000000000D+00  0.0000000000000D+00  0.0000000000000D+00
   416  4.1500000000000D+00  0.0000000000000D+00  0.0000000000000D+00
   417  4.1600000000000D+00  0.0000000000000D+00  0.0000000000000D+00
   418  4.1700000000000D+00  0.0000000000000D+00  0.0000000000000D+00
   419  4.1800000000000D+00  0.0000000000000D+00  0.0000000000000D+00
   420  4.1900000000000D+00  0.0000000000000D+00  0.0000000000000D+00
   421  4.2000000000000D+00  0.0000000000000D+00  0.0000000000000D+00
   422  4.2100000000000D+00  0.0000000000000D+00  0.0000000000000D+00