Cl    ONCVPSP-3.3.1  r_core=   3.22968   1.63633
     17.0000      7.0000      210905    zatom,zion,pspd
     8 -116133   1     4   600     0    pspcod,pspxc,lmax,lloc,mmax,r2well
  5.99000000  0.00000000  0.00000000    rchrg fchrg qchrg
     2     2     0     0     0    nproj
     1     1           extension_switch
   0                         6.7442031630551D+00 -4.6374258046226D+00
     1  0.0000000000000D+00 -1.5683176979309D-11  2.0946799850208D-10
     2  1.0000000000000D-02  5.8418336290333D-02 -7.5648872954512D-02
     3  2.0000000000000D-02  1.1672881116434D-01 -1.5091889462702D-01
     4  3.0000000000000D-02  1.7482386677051D-01 -2.2543314095154D-01
     5  4.0000000000000D-02  2.3259655136689D-01 -2.9881853213605D-01
     6  5.0000000000000D-02  2.8994081982952D-01 -3.7070772945753D-01
     7  6.0000000000000D-02  3.4675183111657D-01 -4.4074100179478D-01
     8  7.0000000000000D-02  4.0292624169147D-01 -5.0856805205795D-01
     9  8.0000000000000D-02  4.5836249392461D-01 -5.7384979388298D-01
    10  9.0000000000000D-02  5.1296109851228D-01 -6.3626006921934D-01
    11  1.0000000000000D-01  5.6662490997469D-01 -6.9548729774808D-01
    12  1.1000000000000D-01  6.1925939432198D-01 -7.5123604942382D-01
    13  1.2000000000000D-01  6.7077288800695D-01 -8.0322853183677D-01
    14  1.3000000000000D-01  7.2107684731717D-01 -8.5120598453653D-01
    15  1.4000000000000D-01  7.7008608739568D-01 -8.9492997294726D-01
    16  1.5000000000000D-01  8.1771901011930D-01 -9.3418357503011D-01
    17  1.6000000000000D-01  8.6389782010615D-01 -9.6877245441193D-01
    18  1.7000000000000D-01  9.0854872816939D-01 -9.9852581429570D-01
    19  1.8000000000000D-01  9.5160214158150D-01 -1.0232972270955D+00
    20  1.9000000000000D-01  9.9299284056378D-01 -1.0429653353929D+00
    21  2.0000000000000D-01  1.0326601404673D+00 -1.0574344204911D+00
    22  2.1000000000000D-01  1.0705480391655D+00 -1.0666348355411D+00
    23  2.2000000000000D-01  1.1066053492329D+00 -1.0705233009329D+00
    24  2.3000000000000D-01  1.1407858145433D+00 -1.0690830603723D+00
    25  2.4000000000000D-01  1.1730482109741D+00 -1.0623238968059D+00
    26  2.5000000000000D-01  1.2033564309668D+00 -1.0502820081004D+00
    27  2.6000000000000D-01  1.2316795517473D+00 -1.0330197431344D+00
    28  2.7000000000000D-01  1.2579918870735D+00 -1.0106251997033D+00
    29  2.8000000000000D-01  1.2822730224326D+00 -9.8321168638142D-01
    30  2.9000000000000D-01  1.3045078336712D+00 -9.5091705121913D-01
    31  3.0000000000000D-01  1.3246864891000D+00 -9.1390288086882D-01
    32  3.1000000000000D-01  1.3428044351711D+00 -8.7235357443905D-01
    33  3.2000000000000D-01  1.3588623658812D+00 -8.2647529705772D-01
    34  3.3000000000000D-01  1.3728661761137D+00 -7.7649481878387D-01
    35  3.4000000000000D-01  1.3848268991790D+00 -7.2265824513978D-01
    36  3.5000000000000D-01  1.3947606288711D+00 -6.6522964613572D-01
    37  3.6000000000000D-01  1.4026884264046D+00 -6.0448959122759D-01
    38  3.7000000000000D-01  1.4086362126434D+00 -5.4073359817824D-01
    39  3.8000000000000D-01  1.4126346460806D+00 -4.7427050428486D-01
    40  3.9000000000000D-01  1.4147189870692D+00 -4.0542076888378D-01
    41  4.0000000000000D-01  1.4149289488442D+00 -3.3451471644901D-01
    42  4.1000000000000D-01  1.4133085359133D+00 -2.6189072995825D-01
    43  4.2000000000000D-01  1.4099058704284D+00 -1.8789340450959D-01
    44  4.3000000000000D-01  1.4047730071796D+00 -1.1287167143006D-01
    45  4.4000000000000D-01  1.3979657378820D+00 -3.7176903323813D-02
    46  4.5000000000000D-01  1.3895433854493D+00  3.8838989339632D-02
    47  4.6000000000000D-01  1.3795685889693D+00  1.1482545939825D-01
    48  4.7000000000000D-01  1.3681070801128D+00  1.9043521118932D-01
    49  4.8000000000000D-01  1.3552274517219D+00  2.6532606503079D-01
    50  4.9000000000000D-01  1.3410009193335D+00  3.3916278733102D-01
    51  5.0000000000000D-01  1.3255010764003D+00  4.1161887579030D-01
    52  5.1000000000000D-01  1.3088036439728D+00  4.8237828933743D-01
    53  5.2000000000000D-01  1.2909862156086D+00  5.5113711267936D-01
    54  5.3000000000000D-01  1.2721279982670D+00  6.1760514563134D-01
    55  5.4000000000000D-01  1.2523095499415D+00  6.8150740773678D-01
    56  5.5000000000000D-01  1.2316125147720D+00  7.4258554907958D-01
    57  5.6000000000000D-01  1.2101193563604D+00  8.0059915863603D-01
    58  5.7000000000000D-01  1.1879130900019D+00  8.5532696200386D-01
    59  5.8000000000000D-01  1.1650770145155D+00  9.0656790088543D-01
    60  5.9000000000000D-01  1.1416944443419D+00  9.5414208728112D-01
    61  6.0000000000000D-01  1.1178484425431D+00  9.9789162597414D-01
    62  6.1000000000000D-01  1.0936215553132D+00  1.0376812995450D+00
    63  6.2000000000000D-01  1.0690955485782D+00  1.0733991108535D+00
    64  6.3000000000000D-01  1.0443511472253D+00  1.1049566786508D+00
    65  6.4000000000000D-01  1.0194677774705D+00  1.1322894827418D+00
    66  6.5000000000000D-01  9.9452331283323D-01  1.1553569559021D+00
    67  6.6000000000000D-01  9.6959382414676D-01  1.1741424205532D+00
    68  6.7000000000000D-01  9.4475333399462D-01  1.1886528690247D+00
    69  6.8000000000000D-01  9.2007357591873D-01  1.1989185870666D+00
    70  6.9000000000000D-01  8.9562375870379D-01  1.2049926211208D+00
    71  7.0000000000000D-01  8.7147033599793D-01  1.2069500907115D+00
    72  7.1000000000000D-01  8.4767678148564D-01  1.2048873481715D+00
    73  7.2000000000000D-01  8.2430336978472D-01  1.1989209887702D+00
    74  7.3000000000000D-01  8.0140696319466D-01  1.1891867151598D+00
    75  7.4000000000000D-01  7.7904080437973D-01  1.1758380608859D+00
    76  7.5000000000000D-01  7.5725431502638D-01  1.1590449785390D+00
    77  7.6000000000000D-01  7.3609290047193D-01  1.1389922989228D+00
    78  7.7000000000000D-01  7.1559776025932D-01  1.1158780683988D+00
    79  7.8000000000000D-01  6.9580570453237D-01  1.0899117723244D+00
    80  7.9000000000000D-01  6.7674897635074D-01  1.0613124534131D+00
    81  8.0000000000000D-01  6.5845507789328D-01  1.0303067326988D+00
    82  8.1000000000000D-01  6.4094660699772D-01  9.9712674831380D-01
    83  8.2000000000000D-01  6.2424036741857D-01  9.6200736263576D-01
    84  8.3000000000000D-01  6.0834175992601D-01  9.2517848674721D-01
    85  8.4000000000000D-01  5.9323692792395D-01  8.8685314833829D-01
    86  8.5000000000000D-01  5.7889108328529D-01  8.4721951577776D-01
    87  8.6000000000000D-01  5.6524940510396D-01  8.0643541516285D-01
    88  8.7000000000000D-01  5.5224048477515D-01  7.6462638209505D-01
    89  8.8000000000000D-01  5.3978185583520D-01  7.2188770953932D-01
    90  8.9000000000000D-01  5.2778674730572D-01  6.7829016927801D-01
    91  9.0000000000000D-01  5.1617095595550D-01  6.3388831912849D-01
    92  9.1000000000000D-01  5.0485875004019D-01  5.8872981209972D-01
    93  9.2000000000000D-01  4.9378700335069D-01  5.4286405132346D-01
    94  9.3000000000000D-01  4.8290720630972D-01  4.9634888699602D-01
    95  9.4000000000000D-01  4.7218546563335D-01  4.4925466565601D-01
    96  9.5000000000000D-01  4.6160094982348D-01  4.0166559686175D-01
    97  9.6000000000000D-01  4.5114339741391D-01  3.5367890466309D-01
    98  9.7000000000000D-01  4.4081028774021D-01  3.0540248921727D-01
    99  9.8000000000000D-01  4.3060413989636D-01  2.5695184864081D-01
   100  9.9000000000000D-01  4.2053022721896D-01  2.0844687814989D-01
   101  1.0000000000000D+00  4.1059482836359D-01  1.6000896021686D-01
   102  1.0100000000000D+00  4.0080401628311D-01  1.1175856803766D-01
   103  1.0200000000000D+00  3.9116290998864D-01  6.3813440627783D-02
   104  1.0300000000000D+00  3.8167528815156D-01  1.6287295825145D-02
   105  1.0400000000000D+00  3.7234346044078D-01 -3.0711005678348D-02
   106  1.0500000000000D+00  3.6316830655803D-01 -7.7077948014518D-02
   107  1.0600000000000D+00  3.5414941359778D-01 -1.2271559571254D-01
   108  1.0700000000000D+00  3.4528526045271D-01 -1.6753165981603D-01
   109  1.0800000000000D+00  3.3657341761891D-01 -2.1143945523309D-01
   110  1.0900000000000D+00  3.2801074149428D-01 -2.5435779486713D-01
   111  1.1000000000000D+00  3.1959355229006D-01 -2.9621085094633D-01
   112  1.1100000000000D+00  3.1131779054148D-01 -3.3692800326270D-01
   113  1.1200000000000D+00  3.0317915099064D-01 -3.7644368633241D-01
   114  1.1300000000000D+00  2.9517319485674D-01 -4.1469724169919D-01
   115  1.1400000000000D+00  2.8729544229519D-01 -4.5163277894953D-01
   116  1.1500000000000D+00  2.7954144741522D-01 -4.8719904654137D-01
   117  1.1600000000000D+00  2.7190685829709D-01 -5.2134931243905D-01
   118  1.1700000000000D+00  2.6438746420432D-01 -5.5404125376773D-01
   119  1.1800000000000D+00  2.5697923198878D-01 -5.8523685452698D-01
   120  1.1900000000000D+00  2.4967833346093D-01 -6.1490231015271D-01
   121  1.2000000000000D+00  2.4248116523291D-01 -6.4300793769076D-01
   122  1.2100000000000D+00  2.3538436229041D-01 -6.6952809039677D-01
   123  1.2200000000000D+00  2.2838480637672D-01 -6.9444107563017D-01
   124  1.2300000000000D+00  2.2147963017864D-01 -7.1772907489135D-01
   125  1.2400000000000D+00  2.1466621803016D-01 -7.3937806504730D-01
   126  1.2500000000000D+00  2.0794220381108D-01 -7.5937773983811D-01
   127  1.2600000000000D+00  2.0130546662671D-01 -7.7772143081023D-01
   128  1.2700000000000D+00  1.9475412471347D-01 -7.9440602696428D-01
   129  1.2800000000000D+00  1.8828652795935D-01 -8.0943189252073D-01
   130  1.2900000000000D+00  1.8190124939209D-01 -8.2280278223894D-01
   131  1.3000000000000D+00  1.7559707588494D-01 -8.3452575389283D-01
   132  1.3100000000000D+00  1.6937299829548D-01 -8.4461107760967D-01
   133  1.3200000000000D+00  1.6322820124444D-01 -8.5307214177326D-01
   134  1.3300000000000D+00  1.5716205265506D-01 -8.5992535539948D-01
   135  1.3400000000000D+00  1.5117409316906D-01 -8.6519004693134D-01
   136  1.3500000000000D+00  1.4526402555066D-01 -8.6888835938869D-01
   137  1.3600000000000D+00  1.3943170412178D-01 -8.7104514202776D-01
   138  1.3700000000000D+00  1.3367712429730D-01 -8.7168783859286D-01
   139  1.3800000000000D+00  1.2800041226017D-01 -8.7084637232784D-01
   140  1.3900000000000D+00  1.2240181479543D-01 -8.6855302800778D-01
   141  1.4000000000000D+00  1.1688168931658D-01 -8.6484233118978D-01
   142  1.4100000000000D+00  1.1144049408991D-01 -8.5975092499749D-01
   143  1.4200000000000D+00  1.0607877866986D-01 -8.5331744472685D-01
   144  1.4300000000000D+00  1.0079717455368D-01 -8.4558239057885D-01
   145  1.4400000000000D+00  9.5596386055540D-02 -8.3658799886579D-01
   146  1.4500000000000D+00  9.0477181406480D-02 -8.2637811200625D-01
   147  1.4600000000000D+00  8.5440384079151D-02 -8.1499804766206D-01
   148  1.4700000000000D+00  8.0486864340229D-02 -8.0249446734248D-01
   149  1.4800000000000D+00  7.5617531030401D-02 -7.8891524482936D-01
   150  1.4900000000000D+00  7.0833323574487D-02 -7.7430933473054D-01
   151  1.5000000000000D+00  6.6135204221683D-02 -7.5872664152069D-01
   152  1.5100000000000D+00  6.1524150519506D-02 -7.4221788935294D-01
   153  1.5200000000000D+00  5.7001148022406D-02 -7.2483449297889D-01
   154  1.5300000000000D+00  5.2567183238783D-02 -7.0662843006054D-01
   155  1.5400000000000D+00  4.8223236819157D-02 -6.8765211515899D-01
   156  1.5500000000000D+00  4.3970276989006D-02 -6.6795827569903D-01
   157  1.5600000000000D+00  3.9809253230317D-02 -6.4759983012574D-01
   158  1.5700000000000D+00  3.5741090215554D-02 -6.2662976857422D-01
   159  1.5800000000000D+00  3.1766681998215D-02 -6.0510103619326D-01
   160  1.5900000000000D+00  2.7886886464373D-02 -5.8306641946025D-01
   161  1.6000000000000D+00  2.4102520048554D-02 -5.6057843557291D-01
   162  1.6100000000000D+00  2.0414352719067D-02 -5.3768922523267D-01
   163  1.6200000000000D+00  1.6823103235036D-02 -5.1445044888917D-01
   164  1.6300000000000D+00  1.3329434680342D-02 -4.9091318671171D-01
   165  1.6400000000000D+00  9.9339502758048D-03 -4.6712784235185D-01
   166  1.6500000000000D+00  6.6371894741892D-03 -4.4314405071184D-01
   167  1.6600000000000D+00  3.4396243386229D-03 -4.1901058977643D-01
   168  1.6700000000000D+00  3.4165620796835D-04 -3.9477529667570D-01
   169  1.6800000000000D+00 -2.6563873510859D-03 -3.7048498802480D-01
   170  1.6900000000000D+00 -5.5542553028707D-03 -3.4618538466884D-01
   171  1.7000000000000D+00 -8.3517756138076D-03 -3.2192104085974D-01
   172  1.7100000000000D+00 -1.1048857434389D-02 -2.9773527796369D-01
   173  1.7200000000000D+00 -1.3645492994891D-02 -2.7367012269791D-01
   174  1.7300000000000D+00 -1.6141759214102D-02 -2.4976624997793D-01
   175  1.7400000000000D+00 -1.8537819026006D-02 -2.2606293033478D-01
   176  1.7500000000000D+00 -2.0833922423685D-02 -2.0259798197976D-01
   177  1.7600000000000D+00 -2.3030407228174D-02 -1.7940772742554D-01
   178  1.7700000000000D+00 -2.5127699580813D-02 -1.5652695475121D-01
   179  1.7800000000000D+00 -2.7126314170299D-02 -1.3398888335891D-01
   180  1.7900000000000D+00 -2.9026854191559D-02 -1.1182513433236D-01
   181  1.8000000000000D+00 -3.0830011051607D-02 -9.0065705175346D-02
   182  1.8100000000000D+00 -3.2536563817694D-02 -6.8738949071270D-02
   183  1.8200000000000D+00 -3.4147378426497D-02 -4.7871558374861D-02
   184  1.8300000000000D+00 -3.5663406649110D-02 -2.7488552491833D-02
   185  1.8400000000000D+00 -3.7085684832469D-02 -7.6132698380743D-03
   186  1.8500000000000D+00 -3.8415332412667D-02  1.1732636020707D-02
   187  1.8600000000000D+00 -3.9653550215910D-02  3.0529196302254D-02
   188  1.8700000000000D+00 -4.0801618557171D-02  4.8758123016584D-02
   189  1.8800000000000D+00 -4.1860895148357D-02  6.6402801222015D-02
   190  1.8900000000000D+00 -4.2832812816638D-02  8.3448277641673D-02
   191  1.9000000000000D+00 -4.3718877037978D-02  9.9881245727728D-02
   192  1.9100000000000D+00 -4.4520663310700D-02  1.1569002739023D-01
   193  1.9200000000000D+00 -4.5239814378589D-02  1.3086455140538D-01
   194  1.9300000000000D+00 -4.5878037302017D-02  1.4539632878143D-01
   195  1.9400000000000D+00 -4.6437100409021D-02  1.5927842510904D-01
   196  1.9500000000000D+00 -4.6918830129517D-02  1.7250543014126D-01
   197  1.9600000000000D+00 -4.7325107700313D-02  1.8507342468299D-01
   198  1.9700000000000D+00 -4.7657865762325D-02  1.9697994497241D-01
   199  1.9800000000000D+00 -4.7919084873455D-02  2.0822394472512D-01
   200  1.9900000000000D+00 -4.8110789955384D-02  2.1880575496838D-01
   201  2.0000000000000D+00 -4.8235046662545D-02  2.2872704185208D-01
   202  2.0100000000000D+00 -4.8293957704718D-02  2.3799076259061D-01
   203  2.0200000000000D+00 -4.8289659124169D-02  2.4660111968859D-01
   204  2.0300000000000D+00 -4.8224316533906D-02  2.5456351361759D-01
   205  2.0400000000000D+00 -4.8100121329249D-02  2.6188449409857D-01
   206  2.0500000000000D+00 -4.7919286884310D-02  2.6857171013457D-01
   207  2.0600000000000D+00 -4.7684044757463D-02  2.7463385901199D-01
   208  2.0700000000000D+00 -4.7396640895101D-02  2.8008063432715D-01
   209  2.0800000000000D+00 -4.7059331857684D-02  2.8492267329894D-01
   210  2.0900000000000D+00 -4.6674381070578D-02  2.8917150344452D-01
   211  2.1000000000000D+00 -4.6244055109130D-02  2.9283948876804D-01
   212  2.1100000000000D+00 -4.5770620036530D-02  2.9593977570539D-01
   213  2.1200000000000D+00 -4.5256337785429D-02  2.9848623878508D-01
   214  2.1300000000000D+00 -4.4703462611754D-02  3.0049342635696D-01
   215  2.1400000000000D+00 -4.4114237614664D-02  3.0197650637017D-01
   216  2.1500000000000D+00 -4.3490891331394D-02  3.0295121234206D-01
   217  2.1600000000000D+00 -4.2835634427612D-02  3.0343378980366D-01
   218  2.1700000000000D+00 -4.2150656464936D-02  3.0344094306110D-01
   219  2.1800000000000D+00 -4.1438122781040D-02  3.0298978268733D-01
   220  2.1900000000000D+00 -4.0700171472014D-02  3.0209777369762D-01
   221  2.2000000000000D+00 -3.9938910478252D-02  3.0078268442820D-01
   222  2.2100000000000D+00 -3.9156414794602D-02  2.9906253652513D-01
   223  2.2200000000000D+00 -3.8354723788247D-02  2.9695555575788D-01
   224  2.2300000000000D+00 -3.7535838648344D-02  2.9448012401964D-01
   225  2.2400000000000D+00 -3.6701719973228D-02  2.9165473260494D-01
   226  2.2500000000000D+00 -3.5854285465905D-02  2.8849793651671D-01
   227  2.2600000000000D+00 -3.4995407792475D-02  2.8502831039611D-01
   228  2.2700000000000D+00 -3.4126912565561D-02  2.8126440573303D-01
   229  2.2800000000000D+00 -3.3250576465476D-02  2.7722470946917D-01
   230  2.2900000000000D+00 -3.2368125504402D-02  2.7292760433985D-01
   231  2.3000000000000D+00 -3.1481233421560D-02  2.6839133057499D-01
   232  2.3100000000000D+00 -3.0591520228573D-02  2.6363394931470D-01
   233  2.3200000000000D+00 -2.9700550911284D-02  2.5867330781875D-01
   234  2.3300000000000D+00 -2.8809834252292D-02  2.5352700611110D-01
   235  2.3400000000000D+00 -2.7920821815550D-02  2.4821236559160D-01
   236  2.3500000000000D+00 -2.7034907070037D-02  2.4274639937325D-01
   237  2.3600000000000D+00 -2.6153424643586D-02  2.3714578416452D-01
   238  2.3700000000000D+00 -2.5277649729496D-02  2.3142683425021D-01
   239  2.3800000000000D+00 -2.4408797622972D-02  2.2560547708500D-01
   240  2.3900000000000D+00 -2.3548023383568D-02  2.1969723056818D-01
   241  2.4000000000000D+00 -2.2696421653763D-02  2.1371718240503D-01
   242  2.4100000000000D+00 -2.1855026590735D-02  2.0767997101824D-01
   243  2.4200000000000D+00 -2.1024811925910D-02  2.0159976822768D-01
   244  2.4300000000000D+00 -2.0206691158914D-02  1.9549026387582D-01
   245  2.4400000000000D+00 -1.9401517859861D-02  1.8936465197696D-01
   246  2.4500000000000D+00 -1.8610086091119D-02  1.8323561863284D-01
   247  2.4600000000000D+00 -1.7833130948065D-02  1.7711533175145D-01
   248  2.4700000000000D+00 -1.7071329197819D-02  1.7101543222752D-01
   249  2.4800000000000D+00 -1.6325300026179D-02  1.6494702682867D-01
   250  2.4900000000000D+00 -1.5595605886739D-02  1.5892068272620D-01
   251  2.5000000000000D+00 -1.4882753437265D-02  1.5294642340519D-01
   252  2.5100000000000D+00 -1.4187194569527D-02  1.4703372616373D-01
   253  2.5200000000000D+00 -1.3509327524750D-02  1.4119152109286D-01
   254  2.5300000000000D+00 -1.2849498084615D-02  1.3542819133285D-01
   255  2.5400000000000D+00 -1.2208000838745D-02  1.2975157475776D-01
   256  2.5500000000000D+00 -1.1585080521462D-02  1.2416896697366D-01
   257  2.5600000000000D+00 -1.0980933411749D-02  1.1868712547314D-01
   258  2.5700000000000D+00 -1.0395708791799D-02  1.1331227502714D-01
   259  2.5800000000000D+00 -9.8295104584557D-03  1.0805011421895D-01
   260  2.5900000000000D+00 -9.2823982851716D-03  1.0290582300126D-01
   261  2.6000000000000D+00 -8.7543898252266D-03  9.7884071286404D-02
   262  2.6100000000000D+00 -8.2454619509425D-03  9.2989028498388D-02
   263  2.6200000000000D+00 -7.7555525306312D-03  8.8224374005096D-02
   264  2.6300000000000D+00 -7.2845621316968D-03  8.3593308385945D-02
   265  2.6400000000000D+00 -6.8323557416668D-03  7.9098565464930D-02
   266  2.6500000000000D+00 -6.3987645143074D-03  7.4742425074378D-02
   267  2.6600000000000D+00 -5.9835875305737D-03  7.0526726483433D-02
   268  2.6700000000000D+00 -5.5865935576473D-03  6.6452882371354D-02
   269  2.6800000000000D+00 -5.2075228206642D-03  6.2521893377620D-02
   270  2.6900000000000D+00 -4.8460887830902D-03  5.8734363192597D-02
   271  2.7000000000000D+00 -4.5019799029348D-03  5.5090513939305D-02
   272  2.7100000000000D+00 -4.1748613911545D-03  5.1590201987570D-02
   273  2.7200000000000D+00 -3.8643769745298D-03  4.8232934215129D-02
   274  2.7300000000000D+00 -3.5701506142029D-03  4.5017884303535D-02
   275  2.7400000000000D+00 -3.2917882189463D-03  4.1943909349878D-02
   276  2.7500000000000D+00 -3.0288793498785D-03  3.9009566761930D-02
   277  2.7600000000000D+00 -2.7809988802780D-03  3.6213131093852D-02
   278  2.7700000000000D+00 -2.5477086299970D-03  3.3552610971189D-02
   279  2.7800000000000D+00 -2.3285589823649D-03  3.1025766161881D-02
   280  2.7900000000000D+00 -2.1230904637387D-03  2.8630124588970D-02
   281  2.8000000000000D+00 -1.9308352735900D-03  2.6362999148893D-02
   282  2.8100000000000D+00 -1.7513187889762D-03  2.4221504543277D-02
   283  2.8200000000000D+00 -1.5840610462882D-03  2.2202574147137D-02
   284  2.8300000000000D+00 -1.4285781460951D-03  2.0302976339808D-02
   285  2.8400000000000D+00 -1.2843836349485D-03  1.8519330828650D-02
   286  2.8500000000000D+00 -1.1509898585086D-03  1.6848124906385D-02
   287  2.8600000000000D+00 -1.0279092436979D-03  1.5285729160955D-02
   288  2.8700000000000D+00 -9.1465554185486D-04  1.3828412968075D-02
   289  2.8800000000000D+00 -8.1074503513406D-04  1.2472359780436D-02
   290  2.8900000000000D+00 -7.1569769669348D-04  1.1213682090627D-02
   291  2.9000000000000D+00 -6.2903828414951D-04  1.0048435811055D-02
   292  2.9100000000000D+00 -5.5029739679904D-04  8.9726344058202D-03
   293  2.9200000000000D+00 -4.7901250288000D-04  7.9822628569264D-03
   294  2.9300000000000D+00 -4.1472888620621D-04  7.0732908044389D-03
   295  2.9400000000000D+00 -3.5700056097847D-04  6.2416854587399D-03
   296  2.9500000000000D+00 -3.0539114395701D-04  5.4834241446458D-03
   297  2.9600000000000D+00 -2.5947467668413D-04  4.7945063553341D-03
   298  2.9700000000000D+00 -2.1883639053504D-04  4.1709651969770D-03
   299  2.9800000000000D+00 -1.8307343333282D-04  3.6088784640379D-03
   300  2.9900000000000D+00 -1.5179556176385D-04  3.1043794320854D-03
   301  3.0000000000000D+00 -1.2462576873330D-04  2.6536668254875D-03
   302  3.0100000000000D+00 -1.0120087752630D-04  2.2530144712608D-03
   303  3.0200000000000D+00 -8.1172093993932D-05  1.8987804915403D-03
   304  3.0300000000000D+00 -6.4205517685145D-05  1.5874160251754D-03
   305  3.0400000000000D+00 -4.9982605475695D-05  1.3154732994390D-03
   306  3.0500000000000D+00 -3.8200600669596D-05  1.0796133148578D-03
   307  3.0600000000000D+00 -2.8572923489940D-05  8.7661312028622D-04
   308  3.0700000000000D+00 -2.0829522272671D-05  7.0337245241312D-04
   309  3.0800000000000D+00 -1.4717188804994D-05  5.5691993043437D-04
   310  3.0900000000000D+00 -9.9998391485463D-06  4.3441877573389D-04
   311  3.1000000000000D+00 -6.4587556450480D-06  3.3317212048920D-04
   312  3.1100000000000D+00 -3.8928035055113D-06  2.5062769471689D-04
   313  3.1200000000000D+00 -2.1192676701288D-06  1.8438213012875D-04
   314  3.1300000000000D+00 -9.7269938129333D-07  1.3218477323655D-04
   315  3.1400000000000D+00 -3.0382112059981D-07  9.1941032069132D-05
   316  3.1500000000000D+00  1.7003044323228D-08  6.1715260920571D-05
   317  3.1600000000000D+00  1.0287192644291D-07  3.9730303023143D-05
   318  3.1700000000000D+00  4.3106083268787D-08  2.4378048459897D-05
   319  3.1800000000000D+00 -9.2350071855846D-08  1.4215976718138D-05
   320  3.1900000000000D+00 -2.4905839953376D-07  7.9643930310648D-06
   321  3.2000000000000D+00 -3.9291622013032D-07  4.5727678800741D-06
   322  3.2100000000000D+00 -4.9118424920115D-07  3.0024161540309D-06
   323  3.2200000000000D+00 -5.2667874001190D-07  2.4285824154069D-06
   324  3.2300000000000D+00 -4.9469699684771D-07  2.2240672059287D-06
   325  3.2400000000000D+00 -3.8643042176963D-07  1.7730048794958D-06
   326  3.2500000000000D+00 -2.4511140664966D-07  1.1888968246500D-06
   327  3.2600000000000D+00 -1.0149686396973D-07  5.2471009254949D-07
   328  3.2700000000000D+00  1.0683504238656D-08 -4.4703896250464D-08
   329  3.2800000000000D+00  5.2426347531323D-08 -2.2210494840567D-07
   330  3.2900000000000D+00  5.3469115741073D-08 -2.2976001002313D-07
   331  3.3000000000000D+00  2.7364243385975D-08 -1.1932163514707D-07
   332  3.3100000000000D+00 -2.8927787756588D-09  9.2335399544289D-09
   333  3.3200000000000D+00 -1.1202310505644D-08  3.5182092644777D-08
   334  3.3300000000000D+00 -1.1919980169721D-08  3.6910492593797D-08
   335  3.3400000000000D+00 -6.2652623508000D-09  1.9160663410211D-08
   336  3.3500000000000D+00  3.4116121112450D-10 -1.5345457209255D-09
   337  3.3600000000000D+00  1.2426072470289D-09 -5.5892568426346D-09
   338  3.3700000000000D+00  1.3546495287659D-09 -6.0932238775607D-09
   339  3.3800000000000D+00  7.3914984581604D-10 -3.3247016250209D-09
   340  3.3900000000000D+00  0.0000000000000D+00  0.0000000000000D+00
   341  3.4000000000000D+00  0.0000000000000D+00  0.0000000000000D+00
   342  3.4100000000000D+00  0.0000000000000D+00  0.0000000000000D+00
   343  3.4200000000000D+00  0.0000000000000D+00  0.0000000000000D+00
   344  3.4300000000000D+00  0.0000000000000D+00  0.0000000000000D+00
   345  3.4400000000000D+00  0.0000000000000D+00  0.0000000000000D+00
   346  3.4500000000000D+00  0.0000000000000D+00  0.0000000000000D+00
   347  3.4600000000000D+00  0.0000000000000D+00  0.0000000000000D+00
   348  3.4700000000000D+00  0.0000000000000D+00  0.0000000000000D+00
   349  3.4800000000000D+00  0.0000000000000D+00  0.0000000000000D+00
   350  3.4900000000000D+00  0.0000000000000D+00  0.0000000000000D+00
   351  3.5000000000000D+00  0.0000000000000D+00  0.0000000000000D+00
   352  3.5100000000000D+00  0.0000000000000D+00  0.0000000000000D+00
   353  3.5200000000000D+00  0.0000000000000D+00  0.0000000000000D+00
   354  3.5300000000000D+00  0.0000000000000D+00  0.0000000000000D+00
   355  3.5400000000000D+00  0.0000000000000D+00  0.0000000000000D+00
   356  3.5500000000000D+00  0.0000000000000D+00  0.0000000000000D+00
   357  3.5600000000000D+00  0.0000000000000D+00  0.0000000000000D+00
   358  3.5700000000000D+00  0.0000000000000D+00  0.0000000000000D+00
   359  3.5800000000000D+00  0.0000000000000D+00  0.0000000000000D+00
   360  3.5900000000000D+00  0.0000000000000D+00  0.0000000000000D+00
   361  3.6000000000000D+00  0.0000000000000D+00  0.0000000000000D+00
   362  3.6100000000000D+00  0.0000000000000D+00  0.0000000000000D+00
   363  3.6200000000000D+00  0.0000000000000D+00  0.0000000000000D+00
   364  3.6300000000000D+00  0.0000000000000D+00  0.0000000000000D+00
   365  3.6400000000000D+00  0.0000000000000D+00  0.0000000000000D+00
   366  3.6500000000000D+00  0.0000000000000D+00  0.0000000000000D+00
   367  3.6600000000000D+00  0.0000000000000D+00  0.0000000000000D+00
   368  3.6700000000000D+00  0.0000000000000D+00  0.0000000000000D+00
   369  3.6800000000000D+00  0.0000000000000D+00  0.0000000000000D+00
   370  3.6900000000000D+00  0.0000000000000D+00  0.0000000000000D+00
   371  3.7000000000000D+00  0.0000000000000D+00  0.0000000000000D+00
   372  3.7100000000000D+00  0.0000000000000D+00  0.0000000000000D+00
   373  3.7200000000000D+00  0.0000000000000D+00  0.0000000000000D+00
   374  3.7300000000000D+00  0.0000000000000D+00  0.0000000000000D+00
   375  3.7400000000000D+00  0.0000000000000D+00  0.0000000000000D+00
   376  3.7500000000000D+00  0.0000000000000D+00  0.0000000000000D+00
   377  3.7600000000000D+00  0.0000000000000D+00  0.0000000000000D+00
   378  3.7700000000000D+00  0.0000000000000D+00  0.0000000000000D+00
   379  3.7800000000000D+00  0.0000000000000D+00  0.0000000000000D+00
   380  3.7900000000000D+00  0.0000000000000D+00  0.0000000000000D+00
   381  3.8000000000000D+00  0.0000000000000D+00  0.0000000000000D+00
   382  3.8100000000000D+00  0.0000000000000D+00  0.0000000000000D+00
   383  3.8200000000000D+00  0.0000000000000D+00  0.0000000000000D+00
   384  3.8300000000000D+00  0.0000000000000D+00  0.0000000000000D+00
   385  3.8400000000000D+00  0.0000000000000D+00  0.0000000000000D+00
   386  3.8500000000000D+00  0.0000000000000D+00  0.0000000000000D+00
   387  3.8600000000000D+00  0.0000000000000D+00  0.0000000000000D+00
   388  3.8700000000000D+00  0.0000000000000D+00  0.0000000000000D+00
   389  3.8800000000000D+00  0.0000000000000D+00  0.0000000000000D+00
   390  3.8900000000000D+00  0.0000000000000D+00  0.0000000000000D+00
   391  3.9000000000000D+00  0.0000000000000D+00  0.0000000000000D+00
   392  3.9100000000000D+00  0.0000000000000D+00  0.0000000000000D+00
   393  3.9200000000000D+00  0.0000000000000D+00  0.0000000000000D+00
   394  3.9300000000000D+00  0.0000000000000D+00  0.0000000000000D+00
   395  3.9400000000000D+00  0.0000000000000D+00  0.0000000000000D+00
   396  3.9500000000000D+00  0.0000000000000D+00  0.0000000000000D+00
   397  3.9600000000000D+00  0.0000000000000D+00  0.0000000000000D+00
   398  3.9700000000000D+00  0.0000000000000D+00  0.0000000000000D+00
   399  3.9800000000000D+00  0.0000000000000D+00  0.0000000000000D+00
   400  3.9900000000000D+00  0.0000000000000D+00  0.0000000000000D+00
   401  4.0000000000000D+00  0.0000000000000D+00  0.0000000000000D+00
   402  4.0100000000000D+00  0.0000000000000D+00  0.0000000000000D+00
   403  4.0200000000000D+00  0.0000000000000D+00  0.0000000000000D+00
   404  4.0300000000000D+00  0.0000000000000D+00  0.0000000000000D+00
   405  4.0400000000000D+00  0.0000000000000D+00  0.0000000000000D+00
   406  4.0500000000000D+00  0.0000000000000D+00  0.0000000000000D+00
   407  4.0600000000000D+00  0.0000000000000D+00  0.0000000000000D+00
   408  4.0700000000000D+00  0.0000000000000D+00  0.0000000000000D+00
   409  4.0800000000000D+00  0.0000000000000D+00  0.0000000000000D+00
   410  4.0900000000000D+00  0.0000000000000D+00  0.0000000000000D+00
   411  4.1000000000000D+00  0.0000000000000D+00  0.0000000000000D+00
   412  4.1100000000000D+00  0.0000000000000D+00  0.0000000000000D+00
   413  4.1200000000000D+00  0.0000000000000D+00  0.0000000000000D+00
   414  4.1300000000000D+00  0.0000000000000D+00  0.0000000000000D+00
   415  4.1400000000000D+00  0.0000000000000D+00  0.0000000000000D+00
   416  4.1500000000000D+00  0.0000000000000D+00  0.0000000000000D+00
   417  4.1600000000000D+00  0.0000000000000D+00  0.0000000000000D+00
   418  4.1700000000000D+00  0.0000000000000D+00  0.0000000000000D+00
   419  4.1800000000000D+00  0.0000000000000D+00  0.0000000000000D+00
   420  4.1900000000000D+00  0.0000000000000D+00  0.0000000000000D+00
   421  4.2000000000000D+00  0.0000000000000D+00  0.0000000000000D+00
   422  4.2100000000000D+00  0.0000000000000D+00  0.0000000000000D+00
   423  4.2200000000000D+00  0.0000000000000D+00  0.0000000000000D+00