Co    ONCVPSP-3.3.1  r_core=   2.18438   2.08260   2.21059
     27.0000     17.0000      210905    zatom,zion,pspd
     8 -116133   2     4   600     0    pspcod,pspxc,lmax,lloc,mmax,r2well
  5.99000000  0.00000000  0.00000000    rchrg fchrg qchrg
     2     2     2     0     0    nproj
     1     1           extension_switch
   0                        -3.0834116014506D+00 -1.4335879887977D-01
     1  0.0000000000000D+00 -1.2717604747081D-12  3.3978098112897D-12
     2  1.0000000000000D-02  3.8978243760202D-02 -2.3323736884990D-02
     3  2.0000000000000D-02  7.7918490410496D-02 -4.6607816258151D-02
     4  3.0000000000000D-02  1.1678279700511D-01 -6.9812633267216D-02
     5  4.0000000000000D-02  1.5553332882074D-01 -9.2898688263566D-02
     6  5.0000000000000D-02  1.9413241320348D-01 -1.1582663911622D-01
     7  6.0000000000000D-02  2.3254259309967D-01 -1.3855735318285D-01
     8  7.0000000000000D-02  2.7072668016653D-01 -1.6105195882753D-01
     9  8.0000000000000D-02  3.0864780736017D-01 -1.8327189637827D-01
    10  9.0000000000000D-02  3.4626948089970D-01 -2.0517896842176D-01
    11  1.0000000000000D-01  3.8355563150851D-01 -2.2673538933731D-01
    12  1.1000000000000D-01  4.2047066483550D-01 -2.4790383397818D-01
    13  1.2000000000000D-01  4.5697951096182D-01 -2.6864748541429D-01
    14  1.3000000000000D-01  4.9304767290123D-01 -2.8893008165743D-01
    15  1.4000000000000D-01  5.2864127400530D-01 -3.0871596129770D-01
    16  1.5000000000000D-01  5.6372710418760D-01 -3.2797010798740D-01
    17  1.6000000000000D-01  5.9827266488487D-01 -3.4665819371735D-01
    18  1.7000000000000D-01  6.3224621267653D-01 -3.6474662083890D-01
    19  1.8000000000000D-01  6.6561680148772D-01 -3.8220256279388D-01
    20  1.9000000000000D-01  6.9835432330535D-01 -3.9899400352376D-01
    21  2.0000000000000D-01  7.3042954734042D-01 -4.1508977553829D-01
    22  2.1000000000000D-01  7.6181415757462D-01 -4.3045959663291D-01
    23  2.2000000000000D-01  7.9248078863333D-01 -4.4507410525315D-01
    24  2.3000000000000D-01  8.2240305993170D-01 -4.5890489451311D-01
    25  2.4000000000000D-01  8.5155560804546D-01 -4.7192454488316D-01
    26  2.5000000000000D-01  8.7991411726222D-01 -4.8410665557052D-01
    27  2.6000000000000D-01  9.0745534827425D-01 -4.9542587462348D-01
    28  2.7000000000000D-01  9.3415716497819D-01 -5.0585792779753D-01
    29  2.8000000000000D-01  9.5999855935190D-01 -5.1537964622765D-01
    30  2.9000000000000D-01  9.8495967438352D-01 -5.2396899295699D-01
    31  3.0000000000000D-01  1.0090218250323D+00 -5.3160508837718D-01
    32  3.1000000000000D-01  1.0321675172053D+00 -5.3826823463924D-01
    33  3.2000000000000D-01  1.0543804647397D+00 -5.4393993909797D-01
    34  3.3000000000000D-01  1.0756456043824D+00 -5.4860293685425D-01
    35  3.4000000000000D-01  1.0959491087659D+00 -5.5224121246164D-01
    36  3.5000000000000D-01  1.1152783973820D+00 -5.5484002086368D-01
    37  3.6000000000000D-01  1.1336221455592D+00 -5.5638590762746D-01
    38  3.7000000000000D-01  1.1509702914533D+00 -5.5686672853795D-01
    39  3.8000000000000D-01  1.1673140410656D+00 -5.5627166861355D-01
    40  3.9000000000000D-01  1.1826458713058D+00 -5.5459126060079D-01
    41  4.0000000000000D-01  1.1969595311204D+00 -5.5181740300006D-01
    42  4.1000000000000D-01  1.2102500407100D+00 -5.4794337766888D-01
    43  4.2000000000000D-01  1.2225136888637D+00 -5.4296386704207D-01
    44  4.3000000000000D-01  1.2337480284394D+00 -5.3687497100023D-01
    45  4.4000000000000D-01  1.2439518700237D+00 -5.2967422340896D-01
    46  4.5000000000000D-01  1.2531252738051D+00 -5.2136060834178D-01
    47  4.6000000000000D-01  1.2612695396993D+00 -5.1193457598875D-01
    48  4.7000000000000D-01  1.2683871957645D+00 -5.0139805824221D-01
    49  4.8000000000000D-01  1.2744819849487D+00 -4.8975448393823D-01
    50  4.9000000000000D-01  1.2795588502118D+00 -4.7700879372086D-01
    51  5.0000000000000D-01  1.2836239180659D+00 -4.6316745448264D-01
    52  5.1000000000000D-01  1.2866844805806D+00 -4.4823847332213D-01
    53  5.2000000000000D-01  1.2887489758982D+00 -4.3223141094523D-01
    54  5.3000000000000D-01  1.2898269673079D+00 -4.1515739442393D-01
    55  5.4000000000000D-01  1.2899291209259D+00 -3.9702912921214D-01
    56  5.5000000000000D-01  1.2890671820302D+00 -3.7786091030500D-01
    57  5.6000000000000D-01  1.2872539501004D+00 -3.5766863241479D-01
    58  5.7000000000000D-01  1.2845032526102D+00 -3.3646979902369D-01
    59  5.8000000000000D-01  1.2808299176237D+00 -3.1428353016111D-01
    60  5.9000000000000D-01  1.2762497452433D+00 -2.9113056874222D-01
    61  6.0000000000000D-01  1.2707794779617D+00 -2.6703328529249D-01
    62  6.1000000000000D-01  1.2644367699636D+00 -2.4201568087388D-01
    63  6.2000000000000D-01  1.2572401554300D+00 -2.1610338801875D-01
    64  6.3000000000000D-01  1.2492090158917D+00 -1.8932366946998D-01
    65  6.4000000000000D-01  1.2403635466816D+00 -1.6170541451919D-01
    66  6.5000000000000D-01  1.2307247225343D+00 -1.3327913272962D-01
    67  6.6000000000000D-01  1.2203142623808D+00 -1.0407694482659D-01
    68  6.7000000000000D-01  1.2091545933861D+00 -7.4132570536368D-02
    69  6.8000000000000D-01  1.1972688142776D+00 -4.3481313153718D-02
    70  6.9000000000000D-01  1.1846806580099D+00 -1.2160040619536D-02
    71  7.0000000000000D-01  1.1714144538154D+00  1.9792837106605D-02
    72  7.1000000000000D-01  1.1574950886850D+00  5.2337394589557D-02
    73  7.2000000000000D-01  1.1429479683269D+00  8.5432221580926D-02
    74  7.3000000000000D-01  1.1277989776488D+00  1.1903445799541D-01
    75  7.4000000000000D-01  1.1120744408111D+00  1.5309983338508D-01
    76  7.5000000000000D-01  1.0958010808971D+00  1.8758271108284D-01
    77  7.6000000000000D-01  1.0790059792461D+00  2.2243613717172D-01
    78  7.7000000000000D-01  1.0617165344976D+00  2.5761189441989D-01
    79  7.8000000000000D-01  1.0439604213922D+00  2.9306056130237D-01
    80  7.9000000000000D-01  1.0257655493790D+00  3.2873157621078D-01
    81  8.0000000000000D-01  1.0071600210750D+00  3.6457330692945D-01
    82  8.1000000000000D-01  9.8817209062738D-01  4.0053312543275D-01
    83  8.2000000000000D-01  9.6883012202656D-01  4.3655748803281D-01
    84  8.3000000000000D-01  9.4916254742157D-01  4.7259202087974D-01
    85  8.4000000000000D-01  9.2919782548741D-01  5.0858161078796D-01
    86  8.5000000000000D-01  9.0896439989723D-01  5.4447050133287D-01
    87  8.6000000000000D-01  8.8849065795184D-01  5.8020239413080D-01
    88  8.7000000000000D-01  8.6780488942068D-01  6.1572055518392D-01
    89  8.8000000000000D-01  8.4693524564903D-01  6.5096792613905D-01
    90  8.9000000000000D-01  8.2590969898778D-01  6.8588724027628D-01
    91  9.0000000000000D-01  8.0475600260276D-01  7.2042114301011D-01
    92  9.1000000000000D-01  7.8350165072209D-01  7.5451231665155D-01
    93  9.2000000000000D-01  7.6217383938085D-01  7.8810360914687D-01
    94  9.3000000000000D-01  7.4079942772355D-01  8.2113816647461D-01
    95  9.4000000000000D-01  7.1940489992593D-01  8.5355956834979D-01
    96  9.5000000000000D-01  6.9801632779841D-01  8.8531196685224D-01
    97  9.6000000000000D-01  6.7665933413458D-01  9.1634022756418D-01
    98  9.7000000000000D-01  6.5535905686871D-01  9.4659007277257D-01
    99  9.8000000000000D-01  6.3414011410699D-01  9.7600822626221D-01
   100  9.9000000000000D-01  6.1302657009770D-01  1.0045425591992D+00
   101  1.0000000000000D+00  5.9204190220589D-01  1.0321422365781D+00
   102  1.0100000000000D+00  5.7120896895827D-01  1.0587578636837D+00
   103  1.0200000000000D+00  5.5054997922403D-01  1.0843416319958D+00
   104  1.0300000000000D+00  5.3008646259713D-01  1.1088474639476D+00
   105  1.0400000000000D+00  5.0983924104511D-01  1.1322311559329D+00
   106  1.0500000000000D+00  4.8982840188882D-01  1.1544505189421D+00
   107  1.0600000000000D+00  4.7007327217645D-01  1.1754655161977D+00
   108  1.0700000000000D+00  4.5059239451438D-01  1.1952383971538D+00
   109  1.0800000000000D+00  4.3140350441532D-01  1.2137338272176D+00
   110  1.0900000000000D+00  4.1252350922310D-01  1.2309190125536D+00
   111  1.1000000000000D+00  3.9396846867091D-01  1.2467638193309D+00
   112  1.1100000000000D+00  3.7575357712784D-01  1.2612408867824D+00
   113  1.1200000000000D+00  3.5789314758568D-01  1.2743257334547D+00
   114  1.1300000000000D+00  3.4040059743508D-01  1.2859968560405D+00
   115  1.1400000000000D+00  3.2328843607655D-01  1.2962358202051D+00
   116  1.1500000000000D+00  3.0656825440933D-01  1.3050273428341D+00
   117  1.1600000000000D+00  2.9025071623575D-01  1.3123593651619D+00
   118  1.1700000000000D+00  2.7434555161560D-01  1.3182231162637D+00
   119  1.1800000000000D+00  2.5886155219989D-01  1.3226131664304D+00
   120  1.1900000000000D+00  2.4380656856984D-01  1.3255274699721D+00
   121  1.2000000000000D+00  2.2918750960034D-01  1.3269673970454D+00
   122  1.2100000000000D+00  2.1501034386212D-01  1.3269377541439D+00
   123  1.2200000000000D+00  2.0128010307317D-01  1.3254467929169D+00
   124  1.2300000000000D+00  1.8800088760210D-01  1.3225062070501D+00
   125  1.2400000000000D+00  1.7517587402034D-01  1.3181311169911D+00
   126  1.2500000000000D+00  1.6280732469528D-01  1.3123400423436D+00
   127  1.2600000000000D+00  1.5089659941021D-01  1.3051548618093D+00
   128  1.2700000000000D+00  1.3944416898780D-01  1.2966007606400D+00
   129  1.2800000000000D+00  1.2844963089026D-01  1.2867061655926D+00
   130  1.2900000000000D+00  1.1791172676344D-01  1.2755026674348D+00
   131  1.3000000000000D+00  1.0782836188044D-01  1.2630249311591D+00
   132  1.3100000000000D+00  9.8196626439266D-02  1.2493105940705D+00
   133  1.3200000000000D+00  8.9012818661405D-02  1.2344001519858D+00
   134  1.3300000000000D+00  8.0272469626132D-02  1.2183368338994D+00
   135  1.3400000000000D+00  7.1970369777673D-02  1.2011664654480D+00
   136  1.3500000000000D+00  6.4100597030381D-02  1.1829373216197D+00
   137  1.3600000000000D+00  5.6656546387548D-02  1.1636999692506D+00
   138  1.3700000000000D+00  4.9630960996107D-02  1.1435070997858D+00
   139  1.3800000000000D+00  4.3015964537910D-02  1.1224133529926D+00
   140  1.3900000000000D+00  3.6803094862481D-02  1.1004751322777D+00
   141  1.4000000000000D+00  3.0983338762588D-02  1.0777504122916D+00
   142  1.4100000000000D+00  2.5547167777009D-02  1.0542985396790D+00
   143  1.4200000000000D+00  2.0484574916833D-02  1.0301800277119D+00
   144  1.4300000000000D+00  1.5785112193197D-02  1.0054563457308D+00
   145  1.4400000000000D+00  1.1437928827323D-02  9.8018970429644D-01
   146  1.4500000000000D+00  7.4318100228490D-03  9.5444283695417D-01
   147  1.4600000000000D+00  3.7552161677351D-03  9.2827877966398D-01
   148  1.4700000000000D+00  3.9632234389193D-04  9.0176064881937D-01
   149  1.4800000000000D+00 -2.6569419920363D-03  8.7495141895381D-01
   150  1.4900000000000D+00 -5.4168532845762D-03  8.4791370113564D-01
   151  1.5000000000000D+00 -7.8958542479861D-03  8.2070952313886D-01
   152  1.5100000000000D+00 -1.0106514457151D-02  7.9340011243824D-01
   153  1.5200000000000D+00 -1.2061491298681D-02  7.6604568312646D-01
   154  1.5300000000000D+00 -1.3773491406611D-02  7.3870522777788D-01
   155  1.5400000000000D+00 -1.5255232722708D-02  7.1143631537938D-01
   156  1.5500000000000D+00 -1.6519407299515D-02  6.8429489630430D-01
   157  1.5600000000000D+00 -1.7578644980644D-02  6.5733511541653D-01
   158  1.5700000000000D+00 -1.8445478075465D-02  6.3060913426894D-01
   159  1.5800000000000D+00 -1.9132307146944D-02  6.0416696335976D-01
   160  1.5900000000000D+00 -1.9651368033983D-02  5.7805630544490D-01
   161  1.6000000000000D+00 -2.0014700202085D-02  5.5232241065954D-01
   162  1.6100000000000D+00 -2.0234116552133D-02  5.2700794452148D-01
   163  1.6200000000000D+00 -2.0321174748329D-02  5.0215286928237D-01
   164  1.6300000000000D+00 -2.0287150206461D-02  4.7779433980338D-01
   165  1.6400000000000D+00 -2.0143010764766D-02  4.5396661407451D-01
   166  1.6500000000000D+00 -1.9899393191207D-02  4.3070097967217D-01
   167  1.6600000000000D+00 -1.9566581506887D-02  4.0802569588807D-01
   168  1.6700000000000D+00 -1.9154487291484D-02  3.8596595293898D-01
   169  1.6800000000000D+00 -1.8672631906593D-02  3.6454384758847D-01
   170  1.6900000000000D+00 -1.8130130812288D-02  3.4377837668243D-01
   171  1.7000000000000D+00 -1.7535679870421D-02  3.2368544753817D-01
   172  1.7100000000000D+00 -1.6897543814499D-02  3.0427790673635D-01
   173  1.7200000000000D+00 -1.6223546741850D-02  2.8556558590505D-01
   174  1.7300000000000D+00 -1.5521064804917D-02  2.6755536602276D-01
   175  1.7400000000000D+00 -1.4797020927724D-02  2.5025125855352D-01
   176  1.7500000000000D+00 -1.4057881710734D-02  2.3365450481994D-01
   177  1.7600000000000D+00 -1.3309656332625D-02  2.1776369176353D-01
   178  1.7700000000000D+00 -1.2557897584703D-02  2.0257488524734D-01
   179  1.7800000000000D+00 -1.1807704844921D-02  1.8808177903516D-01
   180  1.7900000000000D+00 -1.1063729083230D-02  1.7427586019780D-01
   181  1.8000000000000D+00 -1.0330179722359D-02  1.6114658923919D-01
   182  1.8100000000000D+00 -9.6108333842995D-03  1.4868159512615D-01
   183  1.8200000000000D+00 -8.9090443826686D-03  1.3686688384835D-01
   184  1.8300000000000D+00 -8.2277569147161D-03  1.2568705998838D-01
   185  1.8400000000000D+00 -7.5695188641526D-03  1.1512556039670D-01
   186  1.8500000000000D+00 -6.9364970844582D-03  1.0516489868360D-01
   187  1.8600000000000D+00 -6.3304941299435D-03  9.5786920130577D-02
   188  1.8700000000000D+00 -5.7529662265563D-03  8.6973065035914D-02
   189  1.8800000000000D+00 -5.2050426388312D-03  7.8704651103249D-02
   190  1.8900000000000D+00 -4.6875452286500D-03  7.0963103485989D-02
   191  1.9000000000000D+00 -4.2010115622598D-03  6.3730373615191D-02
   192  1.9100000000000D+00 -3.7457129494378D-03  5.6988947045933D-02
   193  1.9200000000000D+00 -3.3216791267217D-03  5.0722269044488D-02
   194  1.9300000000000D+00 -2.9287281815258D-03  4.4915521850015D-02
   195  1.9400000000000D+00 -2.5664864400190D-03  3.9555648333768D-02
   196  1.9500000000000D+00 -2.2343912910555D-03  3.4630110225368D-02
   197  1.9600000000000D+00 -1.9317020024933D-03  3.0126197464484D-02
   198  1.9700000000000D+00 -1.6575106856510D-03  2.6030475900881D-02
   199  1.9800000000000D+00 -1.4107402214162D-03  2.2327252949803D-02
   200  1.9900000000000D+00 -1.1901705493157D-03  1.8999121862781D-02
   201  2.0000000000000D+00 -9.9446424261423D-04  1.6027490092236D-02
   202  2.0100000000000D+00 -8.2218874668140D-04  1.3392881737166D-02
   203  2.0200000000000D+00 -6.7183370262905D-04  1.1074892990798D-02
   204  2.0300000000000D+00 -5.4183304497442D-04  9.0525423251330D-03
   205  2.0400000000000D+00 -4.3058359795827D-04  7.3044132617442D-03
   206  2.0500000000000D+00 -3.3646393184683D-04  5.8088587166547D-03
   207  2.0600000000000D+00 -2.5785202285715D-04  4.5441824313978D-03
   208  2.0700000000000D+00 -1.9314191320153D-04  3.4888103529896D-03
   209  2.0800000000000D+00 -1.4075935631616D-04  2.6214516836499D-03
   210  2.0900000000000D+00 -9.9176073550964D-05  1.9212460787825D-03
   211  2.1000000000000D+00 -6.6922977160134D-05  1.3679001870544D-03
   212  2.1100000000000D+00 -4.2598956000819D-05  9.4182347917825D-04
   213  2.1200000000000D+00 -2.4885102725125D-05  6.2421587291047D-04
   214  2.1300000000000D+00 -1.2573461015293D-05  3.9706022884382D-04
   215  2.1400000000000D+00 -4.5778189725402D-06  2.4281982860610D-04
   216  2.1500000000000D+00  2.2762883098725D-07  1.4670401823470D-04
   217  2.1600000000000D+00  2.8672840374275D-06  9.5220788147299D-05
   218  2.1700000000000D+00  4.1622438123581D-06  7.5317887102197D-05
   219  2.1800000000000D+00  4.2645379571863D-06  6.6007162525014D-05
   220  2.1900000000000D+00  3.2204420392631D-06  4.9534139580998D-05
   221  2.2000000000000D+00  1.5466313589275D-06  2.4363063084932D-05
   222  2.2100000000000D+00  6.8247027935588D-08  1.1124788885122D-06
   223  2.2200000000000D+00 -4.1383535434325D-07 -6.1471475531957D-06
   224  2.2300000000000D+00 -2.6755439833572D-07 -3.9963672096798D-06
   225  2.2400000000000D+00  3.9898563455260D-08  5.4862027127181D-07
   226  2.2500000000000D+00  9.9121527163982D-08  1.3540109616230D-06
   227  2.2600000000000D+00  4.0171183808568D-08  5.4581244627335D-07
   228  2.2700000000000D+00 -7.9430152304412D-09 -1.2235385439776D-07
   229  2.2800000000000D+00 -1.0576158018674D-08 -1.6291466914796D-07
   230  2.2900000000000D+00 -1.3865973285092D-09 -2.1359083763372D-08
   231  2.3000000000000D+00  0.0000000000000D+00  0.0000000000000D+00
   232  2.3100000000000D+00  0.0000000000000D+00  0.0000000000000D+00
   233  2.3200000000000D+00  0.0000000000000D+00  0.0000000000000D+00
   234  2.3300000000000D+00  0.0000000000000D+00  0.0000000000000D+00
   235  2.3400000000000D+00  0.0000000000000D+00  0.0000000000000D+00
   236  2.3500000000000D+00  0.0000000000000D+00  0.0000000000000D+00
   237  2.3600000000000D+00  0.0000000000000D+00  0.0000000000000D+00
   238  2.3700000000000D+00  0.0000000000000D+00  0.0000000000000D+00
   239  2.3800000000000D+00  0.0000000000000D+00  0.0000000000000D+00
   240  2.3900000000000D+00  0.0000000000000D+00  0.0000000000000D+00
   241  2.4000000000000D+00  0.0000000000000D+00  0.0000000000000D+00
   242  2.4100000000000D+00  0.0000000000000D+00  0.0000000000000D+00
   243  2.4200000000000D+00  0.0000000000000D+00  0.0000000000000D+00
   244  2.4300000000000D+00  0.0000000000000D+00  0.0000000000000D+00
   245  2.4400000000000D+00  0.0000000000000D+00  0.0000000000000D+00
   246  2.4500000000000D+00  0.0000000000000D+00  0.0000000000000D+00
   247  2.4600000000000D+00  0.0000000000000D+00  0.0000000000000D+00
   248  2.4700000000000D+00  0.0000000000000D+00  0.0000000000000D+00
   249  2.4800000000000D+00  0.0000000000000D+00  0.0000000000000D+00
   250  2.4900000000000D+00  0.0000000000000D+00  0.0000000000000D+00
   251  2.5000000000000D+00  0.0000000000000D+00  0.0000000000000D+00
   252  2.5100000000000D+00  0.0000000000000D+00  0.0000000000000D+00
   253  2.5200000000000D+00  0.0000000000000D+00  0.0000000000000D+00
   254  2.5300000000000D+00  0.0000000000000D+00  0.0000000000000D+00
   255  2.5400000000000D+00  0.0000000000000D+00  0.0000000000000D+00
   256  2.5500000000000D+00  0.0000000000000D+00  0.0000000000000D+00
   257  2.5600000000000D+00  0.0000000000000D+00  0.0000000000000D+00
   258  2.5700000000000D+00  0.0000000000000D+00  0.0000000000000D+00
   259  2.5800000000000D+00  0.0000000000000D+00  0.0000000000000D+00
   260  2.5900000000000D+00  0.0000000000000D+00  0.0000000000000D+00
   261  2.6000000000000D+00  0.0000000000000D+00  0.0000000000000D+00
   262  2.6100000000000D+00  0.0000000000000D+00  0.0000000000000D+00
   263  2.6200000000000D+00  0.0000000000000D+00  0.0000000000000D+00
   264  2.6300000000000D+00  0.0000000000000D+00  0.0000000000000D+00
   265  2.6400000000000D+00  0.0000000000000D+00  0.0000000000000D+00
   266  2.6500000000000D+00  0.0000000000000D+00  0.0000000000000D+00
   267  2.6600000000000D+00  0.0000000000000D+00  0.0000000000000D+00
   268  2.6700000000000D+00  0.0000000000000D+00  0.0000000000000D+00
   269  2.6800000000000D+00  0.0000000000000D+00  0.0000000000000D+00
   270  2.6900000000000D+00  0.0000000000000D+00  0.0000000000000D+00
   271  2.7000000000000D+00  0.0000000000000D+00  0.0000000000000D+00
   272  2.7100000000000D+00  0.0000000000000D+00  0.0000000000000D+00
   273  2.7200000000000D+00  0.0000000000000D+00  0.0000000000000D+00
   274  2.7300000000000D+00  0.0000000000000D+00  0.0000000000000D+00
   275  2.7400000000000D+00  0.0000000000000D+00  0.0000000000000D+00
   276  2.7500000000000D+00  0.0000000000000D+00  0.0000000000000D+00
   277  2.7600000000000D+00  0.0000000000000D+00  0.0000000000000D+00
   278  2.7700000000000D+00  0.0000000000000D+00  0.0000000000000D+00
   279  2.7800000000000D+00  0.0000000000000D+00  0.0000000000000D+00
   280  2.7900000000000D+00  0.0000000000000D+00  0.0000000000000D+00
   281  2.8000000000000D+00  0.0000000000000D+00  0.0000000000000D+00
   282  2.8100000000000D+00  0.0000000000000D+00  0.0000000000000D+00
   283  2.8200000000000D+00  0.0000000000000D+00  0.0000000000000D+00
   284  2.8300000000000D+00  0.0000000000000D+00  0.0000000000000D+00
   285  2.8400000000000D+00  0.0000000000000D+00  0.0000000000000D+00
   286  2.8500000000000D+00  0.0000000000000D+00  0.0000000000000D+00
   287  2.8600000000000D+00  0.0000000000000D+00  0.0000000000000D+00
   288  2.8700000000000D+00  0.0000000000000D+00  0.0000000000000D+00
   289  2.8800000000000D+00  0.0000000000000D+00  0.0000000000000D+00
   290  2.8900000000000D+00  0.0000000000000D+00  0.0000000000000D+00
   291  2.9000000000000D+00  0.0000000000000D+00  0.0000000000000D+00
   292  2.9100000000000D+00  0.0000000000000D+00  0.0000000000000D+00
   293  2.9200000000000D+00  0.0000000000000D+00  0.0000000000000D+00
   294  2.9300000000000D+00  0.0000000000000D+00  0.0000000000000D+00
   295  2.9400000000000D+00  0.0000000000000D+00  0.0000000000000D+00
   296  2.9500000000000D+00  0.0000000000000D+00  0.0000000000000D+00
   297  2.9600000000000D+00  0.0000000000000D+00  0.0000000000000D+00
   298  2.9700000000000D+00  0.0000000000000D+00  0.0000000000000D+00
   299  2.9800000000000D+00  0.0000000000000D+00  0.0000000000000D+00
   300  2.9900000000000D+00  0.0000000000000D+00  0.0000000000000D+00
   301  3.0000000000000D+00  0.0000000000000D+00  0.0000000000000D+00
   302  3.0100000000000D+00  0.0000000000000D+00  0.0000000000000D+00
   303  3.0200000000000D+00  0.0000000000000D+00  0.0000000000000D+00
   304  3.0300000000000D+00  0.0000000000000D+00  0.0000000000000D+00
   305  3.0400000000000D+00  0.0000000000000D+00  0.0000000000000D+00
   306  3.0500000000000D+00  0.0000000000000D+00  0.0000000000000D+00
   307  3.0600000000000D+00  0.0000000000000D+00  0.0000000000000D+00
   308  3.0700000000000D+00  0.0000000000000D+00  0.0000000000000D+00
   309  3.0800000000000D+00  0.0000000000000D+00  0.0000000000000D+00
   310  3.0900000000000D+00  0.0000000000000D+00  0.0000000000000D+00
   311  3.1000000000000D+00  0.0000000000000D+00  0.0000000000000D+00
   312  3.1100000000000D+00  0.0000000000000D+00  0.0000000000000D+00
   313  3.1200000000000D+00  0.0000000000000D+00  0.0000000000000D+00
   314  3.1300000000000D+00  0.0000000000000D+00  0.0000000000000D+00
   315  3.1400000000000D+00  0.0000000000000D+00  0.0000000000000D+00
   316  3.1500000000000D+00  0.0000000000000D+00  0.0000000000000D+00
   317  3.1600000000000D+00  0.0000000000000D+00  0.0000000000000D+00
   318  3.1700000000000D+00  0.0000000000000D+00  0.0000000000000D+00
   319  3.1800000000000D+00  0.0000000000000D+00  0.0000000000000D+00
   320  3.1900000000000D+00  0.0000000000000D+00  0.0000000000000D+00
   321  3.2000000000000D+00  0.0000000000000D+00  0.0000000000000D+00
   322  3.2100000000000D+00  0.0000000000000D+00  0.0000000000000D+00
   323  3.2200000000000D+00  0.0000000000000D+00  0.0000000000000D+00
   324  3.2300000000000D+00  0.0000000000000D+00  0.0000000000000D+00
   325  3.2400000000000D+00  0.0000000000000D+00  0.0000000000000D+00
   326  3.2500000000000D+00  0.0000000000000D+00  0.0000000000000D+00
   327  3.2600000000000D+00  0.0000000000000D+00  0.0000000000000D+00
   328  3.2700000000000D+00  0.0000000000000D+00  0.0000000000000D+00
   329  3.2800000000000D+00  0.0000000000000D+00  0.0000000000000D+00
   330  3.2900000000000D+00  0.0000000000000D+00  0.0000000000000D+00
   331  3.3000000000000D+00  0.0000000000000D+00  0.0000000000000D+00
   332  3.3100000000000D+00  0.0000000000000D+00  0.0000000000000D+00
   333  3.3200000000000D+00  0.0000000000000D+00  0.0000000000000D+00
   334  3.3300000000000D+00  0.0000000000000D+00  0.0000000000000D+00
   335  3.3400000000000D+00  0.0000000000000D+00  0.0000000000000D+00
   336  3.3500000000000D+00  0.0000000000000D+00  0.0000000000000D+00
   337  3.3600000000000D+00  0.0000000000000D+00  0.0000000000000D+00
   338  3.3700000000000D+00  0.0000000000000D+00  0.0000000000000D+00
   339  3.3800000000000D+00  0.0000000000000D+00  0.0000000000000D+00
   340  3.3900000000000D+00  0.0000000000000D+00  0.0000000000000D+00
   341  3.4000000000000D+00  0.0000000000000D+00  0.0000000000000D+00
   342  3.4100000000000D+00  0.0000000000000D+00  0.0000000000000D+00
   343  3.4200000000000D+00  0.0000000000000D+00  0.0000000000000D+00
   344  3.4300000000000D+00  0.0000000000000D+00  0.0000000000000D+00
   345  3.4400000000000D+00  0.0000000000000D+00  0.0000000000000D+00
   346  3.4500000000000D+00  0.0000000000000D+00  0.0000000000000D+00
   347  3.4600000000000D+00  0.0000000000000D+00  0.0000000000000D+00
   348  3.4700000000000D+00  0.0000000000000D+00  0.0000000000000D+00
   349  3.4800000000000D+00  0.0000000000000D+00  0.0000000000000D+00
   350  3.4900000000000D+00  0.0000000000000D+00  0.0000000000000D+00
   351  3.5000000000000D+00  0.0000000000000D+00  0.0000000000000D+00
   352  3.5100000000000D+00  0.0000000000000D+00  0.0000000000000D+00
   353  3.5200000000000D+00  0.0000000000000D+00  0.0000000000000D+00
   354  3.5300000000000D+00  0.0000000000000D+00  0.0000000000000D+00
   355  3.5400000000000D+00  0.0000000000000D+00  0.0000000000000D+00
   356  3.5500000000000D+00  0.0000000000000D+00  0.0000000000000D+00
   357  3.5600000000000D+00  0.0000000000000D+00  0.0000000000000D+00
   358  3.5700000000000D+00  0.0000000000000D+00  0.0000000000000D+00
   359  3.5800000000000D+00  0.0000000000000D+00  0.0000000000000D+00
   360  3.5900000000000D+00  0.0000000000000D+00  0.0000000000000D+00
   361  3.6000000000000D+00  0.0000000000000D+00  0.0000000000000D+00
   362  3.6100000000000D+00  0.0000000000000D+00  0.0000000000000D+00
   363  3.6200000000000D+00  0.0000000000000D+00  0.0000000000000D+00
   364  3.6300000000000D+00  0.0000000000000D+00  0.0000000000000D+00
   365  3.6400000000000D+00  0.0000000000000D+00  0.0000000000000D+00
   366  3.6500000000000D+00  0.0000000000000D+00  0.0000000000000D+00
   367  3.6600000000000D+00  0.0000000000000D+00  0.0000000000000D+00
   368  3.6700000000000D+00  0.0000000000000D+00  0.0000000000000D+00
   369  3.6800000000000D+00  0.0000000000000D+00  0.0000000000000D+00
   370  3.6900000000000D+00  0.0000000000000D+00  0.0000000000000D+00
   371  3.7000000000000D+00  0.0000000000000D+00  0.0000000000000D+00
   372  3.7100000000000D+00  0.0000000000000D+00  0.0000000000000D+00
   373  3.7200000000000D+00  0.0000000000000D+00  0.0000000000000D+00
   374  3.7300000000000D+00  0.0000000000000D+00  0.0000000000000D+00
   375  3.7400000000000D+00  0.0000000000000D+00  0.0000000000000D+00
   376  3.7500000000000D+00  0.0000000000000D+00  0.0000000000000D+00
   377  3.7600000000000D+00  0.0000000000000D+00  0.0000000000000D+00
   378  3.7700000000000D+00  0.0000000000000D+00  0.0000000000000D+00
   379  3.7800000000000D+00  0.0000000000000D+00  0.0000000000000D+00
   380  3.7900000000000D+00  0.0000000000000D+00  0.0000000000000D+00
   381  3.8000000000000D+00  0.0000000000000D+00  0.0000000000000D+00
   382  3.8100000000000D+00  0.0000000000000D+00  0.0000000000000D+00
   383  3.8200000000000D+00  0.0000000000000D+00  0.0000000000000D+00
   384  3.8300000000000D+00  0.0000000000000D+00  0.0000000000000D+00
   385  3.8400000000000D+00  0.0000000000000D+00  0.0000000000000D+00
   386  3.8500000000000D+00  0.0000000000000D+00  0.0000000000000D+00
   387  3.8600000000000D+00  0.0000000000000D+00  0.0000000000000D+00
   388  3.8700000000000D+00  0.0000000000000D+00  0.0000000000000D+00
   389  3.8800000000000D+00  0.0000000000000D+00  0.0000000000000D+00
   390  3.8900000000000D+00  0.0000000000000D+00  0.0000000000000D+00
   391  3.9000000000000D+00  0.0000000000000D+00  0.0000000000000D+00
   392  3.9100000000000D+00  0.0000000000000D+00  0.0000000000000D+00
   393  3.9200000000000D+00  0.0000000000000D+00  0.0000000000000D+00
   394  3.9300000000000D+00  0.0000000000000D+00  0.0000000000000D+00
   395  3.9400000000000D+00  0.0000000000000D+00  0.0000000000000D+00
   396  3.9500000000000D+00  0.0000000000000D+00  0.0000000000000D+00
   397  3.9600000000000D+00  0.0000000000000D+00  0.0000000000000D+00
   398  3.9700000000000D+00  0.0000000000000D+00  0.0000000000000D+00
   399  3.9800000000000D+00  0.0000000000000D+00  0.0000000000000D+00
   400  3.9900000000000D+00  0.0000000000000D+00  0.0000000000000D+00
   401  4.0000000000000D+00  0.0000000000000D+00  0.0000000000000D+00
   402  4.0100000000000D+00  0.0000000000000D+00  0.0000000000000D+00
   403  4.0200000000000D+00  0.0000000000000D+00  0.0000000000000D+00
   404  4.0300000000000D+00  0.0000000000000D+00  0.0000000000000D+00
   405  4.0400000000000D+00  0.0000000000000D+00  0.0000000000000D+00
   406  4.0500000000000D+00  0.0000000000000D+00  0.0000000000000D+00
   407  4.0600000000000D+00  0.0000000000000D+00  0.0000000000000D+00
   408  4.0700000000000D+00  0.0000000000000D+00  0.0000000000000D+00
   409  4.0800000000000D+00  0.0000000000000D+00  0.0000000000000D+00
   410  4.0900000000000D+00  0.0000000000000D+00  0.0000000000000D+00
   411  4.1000000000000D+00  0.0000000000000D+00  0.0000000000000D+00
   412  4.1100000000000D+00  0.0000000000000D+00  0.0000000000000D+00
   413  4.1200000000000D+00  0.0000000000000D+00  0.0000000000000D+00
   414  4.1300000000000D+00  0.0000000000000D+00  0.0000000000000D+00
   415  4.1400000000000D+00  0.0000000000000D+00  0.0000000000000D+00
   416  4.1500000000000D+00  0.0000000000000D+00  0.0000000000000D+00
   417  4.1600000000000D+00  0.0000000000000D+00  0.0000000000000D+00
   418  4.1700000000000D+00  0.0000000000000D+00  0.0000000000000D+00
   419  4.1800000000000D+00  0.0000000000000D+00  0.0000000000000D+00
   420  4.1900000000000D+00  0.0000000000000D+00  0.0000000000000D+00
   421  4.2000000000000D+00  0.0000000000000D+00  0.0000000000000D+00
   422  4.2100000000000D+00  0.0000000000000D+00  0.0000000000000D+00