F     ONCVPSP-3.3.1  r_core=   1.60379   1.68217
      9.0000      7.0000      210905    zatom,zion,pspd
     8 -116133   1     4   600     0    pspcod,pspxc,lmax,lloc,mmax,r2well
  5.99000000  0.00000000  0.00000000    rchrg fchrg qchrg
     2     2     0     0     0    nproj
     1     1           extension_switch
   0                         5.5846027495741D+00  8.9452957628238D-01
     1  0.0000000000000D+00  1.4663670278026D-10 -3.9198391754702D-10
     2  1.0000000000000D-02  9.0560576996043D-02 -2.4565824055930D-02
     3  2.0000000000000D-02  1.8087614175804D-01 -4.8965821383125D-02
     4  3.0000000000000D-02  2.7070228550646D-01 -7.3034421905284D-02
     5  4.0000000000000D-02  3.5979580720537D-01 -9.6606574481426D-02
     6  5.0000000000000D-02  4.4791531948274D-01 -1.1951802034873D-01
     7  6.0000000000000D-02  5.3482185690344D-01 -1.4160558305411D-01
     8  7.0000000000000D-02  6.2027948720455D-01 -1.6270747990526D-01
     9  8.0000000000000D-02  7.0405592595609D-01 -1.8266365957990D-01
    10  9.0000000000000D-02  7.8592315493063D-01 -2.0131617005090D-01
    11  1.0000000000000D-01  8.6565804425497D-01 -2.1850956042043D-01
    12  1.1000000000000D-01  9.4304297817890D-01 -2.3409131961512D-01
    13  1.2000000000000D-01  1.0178664840336D+00 -2.4791235418390D-01
    14  1.3000000000000D-01  1.0899238636685D+00 -2.5982750667029D-01
    15  1.4000000000000D-01  1.1590178263535D+00 -2.6969611520916D-01
    16  1.5000000000000D-01  1.2249591218221D+00 -2.7738261413658D-01
    17  1.6000000000000D-01  1.2875671718052D+00 -2.8275717450927D-01
    18  1.7000000000000D-01  1.3466706980816D+00 -2.8569638251986D-01
    19  1.8000000000000D-01  1.4021083447453D+00 -2.8608395287692D-01
    20  1.9000000000000D-01  1.4537292920679D+00 -2.8381147330598D-01
    21  2.0000000000000D-01  1.5013938590279D+00 -2.7877917543273D-01
    22  2.1000000000000D-01  1.5449740912845D+00 -2.7089672644318D-01
    23  2.2000000000000D-01  1.5843543310977D+00 -2.6008403509056D-01
    24  2.3000000000000D-01  1.6194317654525D+00 -2.4627206484666D-01
    25  2.4000000000000D-01  1.6501169484221D+00 -2.2940364628718D-01
    26  2.5000000000000D-01  1.6763342936251D+00 -2.0943428016808D-01
    27  2.6000000000000D-01  1.6980225324802D+00 -1.8633292210224D-01
    28  2.7000000000000D-01  1.7151351338604D+00 -1.6008273929317D-01
    29  2.8000000000000D-01  1.7276406806883D+00 -1.3068182943277D-01
    30  2.9000000000000D-01  1.7355231989992D+00 -9.8143891631749D-02
    31  3.0000000000000D-01  1.7387824350407D+00 -6.2498839130148D-02
    32  3.1000000000000D-01  1.7374340760645D+00 -2.3793343536079D-02
    33  3.2000000000000D-01  1.7315099106106D+00  1.7908699531013D-02
    34  3.3000000000000D-01  1.7210579242826D+00  6.2525793259691D-02
    35  3.4000000000000D-01  1.7061423272627D+00  1.0995856040914D-01
    36  3.5000000000000D-01  1.6868435101227D+00  1.6008957097855D-01
    37  3.6000000000000D-01  1.6632579248444D+00  2.1278328510235D-01
    38  3.7000000000000D-01  1.6354978883726D+00  2.6788611872111D-01
    39  3.8000000000000D-01  1.6036913064819D+00  3.2522663868904D-01
    40  3.9000000000000D-01  1.5679813162412D+00  3.8461589297651D-01
    41  4.0000000000000D-01  1.5285258459065D+00  4.4584788051838D-01
    42  4.1000000000000D-01  1.4854970916542D+00  5.0870016405502D-01
    43  4.2000000000000D-01  1.4390809111844D+00  5.7293462802352D-01
    44  4.3000000000000D-01  1.3894761348684D+00  6.3829838219302D-01
    45  4.4000000000000D-01  1.3368937957774D+00  7.0452481031466D-01
    46  4.5000000000000D-01  1.2815562806168D+00  7.7133476158601D-01
    47  4.6000000000000D-01  1.2236964042767D+00  8.3843788122736D-01
    48  4.7000000000000D-01  1.1635564114088D+00  9.0553407494938D-01
    49  4.8000000000000D-01  1.1013869091245D+00  9.7231510057294D-01
    50  4.9000000000000D-01  1.0374457355948D+00  1.0384662785607D+00
    51  5.0000000000000D-01  9.7199676998642D-01  1.1036683117522D+00
    52  5.1000000000000D-01  9.0530868980910D-01  1.1675992031755D+00
    53  5.2000000000000D-01  8.3765368234825D-01  1.2299362594596D+00
    54  5.3000000000000D-01  7.6930611742117D-01  1.2903581661012D+00
    55  5.4000000000000D-01  7.0054118921184D-01  1.3485471196737D+00
    56  5.5000000000000D-01  6.3163353540394D-01  1.4041910010075D+00
    57  5.6000000000000D-01  5.6285584223774D-01  1.4569855724461D+00
    58  5.7000000000000D-01  4.9447744445950D-01  1.5066366814903D+00
    59  5.8000000000000D-01  4.2676292940667D-01  1.5528624525102D+00
    60  5.9000000000000D-01  3.5997075467418D-01  1.5953954477268D+00
    61  6.0000000000000D-01  2.9435188893354D-01  1.6339847783579D+00
    62  6.1000000000000D-01  2.3014848552439D-01  1.6683981466946D+00
    63  6.2000000000000D-01  1.6759259840590D-01  1.6984237999221D+00
    64  6.3000000000000D-01  1.0690494994114D-01  1.7238723767306D+00
    65  6.4000000000000D-01  4.8293759793332D-02  1.7445786281770D+00
    66  6.5000000000000D-01 -8.0463560639241D-03  1.7604029948513D+00
    67  6.6000000000000D-01 -6.1935407575878D-02  1.7712330231800D+00
    68  6.7000000000000D-01 -1.1320896585825D-01  1.7769846046325D+00
    69  6.8000000000000D-01 -1.6171900376191D-01  1.7776030227144D+00
    70  6.9000000000000D-01 -2.0733463461382D-01  1.7730637938836D+00
    71  7.0000000000000D-01 -2.4994274263581D-01  1.7633732899292D+00
    72  7.1000000000000D-01 -2.8944849923781D-01  1.7485691308786D+00
    73  7.2000000000000D-01 -3.2577576013245D-01  1.7287203391407D+00
    74  7.3000000000000D-01 -3.5886733900824D-01  1.7039272473256D+00
    75  7.4000000000000D-01 -3.8868515432864D-01  1.6743211539902D+00
    76  7.5000000000000D-01 -4.1521024668346D-01  1.6400637234315D+00
    77  7.6000000000000D-01 -4.3844266499315D-01  1.6013461275427D+00
    78  7.7000000000000D-01 -4.5840122076134D-01  1.5583879296814D+00
    79  7.8000000000000D-01 -4.7512311045827D-01  1.5114357124007D+00
    80  7.9000000000000D-01 -4.8866340700393D-01  1.4607614527883D+00
    81  8.0000000000000D-01 -4.9909442218768D-01  1.4066606509941D+00
    82  8.1000000000000D-01 -5.0650494270474D-01  1.3494502192963D+00
    83  8.2000000000000D-01 -5.1099934329933D-01  1.2894661407391D+00
    84  8.3000000000000D-01 -5.1269658127175D-01  1.2270609079424D+00
    85  8.4000000000000D-01 -5.1172907732394D-01  1.1626007541314D+00
    86  8.5000000000000D-01 -5.0824148837811D-01  1.0964626897354D+00
    87  8.6000000000000D-01 -5.0238937859848D-01  1.0290313590474D+00
    88  8.7000000000000D-01 -4.9433779537186D-01  9.6069573240926D-01
    89  8.8000000000000D-01 -4.8425975745305D-01  8.9184565017653D-01
    90  8.9000000000000D-01 -4.7233466285117D-01  8.2286823531607D-01
    91  9.0000000000000D-01 -4.5874662432114D-01  7.5414419189121D-01
    92  9.1000000000000D-01 -4.4368274052597D-01  6.8604400688844D-01
    93  9.2000000000000D-01 -4.2733131105117D-01  6.1892407283669D-01
    94  9.3000000000000D-01 -4.0988000348085D-01  5.5312274846503D-01
    95  9.4000000000000D-01 -3.9151398068625D-01  4.8895637424090D-01
    96  9.5000000000000D-01 -3.7241399597470D-01  4.2671525751863D-01
    97  9.6000000000000D-01 -3.5275446629374D-01  3.6665965290907D-01
    98  9.7000000000000D-01 -3.3270151976292D-01  3.0901570627716D-01
    99  9.8000000000000D-01 -3.1241109725187D-01  2.5397167404907D-01
   100  9.9000000000000D-01 -2.9202681413642D-01  2.0167318335145D-01
   101  1.0000000000000D+00 -2.7168064921390D-01  1.5223032786269D-01
   102  1.0100000000000D+00 -2.5149529193900D-01  1.0573042975351D-01
   103  1.0200000000000D+00 -2.3158519181371D-01  6.2244060592847D-02
   104  1.0300000000000D+00 -2.1205592298867D-01  2.1823479023751D-02
   105  1.0400000000000D+00 -1.9300396083412D-01 -1.5497260133616D-02
   106  1.0500000000000D+00 -1.7451646849308D-01 -4.9702332741563D-02
   107  1.0600000000000D+00 -1.5667116058259D-01 -8.0793998948665D-02
   108  1.0700000000000D+00 -1.3953624296737D-01 -1.0879229062058D-01
   109  1.0800000000000D+00 -1.2317042602070D-01 -1.3373454275959D-01
   110  1.0900000000000D+00 -1.0762300920618D-01 -1.5567477590335D-01
   111  1.1000000000000D+00 -9.2934034269904D-02 -1.7468293778358D-01
   112  1.1100000000000D+00 -7.9134503708273D-02 -1.9084401399325D-01
   113  1.1200000000000D+00 -6.6246660675875D-02 -2.0425701856542D-01
   114  1.1300000000000D+00 -5.4284326015552D-02 -2.1503387646349D-01
   115  1.1400000000000D+00 -4.3253287678375D-02 -2.2329821090560D-01
   116  1.1500000000000D+00 -3.3151737424320D-02 -2.2918404926953D-01
   117  1.1600000000000D+00 -2.3970749342590D-02 -2.3283446205143D-01
   118  1.1700000000000D+00 -1.5694794511216D-02 -2.3440014975879D-01
   119  1.1800000000000D+00 -8.3022859288904D-03 -2.3403799295015D-01
   120  1.1900000000000D+00 -1.7661476803965D-03 -2.3190958088716D-01
   121  1.2000000000000D+00  3.9455977510966D-03 -2.2817973420968D-01
   122  1.2100000000000D+00  8.8692300724371D-03 -2.2301503675388D-01
   123  1.2200000000000D+00  1.3044725752184D-02 -2.1658239162844D-01
   124  1.2300000000000D+00  1.6515152455460D-02 -2.0904761584339D-01
   125  1.2400000000000D+00  1.9326069003238D-02 -2.0057408709687D-01
   126  1.2500000000000D+00  2.1524936502276D-02 -1.9132145620956D-01
   127  1.2600000000000D+00  2.3160545670443D-02 -1.8144443671258D-01
   128  1.2700000000000D+00  2.4282465156612D-02 -1.7109168246635D-01
   129  1.2800000000000D+00  2.4940515565712D-02 -1.6040476391175D-01
   130  1.2900000000000D+00  2.5184273210399D-02 -1.4951725144951D-01
   131  1.3000000000000D+00  2.5062606914235D-02 -1.3855391247965D-01
   132  1.3100000000000D+00  2.4623250990817D-02 -1.2763002798873D-01
   133  1.3200000000000D+00  2.3912417204512D-02 -1.1685083379008D-01
   134  1.3300000000000D+00  2.2974447408177D-02 -1.0631108832853D-01
   135  1.3400000000000D+00  2.1851508942868D-02 -9.6094770020527D-02
   136  1.3500000000000D+00  2.0583333175337D-02 -8.6274902353212D-02
   137  1.3600000000000D+00  1.9206997565945D-02 -7.6913505076872D-02
   138  1.3700000000000D+00  1.7756751799643D-02 -6.8061670192924D-02
   139  1.3800000000000D+00  1.6263886521878D-02 -5.9759756016468D-02
   140  1.3900000000000D+00  1.4756644082787D-02 -5.2037694955344D-02
   141  1.4000000000000D+00  1.3260169605324D-02 -4.4915407688132D-02
   142  1.4100000000000D+00  1.1796499844062D-02 -3.8403314295972D-02
   143  1.4200000000000D+00  1.0384588223087D-02 -3.2502935205955D-02
   144  1.4300000000000D+00  9.0403623328655D-03 -2.7207569439741D-02
   145  1.4400000000000D+00  7.7768113305726D-03 -2.2503040679420D-02
   146  1.4500000000000D+00  6.6040996163453D-03 -1.8368498843499D-02
   147  1.4600000000000D+00  5.5297030139129D-03 -1.4777264852579D-02
   148  1.4700000000000D+00  4.5585639378190D-03 -1.1697706472438D-02
   149  1.4800000000000D+00  3.6932612854471D-03 -9.0941319896112D-03
   150  1.4900000000000D+00  2.9341913246070D-03 -6.9276892631877D-03
   151  1.5000000000000D+00  2.2797553493448D-03 -5.1572570442913D-03
   152  1.5100000000000D+00  1.7265504526034D-03 -3.7403169414381D-03
   153  1.5200000000000D+00  1.2695590455799D-03 -2.6337923407676D-03
   154  1.5300000000000D+00  9.0233431137566D-04 -1.7948457540150D-03
   155  1.5400000000000D+00  6.1717678931034D-04 -1.1816195000925D-03
   156  1.5500000000000D+00  4.0535244802354D-04 -7.5404723015418D-04
   157  1.5600000000000D+00  2.5710383397242D-04 -4.7410237480961D-04
   158  1.5700000000000D+00  1.6087537592234D-04 -3.0424049348437D-04
   159  1.5800000000000D+00  1.0706797952590D-04 -2.1625100143080D-04
   160  1.5900000000000D+00  8.9753560178708D-05 -1.9481549296765D-04
   161  1.6000000000000D+00  8.4725812348131D-05 -1.8912547589149D-04
   162  1.6100000000000D+00  5.5397759975966D-05 -1.2417115286624D-04
   163  1.6200000000000D+00  1.1004392332626D-05 -2.4657232392999D-05
   164  1.6300000000000D+00 -8.1429917669925D-06  1.8352963033104D-05
   165  1.6400000000000D+00 -2.6355652667377D-06  5.9433625862849D-06
   166  1.6500000000000D+00  1.7905443802372D-06 -4.0404782520117D-06
   167  1.6600000000000D+00  5.7485737233695D-07 -1.2979211093347D-06
   168  1.6700000000000D+00 -2.1643343052768D-07  4.8410287400628D-07
   169  1.6800000000000D+00 -7.0723065342187D-08  1.5818831271682D-07
   170  1.6900000000000D+00  0.0000000000000D+00  0.0000000000000D+00
   171  1.7000000000000D+00  0.0000000000000D+00  0.0000000000000D+00
   172  1.7100000000000D+00  0.0000000000000D+00  0.0000000000000D+00
   173  1.7200000000000D+00  0.0000000000000D+00  0.0000000000000D+00
   174  1.7300000000000D+00  0.0000000000000D+00  0.0000000000000D+00
   175  1.7400000000000D+00  0.0000000000000D+00  0.0000000000000D+00
   176  1.7500000000000D+00  0.0000000000000D+00  0.0000000000000D+00
   177  1.7600000000000D+00  0.0000000000000D+00  0.0000000000000D+00
   178  1.7700000000000D+00  0.0000000000000D+00  0.0000000000000D+00
   179  1.7800000000000D+00  0.0000000000000D+00  0.0000000000000D+00
   180  1.7900000000000D+00  0.0000000000000D+00  0.0000000000000D+00
   181  1.8000000000000D+00  0.0000000000000D+00  0.0000000000000D+00
   182  1.8100000000000D+00  0.0000000000000D+00  0.0000000000000D+00
   183  1.8200000000000D+00  0.0000000000000D+00  0.0000000000000D+00
   184  1.8300000000000D+00  0.0000000000000D+00  0.0000000000000D+00
   185  1.8400000000000D+00  0.0000000000000D+00  0.0000000000000D+00
   186  1.8500000000000D+00  0.0000000000000D+00  0.0000000000000D+00
   187  1.8600000000000D+00  0.0000000000000D+00  0.0000000000000D+00
   188  1.8700000000000D+00  0.0000000000000D+00  0.0000000000000D+00
   189  1.8800000000000D+00  0.0000000000000D+00  0.0000000000000D+00
   190  1.8900000000000D+00  0.0000000000000D+00  0.0000000000000D+00
   191  1.9000000000000D+00  0.0000000000000D+00  0.0000000000000D+00
   192  1.9100000000000D+00  0.0000000000000D+00  0.0000000000000D+00
   193  1.9200000000000D+00  0.0000000000000D+00  0.0000000000000D+00
   194  1.9300000000000D+00  0.0000000000000D+00  0.0000000000000D+00
   195  1.9400000000000D+00  0.0000000000000D+00  0.0000000000000D+00
   196  1.9500000000000D+00  0.0000000000000D+00  0.0000000000000D+00
   197  1.9600000000000D+00  0.0000000000000D+00  0.0000000000000D+00
   198  1.9700000000000D+00  0.0000000000000D+00  0.0000000000000D+00
   199  1.9800000000000D+00  0.0000000000000D+00  0.0000000000000D+00
   200  1.9900000000000D+00  0.0000000000000D+00  0.0000000000000D+00
   201  2.0000000000000D+00  0.0000000000000D+00  0.0000000000000D+00
   202  2.0100000000000D+00  0.0000000000000D+00  0.0000000000000D+00
   203  2.0200000000000D+00  0.0000000000000D+00  0.0000000000000D+00
   204  2.0300000000000D+00  0.0000000000000D+00  0.0000000000000D+00
   205  2.0400000000000D+00  0.0000000000000D+00  0.0000000000000D+00
   206  2.0500000000000D+00  0.0000000000000D+00  0.0000000000000D+00
   207  2.0600000000000D+00  0.0000000000000D+00  0.0000000000000D+00
   208  2.0700000000000D+00  0.0000000000000D+00  0.0000000000000D+00
   209  2.0800000000000D+00  0.0000000000000D+00  0.0000000000000D+00
   210  2.0900000000000D+00  0.0000000000000D+00  0.0000000000000D+00
   211  2.1000000000000D+00  0.0000000000000D+00  0.0000000000000D+00
   212  2.1100000000000D+00  0.0000000000000D+00  0.0000000000000D+00
   213  2.1200000000000D+00  0.0000000000000D+00  0.0000000000000D+00
   214  2.1300000000000D+00  0.0000000000000D+00  0.0000000000000D+00
   215  2.1400000000000D+00  0.0000000000000D+00  0.0000000000000D+00
   216  2.1500000000000D+00  0.0000000000000D+00  0.0000000000000D+00
   217  2.1600000000000D+00  0.0000000000000D+00  0.0000000000000D+00
   218  2.1700000000000D+00  0.0000000000000D+00  0.0000000000000D+00
   219  2.1800000000000D+00  0.0000000000000D+00  0.0000000000000D+00
   220  2.1900000000000D+00  0.0000000000000D+00  0.0000000000000D+00
   221  2.2000000000000D+00  0.0000000000000D+00  0.0000000000000D+00
   222  2.2100000000000D+00  0.0000000000000D+00  0.0000000000000D+00
   223  2.2200000000000D+00  0.0000000000000D+00  0.0000000000000D+00
   224  2.2300000000000D+00  0.0000000000000D+00  0.0000000000000D+00
   225  2.2400000000000D+00  0.0000000000000D+00  0.0000000000000D+00
   226  2.2500000000000D+00  0.0000000000000D+00  0.0000000000000D+00
   227  2.2600000000000D+00  0.0000000000000D+00  0.0000000000000D+00
   228  2.2700000000000D+00  0.0000000000000D+00  0.0000000000000D+00
   229  2.2800000000000D+00  0.0000000000000D+00  0.0000000000000D+00
   230  2.2900000000000D+00  0.0000000000000D+00  0.0000000000000D+00
   231  2.3000000000000D+00  0.0000000000000D+00  0.0000000000000D+00
   232  2.3100000000000D+00  0.0000000000000D+00  0.0000000000000D+00
   233  2.3200000000000D+00  0.0000000000000D+00  0.0000000000000D+00
   234  2.3300000000000D+00  0.0000000000000D+00  0.0000000000000D+00
   235  2.3400000000000D+00  0.0000000000000D+00  0.0000000000000D+00
   236  2.3500000000000D+00  0.0000000000000D+00  0.0000000000000D+00
   237  2.3600000000000D+00  0.0000000000000D+00  0.0000000000000D+00
   238  2.3700000000000D+00  0.0000000000000D+00  0.0000000000000D+00
   239  2.3800000000000D+00  0.0000000000000D+00  0.0000000000000D+00
   240  2.3900000000000D+00  0.0000000000000D+00  0.0000000000000D+00
   241  2.4000000000000D+00  0.0000000000000D+00  0.0000000000000D+00
   242  2.4100000000000D+00  0.0000000000000D+00  0.0000000000000D+00
   243  2.4200000000000D+00  0.0000000000000D+00  0.0000000000000D+00
   244  2.4300000000000D+00  0.0000000000000D+00  0.0000000000000D+00
   245  2.4400000000000D+00  0.0000000000000D+00  0.0000000000000D+00
   246  2.4500000000000D+00  0.0000000000000D+00  0.0000000000000D+00
   247  2.4600000000000D+00  0.0000000000000D+00  0.0000000000000D+00
   248  2.4700000000000D+00  0.0000000000000D+00  0.0000000000000D+00
   249  2.4800000000000D+00  0.0000000000000D+00  0.0000000000000D+00
   250  2.4900000000000D+00  0.0000000000000D+00  0.0000000000000D+00
   251  2.5000000000000D+00  0.0000000000000D+00  0.0000000000000D+00
   252  2.5100000000000D+00  0.0000000000000D+00  0.0000000000000D+00
   253  2.5200000000000D+00  0.0000000000000D+00  0.0000000000000D+00
   254  2.5300000000000D+00  0.0000000000000D+00  0.0000000000000D+00
   255  2.5400000000000D+00  0.0000000000000D+00  0.0000000000000D+00
   256  2.5500000000000D+00  0.0000000000000D+00  0.0000000000000D+00
   257  2.5600000000000D+00  0.0000000000000D+00  0.0000000000000D+00
   258  2.5700000000000D+00  0.0000000000000D+00  0.0000000000000D+00
   259  2.5800000000000D+00  0.0000000000000D+00  0.0000000000000D+00
   260  2.5900000000000D+00  0.0000000000000D+00  0.0000000000000D+00
   261  2.6000000000000D+00  0.0000000000000D+00  0.0000000000000D+00
   262  2.6100000000000D+00  0.0000000000000D+00  0.0000000000000D+00
   263  2.6200000000000D+00  0.0000000000000D+00  0.0000000000000D+00
   264  2.6300000000000D+00  0.0000000000000D+00  0.0000000000000D+00
   265  2.6400000000000D+00  0.0000000000000D+00  0.0000000000000D+00
   266  2.6500000000000D+00  0.0000000000000D+00  0.0000000000000D+00
   267  2.6600000000000D+00  0.0000000000000D+00  0.0000000000000D+00
   268  2.6700000000000D+00  0.0000000000000D+00  0.0000000000000D+00
   269  2.6800000000000D+00  0.0000000000000D+00  0.0000000000000D+00
   270  2.6900000000000D+00  0.0000000000000D+00  0.0000000000000D+00
   271  2.7000000000000D+00  0.0000000000000D+00  0.0000000000000D+00
   272  2.7100000000000D+00  0.0000000000000D+00  0.0000000000000D+00
   273  2.7200000000000D+00  0.0000000000000D+00  0.0000000000000D+00
   274  2.7300000000000D+00  0.0000000000000D+00  0.0000000000000D+00
   275  2.7400000000000D+00  0.0000000000000D+00  0.0000000000000D+00
   276  2.7500000000000D+00  0.0000000000000D+00  0.0000000000000D+00
   277  2.7600000000000D+00  0.0000000000000D+00  0.0000000000000D+00
   278  2.7700000000000D+00  0.0000000000000D+00  0.0000000000000D+00
   279  2.7800000000000D+00  0.0000000000000D+00  0.0000000000000D+00
   280  2.7900000000000D+00  0.0000000000000D+00  0.0000000000000D+00
   281  2.8000000000000D+00  0.0000000000000D+00  0.0000000000000D+00
   282  2.8100000000000D+00  0.0000000000000D+00  0.0000000000000D+00
   283  2.8200000000000D+00  0.0000000000000D+00  0.0000000000000D+00
   284  2.8300000000000D+00  0.0000000000000D+00  0.0000000000000D+00
   285  2.8400000000000D+00  0.0000000000000D+00  0.0000000000000D+00
   286  2.8500000000000D+00  0.0000000000000D+00  0.0000000000000D+00
   287  2.8600000000000D+00  0.0000000000000D+00  0.0000000000000D+00
   288  2.8700000000000D+00  0.0000000000000D+00  0.0000000000000D+00
   289  2.8800000000000D+00  0.0000000000000D+00  0.0000000000000D+00
   290  2.8900000000000D+00  0.0000000000000D+00  0.0000000000000D+00
   291  2.9000000000000D+00  0.0000000000000D+00  0.0000000000000D+00
   292  2.9100000000000D+00  0.0000000000000D+00  0.0000000000000D+00
   293  2.9200000000000D+00  0.0000000000000D+00  0.0000000000000D+00
   294  2.9300000000000D+00  0.0000000000000D+00  0.0000000000000D+00
   295  2.9400000000000D+00  0.0000000000000D+00  0.0000000000000D+00
   296  2.9500000000000D+00  0.0000000000000D+00  0.0000000000000D+00
   297  2.9600000000000D+00  0.0000000000000D+00  0.0000000000000D+00
   298  2.9700000000000D+00  0.0000000000000D+00  0.0000000000000D+00
   299  2.9800000000000D+00  0.0000000000000D+00  0.0000000000000D+00
   300  2.9900000000000D+00  0.0000000000000D+00  0.0000000000000D+00
   301  3.0000000000000D+00  0.0000000000000D+00  0.0000000000000D+00
   302  3.0100000000000D+00  0.0000000000000D+00  0.0000000000000D+00
   303  3.0200000000000D+00  0.0000000000000D+00  0.0000000000000D+00
   304  3.0300000000000D+00  0.0000000000000D+00  0.0000000000000D+00
   305  3.0400000000000D+00  0.0000000000000D+00  0.0000000000000D+00
   306  3.0500000000000D+00  0.0000000000000D+00  0.0000000000000D+00
   307  3.0600000000000D+00  0.0000000000000D+00  0.0000000000000D+00
   308  3.0700000000000D+00  0.0000000000000D+00  0.0000000000000D+00
   309  3.0800000000000D+00  0.0000000000000D+00  0.0000000000000D+00
   310  3.0900000000000D+00  0.0000000000000D+00  0.0000000000000D+00
   311  3.1000000000000D+00  0.0000000000000D+00  0.0000000000000D+00
   312  3.1100000000000D+00  0.0000000000000D+00  0.0000000000000D+00
   313  3.1200000000000D+00  0.0000000000000D+00  0.0000000000000D+00
   314  3.1300000000000D+00  0.0000000000000D+00  0.0000000000000D+00
   315  3.1400000000000D+00  0.0000000000000D+00  0.0000000000000D+00
   316  3.1500000000000D+00  0.0000000000000D+00  0.0000000000000D+00
   317  3.1600000000000D+00  0.0000000000000D+00  0.0000000000000D+00
   318  3.1700000000000D+00  0.0000000000000D+00  0.0000000000000D+00
   319  3.1800000000000D+00  0.0000000000000D+00  0.0000000000000D+00
   320  3.1900000000000D+00  0.0000000000000D+00  0.0000000000000D+00
   321  3.2000000000000D+00  0.0000000000000D+00  0.0000000000000D+00
   322  3.2100000000000D+00  0.0000000000000D+00  0.0000000000000D+00
   323  3.2200000000000D+00  0.0000000000000D+00  0.0000000000000D+00
   324  3.2300000000000D+00  0.0000000000000D+00  0.0000000000000D+00
   325  3.2400000000000D+00  0.0000000000000D+00  0.0000000000000D+00
   326  3.2500000000000D+00  0.0000000000000D+00  0.0000000000000D+00
   327  3.2600000000000D+00  0.0000000000000D+00  0.0000000000000D+00
   328  3.2700000000000D+00  0.0000000000000D+00  0.0000000000000D+00
   329  3.2800000000000D+00  0.0000000000000D+00  0.0000000000000D+00
   330  3.2900000000000D+00  0.0000000000000D+00  0.0000000000000D+00
   331  3.3000000000000D+00  0.0000000000000D+00  0.0000000000000D+00
   332  3.3100000000000D+00  0.0000000000000D+00  0.0000000000000D+00
   333  3.3200000000000D+00  0.0000000000000D+00  0.0000000000000D+00
   334  3.3300000000000D+00  0.0000000000000D+00  0.0000000000000D+00
   335  3.3400000000000D+00  0.0000000000000D+00  0.0000000000000D+00
   336  3.3500000000000D+00  0.0000000000000D+00  0.0000000000000D+00
   337  3.3600000000000D+00  0.0000000000000D+00  0.0000000000000D+00
   338  3.3700000000000D+00  0.0000000000000D+00  0.0000000000000D+00
   339  3.3800000000000D+00  0.0000000000000D+00  0.0000000000000D+00
   340  3.3900000000000D+00  0.0000000000000D+00  0.0000000000000D+00
   341  3.4000000000000D+00  0.0000000000000D+00  0.0000000000000D+00
   342  3.4100000000000D+00  0.0000000000000D+00  0.0000000000000D+00
   343  3.4200000000000D+00  0.0000000000000D+00  0.0000000000000D+00
   344  3.4300000000000D+00  0.0000000000000D+00  0.0000000000000D+00
   345  3.4400000000000D+00  0.0000000000000D+00  0.0000000000000D+00
   346  3.4500000000000D+00  0.0000000000000D+00  0.0000000000000D+00
   347  3.4600000000000D+00  0.0000000000000D+00  0.0000000000000D+00
   348  3.4700000000000D+00  0.0000000000000D+00  0.0000000000000D+00
   349  3.4800000000000D+00  0.0000000000000D+00  0.0000000000000D+00
   350  3.4900000000000D+00  0.0000000000000D+00  0.0000000000000D+00
   351  3.5000000000000D+00  0.0000000000000D+00  0.0000000000000D+00
   352  3.5100000000000D+00  0.0000000000000D+00  0.0000000000000D+00
   353  3.5200000000000D+00  0.0000000000000D+00  0.0000000000000D+00
   354  3.5300000000000D+00  0.0000000000000D+00  0.0000000000000D+00
   355  3.5400000000000D+00  0.0000000000000D+00  0.0000000000000D+00
   356  3.5500000000000D+00  0.0000000000000D+00  0.0000000000000D+00
   357  3.5600000000000D+00  0.0000000000000D+00  0.0000000000000D+00
   358  3.5700000000000D+00  0.0000000000000D+00  0.0000000000000D+00
   359  3.5800000000000D+00  0.0000000000000D+00  0.0000000000000D+00
   360  3.5900000000000D+00  0.0000000000000D+00  0.0000000000000D+00
   361  3.6000000000000D+00  0.0000000000000D+00  0.0000000000000D+00
   362  3.6100000000000D+00  0.0000000000000D+00  0.0000000000000D+00
   363  3.6200000000000D+00  0.0000000000000D+00  0.0000000000000D+00
   364  3.6300000000000D+00  0.0000000000000D+00  0.0000000000000D+00
   365  3.6400000000000D+00  0.0000000000000D+00  0.0000000000000D+00
   366  3.6500000000000D+00  0.0000000000000D+00  0.0000000000000D+00
   367  3.6600000000000D+00  0.0000000000000D+00  0.0000000000000D+00
   368  3.6700000000000D+00  0.0000000000000D+00  0.0000000000000D+00
   369  3.6800000000000D+00  0.0000000000000D+00  0.0000000000000D+00
   370  3.6900000000000D+00  0.0000000000000D+00  0.0000000000000D+00
   371  3.7000000000000D+00  0.0000000000000D+00  0.0000000000000D+00
   372  3.7100000000000D+00  0.0000000000000D+00  0.0000000000000D+00
   373  3.7200000000000D+00  0.0000000000000D+00  0.0000000000000D+00
   374  3.7300000000000D+00  0.0000000000000D+00  0.0000000000000D+00
   375  3.7400000000000D+00  0.0000000000000D+00  0.0000000000000D+00
   376  3.7500000000000D+00  0.0000000000000D+00  0.0000000000000D+00
   377  3.7600000000000D+00  0.0000000000000D+00  0.0000000000000D+00
   378  3.7700000000000D+00  0.0000000000000D+00  0.0000000000000D+00
   379  3.7800000000000D+00  0.0000000000000D+00  0.0000000000000D+00
   380  3.7900000000000D+00  0.0000000000000D+00  0.0000000000000D+00
   381  3.8000000000000D+00  0.0000000000000D+00  0.0000000000000D+00
   382  3.8100000000000D+00  0.0000000000000D+00  0.0000000000000D+00
   383  3.8200000000000D+00  0.0000000000000D+00  0.0000000000000D+00
   384  3.8300000000000D+00  0.0000000000000D+00  0.0000000000000D+00
   385  3.8400000000000D+00  0.0000000000000D+00  0.0000000000000D+00
   386  3.8500000000000D+00  0.0000000000000D+00  0.0000000000000D+00
   387  3.8600000000000D+00  0.0000000000000D+00  0.0000000000000D+00
   388  3.8700000000000D+00  0.0000000000000D+00  0.0000000000000D+00
   389  3.8800000000000D+00  0.0000000000000D+00  0.0000000000000D+00
   390  3.8900000000000D+00  0.0000000000000D+00  0.0000000000000D+00
   391  3.9000000000000D+00  0.0000000000000D+00  0.0000000000000D+00
   392  3.9100000000000D+00  0.0000000000000D+00  0.0000000000000D+00
   393  3.9200000000000D+00  0.0000000000000D+00  0.0000000000000D+00
   394  3.9300000000000D+00  0.0000000000000D+00  0.0000000000000D+00
   395  3.9400000000000D+00  0.0000000000000D+00  0.0000000000000D+00
   396  3.9500000000000D+00  0.0000000000000D+00  0.0000000000000D+00
   397  3.9600000000000D+00  0.0000000000000D+00  0.0000000000000D+00
   398  3.9700000000000D+00  0.0000000000000D+00  0.0000000000000D+00
   399  3.9800000000000D+00  0.0000000000000D+00  0.0000000000000D+00
   400  3.9900000000000D+00  0.0000000000000D+00  0.0000000000000D+00
   401  4.0000000000000D+00  0.0000000000000D+00  0.0000000000000D+00
   402  4.0100000000000D+00  0.0000000000000D+00  0.0000000000000D+00
   403  4.0200000000000D+00  0.0000000000000D+00  0.0000000000000D+00
   404  4.0300000000000D+00  0.0000000000000D+00  0.0000000000000D+00
   405  4.0400000000000D+00  0.0000000000000D+00  0.0000000000000D+00
   406  4.0500000000000D+00  0.0000000000000D+00  0.0000000000000D+00
   407  4.0600000000000D+00  0.0000000000000D+00  0.0000000000000D+00
   408  4.0700000000000D+00  0.0000000000000D+00  0.0000000000000D+00
   409  4.0800000000000D+00  0.0000000000000D+00  0.0000000000000D+00
   410  4.0900000000000D+00  0.0000000000000D+00  0.0000000000000D+00
   411  4.1000000000000D+00  0.0000000000000D+00  0.0000000000000D+00
   412  4.1100000000000D+00  0.0000000000000D+00  0.0000000000000D+00
   413  4.1200000000000D+00  0.0000000000000D+00  0.0000000000000D+00
   414  4.1300000000000D+00  0.0000000000000D+00  0.0000000000000D+00
   415  4.1400000000000D+00  0.0000000000000D+00  0.0000000000000D+00
   416  4.1500000000000D+00  0.0000000000000D+00  0.0000000000000D+00
   417  4.1600000000000D+00  0.0000000000000D+00  0.0000000000000D+00
   418  4.1700000000000D+00  0.0000000000000D+00  0.0000000000000D+00
   419  4.1800000000000D+00  0.0000000000000D+00  0.0000000000000D+00
   420  4.1900000000000D+00  0.0000000000000D+00  0.0000000000000D+00
   421  4.2000000000000D+00  0.0000000000000D+00  0.0000000000000D+00
   422  4.2100000000000D+00  0.0000000000000D+00  0.0000000000000D+00
   423  4.2200000000000D+00  0.0000000000000D+00  0.0000000000000D+00