Ga    ONCVPSP-3.3.1  r_core=   2.35819   2.44411   1.99550
     31.0000     13.0000      210905    zatom,zion,pspd
     8 -116133   2     4   600     0    pspcod,pspxc,lmax,lloc,mmax,r2well
  5.99000000  0.00000000  0.00000000    rchrg fchrg qchrg
     2     3     2     0    nproj
     3     1           extension_switch
     4     3     0    nprojso
   0                         3.4316003425277D-01  4.7894360217083D+00
     1  0.0000000000000D+00 -2.5462010971866D-11  3.0358215941106D-12
     2  1.0000000000000D-02  3.9268224414260D-03  2.5492441584335D-02
     3  2.0000000000000D-02  7.7963282562361D-03  5.0982584495270D-02
     4  3.0000000000000D-02  1.1551517476492D-02  7.6468083158578D-02
     5  4.0000000000000D-02  1.5136021998428D-02  1.0194649840748D-01
     6  5.0000000000000D-02  1.8494417888030D-02  1.2741525120840D-01
     7  6.0000000000000D-02  2.1572533352814D-02  1.5287157701092D-01
     8  7.0000000000000D-02  2.4317750965165D-02  1.7831248092662D-01
     9  8.0000000000000D-02  2.6679302748061D-02  2.0373469393809D-01
    10  9.0000000000000D-02  2.8608556765714D-02  2.2913463033591D-01
    11  1.0000000000000D-01  3.0059293899321D-02  2.5450834657681D-01
    12  1.1000000000000D-01  3.0987973531638D-02  2.7985150175082D-01
    13  1.2000000000000D-01  3.1353986913379D-02  3.0515931983964D-01
    14  1.3000000000000D-01  3.1119897039062D-02  3.3042655394146D-01
    15  1.4000000000000D-01  3.0251663919799D-02  3.5564745263066D-01
    16  1.5000000000000D-01  2.8718854205389D-02  3.8081572861246D-01
    17  1.6000000000000D-01  2.6494834177559D-02  4.0592452982464D-01
    18  1.7000000000000D-01  2.3556945210068D-02  4.3096641312899D-01
    19  1.8000000000000D-01  1.9886660869204D-02  4.5593332072578D-01
    20  1.9000000000000D-01  1.5469724909949D-02  4.8081655941450D-01
    21  2.0000000000000D-01  1.0296269507770D-02  5.0560678281342D-01
    22  2.1000000000000D-01  4.3609131541015D-03  5.3029397663965D-01
    23  2.2000000000000D-01 -2.3371622661840D-03  5.5486744714009D-01
    24  2.3000000000000D-01 -9.7941556042391D-03  5.7931581275167D-01
    25  2.4000000000000D-01 -1.8001612078331D-02  6.0362699905750D-01
    26  2.5000000000000D-01 -2.6946410605491D-02  6.2778823709329D-01
    27  2.6000000000000D-01 -3.6610772935863D-02  6.5178606504543D-01
    28  2.7000000000000D-01 -4.6972294595203D-02  6.7560633337003D-01
    29  2.8000000000000D-01 -5.8003997543199D-02  6.9923421334887D-01
    30  2.9000000000000D-01 -6.9674404358994D-02  7.2265420908547D-01
    31  3.0000000000000D-01 -8.1947633669013D-02  7.4585017293160D-01
    32  3.1000000000000D-01 -9.4783516437484D-02  7.6880532432123D-01
    33  3.2000000000000D-01 -1.0813773264678D-01  7.9150227197640D-01
    34  3.3000000000000D-01 -1.2196196780403D-01  8.1392303943627D-01
    35  3.4000000000000D-01 -1.3620408862129D-01  8.3604909384811D-01
    36  3.5000000000000D-01 -1.5080833713139D-01  8.5786137794646D-01
    37  3.6000000000000D-01 -1.6571554241862D-01  8.7934034513410D-01
    38  3.7000000000000D-01 -1.8086334906504D-01  9.0046599756701D-01
    39  3.8000000000000D-01 -1.9618646133787D-01  9.2121792713312D-01
    40  3.9000000000000D-01 -2.1161690207318D-01  9.4157535920378D-01
    41  4.0000000000000D-01 -2.2708428514504D-01  9.6151719902573D-01
    42  4.1000000000000D-01 -2.4251610034826D-01  9.8102208061083D-01
    43  4.2000000000000D-01 -2.5783800946714D-01  1.0000684179709D+00
    44  4.3000000000000D-01 -2.7297415225209D-01  1.0186344585351D+00
    45  4.4000000000000D-01 -2.8784746098171D-01  1.0366983385793D+00
    46  4.5000000000000D-01 -3.0237998224859D-01  1.0542381404867D+00
    47  4.6000000000000D-01 -3.1649320457489D-01  1.0712319516531D+00
    48  4.7000000000000D-01 -3.3010839043685D-01  1.0876579248429D+00
    49  4.8000000000000D-01 -3.4314691125750D-01  1.1034943397923D+00
    50  4.9000000000000D-01 -3.5553058391275D-01  1.1187196658563D+00
    51  5.0000000000000D-01 -3.6718200728901D-01  1.1333126254849D+00
    52  5.1000000000000D-01 -3.7802489742995D-01  1.1472522583141D+00
    53  5.2000000000000D-01 -3.8798441981478D-01  1.1605179856506D+00
    54  5.3000000000000D-01 -3.9698751732434D-01  1.1730896751289D+00
    55  5.4000000000000D-01 -4.0496323246816D-01  1.1849477053161D+00
    56  5.5000000000000D-01 -4.1184302247243D-01  1.1960730300373D+00
    57  5.6000000000000D-01 -4.1756106585859D-01  1.2064472421977D+00
    58  5.7000000000000D-01 -4.2205455918102D-01  1.2160526368737D+00
    59  5.8000000000000D-01 -4.2526400263462D-01  1.2248722734495D+00
    60  5.9000000000000D-01 -4.2713347329276D-01  1.2328900365756D+00
    61  6.0000000000000D-01 -4.2761088479034D-01  1.2400906957307D+00
    62  6.1000000000000D-01 -4.2664823232689D-01  1.2464599631691D+00
    63  6.2000000000000D-01 -4.2420182192890D-01  1.2519845500431D+00
    64  6.3000000000000D-01 -4.2023248298073D-01  1.2566522204920D+00
    65  6.4000000000000D-01 -4.1470576310680D-01  1.2604518434982D+00
    66  6.5000000000000D-01 -4.0759210456598D-01  1.2633734423137D+00
    67  6.6000000000000D-01 -3.9886700140034D-01  1.2654082412729D+00
    68  6.7000000000000D-01 -3.8851113666575D-01  1.2665487098083D+00
    69  6.8000000000000D-01 -3.7651049915891D-01  1.2667886035023D+00
    70  6.9000000000000D-01 -3.6285647914609D-01  1.2661230020105D+00
    71  7.0000000000000D-01 -3.4754594269099D-01  1.2645483437066D+00
    72  7.1000000000000D-01 -3.3058128427321D-01  1.2620624569065D+00
    73  7.2000000000000D-01 -3.1197045748334D-01  1.2586645875414D+00
    74  7.3000000000000D-01 -2.9172698367756D-01  1.2543554231608D+00
    75  7.4000000000000D-01 -2.6986993857009D-01  1.2491371131577D+00
    76  7.5000000000000D-01 -2.4642391683806D-01  1.2430132851214D+00
    77  7.6000000000000D-01 -2.2141897490928D-01  1.2359890572345D+00
    78  7.7000000000000D-01 -1.9489055219747D-01  1.2280710466453D+00
    79  7.8000000000000D-01 -1.6687937114249D-01  1.2192673737583D+00
    80  7.9000000000000D-01 -1.3743131650496D-01  1.2095876623997D+00
    81  8.0000000000000D-01 -1.0659729445273D-01  1.1990430358292D+00
    82  8.1000000000000D-01 -7.4433072063221D-02  1.1876461085803D+00
    83  8.2000000000000D-01 -4.0999097948723D-02  1.1754109741295D+00
    84  8.3000000000000D-01 -6.3603047912855D-03  1.1623531884031D+00
    85  8.4000000000000D-01  2.9414105350696D-02  1.1484897491500D+00
    86  8.5000000000000D-01  6.6250892030321D-02  1.1338390712169D+00
    87  8.6000000000000D-01  1.0407302269354D-01  1.1184209577806D+00
    88  8.7000000000000D-01  1.4279993319124D-01  1.1022565676030D+00
    89  8.8000000000000D-01  1.8234780140202D-01  1.0853683783874D+00
    90  8.9000000000000D-01  2.2262983279386D-01  1.0677801463301D+00
    91  9.0000000000000D-01  2.6355655670683D-01  1.0495168619705D+00
    92  9.1000000000000D-01  3.0503613209871D-01  1.0306047024588D+00
    93  9.2000000000000D-01  3.4697466146078D-01  1.0110709803692D+00
    94  9.3000000000000D-01  3.8927651158303D-01  9.9094408920046D-01
    95  9.4000000000000D-01  4.3184463982544D-01  9.7025344571506D-01
    96  9.5000000000000D-01  4.7458092453670D-01  9.4902942927920D-01
    97  9.6000000000000D-01  5.1738649825187D-01  9.2730331837642D-01
    98  9.7000000000000D-01  5.6016208229714D-01  9.0510722447609D-01
    99  9.8000000000000D-01  6.0280832143357D-01  8.8247402344727D-01
   100  9.9000000000000D-01  6.4522611718036D-01  8.5943728471661D-01
   101  1.0000000000000D+00  6.8731695847445D-01  8.3603119837595D-01
   102  1.0100000000000D+00  7.2898324834446D-01  8.1229050045254D-01
   103  1.0200000000000D+00  7.7012862530525D-01  7.8825039656043D-01
   104  1.0300000000000D+00  8.1065827821208D-01  7.6394648415700D-01
   105  1.0400000000000D+00  8.5047925335238D-01  7.3941467363292D-01
   106  1.0500000000000D+00  8.8950075259846D-01  7.1469110846795D-01
   107  1.0600000000000D+00  9.2763442149267D-01  6.8981208468746D-01
   108  1.0700000000000D+00  9.6479462619174D-01  6.6481396985686D-01
   109  1.0800000000000D+00  1.0008987182575D+00  6.3973312185271D-01
   110  1.0900000000000D+00  1.0358672863370D+00  6.1460580764929D-01
   111  1.1000000000000D+00  1.0696243938531D+00  5.8946812235979D-01
   112  1.1100000000000D+00  1.1020978018865D+00  5.6435590876958D-01
   113  1.1200000000000D+00  1.1332191765146D+00  5.3930467759751D-01
   114  1.1300000000000D+00  1.1629242799348D+00  5.1434952871852D-01
   115  1.1400000000000D+00  1.1911531447898D+00  4.8952507357750D-01
   116  1.1500000000000D+00  1.2178502311897D+00  4.6486535901983D-01
   117  1.1600000000000D+00  1.2429645660123D+00  4.4040379275903D-01
   118  1.1700000000000D+00  1.2664498641297D+00  4.1617307069734D-01
   119  1.1800000000000D+00  1.2882646313113D+00  3.9220510630768D-01
   120  1.1900000000000D+00  1.3083722486318D+00  3.6853096227849D-01
   121  1.2000000000000D+00  1.3267410382994D+00  3.4518078461501D-01
   122  1.2100000000000D+00  1.3433443108785D+00  3.2218373938501D-01
   123  1.2200000000000D+00  1.3581603940026D+00  2.9956795228411D-01
   124  1.2300000000000D+00  1.3711726427354D+00  2.7736045118751D-01
   125  1.2400000000000D+00  1.3823694317934D+00  2.5558711184913D-01
   126  1.2500000000000D+00  1.3917441299563D+00  2.3427260689361D-01
   127  1.2600000000000D+00  1.3992950570598D+00  2.1344035823621D-01
   128  1.2700000000000D+00  1.4050254240015D+00  1.9311249305949D-01
   129  1.2800000000000D+00  1.4089432562939D+00  1.7330980346031D-01
   130  1.2900000000000D+00  1.4110613017656D+00  1.5405170986494D-01
   131  1.3000000000000D+00  1.4113969230287D+00  1.3535622830860D-01
   132  1.3100000000000D+00  1.4099719754256D+00  1.1723994165552D-01
   133  1.3200000000000D+00  1.4068126712244D+00  9.9717974819123D-02
   134  1.3300000000000D+00  1.4019494308236D+00  8.2803974045465D-02
   135  1.3400000000000D+00  1.3954167218337D+00  6.6510090294333D-02
   136  1.3500000000000D+00  1.3872528869115D+00  5.0846966739822D-02
   137  1.3600000000000D+00  1.3774999612232D+00  3.5823730421925D-02
   138  1.3700000000000D+00  1.3662034805048D+00  2.1447988034008D-02
   139  1.3800000000000D+00  1.3534122806454D+00  7.7258258440228D-03
   140  1.3900000000000D+00  1.3391782897680D+00 -5.3381862665462D-03
   141  1.4000000000000D+00  1.3235563137839D+00 -1.7740986698076D-02
   142  1.4100000000000D+00  1.3066038163940D+00 -2.9481009987492D-02
   143  1.4200000000000D+00  1.2883806945240D+00 -4.0558170695434D-02
   144  1.4300000000000D+00  1.2689490501413D+00 -5.0973843393261D-02
   145  1.4400000000000D+00  1.2483729594514D+00 -6.0730838816370D-02
   146  1.4500000000000D+00  1.2267182403537D+00 -6.9833376299229D-02
   147  1.4600000000000D+00  1.2040522191438D+00 -7.8287052564034D-02
   148  1.4700000000000D+00  1.1804434972969D+00 -8.6098806997123D-02
   149  1.4800000000000D+00  1.1559617192069D+00 -9.3276883520124D-02
   150  1.4900000000000D+00  1.1306773417511D+00 -9.9830789181909D-02
   151  1.5000000000000D+00  1.1046614063425D+00 -1.0577124962277D-01
   152  1.5100000000000D+00  1.0779853144009D+00 -1.1111016152857D-01
   153  1.5200000000000D+00  1.0507206066987D+00 -1.1586054225608D-01
   154  1.5300000000000D+00  1.0229387474677D+00 -1.2003647675607D-01
   155  1.5400000000000D+00  9.9471091364571D-01 -1.2365306198144D-01
   156  1.5500000000000D+00  9.6610778994311D-01 -1.2672634893016D-01
   157  1.5600000000000D+00  9.3719937014543D-01 -1.2927328250492D-01
   158  1.5700000000000D+00  9.0805476503587D-01 -1.3131163936092D-01
   159  1.5800000000000D+00  8.7874201743076D-01 -1.3285996391996D-01
   160  1.5900000000000D+00  8.4932792438505D-01 -1.3393750273443D-01
   161  1.6000000000000D+00  8.1987786714607D-01 -1.3456413738078D-01
   162  1.6100000000000D+00  7.9045564858467D-01 -1.3476031606744D-01
   163  1.6200000000000D+00  7.6112333875196D-01 -1.3454698414378D-01
   164  1.6300000000000D+00  7.3194112799605D-01 -1.3394551368587D-01
   165  1.6400000000000D+00  7.0296718829902D-01 -1.3297763235672D-01
   166  1.6500000000000D+00  6.7425754207855D-01 -1.3166535170095D-01
   167  1.6600000000000D+00  6.4586593900246D-01 -1.3003089508124D-01
   168  1.6700000000000D+00  6.1784373999145D-01 -1.2809662539895D-01
   169  1.6800000000000D+00  5.9023980879372D-01 -1.2588497281286D-01
   170  1.6900000000000D+00  5.6310041025985D-01 -1.2341836257826D-01
   171  1.7000000000000D+00  5.3646911555594D-01 -1.2071914322639D-01
   172  1.7100000000000D+00  5.1038671339712D-01 -1.1780951518116D-01
   173  1.7200000000000D+00  4.8489112741565D-01 -1.1471146004173D-01
   174  1.7300000000000D+00  4.6001733870968D-01 -1.1144667059471D-01
   175  1.7400000000000D+00  4.3579731357413D-01 -1.0803648179855D-01
   176  1.7500000000000D+00  4.1225993545380D-01 -1.0450180276095D-01
   177  1.7600000000000D+00  3.8943094099537D-01 -1.0086304997308D-01
   178  1.7700000000000D+00  3.6733285929530D-01 -9.7140081769338D-02
   179  1.7800000000000D+00  3.4598495404886D-01 -9.3352134298010D-02
   180  1.7900000000000D+00  3.2540316784866D-01 -8.9517758930660D-02
   181  1.8000000000000D+00  3.0560006811232D-01 -8.5654761387908D-02
   182  1.8100000000000D+00  2.8658479409814D-01 -8.1780142503681D-02
   183  1.8200000000000D+00  2.6836299881469D-01 -7.7910040189001D-02
   184  1.8300000000000D+00  2.5093681781737D-01 -7.4059676526645D-02
   185  1.8400000000000D+00  2.3430476247178D-01 -7.0243297406554D-02
   186  1.8500000000000D+00  2.1846175700923D-01 -6.6474133013053D-02
   187  1.8600000000000D+00  2.0339912237374D-01 -6.2764352824541D-02
   188  1.8700000000000D+00  1.8910421988696D-01 -5.9124980159896D-02
   189  1.8800000000000D+00  1.7556025356530D-01 -5.5565832532582D-02
   190  1.8900000000000D+00  1.6274747624319D-01 -5.2095634372852D-02
   191  1.9000000000000D+00  1.5064385128216D-01 -4.8722060170578D-02
   192  1.9100000000000D+00  1.3922582233558D-01 -4.5451825694551D-02
   193  1.9200000000000D+00  1.2846966542454D-01 -4.2290845317884D-02
   194  1.9300000000000D+00  1.1835150896124D-01 -3.9244234414590D-02
   195  1.9400000000000D+00  1.0884718858810D-01 -3.6316299043684D-02
   196  1.9500000000000D+00  9.9932331168648D-02 -3.3510555217532D-02
   197  1.9600000000000D+00  9.1582611170775D-02 -3.0829768617895D-02
   198  1.9700000000000D+00  8.3773766012977D-02 -2.8275970550364D-02
   199  1.9800000000000D+00  7.6481722773328D-02 -2.5850489255851D-02
   200  1.9900000000000D+00  6.9682676503031D-02 -2.3553977949918D-02
   201  2.0000000000000D+00  6.3353168235560D-02 -2.1386445425322D-02
   202  2.0100000000000D+00  5.7470156073120D-02 -1.9347288059444D-02
   203  2.0200000000000D+00  5.2011078652624D-02 -1.7435323147758D-02
   204  2.0300000000000D+00  4.6953910676339D-02 -1.5648823456921D-02
   205  2.0400000000000D+00  4.2277211900288D-02 -1.3985552786367D-02
   206  2.0500000000000D+00  3.7960167634370D-02 -1.2442802514797D-02
   207  2.0600000000000D+00  3.3982623051665D-02 -1.1017428892706D-02
   208  2.0700000000000D+00  3.0325109905998D-02 -9.7058910067876D-03
   209  2.0800000000000D+00  2.6968866484326D-02 -8.5042892575161D-03
   210  2.0900000000000D+00  2.3895851544364D-02 -7.4084042006192D-03
   211  2.1000000000000D+00  2.1088751186117D-02 -6.4137356226781D-03
   212  2.1100000000000D+00  1.8530980657993D-02 -5.5155417170226D-03
   213  2.1200000000000D+00  1.6206680075691D-02 -4.7088781908004D-03
   214  2.1300000000000D+00  1.4100705090738D-02 -3.9886371872524D-03
   215  2.1400000000000D+00  1.2198613120101D-02 -3.3495859040512D-03
   216  2.1500000000000D+00  1.0486644744748D-02 -2.7864046813209D-03
   217  2.1600000000000D+00  8.9517016762426D-03 -2.2937245687853D-03
   218  2.1700000000000D+00  7.5813211060217D-03 -1.8661640954855D-03
   219  2.1800000000000D+00  6.3636471178100D-03 -1.4983651676755D-03
   220  2.1900000000000D+00  5.2873997027498D-03 -1.1850280802336D-03
   221  2.2000000000000D+00  4.3418418080284D-03 -9.2094524188519D-04
   222  2.2100000000000D+00  3.5167447827861D-03 -7.0103382167747D-04
   223  2.2200000000000D+00  2.8023528761808D-03 -5.2036699570452D-04
   224  2.2300000000000D+00  2.1893473852920D-03 -3.7420364719107D-04
   225  2.2400000000000D+00  1.6688101570977D-03 -2.5801672217714D-04
   226  2.2500000000000D+00  1.2321881579371D-03 -1.6751968964503D-04
   227  2.2600000000000D+00  8.7125852078289D-04 -9.8691353187001D-05
   228  2.2700000000000D+00  5.7809432117295D-04 -4.7798950435886D-05
   229  2.2800000000000D+00  3.4478523026066D-04 -1.1364347403605D-05
   230  2.2900000000000D+00  1.6412632175581D-04  1.3658005236671D-05
   231  2.3000000000000D+00  2.9528918265812D-05  2.9877547763253D-05
   232  2.3100000000000D+00 -6.3813624887842D-05  3.9108163920082D-05
   233  2.3200000000000D+00 -1.2751617212671D-04  4.4543802149929D-05
   234  2.3300000000000D+00 -1.7188172657134D-04  4.8687823395289D-05
   235  2.3400000000000D+00 -2.1036020373345D-04  5.4624836351601D-05
   236  2.3500000000000D+00 -2.2395814486063D-04  5.6556673657056D-05
   237  2.3600000000000D+00 -1.9880524465886D-04  4.9958757782339D-05
   238  2.3700000000000D+00 -1.2589516860636D-04  3.1606069031954D-05
   239  2.3800000000000D+00 -4.4137183467151D-05  1.1096334617580D-05
   240  2.3900000000000D+00  1.1591892428495D-05 -2.8912003773315D-06
   241  2.4000000000000D+00  2.2343065477371D-05 -5.5700123728307D-06
   242  2.4100000000000D+00  9.8505981613410D-06 -2.4551901777721D-06
   243  2.4200000000000D+00 -3.0025217096716D-06  7.4648709238451D-07
   244  2.4300000000000D+00 -5.0254421784794D-06  1.2487142149755D-06
   245  2.4400000000000D+00 -1.9812217146141D-06  4.9205981792435D-07
   246  2.4500000000000D+00  3.8557632800700D-07 -9.6959739145023D-08
   247  2.4600000000000D+00  5.7852983904805D-07 -1.4548118804817D-07
   248  2.4700000000000D+00  2.0077803685297D-07 -5.0489059273784D-08
   249  2.4800000000000D+00  0.0000000000000D+00  0.0000000000000D+00
   250  2.4900000000000D+00  0.0000000000000D+00  0.0000000000000D+00
   251  2.5000000000000D+00  0.0000000000000D+00  0.0000000000000D+00
   252  2.5100000000000D+00  0.0000000000000D+00  0.0000000000000D+00
   253  2.5200000000000D+00  0.0000000000000D+00  0.0000000000000D+00
   254  2.5300000000000D+00  0.0000000000000D+00  0.0000000000000D+00
   255  2.5400000000000D+00  0.0000000000000D+00  0.0000000000000D+00
   256  2.5500000000000D+00  0.0000000000000D+00  0.0000000000000D+00
   257  2.5600000000000D+00  0.0000000000000D+00  0.0000000000000D+00
   258  2.5700000000000D+00  0.0000000000000D+00  0.0000000000000D+00
   259  2.5800000000000D+00  0.0000000000000D+00  0.0000000000000D+00
   260  2.5900000000000D+00  0.0000000000000D+00  0.0000000000000D+00
   261  2.6000000000000D+00  0.0000000000000D+00  0.0000000000000D+00
   262  2.6100000000000D+00  0.0000000000000D+00  0.0000000000000D+00
   263  2.6200000000000D+00  0.0000000000000D+00  0.0000000000000D+00
   264  2.6300000000000D+00  0.0000000000000D+00  0.0000000000000D+00
   265  2.6400000000000D+00  0.0000000000000D+00  0.0000000000000D+00
   266  2.6500000000000D+00  0.0000000000000D+00  0.0000000000000D+00
   267  2.6600000000000D+00  0.0000000000000D+00  0.0000000000000D+00
   268  2.6700000000000D+00  0.0000000000000D+00  0.0000000000000D+00
   269  2.6800000000000D+00  0.0000000000000D+00  0.0000000000000D+00
   270  2.6900000000000D+00  0.0000000000000D+00  0.0000000000000D+00
   271  2.7000000000000D+00  0.0000000000000D+00  0.0000000000000D+00
   272  2.7100000000000D+00  0.0000000000000D+00  0.0000000000000D+00
   273  2.7200000000000D+00  0.0000000000000D+00  0.0000000000000D+00
   274  2.7300000000000D+00  0.0000000000000D+00  0.0000000000000D+00
   275  2.7400000000000D+00  0.0000000000000D+00  0.0000000000000D+00
   276  2.7500000000000D+00  0.0000000000000D+00  0.0000000000000D+00
   277  2.7600000000000D+00  0.0000000000000D+00  0.0000000000000D+00
   278  2.7700000000000D+00  0.0000000000000D+00  0.0000000000000D+00
   279  2.7800000000000D+00  0.0000000000000D+00  0.0000000000000D+00
   280  2.7900000000000D+00  0.0000000000000D+00  0.0000000000000D+00
   281  2.8000000000000D+00  0.0000000000000D+00  0.0000000000000D+00
   282  2.8100000000000D+00  0.0000000000000D+00  0.0000000000000D+00
   283  2.8200000000000D+00  0.0000000000000D+00  0.0000000000000D+00
   284  2.8300000000000D+00  0.0000000000000D+00  0.0000000000000D+00
   285  2.8400000000000D+00  0.0000000000000D+00  0.0000000000000D+00
   286  2.8500000000000D+00  0.0000000000000D+00  0.0000000000000D+00
   287  2.8600000000000D+00  0.0000000000000D+00  0.0000000000000D+00
   288  2.8700000000000D+00  0.0000000000000D+00  0.0000000000000D+00
   289  2.8800000000000D+00  0.0000000000000D+00  0.0000000000000D+00
   290  2.8900000000000D+00  0.0000000000000D+00  0.0000000000000D+00
   291  2.9000000000000D+00  0.0000000000000D+00  0.0000000000000D+00
   292  2.9100000000000D+00  0.0000000000000D+00  0.0000000000000D+00
   293  2.9200000000000D+00  0.0000000000000D+00  0.0000000000000D+00
   294  2.9300000000000D+00  0.0000000000000D+00  0.0000000000000D+00
   295  2.9400000000000D+00  0.0000000000000D+00  0.0000000000000D+00
   296  2.9500000000000D+00  0.0000000000000D+00  0.0000000000000D+00
   297  2.9600000000000D+00  0.0000000000000D+00  0.0000000000000D+00
   298  2.9700000000000D+00  0.0000000000000D+00  0.0000000000000D+00
   299  2.9800000000000D+00  0.0000000000000D+00  0.0000000000000D+00
   300  2.9900000000000D+00  0.0000000000000D+00  0.0000000000000D+00
   301  3.0000000000000D+00  0.0000000000000D+00  0.0000000000000D+00
   302  3.0100000000000D+00  0.0000000000000D+00  0.0000000000000D+00
   303  3.0200000000000D+00  0.0000000000000D+00  0.0000000000000D+00
   304  3.0300000000000D+00  0.0000000000000D+00  0.0000000000000D+00
   305  3.0400000000000D+00  0.0000000000000D+00  0.0000000000000D+00
   306  3.0500000000000D+00  0.0000000000000D+00  0.0000000000000D+00
   307  3.0600000000000D+00  0.0000000000000D+00  0.0000000000000D+00
   308  3.0700000000000D+00  0.0000000000000D+00  0.0000000000000D+00
   309  3.0800000000000D+00  0.0000000000000D+00  0.0000000000000D+00
   310  3.0900000000000D+00  0.0000000000000D+00  0.0000000000000D+00
   311  3.1000000000000D+00  0.0000000000000D+00  0.0000000000000D+00
   312  3.1100000000000D+00  0.0000000000000D+00  0.0000000000000D+00
   313  3.1200000000000D+00  0.0000000000000D+00  0.0000000000000D+00
   314  3.1300000000000D+00  0.0000000000000D+00  0.0000000000000D+00
   315  3.1400000000000D+00  0.0000000000000D+00  0.0000000000000D+00
   316  3.1500000000000D+00  0.0000000000000D+00  0.0000000000000D+00
   317  3.1600000000000D+00  0.0000000000000D+00  0.0000000000000D+00
   318  3.1700000000000D+00  0.0000000000000D+00  0.0000000000000D+00
   319  3.1800000000000D+00  0.0000000000000D+00  0.0000000000000D+00
   320  3.1900000000000D+00  0.0000000000000D+00  0.0000000000000D+00
   321  3.2000000000000D+00  0.0000000000000D+00  0.0000000000000D+00
   322  3.2100000000000D+00  0.0000000000000D+00  0.0000000000000D+00
   323  3.2200000000000D+00  0.0000000000000D+00  0.0000000000000D+00
   324  3.2300000000000D+00  0.0000000000000D+00  0.0000000000000D+00
   325  3.2400000000000D+00  0.0000000000000D+00  0.0000000000000D+00
   326  3.2500000000000D+00  0.0000000000000D+00  0.0000000000000D+00
   327  3.2600000000000D+00  0.0000000000000D+00  0.0000000000000D+00
   328  3.2700000000000D+00  0.0000000000000D+00  0.0000000000000D+00
   329  3.2800000000000D+00  0.0000000000000D+00  0.0000000000000D+00
   330  3.2900000000000D+00  0.0000000000000D+00  0.0000000000000D+00
   331  3.3000000000000D+00  0.0000000000000D+00  0.0000000000000D+00
   332  3.3100000000000D+00  0.0000000000000D+00  0.0000000000000D+00
   333  3.3200000000000D+00  0.0000000000000D+00  0.0000000000000D+00
   334  3.3300000000000D+00  0.0000000000000D+00  0.0000000000000D+00
   335  3.3400000000000D+00  0.0000000000000D+00  0.0000000000000D+00
   336  3.3500000000000D+00  0.0000000000000D+00  0.0000000000000D+00
   337  3.3600000000000D+00  0.0000000000000D+00  0.0000000000000D+00
   338  3.3700000000000D+00  0.0000000000000D+00  0.0000000000000D+00
   339  3.3800000000000D+00  0.0000000000000D+00  0.0000000000000D+00
   340  3.3900000000000D+00  0.0000000000000D+00  0.0000000000000D+00
   341  3.4000000000000D+00  0.0000000000000D+00  0.0000000000000D+00
   342  3.4100000000000D+00  0.0000000000000D+00  0.0000000000000D+00
   343  3.4200000000000D+00  0.0000000000000D+00  0.0000000000000D+00
   344  3.4300000000000D+00  0.0000000000000D+00  0.0000000000000D+00
   345  3.4400000000000D+00  0.0000000000000D+00  0.0000000000000D+00
   346  3.4500000000000D+00  0.0000000000000D+00  0.0000000000000D+00
   347  3.4600000000000D+00  0.0000000000000D+00  0.0000000000000D+00
   348  3.4700000000000D+00  0.0000000000000D+00  0.0000000000000D+00
   349  3.4800000000000D+00  0.0000000000000D+00  0.0000000000000D+00
   350  3.4900000000000D+00  0.0000000000000D+00  0.0000000000000D+00
   351  3.5000000000000D+00  0.0000000000000D+00  0.0000000000000D+00
   352  3.5100000000000D+00  0.0000000000000D+00  0.0000000000000D+00
   353  3.5200000000000D+00  0.0000000000000D+00  0.0000000000000D+00
   354  3.5300000000000D+00  0.0000000000000D+00  0.0000000000000D+00
   355  3.5400000000000D+00  0.0000000000000D+00  0.0000000000000D+00
   356  3.5500000000000D+00  0.0000000000000D+00  0.0000000000000D+00
   357  3.5600000000000D+00  0.0000000000000D+00  0.0000000000000D+00
   358  3.5700000000000D+00  0.0000000000000D+00  0.0000000000000D+00
   359  3.5800000000000D+00  0.0000000000000D+00  0.0000000000000D+00
   360  3.5900000000000D+00  0.0000000000000D+00  0.0000000000000D+00
   361  3.6000000000000D+00  0.0000000000000D+00  0.0000000000000D+00
   362  3.6100000000000D+00  0.0000000000000D+00  0.0000000000000D+00
   363  3.6200000000000D+00  0.0000000000000D+00  0.0000000000000D+00
   364  3.6300000000000D+00  0.0000000000000D+00  0.0000000000000D+00
   365  3.6400000000000D+00  0.0000000000000D+00  0.0000000000000D+00
   366  3.6500000000000D+00  0.0000000000000D+00  0.0000000000000D+00
   367  3.6600000000000D+00  0.0000000000000D+00  0.0000000000000D+00
   368  3.6700000000000D+00  0.0000000000000D+00  0.0000000000000D+00
   369  3.6800000000000D+00  0.0000000000000D+00  0.0000000000000D+00
   370  3.6900000000000D+00  0.0000000000000D+00  0.0000000000000D+00
   371  3.7000000000000D+00  0.0000000000000D+00  0.0000000000000D+00
   372  3.7100000000000D+00  0.0000000000000D+00  0.0000000000000D+00
   373  3.7200000000000D+00  0.0000000000000D+00  0.0000000000000D+00
   374  3.7300000000000D+00  0.0000000000000D+00  0.0000000000000D+00
   375  3.7400000000000D+00  0.0000000000000D+00  0.0000000000000D+00
   376  3.7500000000000D+00  0.0000000000000D+00  0.0000000000000D+00
   377  3.7600000000000D+00  0.0000000000000D+00  0.0000000000000D+00
   378  3.7700000000000D+00  0.0000000000000D+00  0.0000000000000D+00
   379  3.7800000000000D+00  0.0000000000000D+00  0.0000000000000D+00
   380  3.7900000000000D+00  0.0000000000000D+00  0.0000000000000D+00
   381  3.8000000000000D+00  0.0000000000000D+00  0.0000000000000D+00
   382  3.8100000000000D+00  0.0000000000000D+00  0.0000000000000D+00
   383  3.8200000000000D+00  0.0000000000000D+00  0.0000000000000D+00
   384  3.8300000000000D+00  0.0000000000000D+00  0.0000000000000D+00
   385  3.8400000000000D+00  0.0000000000000D+00  0.0000000000000D+00
   386  3.8500000000000D+00  0.0000000000000D+00  0.0000000000000D+00
   387  3.8600000000000D+00  0.0000000000000D+00  0.0000000000000D+00
   388  3.8700000000000D+00  0.0000000000000D+00  0.0000000000000D+00
   389  3.8800000000000D+00  0.0000000000000D+00  0.0000000000000D+00
   390  3.8900000000000D+00  0.0000000000000D+00  0.0000000000000D+00
   391  3.9000000000000D+00  0.0000000000000D+00  0.0000000000000D+00
   392  3.9100000000000D+00  0.0000000000000D+00  0.0000000000000D+00
   393  3.9200000000000D+00  0.0000000000000D+00  0.0000000000000D+00
   394  3.9300000000000D+00  0.0000000000000D+00  0.0000000000000D+00
   395  3.9400000000000D+00  0.0000000000000D+00  0.0000000000000D+00
   396  3.9500000000000D+00  0.0000000000000D+00  0.0000000000000D+00
   397  3.9600000000000D+00  0.0000000000000D+00  0.0000000000000D+00
   398  3.9700000000000D+00  0.0000000000000D+00  0.0000000000000D+00
   399  3.9800000000000D+00  0.0000000000000D+00  0.0000000000000D+00
   400  3.9900000000000D+00  0.0000000000000D+00  0.0000000000000D+00
   401  4.0000000000000D+00  0.0000000000000D+00  0.0000000000000D+00
   402  4.0100000000000D+00  0.0000000000000D+00  0.0000000000000D+00
   403  4.0200000000000D+00  0.0000000000000D+00  0.0000000000000D+00
   404  4.0300000000000D+00  0.0000000000000D+00  0.0000000000000D+00
   405  4.0400000000000D+00  0.0000000000000D+00  0.0000000000000D+00
   406  4.0500000000000D+00  0.0000000000000D+00  0.0000000000000D+00
   407  4.0600000000000D+00  0.0000000000000D+00  0.0000000000000D+00
   408  4.0700000000000D+00  0.0000000000000D+00  0.0000000000000D+00
   409  4.0800000000000D+00  0.0000000000000D+00  0.0000000000000D+00
   410  4.0900000000000D+00  0.0000000000000D+00  0.0000000000000D+00
   411  4.1000000000000D+00  0.0000000000000D+00  0.0000000000000D+00
   412  4.1100000000000D+00  0.0000000000000D+00  0.0000000000000D+00
   413  4.1200000000000D+00  0.0000000000000D+00  0.0000000000000D+00
   414  4.1300000000000D+00  0.0000000000000D+00  0.0000000000000D+00
   415  4.1400000000000D+00  0.0000000000000D+00  0.0000000000000D+00
   416  4.1500000000000D+00  0.0000000000000D+00  0.0000000000000D+00
   417  4.1600000000000D+00  0.0000000000000D+00  0.0000000000000D+00
   418  4.1700000000000D+00  0.0000000000000D+00  0.0000000000000D+00
   419  4.1800000000000D+00  0.0000000000000D+00  0.0000000000000D+00
   420  4.1900000000000D+00  0.0000000000000D+00  0.0000000000000D+00
   421  4.2000000000000D+00  0.0000000000000D+00  0.0000000000000D+00
   422  4.2100000000000D+00  0.0000000000000D+00  0.0000000000000D+00