He    ONCVPSP-3.3.1  r_core=   2.01394
      2.0000      2.0000      210905    zatom,zion,pspd
     8 -116133   0     4   600     0    pspcod,pspxc,lmax,lloc,mmax,r2well
  5.99000000  0.00000000  0.00000000    rchrg fchrg qchrg
     2     0     0     0     0    nproj
     1     1           extension_switch
   0                        -1.7471820230675D+00 -6.3239413757262D-01
     1  0.0000000000000D+00  8.0333406593525D-11 -9.3126437117341D-11
     2  1.0000000000000D-02  5.3513179575268D-02 -1.1723513899317D-02
     3  2.0000000000000D-02  1.0697910871058D-01 -2.3408486581532D-02
     4  3.0000000000000D-02  1.6035031411855D-01 -3.5016193773887D-02
     5  4.0000000000000D-02  2.1357887948789D-01 -4.6507547920635D-02
     6  5.0000000000000D-02  2.6661623062843D-01 -5.7842923588680D-02
     7  6.0000000000000D-02  3.1941292854746D-01 -6.8981991263635D-02
     8  7.0000000000000D-02  3.7191847300646D-01 -7.9883562223357D-02
     9  8.0000000000000D-02  4.2408111902687D-01 -9.0505447082875D-02
    10  9.0000000000000D-02  4.7584770871436D-01 -1.0080433048943D-01
    11  1.0000000000000D-01  5.2716352065281D-01 -1.1073566430986D-01
    12  1.1000000000000D-01  5.7797213898408D-01 -1.2025358149557D-01
    13  1.2000000000000D-01  6.2821534413721D-01 -1.2931083263426D-01
    14  1.3000000000000D-01  6.7783302700281D-01 -1.3785874700317D-01
    15  1.4000000000000D-01  7.2676312816605D-01 -1.4584721972765D-01
    16  1.5000000000000D-01  7.7494160361550D-01 -1.5322472642248D-01
    17  1.6000000000000D-01  8.2230241813750D-01 -1.5993836645335D-01
    18  1.7000000000000D-01  8.6877756738712D-01 -1.6593393570381D-01
    19  1.8000000000000D-01  9.1429712939926D-01 -1.7115602947081D-01
    20  1.9000000000000D-01  9.5878934606814D-01 -1.7554817584105D-01
    21  2.0000000000000D-01  1.0021807348826D+00 -1.7905299962347D-01
    22  2.1000000000000D-01  1.0443962309593D+00 -1.8161241663149D-01
    23  2.2000000000000D-01  1.0853593591671D+00 -1.8316785782480D-01
    24  2.3000000000000D-01  1.1249924358900D+00 -1.8366052253612D-01
    25  2.4000000000000D-01  1.1632167997233D+00 -1.8303165972621D-01
    26  2.5000000000000D-01  1.1999530701590D+00 -1.8122287593178D-01
    27  2.6000000000000D-01  1.2351214330698D+00 -1.7817646829864D-01
    28  2.7000000000000D-01  1.2686419515711D+00 -1.7383578082860D-01
    29  2.8000000000000D-01  1.3004349006120D+00 -1.6814558171411D-01
    30  2.9000000000000D-01  1.3304211234294D+00 -1.6105245939401D-01
    31  3.0000000000000D-01  1.3585224077956D+00 -1.5250523473544D-01
    32  3.1000000000000D-01  1.3846618797934D+00 -1.4245538653663D-01
    33  3.2000000000000D-01  1.4087644126791D+00 -1.3085748735169D-01
    34  3.3000000000000D-01  1.4307570482259D+00 -1.1766964646499D-01
    35  3.4000000000000D-01  1.4505694277980D+00 -1.0285395669051D-01
    36  3.5000000000000D-01  1.4681342302762D+00 -8.6376941541717D-02
    37  3.6000000000000D-01  1.4833876138468D+00 -6.8209999211835D-02
    38  3.7000000000000D-01  1.4962696585786D+00 -4.8329839723572D-02
    39  3.8000000000000D-01  1.5067248066455D+00 -2.6718911552808D-02
    40  3.9000000000000D-01  1.5147022970026D+00 -3.3658140028076D-03
    41  4.0000000000000D-01  1.5201565913062D+00  2.1734308395023D-02
    42  4.1000000000000D-01  1.5230477878614D+00  4.8579393150454D-02
    43  4.2000000000000D-01  1.5233420204062D+00  7.7160112395248D-02
    44  4.3000000000000D-01  1.5210118385822D+00  1.0745955433366D-01
    45  4.4000000000000D-01  1.5160365670131D+00  1.3945293701015D-01
    46  4.5000000000000D-01  1.5084026399962D+00  1.7310735770340D-01
    47  4.6000000000000D-01  1.4981039089294D+00  2.0838158109154D-01
    48  4.7000000000000D-01  1.4851419197220D+00  2.4522586914280D-01
    49  4.8000000000000D-01  1.4695261575969D+00  2.8358185547136D-01
    50  4.9000000000000D-01  1.4512742568596D+00  3.2338246665989D-01
    51  5.0000000000000D-01  1.4304121734028D+00  3.6455189279076D-01
    52  5.1000000000000D-01  1.4069743179219D+00  4.0700560914817D-01
    53  5.2000000000000D-01  1.3810036480423D+00  4.5065045075587D-01
    54  5.3000000000000D-01  1.3525517177953D+00  4.9538474110129D-01
    55  5.4000000000000D-01  1.3216786831319D+00  5.4109847606996D-01
    56  5.5000000000000D-01  1.2884532624244D+00  5.8767356377492D-01
    57  5.6000000000000D-01  1.2529526511751D+00  6.3498412061899D-01
    58  5.7000000000000D-01  1.2152623904319D+00  6.8289682357356D-01
    59  5.8000000000000D-01  1.1754761886889D+00  7.3127131830122D-01
    60  5.9000000000000D-01  1.1336956973386D+00  7.7996068239133D-01
    61  6.0000000000000D-01  1.0900302400267D+00  8.2881194262270D-01
    62  6.1000000000000D-01  1.0445964965458D+00  8.7766664481687D-01
    63  6.2000000000000D-01  9.9751814218493D-01  9.2636147450379D-01
    64  6.3000000000000D-01  9.4892544372749D-01  9.7472892628925D-01
    65  6.4000000000000D-01  8.9895481355815D-01  1.0225980194968D+00
    66  6.5000000000000D-01  8.4774832359555D-01  1.0697950573544D+00
    67  6.6000000000000D-01  7.9545318101529D-01  1.1161444267145D+00
    68  6.7000000000000D-01  7.4222116795754D-01  1.1614694350345D+00
    69  6.8000000000000D-01  6.8820804763110D-01  1.2055931811088D+00
    70  6.9000000000000D-01  6.3357293942341D-01  1.2483394558318D+00
    71  7.0000000000000D-01  5.7847766580606D-01  1.2895336690889D+00
    72  7.1000000000000D-01  5.2308607398339D-01  1.3290037987214D+00
    73  7.2000000000000D-01  4.6756333536958D-01  1.3665813573866D+00
    74  7.3000000000000D-01  4.1207522609266D-01  1.4021023730507D+00
    75  7.4000000000000D-01  3.5678739181430D-01  1.4354083787951D+00
    76  7.5000000000000D-01  3.0186460021835D-01  1.4663474075975D+00
    77  7.6000000000000D-01  2.4746998456138D-01  1.4947749877661D+00
    78  7.7000000000000D-01  1.9376428169135D-01  1.5205551347560D+00
    79  7.8000000000000D-01  1.4090506792862D-01  1.5435613351843D+00
    80  7.9000000000000D-01  8.9045996164714D-02  1.5636775189805D+00
    81  8.0000000000000D-01  3.8336037470300D-02  1.5807990157665D+00
    82  8.1000000000000D-01 -1.1081269585625D-02  1.5948334917502D+00
    83  8.2000000000000D-01 -5.9068558817602D-02  1.6057018636351D+00
    84  8.3000000000000D-01 -1.0549536255644D-01  1.6133391863028D+00
    85  8.4000000000000D-01 -1.5023882124325D-01  1.6176955113035D+00
    86  8.5000000000000D-01 -1.9318437387677D-01  1.6187367134960D+00
    87  8.6000000000000D-01 -2.3422642690796D-01  1.6164452835085D+00
    88  8.7000000000000D-01 -2.7326899954714D-01  1.6108210851635D+00
    89  8.8000000000000D-01 -3.1022634365585D-01  1.6018820757528D+00
    90  8.9000000000000D-01 -3.4502352682233D-01  1.5896649258101D+00
    91  9.0000000000000D-01 -3.7759702945586D-01  1.5742258999283D+00
    92  9.1000000000000D-01 -4.0789491251438D-01  1.5556388102053D+00
    93  9.2000000000000D-01 -4.3587638818150D-01  1.5339900437581D+00
    94  9.3000000000000D-01 -4.6151143503831D-01  1.5093758015410D+00
    95  9.4000000000000D-01 -4.8478067484169D-01  1.4819020099825D+00
    96  9.5000000000000D-01 -5.0567517103679D-01  1.4516838582313D+00
    97  9.6000000000000D-01 -5.2419619160949D-01  1.4188453524956D+00
    98  9.7000000000000D-01 -5.4035493160787D-01  1.3835188230690D+00
    99  9.8000000000000D-01 -5.5417219674609D-01  1.3458443858071D+00
   100  9.9000000000000D-01 -5.6567805015707D-01  1.3059693621183D+00
   101  1.0000000000000D+00 -5.7491142439153D-01  1.2640476605210D+00
   102  1.0100000000000D+00 -5.8191970093087D-01  1.2202391230591D+00
   103  1.0200000000000D+00 -5.8675825963786D-01  1.1747088400994D+00
   104  1.0300000000000D+00 -5.8949000071338D-01  1.1276264372423D+00
   105  1.0400000000000D+00 -5.9018484185775D-01  1.0791653382700D+00
   106  1.0500000000000D+00 -5.8891919344221D-01  1.0295020082009D+00
   107  1.0600000000000D+00 -5.8577541460210D-01  9.7881518067438D-01
   108  1.0700000000000D+00 -5.8084125323570D-01  9.2728507398074D-01
   109  1.0800000000000D+00 -5.7420927295912D-01  8.7509260014506D-01
   110  1.0900000000000D+00 -5.6597627011178D-01  8.2241857152210D-01
   111  1.1000000000000D+00 -5.5624268393448D-01  7.6944290939049D-01
   112  1.1100000000000D+00 -5.4511200304380D-01  7.1634385899883D-01
   113  1.1200000000000D+00 -5.3269017134201D-01  6.6329721557432D-01
   114  1.1300000000000D+00 -5.1908499645997D-01  6.1047556570367D-01
   115  1.1400000000000D+00 -5.0440556361848D-01  5.5804754782734D-01
   116  1.1500000000000D+00 -4.8876165824876D-01  5.0617713723610D-01
   117  1.1600000000000D+00 -4.7226320007374D-01  4.5502295889928D-01
   118  1.1700000000000D+00 -4.5501969133930D-01  4.0473763160838D-01
   119  1.1800000000000D+00 -4.3713968168274D-01  3.5546714649928D-01
   120  1.1900000000000D+00 -4.1873025291338D-01  3.0735028565121D-01
   121  1.2000000000000D+00 -3.9989652586056D-01  2.6051808311089D-01
   122  1.2100000000000D+00 -3.8074119116981D-01  2.1509333002640D-01
   123  1.2200000000000D+00 -3.6136406630128D-01  1.7119012711188D-01
   124  1.2300000000000D+00 -3.4186168078795D-01  1.2891348724036D-01
   125  1.2400000000000D+00 -3.2232689156020D-01  8.8358990497236D-02
   126  1.2500000000000D+00 -3.0284852962776D-01  4.9612492563834D-02
   127  1.2600000000000D+00 -2.8351107953475D-01  1.2749888222560D-02
   128  1.2700000000000D+00 -2.6439439264622D-01 -2.2163069083631D-02
   129  1.2800000000000D+00 -2.4557343526213D-01 -5.5070890819043D-02
   130  1.2900000000000D+00 -2.2711807212042D-01 -8.5928419890478D-02
   131  1.3000000000000D+00 -2.0909288568461D-01 -1.1470084026819D-01
   132  1.3100000000000D+00 -1.9155703161728D-01 -1.4136362980502D-01
   133  1.3200000000000D+00 -1.7456413024948D-01 -1.6590245730872D-01
   134  1.3300000000000D+00 -1.5816219383427D-01 -1.8831302494973D-01
   135  1.3400000000000D+00 -1.4239358930400D-01 -2.0860085720437D-01
   136  1.3500000000000D+00 -1.2729503564638D-01 -2.2678103847690D-01
   137  1.3600000000000D+00 -1.1289763516506D-01 -2.4287790130233D-01
   138  1.3700000000000D+00 -9.9226937611792D-02 -2.5692466747579D-01
   139  1.3800000000000D+00 -8.6303035737137D-02 -2.6896304511145D-01
   140  1.3900000000000D+00 -7.4140691092384D-02 -2.7904278420717D-01
   141  1.4000000000000D+00 -6.2749488304593D-02 -2.8722119421262D-01
   142  1.4100000000000D+00 -5.2134016092485D-02 -2.9356262700122D-01
   143  1.4200000000000D+00 -4.2294073292079D-02 -2.9813792868079D-01
   144  1.4300000000000D+00 -3.3224897627348D-02 -3.0102386439607D-01
   145  1.4400000000000D+00 -2.4917415346801D-02 -3.0230251975478D-01
   146  1.4500000000000D+00 -1.7358509335002D-02 -3.0206068320484D-01
   147  1.4600000000000D+00 -1.0531303465787D-02 -3.0038921341819D-01
   148  1.4700000000000D+00 -4.4154608535024D-03 -2.9738239597266D-01
   149  1.4800000000000D+00  1.0125064709053D-03 -2.9313729358356D-01
   150  1.4900000000000D+00  5.7789188280829D-03 -2.8775309422468D-01
   151  1.5000000000000D+00  9.9126036066928D-03 -2.8133046133304D-01
   152  1.5100000000000D+00  1.3444565825783D-02 -2.7397089034186D-01
   153  1.5200000000000D+00  1.6407657037875D-02 -2.6577607575036D-01
   154  1.5300000000000D+00  1.8836244811721D-02 -2.5684729247081D-01
   155  1.5400000000000D+00  2.0765885392552D-02 -2.4728479590546D-01
   156  1.5500000000000D+00  2.2233001364086D-02 -2.3718724354657D-01
   157  1.5600000000000D+00  2.3274567099390D-02 -2.2665114292779D-01
   158  1.5700000000000D+00  2.3927803311690D-02 -2.1577032766084D-01
   159  1.5800000000000D+00  2.4229883512170D-02 -2.0463546638082D-01
   160  1.5900000000000D+00  2.4217653361228D-02 -1.9333360571438D-01
   161  1.6000000000000D+00  2.3927365390983D-02 -1.8194775139325D-01
   162  1.6100000000000D+00  2.3394429988859D-02 -1.7055648847128D-01
   163  1.6200000000000D+00  2.2653184551592D-02 -1.5923364363138D-01
   164  1.6300000000000D+00  2.1736681688929D-02 -1.4804799054018D-01
   165  1.6400000000000D+00  2.0676497712436D-02 -1.3706299993707D-01
   166  1.6500000000000D+00  1.9502562290259D-02 -1.2633663542549D-01
   167  1.6600000000000D+00  1.8243009801026D-02 -1.1592119533251D-01
   168  1.6700000000000D+00  1.6924053226971D-02 -1.0586320152593D-01
   169  1.6800000000000D+00  1.5569880464176D-02 -9.6203334347850D-02
   170  1.6900000000000D+00  1.4202573755829D-02 -8.6976414297555D-02
   171  1.7000000000000D+00  1.2842051587193D-02 -7.8211428648576D-02
   172  1.7100000000000D+00  1.1506033479112D-02 -6.9931603130045D-02
   173  1.7200000000000D+00  1.0210026651635D-02 -6.2154516209065D-02
   174  1.7300000000000D+00  8.9673345657903D-03 -5.4892255318984D-02
   175  1.7400000000000D+00  7.7890861536542D-03 -4.8151612298004D-02
   176  1.7500000000000D+00  6.6842851587157D-03 -4.1934316331112D-02
   177  1.7600000000000D+00  5.6598784395237D-03 -3.6237301746841D-02
   178  1.7700000000000D+00  4.7208419581904D-03 -3.1053007735339D-02
   179  1.7800000000000D+00  3.8702835028516D-03 -2.6369707676469D-02
   180  1.7900000000000D+00  3.1095601482238D-03 -2.2171863936197D-02
   181  1.8000000000000D+00  2.4384097384245D-03 -1.8440506182063D-02
   182  1.8100000000000D+00  1.8550938238340D-03 -1.5153628196600D-02
   183  1.8200000000000D+00  1.3565514283617D-03 -1.2286601279797D-02
   184  1.8300000000000D+00  9.3856087261357D-04 -9.8125990807275D-03
   185  1.8400000000000D+00  5.9590874803467D-04 -7.7030312558298D-03
   186  1.8500000000000D+00  3.2256365481337D-04 -5.9279817570775D-03
   187  1.8600000000000D+00  1.1185302873464D-04 -4.4566476275888D-03
   188  1.8700000000000D+00 -4.3358492953811D-05 -3.2577757325123D-03
   189  1.8800000000000D+00 -1.5049160895355D-04 -2.3000920360156D-03
   190  1.8900000000000D+00 -2.1707679732261D-04 -1.5527216831352D-03
   191  1.9000000000000D+00 -2.5058306986631D-04 -9.8559493154141D-04
   192  1.9100000000000D+00 -2.5825250960514D-04 -5.6983598167736D-04
   193  1.9200000000000D+00 -2.4694158285024D-04 -2.7813286395611D-04
   194  1.9300000000000D+00 -2.2297257748724D-04 -8.5081498115592D-05
   195  1.9400000000000D+00 -1.9199330732800D-04  3.2492073190810D-05
   196  1.9500000000000D+00 -1.5892616184660D-04  9.5375949680156D-05
   197  1.9600000000000D+00 -1.2755883047707D-04  1.2119190532031D-04
   198  1.9700000000000D+00 -1.0032398628826D-04  1.2396285384534D-04
   199  1.9800000000000D+00 -7.9450873463623D-05  1.1609049508347D-04
   200  1.9900000000000D+00 -6.7502345001749D-05  1.0926138866481D-04
   201  2.0000000000000D+00 -6.6143247927165D-05  1.1215506776292D-04
   202  2.0100000000000D+00 -6.2878731527646D-05  1.0766368941281D-04
   203  2.0200000000000D+00 -4.5742572092529D-05  7.8211195414750D-05
   204  2.0300000000000D+00 -1.8984108216426D-05  3.2358061008481D-05
   205  2.0400000000000D+00  2.1546017813311D-06 -3.6875762558590D-06
   206  2.0500000000000D+00  6.0867002630867D-06 -1.0407705389212D-05
   207  2.0600000000000D+00  1.5930530790096D-06 -2.7214793236426D-06
   208  2.0700000000000D+00 -1.2210813560037D-06  2.1052065276949D-06
   209  2.0800000000000D+00 -1.0326727945206D-06  1.7810739526186D-06
   210  2.0900000000000D+00  6.3772069073798D-08 -1.0915446219533D-07
   211  2.1000000000000D+00  1.6640934456076D-07 -2.8483194560908D-07
   212  2.1100000000000D+00  4.6005210745826D-08 -7.8744097691610D-08
   213  2.1200000000000D+00  0.0000000000000D+00  0.0000000000000D+00
   214  2.1300000000000D+00  0.0000000000000D+00  0.0000000000000D+00
   215  2.1400000000000D+00  0.0000000000000D+00  0.0000000000000D+00
   216  2.1500000000000D+00  0.0000000000000D+00  0.0000000000000D+00
   217  2.1600000000000D+00  0.0000000000000D+00  0.0000000000000D+00
   218  2.1700000000000D+00  0.0000000000000D+00  0.0000000000000D+00
   219  2.1800000000000D+00  0.0000000000000D+00  0.0000000000000D+00
   220  2.1900000000000D+00  0.0000000000000D+00  0.0000000000000D+00
   221  2.2000000000000D+00  0.0000000000000D+00  0.0000000000000D+00
   222  2.2100000000000D+00  0.0000000000000D+00  0.0000000000000D+00
   223  2.2200000000000D+00  0.0000000000000D+00  0.0000000000000D+00
   224  2.2300000000000D+00  0.0000000000000D+00  0.0000000000000D+00
   225  2.2400000000000D+00  0.0000000000000D+00  0.0000000000000D+00
   226  2.2500000000000D+00  0.0000000000000D+00  0.0000000000000D+00
   227  2.2600000000000D+00  0.0000000000000D+00  0.0000000000000D+00
   228  2.2700000000000D+00  0.0000000000000D+00  0.0000000000000D+00
   229  2.2800000000000D+00  0.0000000000000D+00  0.0000000000000D+00
   230  2.2900000000000D+00  0.0000000000000D+00  0.0000000000000D+00
   231  2.3000000000000D+00  0.0000000000000D+00  0.0000000000000D+00
   232  2.3100000000000D+00  0.0000000000000D+00  0.0000000000000D+00
   233  2.3200000000000D+00  0.0000000000000D+00  0.0000000000000D+00
   234  2.3300000000000D+00  0.0000000000000D+00  0.0000000000000D+00
   235  2.3400000000000D+00  0.0000000000000D+00  0.0000000000000D+00
   236  2.3500000000000D+00  0.0000000000000D+00  0.0000000000000D+00
   237  2.3600000000000D+00  0.0000000000000D+00  0.0000000000000D+00
   238  2.3700000000000D+00  0.0000000000000D+00  0.0000000000000D+00
   239  2.3800000000000D+00  0.0000000000000D+00  0.0000000000000D+00
   240  2.3900000000000D+00  0.0000000000000D+00  0.0000000000000D+00
   241  2.4000000000000D+00  0.0000000000000D+00  0.0000000000000D+00
   242  2.4100000000000D+00  0.0000000000000D+00  0.0000000000000D+00
   243  2.4200000000000D+00  0.0000000000000D+00  0.0000000000000D+00
   244  2.4300000000000D+00  0.0000000000000D+00  0.0000000000000D+00
   245  2.4400000000000D+00  0.0000000000000D+00  0.0000000000000D+00
   246  2.4500000000000D+00  0.0000000000000D+00  0.0000000000000D+00
   247  2.4600000000000D+00  0.0000000000000D+00  0.0000000000000D+00
   248  2.4700000000000D+00  0.0000000000000D+00  0.0000000000000D+00
   249  2.4800000000000D+00  0.0000000000000D+00  0.0000000000000D+00
   250  2.4900000000000D+00  0.0000000000000D+00  0.0000000000000D+00
   251  2.5000000000000D+00  0.0000000000000D+00  0.0000000000000D+00
   252  2.5100000000000D+00  0.0000000000000D+00  0.0000000000000D+00
   253  2.5200000000000D+00  0.0000000000000D+00  0.0000000000000D+00
   254  2.5300000000000D+00  0.0000000000000D+00  0.0000000000000D+00
   255  2.5400000000000D+00  0.0000000000000D+00  0.0000000000000D+00
   256  2.5500000000000D+00  0.0000000000000D+00  0.0000000000000D+00
   257  2.5600000000000D+00  0.0000000000000D+00  0.0000000000000D+00
   258  2.5700000000000D+00  0.0000000000000D+00  0.0000000000000D+00
   259  2.5800000000000D+00  0.0000000000000D+00  0.0000000000000D+00
   260  2.5900000000000D+00  0.0000000000000D+00  0.0000000000000D+00
   261  2.6000000000000D+00  0.0000000000000D+00  0.0000000000000D+00
   262  2.6100000000000D+00  0.0000000000000D+00  0.0000000000000D+00
   263  2.6200000000000D+00  0.0000000000000D+00  0.0000000000000D+00
   264  2.6300000000000D+00  0.0000000000000D+00  0.0000000000000D+00
   265  2.6400000000000D+00  0.0000000000000D+00  0.0000000000000D+00
   266  2.6500000000000D+00  0.0000000000000D+00  0.0000000000000D+00
   267  2.6600000000000D+00  0.0000000000000D+00  0.0000000000000D+00
   268  2.6700000000000D+00  0.0000000000000D+00  0.0000000000000D+00
   269  2.6800000000000D+00  0.0000000000000D+00  0.0000000000000D+00
   270  2.6900000000000D+00  0.0000000000000D+00  0.0000000000000D+00
   271  2.7000000000000D+00  0.0000000000000D+00  0.0000000000000D+00
   272  2.7100000000000D+00  0.0000000000000D+00  0.0000000000000D+00
   273  2.7200000000000D+00  0.0000000000000D+00  0.0000000000000D+00
   274  2.7300000000000D+00  0.0000000000000D+00  0.0000000000000D+00
   275  2.7400000000000D+00  0.0000000000000D+00  0.0000000000000D+00
   276  2.7500000000000D+00  0.0000000000000D+00  0.0000000000000D+00
   277  2.7600000000000D+00  0.0000000000000D+00  0.0000000000000D+00
   278  2.7700000000000D+00  0.0000000000000D+00  0.0000000000000D+00
   279  2.7800000000000D+00  0.0000000000000D+00  0.0000000000000D+00
   280  2.7900000000000D+00  0.0000000000000D+00  0.0000000000000D+00
   281  2.8000000000000D+00  0.0000000000000D+00  0.0000000000000D+00
   282  2.8100000000000D+00  0.0000000000000D+00  0.0000000000000D+00
   283  2.8200000000000D+00  0.0000000000000D+00  0.0000000000000D+00
   284  2.8300000000000D+00  0.0000000000000D+00  0.0000000000000D+00
   285  2.8400000000000D+00  0.0000000000000D+00  0.0000000000000D+00
   286  2.8500000000000D+00  0.0000000000000D+00  0.0000000000000D+00
   287  2.8600000000000D+00  0.0000000000000D+00  0.0000000000000D+00
   288  2.8700000000000D+00  0.0000000000000D+00  0.0000000000000D+00
   289  2.8800000000000D+00  0.0000000000000D+00  0.0000000000000D+00
   290  2.8900000000000D+00  0.0000000000000D+00  0.0000000000000D+00
   291  2.9000000000000D+00  0.0000000000000D+00  0.0000000000000D+00
   292  2.9100000000000D+00  0.0000000000000D+00  0.0000000000000D+00
   293  2.9200000000000D+00  0.0000000000000D+00  0.0000000000000D+00
   294  2.9300000000000D+00  0.0000000000000D+00  0.0000000000000D+00
   295  2.9400000000000D+00  0.0000000000000D+00  0.0000000000000D+00
   296  2.9500000000000D+00  0.0000000000000D+00  0.0000000000000D+00
   297  2.9600000000000D+00  0.0000000000000D+00  0.0000000000000D+00
   298  2.9700000000000D+00  0.0000000000000D+00  0.0000000000000D+00
   299  2.9800000000000D+00  0.0000000000000D+00  0.0000000000000D+00
   300  2.9900000000000D+00  0.0000000000000D+00  0.0000000000000D+00
   301  3.0000000000000D+00  0.0000000000000D+00  0.0000000000000D+00
   302  3.0100000000000D+00  0.0000000000000D+00  0.0000000000000D+00
   303  3.0200000000000D+00  0.0000000000000D+00  0.0000000000000D+00
   304  3.0300000000000D+00  0.0000000000000D+00  0.0000000000000D+00
   305  3.0400000000000D+00  0.0000000000000D+00  0.0000000000000D+00
   306  3.0500000000000D+00  0.0000000000000D+00  0.0000000000000D+00
   307  3.0600000000000D+00  0.0000000000000D+00  0.0000000000000D+00
   308  3.0700000000000D+00  0.0000000000000D+00  0.0000000000000D+00
   309  3.0800000000000D+00  0.0000000000000D+00  0.0000000000000D+00
   310  3.0900000000000D+00  0.0000000000000D+00  0.0000000000000D+00
   311  3.1000000000000D+00  0.0000000000000D+00  0.0000000000000D+00
   312  3.1100000000000D+00  0.0000000000000D+00  0.0000000000000D+00
   313  3.1200000000000D+00  0.0000000000000D+00  0.0000000000000D+00
   314  3.1300000000000D+00  0.0000000000000D+00  0.0000000000000D+00
   315  3.1400000000000D+00  0.0000000000000D+00  0.0000000000000D+00
   316  3.1500000000000D+00  0.0000000000000D+00  0.0000000000000D+00
   317  3.1600000000000D+00  0.0000000000000D+00  0.0000000000000D+00
   318  3.1700000000000D+00  0.0000000000000D+00  0.0000000000000D+00
   319  3.1800000000000D+00  0.0000000000000D+00  0.0000000000000D+00
   320  3.1900000000000D+00  0.0000000000000D+00  0.0000000000000D+00
   321  3.2000000000000D+00  0.0000000000000D+00  0.0000000000000D+00
   322  3.2100000000000D+00  0.0000000000000D+00  0.0000000000000D+00
   323  3.2200000000000D+00  0.0000000000000D+00  0.0000000000000D+00
   324  3.2300000000000D+00  0.0000000000000D+00  0.0000000000000D+00
   325  3.2400000000000D+00  0.0000000000000D+00  0.0000000000000D+00
   326  3.2500000000000D+00  0.0000000000000D+00  0.0000000000000D+00
   327  3.2600000000000D+00  0.0000000000000D+00  0.0000000000000D+00
   328  3.2700000000000D+00  0.0000000000000D+00  0.0000000000000D+00
   329  3.2800000000000D+00  0.0000000000000D+00  0.0000000000000D+00
   330  3.2900000000000D+00  0.0000000000000D+00  0.0000000000000D+00
   331  3.3000000000000D+00  0.0000000000000D+00  0.0000000000000D+00
   332  3.3100000000000D+00  0.0000000000000D+00  0.0000000000000D+00
   333  3.3200000000000D+00  0.0000000000000D+00  0.0000000000000D+00
   334  3.3300000000000D+00  0.0000000000000D+00  0.0000000000000D+00
   335  3.3400000000000D+00  0.0000000000000D+00  0.0000000000000D+00
   336  3.3500000000000D+00  0.0000000000000D+00  0.0000000000000D+00
   337  3.3600000000000D+00  0.0000000000000D+00  0.0000000000000D+00
   338  3.3700000000000D+00  0.0000000000000D+00  0.0000000000000D+00
   339  3.3800000000000D+00  0.0000000000000D+00  0.0000000000000D+00
   340  3.3900000000000D+00  0.0000000000000D+00  0.0000000000000D+00
   341  3.4000000000000D+00  0.0000000000000D+00  0.0000000000000D+00
   342  3.4100000000000D+00  0.0000000000000D+00  0.0000000000000D+00
   343  3.4200000000000D+00  0.0000000000000D+00  0.0000000000000D+00
   344  3.4300000000000D+00  0.0000000000000D+00  0.0000000000000D+00
   345  3.4400000000000D+00  0.0000000000000D+00  0.0000000000000D+00
   346  3.4500000000000D+00  0.0000000000000D+00  0.0000000000000D+00
   347  3.4600000000000D+00  0.0000000000000D+00  0.0000000000000D+00
   348  3.4700000000000D+00  0.0000000000000D+00  0.0000000000000D+00
   349  3.4800000000000D+00  0.0000000000000D+00  0.0000000000000D+00
   350  3.4900000000000D+00  0.0000000000000D+00  0.0000000000000D+00
   351  3.5000000000000D+00  0.0000000000000D+00  0.0000000000000D+00
   352  3.5100000000000D+00  0.0000000000000D+00  0.0000000000000D+00
   353  3.5200000000000D+00  0.0000000000000D+00  0.0000000000000D+00
   354  3.5300000000000D+00  0.0000000000000D+00  0.0000000000000D+00
   355  3.5400000000000D+00  0.0000000000000D+00  0.0000000000000D+00
   356  3.5500000000000D+00  0.0000000000000D+00  0.0000000000000D+00
   357  3.5600000000000D+00  0.0000000000000D+00  0.0000000000000D+00
   358  3.5700000000000D+00  0.0000000000000D+00  0.0000000000000D+00
   359  3.5800000000000D+00  0.0000000000000D+00  0.0000000000000D+00
   360  3.5900000000000D+00  0.0000000000000D+00  0.0000000000000D+00
   361  3.6000000000000D+00  0.0000000000000D+00  0.0000000000000D+00
   362  3.6100000000000D+00  0.0000000000000D+00  0.0000000000000D+00
   363  3.6200000000000D+00  0.0000000000000D+00  0.0000000000000D+00
   364  3.6300000000000D+00  0.0000000000000D+00  0.0000000000000D+00
   365  3.6400000000000D+00  0.0000000000000D+00  0.0000000000000D+00
   366  3.6500000000000D+00  0.0000000000000D+00  0.0000000000000D+00
   367  3.6600000000000D+00  0.0000000000000D+00  0.0000000000000D+00
   368  3.6700000000000D+00  0.0000000000000D+00  0.0000000000000D+00
   369  3.6800000000000D+00  0.0000000000000D+00  0.0000000000000D+00
   370  3.6900000000000D+00  0.0000000000000D+00  0.0000000000000D+00
   371  3.7000000000000D+00  0.0000000000000D+00  0.0000000000000D+00
   372  3.7100000000000D+00  0.0000000000000D+00  0.0000000000000D+00
   373  3.7200000000000D+00  0.0000000000000D+00  0.0000000000000D+00
   374  3.7300000000000D+00  0.0000000000000D+00  0.0000000000000D+00
   375  3.7400000000000D+00  0.0000000000000D+00  0.0000000000000D+00
   376  3.7500000000000D+00  0.0000000000000D+00  0.0000000000000D+00
   377  3.7600000000000D+00  0.0000000000000D+00  0.0000000000000D+00
   378  3.7700000000000D+00  0.0000000000000D+00  0.0000000000000D+00
   379  3.7800000000000D+00  0.0000000000000D+00  0.0000000000000D+00
   380  3.7900000000000D+00  0.0000000000000D+00  0.0000000000000D+00
   381  3.8000000000000D+00  0.0000000000000D+00  0.0000000000000D+00
   382  3.8100000000000D+00  0.0000000000000D+00  0.0000000000000D+00
   383  3.8200000000000D+00  0.0000000000000D+00  0.0000000000000D+00
   384  3.8300000000000D+00  0.0000000000000D+00  0.0000000000000D+00
   385  3.8400000000000D+00  0.0000000000000D+00  0.0000000000000D+00
   386  3.8500000000000D+00  0.0000000000000D+00  0.0000000000000D+00
   387  3.8600000000000D+00  0.0000000000000D+00  0.0000000000000D+00
   388  3.8700000000000D+00  0.0000000000000D+00  0.0000000000000D+00
   389  3.8800000000000D+00  0.0000000000000D+00  0.0000000000000D+00
   390  3.8900000000000D+00  0.0000000000000D+00  0.0000000000000D+00
   391  3.9000000000000D+00  0.0000000000000D+00  0.0000000000000D+00
   392  3.9100000000000D+00  0.0000000000000D+00  0.0000000000000D+00
   393  3.9200000000000D+00  0.0000000000000D+00  0.0000000000000D+00
   394  3.9300000000000D+00  0.0000000000000D+00  0.0000000000000D+00
   395  3.9400000000000D+00  0.0000000000000D+00  0.0000000000000D+00
   396  3.9500000000000D+00  0.0000000000000D+00  0.0000000000000D+00
   397  3.9600000000000D+00  0.0000000000000D+00  0.0000000000000D+00
   398  3.9700000000000D+00  0.0000000000000D+00  0.0000000000000D+00
   399  3.9800000000000D+00  0.0000000000000D+00  0.0000000000000D+00
   400  3.9900000000000D+00  0.0000000000000D+00  0.0000000000000D+00
   401  4.0000000000000D+00  0.0000000000000D+00  0.0000000000000D+00
   402  4.0100000000000D+00  0.0000000000000D+00  0.0000000000000D+00
   403  4.0200000000000D+00  0.0000000000000D+00  0.0000000000000D+00
   404  4.0300000000000D+00  0.0000000000000D+00  0.0000000000000D+00
   405  4.0400000000000D+00  0.0000000000000D+00  0.0000000000000D+00
   406  4.0500000000000D+00  0.0000000000000D+00  0.0000000000000D+00
   407  4.0600000000000D+00  0.0000000000000D+00  0.0000000000000D+00
   408  4.0700000000000D+00  0.0000000000000D+00  0.0000000000000D+00
   409  4.0800000000000D+00  0.0000000000000D+00  0.0000000000000D+00
   410  4.0900000000000D+00  0.0000000000000D+00  0.0000000000000D+00
   411  4.1000000000000D+00  0.0000000000000D+00  0.0000000000000D+00
   412  4.1100000000000D+00  0.0000000000000D+00  0.0000000000000D+00
   413  4.1200000000000D+00  0.0000000000000D+00  0.0000000000000D+00
   414  4.1300000000000D+00  0.0000000000000D+00  0.0000000000000D+00
   415  4.1400000000000D+00  0.0000000000000D+00  0.0000000000000D+00
   416  4.1500000000000D+00  0.0000000000000D+00  0.0000000000000D+00
   417  4.1600000000000D+00  0.0000000000000D+00  0.0000000000000D+00
   418  4.1700000000000D+00  0.0000000000000D+00  0.0000000000000D+00
   419  4.1800000000000D+00  0.0000000000000D+00  0.0000000000000D+00
   420  4.1900000000000D+00  0.0000000000000D+00  0.0000000000000D+00
   421  4.2000000000000D+00  0.0000000000000D+00  0.0000000000000D+00
   422  4.2100000000000D+00  0.0000000000000D+00  0.0000000000000D+00
   423  4.2200000000000D+00  0.0000000000000D+00  0.0000000000000D+00