He    ONCVPSP-3.3.1  r_core=   2.01394
      2.0000      2.0000      210905    zatom,zion,pspd
     8 -116133   0     4   600     0    pspcod,pspxc,lmax,lloc,mmax,r2well
  5.99000000  0.00000000  0.00000000    rchrg fchrg qchrg
     2     0     0     0    nproj
     3     1           extension_switch
     0     0     0    nprojso
   0                        -1.7471814562445D+00 -6.3240387975521D-01
     1  0.0000000000000D+00  8.0370321509093D-11 -9.3168250892006D-11
     2  1.0000000000000D-02  5.3513218899653D-02 -1.1723884658934D-02
     3  2.0000000000000D-02  1.0697918704954D-01 -2.3409225627053D-02
     4  3.0000000000000D-02  1.6035043085420D-01 -3.5017296173067D-02
     5  4.0000000000000D-02  2.1357903369778D-01 -4.6509006312972D-02
     6  5.0000000000000D-02  2.6661642109074D-01 -5.7844728230600D-02
     7  6.0000000000000D-02  3.1941315374789D-01 -6.8984130088324D-02
     8  7.0000000000000D-02  3.7191873114674D-01 -7.9886020914877D-02
     9  8.0000000000000D-02  4.2408140803490D-01 -9.0508209164125D-02
    10  9.0000000000000D-02  4.7584802625582D-01 -1.0080737742345D-01
    11  1.0000000000000D-01  5.2716386414427D-01 -1.1073897561382D-01
    12  1.1000000000000D-01  5.7797250560742D-01 -1.2025713486685D-01
    13  1.2000000000000D-01  6.2821573085534D-01 -1.2931460408779D-01
    14  1.3000000000000D-01  6.7783343057659D-01 -1.3786271101924D-01
    15  1.4000000000000D-01  7.2676354517224D-01 -1.4585134940935D-01
    16  1.5000000000000D-01  7.7494203046566D-01 -1.5322899366170D-01
    17  1.6000000000000D-01  8.2230285109777D-01 -1.5994274210455D-01
    18  1.7000000000000D-01  8.6877800259866D-01 -1.6593838976431D-01
    19  1.8000000000000D-01  9.1429756289932D-01 -1.7116053126665D-01
    20  1.9000000000000D-01  9.5878977381156D-01 -1.7555269421724D-01
    21  2.0000000000000D-01  1.0021811527636D+00 -1.7905750313754D-01
    22  2.1000000000000D-01  1.0443966348335D+00 -1.8161687374909D-01
    23  2.2000000000000D-01  1.0853597448738D+00 -1.8317223711623D-01
    24  2.3000000000000D-01  1.1249927992735D+00 -1.8366479287257D-01
    25  2.4000000000000D-01  1.1632171366555D+00 -1.8303579047455D-01
    26  2.5000000000000D-01  1.1999533765602D+00 -1.8122683714663D-01
    27  2.6000000000000D-01  1.2351217049298D+00 -1.7818023091071D-01
    28  2.7000000000000D-01  1.2686421849695D+00 -1.7383931682787D-01
    29  2.8000000000000D-01  1.3004350917377D+00 -1.6814886432707D-01
    30  2.9000000000000D-01  1.3304212685995D+00 -1.6105546325352D-01
    31  3.0000000000000D-01  1.3585225034729D+00 -1.5250793604243D-01
    32  3.1000000000000D-01  1.3846619226036D+00 -1.4245776321249D-01
    33  3.2000000000000D-01  1.4087643994258D+00 -1.3085951918038D-01
    34  3.3000000000000D-01  1.4307569759055D+00 -1.1767131522409D-01
    35  3.4000000000000D-01  1.4505692936123D+00 -1.0285524627027D-01
    36  3.5000000000000D-01  1.4681340316443D+00 -8.6377838051373D-02
    37  3.6000000000000D-01  1.4833873484151D+00 -6.8210491072522D-02
    38  3.7000000000000D-01  1.4962693242300D+00 -4.8329917747212D-02
    39  3.8000000000000D-01  1.5067244015061D+00 -2.6718569006475D-02
    40  3.9000000000000D-01  1.5147018194477D+00 -3.3650466580983D-03
    41  4.0000000000000D-01  1.5201560399643D+00  2.1735502227981D-02
    42  4.1000000000000D-01  1.5230471616168D+00  4.8581012604558D-02
    43  4.2000000000000D-01  1.5233413183999D+00  7.7162154043699D-02
    44  4.3000000000000D-01  1.5210110602114D+00  1.0746201220315D-01
    45  4.4000000000000D-01  1.5160357119291D+00  1.3945580260972D-01
    46  4.5000000000000D-01  1.5084017081009D+00  1.7311062006904D-01
    47  4.6000000000000D-01  1.4981029003701D+00  2.0838522684620D-01
    48  4.7000000000000D-01  1.4851408348853D+00  2.4522988257151D-01
    49  4.8000000000000D-01  1.4695249971007D+00  2.8358621861104D-01
    50  4.9000000000000D-01  1.4512730215446D+00  3.2338715940337D-01
    51  5.0000000000000D-01  1.4304108643218D+00  3.6455689300436D-01
    52  5.1000000000000D-01  1.4069729363291D+00  4.0701089280222D-01
    53  5.2000000000000D-01  1.3810021953809D+00  4.5065599206731D-01
    54  5.3000000000000D-01  1.3525501956847D+00  4.9539051268760D-01
    55  5.4000000000000D-01  1.3216770933539D+00  5.4110444911342D-01
    56  5.5000000000000D-01  1.2884516069082D+00  5.8767970819623D-01
    57  5.6000000000000D-01  1.2529509319832D+00  6.3499040525915D-01
    58  5.7000000000000D-01  1.2152606097439D+00  6.8290321638299D-01
    59  5.8000000000000D-01  1.1754743487862D+00  7.3127778653482D-01
    60  5.9000000000000D-01  1.1336938005881D+00  7.7996719280831D-01
    61  6.0000000000000D-01  1.0900282888651D+00  8.2881846168996D-01
    62  6.1000000000000D-01  1.0445944934634D+00  8.7767313891453D-01
    63  6.2000000000000D-01  9.9751608970970D-01  9.2636791013164D-01
    64  6.3000000000000D-01  9.4892334440978D-01  9.7473527027272D-01
    65  6.4000000000000D-01  8.9895266995518D-01  1.0226042391911D+00
    66  6.5000000000000D-01  8.4774613825675D-01  1.0698011208455D+00
    67  6.6000000000000D-01  7.9545095646804D-01  1.1161503030154D+00
    68  6.7000000000000D-01  7.4221890669368D-01  1.1614750942760D+00
    69  6.8000000000000D-01  6.8820575209407D-01  1.2055985947223D+00
    70  6.9000000000000D-01  6.3357061199630D-01  1.2483445967242D+00
    71  7.0000000000000D-01  5.7847530880046D-01  1.2895385118075D+00
    72  7.1000000000000D-01  5.2308368962929D-01  1.3290083196070D+00
    73  7.2000000000000D-01  4.6756092580614D-01  1.3665855347152D+00
    74  7.3000000000000D-01  4.1207279336020D-01  1.4021061871609D+00
    75  7.4000000000000D-01  3.5678493784720D-01  1.4354118122015D+00
    76  7.5000000000000D-01  3.0186212683921D-01  1.4663504450873D+00
    77  7.6000000000000D-01  2.4746749347621D-01  1.4947776164800D+00
    78  7.7000000000000D-01  1.9376177448597D-01  1.5205573442510D+00
    79  7.8000000000000D-01  1.4090254606616D-01  1.5435631174775D+00
    80  7.9000000000000D-01  8.9043460984293D-02  1.5636788685737D+00
    81  8.0000000000000D-01  3.8333490186812D-02  1.5807999296508D+00
    82  8.1000000000000D-01 -1.1083827880628D-02  1.5948339693894D+00
    83  8.2000000000000D-01 -5.9071127153936D-02  1.6057019069274D+00
    84  8.3000000000000D-01 -1.0549794008229D-01  1.6133387995208D+00
    85  8.4000000000000D-01 -1.5024140722114D-01  1.6176947010112D+00
    86  8.5000000000000D-01 -1.9318696767862D-01  1.6187354884430D+00
    87  8.6000000000000D-01 -2.3422902800925D-01  1.6164436545012D+00
    88  8.7000000000000D-01 -2.7327160752013D-01  1.6108190649118D+00
    89  8.8000000000000D-01 -3.1022895816215D-01  1.6018796786937D+00
    90  8.9000000000000D-01 -3.4502614760457D-01  1.5896621679078D+00
    91  9.0000000000000D-01 -3.7759965632897D-01  1.5742227984468D+00
    92  9.1000000000000D-01 -4.0789754535382D-01  1.5556353834974D+00
    93  9.2000000000000D-01 -4.3587902690647D-01  1.5339863111214D+00
    94  9.3000000000000D-01 -4.6151407959307D-01  1.5093717831061D+00
    95  9.4000000000000D-01 -4.8478332517783D-01  1.4818977265969D+00
    96  9.5000000000000D-01 -5.0567782709621D-01  1.4516793313413D+00
    97  9.6000000000000D-01 -5.2419885330822D-01  1.4188406040273D+00
    98  9.7000000000000D-01 -5.4035759882088D-01  1.3835138753085D+00
    99  9.8000000000000D-01 -5.5417486929311D-01  1.3458392612816D+00
   100  9.9000000000000D-01 -5.6568072778958D-01  1.3059640834783D+00
   101  1.0000000000000D+00 -5.7491410678083D-01  1.2640422504235D+00
   102  1.0100000000000D+00 -5.8192238765740D-01  1.2202336040535D+00
   103  1.0200000000000D+00 -5.8676095018185D-01  1.1747032345167D+00
   104  1.0300000000000D+00 -5.8949269444671D-01  1.1276207670875D+00
   105  1.0400000000000D+00 -5.9018753803727D-01  1.0791596251186D+00
   106  1.0500000000000D+00 -5.8892189120434D-01  1.0294962731008D+00
   107  1.0600000000000D+00 -5.8577811295878D-01  9.7880944405204D-01
   108  1.0700000000000D+00 -5.8084395107178D-01  9.2727935555403D-01
   109  1.0800000000000D+00 -5.7421196903113D-01  8.7508691884166D-01
   110  1.0900000000000D+00 -5.6597896304798D-01  8.2241294540469D-01
   111  1.1000000000000D+00 -5.5624537223627D-01  7.6943735558854D-01
   112  1.1100000000000D+00 -5.4511468508864D-01  7.1633839364833D-01
   113  1.1200000000000D+00 -5.3269284538728D-01  6.6329185376394D-01
   114  1.1300000000000D+00 -5.1908766064703D-01  6.1047032142488D-01
   115  1.1400000000000D+00 -5.0440821598230D-01  5.5804243394717D-01
   116  1.1500000000000D+00 -4.8876429672548D-01  5.0617216546673D-01
   117  1.1600000000000D+00 -4.7226582250546D-01  4.5501813976289D-01
   118  1.1700000000000D+00 -4.5502229547895D-01  4.0473297440812D-01
   119  1.1800000000000D+00 -4.3714226521125D-01  3.5546265933448D-01
   120  1.1900000000000D+00 -4.1873281345520D-01  3.0734597543129D-01
   121  1.2000000000000D+00 -3.9989906099199D-01  2.6051395555144D-01
   122  1.2100000000000D+00 -3.8074369842784D-01  2.1508938965326D-01
   123  1.2200000000000D+00 -3.6136654319714D-01  1.7118637728495D-01
   124  1.2300000000000D+00 -3.4186412482317D-01  1.2890993019024D-01
   125  1.2400000000000D+00 -3.2232930023907D-01  8.8355627356135D-02
   126  1.2500000000000D+00 -3.0285090047120D-01  4.9609323406064D-02
   127  1.2600000000000D+00 -2.8351341009451D-01  1.2746912111108D-02
   128  1.2700000000000D+00 -2.6439668051880D-01 -2.2165854046373D-02
   129  1.2800000000000D+00 -2.4557567810269D-01 -5.5073487435852D-02
   130  1.2900000000000D+00 -2.2712026765646D-01 -8.5930831809839D-02
   131  1.3000000000000D+00 -2.0909503172941D-01 -1.1470307192126D-01
   132  1.3100000000000D+00 -1.9155912608288D-01 -1.4136568633973D-01
   133  1.3200000000000D+00 -1.7456617115918D-01 -1.6590434452150D-01
   134  1.3300000000000D+00 -1.5816417933448D-01 -1.8831474921539D-01
   135  1.3400000000000D+00 -1.4239551767553D-01 -2.0860242540456D-01
   136  1.3500000000000D+00 -1.2729690531496D-01 -2.2678245792785D-01
   137  1.3600000000000D+00 -1.1289944471099D-01 -2.4287917968230D-01
   138  1.3700000000000D+00 -9.9228685778702D-02 -2.5692581275293D-01
   139  1.3800000000000D+00 -8.6304721439848D-02 -2.6896406547245D-01
   140  1.3900000000000D+00 -7.4142313423691D-02 -2.7904368798724D-01
   141  1.4000000000000D+00 -6.2751046541042D-02 -2.8722198982723D-01
   142  1.4100000000000D+00 -5.2135509699060D-02 -2.9356332288009D-01
   143  1.4200000000000D+00 -4.2295501925743D-02 -2.9813853320457D-01
   144  1.4300000000000D+00 -3.3226261139419D-02 -3.0102438583617D-01
   145  1.4400000000000D+00 -2.4918713784188D-02 -3.0230296621657D-01
   146  1.4500000000000D+00 -1.7359742940262D-02 -3.0206106257466D-01
   147  1.4600000000000D+00 -1.0532472676004D-02 -3.0038953331442D-01
   148  1.4700000000000D+00 -4.4165662979972D-03 -2.9738266370114D-01
   149  1.4800000000000D+00  1.0114639740069D-03 -2.9313751609753D-01
   150  1.4900000000000D+00  5.7779382764027D-03 -2.8775327808942D-01
   151  1.5000000000000D+00  9.9116838192400D-03 -2.8133061269538D-01
   152  1.5100000000000D+00  1.3443705449655D-02 -2.7397101490463D-01
   153  1.5200000000000D+00  1.6406854555958D-02 -2.6577617875186D-01
   154  1.5300000000000D+00  1.8835498551334D-02 -2.5684737866919D-01
   155  1.5400000000000D+00  2.0765193534975D-02 -2.4728486956813D-01
   156  1.5500000000000D+00  2.2232361954915D-02 -2.3718730844448D-01
   157  1.5600000000000D+00  2.3273978059639D-02 -2.2665120233446D-01
   158  1.5700000000000D+00  2.3927262449568D-02 -2.1577038435605D-01
   159  1.5800000000000D+00  2.4229388535445D-02 -2.0463552265869D-01
   160  1.5900000000000D+00  2.4217201890095D-02 -1.9333366339574D-01
   161  1.6000000000000D+00  2.3926954971341D-02 -1.8194781184185D-01
   162  1.6100000000000D+00  2.3394058105911D-02 -1.7055655261381D-01
   163  1.6200000000000D+00  2.2652848643677D-02 -1.5923371198075D-01
   164  1.6300000000000D+00  2.1736379161483D-02 -1.4804806322192D-01
   165  1.6400000000000D+00  2.0676225952000D-02 -1.3706307671843D-01
   166  1.6500000000000D+00  1.9502318678421D-02 -1.2633671574682D-01
   167  1.6600000000000D+00  1.8242791728213D-02 -1.1592127834062D-01
   168  1.6700000000000D+00  1.6923858105984D-02 -1.0586328610900D-01
   169  1.6800000000000D+00  1.5569705743392D-02 -9.6203419171487D-02
   170  1.6900000000000D+00  1.4202416931968D-02 -8.6976497841657D-02
   171  1.7000000000000D+00  1.2841910217570D-02 -7.8211509244497D-02
   172  1.7100000000000D+00  1.1505905193293D-02 -6.9931678997765D-02
   173  1.7200000000000D+00  1.0209909162405D-02 -6.2154585493919D-02
   174  1.7300000000000D+00  8.9672256793740D-03 -5.4892316127588D-02
   175  1.7400000000000D+00  7.7889837791153D-03 -4.8151662733006D-02
   176  1.7500000000000D+00  6.6841873164717D-03 -4.1934354524428D-02
   177  1.7600000000000D+00  5.6597832689238D-03 -3.6237325891039D-02
   178  1.7700000000000D+00  4.7207477241029D-03 -3.1053016112870D-02
   179  1.7800000000000D+00  3.8701886012163D-03 -2.6369698686441D-02
   180  1.7900000000000D+00  3.1094631105349D-03 -2.2171836118450D-02
   181  1.8000000000000D+00  2.4383092351213D-03 -1.8440458238316D-02
   182  1.8100000000000D+00  1.8549886665767D-03 -1.5153559008480D-02
   183  1.8200000000000D+00  1.3564405711758D-03 -1.2286509923559D-02
   184  1.8300000000000D+00  9.3844341190068D-04 -9.8124848385526D-03
   185  1.8400000000000D+00  5.9578392145318D-04 -7.7028936235902D-03
   186  1.8500000000000D+00  3.2243083903883D-04 -5.9278204485097D-03
   187  1.8600000000000D+00  1.1171173612116D-04 -4.4564625748437D-03
   188  1.8700000000000D+00 -4.3508618787336D-05 -3.2575670830833D-03
   189  1.8800000000000D+00 -1.5065079857563D-04 -2.2998601460912D-03
   190  1.8900000000000D+00 -2.1724516194036D-04 -1.5524671074417D-03
   191  1.9000000000000D+00 -2.5076060872693D-04 -9.8531840978646D-04
   192  1.9100000000000D+00 -2.5843911829309D-04 -5.6953842173403D-04
   193  1.9200000000000D+00 -2.4713706242176D-04 -2.7781532194518D-04
   194  1.9300000000000D+00 -2.2317664436834D-04 -8.4745155610522D-05
   195  1.9400000000000D+00 -1.9220560391379D-04  3.2845934652519D-05
   196  1.9500000000000D+00 -1.5914669342032D-04  9.5746707150356D-05
   197  1.9600000000000D+00 -1.2778674198679D-04  1.2157750479962D-04
   198  1.9700000000000D+00 -1.0055616497368D-04  1.2435742561209D-04
   199  1.9800000000000D+00 -7.9686225784379D-05  1.1649170179417D-04
   200  1.9900000000000D+00 -6.7748592602763D-05  1.0968209270522D-04
   201  2.0000000000000D+00 -6.6417199022667D-05  1.1262379739226D-04
   202  2.0100000000000D+00 -6.3151564354406D-05  1.0813085276314D-04
   203  2.0200000000000D+00 -4.5943569190880D-05  7.8555469338195D-05
   204  2.0300000000000D+00 -1.9067810897337D-05  3.2501451179540D-05
   205  2.0400000000000D+00  2.1641929998024D-06 -3.7040069744617D-06
   206  2.0500000000000D+00  6.1138562803719D-06 -1.0454228516372D-05
   207  2.0600000000000D+00  1.6001700299958D-06 -2.7336723217604D-06
   208  2.0700000000000D+00 -1.2265289634425D-06  2.1145383571690D-06
   209  2.0800000000000D+00 -1.0372852152315D-06  1.7889752049641D-06
   210  2.0900000000000D+00  6.4050454329414D-08 -1.0963121486412D-07
   211  2.1000000000000D+00  1.6713577399288D-07 -2.8607600276895D-07
   212  2.1100000000000D+00  4.6206038044346D-08 -7.9088027366778D-08
   213  2.1200000000000D+00  0.0000000000000D+00  0.0000000000000D+00
   214  2.1300000000000D+00  0.0000000000000D+00  0.0000000000000D+00
   215  2.1400000000000D+00  0.0000000000000D+00  0.0000000000000D+00
   216  2.1500000000000D+00  0.0000000000000D+00  0.0000000000000D+00
   217  2.1600000000000D+00  0.0000000000000D+00  0.0000000000000D+00
   218  2.1700000000000D+00  0.0000000000000D+00  0.0000000000000D+00
   219  2.1800000000000D+00  0.0000000000000D+00  0.0000000000000D+00
   220  2.1900000000000D+00  0.0000000000000D+00  0.0000000000000D+00
   221  2.2000000000000D+00  0.0000000000000D+00  0.0000000000000D+00
   222  2.2100000000000D+00  0.0000000000000D+00  0.0000000000000D+00
   223  2.2200000000000D+00  0.0000000000000D+00  0.0000000000000D+00
   224  2.2300000000000D+00  0.0000000000000D+00  0.0000000000000D+00
   225  2.2400000000000D+00  0.0000000000000D+00  0.0000000000000D+00
   226  2.2500000000000D+00  0.0000000000000D+00  0.0000000000000D+00
   227  2.2600000000000D+00  0.0000000000000D+00  0.0000000000000D+00
   228  2.2700000000000D+00  0.0000000000000D+00  0.0000000000000D+00
   229  2.2800000000000D+00  0.0000000000000D+00  0.0000000000000D+00
   230  2.2900000000000D+00  0.0000000000000D+00  0.0000000000000D+00
   231  2.3000000000000D+00  0.0000000000000D+00  0.0000000000000D+00
   232  2.3100000000000D+00  0.0000000000000D+00  0.0000000000000D+00
   233  2.3200000000000D+00  0.0000000000000D+00  0.0000000000000D+00
   234  2.3300000000000D+00  0.0000000000000D+00  0.0000000000000D+00
   235  2.3400000000000D+00  0.0000000000000D+00  0.0000000000000D+00
   236  2.3500000000000D+00  0.0000000000000D+00  0.0000000000000D+00
   237  2.3600000000000D+00  0.0000000000000D+00  0.0000000000000D+00
   238  2.3700000000000D+00  0.0000000000000D+00  0.0000000000000D+00
   239  2.3800000000000D+00  0.0000000000000D+00  0.0000000000000D+00
   240  2.3900000000000D+00  0.0000000000000D+00  0.0000000000000D+00
   241  2.4000000000000D+00  0.0000000000000D+00  0.0000000000000D+00
   242  2.4100000000000D+00  0.0000000000000D+00  0.0000000000000D+00
   243  2.4200000000000D+00  0.0000000000000D+00  0.0000000000000D+00
   244  2.4300000000000D+00  0.0000000000000D+00  0.0000000000000D+00
   245  2.4400000000000D+00  0.0000000000000D+00  0.0000000000000D+00
   246  2.4500000000000D+00  0.0000000000000D+00  0.0000000000000D+00
   247  2.4600000000000D+00  0.0000000000000D+00  0.0000000000000D+00
   248  2.4700000000000D+00  0.0000000000000D+00  0.0000000000000D+00
   249  2.4800000000000D+00  0.0000000000000D+00  0.0000000000000D+00
   250  2.4900000000000D+00  0.0000000000000D+00  0.0000000000000D+00
   251  2.5000000000000D+00  0.0000000000000D+00  0.0000000000000D+00
   252  2.5100000000000D+00  0.0000000000000D+00  0.0000000000000D+00
   253  2.5200000000000D+00  0.0000000000000D+00  0.0000000000000D+00
   254  2.5300000000000D+00  0.0000000000000D+00  0.0000000000000D+00
   255  2.5400000000000D+00  0.0000000000000D+00  0.0000000000000D+00
   256  2.5500000000000D+00  0.0000000000000D+00  0.0000000000000D+00
   257  2.5600000000000D+00  0.0000000000000D+00  0.0000000000000D+00
   258  2.5700000000000D+00  0.0000000000000D+00  0.0000000000000D+00
   259  2.5800000000000D+00  0.0000000000000D+00  0.0000000000000D+00
   260  2.5900000000000D+00  0.0000000000000D+00  0.0000000000000D+00
   261  2.6000000000000D+00  0.0000000000000D+00  0.0000000000000D+00
   262  2.6100000000000D+00  0.0000000000000D+00  0.0000000000000D+00
   263  2.6200000000000D+00  0.0000000000000D+00  0.0000000000000D+00
   264  2.6300000000000D+00  0.0000000000000D+00  0.0000000000000D+00
   265  2.6400000000000D+00  0.0000000000000D+00  0.0000000000000D+00
   266  2.6500000000000D+00  0.0000000000000D+00  0.0000000000000D+00
   267  2.6600000000000D+00  0.0000000000000D+00  0.0000000000000D+00
   268  2.6700000000000D+00  0.0000000000000D+00  0.0000000000000D+00
   269  2.6800000000000D+00  0.0000000000000D+00  0.0000000000000D+00
   270  2.6900000000000D+00  0.0000000000000D+00  0.0000000000000D+00
   271  2.7000000000000D+00  0.0000000000000D+00  0.0000000000000D+00
   272  2.7100000000000D+00  0.0000000000000D+00  0.0000000000000D+00
   273  2.7200000000000D+00  0.0000000000000D+00  0.0000000000000D+00
   274  2.7300000000000D+00  0.0000000000000D+00  0.0000000000000D+00
   275  2.7400000000000D+00  0.0000000000000D+00  0.0000000000000D+00
   276  2.7500000000000D+00  0.0000000000000D+00  0.0000000000000D+00
   277  2.7600000000000D+00  0.0000000000000D+00  0.0000000000000D+00
   278  2.7700000000000D+00  0.0000000000000D+00  0.0000000000000D+00
   279  2.7800000000000D+00  0.0000000000000D+00  0.0000000000000D+00
   280  2.7900000000000D+00  0.0000000000000D+00  0.0000000000000D+00
   281  2.8000000000000D+00  0.0000000000000D+00  0.0000000000000D+00
   282  2.8100000000000D+00  0.0000000000000D+00  0.0000000000000D+00
   283  2.8200000000000D+00  0.0000000000000D+00  0.0000000000000D+00
   284  2.8300000000000D+00  0.0000000000000D+00  0.0000000000000D+00
   285  2.8400000000000D+00  0.0000000000000D+00  0.0000000000000D+00
   286  2.8500000000000D+00  0.0000000000000D+00  0.0000000000000D+00
   287  2.8600000000000D+00  0.0000000000000D+00  0.0000000000000D+00
   288  2.8700000000000D+00  0.0000000000000D+00  0.0000000000000D+00
   289  2.8800000000000D+00  0.0000000000000D+00  0.0000000000000D+00
   290  2.8900000000000D+00  0.0000000000000D+00  0.0000000000000D+00
   291  2.9000000000000D+00  0.0000000000000D+00  0.0000000000000D+00
   292  2.9100000000000D+00  0.0000000000000D+00  0.0000000000000D+00
   293  2.9200000000000D+00  0.0000000000000D+00  0.0000000000000D+00
   294  2.9300000000000D+00  0.0000000000000D+00  0.0000000000000D+00
   295  2.9400000000000D+00  0.0000000000000D+00  0.0000000000000D+00
   296  2.9500000000000D+00  0.0000000000000D+00  0.0000000000000D+00
   297  2.9600000000000D+00  0.0000000000000D+00  0.0000000000000D+00
   298  2.9700000000000D+00  0.0000000000000D+00  0.0000000000000D+00
   299  2.9800000000000D+00  0.0000000000000D+00  0.0000000000000D+00
   300  2.9900000000000D+00  0.0000000000000D+00  0.0000000000000D+00
   301  3.0000000000000D+00  0.0000000000000D+00  0.0000000000000D+00
   302  3.0100000000000D+00  0.0000000000000D+00  0.0000000000000D+00
   303  3.0200000000000D+00  0.0000000000000D+00  0.0000000000000D+00
   304  3.0300000000000D+00  0.0000000000000D+00  0.0000000000000D+00
   305  3.0400000000000D+00  0.0000000000000D+00  0.0000000000000D+00
   306  3.0500000000000D+00  0.0000000000000D+00  0.0000000000000D+00
   307  3.0600000000000D+00  0.0000000000000D+00  0.0000000000000D+00
   308  3.0700000000000D+00  0.0000000000000D+00  0.0000000000000D+00
   309  3.0800000000000D+00  0.0000000000000D+00  0.0000000000000D+00
   310  3.0900000000000D+00  0.0000000000000D+00  0.0000000000000D+00
   311  3.1000000000000D+00  0.0000000000000D+00  0.0000000000000D+00
   312  3.1100000000000D+00  0.0000000000000D+00  0.0000000000000D+00
   313  3.1200000000000D+00  0.0000000000000D+00  0.0000000000000D+00
   314  3.1300000000000D+00  0.0000000000000D+00  0.0000000000000D+00
   315  3.1400000000000D+00  0.0000000000000D+00  0.0000000000000D+00
   316  3.1500000000000D+00  0.0000000000000D+00  0.0000000000000D+00
   317  3.1600000000000D+00  0.0000000000000D+00  0.0000000000000D+00
   318  3.1700000000000D+00  0.0000000000000D+00  0.0000000000000D+00
   319  3.1800000000000D+00  0.0000000000000D+00  0.0000000000000D+00
   320  3.1900000000000D+00  0.0000000000000D+00  0.0000000000000D+00
   321  3.2000000000000D+00  0.0000000000000D+00  0.0000000000000D+00
   322  3.2100000000000D+00  0.0000000000000D+00  0.0000000000000D+00
   323  3.2200000000000D+00  0.0000000000000D+00  0.0000000000000D+00
   324  3.2300000000000D+00  0.0000000000000D+00  0.0000000000000D+00
   325  3.2400000000000D+00  0.0000000000000D+00  0.0000000000000D+00
   326  3.2500000000000D+00  0.0000000000000D+00  0.0000000000000D+00
   327  3.2600000000000D+00  0.0000000000000D+00  0.0000000000000D+00
   328  3.2700000000000D+00  0.0000000000000D+00  0.0000000000000D+00
   329  3.2800000000000D+00  0.0000000000000D+00  0.0000000000000D+00
   330  3.2900000000000D+00  0.0000000000000D+00  0.0000000000000D+00
   331  3.3000000000000D+00  0.0000000000000D+00  0.0000000000000D+00
   332  3.3100000000000D+00  0.0000000000000D+00  0.0000000000000D+00
   333  3.3200000000000D+00  0.0000000000000D+00  0.0000000000000D+00
   334  3.3300000000000D+00  0.0000000000000D+00  0.0000000000000D+00
   335  3.3400000000000D+00  0.0000000000000D+00  0.0000000000000D+00
   336  3.3500000000000D+00  0.0000000000000D+00  0.0000000000000D+00
   337  3.3600000000000D+00  0.0000000000000D+00  0.0000000000000D+00
   338  3.3700000000000D+00  0.0000000000000D+00  0.0000000000000D+00
   339  3.3800000000000D+00  0.0000000000000D+00  0.0000000000000D+00
   340  3.3900000000000D+00  0.0000000000000D+00  0.0000000000000D+00
   341  3.4000000000000D+00  0.0000000000000D+00  0.0000000000000D+00
   342  3.4100000000000D+00  0.0000000000000D+00  0.0000000000000D+00
   343  3.4200000000000D+00  0.0000000000000D+00  0.0000000000000D+00
   344  3.4300000000000D+00  0.0000000000000D+00  0.0000000000000D+00
   345  3.4400000000000D+00  0.0000000000000D+00  0.0000000000000D+00
   346  3.4500000000000D+00  0.0000000000000D+00  0.0000000000000D+00
   347  3.4600000000000D+00  0.0000000000000D+00  0.0000000000000D+00
   348  3.4700000000000D+00  0.0000000000000D+00  0.0000000000000D+00
   349  3.4800000000000D+00  0.0000000000000D+00  0.0000000000000D+00
   350  3.4900000000000D+00  0.0000000000000D+00  0.0000000000000D+00
   351  3.5000000000000D+00  0.0000000000000D+00  0.0000000000000D+00
   352  3.5100000000000D+00  0.0000000000000D+00  0.0000000000000D+00
   353  3.5200000000000D+00  0.0000000000000D+00  0.0000000000000D+00
   354  3.5300000000000D+00  0.0000000000000D+00  0.0000000000000D+00
   355  3.5400000000000D+00  0.0000000000000D+00  0.0000000000000D+00
   356  3.5500000000000D+00  0.0000000000000D+00  0.0000000000000D+00
   357  3.5600000000000D+00  0.0000000000000D+00  0.0000000000000D+00
   358  3.5700000000000D+00  0.0000000000000D+00  0.0000000000000D+00
   359  3.5800000000000D+00  0.0000000000000D+00  0.0000000000000D+00
   360  3.5900000000000D+00  0.0000000000000D+00  0.0000000000000D+00
   361  3.6000000000000D+00  0.0000000000000D+00  0.0000000000000D+00
   362  3.6100000000000D+00  0.0000000000000D+00  0.0000000000000D+00
   363  3.6200000000000D+00  0.0000000000000D+00  0.0000000000000D+00
   364  3.6300000000000D+00  0.0000000000000D+00  0.0000000000000D+00
   365  3.6400000000000D+00  0.0000000000000D+00  0.0000000000000D+00
   366  3.6500000000000D+00  0.0000000000000D+00  0.0000000000000D+00
   367  3.6600000000000D+00  0.0000000000000D+00  0.0000000000000D+00
   368  3.6700000000000D+00  0.0000000000000D+00  0.0000000000000D+00
   369  3.6800000000000D+00  0.0000000000000D+00  0.0000000000000D+00
   370  3.6900000000000D+00  0.0000000000000D+00  0.0000000000000D+00
   371  3.7000000000000D+00  0.0000000000000D+00  0.0000000000000D+00
   372  3.7100000000000D+00  0.0000000000000D+00  0.0000000000000D+00
   373  3.7200000000000D+00  0.0000000000000D+00  0.0000000000000D+00
   374  3.7300000000000D+00  0.0000000000000D+00  0.0000000000000D+00
   375  3.7400000000000D+00  0.0000000000000D+00  0.0000000000000D+00
   376  3.7500000000000D+00  0.0000000000000D+00  0.0000000000000D+00
   377  3.7600000000000D+00  0.0000000000000D+00  0.0000000000000D+00
   378  3.7700000000000D+00  0.0000000000000D+00  0.0000000000000D+00
   379  3.7800000000000D+00  0.0000000000000D+00  0.0000000000000D+00
   380  3.7900000000000D+00  0.0000000000000D+00  0.0000000000000D+00
   381  3.8000000000000D+00  0.0000000000000D+00  0.0000000000000D+00
   382  3.8100000000000D+00  0.0000000000000D+00  0.0000000000000D+00
   383  3.8200000000000D+00  0.0000000000000D+00  0.0000000000000D+00
   384  3.8300000000000D+00  0.0000000000000D+00  0.0000000000000D+00
   385  3.8400000000000D+00  0.0000000000000D+00  0.0000000000000D+00
   386  3.8500000000000D+00  0.0000000000000D+00  0.0000000000000D+00
   387  3.8600000000000D+00  0.0000000000000D+00  0.0000000000000D+00
   388  3.8700000000000D+00  0.0000000000000D+00  0.0000000000000D+00
   389  3.8800000000000D+00  0.0000000000000D+00  0.0000000000000D+00
   390  3.8900000000000D+00  0.0000000000000D+00  0.0000000000000D+00
   391  3.9000000000000D+00  0.0000000000000D+00  0.0000000000000D+00
   392  3.9100000000000D+00  0.0000000000000D+00  0.0000000000000D+00
   393  3.9200000000000D+00  0.0000000000000D+00  0.0000000000000D+00
   394  3.9300000000000D+00  0.0000000000000D+00  0.0000000000000D+00
   395  3.9400000000000D+00  0.0000000000000D+00  0.0000000000000D+00
   396  3.9500000000000D+00  0.0000000000000D+00  0.0000000000000D+00
   397  3.9600000000000D+00  0.0000000000000D+00  0.0000000000000D+00
   398  3.9700000000000D+00  0.0000000000000D+00  0.0000000000000D+00
   399  3.9800000000000D+00  0.0000000000000D+00  0.0000000000000D+00
   400  3.9900000000000D+00  0.0000000000000D+00  0.0000000000000D+00
   401  4.0000000000000D+00  0.0000000000000D+00  0.0000000000000D+00
   402  4.0100000000000D+00  0.0000000000000D+00  0.0000000000000D+00
   403  4.0200000000000D+00  0.0000000000000D+00  0.0000000000000D+00
   404  4.0300000000000D+00  0.0000000000000D+00  0.0000000000000D+00
   405  4.0400000000000D+00  0.0000000000000D+00  0.0000000000000D+00
   406  4.0500000000000D+00  0.0000000000000D+00  0.0000000000000D+00
   407  4.0600000000000D+00  0.0000000000000D+00  0.0000000000000D+00
   408  4.0700000000000D+00  0.0000000000000D+00  0.0000000000000D+00
   409  4.0800000000000D+00  0.0000000000000D+00  0.0000000000000D+00
   410  4.0900000000000D+00  0.0000000000000D+00  0.0000000000000D+00
   411  4.1000000000000D+00  0.0000000000000D+00  0.0000000000000D+00
   412  4.1100000000000D+00  0.0000000000000D+00  0.0000000000000D+00
   413  4.1200000000000D+00  0.0000000000000D+00  0.0000000000000D+00
   414  4.1300000000000D+00  0.0000000000000D+00  0.0000000000000D+00
   415  4.1400000000000D+00  0.0000000000000D+00  0.0000000000000D+00
   416  4.1500000000000D+00  0.0000000000000D+00  0.0000000000000D+00
   417  4.1600000000000D+00  0.0000000000000D+00  0.0000000000000D+00
   418  4.1700000000000D+00  0.0000000000000D+00  0.0000000000000D+00
   419  4.1800000000000D+00  0.0000000000000D+00  0.0000000000000D+00
   420  4.1900000000000D+00  0.0000000000000D+00  0.0000000000000D+00
   421  4.2000000000000D+00  0.0000000000000D+00  0.0000000000000D+00
   422  4.2100000000000D+00  0.0000000000000D+00  0.0000000000000D+00