Hf    ONCVPSP-3.3.1  r_core=   1.93355   2.12716   2.05238   3.04240
     72.0000     26.0000      210905    zatom,zion,pspd
     8 -116133   3     4   600     0    pspcod,pspxc,lmax,lloc,mmax,r2well
  5.99000000  0.00000000  0.00000000    rchrg fchrg qchrg
     2     4     3     2    nproj
     3     1           extension_switch
     4     4     3    nprojso
   0                        -1.7376841558453D-01  1.0032247810400D+01
     1  0.0000000000000D+00  2.4107604801316D-11 -7.3663297683879D-12
     2  1.0000000000000D-02 -6.6950829876304D-03  6.7580619520613D-02
     3  2.0000000000000D-02 -1.3362567220274D-02  1.3502922705691D-01
     4  3.0000000000000D-02 -1.9974909103776D-02  2.0221414681745D-01
     5  4.0000000000000D-02 -2.6504674909208D-02  2.6900437448813D-01
     6  5.0000000000000D-02 -3.2924594570612D-02  3.3526991070178D-01
     7  6.0000000000000D-02 -3.9207614138208D-02  4.0088209178985D-01
     8  7.0000000000000D-02 -4.5326946467559D-02  4.6571391691894D-01
     9  8.0000000000000D-02 -5.1256119749305D-02  5.2964037072204D-01
    10  9.0000000000000D-02 -5.6969023513718D-02  5.9253874054380D-01
    11  1.0000000000000D-01 -6.2439951779172D-02  6.5428892743001D-01
    12  1.1000000000000D-01 -6.7643643053164D-02  7.1477375000486D-01
    13  1.2000000000000D-01 -7.2555316938322D-02  7.7387924039425D-01
    14  1.3000000000000D-01 -7.7150707143787D-02  8.3149493137053D-01
    15  1.4000000000000D-01 -8.1406090752711D-02  8.8751413391304D-01
    16  1.5000000000000D-01 -8.5298313650771D-02  9.4183420439984D-01
    17  1.6000000000000D-01 -8.8804812075578D-02  9.9435680066903D-01
    18  1.7000000000000D-01 -9.1903630303923D-02  1.0449881262133D+00
    19  1.8000000000000D-01 -9.4573434551482D-02  1.0936391617986D+00
    20  1.9000000000000D-01 -9.6793523216402D-02  1.1402258838272D+00
    21  2.0000000000000D-01 -9.8543833655815D-02  1.1846694687974D+00
    22  2.1000000000000D-01 -9.9804945738379D-02  1.2268964832447D+00
    23  2.2000000000000D-01 -1.0055808247011D-01  1.2668390585867D+00
    24  2.3000000000000D-01 -1.0078510804007D-01  1.3044350503309D+00
    25  2.4000000000000D-01 -1.0046852367963D-01  1.3396281811454D+00
    26  2.5000000000000D-01 -9.9591461771288D-02  1.3723681673329D+00
    27  2.6000000000000D-01 -9.8137678681138D-02  1.4026108282969D+00
    28  2.7000000000000D-01 -9.6091546821091D-02  1.4303181786300D+00
    29  2.8000000000000D-01 -9.3438046474209D-02  1.4554585025062D+00
    30  2.9000000000000D-01 -9.0162757936564D-02  1.4780064101079D+00
    31  3.0000000000000D-01 -8.6251854542964D-02  1.4979428758706D+00
    32  3.1000000000000D-01 -8.1692097151078D-02  1.5152552583812D+00
    33  3.2000000000000D-01 -7.6470830657752D-02  1.5299373018201D+00
    34  3.3000000000000D-01 -7.0575983113837D-02  1.5419891188978D+00
    35  3.4000000000000D-01 -6.3996067989035D-02  1.5514171552879D+00
    36  3.5000000000000D-01 -5.6720190114780D-02  1.5582341356236D+00
    37  3.6000000000000D-01 -4.8738055803849D-02  1.5624589911792D+00
    38  3.7000000000000D-01 -4.0039987607809D-02  1.5641167694232D+00
    39  3.8000000000000D-01 -3.0616944128205D-02  1.5632385256856D+00
    40  3.9000000000000D-01 -2.0460545247208D-02  1.5598611972479D+00
    41  4.0000000000000D-01 -9.5631030844345D-03  1.5540274602209D+00
    42  4.1000000000000D-01  2.0823410761924D-03  1.5457855696398D+00
    43  4.2000000000000D-01  1.4481973715736D-02  1.5351891832653D+00
    44  4.3000000000000D-01  2.7641159765332D-02  1.5222971696370D+00
    45  4.4000000000000D-01  4.1564387025801D-02  1.5071734009879D+00
    46  4.5000000000000D-01  5.6255204382270D-02  1.4898865316838D+00
    47  4.6000000000000D-01  7.1716153958979D-02  1.4705097629051D+00
    48  4.7000000000000D-01  8.7948697446657D-02  1.4491205943483D+00
    49  4.8000000000000D-01  1.0495313692222D-01  1.4258005637692D+00
    50  4.9000000000000D-01  1.2272853056961D-01  1.4006349752442D+00
    51  5.0000000000000D-01  1.4127260379758D-01  1.3737126170699D+00
    52  5.1000000000000D-01  1.6058165633706D-01  1.3451254702663D+00
    53  5.2000000000000D-01  1.8065046598348D-01  1.3149684086873D+00
    54  5.3000000000000D-01  2.0147218973168D-01  1.2833388917808D+00
    55  5.4000000000000D-01  2.2303826312480D-01  1.2503366510726D+00
    56  5.5000000000000D-01  2.4533829871223D-01  1.2160633714774D+00
    57  5.6000000000000D-01  2.6835998457450D-01  1.1806223685646D+00
    58  5.7000000000000D-01  2.9208898393348D-01  1.1441182629276D+00
    59  5.8000000000000D-01  3.1650883691475D-01  1.1066566528204D+00
    60  5.9000000000000D-01  3.4160086557406D-01  1.0683437862360D+00
    61  6.0000000000000D-01  3.6734408333116D-01  1.0292862336077D+00
    62  6.1000000000000D-01  3.9371510997947D-01  9.8959056231495D-01
    63  6.2000000000000D-01  4.2068809345392D-01  9.4936301417060D-01
    64  6.3000000000000D-01  4.4823463954257D-01  9.0870918705899D-01
    65  6.4000000000000D-01  4.7632375072034D-01  8.6773372187720D-01
    66  6.5000000000000D-01  5.0492177526461D-01  8.2653999591399D-01
    67  6.6000000000000D-01  5.3399236778316D-01  7.8522982377512D-01
    68  6.7000000000000D-01  5.6349646224288D-01  7.4390316693377D-01
    69  6.8000000000000D-01  5.9339225853631D-01  7.0265785294965D-01
    70  6.9000000000000D-01  6.2363522355873D-01  6.6158930536031D-01
    71  7.0000000000000D-01  6.5417810769431D-01  6.2079028520320D-01
    72  7.1000000000000D-01  6.8497097752408D-01  5.8035064507764D-01
    73  7.2000000000000D-01  7.1596126547410D-01  5.4035709660158D-01
    74  7.3000000000000D-01  7.4709383701554D-01  5.0089299206032D-01
    75  7.4000000000000D-01  7.7831107591652D-01  4.6203812098205D-01
    76  7.5000000000000D-01  8.0955298792057D-01  4.2386852230934D-01
    77  7.6000000000000D-01  8.4075732309912D-01  3.8645631276667D-01
    78  7.7000000000000D-01  8.7185971698722D-01  3.4986953195206D-01
    79  7.8000000000000D-01  9.0279385047058D-01  3.1417200460624D-01
    80  7.9000000000000D-01  9.3349162824505D-01  2.7942322043544D-01
    81  8.0000000000000D-01  9.6388337551959D-01  2.4567823178551D-01
    82  8.1000000000000D-01  9.9389805248153D-01  2.1298756938422D-01
    83  8.2000000000000D-01  1.0234634858885D+00  1.8139717628750D-01
    84  8.3000000000000D-01  1.0525066170002D+00  1.5094836008318D-01
    85  8.4000000000000D-01  1.0809537649081D+00  1.2167776332347D-01
    86  8.5000000000000D-01  1.1087309041749D+00  9.3617352075562D-02
    87  8.6000000000000D-01  1.1357639555479D+00  6.6794422398191D-02
    88  8.7000000000000D-01  1.1619790883718D+00  4.1231624471992D-02
    89  8.8000000000000D-01  1.1873030331925D+00  1.6947004032740D-02
    90  8.9000000000000D-01  1.2116634029168D+00 -6.0459393200397D-03
    91  9.0000000000000D-01  1.2349890207786D+00 -2.7738177440948D-02
    92  9.1000000000000D-01  1.2572102532511D+00 -4.8125063155945D-02
    93  9.2000000000000D-01  1.2782593459542D+00 -6.7206224620395D-02
    94  9.3000000000000D-01  1.2980707605188D+00 -8.4985445223642D-02
    95  9.4000000000000D-01  1.3165815103017D+00 -1.0147052980647D-01
    96  9.5000000000000D-01  1.3337314927888D+00 -1.1667315801410D-01
    97  9.6000000000000D-01  1.3494638164815D+00 -1.3060872565885D-01
    98  9.7000000000000D-01  1.3637251200384D+00 -1.4329617501375D-01
    99  9.8000000000000D-01  1.3764658814314D+00 -1.5475781499928D-01
   100  9.9000000000000D-01  1.3876407148846D+00 -1.6501913226251D-01
   101  1.0000000000000D+00  1.3972086533872D+00 -1.7410859417787D-01
   102  1.0100000000000D+00  1.4051334146131D+00 -1.8205744482367D-01
   103  1.0200000000000D+00  1.4113836481360D+00 -1.8889949500824D-01
   104  1.0300000000000D+00  1.4159331619047D+00 -1.9467090743200D-01
   105  1.0400000000000D+00  1.4187611260369D+00 -1.9940997807922D-01
   106  1.0500000000000D+00  1.4198522520922D+00 -2.0315691493448D-01
   107  1.0600000000000D+00  1.4191969461224D+00 -2.0595361511293D-01
   108  1.0700000000000D+00  1.4167914339139D+00 -2.0784344148490D-01
   109  1.0800000000000D+00  1.4126378570170D+00 -2.0887099985667D-01
   110  1.0900000000000D+00  1.4067443383073D+00 -2.0908191774807D-01
   111  1.1000000000000D+00  1.3991250160163D+00 -2.0852262577949D-01
   112  1.1100000000000D+00  1.3898000453608D+00 -2.0724014264614D-01
   113  1.1200000000000D+00  1.3787955670842D+00 -2.0528186462504D-01
   114  1.1300000000000D+00  1.3661436424716D+00 -2.0269536050931D-01
   115  1.1400000000000D+00  1.3518821545937D+00 -1.9952817282261D-01
   116  1.1500000000000D+00  1.3360546757904D+00 -1.9582762610814D-01
   117  1.1600000000000D+00  1.3187103015789D+00 -1.9164064304631D-01
   118  1.1700000000000D+00  1.2999034514863D+00 -1.8701356907670D-01
   119  1.1800000000000D+00  1.2796936375011D+00 -1.8199200614793D-01
   120  1.1900000000000D+00  1.2581452010763D+00 -1.7662065615453D-01
   121  1.2000000000000D+00  1.2353270198421D+00 -1.7094317455812D-01
   122  1.2100000000000D+00  1.2113121854641D+00 -1.6500203460776D-01
   123  1.2200000000000D+00  1.1861776543082D+00 -1.5883840250216D-01
   124  1.2300000000000D+00  1.1600038726889D+00 -1.5249202380394D-01
   125  1.2400000000000D+00  1.1328743788530D+00 -1.4600112129066D-01
   126  1.2500000000000D+00  1.1048753839764D+00 -1.3940230437820D-01
   127  1.2600000000000D+00  1.0760953345819D+00 -1.3273049020830D-01
   128  1.2700000000000D+00  1.0466244590759D+00 -1.2601883638166D-01
   129  1.2800000000000D+00  1.0165543012416D+00 -1.1929868525171D-01
   130  1.2900000000000D+00  9.8597724358308D-01 -1.1259951967169D-01
   131  1.3000000000000D+00  9.5498602366671D-01 -1.0594892997545D-01
   132  1.3100000000000D+00  9.2367324668342D-01 -9.9372591907173D-02
   133  1.3200000000000D+00  8.9213089747437D-01 -9.2894255218150D-02
   134  1.3300000000000D+00  8.6044985546344D-01 -8.6535742519896D-02
   135  1.3400000000000D+00  8.2871941589681D-01 -8.0316957946341D-02
   136  1.3500000000000D+00  7.9702682085360D-01 -7.4255905197112D-02
   137  1.3600000000000D+00  7.6545680352771D-01 -6.8368714376195D-02
   138  1.3700000000000D+00  7.3409114919012D-01 -6.2669677088479D-02
   139  1.3800000000000D+00  7.0300827635108D-01 -5.7171289202367D-02
   140  1.3900000000000D+00  6.7228284136931D-01 -5.1884300609709D-02
   141  1.4000000000000D+00  6.4198536990794D-01 -4.6817771364069D-02
   142  1.4100000000000D+00  6.1218191841133D-01 -4.1979133488435D-02
   143  1.4200000000000D+00  5.8293376850961D-01 -3.7374257768034D-02
   144  1.4300000000000D+00  5.5429715761516D-01 -3.3007524822070D-02
   145  1.4400000000000D+00  5.2632304802067D-01 -2.8881899735398D-02
   146  1.4500000000000D+00  4.9905693747526D-01 -2.4999009542226D-02
   147  1.4600000000000D+00  4.7253871340578D-01 -2.1359222840136D-02
   148  1.4700000000000D+00  4.4680255280473D-01 -1.7961730858247D-02
   149  1.4800000000000D+00  4.2187687023193D-01 -1.4804629239451D-02
   150  1.4900000000000D+00  3.9778431467886D-01 -1.1884999947996D-02
   151  1.5000000000000D+00  3.7454181786963D-01 -9.1989925456255D-03
   152  1.5100000000000D+00  3.5216069396602D-01 -6.7419043224064D-03
   153  1.5200000000000D+00  3.3064679242470D-01 -4.5082586022619D-03
   154  1.5300000000000D+00  3.1000070409642D-01 -2.4918807019245D-03
   155  1.5400000000000D+00  2.9021802080668D-01 -6.8597103675253D-04
   156  1.5500000000000D+00  2.7128964893671D-01  9.1682520260751D-04
   157  1.5600000000000D+00  2.5320217558273D-01  2.3243520817037D-03
   158  1.5700000000000D+00  2.3593828826871D-01  3.5448813136620D-03
   159  1.5800000000000D+00  2.1947724520388D-01  4.5870550396512D-03
   160  1.5900000000000D+00  2.0379539725484D-01  5.4598336990048D-03
   161  1.6000000000000D+00  1.8886675765040D-01  6.1724488422561D-03
   162  1.6100000000000D+00  1.7466361993322D-01  6.7343614991868D-03
   163  1.6200000000000D+00  1.6115722006478D-01  7.1552259122533D-03
   164  1.6300000000000D+00  1.4831844210544D-01  7.4448590735874D-03
   165  1.6400000000000D+00  1.3611856343856D-01  7.6132158650006D-03
   166  1.6500000000000D+00  1.2453003796923D-01  7.6703700644494D-03
   167  1.6600000000000D+00  1.1352732743102D-01  7.6265018883157D-03
   168  1.6700000000000D+00  1.0308770024035D-01  7.4918872858044D-03
   169  1.6800000000000D+00  9.3192242020300D-02  7.2769044607406D-03
   170  1.6900000000000D+00  8.3826467787159D-02  6.9920185588340D-03
   171  1.7000000000000D+00  7.4981023820140D-02  6.6477771771693D-03
   172  1.7100000000000D+00  6.6654447768369D-02  6.2549385468551D-03
   173  1.7200000000000D+00  5.8852768921800D-02  5.8244039287031D-03
   174  1.7300000000000D+00  5.1584936609839D-02  5.3668980387205D-03
   175  1.7400000000000D+00  4.4859805811196D-02  4.8927392388546D-03
   176  1.7500000000000D+00  3.8682028757564D-02  4.4115263286302D-03
   177  1.7600000000000D+00  3.3048952211318D-02  3.9318946182911D-03
   178  1.7700000000000D+00  2.7952979762124D-02  3.4616129853765D-03
   179  1.7800000000000D+00  2.3382582807777D-02  3.0075976897777D-03
   180  1.7900000000000D+00  1.9321822832174D-02  2.5758447396428D-03
   181  1.8000000000000D+00  1.5751150654905D-02  2.1714422002372D-03
   182  1.8100000000000D+00  1.2647674847287D-02  1.7985548179350D-03
   183  1.8200000000000D+00  9.9855785494051D-03  1.4604216605851D-03
   184  1.8300000000000D+00  7.7364876948326D-03  1.1593546301159D-03
   185  1.8400000000000D+00  5.8698230863468D-03  8.9673969637531D-04
   186  1.8500000000000D+00  4.3531273731222D-03  6.7304003329190D-04
   187  1.8600000000000D+00  3.1523700880289D-03  4.8780122383523D-04
   188  1.8700000000000D+00  2.2326996966165D-03  3.3968096303905D-04
   189  1.8800000000000D+00  1.5571445495253D-03  2.2638169409544D-04
   190  1.8900000000000D+00  1.0851278021007D-03  1.4451766679363D-04
   191  1.9000000000000D+00  7.7828597937673D-04  8.9962147876112D-05
   192  1.9100000000000D+00  6.1782663710096D-04  5.9238531009066D-05
   193  1.9200000000000D+00  5.8464903846652D-04  4.8277628305607D-05
   194  1.9300000000000D+00  5.4845141850103D-04  4.3025437516089D-05
   195  1.9400000000000D+00  3.8476984784257D-04  3.0003665522164D-05
   196  1.9500000000000D+00  1.4110046412074D-04  1.1041639587868D-05
   197  1.9600000000000D+00 -3.0609458402028D-05 -2.3517546147432D-06
   198  1.9700000000000D+00 -4.9458731515056D-05 -3.7971233669233D-06
   199  1.9800000000000D+00 -1.3256832557650D-06 -1.0178412650906D-07
   200  1.9900000000000D+00  1.1928061392559D-05  9.0526154065769D-07
   201  2.0000000000000D+00  5.4999138241682D-06  4.1672959238860D-07
   202  2.0100000000000D+00 -1.1165014487675D-06 -8.7367288422843D-08
   203  2.0200000000000D+00 -1.2205682941481D-06 -9.5510616947551D-08
   204  2.0300000000000D+00  0.0000000000000D+00  0.0000000000000D+00
   205  2.0400000000000D+00  0.0000000000000D+00  0.0000000000000D+00
   206  2.0500000000000D+00  0.0000000000000D+00  0.0000000000000D+00
   207  2.0600000000000D+00  0.0000000000000D+00  0.0000000000000D+00
   208  2.0700000000000D+00  0.0000000000000D+00  0.0000000000000D+00
   209  2.0800000000000D+00  0.0000000000000D+00  0.0000000000000D+00
   210  2.0900000000000D+00  0.0000000000000D+00  0.0000000000000D+00
   211  2.1000000000000D+00  0.0000000000000D+00  0.0000000000000D+00
   212  2.1100000000000D+00  0.0000000000000D+00  0.0000000000000D+00
   213  2.1200000000000D+00  0.0000000000000D+00  0.0000000000000D+00
   214  2.1300000000000D+00  0.0000000000000D+00  0.0000000000000D+00
   215  2.1400000000000D+00  0.0000000000000D+00  0.0000000000000D+00
   216  2.1500000000000D+00  0.0000000000000D+00  0.0000000000000D+00
   217  2.1600000000000D+00  0.0000000000000D+00  0.0000000000000D+00
   218  2.1700000000000D+00  0.0000000000000D+00  0.0000000000000D+00
   219  2.1800000000000D+00  0.0000000000000D+00  0.0000000000000D+00
   220  2.1900000000000D+00  0.0000000000000D+00  0.0000000000000D+00
   221  2.2000000000000D+00  0.0000000000000D+00  0.0000000000000D+00
   222  2.2100000000000D+00  0.0000000000000D+00  0.0000000000000D+00
   223  2.2200000000000D+00  0.0000000000000D+00  0.0000000000000D+00
   224  2.2300000000000D+00  0.0000000000000D+00  0.0000000000000D+00
   225  2.2400000000000D+00  0.0000000000000D+00  0.0000000000000D+00
   226  2.2500000000000D+00  0.0000000000000D+00  0.0000000000000D+00
   227  2.2600000000000D+00  0.0000000000000D+00  0.0000000000000D+00
   228  2.2700000000000D+00  0.0000000000000D+00  0.0000000000000D+00
   229  2.2800000000000D+00  0.0000000000000D+00  0.0000000000000D+00
   230  2.2900000000000D+00  0.0000000000000D+00  0.0000000000000D+00
   231  2.3000000000000D+00  0.0000000000000D+00  0.0000000000000D+00
   232  2.3100000000000D+00  0.0000000000000D+00  0.0000000000000D+00
   233  2.3200000000000D+00  0.0000000000000D+00  0.0000000000000D+00
   234  2.3300000000000D+00  0.0000000000000D+00  0.0000000000000D+00
   235  2.3400000000000D+00  0.0000000000000D+00  0.0000000000000D+00
   236  2.3500000000000D+00  0.0000000000000D+00  0.0000000000000D+00
   237  2.3600000000000D+00  0.0000000000000D+00  0.0000000000000D+00
   238  2.3700000000000D+00  0.0000000000000D+00  0.0000000000000D+00
   239  2.3800000000000D+00  0.0000000000000D+00  0.0000000000000D+00
   240  2.3900000000000D+00  0.0000000000000D+00  0.0000000000000D+00
   241  2.4000000000000D+00  0.0000000000000D+00  0.0000000000000D+00
   242  2.4100000000000D+00  0.0000000000000D+00  0.0000000000000D+00
   243  2.4200000000000D+00  0.0000000000000D+00  0.0000000000000D+00
   244  2.4300000000000D+00  0.0000000000000D+00  0.0000000000000D+00
   245  2.4400000000000D+00  0.0000000000000D+00  0.0000000000000D+00
   246  2.4500000000000D+00  0.0000000000000D+00  0.0000000000000D+00
   247  2.4600000000000D+00  0.0000000000000D+00  0.0000000000000D+00
   248  2.4700000000000D+00  0.0000000000000D+00  0.0000000000000D+00
   249  2.4800000000000D+00  0.0000000000000D+00  0.0000000000000D+00
   250  2.4900000000000D+00  0.0000000000000D+00  0.0000000000000D+00
   251  2.5000000000000D+00  0.0000000000000D+00  0.0000000000000D+00
   252  2.5100000000000D+00  0.0000000000000D+00  0.0000000000000D+00
   253  2.5200000000000D+00  0.0000000000000D+00  0.0000000000000D+00
   254  2.5300000000000D+00  0.0000000000000D+00  0.0000000000000D+00
   255  2.5400000000000D+00  0.0000000000000D+00  0.0000000000000D+00
   256  2.5500000000000D+00  0.0000000000000D+00  0.0000000000000D+00
   257  2.5600000000000D+00  0.0000000000000D+00  0.0000000000000D+00
   258  2.5700000000000D+00  0.0000000000000D+00  0.0000000000000D+00
   259  2.5800000000000D+00  0.0000000000000D+00  0.0000000000000D+00
   260  2.5900000000000D+00  0.0000000000000D+00  0.0000000000000D+00
   261  2.6000000000000D+00  0.0000000000000D+00  0.0000000000000D+00
   262  2.6100000000000D+00  0.0000000000000D+00  0.0000000000000D+00
   263  2.6200000000000D+00  0.0000000000000D+00  0.0000000000000D+00
   264  2.6300000000000D+00  0.0000000000000D+00  0.0000000000000D+00
   265  2.6400000000000D+00  0.0000000000000D+00  0.0000000000000D+00
   266  2.6500000000000D+00  0.0000000000000D+00  0.0000000000000D+00
   267  2.6600000000000D+00  0.0000000000000D+00  0.0000000000000D+00
   268  2.6700000000000D+00  0.0000000000000D+00  0.0000000000000D+00
   269  2.6800000000000D+00  0.0000000000000D+00  0.0000000000000D+00
   270  2.6900000000000D+00  0.0000000000000D+00  0.0000000000000D+00
   271  2.7000000000000D+00  0.0000000000000D+00  0.0000000000000D+00
   272  2.7100000000000D+00  0.0000000000000D+00  0.0000000000000D+00
   273  2.7200000000000D+00  0.0000000000000D+00  0.0000000000000D+00
   274  2.7300000000000D+00  0.0000000000000D+00  0.0000000000000D+00
   275  2.7400000000000D+00  0.0000000000000D+00  0.0000000000000D+00
   276  2.7500000000000D+00  0.0000000000000D+00  0.0000000000000D+00
   277  2.7600000000000D+00  0.0000000000000D+00  0.0000000000000D+00
   278  2.7700000000000D+00  0.0000000000000D+00  0.0000000000000D+00
   279  2.7800000000000D+00  0.0000000000000D+00  0.0000000000000D+00
   280  2.7900000000000D+00  0.0000000000000D+00  0.0000000000000D+00
   281  2.8000000000000D+00  0.0000000000000D+00  0.0000000000000D+00
   282  2.8100000000000D+00  0.0000000000000D+00  0.0000000000000D+00
   283  2.8200000000000D+00  0.0000000000000D+00  0.0000000000000D+00
   284  2.8300000000000D+00  0.0000000000000D+00  0.0000000000000D+00
   285  2.8400000000000D+00  0.0000000000000D+00  0.0000000000000D+00
   286  2.8500000000000D+00  0.0000000000000D+00  0.0000000000000D+00
   287  2.8600000000000D+00  0.0000000000000D+00  0.0000000000000D+00
   288  2.8700000000000D+00  0.0000000000000D+00  0.0000000000000D+00
   289  2.8800000000000D+00  0.0000000000000D+00  0.0000000000000D+00
   290  2.8900000000000D+00  0.0000000000000D+00  0.0000000000000D+00
   291  2.9000000000000D+00  0.0000000000000D+00  0.0000000000000D+00
   292  2.9100000000000D+00  0.0000000000000D+00  0.0000000000000D+00
   293  2.9200000000000D+00  0.0000000000000D+00  0.0000000000000D+00
   294  2.9300000000000D+00  0.0000000000000D+00  0.0000000000000D+00
   295  2.9400000000000D+00  0.0000000000000D+00  0.0000000000000D+00
   296  2.9500000000000D+00  0.0000000000000D+00  0.0000000000000D+00
   297  2.9600000000000D+00  0.0000000000000D+00  0.0000000000000D+00
   298  2.9700000000000D+00  0.0000000000000D+00  0.0000000000000D+00
   299  2.9800000000000D+00  0.0000000000000D+00  0.0000000000000D+00
   300  2.9900000000000D+00  0.0000000000000D+00  0.0000000000000D+00
   301  3.0000000000000D+00  0.0000000000000D+00  0.0000000000000D+00
   302  3.0100000000000D+00  0.0000000000000D+00  0.0000000000000D+00
   303  3.0200000000000D+00  0.0000000000000D+00  0.0000000000000D+00
   304  3.0300000000000D+00  0.0000000000000D+00  0.0000000000000D+00
   305  3.0400000000000D+00  0.0000000000000D+00  0.0000000000000D+00
   306  3.0500000000000D+00  0.0000000000000D+00  0.0000000000000D+00
   307  3.0600000000000D+00  0.0000000000000D+00  0.0000000000000D+00
   308  3.0700000000000D+00  0.0000000000000D+00  0.0000000000000D+00
   309  3.0800000000000D+00  0.0000000000000D+00  0.0000000000000D+00
   310  3.0900000000000D+00  0.0000000000000D+00  0.0000000000000D+00
   311  3.1000000000000D+00  0.0000000000000D+00  0.0000000000000D+00
   312  3.1100000000000D+00  0.0000000000000D+00  0.0000000000000D+00
   313  3.1200000000000D+00  0.0000000000000D+00  0.0000000000000D+00
   314  3.1300000000000D+00  0.0000000000000D+00  0.0000000000000D+00
   315  3.1400000000000D+00  0.0000000000000D+00  0.0000000000000D+00
   316  3.1500000000000D+00  0.0000000000000D+00  0.0000000000000D+00
   317  3.1600000000000D+00  0.0000000000000D+00  0.0000000000000D+00
   318  3.1700000000000D+00  0.0000000000000D+00  0.0000000000000D+00
   319  3.1800000000000D+00  0.0000000000000D+00  0.0000000000000D+00
   320  3.1900000000000D+00  0.0000000000000D+00  0.0000000000000D+00
   321  3.2000000000000D+00  0.0000000000000D+00  0.0000000000000D+00
   322  3.2100000000000D+00  0.0000000000000D+00  0.0000000000000D+00
   323  3.2200000000000D+00  0.0000000000000D+00  0.0000000000000D+00
   324  3.2300000000000D+00  0.0000000000000D+00  0.0000000000000D+00
   325  3.2400000000000D+00  0.0000000000000D+00  0.0000000000000D+00
   326  3.2500000000000D+00  0.0000000000000D+00  0.0000000000000D+00
   327  3.2600000000000D+00  0.0000000000000D+00  0.0000000000000D+00
   328  3.2700000000000D+00  0.0000000000000D+00  0.0000000000000D+00
   329  3.2800000000000D+00  0.0000000000000D+00  0.0000000000000D+00
   330  3.2900000000000D+00  0.0000000000000D+00  0.0000000000000D+00
   331  3.3000000000000D+00  0.0000000000000D+00  0.0000000000000D+00
   332  3.3100000000000D+00  0.0000000000000D+00  0.0000000000000D+00
   333  3.3200000000000D+00  0.0000000000000D+00  0.0000000000000D+00
   334  3.3300000000000D+00  0.0000000000000D+00  0.0000000000000D+00
   335  3.3400000000000D+00  0.0000000000000D+00  0.0000000000000D+00
   336  3.3500000000000D+00  0.0000000000000D+00  0.0000000000000D+00
   337  3.3600000000000D+00  0.0000000000000D+00  0.0000000000000D+00
   338  3.3700000000000D+00  0.0000000000000D+00  0.0000000000000D+00
   339  3.3800000000000D+00  0.0000000000000D+00  0.0000000000000D+00
   340  3.3900000000000D+00  0.0000000000000D+00  0.0000000000000D+00
   341  3.4000000000000D+00  0.0000000000000D+00  0.0000000000000D+00
   342  3.4100000000000D+00  0.0000000000000D+00  0.0000000000000D+00
   343  3.4200000000000D+00  0.0000000000000D+00  0.0000000000000D+00
   344  3.4300000000000D+00  0.0000000000000D+00  0.0000000000000D+00
   345  3.4400000000000D+00  0.0000000000000D+00  0.0000000000000D+00
   346  3.4500000000000D+00  0.0000000000000D+00  0.0000000000000D+00
   347  3.4600000000000D+00  0.0000000000000D+00  0.0000000000000D+00
   348  3.4700000000000D+00  0.0000000000000D+00  0.0000000000000D+00
   349  3.4800000000000D+00  0.0000000000000D+00  0.0000000000000D+00
   350  3.4900000000000D+00  0.0000000000000D+00  0.0000000000000D+00
   351  3.5000000000000D+00  0.0000000000000D+00  0.0000000000000D+00
   352  3.5100000000000D+00  0.0000000000000D+00  0.0000000000000D+00
   353  3.5200000000000D+00  0.0000000000000D+00  0.0000000000000D+00
   354  3.5300000000000D+00  0.0000000000000D+00  0.0000000000000D+00
   355  3.5400000000000D+00  0.0000000000000D+00  0.0000000000000D+00
   356  3.5500000000000D+00  0.0000000000000D+00  0.0000000000000D+00
   357  3.5600000000000D+00  0.0000000000000D+00  0.0000000000000D+00
   358  3.5700000000000D+00  0.0000000000000D+00  0.0000000000000D+00
   359  3.5800000000000D+00  0.0000000000000D+00  0.0000000000000D+00
   360  3.5900000000000D+00  0.0000000000000D+00  0.0000000000000D+00
   361  3.6000000000000D+00  0.0000000000000D+00  0.0000000000000D+00
   362  3.6100000000000D+00  0.0000000000000D+00  0.0000000000000D+00
   363  3.6200000000000D+00  0.0000000000000D+00  0.0000000000000D+00
   364  3.6300000000000D+00  0.0000000000000D+00  0.0000000000000D+00
   365  3.6400000000000D+00  0.0000000000000D+00  0.0000000000000D+00
   366  3.6500000000000D+00  0.0000000000000D+00  0.0000000000000D+00
   367  3.6600000000000D+00  0.0000000000000D+00  0.0000000000000D+00
   368  3.6700000000000D+00  0.0000000000000D+00  0.0000000000000D+00
   369  3.6800000000000D+00  0.0000000000000D+00  0.0000000000000D+00
   370  3.6900000000000D+00  0.0000000000000D+00  0.0000000000000D+00
   371  3.7000000000000D+00  0.0000000000000D+00  0.0000000000000D+00
   372  3.7100000000000D+00  0.0000000000000D+00  0.0000000000000D+00
   373  3.7200000000000D+00  0.0000000000000D+00  0.0000000000000D+00
   374  3.7300000000000D+00  0.0000000000000D+00  0.0000000000000D+00
   375  3.7400000000000D+00  0.0000000000000D+00  0.0000000000000D+00
   376  3.7500000000000D+00  0.0000000000000D+00  0.0000000000000D+00
   377  3.7600000000000D+00  0.0000000000000D+00  0.0000000000000D+00
   378  3.7700000000000D+00  0.0000000000000D+00  0.0000000000000D+00
   379  3.7800000000000D+00  0.0000000000000D+00  0.0000000000000D+00
   380  3.7900000000000D+00  0.0000000000000D+00  0.0000000000000D+00
   381  3.8000000000000D+00  0.0000000000000D+00  0.0000000000000D+00
   382  3.8100000000000D+00  0.0000000000000D+00  0.0000000000000D+00
   383  3.8200000000000D+00  0.0000000000000D+00  0.0000000000000D+00
   384  3.8300000000000D+00  0.0000000000000D+00  0.0000000000000D+00
   385  3.8400000000000D+00  0.0000000000000D+00  0.0000000000000D+00
   386  3.8500000000000D+00  0.0000000000000D+00  0.0000000000000D+00
   387  3.8600000000000D+00  0.0000000000000D+00  0.0000000000000D+00
   388  3.8700000000000D+00  0.0000000000000D+00  0.0000000000000D+00
   389  3.8800000000000D+00  0.0000000000000D+00  0.0000000000000D+00
   390  3.8900000000000D+00  0.0000000000000D+00  0.0000000000000D+00
   391  3.9000000000000D+00  0.0000000000000D+00  0.0000000000000D+00
   392  3.9100000000000D+00  0.0000000000000D+00  0.0000000000000D+00
   393  3.9200000000000D+00  0.0000000000000D+00  0.0000000000000D+00
   394  3.9300000000000D+00  0.0000000000000D+00  0.0000000000000D+00
   395  3.9400000000000D+00  0.0000000000000D+00  0.0000000000000D+00
   396  3.9500000000000D+00  0.0000000000000D+00  0.0000000000000D+00
   397  3.9600000000000D+00  0.0000000000000D+00  0.0000000000000D+00
   398  3.9700000000000D+00  0.0000000000000D+00  0.0000000000000D+00
   399  3.9800000000000D+00  0.0000000000000D+00  0.0000000000000D+00
   400  3.9900000000000D+00  0.0000000000000D+00  0.0000000000000D+00
   401  4.0000000000000D+00  0.0000000000000D+00  0.0000000000000D+00
   402  4.0100000000000D+00  0.0000000000000D+00  0.0000000000000D+00
   403  4.0200000000000D+00  0.0000000000000D+00  0.0000000000000D+00
   404  4.0300000000000D+00  0.0000000000000D+00  0.0000000000000D+00
   405  4.0400000000000D+00  0.0000000000000D+00  0.0000000000000D+00
   406  4.0500000000000D+00  0.0000000000000D+00  0.0000000000000D+00
   407  4.0600000000000D+00  0.0000000000000D+00  0.0000000000000D+00
   408  4.0700000000000D+00  0.0000000000000D+00  0.0000000000000D+00
   409  4.0800000000000D+00  0.0000000000000D+00  0.0000000000000D+00
   410  4.0900000000000D+00  0.0000000000000D+00  0.0000000000000D+00
   411  4.1000000000000D+00  0.0000000000000D+00  0.0000000000000D+00
   412  4.1100000000000D+00  0.0000000000000D+00  0.0000000000000D+00
   413  4.1200000000000D+00  0.0000000000000D+00  0.0000000000000D+00
   414  4.1300000000000D+00  0.0000000000000D+00  0.0000000000000D+00
   415  4.1400000000000D+00  0.0000000000000D+00  0.0000000000000D+00
   416  4.1500000000000D+00  0.0000000000000D+00  0.0000000000000D+00
   417  4.1600000000000D+00  0.0000000000000D+00  0.0000000000000D+00
   418  4.1700000000000D+00  0.0000000000000D+00  0.0000000000000D+00
   419  4.1800000000000D+00  0.0000000000000D+00  0.0000000000000D+00
   420  4.1900000000000D+00  0.0000000000000D+00  0.0000000000000D+00
   421  4.2000000000000D+00  0.0000000000000D+00  0.0000000000000D+00
   422  4.2100000000000D+00  0.0000000000000D+00  0.0000000000000D+00