I     ONCVPSP-3.3.1  r_core=   2.41629   3.33444   3.21723
     53.0000     17.0000      210905    zatom,zion,pspd
     8 -116133   2     4   600     0    pspcod,pspxc,lmax,lloc,mmax,r2well
  5.99000000  0.00000000  0.00000000    rchrg fchrg qchrg
     2     2     2     0     0    nproj
     1     1           extension_switch
   0                         7.6663053888661D+00  1.8409523974055D+00
     1  0.0000000000000D+00  4.0133035783541D-12 -2.0732165983972D-11
     2  1.0000000000000D-02  1.1239848062666D-02  2.8541562711616D-02
     3  2.0000000000000D-02  2.2517518178415D-02  5.6957705132462D-02
     4  3.0000000000000D-02  3.3870668390665D-02  8.5123523810842D-02
     5  4.0000000000000D-02  4.5336629226998D-02  1.1291514711062D-01
     6  5.0000000000000D-02  5.6952241198936D-02  1.4021024646777D-01
     7  6.0000000000000D-02  6.8753693808177D-02  1.6688854207984D-01
     8  7.0000000000000D-02  8.0776366556751D-02  1.9283230119710D-01
     9  8.0000000000000D-02  9.3054672454559D-02  2.1792682720438D-01
    10  9.0000000000000D-02  1.0562190451271D-01  2.4206093770907D-01
    11  1.0000000000000D-01  1.1851008570498D-01  2.6512742988128D-01
    12  1.1000000000000D-01  1.3174982287262D-01  2.8702353132904D-01
    13  1.2000000000000D-01  1.4537016503951D-01  3.0765133483222D-01
    14  1.3000000000000D-01  1.5939846659535D-01  3.2691821530581D-01
    15  1.4000000000000D-01  1.7386025579432D-01  3.4473722741468D-01
    16  1.5000000000000D-01  1.8877910900500D-01  3.6102748231863D-01
    17  1.6000000000000D-01  2.0417653113486D-01  3.7571450208844D-01
    18  1.7000000000000D-01  2.2007184263862D-01  3.8873055040023D-01
    19  1.8000000000000D-01  2.3648207350527D-01  4.0001493818709D-01
    20  1.9000000000000D-01  2.5342186460178D-01  4.0951430300371D-01
    21  2.0000000000000D-01  2.7090337673495D-01  4.1718286094059D-01
    22  2.1000000000000D-01  2.8893620777364D-01  4.2298263001069D-01
    23  2.2000000000000D-01  3.0752731815451D-01  4.2688362402154D-01
    24  2.3000000000000D-01  3.2668096507297D-01  4.2886401604097D-01
    25  2.4000000000000D-01  3.4639864563940D-01  4.2891027066323D-01
    26  2.5000000000000D-01  3.6667904925691D-01  4.2701724438575D-01
    27  2.6000000000000D-01  3.8751801945294D-01  4.2318825351332D-01
    28  2.7000000000000D-01  4.0890852537089D-01  4.1743510911737D-01
    29  2.8000000000000D-01  4.3084064310155D-01  4.0977811869132D-01
    30  2.9000000000000D-01  4.5330154700612D-01  4.0024605426041D-01
    31  3.0000000000000D-01  4.7627551115368D-01  3.8887608682350D-01
    32  3.1000000000000D-01  4.9974392096614D-01  3.7571368712698D-01
    33  3.2000000000000D-01  5.2368529513287D-01  3.6081249289435D-01
    34  3.3000000000000D-01  5.4807531782537D-01  3.4423414276147D-01
    35  3.4000000000000D-01  5.7288688120999D-01  3.2604807729407D-01
    36  3.5000000000000D-01  5.9809013822337D-01  3.0633130759234D-01
    37  3.6000000000000D-01  6.2365256554133D-01  2.8516815211535D-01
    38  3.7000000000000D-01  6.4953903663778D-01  2.6264994248672D-01
    39  3.8000000000000D-01  6.7571190479505D-01  2.3887469917013D-01
    40  3.9000000000000D-01  7.0213109589218D-01  2.1394677803000D-01
    41  4.0000000000000D-01  7.2875421076216D-01  1.8797648891752D-01
    42  4.1000000000000D-01  7.5553663687394D-01  1.6107968754491D-01
    43  4.2000000000000D-01  7.8243166905934D-01  1.3337734203060D-01
    44  4.3000000000000D-01  8.0939063897025D-01  1.0499507561499D-01
    45  4.4000000000000D-01  8.3636305291643D-01  7.6062687158773D-02
    46  4.5000000000000D-01  8.6329673770009D-01  4.6713651144584D-02
    47  4.6000000000000D-01  8.9013799402981D-01  1.7084599005570D-02
    48  4.7000000000000D-01  9.1683175706354D-01 -1.2685216297524D-02
    49  4.8000000000000D-01  9.4332176359847D-01 -4.2454470437900D-02
    50  4.9000000000000D-01  9.6955072539517D-01 -7.2080330525145D-02
    51  5.0000000000000D-01  9.9546050809363D-01 -1.0141902837352D-01
    52  5.1000000000000D-01  1.0209923151512D+00 -1.3032644199116D-01
    53  5.2000000000000D-01  1.0460868762060D+00 -1.5865868298418D-01
    54  5.3000000000000D-01  1.0706846392442D+00 -1.8627268751682D-01
    55  5.4000000000000D-01  1.0947259659293D+00 -2.1302680842559D-01
    56  5.5000000000000D-01  1.1181513294259D+00 -2.3878140605167D-01
    57  5.6000000000000D-01  1.1409015140397D+00 -2.6339943533193D-01
    58  5.7000000000000D-01  1.1629178159710D+00 -2.8674702667591D-01
    59  5.8000000000000D-01  1.1841422444729D+00 -3.0869405815314D-01
    60  5.9000000000000D-01  1.2045177226888D+00 -3.2911471652345D-01
    61  6.0000000000000D-01  1.2239882874398D+00 -3.4788804466234D-01
    62  6.1000000000000D-01  1.2424992872243D+00 -3.6489847296370D-01
    63  6.2000000000000D-01  1.2599975776909D+00 -3.8003633234443D-01
    64  6.3000000000000D-01  1.2764317138455D+00 -3.9319834652812D-01
    65  6.4000000000000D-01  1.2917521382589D+00 -4.0428810135005D-01
    66  6.5000000000000D-01  1.3059113645442D+00 -4.1321648890093D-01
    67  6.6000000000000D-01  1.3188641553855D+00 -4.1990212441396D-01
    68  6.7000000000000D-01  1.3305676944133D+00 -4.2427173389737D-01
    69  6.8000000000000D-01  1.3409817512330D+00 -4.2626051062264D-01
    70  6.9000000000000D-01  1.3500688389386D+00 -4.2581243869722D-01
    71  7.0000000000000D-01  1.3577943634598D+00 -4.2288058207891D-01
    72  7.1000000000000D-01  1.3641267641188D+00 -4.1742733752687D-01
    73  7.2000000000000D-01  1.3690376448020D+00 -4.0942465013012D-01
    74  7.3000000000000D-01  1.3725018951797D+00 -3.9885419021002D-01
    75  7.4000000000000D-01  1.3744978014437D+00 -3.8570749055518D-01
    76  7.5000000000000D-01  1.3750071460671D+00 -3.6998604311655D-01
    77  7.6000000000000D-01  1.3740152961313D+00 -3.5170135446622D-01
    78  7.7000000000000D-01  1.3715112798049D+00 -3.3087495950413D-01
    79  7.8000000000000D-01  1.3674878506038D+00 -3.0753839308262D-01
    80  7.9000000000000D-01  1.3619415391080D+00 -2.8173311940736D-01
    81  8.0000000000000D-01  1.3548726918571D+00 -2.5351041926597D-01
    82  8.1000000000000D-01  1.3462854971967D+00 -2.2293123532844D-01
    83  8.2000000000000D-01  1.3361879978978D+00 -1.9006597595870D-01
    84  8.3000000000000D-01  1.3245920904256D+00 -1.5499427817078D-01
    85  8.4000000000000D-01  1.3115135107828D+00 -1.1780473055631D-01
    86  8.5000000000000D-01  1.2969718069119D+00 -7.8594557201431D-02
    87  8.6000000000000D-01  1.2809902976914D+00 -3.7469263798780D-02
    88  8.7000000000000D-01  1.2635960186161D+00  5.4577526554614D-03
    89  8.8000000000000D-01  1.2448196543087D+00  5.0065629011597D-02
    90  8.9000000000000D-01  1.2246954580620D+00  9.6226494222633D-02
    91  9.0000000000000D-01  1.2032611586653D+00  1.4380595880093D-01
    92  9.1000000000000D-01  1.1805578548242D+00  1.9266363341222D-01
    93  9.2000000000000D-01  1.1566298975318D+00  2.4265367439575D-01
    94  9.3000000000000D-01  1.1315247608032D+00  2.9362535386121D-01
    95  9.4000000000000D-01  1.1052929012332D+00  3.4542365188489D-01
    96  9.5000000000000D-01  1.0779876068853D+00  3.9788986821207D-01
    97  9.6000000000000D-01  1.0496648360659D+00  4.5086225076854D-01
    98  9.7000000000000D-01  1.0203830465805D+00  5.0417663819208D-01
    99  9.8000000000000D-01  9.9020301611130D-01  5.5766711351806D-01
   100  9.9000000000000D-01  9.5918765439098D-01  6.1116666608877D-01
   101  1.0000000000000D+00  9.2740180788691D-01  6.6450785870695D-01
   102  1.0100000000000D+00  8.9491205773900D-01  7.1752349701886D-01
   103  1.0200000000000D+00  8.6178651172575D-01  7.7004729809310D-01
   104  1.0300000000000D+00  8.2809459105773D-01  8.2191455515644D-01
   105  1.0400000000000D+00  7.9390681282094D-01  8.7296279545832D-01
   106  1.0500000000000D+00  7.5929456891088D-01  9.2303242826276D-01
   107  1.0600000000000D+00  7.2432990231321D-01  9.7196738000711D-01
   108  1.0700000000000D+00  6.8908528159809D-01  1.0196157137248D+00
   109  1.0800000000000D+00  6.5363337450260D-01  1.0658302299016D+00
   110  1.0900000000000D+00  6.1804682147944D-01  1.1104690460138D+00
   111  1.1000000000000D+00  5.8239801008945D-01  1.1533961521103D+00
   112  1.1100000000000D+00  5.4675885111158D-01  1.1944819398999D+00
   113  1.1200000000000D+00  5.1120055723380D-01  1.2336037029538D+00
   114  1.1300000000000D+00  4.7579342518017D-01  1.2706461057374D+00
   115  1.1400000000000D+00  4.4060662210987D-01  1.3055016193756D+00
   116  1.1500000000000D+00  4.0570797710668D-01  1.3380709221902D+00
   117  1.1600000000000D+00  3.7116377854991D-01  1.3682632632550D+00
   118  1.1700000000000D+00  3.3703857814107D-01  1.3959967873302D+00
   119  1.1800000000000D+00  3.0339500231962D-01  1.4211988198025D+00
   120  1.1900000000000D+00  2.7029357177331D-01  1.4438061104137D+00
   121  1.2000000000000D+00  2.3779252971007D-01  1.4637650347795D+00
   122  1.2100000000000D+00  2.0594767952925D-01  1.4810317528619D+00
   123  1.2200000000000D+00  1.7481223247392D-01  1.4955723238430D+00
   124  1.2300000000000D+00  1.4443666580216D-01  1.5073627770539D+00
   125  1.2400000000000D+00  1.1486859199642D-01  1.5163891387085D+00
   126  1.2500000000000D+00  8.6152639445949D-02  1.5226474145762D+00
   127  1.2600000000000D+00  5.8330344998255D-02  1.5261435288814D+00
   128  1.2700000000000D+00  3.1440058751165D-02  1.5268932198262D+00
   129  1.2800000000000D+00  5.5168613716500D-03  1.5249218924901D+00
   130  1.2900000000000D+00 -1.9407505827262D-02  1.5202644300449D+00
   131  1.3000000000000D+00 -4.3304697828069D-02  1.5129649642703D+00
   132  1.3100000000000D+00 -6.6149809748099D-02  1.5030766067284D+00
   133  1.3200000000000D+00 -8.7921407512338D-02  1.4906611421220D+00
   134  1.3300000000000D+00 -1.0860154527852D-01  1.4757886853283D+00
   135  1.3400000000000D+00 -1.2817576967899D-01  1.4585373040564D+00
   136  1.3500000000000D+00 -1.4663311095557D-01  1.4389926090790D+00
   137  1.3600000000000D+00 -1.6396606106382D-01  1.4172473140251D+00
   138  1.3700000000000D+00 -1.8017053898774D-01  1.3934007671388D+00
   139  1.3800000000000D+00 -1.9524584344715D-01  1.3675584572367D+00
   140  1.3900000000000D+00 -2.0919459326312D-01  1.3398314963393D+00
   141  1.4000000000000D+00 -2.2202265575146D-01  1.3103360815935D+00
   142  1.4100000000000D+00 -2.3373906342020D-01  1.2791929389786D+00
   143  1.4200000000000D+00 -2.4435591944407D-01  1.2465267515928D+00
   144  1.4300000000000D+00 -2.5388829231777D-01  1.2124655751555D+00
   145  1.4400000000000D+00 -2.6235410014258D-01  1.1771402435214D+00
   146  1.4500000000000D+00 -2.6977398511088D-01  1.1406837669240D+00
   147  1.4600000000000D+00 -2.7617117863673D-01  1.1032307257540D+00
   148  1.4700000000000D+00 -2.8157135777371D-01  1.0649166625595D+00
   149  1.4800000000000D+00 -2.8600249344576D-01  1.0258774749875D+00
   150  1.4900000000000D+00 -2.8949469111794D-01  9.8624881238115D-01
   151  1.5000000000000D+00 -2.9208002452927D-01  9.4616547844237D-01
   152  1.5100000000000D+00 -2.9379236309944D-01  9.0576084280458D-01
   153  1.5200000000000D+00 -2.9466719368051D-01  8.6516626345770D-01
   154  1.5300000000000D+00 -2.9474143727706D-01  8.2451052292912D-01
   155  1.5400000000000D+00 -2.9405326140741D-01  7.8391927983490D-01
   156  1.5500000000000D+00 -2.9264188874858D-01  7.4351453837315D-01
   157  1.5600000000000D+00 -2.9054740272524D-01  7.0341413737989D-01
   158  1.5700000000000D+00 -2.8781055067483D-01  6.6373126084951D-01
   159  1.5800000000000D+00 -2.8447254525399D-01  6.2457397170463D-01
   160  1.5900000000000D+00 -2.8057486466277D-01  5.8604476988104D-01
   161  1.6000000000000D+00 -2.7615905237848D-01  5.4824017674485D-01
   162  1.6100000000000D+00 -2.7126651687887D-01  5.1125034598150D-01
   163  1.6200000000000D+00 -2.6593833119503D-01  4.7515869979618D-01
   164  1.6300000000000D+00 -2.6021503890611D-01  4.4004161356383D-01
   165  1.6400000000000D+00 -2.5413644183040D-01  4.0596805612913D-01
   166  1.6500000000000D+00 -2.4774144980187D-01  3.7299947421097D-01
   167  1.6600000000000D+00 -2.4106783589664D-01  3.4118937094233D-01
   168  1.6700000000000D+00 -2.3415199491340D-01  3.1058286380088D-01
   169  1.6800000000000D+00 -2.2702899756782D-01  2.8121743389769D-01
   170  1.6900000000000D+00 -2.1973257972023D-01  2.5312342995789D-01
   171  1.7000000000000D+00 -2.1229522080524D-01  2.2632470011526D-01
   172  1.7100000000000D+00 -2.0474829043189D-01  2.0083951626854D-01
   173  1.7200000000000D+00 -1.9712191880965D-01  1.7668039593543D-01
   174  1.7300000000000D+00 -1.8944492076232D-01  1.5385408585409D-01
   175  1.7400000000000D+00 -1.8174478699349D-01  1.3236187045168D-01
   176  1.7500000000000D+00 -1.7404763278546D-01  1.1219968228507D-01
   177  1.7600000000000D+00 -1.6637817227717D-01  9.3358319163223D-02
   178  1.7700000000000D+00 -1.5875969295372D-01  7.5823657268080D-02
   179  1.7800000000000D+00 -1.5121403741683D-01  5.9576888349064D-02
   180  1.7900000000000D+00 -1.4376159091014D-01  4.4594773677410D-02
   181  1.8000000000000D+00 -1.3642127511786D-01  3.0849914854334D-02
   182  1.8100000000000D+00 -1.2921054757956D-01  1.8311038319646D-02
   183  1.8200000000000D+00 -1.2214540700178D-01  6.9432925583049D-03
   184  1.8300000000000D+00 -1.1524040399137D-01 -3.2914443335585D-03
   185  1.8400000000000D+00 -1.0850865714756D-01 -1.2434248661246D-02
   186  1.8500000000000D+00 -1.0196187427259D-01 -2.0528828560877D-02
   187  1.8600000000000D+00 -9.5610378306235D-02 -2.7621197089203D-02
   188  1.8700000000000D+00 -8.9463137941966D-02 -3.3759342962917D-02
   189  1.8800000000000D+00 -8.3527802306654D-02 -3.8992900587891D-02
   190  1.8900000000000D+00 -7.7810739728599D-02 -4.3372822319387D-02
   191  1.9000000000000D+00 -7.2317079954509D-02 -4.6951053242776D-02
   192  1.9100000000000D+00 -6.7050759707256D-02 -4.9780212537331D-02
   193  1.9200000000000D+00 -6.2014571119619D-02 -5.1913280828932D-02
   194  1.9300000000000D+00 -5.7210212720524D-02 -5.3403297363871D-02
   195  1.9400000000000D+00 -5.2638342662162D-02 -5.4303067258387D-02
   196  1.9500000000000D+00 -4.8298633819307D-02 -5.4664880526444D-02
   197  1.9600000000000D+00 -4.4189830361994D-02 -5.4540245717717D-02
   198  1.9700000000000D+00 -4.0309805678815D-02 -5.3979636184717D-02
   199  1.9800000000000D+00 -3.6655620953130D-02 -5.3032255029391D-02
   200  1.9900000000000D+00 -3.3223584557106D-02 -5.1745814252691D-02
   201  2.0000000000000D+00 -3.0009311496434D-02 -5.0166333900921D-02
   202  2.0100000000000D+00 -2.7007782942580D-02 -4.8337958882272D-02
   203  2.0200000000000D+00 -2.4213405518001D-02 -4.6302794617671D-02
   204  2.0300000000000D+00 -2.1620069789021D-02 -4.4100764515098D-02
   205  2.0400000000000D+00 -1.9221208386352D-02 -4.1769484259030D-02
   206  2.0500000000000D+00 -1.7009852615407D-02 -3.9344160285470D-02
   207  2.0600000000000D+00 -1.4978688251211D-02 -3.6857505734743D-02
   208  2.0700000000000D+00 -1.3120109751686D-02 -3.4339678073560D-02
   209  2.0800000000000D+00 -1.1426272781316D-02 -3.1818237763251D-02
   210  2.0900000000000D+00 -9.8891454197988D-03 -2.9318124126773D-02
   211  2.1000000000000D+00 -8.5005569510782D-03 -2.6861654378440D-02
   212  2.1100000000000D+00 -7.2522452067848D-03 -2.4468538313751D-02
   213  2.1200000000000D+00 -6.1359015799065D-03 -2.2155912895075D-02
   214  2.1300000000000D+00 -5.1432138483064D-03 -1.9938394632274D-02
   215  2.1400000000000D+00 -4.2659072092389D-03 -1.7828146285781D-02
   216  2.1500000000000D+00 -3.4957825212716D-03 -1.5834962187135D-02
   217  2.1600000000000D+00 -2.8247527817053D-03 -1.3966365531665D-02
   218  2.1700000000000D+00 -2.2448771442644D-03 -1.2227719979026D-02
   219  2.1800000000000D+00 -1.7483925524948D-03 -1.0622353928152D-02
   220  2.1900000000000D+00 -1.3277435586761D-03 -9.1516939052053D-03
   221  2.2000000000000D+00 -9.7560945355711D-04 -7.8154092264104D-03
   222  2.2100000000000D+00 -6.8492956633913D-04 -6.6115636411653D-03
   223  2.2200000000000D+00 -4.4892644169247D-04 -5.5367737143766D-03
   224  2.2300000000000D+00 -2.6112679154838D-04 -4.5863727078399D-03
   225  2.2400000000000D+00 -1.1538074089347D-04 -3.7545780945799D-03
   226  2.2500000000000D+00 -5.8790195831663D-06 -3.0346611100283D-03
   227  2.2600000000000D+00  7.2831610194873D-05 -2.4191170695143D-03
   228  2.2700000000000D+00  1.2583455406696D-04 -1.8998360102469D-03
   229  2.2800000000000D+00  1.5783129482670D-04 -1.4682694532471D-03
   230  2.2900000000000D+00  1.7313077966921D-04 -1.1155953169285D-03
   231  2.3000000000000D+00  1.7564024363259D-04 -8.3287793080172D-04
   232  2.3100000000000D+00  1.6885731298626D-04 -6.1122009836068D-04
   233  2.3200000000000D+00  1.5586347356894D-04 -4.4191093868710D-04
   234  2.3300000000000D+00  1.3931856969794D-04 -3.1656293721835D-04
   235  2.3400000000000D+00  1.2153780902298D-04 -2.2739247254806D-04
   236  2.3500000000000D+00  1.0417651013041D-04 -1.6675181995617D-04
   237  2.3600000000000D+00  8.8493284182453D-05 -1.2775993204338D-04
   238  2.3700000000000D+00  7.4875842536455D-05 -1.0371117719868D-04
   239  2.3800000000000D+00  6.5506676500217D-05 -9.2078468234379D-05
   240  2.3900000000000D+00  6.1501417272115D-05 -9.0273071510547D-05
   241  2.4000000000000D+00  6.2411537388551D-05 -9.4918256665681D-05
   242  2.4100000000000D+00  6.0908892734780D-05 -9.4245574822822D-05
   243  2.4200000000000D+00  5.0615367000437D-05 -7.8798239876882D-05
   244  2.4300000000000D+00  3.0356323352405D-05 -4.7443409174877D-05
   245  2.4400000000000D+00  9.2013692006811D-06 -1.4403164425498D-05
   246  2.4500000000000D+00 -3.7941798092278D-06  5.9719634221863D-06
   247  2.4600000000000D+00 -5.8153264363532D-06  9.1695789669528D-06
   248  2.4700000000000D+00 -2.3046512690772D-06  3.6389634350207D-06
   249  2.4800000000000D+00  8.3720777095200D-07 -1.3107079964788D-06
   250  2.4900000000000D+00  1.3173225894858D-06 -2.0631832111782D-06
   251  2.5000000000000D+00  5.3328448094493D-07 -8.3550327367080D-07
   252  2.5100000000000D+00 -9.9548097174537D-08  1.5460031806793D-07
   253  2.5200000000000D+00 -1.5853123270580D-07  2.4620238553677D-07
   254  2.5300000000000D+00 -6.6817226739973D-08  1.0376857820100D-07
   255  2.5400000000000D+00  0.0000000000000D+00  0.0000000000000D+00
   256  2.5500000000000D+00  0.0000000000000D+00  0.0000000000000D+00
   257  2.5600000000000D+00  0.0000000000000D+00  0.0000000000000D+00
   258  2.5700000000000D+00  0.0000000000000D+00  0.0000000000000D+00
   259  2.5800000000000D+00  0.0000000000000D+00  0.0000000000000D+00
   260  2.5900000000000D+00  0.0000000000000D+00  0.0000000000000D+00
   261  2.6000000000000D+00  0.0000000000000D+00  0.0000000000000D+00
   262  2.6100000000000D+00  0.0000000000000D+00  0.0000000000000D+00
   263  2.6200000000000D+00  0.0000000000000D+00  0.0000000000000D+00
   264  2.6300000000000D+00  0.0000000000000D+00  0.0000000000000D+00
   265  2.6400000000000D+00  0.0000000000000D+00  0.0000000000000D+00
   266  2.6500000000000D+00  0.0000000000000D+00  0.0000000000000D+00
   267  2.6600000000000D+00  0.0000000000000D+00  0.0000000000000D+00
   268  2.6700000000000D+00  0.0000000000000D+00  0.0000000000000D+00
   269  2.6800000000000D+00  0.0000000000000D+00  0.0000000000000D+00
   270  2.6900000000000D+00  0.0000000000000D+00  0.0000000000000D+00
   271  2.7000000000000D+00  0.0000000000000D+00  0.0000000000000D+00
   272  2.7100000000000D+00  0.0000000000000D+00  0.0000000000000D+00
   273  2.7200000000000D+00  0.0000000000000D+00  0.0000000000000D+00
   274  2.7300000000000D+00  0.0000000000000D+00  0.0000000000000D+00
   275  2.7400000000000D+00  0.0000000000000D+00  0.0000000000000D+00
   276  2.7500000000000D+00  0.0000000000000D+00  0.0000000000000D+00
   277  2.7600000000000D+00  0.0000000000000D+00  0.0000000000000D+00
   278  2.7700000000000D+00  0.0000000000000D+00  0.0000000000000D+00
   279  2.7800000000000D+00  0.0000000000000D+00  0.0000000000000D+00
   280  2.7900000000000D+00  0.0000000000000D+00  0.0000000000000D+00
   281  2.8000000000000D+00  0.0000000000000D+00  0.0000000000000D+00
   282  2.8100000000000D+00  0.0000000000000D+00  0.0000000000000D+00
   283  2.8200000000000D+00  0.0000000000000D+00  0.0000000000000D+00
   284  2.8300000000000D+00  0.0000000000000D+00  0.0000000000000D+00
   285  2.8400000000000D+00  0.0000000000000D+00  0.0000000000000D+00
   286  2.8500000000000D+00  0.0000000000000D+00  0.0000000000000D+00
   287  2.8600000000000D+00  0.0000000000000D+00  0.0000000000000D+00
   288  2.8700000000000D+00  0.0000000000000D+00  0.0000000000000D+00
   289  2.8800000000000D+00  0.0000000000000D+00  0.0000000000000D+00
   290  2.8900000000000D+00  0.0000000000000D+00  0.0000000000000D+00
   291  2.9000000000000D+00  0.0000000000000D+00  0.0000000000000D+00
   292  2.9100000000000D+00  0.0000000000000D+00  0.0000000000000D+00
   293  2.9200000000000D+00  0.0000000000000D+00  0.0000000000000D+00
   294  2.9300000000000D+00  0.0000000000000D+00  0.0000000000000D+00
   295  2.9400000000000D+00  0.0000000000000D+00  0.0000000000000D+00
   296  2.9500000000000D+00  0.0000000000000D+00  0.0000000000000D+00
   297  2.9600000000000D+00  0.0000000000000D+00  0.0000000000000D+00
   298  2.9700000000000D+00  0.0000000000000D+00  0.0000000000000D+00
   299  2.9800000000000D+00  0.0000000000000D+00  0.0000000000000D+00
   300  2.9900000000000D+00  0.0000000000000D+00  0.0000000000000D+00
   301  3.0000000000000D+00  0.0000000000000D+00  0.0000000000000D+00
   302  3.0100000000000D+00  0.0000000000000D+00  0.0000000000000D+00
   303  3.0200000000000D+00  0.0000000000000D+00  0.0000000000000D+00
   304  3.0300000000000D+00  0.0000000000000D+00  0.0000000000000D+00
   305  3.0400000000000D+00  0.0000000000000D+00  0.0000000000000D+00
   306  3.0500000000000D+00  0.0000000000000D+00  0.0000000000000D+00
   307  3.0600000000000D+00  0.0000000000000D+00  0.0000000000000D+00
   308  3.0700000000000D+00  0.0000000000000D+00  0.0000000000000D+00
   309  3.0800000000000D+00  0.0000000000000D+00  0.0000000000000D+00
   310  3.0900000000000D+00  0.0000000000000D+00  0.0000000000000D+00
   311  3.1000000000000D+00  0.0000000000000D+00  0.0000000000000D+00
   312  3.1100000000000D+00  0.0000000000000D+00  0.0000000000000D+00
   313  3.1200000000000D+00  0.0000000000000D+00  0.0000000000000D+00
   314  3.1300000000000D+00  0.0000000000000D+00  0.0000000000000D+00
   315  3.1400000000000D+00  0.0000000000000D+00  0.0000000000000D+00
   316  3.1500000000000D+00  0.0000000000000D+00  0.0000000000000D+00
   317  3.1600000000000D+00  0.0000000000000D+00  0.0000000000000D+00
   318  3.1700000000000D+00  0.0000000000000D+00  0.0000000000000D+00
   319  3.1800000000000D+00  0.0000000000000D+00  0.0000000000000D+00
   320  3.1900000000000D+00  0.0000000000000D+00  0.0000000000000D+00
   321  3.2000000000000D+00  0.0000000000000D+00  0.0000000000000D+00
   322  3.2100000000000D+00  0.0000000000000D+00  0.0000000000000D+00
   323  3.2200000000000D+00  0.0000000000000D+00  0.0000000000000D+00
   324  3.2300000000000D+00  0.0000000000000D+00  0.0000000000000D+00
   325  3.2400000000000D+00  0.0000000000000D+00  0.0000000000000D+00
   326  3.2500000000000D+00  0.0000000000000D+00  0.0000000000000D+00
   327  3.2600000000000D+00  0.0000000000000D+00  0.0000000000000D+00
   328  3.2700000000000D+00  0.0000000000000D+00  0.0000000000000D+00
   329  3.2800000000000D+00  0.0000000000000D+00  0.0000000000000D+00
   330  3.2900000000000D+00  0.0000000000000D+00  0.0000000000000D+00
   331  3.3000000000000D+00  0.0000000000000D+00  0.0000000000000D+00
   332  3.3100000000000D+00  0.0000000000000D+00  0.0000000000000D+00
   333  3.3200000000000D+00  0.0000000000000D+00  0.0000000000000D+00
   334  3.3300000000000D+00  0.0000000000000D+00  0.0000000000000D+00
   335  3.3400000000000D+00  0.0000000000000D+00  0.0000000000000D+00
   336  3.3500000000000D+00  0.0000000000000D+00  0.0000000000000D+00
   337  3.3600000000000D+00  0.0000000000000D+00  0.0000000000000D+00
   338  3.3700000000000D+00  0.0000000000000D+00  0.0000000000000D+00
   339  3.3800000000000D+00  0.0000000000000D+00  0.0000000000000D+00
   340  3.3900000000000D+00  0.0000000000000D+00  0.0000000000000D+00
   341  3.4000000000000D+00  0.0000000000000D+00  0.0000000000000D+00
   342  3.4100000000000D+00  0.0000000000000D+00  0.0000000000000D+00
   343  3.4200000000000D+00  0.0000000000000D+00  0.0000000000000D+00
   344  3.4300000000000D+00  0.0000000000000D+00  0.0000000000000D+00
   345  3.4400000000000D+00  0.0000000000000D+00  0.0000000000000D+00
   346  3.4500000000000D+00  0.0000000000000D+00  0.0000000000000D+00
   347  3.4600000000000D+00  0.0000000000000D+00  0.0000000000000D+00
   348  3.4700000000000D+00  0.0000000000000D+00  0.0000000000000D+00
   349  3.4800000000000D+00  0.0000000000000D+00  0.0000000000000D+00
   350  3.4900000000000D+00  0.0000000000000D+00  0.0000000000000D+00
   351  3.5000000000000D+00  0.0000000000000D+00  0.0000000000000D+00
   352  3.5100000000000D+00  0.0000000000000D+00  0.0000000000000D+00
   353  3.5200000000000D+00  0.0000000000000D+00  0.0000000000000D+00
   354  3.5300000000000D+00  0.0000000000000D+00  0.0000000000000D+00
   355  3.5400000000000D+00  0.0000000000000D+00  0.0000000000000D+00
   356  3.5500000000000D+00  0.0000000000000D+00  0.0000000000000D+00
   357  3.5600000000000D+00  0.0000000000000D+00  0.0000000000000D+00
   358  3.5700000000000D+00  0.0000000000000D+00  0.0000000000000D+00
   359  3.5800000000000D+00  0.0000000000000D+00  0.0000000000000D+00
   360  3.5900000000000D+00  0.0000000000000D+00  0.0000000000000D+00
   361  3.6000000000000D+00  0.0000000000000D+00  0.0000000000000D+00
   362  3.6100000000000D+00  0.0000000000000D+00  0.0000000000000D+00
   363  3.6200000000000D+00  0.0000000000000D+00  0.0000000000000D+00
   364  3.6300000000000D+00  0.0000000000000D+00  0.0000000000000D+00
   365  3.6400000000000D+00  0.0000000000000D+00  0.0000000000000D+00
   366  3.6500000000000D+00  0.0000000000000D+00  0.0000000000000D+00
   367  3.6600000000000D+00  0.0000000000000D+00  0.0000000000000D+00
   368  3.6700000000000D+00  0.0000000000000D+00  0.0000000000000D+00
   369  3.6800000000000D+00  0.0000000000000D+00  0.0000000000000D+00
   370  3.6900000000000D+00  0.0000000000000D+00  0.0000000000000D+00
   371  3.7000000000000D+00  0.0000000000000D+00  0.0000000000000D+00
   372  3.7100000000000D+00  0.0000000000000D+00  0.0000000000000D+00
   373  3.7200000000000D+00  0.0000000000000D+00  0.0000000000000D+00
   374  3.7300000000000D+00  0.0000000000000D+00  0.0000000000000D+00
   375  3.7400000000000D+00  0.0000000000000D+00  0.0000000000000D+00
   376  3.7500000000000D+00  0.0000000000000D+00  0.0000000000000D+00
   377  3.7600000000000D+00  0.0000000000000D+00  0.0000000000000D+00
   378  3.7700000000000D+00  0.0000000000000D+00  0.0000000000000D+00
   379  3.7800000000000D+00  0.0000000000000D+00  0.0000000000000D+00
   380  3.7900000000000D+00  0.0000000000000D+00  0.0000000000000D+00
   381  3.8000000000000D+00  0.0000000000000D+00  0.0000000000000D+00
   382  3.8100000000000D+00  0.0000000000000D+00  0.0000000000000D+00
   383  3.8200000000000D+00  0.0000000000000D+00  0.0000000000000D+00
   384  3.8300000000000D+00  0.0000000000000D+00  0.0000000000000D+00
   385  3.8400000000000D+00  0.0000000000000D+00  0.0000000000000D+00
   386  3.8500000000000D+00  0.0000000000000D+00  0.0000000000000D+00
   387  3.8600000000000D+00  0.0000000000000D+00  0.0000000000000D+00
   388  3.8700000000000D+00  0.0000000000000D+00  0.0000000000000D+00
   389  3.8800000000000D+00  0.0000000000000D+00  0.0000000000000D+00
   390  3.8900000000000D+00  0.0000000000000D+00  0.0000000000000D+00
   391  3.9000000000000D+00  0.0000000000000D+00  0.0000000000000D+00
   392  3.9100000000000D+00  0.0000000000000D+00  0.0000000000000D+00
   393  3.9200000000000D+00  0.0000000000000D+00  0.0000000000000D+00
   394  3.9300000000000D+00  0.0000000000000D+00  0.0000000000000D+00
   395  3.9400000000000D+00  0.0000000000000D+00  0.0000000000000D+00
   396  3.9500000000000D+00  0.0000000000000D+00  0.0000000000000D+00
   397  3.9600000000000D+00  0.0000000000000D+00  0.0000000000000D+00
   398  3.9700000000000D+00  0.0000000000000D+00  0.0000000000000D+00
   399  3.9800000000000D+00  0.0000000000000D+00  0.0000000000000D+00
   400  3.9900000000000D+00  0.0000000000000D+00  0.0000000000000D+00
   401  4.0000000000000D+00  0.0000000000000D+00  0.0000000000000D+00
   402  4.0100000000000D+00  0.0000000000000D+00  0.0000000000000D+00
   403  4.0200000000000D+00  0.0000000000000D+00  0.0000000000000D+00
   404  4.0300000000000D+00  0.0000000000000D+00  0.0000000000000D+00
   405  4.0400000000000D+00  0.0000000000000D+00  0.0000000000000D+00
   406  4.0500000000000D+00  0.0000000000000D+00  0.0000000000000D+00
   407  4.0600000000000D+00  0.0000000000000D+00  0.0000000000000D+00
   408  4.0700000000000D+00  0.0000000000000D+00  0.0000000000000D+00
   409  4.0800000000000D+00  0.0000000000000D+00  0.0000000000000D+00
   410  4.0900000000000D+00  0.0000000000000D+00  0.0000000000000D+00
   411  4.1000000000000D+00  0.0000000000000D+00  0.0000000000000D+00
   412  4.1100000000000D+00  0.0000000000000D+00  0.0000000000000D+00
   413  4.1200000000000D+00  0.0000000000000D+00  0.0000000000000D+00
   414  4.1300000000000D+00  0.0000000000000D+00  0.0000000000000D+00
   415  4.1400000000000D+00  0.0000000000000D+00  0.0000000000000D+00
   416  4.1500000000000D+00  0.0000000000000D+00  0.0000000000000D+00
   417  4.1600000000000D+00  0.0000000000000D+00  0.0000000000000D+00
   418  4.1700000000000D+00  0.0000000000000D+00  0.0000000000000D+00
   419  4.1800000000000D+00  0.0000000000000D+00  0.0000000000000D+00
   420  4.1900000000000D+00  0.0000000000000D+00  0.0000000000000D+00
   421  4.2000000000000D+00  0.0000000000000D+00  0.0000000000000D+00
   422  4.2100000000000D+00  0.0000000000000D+00  0.0000000000000D+00