I     ONCVPSP-3.3.1  r_core=   2.41629   3.33444   3.21723
     53.0000     17.0000      210905    zatom,zion,pspd
     8 -116133   2     4   600     0    pspcod,pspxc,lmax,lloc,mmax,r2well
  5.99000000  0.00000000  0.00000000    rchrg fchrg qchrg
     2     3     2     0    nproj
     3     1           extension_switch
     4     3     0    nprojso
   0                         1.8387210710219D+00  7.6664677780031D+00
     1  0.0000000000000D+00 -2.0659418620284D-11  3.9754866065778D-12
     2  1.0000000000000D-02  2.8495607906663D-02  1.1253921454346D-02
     3  2.0000000000000D-02  5.6865913638392D-02  2.2545548887793D-02
     4  3.0000000000000D-02  8.4986131273159D-02  3.3912424863018D-02
     5  4.0000000000000D-02  1.1273250553524D-01  4.5391765610835D-02
     6  5.0000000000000D-02  1.3998282247475D-01  5.7020299115740D-02
     7  6.0000000000000D-02  1.6661691458941D-01  6.8834104700446D-02
     8  7.0000000000000D-02  1.9251715855987D-01  8.0868454604450D-02
     9  8.0000000000000D-02  2.1756896379103D-01  9.3157658047680D-02
    10  9.0000000000000D-02  2.4166124997724D-01  1.0573490826527D-01
    11  1.0000000000000D-01  2.6468691194040D-01  1.1863213299348D-01
    12  1.1000000000000D-01  2.8654327002638D-01  1.3187984887976D-01
    13  1.2000000000000D-01  3.0713250438588D-01  1.4550702028165D-01
    14  1.3000000000000D-01  3.2636207151301D-01  1.5954092291037D-01
    15  1.4000000000000D-01  3.4414510146574D-01  1.7400701276421D-01
    16  1.5000000000000D-01  3.6040077424916D-01  1.8892880078577D-01
    17  1.6000000000000D-01  3.7505467390436D-01  2.0432773366446D-01
    18  1.7000000000000D-01  3.8803911891175D-01  2.2022308119194D-01
    19  1.8000000000000D-01  3.9929346758957D-01  2.3663183056350D-01
    20  1.9000000000000D-01  4.0876439724456D-01  2.5356858800221D-01
    21  2.0000000000000D-01  4.1640615591258D-01  2.7104548806554D-01
    22  2.1000000000000D-01  4.2218078561306D-01  2.8907211097596D-01
    23  2.2000000000000D-01  4.2605831613102D-01  3.0765540829713D-01
    24  2.3000000000000D-01  4.2801692843533D-01  3.2679963725673D-01
    25  2.4000000000000D-01  4.2804308694039D-01  3.4650630399500D-01
    26  2.5000000000000D-01  4.2613163992145D-01  3.6677411599487D-01
    27  2.6000000000000D-01  4.2228588750045D-01  3.8759894392528D-01
    28  2.7000000000000D-01  4.1651761672937D-01  4.0897379310362D-01
    29  2.8000000000000D-01  4.0884710341192D-01  4.3088878475710D-01
    30  2.9000000000000D-01  3.9930308042075D-01  4.5333114723453D-01
    31  3.0000000000000D-01  3.8792267238717D-01  4.7628521729186D-01
    32  3.1000000000000D-01  3.7475129676166D-01  4.9973245154470D-01
    33  3.2000000000000D-01  3.5984253136810D-01  5.2365144815054D-01
    34  3.3000000000000D-01  3.4325794869933D-01  5.4801797875186D-01
    35  3.4000000000000D-01  3.2506691732942D-01  5.7280503067883D-01
    36  3.5000000000000D-01  3.0534637094513D-01  5.9798285937743D-01
    37  3.6000000000000D-01  2.8418054562727D-01  6.2351905099486D-01
    38  3.7000000000000D-01  2.6166068614111D-01  6.4937859502019D-01
    39  3.8000000000000D-01  2.3788472212175D-01  6.7552396684310D-01
    40  3.9000000000000D-01  2.1295691516747D-01  7.0191522005907D-01
    41  4.0000000000000D-01  1.8698747797818D-01  7.2851008831370D-01
    42  4.1000000000000D-01  1.6009216679924D-01  7.5526409644391D-01
    43  4.2000000000000D-01  1.3239184855025D-01  7.8213068063848D-01
    44  4.3000000000000D-01  1.0401204413547D-01  8.0906131730527D-01
    45  4.4000000000000D-01  7.5082449544760D-02  8.3600566029801D-01
    46  4.5000000000000D-01  4.5736436462611D-02  8.6291168612118D-01
    47  4.6000000000000D-01  1.6110534205731D-02  8.8972584669817D-01
    48  4.7000000000000D-01 -1.3656105092519D-02  9.1639322925510D-01
    49  4.8000000000000D-01 -4.3422256041156D-02  9.4285772284099D-01
    50  4.9000000000000D-01 -7.3045182199553D-02  9.6906219097421D-01
    51  5.0000000000000D-01 -1.0238120876250D-01  9.9494864987613D-01
    52  5.1000000000000D-01 -1.3128630348059D-01  1.0204584517246D+00
    53  5.2000000000000D-01 -1.5961666351289D-01  1.0455324723338D+00
    54  5.3000000000000D-01 -1.8722930585618D-01  1.0701113026427D+00
    55  5.4000000000000D-01 -2.1398265895148D-01  1.0941354433711D+00
    56  5.5000000000000D-01 -2.3973715303501D-01  1.1175455021827D+00
    57  5.6000000000000D-01 -2.6435580677663D-01  1.1402823926746D+00
    58  5.7000000000000D-01 -2.8770480773554D-01  1.1622875344990D+00
    59  5.8000000000000D-01 -3.0965408416007D-01  1.1835030539073D+00
    60  5.9000000000000D-01 -3.3007786566652D-01  1.2038719839957D+00
    61  6.0000000000000D-01 -3.4885523035094D-01  1.2233384639258D+00
    62  6.1000000000000D-01 -3.6587063591828D-01  1.2418479363846D+00
    63  6.2000000000000D-01 -3.8101443245485D-01  1.2593473425484D+00
    64  6.3000000000000D-01 -3.9418335452290D-01  1.2757853138135D+00
    65  6.4000000000000D-01 -4.0528099032074D-01  1.2911123595622D+00
    66  6.5000000000000D-01 -4.1421822572684D-01  1.3052810502366D+00
    67  6.6000000000000D-01 -4.2091366113326D-01  1.3182461950036D+00
    68  6.7000000000000D-01 -4.2529399907118D-01  1.3299650133067D+00
    69  6.8000000000000D-01 -4.2729440073893D-01  1.3403972996162D+00
    70  6.9000000000000D-01 -4.2685880966159D-01  1.3495055807085D+00
    71  7.0000000000000D-01 -4.2394024083894D-01  1.3572552648249D+00
    72  7.1000000000000D-01 -4.1850103387646D-01  1.3636147820895D+00
    73  7.2000000000000D-01 -4.1051306873951D-01  1.3685557155890D+00
    74  7.3000000000000D-01 -3.9995794292640D-01  1.3720529225506D+00
    75  7.4000000000000D-01 -3.8682710901742D-01  1.3740846450886D+00
    76  7.5000000000000D-01 -3.7112197172648D-01  1.3746326100231D+00
    77  7.6000000000000D-01 -3.5285394375714D-01  1.3736821173162D+00
    78  7.7000000000000D-01 -3.3204445994547D-01  1.3712221167118D+00
    79  7.8000000000000D-01 -3.0872494935764D-01  1.3672452722061D+00
    80  7.9000000000000D-01 -2.8293676519851D-01  1.3617480140242D+00
    81  8.0000000000000D-01 -2.5473107258019D-01  1.3547305778252D+00
    82  8.1000000000000D-01 -2.2416869439202D-01  1.3461970309051D+00
    83  8.2000000000000D-01 -1.9131991570861D-01  1.3361552852201D+00
    84  8.3000000000000D-01 -1.5626424736642D-01  1.3246170971032D+00
    85  8.4000000000000D-01 -1.1909014953251D-01  1.3115980536002D+00
    86  8.5000000000000D-01 -7.9894716280520D-02  1.2971175454047D+00
    87  8.6000000000000D-01 -3.8783322376168D-02  1.2811987264267D+00
    88  8.7000000000000D-01  4.1307663412882D-03  1.2638684600827D+00
    89  8.8000000000000D-01  4.8726817416925D-02  1.2451572524508D+00
    90  8.9000000000000D-01  9.4877089340229D-02  1.2250991724877D+00
    91  9.0000000000000D-01  1.4244732030507D-01  1.2037317595600D+00
    92  9.1000000000000D-01  1.9129724611010D-01  1.1810959185929D+00
    93  9.2000000000000D-01  2.4128114499197D-01  1.1572358031940D+00
    94  9.3000000000000D-01  2.9224840704545D-01  1.1321986871587D+00
    95  9.4000000000000D-01  3.4404412575662D-01  1.1060348248151D+00
    96  9.5000000000000D-01  3.9650970905951D-01  1.0787973007124D+00
    97  9.6000000000000D-01  4.4948350722243D-01  1.0505418692026D+00
    98  9.7000000000000D-01  5.0280145477832D-01  1.0213267845094D+00
    99  9.8000000000000D-01  5.5629772363636D-01  9.9121262191963D-01
   100  9.9000000000000D-01  6.0980538444754D-01  9.6026209076878D-01
   101  1.0000000000000D+00  6.6315707324773D-01  9.2853983993001D-01
   102  1.0100000000000D+00  7.1618566036625D-01  8.9611225654714D-01
   103  1.0200000000000D+00  7.6872491856891D-01  8.6304725878233D-01
   104  1.0300000000000D+00  8.2061018739906D-01  8.2941408337352D-01
   105  1.0400000000000D+00  8.7167903069074D-01  7.9528306882111D-01
   106  1.0500000000000D+00  9.2177188425455D-01  7.6072543504084D-01
   107  1.0600000000000D+00  9.7073269077753D-01  7.2581306033550D-01
   108  1.0700000000000D+00  1.0184095190359D+00  6.9061825654939D-01
   109  1.0800000000000D+00  1.0646551645911D+00  6.5521354327656D-01
   110  1.0900000000000D+00  1.1093277292197D+00  6.1967142199840D-01
   111  1.1000000000000D+00  1.1522911764377D+00  5.8406415102509D-01
   112  1.1100000000000D+00  1.1934158605845D+00  5.4846352211199D-01
   113  1.1200000000000D+00  1.2325790270732D+00  5.1294063961220D-01
   114  1.1300000000000D+00  1.2696652815246D+00  4.7756570301815D-01
   115  1.1400000000000D+00  1.3045670256858D+00  4.4240779372618D-01
   116  1.1500000000000D+00  1.3371848581744D+00  4.0753466684084D-01
   117  1.1600000000000D+00  1.3674279382908D+00  3.7301254880851D-01
   118  1.1700000000000D+00  1.3952143112607D+00  3.3890594165330D-01
   119  1.1800000000000D+00  1.4204711935315D+00  3.0527743454780D-01
   120  1.1900000000000D+00  1.4431352169057D+00  2.7218752342323D-01
   121  1.2000000000000D+00  1.4631526305089D+00  2.3969443928592D-01
   122  1.2100000000000D+00  1.4804794597556D+00  2.0785398587743D-01
   123  1.2200000000000D+00  1.4950816217579D+00  1.7671938726033D-01
   124  1.2300000000000D+00  1.5069349968267D+00  1.4634114586811D-01
   125  1.2400000000000D+00  1.5160254558152D+00  1.1676691153863D-01
   126  1.2500000000000D+00  1.5223488434340D+00  8.8041361967455D-02
   127  1.2600000000000D+00  1.5259109178216D+00  6.0206094978013D-02
   128  1.2700000000000D+00  1.5267272467674D+00  3.3299532981749D-02
   129  1.2800000000000D+00  1.5248230613320D+00  7.3568399160787D-03
   130  1.2900000000000D+00  1.5202330678045D+00 -1.7590149106438D-02
   131  1.3000000000000D+00  1.5130012189754D+00 -4.1512985212225D-02
   132  1.3100000000000D+00  1.5031804460811D+00 -6.4386650120833D-02
   133  1.3200000000000D+00  1.4908323529408D+00 -8.6189587372227D-02
   134  1.3300000000000D+00  1.4760268737721D+00 -1.0690372034330D-01
   135  1.3400000000000D+00  1.4588418966320D+00 -1.2651445711493D-01
   136  1.3500000000000D+00  1.4393628544283D+00 -1.4501068226286D-01
   137  1.3600000000000D+00  1.4176822854844D+00 -1.6238473564518D-01
   138  1.3700000000000D+00  1.3938993660585D+00 -1.7863237842450D-01
   139  1.3800000000000D+00  1.3681194170465D+00 -1.9375274650298D-01
   140  1.3900000000000D+00  1.3404533873390D+00 -2.0774829163243D-01
   141  1.4000000000000D+00  1.3110173164473D+00 -2.2062471056547D-01
   142  1.4100000000000D+00  1.2799317788846D+00 -2.3239086252019D-01
   143  1.4200000000000D+00  1.2473213130987D+00 -2.4305867542732D-01
   144  1.4300000000000D+00  1.2133138375859D+00 -2.5264304135816D-01
   145  1.4400000000000D+00  1.1780400569798D+00 -2.6116170158383D-01
   146  1.4500000000000D+00  1.1416328608292D+00 -2.6863512182686D-01
   147  1.4600000000000D+00  1.1042267178667D+00 -2.7508635814953D-01
   148  1.4700000000000D+00  1.0659570684547D+00 -2.8054091411646D-01
   149  1.4800000000000D+00  1.0269597179223D+00 -2.8502658975385D-01
   150  1.4900000000000D+00  9.8737023350820D-01 -2.8857332292866D-01
   151  1.5000000000000D+00  9.4732334731464D-01 -2.9121302376694D-01
   152  1.5100000000000D+00  9.0695236811742D-01 -2.9297940271941D-01
   153  1.5200000000000D+00  8.6638860397107D-01 -2.9390779294320D-01
   154  1.5300000000000D+00  8.2576079851161D-01 -2.9403496761948D-01
   155  1.5400000000000D+00  7.8519458257090D-01 -2.9339895287788D-01
   156  1.5500000000000D+00  7.4481194367264D-01 -2.9203883696728D-01
   157  1.5600000000000D+00  7.0473071503051D-01 -2.8999457633131D-01
   158  1.5700000000000D+00  6.6506408594987D-01 -2.8730679921883D-01
   159  1.5800000000000D+00  6.2592013541772D-01 -2.8401660749230D-01
   160  1.5900000000000D+00  5.8740138994736D-01 -2.8016537720990D-01
   161  1.6000000000000D+00  5.4960440769445D-01 -2.7579455867062D-01
   162  1.6100000000000D+00  5.1261938898622D-01 -2.7094547640274D-01
   163  1.6200000000000D+00  4.7652981210670D-01 -2.6565912893687D-01
   164  1.6300000000000D+00  4.4141211745135D-01 -2.5997599495193D-01
   165  1.6400000000000D+00  4.0733534737190D-01 -2.5393582115097D-01
   166  1.6500000000000D+00  3.7436102975989D-01 -2.4757747192317D-01
   167  1.6600000000000D+00  3.4254275618682D-01 -2.4093868480191D-01
   168  1.6700000000000D+00  3.1192573974459D-01 -2.3405582924363D-01
   169  1.6800000000000D+00  2.8254756189495D-01 -2.2696395959476D-01
   170  1.6900000000000D+00  2.5443867444225D-01 -2.1969680339244D-01
   171  1.7000000000000D+00  2.2762303050803D-01 -2.1228683895188D-01
   172  1.7100000000000D+00  2.0211900746667D-01 -2.0476544075635D-01
   173  1.7200000000000D+00  1.7793922915714D-01 -1.9716274999639D-01
   174  1.7300000000000D+00  1.5509054986431D-01 -1.8950759855163D-01
   175  1.7400000000000D+00  1.3357436248158D-01 -1.8182749986031D-01
   176  1.7500000000000D+00  1.1338670909518D-01 -1.7414859748110D-01
   177  1.7600000000000D+00  9.4518498015773D-02 -1.6649563911265D-01
   178  1.7700000000000D+00  7.6955716844213D-02 -1.5889195084636D-01
   179  1.7800000000000D+00  6.0679669541799D-02 -1.5135941867299D-01
   180  1.7900000000000D+00  4.5667230233543D-02 -1.4391847573255D-01
   181  1.8000000000000D+00  3.1891113811890D-02 -1.3658809581503D-01
   182  1.8100000000000D+00  1.9320160208932D-02 -1.2938579246370D-01
   183  1.8200000000000D+00  7.9196313263174D-03 -1.2232762395614D-01
   184  1.8300000000000D+00 -2.3484817060131D-03 -1.1542820369303D-01
   185  1.8400000000000D+00 -1.1525142876300D-02 -1.0870071593205D-01
   186  1.8500000000000D+00 -1.9653949077406D-02 -1.0215693662814D-01
   187  1.8600000000000D+00 -2.6780803568857D-02 -9.5807258989741D-02
   188  1.8700000000000D+00 -3.2953587099476D-02 -8.9660723708782D-02
   189  1.8800000000000D+00 -3.8221828326827D-02 -8.3725053251300D-02
   190  1.8900000000000D+00 -4.2636376464515D-02 -7.8006690234753D-02
   191  1.9000000000000D+00 -4.6249076450238D-02 -7.2510839255470D-02
   192  1.9100000000000D+00 -4.9112450681736D-02 -6.7241512062198D-02
   193  1.9200000000000D+00 -5.1279386733341D-02 -6.2201575611161D-02
   194  1.9300000000000D+00 -5.2802834872254D-02 -5.7392802684385D-02
   195  1.9400000000000D+00 -5.3735515631086D-02 -5.2815924760121D-02
   196  1.9500000000000D+00 -5.4129639135691D-02 -4.8470686769326D-02
   197  1.9600000000000D+00 -5.4036639012401D-02 -4.4355903343554D-02
   198  1.9700000000000D+00 -5.3506918902080D-02 -4.0469516428446D-02
   199  1.9800000000000D+00 -5.2589617614713D-02 -3.6808653574394D-02
   200  1.9900000000000D+00 -5.1332388462069D-02 -3.3369687062280D-02
   201  2.0000000000000D+00 -4.9781198548364D-02 -3.0148293105990D-02
   202  2.0100000000000D+00 -4.7980145699022D-02 -2.7139511164958D-02
   203  2.0200000000000D+00 -4.5971294190064D-02 -2.4337803033862D-02
   204  2.0300000000000D+00 -4.3794532261857D-02 -2.1737111168570D-02
   205  2.0400000000000D+00 -4.1487446419540D-02 -1.9330916660992D-02
   206  2.0500000000000D+00 -3.9085219877721D-02 -1.7112295735556D-02
   207  2.0600000000000D+00 -3.6620548454213D-02 -1.5073975452589D-02
   208  2.0700000000000D+00 -3.4123578098080D-02 -1.3208387858226D-02
   209  2.0800000000000D+00 -3.1621863430659D-02 -1.1507722471969D-02
   210  2.0900000000000D+00 -2.9140343458677D-02 -9.9639774812803D-03
   211  2.1000000000000D+00 -2.6701340415809D-02 -8.5690085465462D-03
   212  2.1100000000000D+00 -2.4324574241045D-02 -7.3145761804744D-03
   213  2.1200000000000D+00 -2.2027196925051D-02 -6.1923908232571D-03
   214  2.1300000000000D+00 -1.9823844627150D-02 -5.1941557503258D-03
   215  2.1400000000000D+00 -1.7726704095339D-02 -4.3116082093780D-03
   216  2.1500000000000D+00 -1.5745597680833D-02 -3.5365577883975D-03
   217  2.1600000000000D+00 -1.3888080309664D-02 -2.8609230343872D-03
   218  2.1700000000000D+00 -1.2159550746026D-02 -2.2767656303554D-03
   219  2.1800000000000D+00 -1.0563375516771D-02 -1.7763222038569D-03
   220  2.1900000000000D+00 -9.1010219393715D-03 -1.3520343325293D-03
   221  2.2000000000000D+00 -7.7722024159901D-03 -9.9657587423442D-04
   222  2.2100000000000D+00 -6.5750257024739D-03 -7.0287847611211D-04
   223  2.2200000000000D+00 -5.5061549133835D-03 -4.6415496881066D-04
   224  2.2300000000000D+00 -4.5609710259927D-03 -2.7392054190641D-04
   225  2.2400000000000D+00 -3.7337400175043D-03 -1.2601221766990D-04
   226  2.2500000000000D+00 -3.0177820448711D-03 -1.4606272776859D-05
   227  2.2600000000000D+00 -2.4056413972578D-03  6.5766103849919D-05
   228  2.2700000000000D+00 -1.8892567791396D-03  1.2020478079286D-04
   229  2.2800000000000D+00 -1.4601277287858D-03  1.5342836877460D-04
   230  2.2900000000000D+00 -1.1094791977842D-03  1.6976338593685D-04
   231  2.3000000000000D+00 -8.2842124606528D-04  1.7313486611864D-04
   232  2.3100000000000D+00 -6.0810080671851D-04  1.6705825781734D-04
   233  2.3200000000000D+00 -4.3984924228489D-04  1.5463269376704D-04
   234  2.3300000000000D+00 -3.1531913528551D-04  1.3853530562350D-04
   235  2.3400000000000D+00 -2.2676569481247D-04  1.2109859637872D-04
   236  2.3500000000000D+00 -1.6657426212732D-04  1.0399296465894D-04
   237  2.3600000000000D+00 -1.2789470359884D-04  8.8491587938438D-05
   238  2.3700000000000D+00 -1.0404476739186D-04  7.4993676329770D-05
   239  2.3800000000000D+00 -9.2542837487333D-05  6.5703917040848D-05
   240  2.3900000000000D+00 -9.0834771991424D-05  6.1755352558802D-05
   241  2.4000000000000D+00 -9.5561906775119D-05  6.2709408746017D-05
   242  2.4100000000000D+00 -9.4901249946791D-05  6.1214499419196D-05
   243  2.4200000000000D+00 -7.9348779494824D-05  5.0872321227726D-05
   244  2.4300000000000D+00 -4.7774262468367D-05  3.0510765540586D-05
   245  2.4400000000000D+00 -1.4503253274066D-05  9.2480671933886D-06
   246  2.4500000000000D+00  6.0137866453686D-06 -3.8137435950549D-06
   247  2.4600000000000D+00  9.2337253332154D-06 -5.8453355399340D-06
   248  2.4700000000000D+00  3.6643899831434D-06 -2.3165466802123D-06
   249  2.4800000000000D+00 -1.3200111205402D-06  8.4156538431279D-07
   250  2.4900000000000D+00 -2.0778388508744D-06  1.3241886600387D-06
   251  2.5000000000000D+00 -8.4144209758444D-07  5.3606722447373D-07
   252  2.5100000000000D+00  1.5567998533272D-07 -1.0005180705506D-07
   253  2.5200000000000D+00  2.4792176528643D-07 -1.5933339518356D-07
   254  2.5300000000000D+00  1.0449325676827D-07 -6.7155319563979D-08
   255  2.5400000000000D+00  0.0000000000000D+00  0.0000000000000D+00
   256  2.5500000000000D+00  0.0000000000000D+00  0.0000000000000D+00
   257  2.5600000000000D+00  0.0000000000000D+00  0.0000000000000D+00
   258  2.5700000000000D+00  0.0000000000000D+00  0.0000000000000D+00
   259  2.5800000000000D+00  0.0000000000000D+00  0.0000000000000D+00
   260  2.5900000000000D+00  0.0000000000000D+00  0.0000000000000D+00
   261  2.6000000000000D+00  0.0000000000000D+00  0.0000000000000D+00
   262  2.6100000000000D+00  0.0000000000000D+00  0.0000000000000D+00
   263  2.6200000000000D+00  0.0000000000000D+00  0.0000000000000D+00
   264  2.6300000000000D+00  0.0000000000000D+00  0.0000000000000D+00
   265  2.6400000000000D+00  0.0000000000000D+00  0.0000000000000D+00
   266  2.6500000000000D+00  0.0000000000000D+00  0.0000000000000D+00
   267  2.6600000000000D+00  0.0000000000000D+00  0.0000000000000D+00
   268  2.6700000000000D+00  0.0000000000000D+00  0.0000000000000D+00
   269  2.6800000000000D+00  0.0000000000000D+00  0.0000000000000D+00
   270  2.6900000000000D+00  0.0000000000000D+00  0.0000000000000D+00
   271  2.7000000000000D+00  0.0000000000000D+00  0.0000000000000D+00
   272  2.7100000000000D+00  0.0000000000000D+00  0.0000000000000D+00
   273  2.7200000000000D+00  0.0000000000000D+00  0.0000000000000D+00
   274  2.7300000000000D+00  0.0000000000000D+00  0.0000000000000D+00
   275  2.7400000000000D+00  0.0000000000000D+00  0.0000000000000D+00
   276  2.7500000000000D+00  0.0000000000000D+00  0.0000000000000D+00
   277  2.7600000000000D+00  0.0000000000000D+00  0.0000000000000D+00
   278  2.7700000000000D+00  0.0000000000000D+00  0.0000000000000D+00
   279  2.7800000000000D+00  0.0000000000000D+00  0.0000000000000D+00
   280  2.7900000000000D+00  0.0000000000000D+00  0.0000000000000D+00
   281  2.8000000000000D+00  0.0000000000000D+00  0.0000000000000D+00
   282  2.8100000000000D+00  0.0000000000000D+00  0.0000000000000D+00
   283  2.8200000000000D+00  0.0000000000000D+00  0.0000000000000D+00
   284  2.8300000000000D+00  0.0000000000000D+00  0.0000000000000D+00
   285  2.8400000000000D+00  0.0000000000000D+00  0.0000000000000D+00
   286  2.8500000000000D+00  0.0000000000000D+00  0.0000000000000D+00
   287  2.8600000000000D+00  0.0000000000000D+00  0.0000000000000D+00
   288  2.8700000000000D+00  0.0000000000000D+00  0.0000000000000D+00
   289  2.8800000000000D+00  0.0000000000000D+00  0.0000000000000D+00
   290  2.8900000000000D+00  0.0000000000000D+00  0.0000000000000D+00
   291  2.9000000000000D+00  0.0000000000000D+00  0.0000000000000D+00
   292  2.9100000000000D+00  0.0000000000000D+00  0.0000000000000D+00
   293  2.9200000000000D+00  0.0000000000000D+00  0.0000000000000D+00
   294  2.9300000000000D+00  0.0000000000000D+00  0.0000000000000D+00
   295  2.9400000000000D+00  0.0000000000000D+00  0.0000000000000D+00
   296  2.9500000000000D+00  0.0000000000000D+00  0.0000000000000D+00
   297  2.9600000000000D+00  0.0000000000000D+00  0.0000000000000D+00
   298  2.9700000000000D+00  0.0000000000000D+00  0.0000000000000D+00
   299  2.9800000000000D+00  0.0000000000000D+00  0.0000000000000D+00
   300  2.9900000000000D+00  0.0000000000000D+00  0.0000000000000D+00
   301  3.0000000000000D+00  0.0000000000000D+00  0.0000000000000D+00
   302  3.0100000000000D+00  0.0000000000000D+00  0.0000000000000D+00
   303  3.0200000000000D+00  0.0000000000000D+00  0.0000000000000D+00
   304  3.0300000000000D+00  0.0000000000000D+00  0.0000000000000D+00
   305  3.0400000000000D+00  0.0000000000000D+00  0.0000000000000D+00
   306  3.0500000000000D+00  0.0000000000000D+00  0.0000000000000D+00
   307  3.0600000000000D+00  0.0000000000000D+00  0.0000000000000D+00
   308  3.0700000000000D+00  0.0000000000000D+00  0.0000000000000D+00
   309  3.0800000000000D+00  0.0000000000000D+00  0.0000000000000D+00
   310  3.0900000000000D+00  0.0000000000000D+00  0.0000000000000D+00
   311  3.1000000000000D+00  0.0000000000000D+00  0.0000000000000D+00
   312  3.1100000000000D+00  0.0000000000000D+00  0.0000000000000D+00
   313  3.1200000000000D+00  0.0000000000000D+00  0.0000000000000D+00
   314  3.1300000000000D+00  0.0000000000000D+00  0.0000000000000D+00
   315  3.1400000000000D+00  0.0000000000000D+00  0.0000000000000D+00
   316  3.1500000000000D+00  0.0000000000000D+00  0.0000000000000D+00
   317  3.1600000000000D+00  0.0000000000000D+00  0.0000000000000D+00
   318  3.1700000000000D+00  0.0000000000000D+00  0.0000000000000D+00
   319  3.1800000000000D+00  0.0000000000000D+00  0.0000000000000D+00
   320  3.1900000000000D+00  0.0000000000000D+00  0.0000000000000D+00
   321  3.2000000000000D+00  0.0000000000000D+00  0.0000000000000D+00
   322  3.2100000000000D+00  0.0000000000000D+00  0.0000000000000D+00
   323  3.2200000000000D+00  0.0000000000000D+00  0.0000000000000D+00
   324  3.2300000000000D+00  0.0000000000000D+00  0.0000000000000D+00
   325  3.2400000000000D+00  0.0000000000000D+00  0.0000000000000D+00
   326  3.2500000000000D+00  0.0000000000000D+00  0.0000000000000D+00
   327  3.2600000000000D+00  0.0000000000000D+00  0.0000000000000D+00
   328  3.2700000000000D+00  0.0000000000000D+00  0.0000000000000D+00
   329  3.2800000000000D+00  0.0000000000000D+00  0.0000000000000D+00
   330  3.2900000000000D+00  0.0000000000000D+00  0.0000000000000D+00
   331  3.3000000000000D+00  0.0000000000000D+00  0.0000000000000D+00
   332  3.3100000000000D+00  0.0000000000000D+00  0.0000000000000D+00
   333  3.3200000000000D+00  0.0000000000000D+00  0.0000000000000D+00
   334  3.3300000000000D+00  0.0000000000000D+00  0.0000000000000D+00
   335  3.3400000000000D+00  0.0000000000000D+00  0.0000000000000D+00
   336  3.3500000000000D+00  0.0000000000000D+00  0.0000000000000D+00
   337  3.3600000000000D+00  0.0000000000000D+00  0.0000000000000D+00
   338  3.3700000000000D+00  0.0000000000000D+00  0.0000000000000D+00
   339  3.3800000000000D+00  0.0000000000000D+00  0.0000000000000D+00
   340  3.3900000000000D+00  0.0000000000000D+00  0.0000000000000D+00
   341  3.4000000000000D+00  0.0000000000000D+00  0.0000000000000D+00
   342  3.4100000000000D+00  0.0000000000000D+00  0.0000000000000D+00
   343  3.4200000000000D+00  0.0000000000000D+00  0.0000000000000D+00
   344  3.4300000000000D+00  0.0000000000000D+00  0.0000000000000D+00
   345  3.4400000000000D+00  0.0000000000000D+00  0.0000000000000D+00
   346  3.4500000000000D+00  0.0000000000000D+00  0.0000000000000D+00
   347  3.4600000000000D+00  0.0000000000000D+00  0.0000000000000D+00
   348  3.4700000000000D+00  0.0000000000000D+00  0.0000000000000D+00
   349  3.4800000000000D+00  0.0000000000000D+00  0.0000000000000D+00
   350  3.4900000000000D+00  0.0000000000000D+00  0.0000000000000D+00
   351  3.5000000000000D+00  0.0000000000000D+00  0.0000000000000D+00
   352  3.5100000000000D+00  0.0000000000000D+00  0.0000000000000D+00
   353  3.5200000000000D+00  0.0000000000000D+00  0.0000000000000D+00
   354  3.5300000000000D+00  0.0000000000000D+00  0.0000000000000D+00
   355  3.5400000000000D+00  0.0000000000000D+00  0.0000000000000D+00
   356  3.5500000000000D+00  0.0000000000000D+00  0.0000000000000D+00
   357  3.5600000000000D+00  0.0000000000000D+00  0.0000000000000D+00
   358  3.5700000000000D+00  0.0000000000000D+00  0.0000000000000D+00
   359  3.5800000000000D+00  0.0000000000000D+00  0.0000000000000D+00
   360  3.5900000000000D+00  0.0000000000000D+00  0.0000000000000D+00
   361  3.6000000000000D+00  0.0000000000000D+00  0.0000000000000D+00
   362  3.6100000000000D+00  0.0000000000000D+00  0.0000000000000D+00
   363  3.6200000000000D+00  0.0000000000000D+00  0.0000000000000D+00
   364  3.6300000000000D+00  0.0000000000000D+00  0.0000000000000D+00
   365  3.6400000000000D+00  0.0000000000000D+00  0.0000000000000D+00
   366  3.6500000000000D+00  0.0000000000000D+00  0.0000000000000D+00
   367  3.6600000000000D+00  0.0000000000000D+00  0.0000000000000D+00
   368  3.6700000000000D+00  0.0000000000000D+00  0.0000000000000D+00
   369  3.6800000000000D+00  0.0000000000000D+00  0.0000000000000D+00
   370  3.6900000000000D+00  0.0000000000000D+00  0.0000000000000D+00
   371  3.7000000000000D+00  0.0000000000000D+00  0.0000000000000D+00
   372  3.7100000000000D+00  0.0000000000000D+00  0.0000000000000D+00
   373  3.7200000000000D+00  0.0000000000000D+00  0.0000000000000D+00
   374  3.7300000000000D+00  0.0000000000000D+00  0.0000000000000D+00
   375  3.7400000000000D+00  0.0000000000000D+00  0.0000000000000D+00
   376  3.7500000000000D+00  0.0000000000000D+00  0.0000000000000D+00
   377  3.7600000000000D+00  0.0000000000000D+00  0.0000000000000D+00
   378  3.7700000000000D+00  0.0000000000000D+00  0.0000000000000D+00
   379  3.7800000000000D+00  0.0000000000000D+00  0.0000000000000D+00
   380  3.7900000000000D+00  0.0000000000000D+00  0.0000000000000D+00
   381  3.8000000000000D+00  0.0000000000000D+00  0.0000000000000D+00
   382  3.8100000000000D+00  0.0000000000000D+00  0.0000000000000D+00
   383  3.8200000000000D+00  0.0000000000000D+00  0.0000000000000D+00
   384  3.8300000000000D+00  0.0000000000000D+00  0.0000000000000D+00
   385  3.8400000000000D+00  0.0000000000000D+00  0.0000000000000D+00
   386  3.8500000000000D+00  0.0000000000000D+00  0.0000000000000D+00
   387  3.8600000000000D+00  0.0000000000000D+00  0.0000000000000D+00
   388  3.8700000000000D+00  0.0000000000000D+00  0.0000000000000D+00
   389  3.8800000000000D+00  0.0000000000000D+00  0.0000000000000D+00
   390  3.8900000000000D+00  0.0000000000000D+00  0.0000000000000D+00
   391  3.9000000000000D+00  0.0000000000000D+00  0.0000000000000D+00
   392  3.9100000000000D+00  0.0000000000000D+00  0.0000000000000D+00
   393  3.9200000000000D+00  0.0000000000000D+00  0.0000000000000D+00
   394  3.9300000000000D+00  0.0000000000000D+00  0.0000000000000D+00
   395  3.9400000000000D+00  0.0000000000000D+00  0.0000000000000D+00
   396  3.9500000000000D+00  0.0000000000000D+00  0.0000000000000D+00
   397  3.9600000000000D+00  0.0000000000000D+00  0.0000000000000D+00
   398  3.9700000000000D+00  0.0000000000000D+00  0.0000000000000D+00
   399  3.9800000000000D+00  0.0000000000000D+00  0.0000000000000D+00
   400  3.9900000000000D+00  0.0000000000000D+00  0.0000000000000D+00
   401  4.0000000000000D+00  0.0000000000000D+00  0.0000000000000D+00
   402  4.0100000000000D+00  0.0000000000000D+00  0.0000000000000D+00
   403  4.0200000000000D+00  0.0000000000000D+00  0.0000000000000D+00
   404  4.0300000000000D+00  0.0000000000000D+00  0.0000000000000D+00
   405  4.0400000000000D+00  0.0000000000000D+00  0.0000000000000D+00
   406  4.0500000000000D+00  0.0000000000000D+00  0.0000000000000D+00
   407  4.0600000000000D+00  0.0000000000000D+00  0.0000000000000D+00
   408  4.0700000000000D+00  0.0000000000000D+00  0.0000000000000D+00
   409  4.0800000000000D+00  0.0000000000000D+00  0.0000000000000D+00
   410  4.0900000000000D+00  0.0000000000000D+00  0.0000000000000D+00
   411  4.1000000000000D+00  0.0000000000000D+00  0.0000000000000D+00
   412  4.1100000000000D+00  0.0000000000000D+00  0.0000000000000D+00
   413  4.1200000000000D+00  0.0000000000000D+00  0.0000000000000D+00
   414  4.1300000000000D+00  0.0000000000000D+00  0.0000000000000D+00
   415  4.1400000000000D+00  0.0000000000000D+00  0.0000000000000D+00
   416  4.1500000000000D+00  0.0000000000000D+00  0.0000000000000D+00
   417  4.1600000000000D+00  0.0000000000000D+00  0.0000000000000D+00
   418  4.1700000000000D+00  0.0000000000000D+00  0.0000000000000D+00
   419  4.1800000000000D+00  0.0000000000000D+00  0.0000000000000D+00
   420  4.1900000000000D+00  0.0000000000000D+00  0.0000000000000D+00
   421  4.2000000000000D+00  0.0000000000000D+00  0.0000000000000D+00
   422  4.2100000000000D+00  0.0000000000000D+00  0.0000000000000D+00