In    ONCVPSP-3.3.1  r_core=   3.39782   3.43859   2.67664
     49.0000     13.0000      210905    zatom,zion,pspd
     8 -116133   2     4   600     0    pspcod,pspxc,lmax,lloc,mmax,r2well
  5.99000000  0.00000000  0.00000000    rchrg fchrg qchrg
     2     2     2     0     0    nproj
     1     1           extension_switch
   0                         4.8373519825727D+00  4.5683005644686D-01
     1  0.0000000000000D+00 -1.1293743717999D-13  1.5419818200080D-12
     2  1.0000000000000D-02  1.4812723882015D-02 -3.0927346611652D-03
     3  2.0000000000000D-02  2.9629707450867D-02 -6.1910522989004D-03
     4  3.0000000000000D-02  4.4455190684656D-02 -9.3005186104687D-03
     5  4.0000000000000D-02  5.9293374173825D-02 -1.2426664716265D-02
     6  5.0000000000000D-02  7.4148399501877D-02 -1.5574969826126D-02
     7  6.0000000000000D-02  8.9024329715634D-02 -1.8750843852409D-02
     8  7.0000000000000D-02  1.0392512991500D-01 -2.1959609953868D-02
     9  8.0000000000000D-02  1.1885464799228D-01 -2.5206486995883D-02
    10  9.0000000000000D-02  1.3381659555133D-01 -2.8496571914437D-02
    11  1.0000000000000D-01  1.4881452903677D-01 -3.1834821973502D-02
    12  1.1000000000000D-01  1.6385183110387D-01 -3.5226036907980D-02
    13  1.2000000000000D-01  1.7893169225971D-01 -3.8674840947269D-02
    14  1.3000000000000D-01  1.9405709280659D-01 -4.2185664717648D-02
    15  1.4000000000000D-01  2.0923078511862D-01 -4.5762727025123D-02
    16  1.5000000000000D-01  2.2445527628287D-01 -4.9410016524085D-02
    17  1.6000000000000D-01  2.3973281113649D-01 -5.3131273281013D-02
    18  1.7000000000000D-01  2.5506535573142D-01 -5.6929970246620D-02
    19  1.8000000000000D-01  2.7045458125850D-01 -6.0809294654097D-02
    20  1.9000000000000D-01  2.8590184846300D-01 -6.4772129365610D-02
    21  2.0000000000000D-01  3.0140819258358D-01 -6.8821034193668D-02
    22  2.1000000000000D-01  3.1697430884690D-01 -7.2958227228743D-02
    23  2.2000000000000D-01  3.3260053855020D-01 -7.7185566209091D-02
    24  2.3000000000000D-01  3.4828685576396D-01 -8.1504529973562D-02
    25  2.4000000000000D-01  3.6403285468702D-01 -8.5916200042724D-02
    26  2.5000000000000D-01  3.7983773768625D-01 -9.0421242378437D-02
    27  2.6000000000000D-01  3.9570030405282D-01 -9.5019889376434D-02
    28  2.7000000000000D-01  4.1161893950677D-01 -9.9711922150982D-02
    29  2.8000000000000D-01  4.2759160648152D-01 -1.0449665317496D-01
    30  2.9000000000000D-01  4.4361583521931D-01 -1.0937290934277D-01
    31  3.0000000000000D-01  4.5968871570839D-01 -1.1433901552735D-01
    32  3.1000000000000D-01  4.7580689049207D-01 -1.1939277870633D-01
    33  3.2000000000000D-01  4.9196654837906D-01 -1.2453147273542D-01
    34  3.3000000000000D-01  5.0816341908398D-01 -1.2975182385040D-01
    35  3.4000000000000D-01  5.2439276882597D-01 -1.3504999698167D-01
    36  3.5000000000000D-01  5.4064939691224D-01 -1.4042158296753D-01
    37  3.6000000000000D-01  5.5692763333269D-01 -1.4586158675428D-01
    38  3.7000000000000D-01  5.7322133739016D-01 -1.5136441667288D-01
    39  3.8000000000000D-01  5.8952389738979D-01 -1.5692387488253D-01
    40  3.9000000000000D-01  6.0582823140968D-01 -1.6253314907260D-01
    41  4.0000000000000D-01  6.2212678917295D-01 -1.6818480551377D-01
    42  4.1000000000000D-01  6.3841155504048D-01 -1.7387078354946D-01
    43  4.2000000000000D-01  6.5467405214093D-01 -1.7958239161700D-01
    44  4.3000000000000D-01  6.7090534765343D-01 -1.8531030488704D-01
    45  4.4000000000000D-01  6.8709605925586D-01 -1.9104456460723D-01
    46  4.5000000000000D-01  7.0323636274967D-01 -1.9677457923387D-01
    47  4.6000000000000D-01  7.1931600086989D-01 -2.0248912743195D-01
    48  4.7000000000000D-01  7.3532429328647D-01 -2.0817636302034D-01
    49  4.8000000000000D-01  7.5125014780076D-01 -2.1382382193462D-01
    50  4.9000000000000D-01  7.6708207273812D-01 -2.1941843127522D-01
    51  5.0000000000000D-01  7.8280819053513D-01 -2.2494652050329D-01
    52  5.1000000000000D-01  7.9841625251679D-01 -2.3039383484074D-01
    53  5.2000000000000D-01  8.1389365485642D-01 -2.3574555092457D-01
    54  5.3000000000000D-01  8.2922745570776D-01 -2.4098629475867D-01
    55  5.4000000000000D-01  8.4440439349589D-01 -2.4610016199921D-01
    56  5.5000000000000D-01  8.5941090635007D-01 -2.5107074060118D-01
    57  5.6000000000000D-01  8.7423315265891D-01 -2.5588113584652D-01
    58  5.7000000000000D-01  8.8885703272438D-01 -2.6051399776450D-01
    59  5.8000000000000D-01  9.0326821148832D-01 -2.6495155094676D-01
    60  5.9000000000000D-01  9.1745214230155D-01 -2.6917562674972D-01
    61  6.0000000000000D-01  9.3139409170221D-01 -2.7316769786750D-01
    62  6.1000000000000D-01  9.4507916516678D-01 -2.7690891524837D-01
    63  6.2000000000000D-01  9.5849233379354D-01 -2.8038014731801D-01
    64  6.3000000000000D-01  9.7161846187520D-01 -2.8356202146189D-01
    65  6.4000000000000D-01  9.8444233531360D-01 -2.8643496770913D-01
    66  6.5000000000000D-01  9.9694869082649D-01 -2.8897926454920D-01
    67  6.6000000000000D-01  1.0091222458928D+00 -2.9117508680238D-01
    68  6.7000000000000D-01  1.0209477293796D+00 -2.9300255545410D-01
    69  6.8000000000000D-01  1.0324099127912D+00 -2.9444178935266D-01
    70  6.9000000000000D-01  1.0434936420770D+00 -2.9547295865931D-01
    71  7.0000000000000D-01  1.0541838699326D+00 -2.9607633992924D-01
    72  7.1000000000000D-01  1.0644656885248D+00 -2.9623237269171D-01
    73  7.2000000000000D-01  1.0743243625697D+00 -2.9592171738778D-01
    74  7.3000000000000D-01  1.0837453626893D+00 -2.9512531451401D-01
    75  7.4000000000000D-01  1.0927143989706D+00 -2.9382444481163D-01
    76  7.5000000000000D-01  1.1012174546467D+00 -2.9200079033110D-01
    77  7.6000000000000D-01  1.1092408198222D+00 -2.8963649619407D-01
    78  7.7000000000000D-01  1.1167711251560D+00 -2.8671423286613D-01
    79  7.8000000000000D-01  1.1237953754208D+00 -2.8321725874646D-01
    80  7.9000000000000D-01  1.1303009828504D+00 -2.7912948287353D-01
    81  8.0000000000000D-01  1.1362758001887D+00 -2.7443552753969D-01
    82  8.1000000000000D-01  1.1417081533525D+00 -2.6912079060139D-01
    83  8.2000000000000D-01  1.1465868736173D+00 -2.6317150726764D-01
    84  8.3000000000000D-01  1.1509013292382D+00 -2.5657481114395D-01
    85  8.4000000000000D-01  1.1546414564144D+00 -2.4931879430665D-01
    86  8.5000000000000D-01  1.1577977895080D+00 -2.4139256617887D-01
    87  8.6000000000000D-01  1.1603614904272D+00 -2.3278631097824D-01
    88  8.7000000000000D-01  1.1623243770840D+00 -2.2349134350529D-01
    89  8.8000000000000D-01  1.1636789508388D+00 -2.1350016304102D-01
    90  8.9000000000000D-01  1.1644184228435D+00 -2.0280650512370D-01
    91  9.0000000000000D-01  1.1645367391976D+00 -1.9140539097604D-01
    92  9.1000000000000D-01  1.1640286048327D+00 -1.7929317435693D-01
    93  9.2000000000000D-01  1.1628895060432D+00 -1.6646758561545D-01
    94  9.3000000000000D-01  1.1611157315819D+00 -1.5292777272968D-01
    95  9.4000000000000D-01  1.1587043922446D+00 -1.3867433911805D-01
    96  9.5000000000000D-01  1.1556534388670D+00 -1.2370937801790D-01
    97  9.6000000000000D-01  1.1519616786635D+00 -1.0803650323314D-01
    98  9.7000000000000D-01  1.1476287898383D+00 -9.1660876061445D-02
    99  9.8000000000000D-01  1.1426553344055D+00 -7.4589228220991D-02
   100  9.9000000000000D-01  1.1370427691557D+00 -5.6829880606569D-02
   101  1.0000000000000D+00  1.1307934547139D+00 -3.8392757716663D-02
   102  1.0100000000000D+00  1.1239106626359D+00 -1.9289397604847D-02
   103  1.0200000000000D+00  1.1163985804956D+00  4.6704277811959D-04
   104  1.0300000000000D+00  1.1082623149212D+00  2.0861786971346D-02
   105  1.0400000000000D+00  1.0995078925417D+00  4.1878443225227D-02
   106  1.0500000000000D+00  1.0901422588132D+00  6.3499013647177D-02
   107  1.0600000000000D+00  1.0801732746974D+00  8.5703908346108D-02
   108  1.0700000000000D+00  1.0696097111717D+00  1.0847196463237D-01
   109  1.0800000000000D+00  1.0584612415557D+00  1.3178047131366D-01
   110  1.0900000000000D+00  1.0467384316465D+00  1.5560519810875D-01
   111  1.1000000000000D+00  1.0344527276583D+00  1.7992043018276D-01
   112  1.1100000000000D+00  1.0216164419716D+00  2.0469900779011D-01
   113  1.1200000000000D+00  1.0082427367005D+00  2.2991237098969D-01
   114  1.1300000000000D+00  9.9434560509625D-01  2.5553060937931D-01
   115  1.1400000000000D+00  9.7993985080893D-01  2.8152251677476D-01
   116  1.1500000000000D+00  9.6504106503715D-01  3.0785565074284D-01
   117  1.1600000000000D+00  9.4966560160230D-01  3.3449639687209D-01
   118  1.1700000000000D+00  9.3383054999028D-01  3.6141003764813D-01
   119  1.1800000000000D+00  9.1755370641025D-01  3.8856082577949D-01
   120  1.1900000000000D+00  9.0085354292583D-01  4.1591206180211D-01
   121  1.2000000000000D+00  8.8374917472200D-01  4.4342617576590D-01
   122  1.2100000000000D+00  8.6626032557744D-01  4.7106481278821D-01
   123  1.2200000000000D+00  8.4840729161568D-01  4.9878892224669D-01
   124  1.2300000000000D+00  8.3021090341815D-01  5.2655885035466D-01
   125  1.2400000000000D+00  8.1169248658722D-01  5.5433443584713D-01
   126  1.2500000000000D+00  7.9287382085137D-01  5.8207510849224D-01
   127  1.2600000000000D+00  7.7377709781231D-01  6.0973999012046D-01
   128  1.2700000000000D+00  7.5442487744015D-01  6.3728799784397D-01
   129  1.2800000000000D+00  7.3484004342529D-01  6.6467794913063D-01
   130  1.2900000000000D+00  7.1504575750239D-01  6.9186866837779D-01
   131  1.3000000000000D+00  6.9506541286822D-01  7.1881909460976D-01
   132  1.3100000000000D+00  6.7492258681627D-01  7.4548838992181D-01
   133  1.3200000000000D+00  6.5464099271721D-01  7.7183604827263D-01
   134  1.3300000000000D+00  6.3424443148026D-01  7.9782200421130D-01
   135  1.3400000000000D+00  6.1375674262902D-01  8.2340674112854D-01
   136  1.3500000000000D+00  5.9320175513350D-01  8.4855139859757D-01
   137  1.3600000000000D+00  5.7260323814218D-01  8.7321787836557D-01
   138  1.3700000000000D+00  5.5198485175630D-01  8.9736894855972D-01
   139  1.3800000000000D+00  5.3137009799797D-01  9.2096834564696D-01
   140  1.3900000000000D+00  5.1078227211923D-01  9.4398087369915D-01
   141  1.4000000000000D+00  4.9024441440386D-01  9.6637250050172D-01
   142  1.4100000000000D+00  4.6977926261474D-01  9.8811045004513D-01
   143  1.4200000000000D+00  4.4940920523859D-01  1.0091632909378D+00
   144  1.4300000000000D+00  4.2915623568244D-01  1.0295010202771D+00
   145  1.4400000000000D+00  4.0904190757331D-01  1.0490951425239D+00
   146  1.4500000000000D+00  3.8908729131633D-01  1.0679187429137D+00
   147  1.4600000000000D+00  3.6931293205832D-01  1.0859465549706D+00
   148  1.4700000000000D+00  3.4973880921296D-01  1.1031550216550D+00
   149  1.4800000000000D+00  3.3038429769016D-01  1.1195223497296D+00
   150  1.4900000000000D+00  3.1126813097918D-01  1.1350285569004D+00
   151  1.5000000000000D+00  2.9240836623003D-01  1.1496555113111D+00
   152  1.5100000000000D+00  2.7382235146696D-01  1.1633869630066D+00
   153  1.5200000000000D+00  2.5552669508483D-01  1.1762085669218D+00
   154  1.5300000000000D+00  2.3753723774091D-01  1.1881078970890D+00
   155  1.5400000000000D+00  2.1986902679768D-01  1.1990744516034D+00
   156  1.5500000000000D+00  2.0253629341326D-01  1.2090996480986D+00
   157  1.5600000000000D+00  1.8555243242446D-01  1.2181768093082D+00
   158  1.5700000000000D+00  1.6892998511741D-01  1.2263011384721D+00
   159  1.5800000000000D+00  1.5268062500685D-01  1.2334696842495D+00
   160  1.5900000000000D+00  1.3681514672357D-01  1.2396812948799D+00
   161  1.6000000000000D+00  1.2134345810064D-01  1.2449365613623D+00
   162  1.6100000000000D+00  1.0627457556536D-01  1.2492377493673D+00
   163  1.6200000000000D+00  9.1616622892885D-02  1.2525887197728D+00
   164  1.6300000000000D+00  7.7376833437129D-02  1.2549948375098D+00
   165  1.6400000000000D+00  6.3561555857530D-02  1.2564628687358D+00
   166  1.6500000000000D+00  5.0176263465839D-02  1.2570008659941D+00
   167  1.6600000000000D+00  3.7225567173498D-02  1.2566180415070D+00
   168  1.6700000000000D+00  2.4713232170570D-02  1.2553246282376D+00
   169  1.6800000000000D+00  1.2642198279612D-02  1.2531317289947D+00
   170  1.6900000000000D+00  1.0146041369801D-03  1.2500511494099D+00
   171  1.7000000000000D+00 -1.0168185008531D-02  1.2460952409132D+00
   172  1.7100000000000D+00 -2.0905544768941D-02  1.2412766533292D+00
   173  1.7200000000000D+00 -3.1197559279761D-02  1.2356082887483D+00
   174  1.7300000000000D+00 -4.1044976603485D-02  1.2291029590762D+00
   175  1.7400000000000D+00 -5.0449169318092D-02  1.2217728650967D+00
   176  1.7500000000000D+00 -5.9412088701661D-02  1.2136300823931D+00
   177  1.7600000000000D+00 -6.7936211346250D-02  1.2046869472377D+00
   178  1.7700000000000D+00 -7.6024519717967D-02  1.1949564860813D+00
   179  1.7800000000000D+00 -8.3680486357351D-02  1.1844531790394D+00
   180  1.7900000000000D+00 -9.0908058885265D-02  1.1731929702183D+00
   181  1.8000000000000D+00 -9.7711652136360D-02  1.1611930059891D+00
   182  1.8100000000000D+00 -1.0409613585607D-01  1.1484716191800D+00
   183  1.8200000000000D+00 -1.1006681950276D-01  1.1350483294939D+00
   184  1.8300000000000D+00 -1.1562943874109D-01  1.1209437644612D+00
   185  1.8400000000000D+00 -1.2079014041906D-01  1.1061796196373D+00
   186  1.8500000000000D+00 -1.2555546710963D-01  1.0907786010961D+00
   187  1.8600000000000D+00 -1.2993234101195D-01  1.0747643693100D+00
   188  1.8700000000000D+00 -1.3392804731562D-01  1.0581614813949D+00
   189  1.8800000000000D+00 -1.3755021705022D-01  1.0409953318319D+00
   190  1.8900000000000D+00 -1.4080680948489D-01  1.0232920918757D+00
   191  1.9000000000000D+00 -1.4370609410837D-01  1.0050786477937D+00
   192  1.9100000000000D+00 -1.4625663224435D-01  9.8638253811070D-01
   193  1.9200000000000D+00 -1.4846725834517D-01  9.6723189003619D-01
   194  1.9300000000000D+00 -1.5034706100967D-01  9.4765535523200D-01
   195  1.9400000000000D+00 -1.5190536377270D-01  9.2768204508904D-01
   196  1.9500000000000D+00 -1.5315170571490D-01  9.0734146570330D-01
   197  1.9600000000000D+00 -1.5409582192922D-01  8.8666345265496D-01
   198  1.9700000000000D+00 -1.5474762390794D-01  8.6567810585132D-01
   199  1.9800000000000D+00 -1.5511717987128D-01  8.4441572447340D-01
   200  1.9900000000000D+00 -1.5521469510633D-01  8.2290674229601D-01
   201  2.0000000000000D+00 -1.5505049234264D-01  8.0118166345740D-01
   202  2.0100000000000D+00 -1.5463499221074D-01  7.7927099884153D-01
   203  2.0200000000000D+00 -1.5397869384283D-01  7.5720520329065D-01
   204  2.0300000000000D+00 -1.5309215561529D-01  7.3501461362242D-01
   205  2.0400000000000D+00 -1.5198597613257D-01  7.1272938782512D-01
   206  2.0500000000000D+00 -1.5067077542938D-01  6.9037944532230D-01
   207  2.0600000000000D+00 -1.4915717647172D-01  6.6799440859986D-01
   208  2.0700000000000D+00 -1.4745578698351D-01  6.4560354628305D-01
   209  2.0800000000000D+00 -1.4557718160067D-01  6.2323571765663D-01
   210  2.0900000000000D+00 -1.4353188445540D-01  6.0091931899914D-01
   211  2.1000000000000D+00 -1.4133035213691D-01  5.7868223152041D-01
   212  2.1100000000000D+00 -1.3898295712980D-01  5.5655177126508D-01
   213  2.1200000000000D+00 -1.3649997172910D-01  5.3455464096705D-01
   214  2.1300000000000D+00 -1.3389155243011D-01  5.1271688383842D-01
   215  2.1400000000000D+00 -1.3116772489991D-01  4.9106383967399D-01
   216  2.1500000000000D+00 -1.2833836945027D-01  4.6962010296654D-01
   217  2.1600000000000D+00 -1.2541320711725D-01  4.4840948340921D-01
   218  2.1700000000000D+00 -1.2240178634294D-01  4.2745496875790D-01
   219  2.1800000000000D+00 -1.1931347022373D-01  4.0677868991086D-01
   220  2.1900000000000D+00 -1.1615742445985D-01  3.8640188869370D-01
   221  2.2000000000000D+00 -1.1294260589369D-01  3.6634488792073D-01
   222  2.2100000000000D+00 -1.0967775172570D-01  3.4662706405230D-01
   223  2.2200000000000D+00 -1.0637136943063D-01  3.2726682252176D-01
   224  2.2300000000000D+00 -1.0303172729140D-01  3.0828157540941D-01
   225  2.2400000000000D+00 -9.9666845690187D-02  2.8968772197787D-01
   226  2.2500000000000D+00 -9.6284489065452D-02  2.7150063171243D-01
   227  2.2600000000000D+00 -9.2892158543051D-02  2.5373462988342D-01
   228  2.2700000000000D+00 -8.9497085339909D-02  2.3640298599565D-01
   229  2.2800000000000D+00 -8.6106224808221D-02  2.1951790460664D-01
   230  2.2900000000000D+00 -8.2726251212524D-02  2.0309051885596D-01
   231  2.3000000000000D+00 -7.9363553239562D-02  1.8713088669364D-01
   232  2.3100000000000D+00 -7.6024230142027D-02  1.7164798941299D-01
   233  2.3200000000000D+00 -7.2714088646083D-02  1.5664973297832D-01
   234  2.3300000000000D+00 -6.9438640534906D-02  1.4214295179560D-01
   235  2.3400000000000D+00 -6.6203100858776D-02  1.2813341472184D-01
   236  2.3500000000000D+00 -6.3012386911568D-02  1.1462583384345D-01
   237  2.3600000000000D+00 -5.9871117809801D-02  1.0162387537605D-01
   238  2.3700000000000D+00 -5.6783614713672D-02  8.9130172826612D-02
   239  2.3800000000000D+00 -5.3753901748427D-02  7.7146342630665D-02
   240  2.3900000000000D+00 -5.0785707487946D-02  6.5673001719590D-02
   241  2.4000000000000D+00 -4.7882467062582D-02  5.4709787244051D-02
   242  2.4100000000000D+00 -4.5047324893175D-02  4.4255378447223D-02
   243  2.4200000000000D+00 -4.2283137940697D-02  3.4307520254616D-02
   244  2.4300000000000D+00 -3.9592479543556D-02  2.4863048838639D-02
   245  2.4400000000000D+00 -3.6977643801083D-02  1.5917918986704D-02
   246  2.4500000000000D+00 -3.4440650419853D-02  7.4672329507663D-03
   247  2.4600000000000D+00 -3.1983250092460D-02 -4.9472898412023D-04
   248  2.4700000000000D+00 -2.9606930340294D-02 -7.9744764791084D-03
   249  2.4800000000000D+00 -2.7312921760678D-02 -1.4979275894207D-02
   250  2.4900000000000D+00 -2.5102204734035D-02 -2.1517115645388D-02
   251  2.5000000000000D+00 -2.2975516513255D-02 -2.7596670455686D-02
   252  2.5100000000000D+00 -2.0933358654146D-02 -3.3227264650030D-02
   253  2.5200000000000D+00 -1.8976004818988D-02 -3.8418834433544D-02
   254  2.5300000000000D+00 -1.7103508882197D-02 -4.3181889399357D-02
   255  2.5400000000000D+00 -1.5315713310248D-02 -4.7527473361017D-02
   256  2.5500000000000D+00 -1.3612257817250D-02 -5.1467124584593D-02
   257  2.5600000000000D+00 -1.1992588244348D-02 -5.5012835575720D-02
   258  2.5700000000000D+00 -1.0455965644553D-02 -5.8177012475952D-02
   259  2.5800000000000D+00 -9.0014755404447D-03 -6.0972434288984D-02
   260  2.5900000000000D+00 -7.6280373280285D-03 -6.3412211983143D-02
   261  2.6000000000000D+00 -6.3344138166673D-03 -6.5509747485607D-02
   262  2.6100000000000D+00 -5.1192208406391D-03 -6.7278692920076D-02
   263  2.6200000000000D+00 -3.9809369370681D-03 -6.8732910050526D-02
   264  2.6300000000000D+00 -2.9179130913966D-03 -6.9886429891322D-02
   265  2.6400000000000D+00 -1.9283824631476D-03 -7.0753412921204D-02
   266  2.6500000000000D+00 -1.0104700921092D-03 -7.1348109859661D-02
   267  2.6600000000000D+00 -1.6220260512378D-04 -7.1684822873545D-02
   268  2.6700000000000D+00  6.1848216827189D-04 -7.1777867651960D-02
   269  2.6800000000000D+00  1.3337256970739D-03 -7.1641536448478D-02
   270  2.6900000000000D+00  1.9857393143913D-03 -7.1290061805389D-02
   271  2.7000000000000D+00  2.5767949154602D-03 -7.0737581271887D-02
   272  2.7100000000000D+00  3.1092158861759D-03 -6.9998103563632D-02
   273  2.7200000000000D+00  3.5853681589384D-03 -6.9085475644254D-02
   274  2.7300000000000D+00  4.0076514033569D-03 -6.8013350753011D-02
   275  2.7400000000000D+00  4.3784905845898D-03 -6.6795158446560D-02
   276  2.7500000000000D+00  4.7003276856643D-03 -6.5444075679262D-02
   277  2.7600000000000D+00  4.9756135848128D-03 -6.3972998873574D-02
   278  2.7700000000000D+00  5.2068003814073D-03 -6.2394518306680D-02
   279  2.7800000000000D+00  5.3963339381028D-03 -6.0720893727720D-02
   280  2.7900000000000D+00  5.5466466413779D-03 -5.8964031205155D-02
   281  2.8000000000000D+00  5.6601505652710D-03 -5.7135462020498D-02
   282  2.8100000000000D+00  5.7392309881338D-03 -5.5246323363773D-02
   283  2.8200000000000D+00  5.7862401683913D-03 -5.3307340391257D-02
   284  2.8300000000000D+00  5.8034914181326D-03 -5.1328809805694D-02
   285  2.8400000000000D+00  5.7932537030466D-03 -4.9320585957641D-02
   286  2.8500000000000D+00  5.7577465068723D-03 -4.7292068284604D-02
   287  2.8600000000000D+00  5.6991349163225D-03 -4.5252189887319D-02
   288  2.8700000000000D+00  5.6195253289550D-03 -4.3209408991636D-02
   289  2.8800000000000D+00  5.5209614192599D-03 -4.1171701677463D-02
   290  2.8900000000000D+00  5.4054204053523D-03 -3.9146556050301D-02
   291  2.9000000000000D+00  5.2748097439206D-03 -3.7140968391525D-02
   292  2.9100000000000D+00  5.1309642781834D-03 -3.5161441377916D-02
   293  2.9200000000000D+00  4.9756436967040D-03 -3.3213983736260D-02
   294  2.9300000000000D+00  4.8105301916830D-03 -3.1304110848359D-02
   295  2.9400000000000D+00  4.6372267907817D-03 -2.9436848311688D-02
   296  2.9500000000000D+00  4.4572558732844D-03 -2.7616736349530D-02
   297  2.9600000000000D+00  4.2720579837294D-03 -2.5847835545494D-02
   298  2.9700000000000D+00  4.0829910666183D-03 -2.4133734400533D-02
   299  2.9800000000000D+00  3.8913300817252D-03 -2.2477558525698D-02
   300  2.9900000000000D+00  3.6982669040322D-03 -2.0881981047421D-02
   301  3.0000000000000D+00  3.5049103807264D-03 -1.9349233695360D-02
   302  3.0100000000000D+00  3.3122869715160D-03 -1.7881120295575D-02
   303  3.0200000000000D+00  3.1213415186442D-03 -1.6479030793712D-02
   304  3.0300000000000D+00  2.9329382806492D-03 -1.5143956348361D-02
   305  3.0400000000000D+00  2.7478622454155D-03 -1.3876505529380D-02
   306  3.0500000000000D+00  2.5668207697395D-03 -1.2676921786380D-02
   307  3.0600000000000D+00  2.3904453947209D-03 -1.1545101568945D-02
   308  3.0700000000000D+00  2.2192938162038D-03 -1.0480613032081D-02
   309  3.0800000000000D+00  2.0538521723469D-03 -9.4827158731700D-03
   310  3.0900000000000D+00  1.8945374689285D-03 -8.5503816324685D-03
   311  3.1000000000000D+00  1.7417001709950D-03 -7.6823145336174D-03
   312  3.1100000000000D+00  1.5956269152981D-03 -6.8769727087490D-03
   313  3.1200000000000D+00  1.4565434273884D-03 -6.1325899881928D-03
   314  3.1300000000000D+00  1.3246175062018D-03 -5.4471978297139D-03
   315  3.1400000000000D+00  1.1999621263566D-03 -4.8186475526418D-03
   316  3.1500000000000D+00  1.0826386182787D-03 -4.2446326500459D-03
   317  3.1600000000000D+00  9.7265990027570D-04 -3.7227110130562D-03
   318  3.1700000000000D+00  8.6999375564470D-04 -3.2503271279957D-03
   319  3.1800000000000D+00  7.7456619134549D-04 -2.8248344243729D-03
   320  3.1900000000000D+00  6.8626473933630D-04 -2.4435169854349D-03
   321  3.2000000000000D+00  6.0494176736114D-04 -2.1036110301336D-03
   322  3.2100000000000D+00  5.3041775261688D-04 -1.8023259291142D-03
   323  3.2200000000000D+00  4.6248465326215D-04 -1.5368654580075D-03
   324  3.2300000000000D+00  4.0090901289338D-04 -1.3044473784428D-03
   325  3.2400000000000D+00  3.4543510649853D-04 -1.1023229776768D-03
   326  3.2500000000000D+00  2.9578794699270D-04 -9.2779563182134D-04
   327  3.2600000000000D+00  2.5167643480834D-04 -7.7823981287163D-04
   328  3.2700000000000D+00  2.1279598133816D-04 -6.5111719077119D-04
   329  3.2800000000000D+00  1.7884083366547D-04 -5.4403261786775D-04
   330  3.2900000000000D+00  1.4951996519846D-04 -4.5480439131989D-04
   331  3.3000000000000D+00  1.2443023189141D-04 -3.8094522839946D-04
   332  3.3100000000000D+00  1.0322298461303D-04 -3.2035359207441D-04
   333  3.3200000000000D+00  8.5470706468728D-05 -2.7080710917274D-04
   334  3.3300000000000D+00  7.0696183901124D-05 -2.3007635146133D-04
   335  3.3400000000000D+00  5.9126724214195D-05 -1.9872948647675D-04
   336  3.3500000000000D+00  5.0600463982131D-05 -1.7606574818177D-04
   337  3.3600000000000D+00  4.5120683281397D-05 -1.6212425820656D-04
   338  3.3700000000000D+00  4.2621164172170D-05 -1.5682136903611D-04
   339  3.3800000000000D+00  4.0798820591540D-05 -1.5216265564420D-04
   340  3.3900000000000D+00  3.8312173355147D-05 -1.4367183876097D-04
   341  3.4000000000000D+00  3.3617441651656D-05 -1.2618189493748D-04
   342  3.4100000000000D+00  2.5198052774279D-05 -9.4628649190541D-05
   343  3.4200000000000D+00  1.5711816531291D-05 -5.8975329782375D-05
   344  3.4300000000000D+00  6.5429638867076D-06 -2.4535485081248D-05
   345  3.4400000000000D+00 -5.8899685457074D-07  2.2216328991386D-06
   346  3.4500000000000D+00 -3.2192304030096D-06  1.2146282500024D-05
   347  3.4600000000000D+00 -3.4580549141528D-06  1.3049732070627D-05
   348  3.4700000000000D+00 -2.0576111443363D-06  7.7656126257020D-06
   349  3.4800000000000D+00  1.1515129267866D-08 -4.3526345724190D-08
   350  3.4900000000000D+00  6.2852114156674D-07 -2.3765080891123D-06
   351  3.5000000000000D+00  8.0853770988427D-07 -3.0580021565703D-06
   352  3.5100000000000D+00  5.7476476396790D-07 -2.1743584952699D-06
   353  3.5200000000000D+00  8.7297895008154D-08 -3.3032104611731D-07
   354  3.5300000000000D+00 -6.4378050878111D-08  2.4156195492945D-07
   355  3.5400000000000D+00 -9.9058370166894D-08  3.7169086704636D-07
   356  3.5500000000000D+00 -8.2257723554791D-08  3.0865079384840D-07
   357  3.5600000000000D+00 -2.6663026799495D-08  1.0004609941076D-07
   358  3.5700000000000D+00  0.0000000000000D+00  0.0000000000000D+00
   359  3.5800000000000D+00  0.0000000000000D+00  0.0000000000000D+00
   360  3.5900000000000D+00  0.0000000000000D+00  0.0000000000000D+00
   361  3.6000000000000D+00  0.0000000000000D+00  0.0000000000000D+00
   362  3.6100000000000D+00  0.0000000000000D+00  0.0000000000000D+00
   363  3.6200000000000D+00  0.0000000000000D+00  0.0000000000000D+00
   364  3.6300000000000D+00  0.0000000000000D+00  0.0000000000000D+00
   365  3.6400000000000D+00  0.0000000000000D+00  0.0000000000000D+00
   366  3.6500000000000D+00  0.0000000000000D+00  0.0000000000000D+00
   367  3.6600000000000D+00  0.0000000000000D+00  0.0000000000000D+00
   368  3.6700000000000D+00  0.0000000000000D+00  0.0000000000000D+00
   369  3.6800000000000D+00  0.0000000000000D+00  0.0000000000000D+00
   370  3.6900000000000D+00  0.0000000000000D+00  0.0000000000000D+00
   371  3.7000000000000D+00  0.0000000000000D+00  0.0000000000000D+00
   372  3.7100000000000D+00  0.0000000000000D+00  0.0000000000000D+00
   373  3.7200000000000D+00  0.0000000000000D+00  0.0000000000000D+00
   374  3.7300000000000D+00  0.0000000000000D+00  0.0000000000000D+00
   375  3.7400000000000D+00  0.0000000000000D+00  0.0000000000000D+00
   376  3.7500000000000D+00  0.0000000000000D+00  0.0000000000000D+00
   377  3.7600000000000D+00  0.0000000000000D+00  0.0000000000000D+00
   378  3.7700000000000D+00  0.0000000000000D+00  0.0000000000000D+00
   379  3.7800000000000D+00  0.0000000000000D+00  0.0000000000000D+00
   380  3.7900000000000D+00  0.0000000000000D+00  0.0000000000000D+00
   381  3.8000000000000D+00  0.0000000000000D+00  0.0000000000000D+00
   382  3.8100000000000D+00  0.0000000000000D+00  0.0000000000000D+00
   383  3.8200000000000D+00  0.0000000000000D+00  0.0000000000000D+00
   384  3.8300000000000D+00  0.0000000000000D+00  0.0000000000000D+00
   385  3.8400000000000D+00  0.0000000000000D+00  0.0000000000000D+00
   386  3.8500000000000D+00  0.0000000000000D+00  0.0000000000000D+00
   387  3.8600000000000D+00  0.0000000000000D+00  0.0000000000000D+00
   388  3.8700000000000D+00  0.0000000000000D+00  0.0000000000000D+00
   389  3.8800000000000D+00  0.0000000000000D+00  0.0000000000000D+00
   390  3.8900000000000D+00  0.0000000000000D+00  0.0000000000000D+00
   391  3.9000000000000D+00  0.0000000000000D+00  0.0000000000000D+00
   392  3.9100000000000D+00  0.0000000000000D+00  0.0000000000000D+00
   393  3.9200000000000D+00  0.0000000000000D+00  0.0000000000000D+00
   394  3.9300000000000D+00  0.0000000000000D+00  0.0000000000000D+00
   395  3.9400000000000D+00  0.0000000000000D+00  0.0000000000000D+00
   396  3.9500000000000D+00  0.0000000000000D+00  0.0000000000000D+00
   397  3.9600000000000D+00  0.0000000000000D+00  0.0000000000000D+00
   398  3.9700000000000D+00  0.0000000000000D+00  0.0000000000000D+00
   399  3.9800000000000D+00  0.0000000000000D+00  0.0000000000000D+00
   400  3.9900000000000D+00  0.0000000000000D+00  0.0000000000000D+00
   401  4.0000000000000D+00  0.0000000000000D+00  0.0000000000000D+00
   402  4.0100000000000D+00  0.0000000000000D+00  0.0000000000000D+00
   403  4.0200000000000D+00  0.0000000000000D+00  0.0000000000000D+00
   404  4.0300000000000D+00  0.0000000000000D+00  0.0000000000000D+00
   405  4.0400000000000D+00  0.0000000000000D+00  0.0000000000000D+00
   406  4.0500000000000D+00  0.0000000000000D+00  0.0000000000000D+00
   407  4.0600000000000D+00  0.0000000000000D+00  0.0000000000000D+00
   408  4.0700000000000D+00  0.0000000000000D+00  0.0000000000000D+00
   409  4.0800000000000D+00  0.0000000000000D+00  0.0000000000000D+00
   410  4.0900000000000D+00  0.0000000000000D+00  0.0000000000000D+00
   411  4.1000000000000D+00  0.0000000000000D+00  0.0000000000000D+00
   412  4.1100000000000D+00  0.0000000000000D+00  0.0000000000000D+00
   413  4.1200000000000D+00  0.0000000000000D+00  0.0000000000000D+00
   414  4.1300000000000D+00  0.0000000000000D+00  0.0000000000000D+00
   415  4.1400000000000D+00  0.0000000000000D+00  0.0000000000000D+00
   416  4.1500000000000D+00  0.0000000000000D+00  0.0000000000000D+00
   417  4.1600000000000D+00  0.0000000000000D+00  0.0000000000000D+00
   418  4.1700000000000D+00  0.0000000000000D+00  0.0000000000000D+00
   419  4.1800000000000D+00  0.0000000000000D+00  0.0000000000000D+00
   420  4.1900000000000D+00  0.0000000000000D+00  0.0000000000000D+00
   421  4.2000000000000D+00  0.0000000000000D+00  0.0000000000000D+00
   422  4.2100000000000D+00  0.0000000000000D+00  0.0000000000000D+00