Ir    ONCVPSP-3.3.1  r_core=   2.29513   2.11127   2.29513   2.91352
     77.0000     17.0000      210905    zatom,zion,pspd
     8 -116133   3     4   600     0    pspcod,pspxc,lmax,lloc,mmax,r2well
  5.99000000  0.00000000  0.00000000    rchrg fchrg qchrg
     2     2     2     2     0    nproj
     1     1           extension_switch
   0                         6.8904375561008D+00  1.3752808684882D+00
     1  0.0000000000000D+00  7.8806960956967D-12 -2.3592239273285D-11
     2  1.0000000000000D-02  5.6561188618781D-02 -9.6635407358632D-03
     3  2.0000000000000D-02  1.1303980121370D-01 -1.9289465427030D-02
     4  3.0000000000000D-02  1.6935337290457D-01 -2.8840145646564D-02
     5  4.0000000000000D-02  2.2541966116860D-01 -3.8277928936027D-02
     6  5.0000000000000D-02  2.8115675719201D-01 -4.7565128616225D-02
     7  6.0000000000000D-02  3.3648319742374D-01 -5.6664015772971D-02
     8  7.0000000000000D-02  3.9131807538909D-01 -6.5536814115131D-02
     9  8.0000000000000D-02  4.4558115381356D-01 -7.4145698378583D-02
    10  9.0000000000000D-02  4.9919297709728D-01 -8.2452796920550D-02
    11  1.0000000000000D-01  5.5207498416901D-01 -9.0420199114149D-02
    12  1.1000000000000D-01  6.0414962173533D-01 -9.8009968113185D-02
    13  1.2000000000000D-01  6.5534045792600D-01 -1.0518415951248D-01
    14  1.3000000000000D-01  7.0557229632021D-01 -1.1190484637963D-01
    15  1.4000000000000D-01  7.5477129032064D-01 -1.1813415108035D-01
    16  1.5000000000000D-01  8.0286505782363D-01 -1.2383428426182D-01
    17  1.6000000000000D-01  8.4978279611386D-01 -1.2896759129735D-01
    18  1.7000000000000D-01  8.9545539689089D-01 -1.3349660643081D-01
    19  1.8000000000000D-01  9.3981556131379D-01 -1.3738411479241D-01
    20  1.9000000000000D-01  9.8279791492761D-01 -1.4059322238745D-01
    21  2.0000000000000D-01  1.0243391223132D+00 -1.4308743408853D-01
    22  2.1000000000000D-01  1.0643780012792D+00 -1.4483073958852D-01
    23  2.2000000000000D-01  1.1028556363922D+00 -1.4578770719798D-01
    24  2.3000000000000D-01  1.1397154916183D+00 -1.4592358529663D-01
    25  2.4000000000000D-01  1.1749035218283D+00 -1.4520441117413D-01
    26  2.5000000000000D-01  1.2083682828958D+00 -1.4359712692215D-01
    27  2.6000000000000D-01  1.2400610400970D+00 -1.4106970196713D-01
    28  2.7000000000000D-01  1.2699358745017D+00 -1.3759126176260D-01
    29  2.8000000000000D-01  1.2979497870267D+00 -1.3313222209089D-01
    30  2.9000000000000D-01  1.3240627998034D+00 -1.2766442835814D-01
    31  3.0000000000000D-01  1.3482380544969D+00 -1.2116129920351D-01
    32  3.1000000000000D-01  1.3704419072007D+00 -1.1359797368369D-01
    33  3.2000000000000D-01  1.3906440195164D+00 -1.0495146123850D-01
    34  3.3000000000000D-01  1.4088174454188D+00 -9.5200793591777D-02
    35  3.4000000000000D-01  1.4249387134976D+00 -8.4327177695663D-02
    36  3.5000000000000D-01  1.4389879041625D+00 -7.2314148784698D-02
    37  3.6000000000000D-01  1.4509487213923D+00 -5.9147722570436D-02
    38  3.7000000000000D-01  1.4608085586098D+00 -4.4816545577191D-02
    39  3.8000000000000D-01  1.4685585582633D+00 -2.9312042595321D-02
    40  3.9000000000000D-01  1.4741936647016D+00 -1.2628560210934D-02
    41  4.0000000000000D-01  1.4777126699342D+00  5.2364946406470D-03
    42  4.1000000000000D-01  1.4791182518784D+00  2.4282522154599D-02
    43  4.2000000000000D-01  1.4784170047084D+00  4.4505604224622D-02
    44  4.3000000000000D-01  1.4756194609331D+00  6.5898387144923D-02
    45  4.4000000000000D-01  1.4707401048503D+00  8.8449973476233D-02
    46  4.5000000000000D-01  1.4637973770435D+00  1.1214582408265D-01
    47  4.6000000000000D-01  1.4548136696098D+00  1.3696767131667D-01
    48  4.7000000000000D-01  1.4438153118361D+00  1.6289344429294D-01
    49  4.8000000000000D-01  1.4308325460642D+00  1.8989720714805D-01
    50  4.9000000000000D-01  1.4158994935206D+00  2.1794911113416D-01
    51  5.0000000000000D-01  1.3990541099160D+00  2.4701536133777D-01
    52  5.1000000000000D-01  1.3803381306577D+00  2.7705819875337D-01
    53  5.2000000000000D-01  1.3597970055521D+00  3.0803589837344D-01
    54  5.3000000000000D-01  1.3374798229163D+00  3.3990278388317D-01
    55  5.4000000000000D-01  1.3134392230561D+00  3.7260925946990D-01
    56  5.5000000000000D-01  1.2877313011120D+00  4.0610185917444D-01
    57  5.6000000000000D-01  1.2604154993171D+00  4.4032331412372D-01
    58  5.7000000000000D-01  1.2315544887550D+00  4.7521263789376D-01
    59  5.8000000000000D-01  1.2012140407533D+00  5.1070523015738D-01
    60  5.9000000000000D-01  1.1694628880918D+00  5.4673299867369D-01
    61  6.0000000000000D-01  1.1363725762539D+00  5.8322449957785D-01
    62  6.1000000000000D-01  1.1020173049940D+00  6.2010509582766D-01
    63  6.2000000000000D-01  1.0664737605415D+00  6.5729713356221D-01
    64  6.3000000000000D-01  1.0298209388087D+00  6.9472013602466D-01
    65  6.4000000000000D-01  9.9213996001491D-01  7.3229101459883D-01
    66  6.5000000000000D-01  9.5351387518344D-01  7.6992429640756D-01
    67  6.6000000000000D-01  9.1402746501358D-01  8.0753236781951D-01
    68  6.7000000000000D-01  8.7376703167027D-01  8.4502573311315D-01
    69  6.8000000000000D-01  8.3282018407575D-01  8.8231328744959D-01
    70  6.9000000000000D-01  7.9127561732628D-01  9.1930260321315D-01
    71  7.0000000000000D-01  7.4922288689352D-01  9.5590022868823D-01
    72  7.1000000000000D-01  7.0675217830475D-01  9.9201199795664D-01
    73  7.2000000000000D-01  6.6395407302778D-01  1.0275433508175D+00
    74  7.3000000000000D-01  6.2091931131559D-01  1.0623996614569D+00
    75  7.4000000000000D-01  5.7773855279181D-01  1.0964865745253D+00
    76  7.5000000000000D-01  5.3450213558090D-01  1.1297103472152D+00
    77  7.6000000000000D-01  4.9129983480679D-01  1.1619781958768D+00
    78  7.7000000000000D-01  4.4822062129953D-01  1.1931986456571D+00
    79  7.8000000000000D-01  4.0535242136244D-01  1.2232818816081D+00
    80  7.9000000000000D-01  3.6278187846056D-01  1.2521400996702D+00
    81  8.0000000000000D-01  3.2059411769673D-01  1.2796878559160D+00
    82  8.1000000000000D-01  2.7887251394219D-01  1.3058424124147D+00
    83  8.2000000000000D-01  2.3769846448614D-01  1.3305240780708D+00
    84  8.3000000000000D-01  1.9715116706167D-01  1.3536565427881D+00
    85  8.4000000000000D-01  1.5730740409464D-01  1.3751672033145D+00
    86  8.5000000000000D-01  1.1824133400731D-01  1.3949874791416D+00
    87  8.6000000000000D-01  8.0024290389756D-02  1.4130531168537D+00
    88  8.7000000000000D-01  4.2724589829382D-02  1.4293044813557D+00
    89  8.8000000000000D-01  6.4073491623657D-03  1.4436868324484D+00
    90  8.9000000000000D-01 -2.8865687119321D-02  1.4561505852702D+00
    91  9.0000000000000D-01 -6.3036308605556D-02  1.4666515531795D+00
    92  9.1000000000000D-01 -9.6049989187858D-02  1.4751511717196D+00
    93  9.2000000000000D-01 -1.2785602513945D-01  1.4816167023773D+00
    94  9.3000000000000D-01 -1.5840766047737D-01  1.4860214149281D+00
    95  9.4000000000000D-01 -1.8766219907522D-01  1.4883447472465D+00
    96  9.5000000000000D-01 -2.1558110304418D-01  1.4885724415521D+00
    97  9.6000000000000D-01 -2.4213007695205D-01  1.4866966561600D+00
    98  9.7000000000000D-01 -2.6727913750431D-01  1.4827160519104D+00
    99  9.8000000000000D-01 -2.9100266836651D-01  1.4766358525559D+00
   100  9.9000000000000D-01 -3.1327945986548D-01  1.4684678785018D+00
   101  1.0000000000000D+00 -3.3409273336628D-01  1.4582305534086D+00
   102  1.0100000000000D+00 -3.5343015018149D-01  1.4459488832850D+00
   103  1.0200000000000D+00 -3.7128380493068D-01  1.4316544078222D+00
   104  1.0300000000000D+00 -3.8765020332923D-01  1.4153851238400D+00
   105  1.0400000000000D+00 -4.0253022444939D-01  1.3971853808455D+00
   106  1.0500000000000D+00 -4.1592906755282D-01  1.3771057488177D+00
   107  1.0600000000000D+00 -4.2785618366182D-01  1.3552028584680D+00
   108  1.0700000000000D+00 -4.3832519209207D-01  1.3315392143397D+00
   109  1.0800000000000D+00 -4.4735378223052D-01  1.3061829812333D+00
   110  1.0900000000000D+00 -4.5496360090259D-01  1.2792077445672D+00
   111  1.1000000000000D+00 -4.6118012572153D-01  1.2506922453834D+00
   112  1.1100000000000D+00 -4.6603252487704D-01  1.2207200908373D+00
   113  1.1200000000000D+00 -4.6955350386534D-01  1.1893794411057D+00
   114  1.1300000000000D+00 -4.7177913971718D-01  1.1567626737565D+00
   115  1.1400000000000D+00 -4.7274870332143D-01  1.1229660267071D+00
   116  1.1500000000000D+00 -4.7250447049061D-01  1.0880892210021D+00
   117  1.1600000000000D+00 -4.7109152245472D-01  1.0522350647179D+00
   118  1.1700000000000D+00 -4.6855753650762D-01  1.0155090393834D+00
   119  1.1800000000000D+00 -4.6495256755748D-01  9.7801887036055D-01
   120  1.1900000000000D+00 -4.6032882137203D-01  9.3987408270711D-01
   121  1.2000000000000D+00 -4.5474042033068D-01  9.0118554409038D-01
   122  1.2100000000000D+00 -4.4824316251730D-01  8.6206499636134D-01
   123  1.2200000000000D+00 -4.4089427500400D-01  8.2262457743452D-01
   124  1.2300000000000D+00 -4.3275216219620D-01  7.8297633515710D-01
   125  1.2400000000000D+00 -4.2387615011138D-01  7.4323173485436D-01
   126  1.2500000000000D+00 -4.1432622747263D-01  7.0350116225558D-01
   127  1.2600000000000D+00 -4.0416278450153D-01  6.6389342350942D-01
   128  1.2700000000000D+00 -3.9344635028343D-01  6.2451524397136D-01
   129  1.2800000000000D+00 -3.8223732958196D-01  5.8547076745414D-01
   130  1.2900000000000D+00 -3.7059573996244D-01  5.4686105759186D-01
   131  1.3000000000000D+00 -3.5858095005751D-01  5.0878360291249D-01
   132  1.3100000000000D+00 -3.4625141981694D-01  4.7133182723083D-01
   133  1.3200000000000D+00 -3.3366444353507D-01  4.3459460686871D-01
   134  1.3300000000000D+00 -3.2087589641452D-01  3.9865579613511D-01
   135  1.3400000000000D+00 -3.0793998544940D-01  3.6359376255067D-01
   136  1.3500000000000D+00 -2.9490900530294D-01  3.2948093306940D-01
   137  1.3600000000000D+00 -2.8183309986184D-01  2.9638335256643D-01
   138  1.3700000000000D+00 -2.6876003013625D-01  2.6436025583214D-01
   139  1.3800000000000D+00 -2.5573494788961D-01  2.3346364977776D-01
   140  1.3900000000000D+00 -2.4280018346063D-01  2.0373793595702D-01
   141  1.4000000000000D+00 -2.2999501661305D-01  1.7521945886078D-01
   142  1.4100000000000D+00 -2.1735554615903D-01  1.4793639668359D-01
   143  1.4200000000000D+00 -2.0491434995497D-01  1.2190788292550D-01
   144  1.4300000000000D+00 -1.9270038214371D-01  9.7143961433182D-02
   145  1.4400000000000D+00 -1.8073947353464D-01  7.3647789702876D-02
   146  1.4500000000000D+00 -1.6905478151934D-01  5.1417465687682D-02
   147  1.4600000000000D+00 -1.5766743954767D-01  3.0448445655456D-02
   148  1.4700000000000D+00 -1.4659655329442D-01  1.0733504647857D-02
   149  1.4800000000000D+00 -1.3585912591408D-01 -7.7376230728450D-03
   150  1.4900000000000D+00 -1.2547015570048D-01 -2.4977926988064D-02
   151  1.5000000000000D+00 -1.1544265463155D-01 -4.1003126138961D-02
   152  1.5100000000000D+00 -1.0578769901122D-01 -5.5831559019888D-02
   153  1.5200000000000D+00 -9.6514477218430D-02 -6.9484093014762D-02
   154  1.5300000000000D+00 -8.7630343427821D-02 -8.1984018972439D-02
   155  1.5400000000000D+00 -7.9140875658189D-02 -9.3356936843382D-02
   156  1.5500000000000D+00 -7.1049937805825D-02 -1.0363063313965D-01
   157  1.5600000000000D+00 -6.3359745420448D-02 -1.1283495077937D-01
   158  1.5700000000000D+00 -5.6070934837197D-02 -1.2100165219773D-01
   159  1.5800000000000D+00 -4.9182635392559D-02 -1.2816427635091D-01
   160  1.5900000000000D+00 -4.2692544348123D-02 -1.3435799046863D-01
   161  1.6000000000000D+00 -3.6597004211917D-02 -1.3961943726634D-01
   162  1.6100000000000D+00 -3.0891082092069D-02 -1.4398657844824D-01
   163  1.6200000000000D+00 -2.5568650751847D-02 -1.4749853525523D-01
   164  1.6300000000000D+00 -2.0622471004697D-02 -1.5019542688047D-01
   165  1.6400000000000D+00 -1.6044275117501D-02 -1.5211820750279D-01
   166  1.6500000000000D+00 -1.1824850856643D-02 -1.5330850277091D-01
   167  1.6600000000000D+00 -7.9541258631100D-03 -1.5380844644032D-01
   168  1.6700000000000D+00 -4.4212519815902D-03 -1.5366051801893D-01
   169  1.6800000000000D+00 -1.2146892631822D-03 -1.5290738203927D-01
   170  1.6900000000000D+00  1.6777107446285D-03 -1.5159172983935D-01
   171  1.7000000000000D+00  4.2686226578959D-03 -1.4975612436373D-01
   172  1.7100000000000D+00  6.5711662592555D-03 -1.4744284888152D-01
   173  1.7200000000000D+00  8.5988270357407D-03 -1.4469376002175D-01
   174  1.7300000000000D+00  1.0365378639659D-02 -1.4155014600902D-01
   175  1.7400000000000D+00  1.1884807425693D-02 -1.3805259040629D-01
   176  1.7500000000000D+00  1.3171239426395D-02 -1.3424084218234D-01
   177  1.7600000000000D+00  1.4238869899169D-02 -1.3015369236284D-01
   178  1.7700000000000D+00  1.5101895748475D-02 -1.2582885793857D-01
   179  1.7800000000000D+00  1.5774450967271D-02 -1.2130287331716D-01
   180  1.7900000000000D+00  1.6270545299665D-02 -1.1661098974384D-01
   181  1.8000000000000D+00  1.6604006322731D-02 -1.1178708310873D-01
   182  1.8100000000000D+00  1.6788424994879D-02 -1.0686357019142D-01
   183  1.8200000000000D+00  1.6837104973820D-02 -1.0187133401390D-01
   184  1.8300000000000D+00  1.6763015540408D-02 -9.6839657843855D-02
   185  1.8400000000000D+00  1.6578748589911D-02 -9.1796168899755D-02
   186  1.8500000000000D+00  1.6296479279065D-02 -8.6766790709271D-02
   187  1.8600000000000D+00  1.5927930926304D-02 -8.1775705484823D-02
   188  1.8700000000000D+00  1.5484343582263D-02 -7.6845325054133D-02
   189  1.8800000000000D+00  1.4976446904626D-02 -7.1996271837275D-02
   190  1.8900000000000D+00  1.4414436835514D-02 -6.7247368597673D-02
   191  1.9000000000000D+00  1.3807956281785D-02 -6.2615637336720D-02
   192  1.9100000000000D+00  1.3166079624550D-02 -5.8116306876416D-02
   193  1.9200000000000D+00  1.2497301019696D-02 -5.3762829009723D-02
   194  1.9300000000000D+00  1.1809526628196D-02 -4.9566903492296D-02
   195  1.9400000000000D+00  1.1110070164913D-02 -4.5538510313219D-02
   196  1.9500000000000D+00  1.0405652364880D-02 -4.1685950681286D-02
   197  1.9600000000000D+00  9.7024035840157D-03 -3.8015894797000D-02
   198  1.9700000000000D+00  9.0058696281751D-03 -3.4533436422633D-02
   199  1.9800000000000D+00  8.3210205089845D-03 -3.1242153595942D-02
   200  1.9900000000000D+00  7.6522621382752D-03 -2.8144175474437D-02
   201  2.0000000000000D+00  7.0034508514669D-03 -2.5240254993330D-02
   202  2.0100000000000D+00  6.3779102014757D-03 -2.2529845923458D-02
   203  2.0200000000000D+00  5.7784502586563D-03 -2.0011184827256D-02
   204  2.0300000000000D+00  5.2073888488436D-03 -1.7681376574131D-02
   205  2.0400000000000D+00  4.6665746290777D-03 -1.5536483005690D-02
   206  2.0500000000000D+00  4.1574117464104D-03 -1.3571614172707D-02
   207  2.0600000000000D+00  3.6808858610807D-03 -1.1781021583956D-02
   208  2.0700000000000D+00  3.2375913798633D-03 -1.0158193018272D-02
   209  2.0800000000000D+00  2.8277595889065D-03 -8.6959481889827D-03
   210  2.0900000000000D+00  2.4512874020614D-03 -7.3865344222873D-03
   211  2.1000000000000D+00  2.1077666038527D-03 -6.2217221366242D-03
   212  2.1100000000000D+00  1.7965133012396D-03 -5.1928993637793D-03
   213  2.1200000000000D+00  1.5165972648204D-03 -4.2911644695015D-03
   214  2.1300000000000D+00  1.2668712332900D-03 -3.5074173518525D-03
   215  2.1400000000000D+00  1.0459995167208D-03 -2.8324473292451D-03
   216  2.1500000000000D+00  8.5248610827074D-04 -2.2570183435003D-03
   217  2.1600000000000D+00  6.8470195913276D-04 -1.7719505829550D-03
   218  2.1700000000000D+00  5.4091096273534D-04 -1.3681973479676D-03
   219  2.1800000000000D+00  4.1929511454179D-04 -1.0369184344518D-03
   220  2.1900000000000D+00  3.1797789433715D-04 -7.6954754367896D-04
   221  2.2000000000000D+00  2.3504624558987D-04 -5.5785473739150D-04
   222  2.2100000000000D+00  1.6857111213200D-04 -3.9400385940373D-04
   223  2.2200000000000D+00  1.1662526169670D-04 -2.7062710984068D-04
   224  2.2300000000000D+00  7.7301303117370D-05 -1.8079040106186D-04
   225  2.2400000000000D+00  4.8725640072993D-05 -1.1806954666114D-04
   226  2.2500000000000D+00  2.9015212260818D-05 -7.6346871568226D-05
   227  2.2600000000000D+00  1.6502940070267D-05 -5.1101153282421D-05
   228  2.2700000000000D+00  9.5758726904888D-06 -3.8259688954406D-05
   229  2.2800000000000D+00  6.6316800472278D-06 -3.3851172804663D-05
   230  2.2900000000000D+00  5.4737913143932D-06 -3.1099467057658D-05
   231  2.3000000000000D+00  4.2388110840811D-06 -2.4395561085275D-05
   232  2.3100000000000D+00  2.3231177033986D-06 -1.3255011069284D-05
   233  2.3200000000000D+00  4.2261119565110D-07 -2.3674527464437D-06
   234  2.3300000000000D+00 -4.3744479072938D-07  2.6128825633997D-06
   235  2.3400000000000D+00 -4.2161565470202D-07  2.5157132022946D-06
   236  2.3500000000000D+00 -2.4218693224266D-08  1.4419368924815D-07
   237  2.3600000000000D+00  9.7252886729552D-08 -6.1022588142829D-07
   238  2.3700000000000D+00  8.0495938904905D-08 -5.0743909021733D-07
   239  2.3800000000000D+00 -2.3213338685005D-09  1.3289391515391D-08
   240  2.3900000000000D+00 -1.3851534603305D-08  7.9298574380086D-08
   241  2.4000000000000D+00 -9.7752987809950D-09  5.5962554306970D-08
   242  2.4100000000000D+00  0.0000000000000D+00  0.0000000000000D+00
   243  2.4200000000000D+00  0.0000000000000D+00  0.0000000000000D+00
   244  2.4300000000000D+00  0.0000000000000D+00  0.0000000000000D+00
   245  2.4400000000000D+00  0.0000000000000D+00  0.0000000000000D+00
   246  2.4500000000000D+00  0.0000000000000D+00  0.0000000000000D+00
   247  2.4600000000000D+00  0.0000000000000D+00  0.0000000000000D+00
   248  2.4700000000000D+00  0.0000000000000D+00  0.0000000000000D+00
   249  2.4800000000000D+00  0.0000000000000D+00  0.0000000000000D+00
   250  2.4900000000000D+00  0.0000000000000D+00  0.0000000000000D+00
   251  2.5000000000000D+00  0.0000000000000D+00  0.0000000000000D+00
   252  2.5100000000000D+00  0.0000000000000D+00  0.0000000000000D+00
   253  2.5200000000000D+00  0.0000000000000D+00  0.0000000000000D+00
   254  2.5300000000000D+00  0.0000000000000D+00  0.0000000000000D+00
   255  2.5400000000000D+00  0.0000000000000D+00  0.0000000000000D+00
   256  2.5500000000000D+00  0.0000000000000D+00  0.0000000000000D+00
   257  2.5600000000000D+00  0.0000000000000D+00  0.0000000000000D+00
   258  2.5700000000000D+00  0.0000000000000D+00  0.0000000000000D+00
   259  2.5800000000000D+00  0.0000000000000D+00  0.0000000000000D+00
   260  2.5900000000000D+00  0.0000000000000D+00  0.0000000000000D+00
   261  2.6000000000000D+00  0.0000000000000D+00  0.0000000000000D+00
   262  2.6100000000000D+00  0.0000000000000D+00  0.0000000000000D+00
   263  2.6200000000000D+00  0.0000000000000D+00  0.0000000000000D+00
   264  2.6300000000000D+00  0.0000000000000D+00  0.0000000000000D+00
   265  2.6400000000000D+00  0.0000000000000D+00  0.0000000000000D+00
   266  2.6500000000000D+00  0.0000000000000D+00  0.0000000000000D+00
   267  2.6600000000000D+00  0.0000000000000D+00  0.0000000000000D+00
   268  2.6700000000000D+00  0.0000000000000D+00  0.0000000000000D+00
   269  2.6800000000000D+00  0.0000000000000D+00  0.0000000000000D+00
   270  2.6900000000000D+00  0.0000000000000D+00  0.0000000000000D+00
   271  2.7000000000000D+00  0.0000000000000D+00  0.0000000000000D+00
   272  2.7100000000000D+00  0.0000000000000D+00  0.0000000000000D+00
   273  2.7200000000000D+00  0.0000000000000D+00  0.0000000000000D+00
   274  2.7300000000000D+00  0.0000000000000D+00  0.0000000000000D+00
   275  2.7400000000000D+00  0.0000000000000D+00  0.0000000000000D+00
   276  2.7500000000000D+00  0.0000000000000D+00  0.0000000000000D+00
   277  2.7600000000000D+00  0.0000000000000D+00  0.0000000000000D+00
   278  2.7700000000000D+00  0.0000000000000D+00  0.0000000000000D+00
   279  2.7800000000000D+00  0.0000000000000D+00  0.0000000000000D+00
   280  2.7900000000000D+00  0.0000000000000D+00  0.0000000000000D+00
   281  2.8000000000000D+00  0.0000000000000D+00  0.0000000000000D+00
   282  2.8100000000000D+00  0.0000000000000D+00  0.0000000000000D+00
   283  2.8200000000000D+00  0.0000000000000D+00  0.0000000000000D+00
   284  2.8300000000000D+00  0.0000000000000D+00  0.0000000000000D+00
   285  2.8400000000000D+00  0.0000000000000D+00  0.0000000000000D+00
   286  2.8500000000000D+00  0.0000000000000D+00  0.0000000000000D+00
   287  2.8600000000000D+00  0.0000000000000D+00  0.0000000000000D+00
   288  2.8700000000000D+00  0.0000000000000D+00  0.0000000000000D+00
   289  2.8800000000000D+00  0.0000000000000D+00  0.0000000000000D+00
   290  2.8900000000000D+00  0.0000000000000D+00  0.0000000000000D+00
   291  2.9000000000000D+00  0.0000000000000D+00  0.0000000000000D+00
   292  2.9100000000000D+00  0.0000000000000D+00  0.0000000000000D+00
   293  2.9200000000000D+00  0.0000000000000D+00  0.0000000000000D+00
   294  2.9300000000000D+00  0.0000000000000D+00  0.0000000000000D+00
   295  2.9400000000000D+00  0.0000000000000D+00  0.0000000000000D+00
   296  2.9500000000000D+00  0.0000000000000D+00  0.0000000000000D+00
   297  2.9600000000000D+00  0.0000000000000D+00  0.0000000000000D+00
   298  2.9700000000000D+00  0.0000000000000D+00  0.0000000000000D+00
   299  2.9800000000000D+00  0.0000000000000D+00  0.0000000000000D+00
   300  2.9900000000000D+00  0.0000000000000D+00  0.0000000000000D+00
   301  3.0000000000000D+00  0.0000000000000D+00  0.0000000000000D+00
   302  3.0100000000000D+00  0.0000000000000D+00  0.0000000000000D+00
   303  3.0200000000000D+00  0.0000000000000D+00  0.0000000000000D+00
   304  3.0300000000000D+00  0.0000000000000D+00  0.0000000000000D+00
   305  3.0400000000000D+00  0.0000000000000D+00  0.0000000000000D+00
   306  3.0500000000000D+00  0.0000000000000D+00  0.0000000000000D+00
   307  3.0600000000000D+00  0.0000000000000D+00  0.0000000000000D+00
   308  3.0700000000000D+00  0.0000000000000D+00  0.0000000000000D+00
   309  3.0800000000000D+00  0.0000000000000D+00  0.0000000000000D+00
   310  3.0900000000000D+00  0.0000000000000D+00  0.0000000000000D+00
   311  3.1000000000000D+00  0.0000000000000D+00  0.0000000000000D+00
   312  3.1100000000000D+00  0.0000000000000D+00  0.0000000000000D+00
   313  3.1200000000000D+00  0.0000000000000D+00  0.0000000000000D+00
   314  3.1300000000000D+00  0.0000000000000D+00  0.0000000000000D+00
   315  3.1400000000000D+00  0.0000000000000D+00  0.0000000000000D+00
   316  3.1500000000000D+00  0.0000000000000D+00  0.0000000000000D+00
   317  3.1600000000000D+00  0.0000000000000D+00  0.0000000000000D+00
   318  3.1700000000000D+00  0.0000000000000D+00  0.0000000000000D+00
   319  3.1800000000000D+00  0.0000000000000D+00  0.0000000000000D+00
   320  3.1900000000000D+00  0.0000000000000D+00  0.0000000000000D+00
   321  3.2000000000000D+00  0.0000000000000D+00  0.0000000000000D+00
   322  3.2100000000000D+00  0.0000000000000D+00  0.0000000000000D+00
   323  3.2200000000000D+00  0.0000000000000D+00  0.0000000000000D+00
   324  3.2300000000000D+00  0.0000000000000D+00  0.0000000000000D+00
   325  3.2400000000000D+00  0.0000000000000D+00  0.0000000000000D+00
   326  3.2500000000000D+00  0.0000000000000D+00  0.0000000000000D+00
   327  3.2600000000000D+00  0.0000000000000D+00  0.0000000000000D+00
   328  3.2700000000000D+00  0.0000000000000D+00  0.0000000000000D+00
   329  3.2800000000000D+00  0.0000000000000D+00  0.0000000000000D+00
   330  3.2900000000000D+00  0.0000000000000D+00  0.0000000000000D+00
   331  3.3000000000000D+00  0.0000000000000D+00  0.0000000000000D+00
   332  3.3100000000000D+00  0.0000000000000D+00  0.0000000000000D+00
   333  3.3200000000000D+00  0.0000000000000D+00  0.0000000000000D+00
   334  3.3300000000000D+00  0.0000000000000D+00  0.0000000000000D+00
   335  3.3400000000000D+00  0.0000000000000D+00  0.0000000000000D+00
   336  3.3500000000000D+00  0.0000000000000D+00  0.0000000000000D+00
   337  3.3600000000000D+00  0.0000000000000D+00  0.0000000000000D+00
   338  3.3700000000000D+00  0.0000000000000D+00  0.0000000000000D+00
   339  3.3800000000000D+00  0.0000000000000D+00  0.0000000000000D+00
   340  3.3900000000000D+00  0.0000000000000D+00  0.0000000000000D+00
   341  3.4000000000000D+00  0.0000000000000D+00  0.0000000000000D+00
   342  3.4100000000000D+00  0.0000000000000D+00  0.0000000000000D+00
   343  3.4200000000000D+00  0.0000000000000D+00  0.0000000000000D+00
   344  3.4300000000000D+00  0.0000000000000D+00  0.0000000000000D+00
   345  3.4400000000000D+00  0.0000000000000D+00  0.0000000000000D+00
   346  3.4500000000000D+00  0.0000000000000D+00  0.0000000000000D+00
   347  3.4600000000000D+00  0.0000000000000D+00  0.0000000000000D+00
   348  3.4700000000000D+00  0.0000000000000D+00  0.0000000000000D+00
   349  3.4800000000000D+00  0.0000000000000D+00  0.0000000000000D+00
   350  3.4900000000000D+00  0.0000000000000D+00  0.0000000000000D+00
   351  3.5000000000000D+00  0.0000000000000D+00  0.0000000000000D+00
   352  3.5100000000000D+00  0.0000000000000D+00  0.0000000000000D+00
   353  3.5200000000000D+00  0.0000000000000D+00  0.0000000000000D+00
   354  3.5300000000000D+00  0.0000000000000D+00  0.0000000000000D+00
   355  3.5400000000000D+00  0.0000000000000D+00  0.0000000000000D+00
   356  3.5500000000000D+00  0.0000000000000D+00  0.0000000000000D+00
   357  3.5600000000000D+00  0.0000000000000D+00  0.0000000000000D+00
   358  3.5700000000000D+00  0.0000000000000D+00  0.0000000000000D+00
   359  3.5800000000000D+00  0.0000000000000D+00  0.0000000000000D+00
   360  3.5900000000000D+00  0.0000000000000D+00  0.0000000000000D+00
   361  3.6000000000000D+00  0.0000000000000D+00  0.0000000000000D+00
   362  3.6100000000000D+00  0.0000000000000D+00  0.0000000000000D+00
   363  3.6200000000000D+00  0.0000000000000D+00  0.0000000000000D+00
   364  3.6300000000000D+00  0.0000000000000D+00  0.0000000000000D+00
   365  3.6400000000000D+00  0.0000000000000D+00  0.0000000000000D+00
   366  3.6500000000000D+00  0.0000000000000D+00  0.0000000000000D+00
   367  3.6600000000000D+00  0.0000000000000D+00  0.0000000000000D+00
   368  3.6700000000000D+00  0.0000000000000D+00  0.0000000000000D+00
   369  3.6800000000000D+00  0.0000000000000D+00  0.0000000000000D+00
   370  3.6900000000000D+00  0.0000000000000D+00  0.0000000000000D+00
   371  3.7000000000000D+00  0.0000000000000D+00  0.0000000000000D+00
   372  3.7100000000000D+00  0.0000000000000D+00  0.0000000000000D+00
   373  3.7200000000000D+00  0.0000000000000D+00  0.0000000000000D+00
   374  3.7300000000000D+00  0.0000000000000D+00  0.0000000000000D+00
   375  3.7400000000000D+00  0.0000000000000D+00  0.0000000000000D+00
   376  3.7500000000000D+00  0.0000000000000D+00  0.0000000000000D+00
   377  3.7600000000000D+00  0.0000000000000D+00  0.0000000000000D+00
   378  3.7700000000000D+00  0.0000000000000D+00  0.0000000000000D+00
   379  3.7800000000000D+00  0.0000000000000D+00  0.0000000000000D+00
   380  3.7900000000000D+00  0.0000000000000D+00  0.0000000000000D+00
   381  3.8000000000000D+00  0.0000000000000D+00  0.0000000000000D+00
   382  3.8100000000000D+00  0.0000000000000D+00  0.0000000000000D+00
   383  3.8200000000000D+00  0.0000000000000D+00  0.0000000000000D+00
   384  3.8300000000000D+00  0.0000000000000D+00  0.0000000000000D+00
   385  3.8400000000000D+00  0.0000000000000D+00  0.0000000000000D+00
   386  3.8500000000000D+00  0.0000000000000D+00  0.0000000000000D+00
   387  3.8600000000000D+00  0.0000000000000D+00  0.0000000000000D+00
   388  3.8700000000000D+00  0.0000000000000D+00  0.0000000000000D+00
   389  3.8800000000000D+00  0.0000000000000D+00  0.0000000000000D+00
   390  3.8900000000000D+00  0.0000000000000D+00  0.0000000000000D+00
   391  3.9000000000000D+00  0.0000000000000D+00  0.0000000000000D+00
   392  3.9100000000000D+00  0.0000000000000D+00  0.0000000000000D+00
   393  3.9200000000000D+00  0.0000000000000D+00  0.0000000000000D+00
   394  3.9300000000000D+00  0.0000000000000D+00  0.0000000000000D+00
   395  3.9400000000000D+00  0.0000000000000D+00  0.0000000000000D+00
   396  3.9500000000000D+00  0.0000000000000D+00  0.0000000000000D+00
   397  3.9600000000000D+00  0.0000000000000D+00  0.0000000000000D+00
   398  3.9700000000000D+00  0.0000000000000D+00  0.0000000000000D+00
   399  3.9800000000000D+00  0.0000000000000D+00  0.0000000000000D+00
   400  3.9900000000000D+00  0.0000000000000D+00  0.0000000000000D+00
   401  4.0000000000000D+00  0.0000000000000D+00  0.0000000000000D+00
   402  4.0100000000000D+00  0.0000000000000D+00  0.0000000000000D+00
   403  4.0200000000000D+00  0.0000000000000D+00  0.0000000000000D+00
   404  4.0300000000000D+00  0.0000000000000D+00  0.0000000000000D+00
   405  4.0400000000000D+00  0.0000000000000D+00  0.0000000000000D+00
   406  4.0500000000000D+00  0.0000000000000D+00  0.0000000000000D+00
   407  4.0600000000000D+00  0.0000000000000D+00  0.0000000000000D+00
   408  4.0700000000000D+00  0.0000000000000D+00  0.0000000000000D+00
   409  4.0800000000000D+00  0.0000000000000D+00  0.0000000000000D+00
   410  4.0900000000000D+00  0.0000000000000D+00  0.0000000000000D+00
   411  4.1000000000000D+00  0.0000000000000D+00  0.0000000000000D+00
   412  4.1100000000000D+00  0.0000000000000D+00  0.0000000000000D+00
   413  4.1200000000000D+00  0.0000000000000D+00  0.0000000000000D+00
   414  4.1300000000000D+00  0.0000000000000D+00  0.0000000000000D+00
   415  4.1400000000000D+00  0.0000000000000D+00  0.0000000000000D+00
   416  4.1500000000000D+00  0.0000000000000D+00  0.0000000000000D+00
   417  4.1600000000000D+00  0.0000000000000D+00  0.0000000000000D+00
   418  4.1700000000000D+00  0.0000000000000D+00  0.0000000000000D+00
   419  4.1800000000000D+00  0.0000000000000D+00  0.0000000000000D+00
   420  4.1900000000000D+00  0.0000000000000D+00  0.0000000000000D+00
   421  4.2000000000000D+00  0.0000000000000D+00  0.0000000000000D+00
   422  4.2100000000000D+00  0.0000000000000D+00  0.0000000000000D+00