Ir    ONCVPSP-3.3.1  r_core=   2.29513   2.11127   2.29513   2.91352
     77.0000     17.0000      210905    zatom,zion,pspd
     8 -116133   3     4   600     0    pspcod,pspxc,lmax,lloc,mmax,r2well
  5.99000000  0.00000000  0.00000000    rchrg fchrg qchrg
     2     4     4     4    nproj
     3     1           extension_switch
     4     4     4    nprojso
   0                         1.3769991748964D+00  6.9049340618406D+00
     1  0.0000000000000D+00 -2.3654356251512D-11  7.9613537984358D-12
     2  1.0000000000000D-02 -9.7208967833991D-03  5.6479548372015D-02
     3  2.0000000000000D-02 -1.9404215091703D-02  1.1287687540675D-01
     4  3.0000000000000D-02 -2.9012363529752D-02  1.6910986961942D-01
     5  4.0000000000000D-02 -3.8507725598230D-02  2.2509663930521D-01
     6  5.0000000000000D-02 -4.7852648975533D-02  2.8075562261452D-01
     7  6.0000000000000D-02 -5.7009436983567D-02  3.3600569784497D-01
     8  7.0000000000000D-02 -6.5940342937637D-02  3.9076629401303D-01
     9  8.0000000000000D-02 -7.4607568056890D-02  4.4495750175995D-01
    10  9.0000000000000D-02 -8.2973263582550D-02  4.9850018463744D-01
    11  1.0000000000000D-01 -9.0999537716469D-02  5.5131609080612D-01
    12  1.1000000000000D-01 -9.8648467952604D-02  6.0332796516718D-01
    13  1.2000000000000D-01 -1.0588211932918D-01  6.5445966193225D-01
    14  1.3000000000000D-01 -1.1266256907979D-01  7.0463625762015D-01
    15  1.4000000000000D-01 -1.1895193810774D-01  7.5378416445163D-01
    16  1.5000000000000D-01 -1.2471242965026D-01  8.0183124409379D-01
    17  1.6000000000000D-01 -1.2990637543760D-01  8.4870692168603D-01
    18  1.7000000000000D-01 -1.3449628958738D-01  8.9434230005843D-01
    19  1.8000000000000D-01 -1.3844493040722D-01  9.3867027403123D-01
    20  1.9000000000000D-01 -1.4171537020872D-01  9.8162564466243D-01
    21  2.0000000000000D-01 -1.4427107316445D-01  1.0231452332871D+00
    22  2.1000000000000D-01 -1.4607598116615D-01  1.0631679951693D+00
    23  2.2000000000000D-01 -1.4709460756887D-01  1.1016351325653D+00
    24  2.3000000000000D-01 -1.4729213863092D-01  1.1384902069716D+00
    25  2.4000000000000D-01 -1.4663454238548D-01  1.1736792503128D+00
    26  2.5000000000000D-01 -1.4508868460600D-01  1.2071508747978D+00
    27  2.6000000000000D-01 -1.4262245145466D-01  1.2388563811561D+00
    28  2.7000000000000D-01 -1.3920487833259D-01  1.2687498649419D+00
    29  2.8000000000000D-01 -1.3480628438119D-01  1.2967883205787D+00
    30  2.9000000000000D-01 -1.2939841201774D-01  1.3229317427949D+00
    31  3.0000000000000D-01 -1.2295457082548D-01  1.3471432250889D+00
    32  3.1000000000000D-01 -1.1544978505797D-01  1.3693890548448D+00
    33  3.2000000000000D-01 -1.0686094396244D-01  1.3896388047087D+00
    34  3.3000000000000D-01 -9.7166954074764D-02  1.4078654198232D+00
    35  3.4000000000000D-01 -8.6348892592549D-02  1.4240453005112D+00
    36  3.5000000000000D-01 -7.4390160890957D-02  1.4381583799927D+00
    37  3.6000000000000D-01 -6.1276637209988D-02  1.4501881967127D+00
    38  3.7000000000000D-01 -4.6996827511626D-02  1.4601219608608D+00
    39  3.8000000000000D-01 -3.1542013481084D-02  1.4679506146594D+00
    40  3.9000000000000D-01 -1.4906396628509D-02  1.4736688860048D+00
    41  4.0000000000000D-01  2.9127625639865D-03  1.4772753350496D+00
    42  4.1000000000000D-01  2.1915011509682D-02  1.4787723933258D+00
    43  4.2000000000000D-01  4.2096579456712D-02  1.4781663950181D+00
    44  4.3000000000000D-01  6.3450259548293D-02  1.4754676000114D+00
    45  4.4000000000000D-01  8.5965300036638D-02  1.4706902083573D+00
    46  4.5000000000000D-01  1.0962730566036D-01  1.4638523658198D+00
    47  4.6000000000000D-01  1.3441815016575D-01  1.4549761601861D+00
    48  4.7000000000000D-01  1.6031590091551D-01  1.4440876080540D+00
    49  4.8000000000000D-01  1.8729475648543D-01  1.4312166318336D+00
    50  4.9000000000000D-01  2.1532499809974D-01  1.4163970267334D+00
    51  5.0000000000000D-01  2.4437295569979D-01  1.3996664175326D+00
    52  5.1000000000000D-01  2.7440098937850D-01  1.3810662049764D+00
    53  5.2000000000000D-01  3.0536748684538D-01  1.3606415016688D+00
    54  5.3000000000000D-01  3.3722687751335D-01  1.3384410573765D+00
    55  5.4000000000000D-01  3.6992966372029D-01  1.3145171736964D+00
    56  5.5000000000000D-01  4.0342246951516D-01  1.2889256080844D+00
    57  5.6000000000000D-01  4.3764810735128D-01  1.2617254672847D+00
    58  5.7000000000000D-01  4.7254566293785D-01  1.2329790902434D+00
    59  5.8000000000000D-01  5.0805059840717D-01  1.2027519206373D+00
    60  5.9000000000000D-01  5.4409487385668D-01  1.1711123691939D+00
    61  6.0000000000000D-01  5.8060708722670D-01  1.1381316660260D+00
    62  6.1000000000000D-01  6.1751263237253D-01  1.1038837032497D+00
    63  6.2000000000000D-01  6.5473387508815D-01  1.0684448682039D+00
    64  6.3000000000000D-01  6.9219034673522D-01  1.0318938676344D+00
    65  6.4000000000000D-01  7.2979895502898D-01  9.9431154324991D-01
    66  6.5000000000000D-01  7.6747421143012D-01  9.5578067910690D-01
    67  6.6000000000000D-01  8.0512847449082D-01  9.1638580131880D-01
    68  6.7000000000000D-01  8.4267220840470D-01  8.7621297063176D-01
    69  6.8000000000000D-01  8.8001425591310D-01  8.3534956844792D-01
    70  6.9000000000000D-01  9.1706212462730D-01  7.9388407691685D-01
    71  7.0000000000000D-01  9.5372228573595D-01  7.5190585375298D-01
    72  7.1000000000000D-01  9.8990048398171D-01  7.0950490247109D-01
    73  7.2000000000000D-01  1.0255020577095D+00  6.6677163876428D-01
    74  7.3000000000000D-01  1.0604322677138D+00  6.2379665377809D-01
    75  7.4000000000000D-01  1.0945966335411D+00  5.8067047506068D-01
    76  7.5000000000000D-01  1.1279012758422D+00  5.3748332599236D-01
    77  7.6000000000000D-01  1.1602532633077D+00  4.9432488451742D-01
    78  7.7000000000000D-01  1.1915609626754D+00  4.5128404201771D-01
    79  7.8000000000000D-01  1.2217343902491D+00  4.0844866318031D-01
    80  7.9000000000000D-01  1.2506855633390D+00  3.6590534772041D-01
    81  8.0000000000000D-01  1.2783288500023D+00  3.2373919482612D-01
    82  8.1000000000000D-01  1.3045813154461D+00  2.8203357119293D-01
    83  8.2000000000000D-01  1.3293630634428D+00  2.4086988351326D-01
    84  8.3000000000000D-01  1.3525975711063D+00  2.0032735627957D-01
    85  8.4000000000000D-01  1.3742120153846D+00  1.6048281574929D-01
    86  8.5000000000000D-01  1.3941375896375D+00  1.2141048090490D-01
    87  8.6000000000000D-01  1.4123098086937D+00  8.3181762224173D-02
    88  8.7000000000000D-01  1.4286688008128D+00  4.5865069052970D-02
    89  8.8000000000000D-01  1.4431595850193D+00  9.5256263467451D-03
    90  8.9000000000000D-01  1.4557323323226D+00 -2.5774698483116D-02
    91  9.0000000000000D-01  1.4663426093967D+00 -5.9977557915683D-02
    92  9.1000000000000D-01  1.4749516033564D+00 -9.3028275194263D-02
    93  9.2000000000000D-01  1.4815263263392D+00 -1.2487598310271D-01
    94  9.3000000000000D-01  1.4860397986823D+00 -1.5547375006297D-01
    95  9.4000000000000D-01  1.4884712095695D+00 -1.8477869301907D-01
    96  9.5000000000000D-01  1.4888060541159D+00 -2.1275207662210D-01
    97  9.6000000000000D-01  1.4870362459558D+00 -2.3935939828229D-01
    98  9.7000000000000D-01  1.4831602045044D+00 -2.6457045870867D-01
    99  9.8000000000000D-01  1.4771829161696D+00 -2.8835941761221D-01
   100  9.9000000000000D-01  1.4691159689051D+00 -3.1070483430615D-01
   101  1.0000000000000D+00  1.4589775596112D+00 -3.3158969299687D-01
   102  1.0100000000000D+00  1.4467924740082D+00 -3.5100141261812D-01
   103  1.0200000000000D+00  1.4325920387296D+00 -3.6893184112299D-01
   104  1.0300000000000D+00  1.4164140455033D+00 -3.8537723420875D-01
   105  1.0400000000000D+00  1.3983026474182D+00 -4.0033821851423D-01
   106  1.0500000000000D+00  1.3783082273864D+00 -4.1381973938515D-01
   107  1.0600000000000D+00  1.3564872390481D+00 -4.2583099337093D-01
   108  1.0700000000000D+00  1.3329020204805D+00 -4.3638534567279D-01
   109  1.0800000000000D+00  1.3076205811931D+00 -4.4550023282278D-01
   110  1.0900000000000D+00  1.2807163630190D+00 -4.5319705093515D-01
   111  1.1000000000000D+00  1.2522679756070D+00 -4.5950102991936D-01
   112  1.1100000000000D+00  1.2223589073532D+00 -4.6444109410892D-01
   113  1.1200000000000D+00  1.1910772127040D+00 -4.6804970980530D-01
   114  1.1300000000000D+00  1.1585151768708D+00 -4.7036272029056D-01
   115  1.1400000000000D+00  1.1247689590844D+00 -4.7141916890370D-01
   116  1.1500000000000D+00  1.0899382156146D+00 -4.7126111082466D-01
   117  1.1600000000000D+00  1.0541257038658D+00 -4.6993341424996D-01
   118  1.1700000000000D+00  1.0174368689327D+00 -4.6748355168215D-01
   119  1.1800000000000D+00  9.7997941406112D-01 -4.6396138208250D-01
   120  1.1900000000000D+00  9.4186285653603D-01 -4.5941892467615D-01
   121  1.2000000000000D+00  9.0319807056331D-01 -4.5391012521990D-01
   122  1.2100000000000D+00  8.6409681875628D-01 -4.4749061556538D-01
   123  1.2200000000000D+00  8.2467127387110D-01 -4.4021746736652D-01
   124  1.2300000000000D+00  7.8503353247549D-01 -4.3214894080075D-01
   125  1.2400000000000D+00  7.4529512223785D-01 -4.2334422917566D-01
   126  1.2500000000000D+00  7.0556650454177D-01 -4.1386320030147D-01
   127  1.2600000000000D+00  6.6595657413553D-01 -4.0376613551367D-01
   128  1.2700000000000D+00  6.2657215750059D-01 -3.9311346721879D-01
   129  1.2800000000000D+00  5.8751751163083D-01 -3.8196551583998D-01
   130  1.2900000000000D+00  5.4889382487482D-01 -3.7038222702256D-01
   131  1.3000000000000D+00  5.1079872143753D-01 -3.5842290993330D-01
   132  1.3100000000000D+00  4.7332577115514D-01 -3.4614597749583D-01
   133  1.3200000000000D+00  4.3656400605182D-01 -3.3360868935679D-01
   134  1.3300000000000D+00  4.0059744511329D-01 -3.2086689834215D-01
   135  1.3400000000000D+00  3.6550462876379D-01 -3.0797480118816D-01
   136  1.3500000000000D+00  3.3135816430173D-01 -2.9498469422338D-01
   137  1.3600000000000D+00  2.9822428356564D-01 -2.8194673468537D-01
   138  1.3700000000000D+00  2.6616241407291D-01 -2.6890870834276D-01
   139  1.3800000000000D+00  2.3522476034342D-01 -2.5591580281183D-01
   140  1.3900000000000D+00  2.0545592549060D-01 -2.4301039501075D-01
   141  1.4000000000000D+00  1.7689245863233D-01 -2.3023182167147D-01
   142  1.4100000000000D+00  1.4956274451462D-01 -2.1761624836697D-01
   143  1.4200000000000D+00  1.2348612451478D-01 -2.0519632942442D-01
   144  1.4300000000000D+00  9.8672850411496D-02 -1.9300110447348D-01
   145  1.4400000000000D+00  7.5126284992560D-02 -1.8105649662159D-01
   146  1.4500000000000D+00  5.2844726141858D-02 -1.6938576032624D-01
   147  1.4600000000000D+00  3.1823820542653D-02 -1.5801012813160D-01
   148  1.4700000000000D+00  1.2056525411293D-02 -1.4694880680605D-01
   149  1.4800000000000D+00 -6.4672492710887D-03 -1.3621890287039D-01
   150  1.4900000000000D+00 -2.3760325009988D-02 -1.2583551939028D-01
   151  1.5000000000000D+00 -3.9838260873840D-02 -1.1581177409812D-01
   152  1.5100000000000D+00 -5.4719243804695D-02 -1.0615884951513D-01
   153  1.5200000000000D+00 -6.8423998117030D-02 -9.6886040309606D-02
   154  1.5300000000000D+00 -8.0975679723853D-02 -8.8000806749319D-02
   155  1.5400000000000D+00 -9.2399761878688D-02 -7.9508832365207D-02
   156  1.5500000000000D+00 -1.0272391272925D-01 -7.1414085614562D-02
   157  1.5600000000000D+00 -1.1197786507947D-01 -6.3718885348485D-02
   158  1.5700000000000D+00 -1.2019327944674D-01 -5.6423969639817D-02
   159  1.5800000000000D+00 -1.2740360099596D-01 -4.9528567712852D-02
   160  1.5900000000000D+00 -1.3364391119668D-01 -4.3030474601431D-02
   161  1.6000000000000D+00 -1.3895077492101D-01 -3.6926128223896D-02
   162  1.6100000000000D+00 -1.4336208381477D-01 -3.1210688509394D-02
   163  1.6200000000000D+00 -1.4691689669692D-01 -2.5878118244656D-02
   164  1.6300000000000D+00 -1.4965527781047D-01 -2.0921265279841D-02
   165  1.6400000000000D+00 -1.5161813367637D-01 -1.6331945761454D-02
   166  1.6500000000000D+00 -1.5284704938444D-01 -1.2101028026702D-02
   167  1.6600000000000D+00 -1.5338412502440D-01 -8.2185168451621D-03
   168  1.6700000000000D+00 -1.5327181311381D-01 -4.6736376325765D-03
   169  1.6800000000000D+00 -1.5255275764204D-01 -1.4549203558276D-03
   170  1.6900000000000D+00 -1.5126963561345D-01  1.4497172574386D-03
   171  1.7000000000000D+00 -1.4946500160198D-01  4.0528874423477D-03
   172  1.7100000000000D+00 -1.4718113621556D-01  6.3676514469700D-03
   173  1.7200000000000D+00 -1.4445989887108D-01  8.4074401014679D-03
   174  1.7300000000000D+00 -1.4134258576434D-01  1.0185976294858D-02
   175  1.7400000000000D+00 -1.3786979334256D-01  1.1717199513239D-02
   176  1.7500000000000D+00 -1.3408128809806D-01  1.3015192802106D-02
   177  1.7600000000000D+00 -1.3001588294275D-01  1.4094112286512D-02
   178  1.7700000000000D+00 -1.2571132083819D-01  1.4968119553367D-02
   179  1.7800000000000D+00 -1.2120416596826D-01  1.5651317040557D-02
   180  1.7900000000000D+00 -1.1652970288083D-01  1.6157686635465D-02
   181  1.8000000000000D+00 -1.1172184401602D-01  1.6501031681240D-02
   182  1.8100000000000D+00 -1.0681304567291D-01  1.6694922438970D-02
   183  1.8200000000000D+00 -1.0183423308971D-01  1.6752645310532D-02
   184  1.8300000000000D+00 -9.6814734181057D-02  1.6687155659510D-02
   185  1.8400000000000D+00 -9.1782222968689D-02  1.6511034686745D-02
   186  1.8500000000000D+00 -8.6762671622673D-02  1.6236449937831D-02
   187  1.8600000000000D+00 -8.1780312633038D-02  1.5875120093621D-02
   188  1.8700000000000D+00 -7.6857609619472D-02  1.5438283451255D-02
   189  1.8800000000000D+00 -7.2015237931910D-02  1.4936670613793D-02
   190  1.8900000000000D+00 -6.7272073976650D-02  1.4380480958670D-02
   191  1.9000000000000D+00 -6.2645193926986D-02  1.3779363184561D-02
   192  1.9100000000000D+00 -5.8149881188406D-02  1.3142399703331D-02
   193  1.9200000000000D+00 -5.3799642370643D-02  1.2478094796674D-02
   194  1.9300000000000D+00 -4.9606232129080D-02  1.1794366708293D-02
   195  1.9400000000000D+00 -4.5579685574528D-02  1.1098543149928D-02
   196  1.9500000000000D+00 -4.1728358578908D-02  1.0397360434351D-02
   197  1.9600000000000D+00 -3.8058974843163D-02  9.6969657318882D-03
   198  1.9700000000000D+00 -3.4576680564931D-02  9.0029228297001D-03
   199  1.9800000000000D+00 -3.1285105176792D-02  8.3202207889793D-03
   200  1.9900000000000D+00 -2.8186428125125D-02  7.6532855082219D-03
   201  2.0000000000000D+00 -2.5281451386234D-02  7.0059940886051D-03
   202  2.0100000000000D+00 -2.2569676692381D-02  6.3816915766655D-03
   203  2.0200000000000D+00 -2.0049386980614D-02  5.7832099740841D-03
   204  2.0300000000000D+00 -1.7717731459716D-02  5.2128892065810D-03
   205  2.0400000000000D+00 -1.5570814244549D-02  4.6726000768806D-03
   206  2.0500000000000D+00 -1.3603785582355D-02  4.1637688082614D-03
   207  2.0600000000000D+00 -1.1810935042616D-02  3.6874029365178D-03
   208  2.0700000000000D+00 -1.0185786178633D-02  3.2441183823745D-03
   209  2.0800000000000D+00 -8.7211921808860D-03  2.8341674738093D-03
   210  2.0900000000000D+00 -7.4094314188713D-03  2.4574675420486D-03
   211  2.1000000000000D+00 -6.2423028064017D-03  2.1136300227073D-03
   212  2.1100000000000D+00 -5.2112202256286D-03  1.8019897748212D-03
   213  2.1200000000000D+00 -4.3073052148685D-03  1.5216343158516D-03
   214  2.1300000000000D+00 -3.5214781209120D-03  1.2714330184662D-03
   215  2.1400000000000D+00 -2.8445459281243D-03  1.0500656063600D-03
   216  2.1500000000000D+00 -2.2672874218831D-03  8.5605016936584D-04
   217  2.1600000000000D+00 -1.7805347798514D-03  6.8777034923382D-04
   218  2.1700000000000D+00 -1.3752504159807D-03  5.4350124379724D-04
   219  2.1800000000000D+00 -1.0426003487742D-03  4.2143449339248D-04
   220  2.1900000000000D+00 -7.7402160460492D-04  3.1970159902245D-04
   221  2.2000000000000D+00 -5.6128467426780D-04  2.3639584577797D-04
   222  2.2100000000000D+00 -3.9655094367983D-04  1.6959279168328D-04
   223  2.2200000000000D+00 -2.7244722146260D-04  1.1736801438031D-04
   224  2.2300000000000D+00 -1.8203132875086D-04  7.7815224610790D-05
   225  2.2400000000000D+00 -1.1886822079631D-04  4.9060138621871D-05
   226  2.2500000000000D+00 -7.6825661346566D-05  2.9216789462828D-05
   227  2.2600000000000D+00 -5.1367193162460D-05  1.6614090442142D-05
   228  2.2700000000000D+00 -3.8402202193327D-05  9.6332884219640D-06
   229  2.2800000000000D+00 -3.3938359360993D-05  6.6643305753584D-06
   230  2.2900000000000D+00 -3.1166160563633D-05  5.4973216382436D-06
   231  2.3000000000000D+00 -2.4446545968805D-05  4.2565017384138D-06
   232  2.3100000000000D+00 -1.3283001439306D-05  2.3328036215238D-06
   233  2.3200000000000D+00 -2.3726008883418D-06  4.2440312731640D-07
   234  2.3300000000000D+00  2.6179166273043D-06 -4.3912286084987D-07
   235  2.3400000000000D+00  2.5205529566149D-06 -4.2322396686260D-07
   236  2.3500000000000D+00  1.4447142830545D-07 -2.4310844913370D-08
   237  2.3600000000000D+00 -6.1131950295251D-07  9.7611539520715D-08
   238  2.3700000000000D+00 -5.0834054593575D-07  8.0790435805008D-08
   239  2.3800000000000D+00  1.3317515759805D-08 -2.3311718492740D-09
   240  2.3900000000000D+00  7.9466393387068D-08 -1.3910238408457D-08
   241  2.4000000000000D+00  5.6080987461227D-08 -9.8167272040098D-09
   242  2.4100000000000D+00  0.0000000000000D+00  0.0000000000000D+00
   243  2.4200000000000D+00  0.0000000000000D+00  0.0000000000000D+00
   244  2.4300000000000D+00  0.0000000000000D+00  0.0000000000000D+00
   245  2.4400000000000D+00  0.0000000000000D+00  0.0000000000000D+00
   246  2.4500000000000D+00  0.0000000000000D+00  0.0000000000000D+00
   247  2.4600000000000D+00  0.0000000000000D+00  0.0000000000000D+00
   248  2.4700000000000D+00  0.0000000000000D+00  0.0000000000000D+00
   249  2.4800000000000D+00  0.0000000000000D+00  0.0000000000000D+00
   250  2.4900000000000D+00  0.0000000000000D+00  0.0000000000000D+00
   251  2.5000000000000D+00  0.0000000000000D+00  0.0000000000000D+00
   252  2.5100000000000D+00  0.0000000000000D+00  0.0000000000000D+00
   253  2.5200000000000D+00  0.0000000000000D+00  0.0000000000000D+00
   254  2.5300000000000D+00  0.0000000000000D+00  0.0000000000000D+00
   255  2.5400000000000D+00  0.0000000000000D+00  0.0000000000000D+00
   256  2.5500000000000D+00  0.0000000000000D+00  0.0000000000000D+00
   257  2.5600000000000D+00  0.0000000000000D+00  0.0000000000000D+00
   258  2.5700000000000D+00  0.0000000000000D+00  0.0000000000000D+00
   259  2.5800000000000D+00  0.0000000000000D+00  0.0000000000000D+00
   260  2.5900000000000D+00  0.0000000000000D+00  0.0000000000000D+00
   261  2.6000000000000D+00  0.0000000000000D+00  0.0000000000000D+00
   262  2.6100000000000D+00  0.0000000000000D+00  0.0000000000000D+00
   263  2.6200000000000D+00  0.0000000000000D+00  0.0000000000000D+00
   264  2.6300000000000D+00  0.0000000000000D+00  0.0000000000000D+00
   265  2.6400000000000D+00  0.0000000000000D+00  0.0000000000000D+00
   266  2.6500000000000D+00  0.0000000000000D+00  0.0000000000000D+00
   267  2.6600000000000D+00  0.0000000000000D+00  0.0000000000000D+00
   268  2.6700000000000D+00  0.0000000000000D+00  0.0000000000000D+00
   269  2.6800000000000D+00  0.0000000000000D+00  0.0000000000000D+00
   270  2.6900000000000D+00  0.0000000000000D+00  0.0000000000000D+00
   271  2.7000000000000D+00  0.0000000000000D+00  0.0000000000000D+00
   272  2.7100000000000D+00  0.0000000000000D+00  0.0000000000000D+00
   273  2.7200000000000D+00  0.0000000000000D+00  0.0000000000000D+00
   274  2.7300000000000D+00  0.0000000000000D+00  0.0000000000000D+00
   275  2.7400000000000D+00  0.0000000000000D+00  0.0000000000000D+00
   276  2.7500000000000D+00  0.0000000000000D+00  0.0000000000000D+00
   277  2.7600000000000D+00  0.0000000000000D+00  0.0000000000000D+00
   278  2.7700000000000D+00  0.0000000000000D+00  0.0000000000000D+00
   279  2.7800000000000D+00  0.0000000000000D+00  0.0000000000000D+00
   280  2.7900000000000D+00  0.0000000000000D+00  0.0000000000000D+00
   281  2.8000000000000D+00  0.0000000000000D+00  0.0000000000000D+00
   282  2.8100000000000D+00  0.0000000000000D+00  0.0000000000000D+00
   283  2.8200000000000D+00  0.0000000000000D+00  0.0000000000000D+00
   284  2.8300000000000D+00  0.0000000000000D+00  0.0000000000000D+00
   285  2.8400000000000D+00  0.0000000000000D+00  0.0000000000000D+00
   286  2.8500000000000D+00  0.0000000000000D+00  0.0000000000000D+00
   287  2.8600000000000D+00  0.0000000000000D+00  0.0000000000000D+00
   288  2.8700000000000D+00  0.0000000000000D+00  0.0000000000000D+00
   289  2.8800000000000D+00  0.0000000000000D+00  0.0000000000000D+00
   290  2.8900000000000D+00  0.0000000000000D+00  0.0000000000000D+00
   291  2.9000000000000D+00  0.0000000000000D+00  0.0000000000000D+00
   292  2.9100000000000D+00  0.0000000000000D+00  0.0000000000000D+00
   293  2.9200000000000D+00  0.0000000000000D+00  0.0000000000000D+00
   294  2.9300000000000D+00  0.0000000000000D+00  0.0000000000000D+00
   295  2.9400000000000D+00  0.0000000000000D+00  0.0000000000000D+00
   296  2.9500000000000D+00  0.0000000000000D+00  0.0000000000000D+00
   297  2.9600000000000D+00  0.0000000000000D+00  0.0000000000000D+00
   298  2.9700000000000D+00  0.0000000000000D+00  0.0000000000000D+00
   299  2.9800000000000D+00  0.0000000000000D+00  0.0000000000000D+00
   300  2.9900000000000D+00  0.0000000000000D+00  0.0000000000000D+00
   301  3.0000000000000D+00  0.0000000000000D+00  0.0000000000000D+00
   302  3.0100000000000D+00  0.0000000000000D+00  0.0000000000000D+00
   303  3.0200000000000D+00  0.0000000000000D+00  0.0000000000000D+00
   304  3.0300000000000D+00  0.0000000000000D+00  0.0000000000000D+00
   305  3.0400000000000D+00  0.0000000000000D+00  0.0000000000000D+00
   306  3.0500000000000D+00  0.0000000000000D+00  0.0000000000000D+00
   307  3.0600000000000D+00  0.0000000000000D+00  0.0000000000000D+00
   308  3.0700000000000D+00  0.0000000000000D+00  0.0000000000000D+00
   309  3.0800000000000D+00  0.0000000000000D+00  0.0000000000000D+00
   310  3.0900000000000D+00  0.0000000000000D+00  0.0000000000000D+00
   311  3.1000000000000D+00  0.0000000000000D+00  0.0000000000000D+00
   312  3.1100000000000D+00  0.0000000000000D+00  0.0000000000000D+00
   313  3.1200000000000D+00  0.0000000000000D+00  0.0000000000000D+00
   314  3.1300000000000D+00  0.0000000000000D+00  0.0000000000000D+00
   315  3.1400000000000D+00  0.0000000000000D+00  0.0000000000000D+00
   316  3.1500000000000D+00  0.0000000000000D+00  0.0000000000000D+00
   317  3.1600000000000D+00  0.0000000000000D+00  0.0000000000000D+00
   318  3.1700000000000D+00  0.0000000000000D+00  0.0000000000000D+00
   319  3.1800000000000D+00  0.0000000000000D+00  0.0000000000000D+00
   320  3.1900000000000D+00  0.0000000000000D+00  0.0000000000000D+00
   321  3.2000000000000D+00  0.0000000000000D+00  0.0000000000000D+00
   322  3.2100000000000D+00  0.0000000000000D+00  0.0000000000000D+00
   323  3.2200000000000D+00  0.0000000000000D+00  0.0000000000000D+00
   324  3.2300000000000D+00  0.0000000000000D+00  0.0000000000000D+00
   325  3.2400000000000D+00  0.0000000000000D+00  0.0000000000000D+00
   326  3.2500000000000D+00  0.0000000000000D+00  0.0000000000000D+00
   327  3.2600000000000D+00  0.0000000000000D+00  0.0000000000000D+00
   328  3.2700000000000D+00  0.0000000000000D+00  0.0000000000000D+00
   329  3.2800000000000D+00  0.0000000000000D+00  0.0000000000000D+00
   330  3.2900000000000D+00  0.0000000000000D+00  0.0000000000000D+00
   331  3.3000000000000D+00  0.0000000000000D+00  0.0000000000000D+00
   332  3.3100000000000D+00  0.0000000000000D+00  0.0000000000000D+00
   333  3.3200000000000D+00  0.0000000000000D+00  0.0000000000000D+00
   334  3.3300000000000D+00  0.0000000000000D+00  0.0000000000000D+00
   335  3.3400000000000D+00  0.0000000000000D+00  0.0000000000000D+00
   336  3.3500000000000D+00  0.0000000000000D+00  0.0000000000000D+00
   337  3.3600000000000D+00  0.0000000000000D+00  0.0000000000000D+00
   338  3.3700000000000D+00  0.0000000000000D+00  0.0000000000000D+00
   339  3.3800000000000D+00  0.0000000000000D+00  0.0000000000000D+00
   340  3.3900000000000D+00  0.0000000000000D+00  0.0000000000000D+00
   341  3.4000000000000D+00  0.0000000000000D+00  0.0000000000000D+00
   342  3.4100000000000D+00  0.0000000000000D+00  0.0000000000000D+00
   343  3.4200000000000D+00  0.0000000000000D+00  0.0000000000000D+00
   344  3.4300000000000D+00  0.0000000000000D+00  0.0000000000000D+00
   345  3.4400000000000D+00  0.0000000000000D+00  0.0000000000000D+00
   346  3.4500000000000D+00  0.0000000000000D+00  0.0000000000000D+00
   347  3.4600000000000D+00  0.0000000000000D+00  0.0000000000000D+00
   348  3.4700000000000D+00  0.0000000000000D+00  0.0000000000000D+00
   349  3.4800000000000D+00  0.0000000000000D+00  0.0000000000000D+00
   350  3.4900000000000D+00  0.0000000000000D+00  0.0000000000000D+00
   351  3.5000000000000D+00  0.0000000000000D+00  0.0000000000000D+00
   352  3.5100000000000D+00  0.0000000000000D+00  0.0000000000000D+00
   353  3.5200000000000D+00  0.0000000000000D+00  0.0000000000000D+00
   354  3.5300000000000D+00  0.0000000000000D+00  0.0000000000000D+00
   355  3.5400000000000D+00  0.0000000000000D+00  0.0000000000000D+00
   356  3.5500000000000D+00  0.0000000000000D+00  0.0000000000000D+00
   357  3.5600000000000D+00  0.0000000000000D+00  0.0000000000000D+00
   358  3.5700000000000D+00  0.0000000000000D+00  0.0000000000000D+00
   359  3.5800000000000D+00  0.0000000000000D+00  0.0000000000000D+00
   360  3.5900000000000D+00  0.0000000000000D+00  0.0000000000000D+00
   361  3.6000000000000D+00  0.0000000000000D+00  0.0000000000000D+00
   362  3.6100000000000D+00  0.0000000000000D+00  0.0000000000000D+00
   363  3.6200000000000D+00  0.0000000000000D+00  0.0000000000000D+00
   364  3.6300000000000D+00  0.0000000000000D+00  0.0000000000000D+00
   365  3.6400000000000D+00  0.0000000000000D+00  0.0000000000000D+00
   366  3.6500000000000D+00  0.0000000000000D+00  0.0000000000000D+00
   367  3.6600000000000D+00  0.0000000000000D+00  0.0000000000000D+00
   368  3.6700000000000D+00  0.0000000000000D+00  0.0000000000000D+00
   369  3.6800000000000D+00  0.0000000000000D+00  0.0000000000000D+00
   370  3.6900000000000D+00  0.0000000000000D+00  0.0000000000000D+00
   371  3.7000000000000D+00  0.0000000000000D+00  0.0000000000000D+00
   372  3.7100000000000D+00  0.0000000000000D+00  0.0000000000000D+00
   373  3.7200000000000D+00  0.0000000000000D+00  0.0000000000000D+00
   374  3.7300000000000D+00  0.0000000000000D+00  0.0000000000000D+00
   375  3.7400000000000D+00  0.0000000000000D+00  0.0000000000000D+00
   376  3.7500000000000D+00  0.0000000000000D+00  0.0000000000000D+00
   377  3.7600000000000D+00  0.0000000000000D+00  0.0000000000000D+00
   378  3.7700000000000D+00  0.0000000000000D+00  0.0000000000000D+00
   379  3.7800000000000D+00  0.0000000000000D+00  0.0000000000000D+00
   380  3.7900000000000D+00  0.0000000000000D+00  0.0000000000000D+00
   381  3.8000000000000D+00  0.0000000000000D+00  0.0000000000000D+00
   382  3.8100000000000D+00  0.0000000000000D+00  0.0000000000000D+00
   383  3.8200000000000D+00  0.0000000000000D+00  0.0000000000000D+00
   384  3.8300000000000D+00  0.0000000000000D+00  0.0000000000000D+00
   385  3.8400000000000D+00  0.0000000000000D+00  0.0000000000000D+00
   386  3.8500000000000D+00  0.0000000000000D+00  0.0000000000000D+00
   387  3.8600000000000D+00  0.0000000000000D+00  0.0000000000000D+00
   388  3.8700000000000D+00  0.0000000000000D+00  0.0000000000000D+00
   389  3.8800000000000D+00  0.0000000000000D+00  0.0000000000000D+00
   390  3.8900000000000D+00  0.0000000000000D+00  0.0000000000000D+00
   391  3.9000000000000D+00  0.0000000000000D+00  0.0000000000000D+00
   392  3.9100000000000D+00  0.0000000000000D+00  0.0000000000000D+00
   393  3.9200000000000D+00  0.0000000000000D+00  0.0000000000000D+00
   394  3.9300000000000D+00  0.0000000000000D+00  0.0000000000000D+00
   395  3.9400000000000D+00  0.0000000000000D+00  0.0000000000000D+00
   396  3.9500000000000D+00  0.0000000000000D+00  0.0000000000000D+00
   397  3.9600000000000D+00  0.0000000000000D+00  0.0000000000000D+00
   398  3.9700000000000D+00  0.0000000000000D+00  0.0000000000000D+00
   399  3.9800000000000D+00  0.0000000000000D+00  0.0000000000000D+00
   400  3.9900000000000D+00  0.0000000000000D+00  0.0000000000000D+00
   401  4.0000000000000D+00  0.0000000000000D+00  0.0000000000000D+00
   402  4.0100000000000D+00  0.0000000000000D+00  0.0000000000000D+00
   403  4.0200000000000D+00  0.0000000000000D+00  0.0000000000000D+00
   404  4.0300000000000D+00  0.0000000000000D+00  0.0000000000000D+00
   405  4.0400000000000D+00  0.0000000000000D+00  0.0000000000000D+00
   406  4.0500000000000D+00  0.0000000000000D+00  0.0000000000000D+00
   407  4.0600000000000D+00  0.0000000000000D+00  0.0000000000000D+00
   408  4.0700000000000D+00  0.0000000000000D+00  0.0000000000000D+00
   409  4.0800000000000D+00  0.0000000000000D+00  0.0000000000000D+00
   410  4.0900000000000D+00  0.0000000000000D+00  0.0000000000000D+00
   411  4.1000000000000D+00  0.0000000000000D+00  0.0000000000000D+00
   412  4.1100000000000D+00  0.0000000000000D+00  0.0000000000000D+00
   413  4.1200000000000D+00  0.0000000000000D+00  0.0000000000000D+00
   414  4.1300000000000D+00  0.0000000000000D+00  0.0000000000000D+00
   415  4.1400000000000D+00  0.0000000000000D+00  0.0000000000000D+00
   416  4.1500000000000D+00  0.0000000000000D+00  0.0000000000000D+00
   417  4.1600000000000D+00  0.0000000000000D+00  0.0000000000000D+00
   418  4.1700000000000D+00  0.0000000000000D+00  0.0000000000000D+00
   419  4.1800000000000D+00  0.0000000000000D+00  0.0000000000000D+00
   420  4.1900000000000D+00  0.0000000000000D+00  0.0000000000000D+00
   421  4.2000000000000D+00  0.0000000000000D+00  0.0000000000000D+00
   422  4.2100000000000D+00  0.0000000000000D+00  0.0000000000000D+00