La    ONCVPSP-3.3.1  r_core=   2.92093   2.92093   2.92093   2.47169
     57.0000     11.0000      210905    zatom,zion,pspd
     8 -116133   3     4   600     0    pspcod,pspxc,lmax,lloc,mmax,r2well
  5.99000000  0.00000000  0.00000000    rchrg fchrg qchrg
     2     4     3     2    nproj
     3     1           extension_switch
     4     4     4    nprojso
   0                         5.6579315069951D-01  3.8342913741583D+00
     1  0.0000000000000D+00 -3.4677642701819D-12  1.3576917368141D-12
     2  1.0000000000000D-02 -1.5154113461352D-03  3.0017519916096D-02
     3  2.0000000000000D-02 -3.0365251929319D-03  6.0020837932804D-02
     4  3.0000000000000D-02 -4.5689817553791D-03  8.9995738131303D-02
     5  4.0000000000000D-02 -6.1182969356508D-03  1.1992797665008D-01
     6  5.0000000000000D-02 -7.6898008121519D-03  1.4980326795366D-01
     7  6.0000000000000D-02 -9.2885769006797D-03  1.7960727138856D-01
     8  7.0000000000000D-02 -1.0919402441049D-02  2.0932557812048D-01
     9  8.0000000000000D-02 -1.2586689959059D-02  2.3894369854562D-01
    10  9.0000000000000D-02 -1.4294430349421D-02  2.6844705026724D-01
    11  1.0000000000000D-01 -1.6046137720134D-02  2.9782094672646D-01
    12  1.1000000000000D-01 -1.7844796232881D-02  3.2705058657424D-01
    13  1.2000000000000D-01 -1.9692809167267D-02  3.5612104386852D-01
    14  1.3000000000000D-01 -2.1591950429249D-02  3.8501725917789D-01
    15  1.4000000000000D-01 -2.3543318715820D-02  4.1372403166965D-01
    16  1.5000000000000D-01 -2.5547294539045D-02  4.4222601225668D-01
    17  1.6000000000000D-01 -2.7603500302836D-02  4.7050769787396D-01
    18  1.7000000000000D-01 -2.9710763615492D-02  4.9855342695106D-01
    19  1.8000000000000D-01 -3.1867084010025D-02  5.2634737614312D-01
    20  1.9000000000000D-01 -3.4069603232657D-02  5.5387355837782D-01
    21  2.0000000000000D-01 -3.6314579247685D-02  5.8111582227152D-01
    22  2.1000000000000D-01 -3.8597364094160D-02  6.0805785296231D-01
    23  2.2000000000000D-01 -4.0912385716596D-02  6.3468317440277D-01
    24  2.3000000000000D-01 -4.3253133878216D-02  6.6097515315003D-01
    25  2.4000000000000D-01 -4.5612150251127D-02  6.8691700368468D-01
    26  2.5000000000000D-01 -4.7981022763305D-02  7.1249179528498D-01
    27  2.6000000000000D-01 -5.0350384267437D-02  7.3768246047664D-01
    28  2.7000000000000D-01 -5.2709915581580D-02  7.6247180507256D-01
    29  2.8000000000000D-01 -5.5048352936200D-02  7.8684251981121D-01
    30  2.9000000000000D-01 -5.7353499846603D-02  8.1077719359563D-01
    31  3.0000000000000D-01 -5.9612243414138D-02  8.3425832832967D-01
    32  3.1000000000000D-01 -6.1810575043624D-02  8.5726835534122D-01
    33  3.2000000000000D-01 -6.3933615548816D-02  8.7978965337631D-01
    34  3.3000000000000D-01 -6.5965644601684D-02  9.0180456814185D-01
    35  3.4000000000000D-01 -6.7890134465662D-02  9.2329543336835D-01
    36  3.5000000000000D-01 -6.9689787937246D-02  9.4424459335786D-01
    37  3.6000000000000D-01 -7.1346580404925D-02  9.6463442697676D-01
    38  3.7000000000000D-01 -7.2841805918963D-02  9.8444737304614D-01
    39  3.8000000000000D-01 -7.4156127150659D-02  1.0036659570777D+00
    40  3.9000000000000D-01 -7.5269629104922D-02  1.0222728192966D+00
    41  4.0000000000000D-01 -7.6161876435474D-02  1.0402507438867D+00
    42  4.1000000000000D-01 -7.6811974198316D-02  1.0575826893900D+00
    43  4.2000000000000D-01 -7.7198631865231D-02  1.0742518201843D+00
    44  4.3000000000000D-01 -7.7300230406338D-02  1.0902415389602D+00
    45  4.4000000000000D-01 -7.7094892238048D-02  1.1055355201114D+00
    46  4.5000000000000D-01 -7.6560553820989D-02  1.1201177439513D+00
    47  4.6000000000000D-01 -7.5675040681169D-02  1.1339725316590D+00
    48  4.7000000000000D-01 -7.4416144617032D-02  1.1470845808601D+00
    49  4.8000000000000D-01 -7.2761702845221D-02  1.1594390017385D+00
    50  4.9000000000000D-01 -7.0689678828741D-02  1.1710213535738D+00
    51  5.0000000000000D-01 -6.8178244522798D-02  1.1818176815976D+00
    52  5.1000000000000D-01 -6.5205863766178D-02  1.1918145540557D+00
    53  5.2000000000000D-01 -6.1751376539229D-02  1.2009990993624D+00
    54  5.3000000000000D-01 -5.7794083803793D-02  1.2093590432316D+00
    55  5.4000000000000D-01 -5.3313832635511D-02  1.2168827456648D+00
    56  5.5000000000000D-01 -4.8291101354902D-02  1.2235592376787D+00
    57  5.6000000000000D-01 -4.2707084360693D-02  1.2293782576492D+00
    58  5.7000000000000D-01 -3.6543776366684D-02  1.2343302871518D+00
    59  5.8000000000000D-01 -2.9784055742393D-02  1.2384065861764D+00
    60  5.9000000000000D-01 -2.2411766657777D-02  1.2415992275929D+00
    61  6.0000000000000D-01 -1.4411799732868D-02  1.2439011307487D+00
    62  6.1000000000000D-01 -5.7701708955040D-03  1.2453060940746D+00
    63  6.2000000000000D-01  3.5259018470922D-03  1.2458088265820D+00
    64  6.3000000000000D-01  1.3487924013108D-02  1.2454049781317D+00
    65  6.4000000000000D-01  2.4126052912441D-02  1.2440911683590D+00
    66  6.5000000000000D-01  3.5449028854101D-02  1.2418650141417D+00
    67  6.6000000000000D-01  4.7464109567024D-02  1.2387251555003D+00
    68  6.7000000000000D-01  6.0177008098982D-02  1.2346712798215D+00
    69  6.8000000000000D-01  7.3591834449407D-02  1.2297041443037D+00
    70  6.9000000000000D-01  8.7711041182160D-02  1.2238255965207D+00
    71  7.0000000000000D-01  1.0253537325368D-01  1.2170385930109D+00
    72  7.1000000000000D-01  1.1806382228033D-01  1.2093472157990D+00
    73  7.2000000000000D-01  1.3429358545654D-01  1.2007566867647D+00
    74  7.3000000000000D-01  1.5122002932201D-01  1.1912733797765D+00
    75  7.4000000000000D-01  1.6883665856223D-01  1.1809048305167D+00
    76  7.5000000000000D-01  1.8713509001207D-01  1.1696597439267D+00
    77  7.6000000000000D-01  2.0610503201656D-01  1.1575479992102D+00
    78  7.7000000000000D-01  2.2573426928713D-01  1.1445806523369D+00
    79  7.8000000000000D-01  2.4600865337460D-01  1.1307699359976D+00
    80  7.9000000000000D-01  2.6691209886340D-01  1.1161292569666D+00
    81  8.0000000000000D-01  2.8842658537357D-01  1.1006731908353D+00
    82  8.1000000000000D-01  3.1053216543874D-01  1.0844174740893D+00
    83  8.2000000000000D-01  3.3320697831016D-01  1.0673789935071D+00
    84  8.3000000000000D-01  3.5642726971770D-01  1.0495757728666D+00
    85  8.4000000000000D-01  3.8016741759945D-01  1.0310269569549D+00
    86  8.5000000000000D-01  4.0439996379266D-01  1.0117527928817D+00
    87  8.6000000000000D-01  4.2909565165879D-01  9.9177460870773D-01
    88  8.7000000000000D-01  4.5422346959599D-01  9.7111478940580D-01
    89  8.8000000000000D-01  4.7975070037293D-01  9.4979675017989D-01
    90  8.9000000000000D-01  5.0564297619816D-01  9.2784490717715D-01
    91  9.0000000000000D-01  5.3186433941956D-01  9.0528464563414D-01
    92  9.1000000000000D-01  5.5837730872977D-01  8.8214228550739D-01
    93  9.2000000000000D-01  5.8514295073390D-01  8.5844504464591D-01
    94  9.3000000000000D-01  6.1212095671728D-01  8.3422099957107D-01
    95  9.4000000000000D-01  6.3926972443322D-01  8.0949904393675D-01
    96  9.5000000000000D-01  6.6654644471195D-01  7.8430884475039D-01
    97  9.6000000000000D-01  6.9390719267542D-01  7.5868079644231D-01
    98  9.7000000000000D-01  7.2130702332562D-01  7.3264597287825D-01
    99  9.8000000000000D-01  7.4870007125762D-01  7.0623607741644D-01
   100  9.9000000000000D-01  7.7603965423359D-01  6.7948339111741D-01
   101  1.0000000000000D+00  8.0327838033907D-01  6.5242071922071D-01
   102  1.0100000000000D+00  8.3036825842901D-01  6.2508133600895D-01
   103  1.0200000000000D+00  8.5726081155816D-01  5.9749892818495D-01
   104  1.0300000000000D+00  8.8390719307792D-01  5.6970753689337D-01
   105  1.0400000000000D+00  9.1025830507160D-01  5.4174149852277D-01
   106  1.0500000000000D+00  9.3626491878855D-01  5.1363538442902D-01
   107  1.0600000000000D+00  9.6187779672980D-01  4.8542393972472D-01
   108  1.0700000000000D+00  9.8704781602920D-01  4.5714202128339D-01
   109  1.0800000000000D+00  1.0117260927673D+00  4.2882453511016D-01
   110  1.0900000000000D+00  1.0358641068499D+00  4.0050637323379D-01
   111  1.1000000000000D+00  1.0594138270786D+00  3.7222235027713D-01
   112  1.1100000000000D+00  1.0823278360363D+00  3.4400713986512D-01
   113  1.1200000000000D+00  1.1045594544106D+00  3.1589521103089D-01
   114  1.1300000000000D+00  1.1260628643759D+00  2.8792076478137D-01
   115  1.1400000000000D+00  1.1467932316549D+00  2.6011767098445D-01
   116  1.1500000000000D+00  1.1667068258840D+00  2.3251940573973D-01
   117  1.1600000000000D+00  1.1857611389079D+00  2.0515898939414D-01
   118  1.1700000000000D+00  1.2039150006341D+00  1.7806892536296D-01
   119  1.1800000000000D+00  1.2211286920838D+00  1.5128113991525D-01
   120  1.1900000000000D+00  1.2373640552799D+00  1.2482692308069D-01
   121  1.2000000000000D+00  1.2525845996280D+00  9.8736870831422D-02
   122  1.2100000000000D+00  1.2667556044429D+00  7.3040828691768D-02
   123  1.2200000000000D+00  1.2798442172971D+00  4.7767836922790D-02
   124  1.2300000000000D+00  1.2918195478716D+00  2.2946077425441D-02
   125  1.2400000000000D+00  1.3026527570023D+00 -1.3971774972338D-03
   126  1.2500000000000D+00  1.3123171406305D+00 -2.5235614383982D-02
   127  1.2600000000000D+00  1.3207882083836D+00 -4.8543925737136D-02
   128  1.2700000000000D+00  1.3280437565232D+00 -7.1297854897538D-02
   129  1.2800000000000D+00  1.3340639350127D+00 -9.3474238553786D-02
   130  1.2900000000000D+00  1.3388313084868D+00 -1.1505104677743D-01
   131  1.3000000000000D+00  1.3423309109081D+00 -1.3600742047774D-01
   132  1.3100000000000D+00  1.3445502937202D+00 -1.5632370617740D-01
   133  1.3200000000000D+00  1.3454795673398D+00 -1.7598148802431D-01
   134  1.3300000000000D+00  1.3451114358283D+00 -1.9496361695254D-01
   135  1.3400000000000D+00  1.3434412246167D+00 -2.1325423691919D-01
   136  1.3500000000000D+00  1.3404669011963D+00 -2.3083880815804D-01
   137  1.3600000000000D+00  1.3361890886633D+00 -2.4770412738199D-01
   138  1.3700000000000D+00  1.3306110720811D+00 -2.6383834489470D-01
   139  1.3800000000000D+00  1.3237387976217D+00 -2.7923097857210D-01
   140  1.3900000000000D+00  1.3155808644474D+00 -2.9387292467327D-01
   141  1.4000000000000D+00  1.3061485093803D+00 -3.0775646547476D-01
   142  1.4100000000000D+00  1.2954555843579D+00 -3.2087527370280D-01
   143  1.4200000000000D+00  1.2835185267427D+00 -3.3322441376511D-01
   144  1.4300000000000D+00  1.2703563225826D+00 -3.4480033979672D-01
   145  1.4400000000000D+00  1.2559904628759D+00 -3.5560089051550D-01
   146  1.4500000000000D+00  1.2404448930264D+00 -3.6562528093719D-01
   147  1.4600000000000D+00  1.2237459555780D+00 -3.7487409096130D-01
   148  1.4700000000000D+00  1.2059223264302D+00 -3.8334925088334D-01
   149  1.4800000000000D+00  1.1870049447225D+00 -3.9105402388552D-01
   150  1.4900000000000D+00  1.1670269365616D+00 -3.9799298555044D-01
   151  1.5000000000000D+00  1.1460235328880D+00 -4.0417200049549D-01
   152  1.5100000000000D+00  1.1240319816423D+00 -4.0959819616640D-01
   153  1.5200000000000D+00  1.1010914545868D+00 -4.1427993391363D-01
   154  1.5300000000000D+00  1.0772429489942D+00 -4.1822677741184D-01
   155  1.5400000000000D+00  1.0525291845501D+00 -4.2144945854294D-01
   156  1.5500000000000D+00  1.0269944957643D+00 -4.2395984084008D-01
   157  1.5600000000000D+00  1.0006847202180D+00 -4.2577088060368D-01
   158  1.5700000000000D+00  9.7364708301383D-01 -4.2689658582126D-01
   159  1.5800000000000D+00  9.4593007774195D-01 -4.2735197299499D-01
   160  1.5900000000000D+00  9.1758334438278D-01 -4.2715302203611D-01
   161  1.6000000000000D+00  8.8865754445971D-01 -4.2631662932809D-01
   162  1.6100000000000D+00  8.5920423388790D-01 -4.2486055913501D-01
   163  1.6200000000000D+00  8.2927573385099D-01 -4.2280339346283D-01
   164  1.6300000000000D+00  7.9892500015009D-01 -4.2016448055476D-01
   165  1.6400000000000D+00  7.6820549138796D-01 -4.1696388214249D-01
   166  1.6500000000000D+00  7.3717103641397D-01 -4.1322231962982D-01
   167  1.6600000000000D+00  7.0587570142184D-01 -4.0896111934553D-01
   168  1.6700000000000D+00  6.7437365710274D-01 -4.0420215703562D-01
   169  1.6800000000000D+00  6.4271904626635D-01 -3.9896780174320D-01
   170  1.6900000000000D+00  6.1096585230556D-01 -3.9328085923897D-01
   171  1.7000000000000D+00  5.7916776893251D-01 -3.8716451515935D-01
   172  1.7100000000000D+00  5.4737807152578D-01 -3.8064227800535D-01
   173  1.7200000000000D+00  5.1564949053302D-01 -3.7373792216755D-01
   174  1.7300000000000D+00  4.8403408721622D-01 -3.6647543111550D-01
   175  1.7400000000000D+00  4.5258313221069D-01 -3.5887894092749D-01
   176  1.7500000000000D+00  4.2134698710657D-01 -3.5097268427605D-01
   177  1.7600000000000D+00  3.9037498957124D-01 -3.4278093506164D-01
   178  1.7700000000000D+00  3.5971534210712D-01 -3.3432795377507D-01
   179  1.7800000000000D+00  3.2941500504192D-01 -3.2563793380785D-01
   180  1.7900000000000D+00  2.9951959368907D-01 -3.1673494874098D-01
   181  1.8000000000000D+00  2.7007328037234D-01 -3.0764290086559D-01
   182  1.8100000000000D+00  2.4111870111302D-01 -2.9838547091840D-01
   183  1.8200000000000D+00  2.1269686768817D-01 -2.8898606929559D-01
   184  1.8300000000000D+00  1.8484708482874D-01 -2.7946778871356D-01
   185  1.8400000000000D+00  1.5760687316051D-01 -2.6985335855157D-01
   186  1.8500000000000D+00  1.3101189773349D-01 -2.6016510086539D-01
   187  1.8600000000000D+00  1.0509590252695D-01 -2.5042488823992D-01
   188  1.8700000000000D+00  7.9890650961084D-02 -2.4065410352906D-01
   189  1.8800000000000D+00  5.5425872469611D-02 -2.3087360154044D-01
   190  1.8900000000000D+00  3.1729215463762D-02 -2.2110367281511D-01
   191  1.9000000000000D+00  8.8262063035861D-03 -2.1136400940816D-01
   192  1.9100000000000D+00 -1.3259785040479D-02 -2.0167367294532D-01
   193  1.9200000000000D+00 -3.4507573396726D-02 -1.9205106472585D-01
   194  1.9300000000000D+00 -5.4898180068696D-02 -1.8251389819440D-01
   195  1.9400000000000D+00 -7.4414848520716D-02 -1.7307917355347D-01
   196  1.9500000000000D+00 -9.3043053630434D-02 -1.6376315471479D-01
   197  1.9600000000000D+00 -1.1077050478642D-01 -1.5458134852529D-01
   198  1.9700000000000D+00 -1.2758714305895D-01 -1.4554848622235D-01
   199  1.9800000000000D+00 -1.4348513209917D-01 -1.3667850728590D-01
   200  1.9900000000000D+00 -1.5845884366813D-01 -1.2798454538551D-01
   201  2.0000000000000D+00 -1.7250483704096D-01 -1.1947891675211D-01
   202  2.0100000000000D+00 -1.8562183332435D-01 -1.1117311061253D-01
   203  2.0200000000000D+00 -1.9781068431766D-01 -1.0307778187453D-01
   204  2.0300000000000D+00 -2.0907433631699D-01 -9.5202745945972D-02
   205  2.0400000000000D+00 -2.1941778933143D-01 -8.7556975542352D-02
   206  2.0500000000000D+00 -2.2884805141300D-01 -8.0148599653985D-02
   207  2.0600000000000D+00 -2.3737408908372D-01 -7.2984904304880D-02
   208  2.0700000000000D+00 -2.4500677349207D-01 -6.6072335316402D-02
   209  2.0800000000000D+00 -2.5175882301240D-01 -5.9416502812417D-02
   210  2.0900000000000D+00 -2.5764474252546D-01 -5.3022187416659D-02
   211  2.1000000000000D+00 -2.6268075946632D-01 -4.6893348168788D-02
   212  2.1100000000000D+00 -2.6688475738930D-01 -4.1033131852058D-02
   213  2.1200000000000D+00 -2.7027620696833D-01 -3.5443883866759D-02
   214  2.1300000000000D+00 -2.7287609506134D-01 -3.0127160381859D-02
   215  2.1400000000000D+00 -2.7470685211610D-01 -2.5083741707340D-02
   216  2.1500000000000D+00 -2.7579227820617D-01 -2.0313646842040D-02
   217  2.1600000000000D+00 -2.7615746814658D-01 -1.5816148968428D-02
   218  2.1700000000000D+00 -2.7582873603118D-01 -1.1589791890921D-02
   219  2.1800000000000D+00 -2.7483353952200D-01 -7.6324072433637D-03
   220  2.1900000000000D+00 -2.7320040422706D-01 -3.9411323591066D-03
   221  2.2000000000000D+00 -2.7095884870840D-01 -5.1242869822316D-04
   222  2.2100000000000D+00 -2.6813931012227D-01  2.6578992769323D-03
   223  2.2200000000000D+00 -2.6477307120636D-01  5.5746849233748D-03
   224  2.2300000000000D+00 -2.6089219471707D-01  8.2433820131653D-03
   225  2.2400000000000D+00 -2.5652942935595D-01  1.0670037096006D-02
   226  2.2500000000000D+00 -2.5171819071105D-01  1.2861286378743D-02
   227  2.2600000000000D+00 -2.4649245439690D-01  1.4824322108414D-02
   228  2.2700000000000D+00 -2.4088663349677D-01  1.6566852871143D-02
   229  2.2800000000000D+00 -2.3493559275451D-01  1.8097110886374D-02
   230  2.2900000000000D+00 -2.2867484230132D-01  1.9423915985914D-02
   231  2.3000000000000D+00 -2.2214021411558D-01  2.0556567437115D-02
   232  2.3100000000000D+00 -2.1536744081515D-01  2.1504700347511D-02
   233  2.3200000000000D+00 -2.0839187372652D-01  2.2278194215808D-02
   234  2.3300000000000D+00 -2.0124818531108D-01  2.2887061429556D-02
   235  2.3400000000000D+00 -1.9397009429905D-01  2.3341347740571D-02
   236  2.3500000000000D+00 -1.8658974112768D-01  2.3650913178113D-02
   237  2.3600000000000D+00 -1.7913802508927D-01  2.3825535081104D-02
   238  2.3700000000000D+00 -1.7164450828712D-01  2.3874863686711D-02
   239  2.3800000000000D+00 -1.6413746966624D-01  2.3808427432728D-02
   240  2.3900000000000D+00 -1.5664372308867D-01  2.3635561861472D-02
   241  2.4000000000000D+00 -1.4918864088931D-01  2.3365404733130D-02
   242  2.4100000000000D+00 -1.4179612763826D-01  2.3006874746226D-02
   243  2.4200000000000D+00 -1.3448858638322D-01  2.2568647546466D-02
   244  2.4300000000000D+00 -1.2728690498808D-01  2.2059138154313D-02
   245  2.4400000000000D+00 -1.2021044530813D-01  2.1486484147972D-02
   246  2.4500000000000D+00 -1.1327703805224D-01  2.0858530565688D-02
   247  2.4600000000000D+00 -1.0650298208573D-01  2.0182816137498D-02
   248  2.4700000000000D+00 -9.9903050281417D-02  1.9466561574299D-02
   249  2.4800000000000D+00 -9.3490500528238D-02  1.8716659476909D-02
   250  2.4900000000000D+00 -8.7277090932212D-02  1.7939665561326D-02
   251  2.5000000000000D+00 -8.1273101392911D-02  1.7141791969133D-02
   252  2.5100000000000D+00 -7.5487359657882D-02  1.6328902044798D-02
   253  2.5200000000000D+00 -6.9927271191403D-02  1.5506506371880D-02
   254  2.5300000000000D+00 -6.4598854831576D-02  1.4679760784554D-02
   255  2.5400000000000D+00 -5.9506782261276D-02  1.3853465695386D-02
   256  2.5500000000000D+00 -5.4654420803701D-02  1.3032066585743D-02
   257  2.5600000000000D+00 -5.0043881141427D-02  1.2219656267694D-02
   258  2.5700000000000D+00 -4.5676068167881D-02  1.1419978303514D-02
   259  2.5800000000000D+00 -4.1550734582997D-02  1.0636431458727D-02
   260  2.5900000000000D+00 -3.7666538309037D-02  9.8720756386365D-03
   261  2.6000000000000D+00 -3.4021102346215D-02  9.1296388192439D-03
   262  2.6100000000000D+00 -3.0611076720349D-02  8.4115248554155D-03
   263  2.6200000000000D+00 -2.7432203000057D-02  7.7198224269281D-03
   264  2.6300000000000D+00 -2.4479380516606D-02  7.0563148020568D-03
   265  2.6400000000000D+00 -2.1746733972419D-02  6.4224903012612D-03
   266  2.6500000000000D+00 -1.9227682350248D-02  5.8195535339517D-03
   267  2.6600000000000D+00 -1.6915008678920D-02  5.2484372434697D-03
   268  2.6700000000000D+00 -1.4800930447632D-02  4.7098146589291D-03
   269  2.6800000000000D+00 -1.2877170206599D-02  4.2041122883850D-03
   270  2.6900000000000D+00 -1.1135025973020D-02  3.7315230494060D-03
   271  2.7000000000000D+00 -9.5654415152776D-03  3.2920196995769D-03
   272  2.7100000000000D+00 -8.1590760688738D-03  2.8853684725420D-03
   273  2.7200000000000D+00 -6.9063724877818D-03  2.5111426841609D-03
   274  2.7300000000000D+00 -5.7976244736497D-03  2.1687364184577D-03
   275  2.7400000000000D+00 -4.8230430461220D-03  1.8573783429591D-03
   276  2.7500000000000D+00 -3.9728195953738D-03  1.5761449815913D-03
   277  2.7600000000000D+00 -3.2371875872125D-03  1.3239739413987D-03
   278  2.7700000000000D+00 -2.6064830136576D-03  1.0996771311421D-03
   279  2.7800000000000D+00 -2.0712003892725D-03  9.0195311736984D-04
   280  2.7900000000000D+00 -1.6220465027911D-03  7.2939919214388D-04
   281  2.8000000000000D+00 -1.2499921331566D-03  5.8052321160587D-04
   282  2.8100000000000D+00 -9.4631968953477D-04  4.5375464474337D-04
   283  2.8200000000000D+00 -7.0267794570105D-04  3.4745588446445D-04
   284  2.8300000000000D+00 -5.1113104935200D-04  2.5993284610045D-04
   285  2.8400000000000D+00 -3.6405859938092D-04  1.8943111965239D-04
   286  2.8500000000000D+00 -2.5437796930460D-04  1.3416213346603D-04
   287  2.8600000000000D+00 -1.7510289500043D-04  9.2141978764806D-05
   288  2.8700000000000D+00 -1.2084939732248D-04  6.1759171998168D-05
   289  2.8800000000000D+00 -8.6552500414618D-05  4.1291309728437D-05
   290  2.8900000000000D+00 -6.8049414574425D-05  2.9184154212792D-05
   291  2.9000000000000D+00 -6.0516526250219D-05  2.3387115317154D-05
   292  2.9100000000000D+00 -5.6749124905398D-05  2.0632447278195D-05
   293  2.9200000000000D+00 -5.1864220373687D-05  1.8537142433051D-05
   294  2.9300000000000D+00 -3.9379196039801D-05  1.3989010597193D-05
   295  2.9400000000000D+00 -2.3553109343134D-05  8.3774214394299D-06
   296  2.9500000000000D+00 -7.8655317025964D-06  2.8114360561866D-06
   297  2.9600000000000D+00  2.5888022327978D-06 -8.9718888353584D-07
   298  2.9700000000000D+00  5.3655576236719D-06 -1.8563619707082D-06
   299  2.9800000000000D+00  4.0041113735064D-06 -1.3840843422527D-06
   300  2.9900000000000D+00  5.4178078898148D-07 -1.8719970271533D-07
   301  3.0000000000000D+00 -8.8975725818849D-07  3.0425377901951D-07
   302  3.0100000000000D+00 -1.1442958450656D-06  3.9055514479659D-07
   303  3.0200000000000D+00 -6.3436402030689D-07  2.1616019276281D-07
   304  3.0300000000000D+00  3.8637230004247D-08 -1.3809300966403D-08
   305  3.0400000000000D+00  1.3446954806616D-07 -4.8060651859817D-08
   306  3.0500000000000D+00  1.3023714247935D-07 -4.6547951219691D-08
   307  3.0600000000000D+00  4.2766511184102D-08 -1.5285143996074D-08
   308  3.0700000000000D+00  0.0000000000000D+00  0.0000000000000D+00
   309  3.0800000000000D+00  0.0000000000000D+00  0.0000000000000D+00
   310  3.0900000000000D+00  0.0000000000000D+00  0.0000000000000D+00
   311  3.1000000000000D+00  0.0000000000000D+00  0.0000000000000D+00
   312  3.1100000000000D+00  0.0000000000000D+00  0.0000000000000D+00
   313  3.1200000000000D+00  0.0000000000000D+00  0.0000000000000D+00
   314  3.1300000000000D+00  0.0000000000000D+00  0.0000000000000D+00
   315  3.1400000000000D+00  0.0000000000000D+00  0.0000000000000D+00
   316  3.1500000000000D+00  0.0000000000000D+00  0.0000000000000D+00
   317  3.1600000000000D+00  0.0000000000000D+00  0.0000000000000D+00
   318  3.1700000000000D+00  0.0000000000000D+00  0.0000000000000D+00
   319  3.1800000000000D+00  0.0000000000000D+00  0.0000000000000D+00
   320  3.1900000000000D+00  0.0000000000000D+00  0.0000000000000D+00
   321  3.2000000000000D+00  0.0000000000000D+00  0.0000000000000D+00
   322  3.2100000000000D+00  0.0000000000000D+00  0.0000000000000D+00
   323  3.2200000000000D+00  0.0000000000000D+00  0.0000000000000D+00
   324  3.2300000000000D+00  0.0000000000000D+00  0.0000000000000D+00
   325  3.2400000000000D+00  0.0000000000000D+00  0.0000000000000D+00
   326  3.2500000000000D+00  0.0000000000000D+00  0.0000000000000D+00
   327  3.2600000000000D+00  0.0000000000000D+00  0.0000000000000D+00
   328  3.2700000000000D+00  0.0000000000000D+00  0.0000000000000D+00
   329  3.2800000000000D+00  0.0000000000000D+00  0.0000000000000D+00
   330  3.2900000000000D+00  0.0000000000000D+00  0.0000000000000D+00
   331  3.3000000000000D+00  0.0000000000000D+00  0.0000000000000D+00
   332  3.3100000000000D+00  0.0000000000000D+00  0.0000000000000D+00
   333  3.3200000000000D+00  0.0000000000000D+00  0.0000000000000D+00
   334  3.3300000000000D+00  0.0000000000000D+00  0.0000000000000D+00
   335  3.3400000000000D+00  0.0000000000000D+00  0.0000000000000D+00
   336  3.3500000000000D+00  0.0000000000000D+00  0.0000000000000D+00
   337  3.3600000000000D+00  0.0000000000000D+00  0.0000000000000D+00
   338  3.3700000000000D+00  0.0000000000000D+00  0.0000000000000D+00
   339  3.3800000000000D+00  0.0000000000000D+00  0.0000000000000D+00
   340  3.3900000000000D+00  0.0000000000000D+00  0.0000000000000D+00
   341  3.4000000000000D+00  0.0000000000000D+00  0.0000000000000D+00
   342  3.4100000000000D+00  0.0000000000000D+00  0.0000000000000D+00
   343  3.4200000000000D+00  0.0000000000000D+00  0.0000000000000D+00
   344  3.4300000000000D+00  0.0000000000000D+00  0.0000000000000D+00
   345  3.4400000000000D+00  0.0000000000000D+00  0.0000000000000D+00
   346  3.4500000000000D+00  0.0000000000000D+00  0.0000000000000D+00
   347  3.4600000000000D+00  0.0000000000000D+00  0.0000000000000D+00
   348  3.4700000000000D+00  0.0000000000000D+00  0.0000000000000D+00
   349  3.4800000000000D+00  0.0000000000000D+00  0.0000000000000D+00
   350  3.4900000000000D+00  0.0000000000000D+00  0.0000000000000D+00
   351  3.5000000000000D+00  0.0000000000000D+00  0.0000000000000D+00
   352  3.5100000000000D+00  0.0000000000000D+00  0.0000000000000D+00
   353  3.5200000000000D+00  0.0000000000000D+00  0.0000000000000D+00
   354  3.5300000000000D+00  0.0000000000000D+00  0.0000000000000D+00
   355  3.5400000000000D+00  0.0000000000000D+00  0.0000000000000D+00
   356  3.5500000000000D+00  0.0000000000000D+00  0.0000000000000D+00
   357  3.5600000000000D+00  0.0000000000000D+00  0.0000000000000D+00
   358  3.5700000000000D+00  0.0000000000000D+00  0.0000000000000D+00
   359  3.5800000000000D+00  0.0000000000000D+00  0.0000000000000D+00
   360  3.5900000000000D+00  0.0000000000000D+00  0.0000000000000D+00
   361  3.6000000000000D+00  0.0000000000000D+00  0.0000000000000D+00
   362  3.6100000000000D+00  0.0000000000000D+00  0.0000000000000D+00
   363  3.6200000000000D+00  0.0000000000000D+00  0.0000000000000D+00
   364  3.6300000000000D+00  0.0000000000000D+00  0.0000000000000D+00
   365  3.6400000000000D+00  0.0000000000000D+00  0.0000000000000D+00
   366  3.6500000000000D+00  0.0000000000000D+00  0.0000000000000D+00
   367  3.6600000000000D+00  0.0000000000000D+00  0.0000000000000D+00
   368  3.6700000000000D+00  0.0000000000000D+00  0.0000000000000D+00
   369  3.6800000000000D+00  0.0000000000000D+00  0.0000000000000D+00
   370  3.6900000000000D+00  0.0000000000000D+00  0.0000000000000D+00
   371  3.7000000000000D+00  0.0000000000000D+00  0.0000000000000D+00
   372  3.7100000000000D+00  0.0000000000000D+00  0.0000000000000D+00
   373  3.7200000000000D+00  0.0000000000000D+00  0.0000000000000D+00
   374  3.7300000000000D+00  0.0000000000000D+00  0.0000000000000D+00
   375  3.7400000000000D+00  0.0000000000000D+00  0.0000000000000D+00
   376  3.7500000000000D+00  0.0000000000000D+00  0.0000000000000D+00
   377  3.7600000000000D+00  0.0000000000000D+00  0.0000000000000D+00
   378  3.7700000000000D+00  0.0000000000000D+00  0.0000000000000D+00
   379  3.7800000000000D+00  0.0000000000000D+00  0.0000000000000D+00
   380  3.7900000000000D+00  0.0000000000000D+00  0.0000000000000D+00
   381  3.8000000000000D+00  0.0000000000000D+00  0.0000000000000D+00
   382  3.8100000000000D+00  0.0000000000000D+00  0.0000000000000D+00
   383  3.8200000000000D+00  0.0000000000000D+00  0.0000000000000D+00
   384  3.8300000000000D+00  0.0000000000000D+00  0.0000000000000D+00
   385  3.8400000000000D+00  0.0000000000000D+00  0.0000000000000D+00
   386  3.8500000000000D+00  0.0000000000000D+00  0.0000000000000D+00
   387  3.8600000000000D+00  0.0000000000000D+00  0.0000000000000D+00
   388  3.8700000000000D+00  0.0000000000000D+00  0.0000000000000D+00
   389  3.8800000000000D+00  0.0000000000000D+00  0.0000000000000D+00
   390  3.8900000000000D+00  0.0000000000000D+00  0.0000000000000D+00
   391  3.9000000000000D+00  0.0000000000000D+00  0.0000000000000D+00
   392  3.9100000000000D+00  0.0000000000000D+00  0.0000000000000D+00
   393  3.9200000000000D+00  0.0000000000000D+00  0.0000000000000D+00
   394  3.9300000000000D+00  0.0000000000000D+00  0.0000000000000D+00
   395  3.9400000000000D+00  0.0000000000000D+00  0.0000000000000D+00
   396  3.9500000000000D+00  0.0000000000000D+00  0.0000000000000D+00
   397  3.9600000000000D+00  0.0000000000000D+00  0.0000000000000D+00
   398  3.9700000000000D+00  0.0000000000000D+00  0.0000000000000D+00
   399  3.9800000000000D+00  0.0000000000000D+00  0.0000000000000D+00
   400  3.9900000000000D+00  0.0000000000000D+00  0.0000000000000D+00
   401  4.0000000000000D+00  0.0000000000000D+00  0.0000000000000D+00
   402  4.0100000000000D+00  0.0000000000000D+00  0.0000000000000D+00
   403  4.0200000000000D+00  0.0000000000000D+00  0.0000000000000D+00
   404  4.0300000000000D+00  0.0000000000000D+00  0.0000000000000D+00
   405  4.0400000000000D+00  0.0000000000000D+00  0.0000000000000D+00
   406  4.0500000000000D+00  0.0000000000000D+00  0.0000000000000D+00
   407  4.0600000000000D+00  0.0000000000000D+00  0.0000000000000D+00
   408  4.0700000000000D+00  0.0000000000000D+00  0.0000000000000D+00
   409  4.0800000000000D+00  0.0000000000000D+00  0.0000000000000D+00
   410  4.0900000000000D+00  0.0000000000000D+00  0.0000000000000D+00
   411  4.1000000000000D+00  0.0000000000000D+00  0.0000000000000D+00
   412  4.1100000000000D+00  0.0000000000000D+00  0.0000000000000D+00
   413  4.1200000000000D+00  0.0000000000000D+00  0.0000000000000D+00
   414  4.1300000000000D+00  0.0000000000000D+00  0.0000000000000D+00
   415  4.1400000000000D+00  0.0000000000000D+00  0.0000000000000D+00
   416  4.1500000000000D+00  0.0000000000000D+00  0.0000000000000D+00
   417  4.1600000000000D+00  0.0000000000000D+00  0.0000000000000D+00
   418  4.1700000000000D+00  0.0000000000000D+00  0.0000000000000D+00
   419  4.1800000000000D+00  0.0000000000000D+00  0.0000000000000D+00
   420  4.1900000000000D+00  0.0000000000000D+00  0.0000000000000D+00
   421  4.2000000000000D+00  0.0000000000000D+00  0.0000000000000D+00
   422  4.2100000000000D+00  0.0000000000000D+00  0.0000000000000D+00