Li    ONCVPSP-3.3.1  r_core=   1.76647   1.40824
      3.0000      3.0000      210905    zatom,zion,pspd
     8 -116133   1     4   600     0    pspcod,pspxc,lmax,lloc,mmax,r2well
  5.99000000  0.00000000  0.00000000    rchrg fchrg qchrg
     2     2     0     0     0    nproj
     1     1           extension_switch
   0                        -4.1950073455459D+00 -1.9594050200040D+00
     1  0.0000000000000D+00  5.2637172398562D-10 -5.7150950638629D-10
     2  1.0000000000000D-02  6.8076915006036D-02  1.0381366654089D-02
     3  2.0000000000000D-02  1.3608122087948D-01  2.0717871079525D-02
     4  3.0000000000000D-02  2.0393946251939D-01  3.0965765726599D-02
     5  4.0000000000000D-02  2.7157650575591D-01  4.1083518223844D-02
     6  5.0000000000000D-02  3.3891472985070D-01  5.1032883664224D-02
     7  6.0000000000000D-02  4.0587325806329D-01  6.0779934935772D-02
     8  7.0000000000000D-02  4.7236723834973D-01  7.0296037787530D-02
     9  8.0000000000000D-02  5.3830718573295D-01  7.9558757893133D-02
    10  9.0000000000000D-02  6.0359839723567D-01  8.8552687879043D-02
    11  1.0000000000000D-01  6.6814044950089D-01  9.7270183115663D-02
    12  1.1000000000000D-01  7.3182678834963D-01  1.0571199601992D-01
    13  1.2000000000000D-01  7.9454441854863D-01  1.1388779967860D-01
    14  1.3000000000000D-01  8.5617370099082D-01  1.2181659276280D-01
    15  1.4000000000000D-01  9.1658826333920D-01  1.2952697895522D-01
    16  1.5000000000000D-01  9.7565502895953D-01  1.3705731544097D-01
    17  1.6000000000000D-01  1.0332343676822D+00  1.4445572640789D-01
    18  1.7000000000000D-01  1.0891803705995D+00  1.5177997894998D-01
    19  1.8000000000000D-01  1.1433412497339D+00  1.5909722025448D-01
    20  1.9000000000000D-01  1.1955598620197D+00  1.6648357646451D-01
    21  2.0000000000000D-01  1.2456743556384D+00  1.7402361513117D-01
    22  2.1000000000000D-01  1.2935189353470D+00  1.8180967468648D-01
    23  2.2000000000000D-01  1.3389247420571D+00  1.8994106586661D-01
    24  2.3000000000000D-01  1.3817208405745D+00  1.9852315147895D-01
    25  2.4000000000000D-01  1.4217353080976D+00  2.0766631232177D-01
    26  2.5000000000000D-01  1.4587964148302D+00  2.1748480841733D-01
    27  2.6000000000000D-01  1.4927338868813D+00  2.2809554599441D-01
    28  2.7000000000000D-01  1.5233802405332D+00  2.3961676184075D-01
    29  2.8000000000000D-01  1.5505721759561D+00  2.5216663772718D-01
    30  2.9000000000000D-01  1.5741520175543D+00  2.6586185857190D-01
    31  3.0000000000000D-01  1.5939691873472D+00  2.8081612885346D-01
    32  3.1000000000000D-01  1.6098816971364D+00  2.9713866248593D-01
    33  3.2000000000000D-01  1.6217576446849D+00  3.1493266192955D-01
    34  3.3000000000000D-01  1.6294766987544D+00  3.3429380271831D-01
    35  3.4000000000000D-01  1.6329315576074D+00  3.5530873983590D-01
    36  3.5000000000000D-01  1.6320293654945D+00  3.7805365245873D-01
    37  3.6000000000000D-01  1.6266930717119D+00  4.0259284350589D-01
    38  3.7000000000000D-01  1.6168627170321D+00  4.2897741019005D-01
    39  3.8000000000000D-01  1.6024966326864D+00  4.5724400134950D-01
    40  3.9000000000000D-01  1.5835725376020D+00  4.8741367676219D-01
    41  4.0000000000000D-01  1.5600885202734D+00  5.1949088290109D-01
    42  4.1000000000000D-01  1.5320638924716D+00  5.5346255869036D-01
    43  4.2000000000000D-01  1.4995399029529D+00  5.8929738377191D-01
    44  4.3000000000000D-01  1.4625803004259D+00  6.2694518059909D-01
    45  4.4000000000000D-01  1.4212717362527D+00  6.6633648034764D-01
    46  4.5000000000000D-01  1.3757239986907D+00  7.0738226118728D-01
    47  4.6000000000000D-01  1.3260700719155D+00  7.4997386589962D-01
    48  4.7000000000000D-01  1.2724660145899D+00  7.9398310417661D-01
    49  4.8000000000000D-01  1.2150906543416D+00  8.3926254320135D-01
    50  4.9000000000000D-01  1.1541450961736D+00  8.8564598831688D-01
    51  5.0000000000000D-01  1.0898520445397D+00  9.3294915374612D-01
    52  5.1000000000000D-01  1.0224549405514D+00  9.8097052145343D-01
    53  5.2000000000000D-01  9.5221691753524D-01  1.0294923843562D+00
    54  5.3000000000000D-01  8.7941957990309D-01  1.0782820682197D+00
    55  5.4000000000000D-01  8.0436161202441D-01  1.1270933247236D+00
    56  5.5000000000000D-01  7.2735722547507D-01  1.1756678863825D+00
    57  5.6000000000000D-01  6.4873445466626D-01  1.2237371722755D+00
    58  5.7000000000000D-01  5.6883331241667D-01  1.2710241318795D+00
    59  5.8000000000000D-01  4.8800381849669D-01  1.3172452127583D+00
    60  5.9000000000000D-01  4.0660391553821D-01  1.3621124364247D+00
    61  6.0000000000000D-01  3.2499728794414D-01  1.4053355654009D+00
    62  6.1000000000000D-01  2.4355110054274D-01  1.4466243433551D+00
    63  6.2000000000000D-01  1.6263367468977D-01  1.4856907892173D+00
    64  6.3000000000000D-01  8.2612120328004D-02  1.5222515253690D+00
    65  6.4000000000000D-01  3.8499431439890D-03  1.5560301193921D+00
    66  6.5000000000000D-01 -7.3295353578863D-02  1.5867594184396D+00
    67  6.6000000000000D-01 -1.4847465254053D-01  1.6141838550810D+00
    68  6.7000000000000D-01 -2.2134957148383D-01  1.6380617034646D+00
    69  6.8000000000000D-01 -2.9159475788765D-01  1.6581672648508D+00
    70  6.9000000000000D-01 -3.5890010975112D-01  1.6742929619828D+00
    71  7.0000000000000D-01 -4.2297290342280D-01  1.6862513224004D+00
    72  7.1000000000000D-01 -4.8353981011027D-01  1.6938768316281D+00
    73  7.2000000000000D-01 -5.4034878358109D-01  1.6970276382188D+00
    74  7.3000000000000D-01 -5.9317080261295D-01  1.6955870938606D+00
    75  7.4000000000000D-01 -6.4180145297075D-01  1.6894651131719D+00
    76  7.5000000000000D-01 -6.8606233506904D-01  1.6785993393980D+00
    77  7.6000000000000D-01 -7.2580228500298D-01  1.6629561039646D+00
    78  7.7000000000000D-01 -7.6089839829087D-01  1.6425311697264D+00
    79  7.8000000000000D-01 -7.9125684745247D-01  1.6173502497609D+00
    80  7.9000000000000D-01 -8.1681348642339D-01  1.5874692956658D+00
    81  8.0000000000000D-01 -8.3753423676926D-01  1.5529745515105D+00
    82  8.1000000000000D-01 -8.5341525268965D-01  1.5139823718516D+00
    83  8.2000000000000D-01 -8.6448286387196D-01  1.4706388045122D+00
    84  8.3000000000000D-01 -8.7079329734907D-01  1.4231189411390D+00
    85  8.4000000000000D-01 -8.7243218161052D-01  1.3716260408470D+00
    86  8.5000000000000D-01 -8.6951383829422D-01  1.3163904345360D+00
    87  8.6000000000000D-01 -8.6218036882271D-01  1.2576682196729D+00
    88  8.7000000000000D-01 -8.5060054532389D-01  1.1957397574696D+00
    89  8.8000000000000D-01 -8.3496851735509D-01  1.1309079870118D+00
    90  8.9000000000000D-01 -8.1550234740792D-01  1.0634965718671D+00
    91  9.0000000000000D-01 -7.9244237401912D-01  9.9384786534593D-01
    92  9.1000000000000D-01 -7.6604951260794D-01  9.2232090525153D-01
    93  9.2000000000000D-01 -7.3660283396882D-01  8.4928805568868D-01
    94  9.3000000000000D-01 -7.0439624495041D-01  7.7513008566860D-01
    95  9.4000000000000D-01 -6.6973542041801D-01  7.0023214496205D-01
    96  9.5000000000000D-01 -6.3293536454777D-01  6.2498121984832D-01
    97  9.6000000000000D-01 -5.9431786462126D-01  5.4976341659805D-01
    98  9.7000000000000D-01 -5.5420893892608D-01  4.7496127691418D-01
    99  9.8000000000000D-01 -5.1293628490111D-01  4.0095111440228D-01
   100  9.9000000000000D-01 -4.7082674814259D-01  3.2810039484158D-01
   101  1.0000000000000D+00 -4.2820383292698D-01  2.5676518304910D-01
   102  1.0100000000000D+00 -3.8538527426021D-01  1.8728767809489D-01
   103  1.0200000000000D+00 -3.4268069087847D-01  1.1999385791127D-01
   104  1.0300000000000D+00 -3.0038933786565D-01  5.5191253423449D-02
   105  1.0400000000000D+00 -2.5879797661191D-01 -6.8331287935759D-03
   106  1.0500000000000D+00 -2.1817887883295D-01 -6.5814717518970D-02
   107  1.0600000000000D+00 -1.7878798004272D-01 -1.2151310530223D-01
   108  1.0700000000000D+00 -1.4086319659185D-01 -1.7371357954674D-01
   109  1.0800000000000D+00 -1.0462291887739D-01 -2.2222844327868D-01
   110  1.0900000000000D+00 -7.0264691667081D-02 -2.6689811455739D-01
   111  1.1000000000000D+00 -3.7964091034479D-02 -3.0759199516749D-01
   112  1.1100000000000D+00 -7.8738053142901D-03 -3.4420910165244D-01
   113  1.1200000000000D+00  1.9877074074028D-02 -3.7667845355457D-01
   114  1.1300000000000D+00  4.5183548200581D-02 -4.0495921616372D-01
   115  1.1400000000000D+00  6.7964990363252D-02 -4.2904059680265D-01
   116  1.1500000000000D+00  8.8165210087682D-02 -4.4894149635273D-01
   117  1.1600000000000D+00  1.0575230311604D-01 -4.6470991958363D-01
   118  1.1700000000000D+00  1.2071829124917D-01 -4.7642215028379D-01
   119  1.1800000000000D+00  1.3307855710176D-01 -4.8418169854963D-01
   120  1.1900000000000D+00  1.4287108140222D-01 -4.8811803050103D-01
   121  1.2000000000000D+00  1.5015549168368D-01 -4.8838509205152D-01
   122  1.2100000000000D+00  1.5501193281405D-01 -4.8515964015603D-01
   123  1.2200000000000D+00  1.5753977125146D-01 -4.7863939656857D-01
   124  1.2300000000000D+00  1.5785614661268D-01 -4.6904104101826D-01
   125  1.2400000000000D+00  1.5609438510579D-01 -4.5659806175255D-01
   126  1.2500000000000D+00  1.5240229014857D-01 -4.4155848225410D-01
   127  1.2600000000000D+00  1.4694032719412D-01 -4.2418248475221D-01
   128  1.2700000000000D+00  1.3987971999594D-01 -4.0473995132089D-01
   129  1.2800000000000D+00  1.3140047607338D-01 -3.8350794395031D-01
   130  1.2900000000000D+00  1.2168936017866D-01 -3.6076814597806D-01
   131  1.3000000000000D+00  1.1093783422785D-01 -3.3680428681326D-01
   132  1.3100000000000D+00  9.9339982669118D-02 -3.1189957247730D-01
   133  1.3200000000000D+00  8.7090442185944D-02 -2.8633414413865D-01
   134  1.3300000000000D+00  7.4382354137854D-02 -2.6038258624075D-01
   135  1.3400000000000D+00  6.1405358595046D-02 -2.3431150631050D-01
   136  1.3500000000000D+00  4.8343647425090D-02 -2.0837720665232D-01
   137  1.3600000000000D+00  3.5374094051550D-02 -1.8282346838526D-01
   138  1.3700000000000D+00  2.2664477063857D-02 -1.5787946764363D-01
   139  1.3800000000000D+00  1.0371812927564D-02 -1.3375784132010D-01
   140  1.3900000000000D+00 -1.3591856531278D-03 -1.1065292137793D-01
   141  1.4000000000000D+00 -1.2397511812003D-02 -8.8739153400557D-02
   142  1.4100000000000D+00 -2.2627113053827D-02 -6.8169715130404D-02
   143  1.4200000000000D+00 -3.1947972145672D-02 -4.9075350926176D-02
   144  1.4300000000000D+00 -4.0277009090360D-02 -3.1563434420375D-02
   145  1.4400000000000D+00 -4.7548790856104D-02 -1.5717274311684D-02
   146  1.4500000000000D+00 -5.3716038257666D-02 -1.5956747096941D-03
   147  1.4600000000000D+00 -5.8749918972033D-02  1.0767238126873D-02
   148  1.4700000000000D+00 -6.2640115256814D-02  2.1361910130209D-02
   149  1.4800000000000D+00 -6.5394658222602D-02  3.0202966952142D-02
   150  1.4900000000000D+00 -6.7039516537208D-02  3.7328521259605D-02
   151  1.5000000000000D+00 -6.7617933175457D-02  4.2799174378736D-02
   152  1.5100000000000D+00 -6.7189501182936D-02  4.6696702961762D-02
   153  1.5200000000000D+00 -6.5828969814826D-02  4.9122422538216D-02
   154  1.5300000000000D+00 -6.3624784110378D-02  5.0195233823410D-02
   155  1.5400000000000D+00 -6.0677339287911D-02  5.0049331641324D-02
   156  1.5500000000000D+00 -5.7096982183093D-02  4.8831617776528D-02
   157  1.5600000000000D+00 -5.3001720458379D-02  4.6698773184470D-02
   158  1.5700000000000D+00 -4.8514718871642D-02  4.3814086978357D-02
   159  1.5800000000000D+00 -4.3761527353548D-02  4.0343979317093D-02
   160  1.5900000000000D+00 -3.8867164940509D-02  3.6454368113208D-02
   161  1.6000000000000D+00 -3.3953021724500D-02  3.2306838006370D-02
   162  1.6100000000000D+00 -2.9133731025297D-02  2.8054793995027D-02
   163  1.6200000000000D+00 -2.4514024988339D-02  2.3839618157317D-02
   164  1.6300000000000D+00 -2.0185752823496D-02  1.9787043179901D-02
   165  1.6400000000000D+00 -1.6225128078067D-02  1.6003821493879D-02
   166  1.6500000000000D+00 -1.2690438869278D-02  1.2574967867696D-02
   167  1.6600000000000D+00 -9.6202777722750D-03  9.5616383571879D-03
   168  1.6700000000000D+00 -7.0326389267031D-03  7.0000555941868D-03
   169  1.6800000000000D+00 -4.9247914854566D-03  4.9013654100231D-03
   170  1.6900000000000D+00 -3.2744160627711D-03  3.2529920945490D-03
   171  1.7000000000000D+00 -2.0416485827036D-03  2.0210670897708D-03
   172  1.7100000000000D+00 -1.1724454412494D-03  1.1544204337000D-03
   173  1.7200000000000D+00 -6.0301870666391D-04  5.8971889304776D-04
   174  1.7300000000000D+00 -2.6514583985061D-04  2.5766386144867D-04
   175  1.7400000000000D+00 -9.0193248611039D-05  8.8072358314893D-05
   176  1.7500000000000D+00 -1.4831021592804D-05  1.6287999572443D-05
   177  1.7600000000000D+00  8.5968159407871D-06 -5.8449686302571D-06
   178  1.7700000000000D+00  9.0206988137742D-06 -6.7686264361829D-06
   179  1.7800000000000D+00  3.2536895083631D-06 -2.3348822545916D-06
   180  1.7900000000000D+00 -5.9047162454145D-07  4.5081197158451D-07
   181  1.8000000000000D+00 -1.1080804054846D-06  8.3494360495205D-07
   182  1.8100000000000D+00  6.1344364566541D-08 -5.0350477999025D-08
   183  1.8200000000000D+00  3.8674263929582D-07 -3.1868808006934D-07
   184  1.8300000000000D+00  4.2522947273402D-08 -3.5142384291374D-08
   185  1.8400000000000D+00 -2.8815398478115D-08  2.1605187292764D-08
   186  1.8500000000000D+00 -1.0746972934615D-08  8.0578570953643D-09
   187  1.8600000000000D+00  0.0000000000000D+00  0.0000000000000D+00
   188  1.8700000000000D+00  0.0000000000000D+00  0.0000000000000D+00
   189  1.8800000000000D+00  0.0000000000000D+00  0.0000000000000D+00
   190  1.8900000000000D+00  0.0000000000000D+00  0.0000000000000D+00
   191  1.9000000000000D+00  0.0000000000000D+00  0.0000000000000D+00
   192  1.9100000000000D+00  0.0000000000000D+00  0.0000000000000D+00
   193  1.9200000000000D+00  0.0000000000000D+00  0.0000000000000D+00
   194  1.9300000000000D+00  0.0000000000000D+00  0.0000000000000D+00
   195  1.9400000000000D+00  0.0000000000000D+00  0.0000000000000D+00
   196  1.9500000000000D+00  0.0000000000000D+00  0.0000000000000D+00
   197  1.9600000000000D+00  0.0000000000000D+00  0.0000000000000D+00
   198  1.9700000000000D+00  0.0000000000000D+00  0.0000000000000D+00
   199  1.9800000000000D+00  0.0000000000000D+00  0.0000000000000D+00
   200  1.9900000000000D+00  0.0000000000000D+00  0.0000000000000D+00
   201  2.0000000000000D+00  0.0000000000000D+00  0.0000000000000D+00
   202  2.0100000000000D+00  0.0000000000000D+00  0.0000000000000D+00
   203  2.0200000000000D+00  0.0000000000000D+00  0.0000000000000D+00
   204  2.0300000000000D+00  0.0000000000000D+00  0.0000000000000D+00
   205  2.0400000000000D+00  0.0000000000000D+00  0.0000000000000D+00
   206  2.0500000000000D+00  0.0000000000000D+00  0.0000000000000D+00
   207  2.0600000000000D+00  0.0000000000000D+00  0.0000000000000D+00
   208  2.0700000000000D+00  0.0000000000000D+00  0.0000000000000D+00
   209  2.0800000000000D+00  0.0000000000000D+00  0.0000000000000D+00
   210  2.0900000000000D+00  0.0000000000000D+00  0.0000000000000D+00
   211  2.1000000000000D+00  0.0000000000000D+00  0.0000000000000D+00
   212  2.1100000000000D+00  0.0000000000000D+00  0.0000000000000D+00
   213  2.1200000000000D+00  0.0000000000000D+00  0.0000000000000D+00
   214  2.1300000000000D+00  0.0000000000000D+00  0.0000000000000D+00
   215  2.1400000000000D+00  0.0000000000000D+00  0.0000000000000D+00
   216  2.1500000000000D+00  0.0000000000000D+00  0.0000000000000D+00
   217  2.1600000000000D+00  0.0000000000000D+00  0.0000000000000D+00
   218  2.1700000000000D+00  0.0000000000000D+00  0.0000000000000D+00
   219  2.1800000000000D+00  0.0000000000000D+00  0.0000000000000D+00
   220  2.1900000000000D+00  0.0000000000000D+00  0.0000000000000D+00
   221  2.2000000000000D+00  0.0000000000000D+00  0.0000000000000D+00
   222  2.2100000000000D+00  0.0000000000000D+00  0.0000000000000D+00
   223  2.2200000000000D+00  0.0000000000000D+00  0.0000000000000D+00
   224  2.2300000000000D+00  0.0000000000000D+00  0.0000000000000D+00
   225  2.2400000000000D+00  0.0000000000000D+00  0.0000000000000D+00
   226  2.2500000000000D+00  0.0000000000000D+00  0.0000000000000D+00
   227  2.2600000000000D+00  0.0000000000000D+00  0.0000000000000D+00
   228  2.2700000000000D+00  0.0000000000000D+00  0.0000000000000D+00
   229  2.2800000000000D+00  0.0000000000000D+00  0.0000000000000D+00
   230  2.2900000000000D+00  0.0000000000000D+00  0.0000000000000D+00
   231  2.3000000000000D+00  0.0000000000000D+00  0.0000000000000D+00
   232  2.3100000000000D+00  0.0000000000000D+00  0.0000000000000D+00
   233  2.3200000000000D+00  0.0000000000000D+00  0.0000000000000D+00
   234  2.3300000000000D+00  0.0000000000000D+00  0.0000000000000D+00
   235  2.3400000000000D+00  0.0000000000000D+00  0.0000000000000D+00
   236  2.3500000000000D+00  0.0000000000000D+00  0.0000000000000D+00
   237  2.3600000000000D+00  0.0000000000000D+00  0.0000000000000D+00
   238  2.3700000000000D+00  0.0000000000000D+00  0.0000000000000D+00
   239  2.3800000000000D+00  0.0000000000000D+00  0.0000000000000D+00
   240  2.3900000000000D+00  0.0000000000000D+00  0.0000000000000D+00
   241  2.4000000000000D+00  0.0000000000000D+00  0.0000000000000D+00
   242  2.4100000000000D+00  0.0000000000000D+00  0.0000000000000D+00
   243  2.4200000000000D+00  0.0000000000000D+00  0.0000000000000D+00
   244  2.4300000000000D+00  0.0000000000000D+00  0.0000000000000D+00
   245  2.4400000000000D+00  0.0000000000000D+00  0.0000000000000D+00
   246  2.4500000000000D+00  0.0000000000000D+00  0.0000000000000D+00
   247  2.4600000000000D+00  0.0000000000000D+00  0.0000000000000D+00
   248  2.4700000000000D+00  0.0000000000000D+00  0.0000000000000D+00
   249  2.4800000000000D+00  0.0000000000000D+00  0.0000000000000D+00
   250  2.4900000000000D+00  0.0000000000000D+00  0.0000000000000D+00
   251  2.5000000000000D+00  0.0000000000000D+00  0.0000000000000D+00
   252  2.5100000000000D+00  0.0000000000000D+00  0.0000000000000D+00
   253  2.5200000000000D+00  0.0000000000000D+00  0.0000000000000D+00
   254  2.5300000000000D+00  0.0000000000000D+00  0.0000000000000D+00
   255  2.5400000000000D+00  0.0000000000000D+00  0.0000000000000D+00
   256  2.5500000000000D+00  0.0000000000000D+00  0.0000000000000D+00
   257  2.5600000000000D+00  0.0000000000000D+00  0.0000000000000D+00
   258  2.5700000000000D+00  0.0000000000000D+00  0.0000000000000D+00
   259  2.5800000000000D+00  0.0000000000000D+00  0.0000000000000D+00
   260  2.5900000000000D+00  0.0000000000000D+00  0.0000000000000D+00
   261  2.6000000000000D+00  0.0000000000000D+00  0.0000000000000D+00
   262  2.6100000000000D+00  0.0000000000000D+00  0.0000000000000D+00
   263  2.6200000000000D+00  0.0000000000000D+00  0.0000000000000D+00
   264  2.6300000000000D+00  0.0000000000000D+00  0.0000000000000D+00
   265  2.6400000000000D+00  0.0000000000000D+00  0.0000000000000D+00
   266  2.6500000000000D+00  0.0000000000000D+00  0.0000000000000D+00
   267  2.6600000000000D+00  0.0000000000000D+00  0.0000000000000D+00
   268  2.6700000000000D+00  0.0000000000000D+00  0.0000000000000D+00
   269  2.6800000000000D+00  0.0000000000000D+00  0.0000000000000D+00
   270  2.6900000000000D+00  0.0000000000000D+00  0.0000000000000D+00
   271  2.7000000000000D+00  0.0000000000000D+00  0.0000000000000D+00
   272  2.7100000000000D+00  0.0000000000000D+00  0.0000000000000D+00
   273  2.7200000000000D+00  0.0000000000000D+00  0.0000000000000D+00
   274  2.7300000000000D+00  0.0000000000000D+00  0.0000000000000D+00
   275  2.7400000000000D+00  0.0000000000000D+00  0.0000000000000D+00
   276  2.7500000000000D+00  0.0000000000000D+00  0.0000000000000D+00
   277  2.7600000000000D+00  0.0000000000000D+00  0.0000000000000D+00
   278  2.7700000000000D+00  0.0000000000000D+00  0.0000000000000D+00
   279  2.7800000000000D+00  0.0000000000000D+00  0.0000000000000D+00
   280  2.7900000000000D+00  0.0000000000000D+00  0.0000000000000D+00
   281  2.8000000000000D+00  0.0000000000000D+00  0.0000000000000D+00
   282  2.8100000000000D+00  0.0000000000000D+00  0.0000000000000D+00
   283  2.8200000000000D+00  0.0000000000000D+00  0.0000000000000D+00
   284  2.8300000000000D+00  0.0000000000000D+00  0.0000000000000D+00
   285  2.8400000000000D+00  0.0000000000000D+00  0.0000000000000D+00
   286  2.8500000000000D+00  0.0000000000000D+00  0.0000000000000D+00
   287  2.8600000000000D+00  0.0000000000000D+00  0.0000000000000D+00
   288  2.8700000000000D+00  0.0000000000000D+00  0.0000000000000D+00
   289  2.8800000000000D+00  0.0000000000000D+00  0.0000000000000D+00
   290  2.8900000000000D+00  0.0000000000000D+00  0.0000000000000D+00
   291  2.9000000000000D+00  0.0000000000000D+00  0.0000000000000D+00
   292  2.9100000000000D+00  0.0000000000000D+00  0.0000000000000D+00
   293  2.9200000000000D+00  0.0000000000000D+00  0.0000000000000D+00
   294  2.9300000000000D+00  0.0000000000000D+00  0.0000000000000D+00
   295  2.9400000000000D+00  0.0000000000000D+00  0.0000000000000D+00
   296  2.9500000000000D+00  0.0000000000000D+00  0.0000000000000D+00
   297  2.9600000000000D+00  0.0000000000000D+00  0.0000000000000D+00
   298  2.9700000000000D+00  0.0000000000000D+00  0.0000000000000D+00
   299  2.9800000000000D+00  0.0000000000000D+00  0.0000000000000D+00
   300  2.9900000000000D+00  0.0000000000000D+00  0.0000000000000D+00
   301  3.0000000000000D+00  0.0000000000000D+00  0.0000000000000D+00
   302  3.0100000000000D+00  0.0000000000000D+00  0.0000000000000D+00
   303  3.0200000000000D+00  0.0000000000000D+00  0.0000000000000D+00
   304  3.0300000000000D+00  0.0000000000000D+00  0.0000000000000D+00
   305  3.0400000000000D+00  0.0000000000000D+00  0.0000000000000D+00
   306  3.0500000000000D+00  0.0000000000000D+00  0.0000000000000D+00
   307  3.0600000000000D+00  0.0000000000000D+00  0.0000000000000D+00
   308  3.0700000000000D+00  0.0000000000000D+00  0.0000000000000D+00
   309  3.0800000000000D+00  0.0000000000000D+00  0.0000000000000D+00
   310  3.0900000000000D+00  0.0000000000000D+00  0.0000000000000D+00
   311  3.1000000000000D+00  0.0000000000000D+00  0.0000000000000D+00
   312  3.1100000000000D+00  0.0000000000000D+00  0.0000000000000D+00
   313  3.1200000000000D+00  0.0000000000000D+00  0.0000000000000D+00
   314  3.1300000000000D+00  0.0000000000000D+00  0.0000000000000D+00
   315  3.1400000000000D+00  0.0000000000000D+00  0.0000000000000D+00
   316  3.1500000000000D+00  0.0000000000000D+00  0.0000000000000D+00
   317  3.1600000000000D+00  0.0000000000000D+00  0.0000000000000D+00
   318  3.1700000000000D+00  0.0000000000000D+00  0.0000000000000D+00
   319  3.1800000000000D+00  0.0000000000000D+00  0.0000000000000D+00
   320  3.1900000000000D+00  0.0000000000000D+00  0.0000000000000D+00
   321  3.2000000000000D+00  0.0000000000000D+00  0.0000000000000D+00
   322  3.2100000000000D+00  0.0000000000000D+00  0.0000000000000D+00
   323  3.2200000000000D+00  0.0000000000000D+00  0.0000000000000D+00
   324  3.2300000000000D+00  0.0000000000000D+00  0.0000000000000D+00
   325  3.2400000000000D+00  0.0000000000000D+00  0.0000000000000D+00
   326  3.2500000000000D+00  0.0000000000000D+00  0.0000000000000D+00
   327  3.2600000000000D+00  0.0000000000000D+00  0.0000000000000D+00
   328  3.2700000000000D+00  0.0000000000000D+00  0.0000000000000D+00
   329  3.2800000000000D+00  0.0000000000000D+00  0.0000000000000D+00
   330  3.2900000000000D+00  0.0000000000000D+00  0.0000000000000D+00
   331  3.3000000000000D+00  0.0000000000000D+00  0.0000000000000D+00
   332  3.3100000000000D+00  0.0000000000000D+00  0.0000000000000D+00
   333  3.3200000000000D+00  0.0000000000000D+00  0.0000000000000D+00
   334  3.3300000000000D+00  0.0000000000000D+00  0.0000000000000D+00
   335  3.3400000000000D+00  0.0000000000000D+00  0.0000000000000D+00
   336  3.3500000000000D+00  0.0000000000000D+00  0.0000000000000D+00
   337  3.3600000000000D+00  0.0000000000000D+00  0.0000000000000D+00
   338  3.3700000000000D+00  0.0000000000000D+00  0.0000000000000D+00
   339  3.3800000000000D+00  0.0000000000000D+00  0.0000000000000D+00
   340  3.3900000000000D+00  0.0000000000000D+00  0.0000000000000D+00
   341  3.4000000000000D+00  0.0000000000000D+00  0.0000000000000D+00
   342  3.4100000000000D+00  0.0000000000000D+00  0.0000000000000D+00
   343  3.4200000000000D+00  0.0000000000000D+00  0.0000000000000D+00
   344  3.4300000000000D+00  0.0000000000000D+00  0.0000000000000D+00
   345  3.4400000000000D+00  0.0000000000000D+00  0.0000000000000D+00
   346  3.4500000000000D+00  0.0000000000000D+00  0.0000000000000D+00
   347  3.4600000000000D+00  0.0000000000000D+00  0.0000000000000D+00
   348  3.4700000000000D+00  0.0000000000000D+00  0.0000000000000D+00
   349  3.4800000000000D+00  0.0000000000000D+00  0.0000000000000D+00
   350  3.4900000000000D+00  0.0000000000000D+00  0.0000000000000D+00
   351  3.5000000000000D+00  0.0000000000000D+00  0.0000000000000D+00
   352  3.5100000000000D+00  0.0000000000000D+00  0.0000000000000D+00
   353  3.5200000000000D+00  0.0000000000000D+00  0.0000000000000D+00
   354  3.5300000000000D+00  0.0000000000000D+00  0.0000000000000D+00
   355  3.5400000000000D+00  0.0000000000000D+00  0.0000000000000D+00
   356  3.5500000000000D+00  0.0000000000000D+00  0.0000000000000D+00
   357  3.5600000000000D+00  0.0000000000000D+00  0.0000000000000D+00
   358  3.5700000000000D+00  0.0000000000000D+00  0.0000000000000D+00
   359  3.5800000000000D+00  0.0000000000000D+00  0.0000000000000D+00
   360  3.5900000000000D+00  0.0000000000000D+00  0.0000000000000D+00
   361  3.6000000000000D+00  0.0000000000000D+00  0.0000000000000D+00
   362  3.6100000000000D+00  0.0000000000000D+00  0.0000000000000D+00
   363  3.6200000000000D+00  0.0000000000000D+00  0.0000000000000D+00
   364  3.6300000000000D+00  0.0000000000000D+00  0.0000000000000D+00
   365  3.6400000000000D+00  0.0000000000000D+00  0.0000000000000D+00
   366  3.6500000000000D+00  0.0000000000000D+00  0.0000000000000D+00
   367  3.6600000000000D+00  0.0000000000000D+00  0.0000000000000D+00
   368  3.6700000000000D+00  0.0000000000000D+00  0.0000000000000D+00
   369  3.6800000000000D+00  0.0000000000000D+00  0.0000000000000D+00
   370  3.6900000000000D+00  0.0000000000000D+00  0.0000000000000D+00
   371  3.7000000000000D+00  0.0000000000000D+00  0.0000000000000D+00
   372  3.7100000000000D+00  0.0000000000000D+00  0.0000000000000D+00
   373  3.7200000000000D+00  0.0000000000000D+00  0.0000000000000D+00
   374  3.7300000000000D+00  0.0000000000000D+00  0.0000000000000D+00
   375  3.7400000000000D+00  0.0000000000000D+00  0.0000000000000D+00
   376  3.7500000000000D+00  0.0000000000000D+00  0.0000000000000D+00
   377  3.7600000000000D+00  0.0000000000000D+00  0.0000000000000D+00
   378  3.7700000000000D+00  0.0000000000000D+00  0.0000000000000D+00
   379  3.7800000000000D+00  0.0000000000000D+00  0.0000000000000D+00
   380  3.7900000000000D+00  0.0000000000000D+00  0.0000000000000D+00
   381  3.8000000000000D+00  0.0000000000000D+00  0.0000000000000D+00
   382  3.8100000000000D+00  0.0000000000000D+00  0.0000000000000D+00
   383  3.8200000000000D+00  0.0000000000000D+00  0.0000000000000D+00
   384  3.8300000000000D+00  0.0000000000000D+00  0.0000000000000D+00
   385  3.8400000000000D+00  0.0000000000000D+00  0.0000000000000D+00
   386  3.8500000000000D+00  0.0000000000000D+00  0.0000000000000D+00
   387  3.8600000000000D+00  0.0000000000000D+00  0.0000000000000D+00
   388  3.8700000000000D+00  0.0000000000000D+00  0.0000000000000D+00
   389  3.8800000000000D+00  0.0000000000000D+00  0.0000000000000D+00
   390  3.8900000000000D+00  0.0000000000000D+00  0.0000000000000D+00
   391  3.9000000000000D+00  0.0000000000000D+00  0.0000000000000D+00
   392  3.9100000000000D+00  0.0000000000000D+00  0.0000000000000D+00
   393  3.9200000000000D+00  0.0000000000000D+00  0.0000000000000D+00
   394  3.9300000000000D+00  0.0000000000000D+00  0.0000000000000D+00
   395  3.9400000000000D+00  0.0000000000000D+00  0.0000000000000D+00
   396  3.9500000000000D+00  0.0000000000000D+00  0.0000000000000D+00
   397  3.9600000000000D+00  0.0000000000000D+00  0.0000000000000D+00
   398  3.9700000000000D+00  0.0000000000000D+00  0.0000000000000D+00
   399  3.9800000000000D+00  0.0000000000000D+00  0.0000000000000D+00
   400  3.9900000000000D+00  0.0000000000000D+00  0.0000000000000D+00
   401  4.0000000000000D+00  0.0000000000000D+00  0.0000000000000D+00
   402  4.0100000000000D+00  0.0000000000000D+00  0.0000000000000D+00
   403  4.0200000000000D+00  0.0000000000000D+00  0.0000000000000D+00
   404  4.0300000000000D+00  0.0000000000000D+00  0.0000000000000D+00
   405  4.0400000000000D+00  0.0000000000000D+00  0.0000000000000D+00
   406  4.0500000000000D+00  0.0000000000000D+00  0.0000000000000D+00
   407  4.0600000000000D+00  0.0000000000000D+00  0.0000000000000D+00
   408  4.0700000000000D+00  0.0000000000000D+00  0.0000000000000D+00
   409  4.0800000000000D+00  0.0000000000000D+00  0.0000000000000D+00
   410  4.0900000000000D+00  0.0000000000000D+00  0.0000000000000D+00
   411  4.1000000000000D+00  0.0000000000000D+00  0.0000000000000D+00
   412  4.1100000000000D+00  0.0000000000000D+00  0.0000000000000D+00
   413  4.1200000000000D+00  0.0000000000000D+00  0.0000000000000D+00
   414  4.1300000000000D+00  0.0000000000000D+00  0.0000000000000D+00
   415  4.1400000000000D+00  0.0000000000000D+00  0.0000000000000D+00
   416  4.1500000000000D+00  0.0000000000000D+00  0.0000000000000D+00
   417  4.1600000000000D+00  0.0000000000000D+00  0.0000000000000D+00
   418  4.1700000000000D+00  0.0000000000000D+00  0.0000000000000D+00
   419  4.1800000000000D+00  0.0000000000000D+00  0.0000000000000D+00
   420  4.1900000000000D+00  0.0000000000000D+00  0.0000000000000D+00
   421  4.2000000000000D+00  0.0000000000000D+00  0.0000000000000D+00
   422  4.2100000000000D+00  0.0000000000000D+00  0.0000000000000D+00
   423  4.2200000000000D+00  0.0000000000000D+00  0.0000000000000D+00