Mg    ONCVPSP-3.3.1  r_core=   1.24667   2.52001
     12.0000     10.0000      210905    zatom,zion,pspd
     8 -116133   1     4   600     0    pspcod,pspxc,lmax,lloc,mmax,r2well
  5.99000000  0.00000000  0.00000000    rchrg fchrg qchrg
     2     2     0     0    nproj
     3     1           extension_switch
     3     0     0    nprojso
   0                         1.2015320926085D+00  8.0490849218494D+00
     1  0.0000000000000D+00 -1.0292378560539D-08  5.1103618003978D-09
     2  1.0000000000000D-02  9.3984269110312D-03  1.2611154779725D-01
     3  2.0000000000000D-02  1.8768038647522D-02  2.5171548923961D-01
     4  3.0000000000000D-02  2.8084781518726D-02  3.7630431503933D-01
     5  4.0000000000000D-02  3.7333994942456D-02  4.9937076425189D-01
     6  5.0000000000000D-02  4.6514786048080D-02  6.2040808262845D-01
     7  6.0000000000000D-02  5.5644025437875D-02  7.3891043825540D-01
     8  7.0000000000000D-02  6.4759850177428D-02  8.5437354077005D-01
     9  8.0000000000000D-02  7.3924570378125D-02  9.6629550533149D-01
    10  9.0000000000000D-02  8.3226888237835D-02  1.0741779963247D+00
    11  1.0000000000000D-01  9.2783352887259D-02  1.1775276786065D+00
    12  1.1000000000000D-01  1.0273899057871D-01  1.2758579960999D+00
    13  1.2000000000000D-01  1.1326706734815D-01  1.3686912888717D+00
    14  1.3000000000000D-01  1.2456795994821D-01  1.4555612506505D+00
    15  1.4000000000000D-01  1.3686713023700D-01  1.5360157192463D+00
    16  1.5000000000000D-01  1.5041221794443D-01  1.6096197827108D+00
    17  1.6000000000000D-01  1.6546928644478D-01  1.6759591745155D+00
    18  1.7000000000000D-01  1.8231827546071D-01  1.7346439217329D+00
    19  1.8000000000000D-01  2.0124773312907D-01  1.7853122013681D+00
    20  1.9000000000000D-01  2.2254891720640D-01  1.8276343517978D+00
    21  2.0000000000000D-01  2.4650937103231D-01  1.8613169789093D+00
    22  2.1000000000000D-01  2.7340609387274D-01  1.8861070901607D+00
    23  2.2000000000000D-01  3.0349843714000D-01  1.9017961845562D+00
    24  2.3000000000000D-01  3.3702086746977D-01  1.9082242225755D+00
    25  2.4000000000000D-01  3.7417574450825D-01  1.9052833975286D+00
    26  2.5000000000000D-01  4.1512626535382D-01  1.8929216287102D+00
    27  2.6000000000000D-01  4.5998972878121D-01  1.8711456971583D+00
    28  2.7000000000000D-01  5.0883127058295D-01  1.8400239468192D+00
    29  2.8000000000000D-01  5.6165821657643D-01  1.7996884774764D+00
    30  2.9000000000000D-01  6.1841519208447D-01  1.7503367609055D+00
    31  3.0000000000000D-01  6.7898011610013D-01  1.6922326182944D+00
    32  3.1000000000000D-01  7.4316119504244D-01  1.6257065049520D+00
    33  3.2000000000000D-01  8.1069501520552D-01  1.5511550575947D+00
    34  3.3000000000000D-01  8.8124581495162D-01  1.4690398699130D+00
    35  3.4000000000000D-01  9.5440599770432D-01  1.3798854735182D+00
    36  3.5000000000000D-01  1.0296979252018D+00  1.2842765135632D+00
    37  3.6000000000000D-01  1.1065770076528D+00  1.1828541211183D+00
    38  3.7000000000000D-01  1.1844360838087D+00  1.0763114975470D+00
    39  3.8000000000000D-01  1.2626110599554D+00  9.6538873942996D-01
    40  3.9000000000000D-01  1.3403877528818D+00  8.5086694579341D-01
    41  4.0000000000000D-01  1.4170098584529D+00  7.3356166227198D-01
    42  4.1000000000000D-01  1.4916879449522D+00  6.1431572912781D-01
    43  4.2000000000000D-01  1.5636093492978D+00  4.9399161153024D-01
    44  4.3000000000000D-01  1.6319488350002D+00  3.7346330094636D-01
    45  4.4000000000000D-01  1.6958798537079D+00  2.5360788569389D-01
    46  4.5000000000000D-01  1.7545862377295D+00  1.3529689647552D-01
    47  4.6000000000000D-01  1.8072741393510D+00  1.9387538879726D-02
    48  4.7000000000000D-01  1.8531840243245D+00 -9.3286070739331D-02
    49  4.8000000000000D-01  1.8916025218216D+00 -2.0192154701460D-01
    50  4.9000000000000D-01  1.9218739315345D+00 -3.0575663531239D-01
    51  5.0000000000000D-01  1.9434111905760D+00 -4.0407725115396D-01
    52  5.1000000000000D-01  1.9557061083647D+00 -4.9622504428704D-01
    53  5.2000000000000D-01  1.9583386867354D+00 -5.8160437762299D-01
    54  5.3000000000000D-01  1.9509853549705D+00 -6.5968861837690D-01
    55  5.4000000000000D-01  1.9334259650730D+00 -7.3002564763184D-01
    56  5.5000000000000D-01  1.9055494111924D+00 -7.9224250508671D-01
    57  5.6000000000000D-01  1.8673577583050D+00 -8.4604909774038D-01
    58  5.7000000000000D-01  1.8189687886622D+00 -8.9124091451341D-01
    59  5.8000000000000D-01  1.7606168998171D+00 -9.2770070313604D-01
    60  5.9000000000000D-01  1.6926523145712D+00 -9.5539908068028D-01
    61  6.0000000000000D-01  1.6155385907313D+00 -9.7439406477741D-01
    62  6.1000000000000D-01  1.5298484462856D+00 -9.8482952837456D-01
    63  6.2000000000000D-01  1.4362579432743D+00 -9.8693259673547D-01
    64  6.3000000000000D-01  1.3355391005221D+00 -9.8101002087910D-01
    65  6.4000000000000D-01  1.2285510309861D+00 -9.6744357649222D-01
    66  6.5000000000000D-01  1.1162297234721D+00 -9.4668455139969D-01
    67  6.6000000000000D-01  9.9957661008330D-01 -9.1924739747458D-01
    68  6.7000000000000D-01  8.7964607981275D-01 -8.8570263433695D-01
    69  6.8000000000000D-01  7.5753211473346D-01 -8.4666910207174D-01
    70  6.9000000000000D-01  6.3435423784597D-01 -8.0280566825046D-01
    71  7.0000000000000D-01  5.1124297067797D-01 -7.5480250068360D-01
    72  7.1000000000000D-01  3.8932500397314D-01 -7.0337202144279D-01
    73  7.2000000000000D-01  2.6970828609016D-01 -6.4923965965505D-01
    74  7.3000000000000D-01  1.5346723108899D-01 -5.9313452039934D-01
    75  7.4000000000000D-01  4.1628241888625D-02 -5.3578008470253D-01
    76  7.5000000000000D-01 -6.4844266408318D-02 -4.7788505124928D-01
    77  7.6000000000000D-01 -1.6506117194248D-01 -4.2013442397606D-01
    78  7.7000000000000D-01 -2.5822112640672D-01 -3.6318094145933D-01
    79  7.8000000000000D-01 -3.4362207659949D-01 -3.0763693403015D-01
    80  7.9000000000000D-01 -4.2067171637433D-01 -2.5406668307751D-01
    81  8.0000000000000D-01 -4.8889678303232D-01 -2.0297934427256D-01
    82  8.1000000000000D-01 -5.4795113870416D-01 -1.5482248271078D-01
    83  8.2000000000000D-01 -5.9762260483773D-01 -1.0997625350722D-01
    84  8.3000000000000D-01 -6.3783854598556D-01 -6.8748246480035D-02
    85  8.4000000000000D-01 -6.6867023078876D-01 -3.1368996937266D-02
    86  8.5000000000000D-01 -6.9033601913215D-01  2.0118478809656D-03
    87  8.6000000000000D-01 -7.0320324253246D-01  3.1328639632824D-02
    88  8.7000000000000D-01 -7.0778787602955D-01  5.6601732473299D-02
    89  8.8000000000000D-01 -7.0471293220135D-01  7.7921380295139D-02
    90  8.9000000000000D-01 -6.9465449051675D-01  9.5424998604749D-02
    91  9.0000000000000D-01 -6.7832383280536D-01  1.0928898190066D-01
    92  9.1000000000000D-01 -6.5645913545863D-01  1.1972435143973D-01
    93  9.2000000000000D-01 -6.2981533129047D-01  1.2697146785063D-01
    94  9.3000000000000D-01 -5.9915403626027D-01  1.3129461735055D-01
    95  9.4000000000000D-01 -5.6523347024292D-01  1.3297646527258D-01
    96  9.5000000000000D-01 -5.2879854814457D-01  1.3231247160772D-01
    97  9.6000000000000D-01 -4.9057133512110D-01  1.2960537156193D-01
    98  9.7000000000000D-01 -4.5124204271519D-01  1.2515981713780D-01
    99  9.8000000000000D-01 -4.1146072985354D-01  1.1927727010570D-01
   100  9.9000000000000D-01 -3.7182985704389D-01  1.1225122961458D-01
   101  1.0000000000000D+00 -3.3289782427165D-01  1.0436286937020D-01
   102  1.0100000000000D+00 -2.9515360162425D-01  9.5877149103280D-02
   103  1.0200000000000D+00 -2.5902253959655D-01  8.7039454418611D-02
   104  1.0300000000000D+00 -2.2486342164465D-01  7.8072807255716D-02
   105  1.0400000000000D+00 -1.9296679652789D-01  6.9175676909751D-02
   106  1.0500000000000D+00 -1.6355460123738D-01  6.0520408321437D-02
   107  1.0600000000000D+00 -1.3678106217558D-01  5.2252272831208D-02
   108  1.0700000000000D+00 -1.1273483346567D-01  4.4489132146458D-02
   109  1.0800000000000D+00 -9.1442309477844D-02  3.7321695240985D-02
   110  1.0900000000000D+00 -7.2872024772078D-02  3.0814335744828D-02
   111  1.1000000000000D+00 -5.6940033404716D-02  2.5006426432422D-02
   112  1.1100000000000D+00 -4.3516142712980D-02  1.9914138697380D-02
   113  1.1200000000000D+00 -3.2430857463842D-02  1.5532644753582D-02
   114  1.1300000000000D+00 -2.3482879724581D-02  1.1838654604264D-02
   115  1.1400000000000D+00 -1.6446998971258D-02  8.7932137358314D-03
   116  1.1500000000000D+00 -1.1082201042459D-02  6.3446841116679D-03
   117  1.1600000000000D+00 -7.1398201457742D-03  4.4318279572567D-03
   118  1.1700000000000D+00 -4.3715600721490D-03  2.9869142376456D-03
   119  1.1800000000000D+00 -2.5372159584754D-03  1.9387694710078D-03
   120  1.1900000000000D+00 -1.4119310567831D-03  1.2156955682675D-03
   121  1.2000000000000D+00 -7.9283856725646D-04  7.4818406424403D-04
   122  1.2100000000000D+00 -5.0582681783473D-04  4.7185402685861D-04
   123  1.2200000000000D+00 -4.0242975028518D-04  3.2482285294529D-04
   124  1.2300000000000D+00 -3.8766830081168D-04  2.6357091133771D-04
   125  1.2400000000000D+00 -4.3215251584779D-04  2.7056120105397D-04
   126  1.2500000000000D+00 -3.1811363046331D-04  1.9676848494233D-04
   127  1.2600000000000D+00 -3.6548866266262D-05  2.2601186328052D-05
   128  1.2700000000000D+00  3.9068274018838D-05 -2.4028687387955D-05
   129  1.2800000000000D+00 -6.6305071260278D-06  4.0756713984302D-06
   130  1.2900000000000D+00 -3.5386853373905D-06  2.1736653970463D-06
   131  1.3000000000000D+00  1.1114372286485D-06 -6.8871831963937D-07
   132  1.3100000000000D+00  0.0000000000000D+00  0.0000000000000D+00
   133  1.3200000000000D+00  0.0000000000000D+00  0.0000000000000D+00
   134  1.3300000000000D+00  0.0000000000000D+00  0.0000000000000D+00
   135  1.3400000000000D+00  0.0000000000000D+00  0.0000000000000D+00
   136  1.3500000000000D+00  0.0000000000000D+00  0.0000000000000D+00
   137  1.3600000000000D+00  0.0000000000000D+00  0.0000000000000D+00
   138  1.3700000000000D+00  0.0000000000000D+00  0.0000000000000D+00
   139  1.3800000000000D+00  0.0000000000000D+00  0.0000000000000D+00
   140  1.3900000000000D+00  0.0000000000000D+00  0.0000000000000D+00
   141  1.4000000000000D+00  0.0000000000000D+00  0.0000000000000D+00
   142  1.4100000000000D+00  0.0000000000000D+00  0.0000000000000D+00
   143  1.4200000000000D+00  0.0000000000000D+00  0.0000000000000D+00
   144  1.4300000000000D+00  0.0000000000000D+00  0.0000000000000D+00
   145  1.4400000000000D+00  0.0000000000000D+00  0.0000000000000D+00
   146  1.4500000000000D+00  0.0000000000000D+00  0.0000000000000D+00
   147  1.4600000000000D+00  0.0000000000000D+00  0.0000000000000D+00
   148  1.4700000000000D+00  0.0000000000000D+00  0.0000000000000D+00
   149  1.4800000000000D+00  0.0000000000000D+00  0.0000000000000D+00
   150  1.4900000000000D+00  0.0000000000000D+00  0.0000000000000D+00
   151  1.5000000000000D+00  0.0000000000000D+00  0.0000000000000D+00
   152  1.5100000000000D+00  0.0000000000000D+00  0.0000000000000D+00
   153  1.5200000000000D+00  0.0000000000000D+00  0.0000000000000D+00
   154  1.5300000000000D+00  0.0000000000000D+00  0.0000000000000D+00
   155  1.5400000000000D+00  0.0000000000000D+00  0.0000000000000D+00
   156  1.5500000000000D+00  0.0000000000000D+00  0.0000000000000D+00
   157  1.5600000000000D+00  0.0000000000000D+00  0.0000000000000D+00
   158  1.5700000000000D+00  0.0000000000000D+00  0.0000000000000D+00
   159  1.5800000000000D+00  0.0000000000000D+00  0.0000000000000D+00
   160  1.5900000000000D+00  0.0000000000000D+00  0.0000000000000D+00
   161  1.6000000000000D+00  0.0000000000000D+00  0.0000000000000D+00
   162  1.6100000000000D+00  0.0000000000000D+00  0.0000000000000D+00
   163  1.6200000000000D+00  0.0000000000000D+00  0.0000000000000D+00
   164  1.6300000000000D+00  0.0000000000000D+00  0.0000000000000D+00
   165  1.6400000000000D+00  0.0000000000000D+00  0.0000000000000D+00
   166  1.6500000000000D+00  0.0000000000000D+00  0.0000000000000D+00
   167  1.6600000000000D+00  0.0000000000000D+00  0.0000000000000D+00
   168  1.6700000000000D+00  0.0000000000000D+00  0.0000000000000D+00
   169  1.6800000000000D+00  0.0000000000000D+00  0.0000000000000D+00
   170  1.6900000000000D+00  0.0000000000000D+00  0.0000000000000D+00
   171  1.7000000000000D+00  0.0000000000000D+00  0.0000000000000D+00
   172  1.7100000000000D+00  0.0000000000000D+00  0.0000000000000D+00
   173  1.7200000000000D+00  0.0000000000000D+00  0.0000000000000D+00
   174  1.7300000000000D+00  0.0000000000000D+00  0.0000000000000D+00
   175  1.7400000000000D+00  0.0000000000000D+00  0.0000000000000D+00
   176  1.7500000000000D+00  0.0000000000000D+00  0.0000000000000D+00
   177  1.7600000000000D+00  0.0000000000000D+00  0.0000000000000D+00
   178  1.7700000000000D+00  0.0000000000000D+00  0.0000000000000D+00
   179  1.7800000000000D+00  0.0000000000000D+00  0.0000000000000D+00
   180  1.7900000000000D+00  0.0000000000000D+00  0.0000000000000D+00
   181  1.8000000000000D+00  0.0000000000000D+00  0.0000000000000D+00
   182  1.8100000000000D+00  0.0000000000000D+00  0.0000000000000D+00
   183  1.8200000000000D+00  0.0000000000000D+00  0.0000000000000D+00
   184  1.8300000000000D+00  0.0000000000000D+00  0.0000000000000D+00
   185  1.8400000000000D+00  0.0000000000000D+00  0.0000000000000D+00
   186  1.8500000000000D+00  0.0000000000000D+00  0.0000000000000D+00
   187  1.8600000000000D+00  0.0000000000000D+00  0.0000000000000D+00
   188  1.8700000000000D+00  0.0000000000000D+00  0.0000000000000D+00
   189  1.8800000000000D+00  0.0000000000000D+00  0.0000000000000D+00
   190  1.8900000000000D+00  0.0000000000000D+00  0.0000000000000D+00
   191  1.9000000000000D+00  0.0000000000000D+00  0.0000000000000D+00
   192  1.9100000000000D+00  0.0000000000000D+00  0.0000000000000D+00
   193  1.9200000000000D+00  0.0000000000000D+00  0.0000000000000D+00
   194  1.9300000000000D+00  0.0000000000000D+00  0.0000000000000D+00
   195  1.9400000000000D+00  0.0000000000000D+00  0.0000000000000D+00
   196  1.9500000000000D+00  0.0000000000000D+00  0.0000000000000D+00
   197  1.9600000000000D+00  0.0000000000000D+00  0.0000000000000D+00
   198  1.9700000000000D+00  0.0000000000000D+00  0.0000000000000D+00
   199  1.9800000000000D+00  0.0000000000000D+00  0.0000000000000D+00
   200  1.9900000000000D+00  0.0000000000000D+00  0.0000000000000D+00
   201  2.0000000000000D+00  0.0000000000000D+00  0.0000000000000D+00
   202  2.0100000000000D+00  0.0000000000000D+00  0.0000000000000D+00
   203  2.0200000000000D+00  0.0000000000000D+00  0.0000000000000D+00
   204  2.0300000000000D+00  0.0000000000000D+00  0.0000000000000D+00
   205  2.0400000000000D+00  0.0000000000000D+00  0.0000000000000D+00
   206  2.0500000000000D+00  0.0000000000000D+00  0.0000000000000D+00
   207  2.0600000000000D+00  0.0000000000000D+00  0.0000000000000D+00
   208  2.0700000000000D+00  0.0000000000000D+00  0.0000000000000D+00
   209  2.0800000000000D+00  0.0000000000000D+00  0.0000000000000D+00
   210  2.0900000000000D+00  0.0000000000000D+00  0.0000000000000D+00
   211  2.1000000000000D+00  0.0000000000000D+00  0.0000000000000D+00
   212  2.1100000000000D+00  0.0000000000000D+00  0.0000000000000D+00
   213  2.1200000000000D+00  0.0000000000000D+00  0.0000000000000D+00
   214  2.1300000000000D+00  0.0000000000000D+00  0.0000000000000D+00
   215  2.1400000000000D+00  0.0000000000000D+00  0.0000000000000D+00
   216  2.1500000000000D+00  0.0000000000000D+00  0.0000000000000D+00
   217  2.1600000000000D+00  0.0000000000000D+00  0.0000000000000D+00
   218  2.1700000000000D+00  0.0000000000000D+00  0.0000000000000D+00
   219  2.1800000000000D+00  0.0000000000000D+00  0.0000000000000D+00
   220  2.1900000000000D+00  0.0000000000000D+00  0.0000000000000D+00
   221  2.2000000000000D+00  0.0000000000000D+00  0.0000000000000D+00
   222  2.2100000000000D+00  0.0000000000000D+00  0.0000000000000D+00
   223  2.2200000000000D+00  0.0000000000000D+00  0.0000000000000D+00
   224  2.2300000000000D+00  0.0000000000000D+00  0.0000000000000D+00
   225  2.2400000000000D+00  0.0000000000000D+00  0.0000000000000D+00
   226  2.2500000000000D+00  0.0000000000000D+00  0.0000000000000D+00
   227  2.2600000000000D+00  0.0000000000000D+00  0.0000000000000D+00
   228  2.2700000000000D+00  0.0000000000000D+00  0.0000000000000D+00
   229  2.2800000000000D+00  0.0000000000000D+00  0.0000000000000D+00
   230  2.2900000000000D+00  0.0000000000000D+00  0.0000000000000D+00
   231  2.3000000000000D+00  0.0000000000000D+00  0.0000000000000D+00
   232  2.3100000000000D+00  0.0000000000000D+00  0.0000000000000D+00
   233  2.3200000000000D+00  0.0000000000000D+00  0.0000000000000D+00
   234  2.3300000000000D+00  0.0000000000000D+00  0.0000000000000D+00
   235  2.3400000000000D+00  0.0000000000000D+00  0.0000000000000D+00
   236  2.3500000000000D+00  0.0000000000000D+00  0.0000000000000D+00
   237  2.3600000000000D+00  0.0000000000000D+00  0.0000000000000D+00
   238  2.3700000000000D+00  0.0000000000000D+00  0.0000000000000D+00
   239  2.3800000000000D+00  0.0000000000000D+00  0.0000000000000D+00
   240  2.3900000000000D+00  0.0000000000000D+00  0.0000000000000D+00
   241  2.4000000000000D+00  0.0000000000000D+00  0.0000000000000D+00
   242  2.4100000000000D+00  0.0000000000000D+00  0.0000000000000D+00
   243  2.4200000000000D+00  0.0000000000000D+00  0.0000000000000D+00
   244  2.4300000000000D+00  0.0000000000000D+00  0.0000000000000D+00
   245  2.4400000000000D+00  0.0000000000000D+00  0.0000000000000D+00
   246  2.4500000000000D+00  0.0000000000000D+00  0.0000000000000D+00
   247  2.4600000000000D+00  0.0000000000000D+00  0.0000000000000D+00
   248  2.4700000000000D+00  0.0000000000000D+00  0.0000000000000D+00
   249  2.4800000000000D+00  0.0000000000000D+00  0.0000000000000D+00
   250  2.4900000000000D+00  0.0000000000000D+00  0.0000000000000D+00
   251  2.5000000000000D+00  0.0000000000000D+00  0.0000000000000D+00
   252  2.5100000000000D+00  0.0000000000000D+00  0.0000000000000D+00
   253  2.5200000000000D+00  0.0000000000000D+00  0.0000000000000D+00
   254  2.5300000000000D+00  0.0000000000000D+00  0.0000000000000D+00
   255  2.5400000000000D+00  0.0000000000000D+00  0.0000000000000D+00
   256  2.5500000000000D+00  0.0000000000000D+00  0.0000000000000D+00
   257  2.5600000000000D+00  0.0000000000000D+00  0.0000000000000D+00
   258  2.5700000000000D+00  0.0000000000000D+00  0.0000000000000D+00
   259  2.5800000000000D+00  0.0000000000000D+00  0.0000000000000D+00
   260  2.5900000000000D+00  0.0000000000000D+00  0.0000000000000D+00
   261  2.6000000000000D+00  0.0000000000000D+00  0.0000000000000D+00
   262  2.6100000000000D+00  0.0000000000000D+00  0.0000000000000D+00
   263  2.6200000000000D+00  0.0000000000000D+00  0.0000000000000D+00
   264  2.6300000000000D+00  0.0000000000000D+00  0.0000000000000D+00
   265  2.6400000000000D+00  0.0000000000000D+00  0.0000000000000D+00
   266  2.6500000000000D+00  0.0000000000000D+00  0.0000000000000D+00
   267  2.6600000000000D+00  0.0000000000000D+00  0.0000000000000D+00
   268  2.6700000000000D+00  0.0000000000000D+00  0.0000000000000D+00
   269  2.6800000000000D+00  0.0000000000000D+00  0.0000000000000D+00
   270  2.6900000000000D+00  0.0000000000000D+00  0.0000000000000D+00
   271  2.7000000000000D+00  0.0000000000000D+00  0.0000000000000D+00
   272  2.7100000000000D+00  0.0000000000000D+00  0.0000000000000D+00
   273  2.7200000000000D+00  0.0000000000000D+00  0.0000000000000D+00
   274  2.7300000000000D+00  0.0000000000000D+00  0.0000000000000D+00
   275  2.7400000000000D+00  0.0000000000000D+00  0.0000000000000D+00
   276  2.7500000000000D+00  0.0000000000000D+00  0.0000000000000D+00
   277  2.7600000000000D+00  0.0000000000000D+00  0.0000000000000D+00
   278  2.7700000000000D+00  0.0000000000000D+00  0.0000000000000D+00
   279  2.7800000000000D+00  0.0000000000000D+00  0.0000000000000D+00
   280  2.7900000000000D+00  0.0000000000000D+00  0.0000000000000D+00
   281  2.8000000000000D+00  0.0000000000000D+00  0.0000000000000D+00
   282  2.8100000000000D+00  0.0000000000000D+00  0.0000000000000D+00
   283  2.8200000000000D+00  0.0000000000000D+00  0.0000000000000D+00
   284  2.8300000000000D+00  0.0000000000000D+00  0.0000000000000D+00
   285  2.8400000000000D+00  0.0000000000000D+00  0.0000000000000D+00
   286  2.8500000000000D+00  0.0000000000000D+00  0.0000000000000D+00
   287  2.8600000000000D+00  0.0000000000000D+00  0.0000000000000D+00
   288  2.8700000000000D+00  0.0000000000000D+00  0.0000000000000D+00
   289  2.8800000000000D+00  0.0000000000000D+00  0.0000000000000D+00
   290  2.8900000000000D+00  0.0000000000000D+00  0.0000000000000D+00
   291  2.9000000000000D+00  0.0000000000000D+00  0.0000000000000D+00
   292  2.9100000000000D+00  0.0000000000000D+00  0.0000000000000D+00
   293  2.9200000000000D+00  0.0000000000000D+00  0.0000000000000D+00
   294  2.9300000000000D+00  0.0000000000000D+00  0.0000000000000D+00
   295  2.9400000000000D+00  0.0000000000000D+00  0.0000000000000D+00
   296  2.9500000000000D+00  0.0000000000000D+00  0.0000000000000D+00
   297  2.9600000000000D+00  0.0000000000000D+00  0.0000000000000D+00
   298  2.9700000000000D+00  0.0000000000000D+00  0.0000000000000D+00
   299  2.9800000000000D+00  0.0000000000000D+00  0.0000000000000D+00
   300  2.9900000000000D+00  0.0000000000000D+00  0.0000000000000D+00
   301  3.0000000000000D+00  0.0000000000000D+00  0.0000000000000D+00
   302  3.0100000000000D+00  0.0000000000000D+00  0.0000000000000D+00
   303  3.0200000000000D+00  0.0000000000000D+00  0.0000000000000D+00
   304  3.0300000000000D+00  0.0000000000000D+00  0.0000000000000D+00
   305  3.0400000000000D+00  0.0000000000000D+00  0.0000000000000D+00
   306  3.0500000000000D+00  0.0000000000000D+00  0.0000000000000D+00
   307  3.0600000000000D+00  0.0000000000000D+00  0.0000000000000D+00
   308  3.0700000000000D+00  0.0000000000000D+00  0.0000000000000D+00
   309  3.0800000000000D+00  0.0000000000000D+00  0.0000000000000D+00
   310  3.0900000000000D+00  0.0000000000000D+00  0.0000000000000D+00
   311  3.1000000000000D+00  0.0000000000000D+00  0.0000000000000D+00
   312  3.1100000000000D+00  0.0000000000000D+00  0.0000000000000D+00
   313  3.1200000000000D+00  0.0000000000000D+00  0.0000000000000D+00
   314  3.1300000000000D+00  0.0000000000000D+00  0.0000000000000D+00
   315  3.1400000000000D+00  0.0000000000000D+00  0.0000000000000D+00
   316  3.1500000000000D+00  0.0000000000000D+00  0.0000000000000D+00
   317  3.1600000000000D+00  0.0000000000000D+00  0.0000000000000D+00
   318  3.1700000000000D+00  0.0000000000000D+00  0.0000000000000D+00
   319  3.1800000000000D+00  0.0000000000000D+00  0.0000000000000D+00
   320  3.1900000000000D+00  0.0000000000000D+00  0.0000000000000D+00
   321  3.2000000000000D+00  0.0000000000000D+00  0.0000000000000D+00
   322  3.2100000000000D+00  0.0000000000000D+00  0.0000000000000D+00
   323  3.2200000000000D+00  0.0000000000000D+00  0.0000000000000D+00
   324  3.2300000000000D+00  0.0000000000000D+00  0.0000000000000D+00
   325  3.2400000000000D+00  0.0000000000000D+00  0.0000000000000D+00
   326  3.2500000000000D+00  0.0000000000000D+00  0.0000000000000D+00
   327  3.2600000000000D+00  0.0000000000000D+00  0.0000000000000D+00
   328  3.2700000000000D+00  0.0000000000000D+00  0.0000000000000D+00
   329  3.2800000000000D+00  0.0000000000000D+00  0.0000000000000D+00
   330  3.2900000000000D+00  0.0000000000000D+00  0.0000000000000D+00
   331  3.3000000000000D+00  0.0000000000000D+00  0.0000000000000D+00
   332  3.3100000000000D+00  0.0000000000000D+00  0.0000000000000D+00
   333  3.3200000000000D+00  0.0000000000000D+00  0.0000000000000D+00
   334  3.3300000000000D+00  0.0000000000000D+00  0.0000000000000D+00
   335  3.3400000000000D+00  0.0000000000000D+00  0.0000000000000D+00
   336  3.3500000000000D+00  0.0000000000000D+00  0.0000000000000D+00
   337  3.3600000000000D+00  0.0000000000000D+00  0.0000000000000D+00
   338  3.3700000000000D+00  0.0000000000000D+00  0.0000000000000D+00
   339  3.3800000000000D+00  0.0000000000000D+00  0.0000000000000D+00
   340  3.3900000000000D+00  0.0000000000000D+00  0.0000000000000D+00
   341  3.4000000000000D+00  0.0000000000000D+00  0.0000000000000D+00
   342  3.4100000000000D+00  0.0000000000000D+00  0.0000000000000D+00
   343  3.4200000000000D+00  0.0000000000000D+00  0.0000000000000D+00
   344  3.4300000000000D+00  0.0000000000000D+00  0.0000000000000D+00
   345  3.4400000000000D+00  0.0000000000000D+00  0.0000000000000D+00
   346  3.4500000000000D+00  0.0000000000000D+00  0.0000000000000D+00
   347  3.4600000000000D+00  0.0000000000000D+00  0.0000000000000D+00
   348  3.4700000000000D+00  0.0000000000000D+00  0.0000000000000D+00
   349  3.4800000000000D+00  0.0000000000000D+00  0.0000000000000D+00
   350  3.4900000000000D+00  0.0000000000000D+00  0.0000000000000D+00
   351  3.5000000000000D+00  0.0000000000000D+00  0.0000000000000D+00
   352  3.5100000000000D+00  0.0000000000000D+00  0.0000000000000D+00
   353  3.5200000000000D+00  0.0000000000000D+00  0.0000000000000D+00
   354  3.5300000000000D+00  0.0000000000000D+00  0.0000000000000D+00
   355  3.5400000000000D+00  0.0000000000000D+00  0.0000000000000D+00
   356  3.5500000000000D+00  0.0000000000000D+00  0.0000000000000D+00
   357  3.5600000000000D+00  0.0000000000000D+00  0.0000000000000D+00
   358  3.5700000000000D+00  0.0000000000000D+00  0.0000000000000D+00
   359  3.5800000000000D+00  0.0000000000000D+00  0.0000000000000D+00
   360  3.5900000000000D+00  0.0000000000000D+00  0.0000000000000D+00
   361  3.6000000000000D+00  0.0000000000000D+00  0.0000000000000D+00
   362  3.6100000000000D+00  0.0000000000000D+00  0.0000000000000D+00
   363  3.6200000000000D+00  0.0000000000000D+00  0.0000000000000D+00
   364  3.6300000000000D+00  0.0000000000000D+00  0.0000000000000D+00
   365  3.6400000000000D+00  0.0000000000000D+00  0.0000000000000D+00
   366  3.6500000000000D+00  0.0000000000000D+00  0.0000000000000D+00
   367  3.6600000000000D+00  0.0000000000000D+00  0.0000000000000D+00
   368  3.6700000000000D+00  0.0000000000000D+00  0.0000000000000D+00
   369  3.6800000000000D+00  0.0000000000000D+00  0.0000000000000D+00
   370  3.6900000000000D+00  0.0000000000000D+00  0.0000000000000D+00
   371  3.7000000000000D+00  0.0000000000000D+00  0.0000000000000D+00
   372  3.7100000000000D+00  0.0000000000000D+00  0.0000000000000D+00
   373  3.7200000000000D+00  0.0000000000000D+00  0.0000000000000D+00
   374  3.7300000000000D+00  0.0000000000000D+00  0.0000000000000D+00
   375  3.7400000000000D+00  0.0000000000000D+00  0.0000000000000D+00
   376  3.7500000000000D+00  0.0000000000000D+00  0.0000000000000D+00
   377  3.7600000000000D+00  0.0000000000000D+00  0.0000000000000D+00
   378  3.7700000000000D+00  0.0000000000000D+00  0.0000000000000D+00
   379  3.7800000000000D+00  0.0000000000000D+00  0.0000000000000D+00
   380  3.7900000000000D+00  0.0000000000000D+00  0.0000000000000D+00
   381  3.8000000000000D+00  0.0000000000000D+00  0.0000000000000D+00
   382  3.8100000000000D+00  0.0000000000000D+00  0.0000000000000D+00
   383  3.8200000000000D+00  0.0000000000000D+00  0.0000000000000D+00
   384  3.8300000000000D+00  0.0000000000000D+00  0.0000000000000D+00
   385  3.8400000000000D+00  0.0000000000000D+00  0.0000000000000D+00
   386  3.8500000000000D+00  0.0000000000000D+00  0.0000000000000D+00
   387  3.8600000000000D+00  0.0000000000000D+00  0.0000000000000D+00
   388  3.8700000000000D+00  0.0000000000000D+00  0.0000000000000D+00
   389  3.8800000000000D+00  0.0000000000000D+00  0.0000000000000D+00
   390  3.8900000000000D+00  0.0000000000000D+00  0.0000000000000D+00
   391  3.9000000000000D+00  0.0000000000000D+00  0.0000000000000D+00
   392  3.9100000000000D+00  0.0000000000000D+00  0.0000000000000D+00
   393  3.9200000000000D+00  0.0000000000000D+00  0.0000000000000D+00
   394  3.9300000000000D+00  0.0000000000000D+00  0.0000000000000D+00
   395  3.9400000000000D+00  0.0000000000000D+00  0.0000000000000D+00
   396  3.9500000000000D+00  0.0000000000000D+00  0.0000000000000D+00
   397  3.9600000000000D+00  0.0000000000000D+00  0.0000000000000D+00
   398  3.9700000000000D+00  0.0000000000000D+00  0.0000000000000D+00
   399  3.9800000000000D+00  0.0000000000000D+00  0.0000000000000D+00
   400  3.9900000000000D+00  0.0000000000000D+00  0.0000000000000D+00
   401  4.0000000000000D+00  0.0000000000000D+00  0.0000000000000D+00
   402  4.0100000000000D+00  0.0000000000000D+00  0.0000000000000D+00
   403  4.0200000000000D+00  0.0000000000000D+00  0.0000000000000D+00
   404  4.0300000000000D+00  0.0000000000000D+00  0.0000000000000D+00
   405  4.0400000000000D+00  0.0000000000000D+00  0.0000000000000D+00
   406  4.0500000000000D+00  0.0000000000000D+00  0.0000000000000D+00
   407  4.0600000000000D+00  0.0000000000000D+00  0.0000000000000D+00
   408  4.0700000000000D+00  0.0000000000000D+00  0.0000000000000D+00
   409  4.0800000000000D+00  0.0000000000000D+00  0.0000000000000D+00
   410  4.0900000000000D+00  0.0000000000000D+00  0.0000000000000D+00
   411  4.1000000000000D+00  0.0000000000000D+00  0.0000000000000D+00
   412  4.1100000000000D+00  0.0000000000000D+00  0.0000000000000D+00
   413  4.1200000000000D+00  0.0000000000000D+00  0.0000000000000D+00
   414  4.1300000000000D+00  0.0000000000000D+00  0.0000000000000D+00
   415  4.1400000000000D+00  0.0000000000000D+00  0.0000000000000D+00
   416  4.1500000000000D+00  0.0000000000000D+00  0.0000000000000D+00
   417  4.1600000000000D+00  0.0000000000000D+00  0.0000000000000D+00
   418  4.1700000000000D+00  0.0000000000000D+00  0.0000000000000D+00
   419  4.1800000000000D+00  0.0000000000000D+00  0.0000000000000D+00
   420  4.1900000000000D+00  0.0000000000000D+00  0.0000000000000D+00
   421  4.2000000000000D+00  0.0000000000000D+00  0.0000000000000D+00
   422  4.2100000000000D+00  0.0000000000000D+00  0.0000000000000D+00