Mg    ONCVPSP-3.3.1  r_core=   1.24667   2.52001
     12.0000     10.0000      210905    zatom,zion,pspd
     8 -116133   1     4   600     0    pspcod,pspxc,lmax,lloc,mmax,r2well
  5.99000000  0.00000000  0.00000000    rchrg fchrg qchrg
     2     2     0     0     0    nproj
     1     1           extension_switch
   0                         8.0501239527389D+00  1.2015885061296D+00
     1  0.0000000000000D+00  5.1114660282181D-09 -1.0292821928104D-08
     2  1.0000000000000D-02  1.2611134300945D-01  9.4142752077204D-03
     3  2.0000000000000D-02  2.5171507465674D-01  1.8799633977857D-02
     4  3.0000000000000D-02  3.7630368010223D-01  2.8131922345566D-02
     5  4.0000000000000D-02  4.9936989177671D-01  3.7396381418262D-02
     6  5.0000000000000D-02  6.2040694723820D-01  4.6592022925243D-02
     7  6.0000000000000D-02  7.3890900436378D-01  5.5735625883976D-02
     8  7.0000000000000D-02  8.5437176017994D-01  6.4865240441117D-02
     9  8.0000000000000D-02  9.6629331452324D-01  7.4043095239130D-02
    10  9.0000000000000D-02  1.0741753135213D+00  8.3357817164127D-02
    11  1.0000000000000D-01  1.1775244007115D+00  9.2925886812573D-02
    12  1.1000000000000D-01  1.2758539956122D+00  1.0289226920589D-01
    13  1.2000000000000D-01  1.3686864108858D+00  1.1343017687677D-01
    14  1.3000000000000D-01  1.4555553100538D+00  1.2473994112065D-01
    15  1.4000000000000D-01  1.5360084982255D+00  1.3704698659367D-01
    16  1.5000000000000D-01  1.6096110286765D+00  1.5059892417758D-01
    17  1.6000000000000D-01  1.6759485985494D+00  1.6566179674111D-01
    18  1.7000000000000D-01  1.7346311976554D+00  1.8251553172517D-01
    19  1.8000000000000D-01  1.7852969655133D+00  2.0144867298608D-01
    20  1.9000000000000D-01  1.8276162035703D+00  2.2275248168137D-01
    21  2.0000000000000D-01  1.8612954821856D+00  2.4671451182242D-01
    22  2.1000000000000D-01  1.8860817755794D+00  2.7361178012603D-01
    23  2.2000000000000D-01  1.9017665527258D+00  3.0370366167131D-01
    24  2.3000000000000D-01  1.9081897482081D+00  3.3722465235318D-01
    25  2.4000000000000D-01  1.9052435344907D+00  3.7437714599827D-01
    26  2.5000000000000D-01  1.8928758159600D+00  4.1532437810006D-01
    27  2.6000000000000D-01  1.8710933655199D+00  4.6018368931477D-01
    28  2.7000000000000D-01  1.8399645265234D+00  5.0902026006605D-01
    29  2.8000000000000D-01  1.7996214063807D+00  5.6184146282040D-01
    30  2.9000000000000D-01  1.7502614932855D+00  6.1859197085464D-01
    31  3.0000000000000D-01  1.6921486340844D+00  6.7914975173824D-01
    32  3.1000000000000D-01  1.6256133192964D+00  7.4332306044978D-01
    33  3.2000000000000D-01  1.5510522305609D+00  8.1084853124028D-01
    34  3.3000000000000D-01  1.4689270162046D+00  8.8139044930441D-01
    35  3.4000000000000D-01  1.3797622720218D+00  9.5454126332336D-01
    36  3.5000000000000D-01  1.2841427165559D+00  1.0298233783469D+00
    37  3.6000000000000D-01  1.1827095629632D+00  1.1066922456618D+00
    38  3.7000000000000D-01  1.0761561027051D+00  1.1845407426639D+00
    39  3.8000000000000D-01  9.6522252962090D-01  1.2627048117391D+00
    40  3.9000000000000D-01  8.5069004614836D-01  1.3404703032089D+00
    41  4.0000000000000D-01  7.3337430633028D-01  1.4170809439684D+00
    42  4.1000000000000D-01  6.1411826254549D-01  1.4917473309750D+00
    43  4.2000000000000D-01  4.9378449438499D-01  1.5636568276880D+00
    44  4.3000000000000D-01  3.7324710854305D-01  1.6319842223202D+00
    45  4.4000000000000D-01  2.5338330779713D-01  1.6959029897371D+00
    46  4.5000000000000D-01  1.3506473491924D-01  1.7545969843841D+00
    47  4.6000000000000D-01  1.9148703529551D-02  1.8072723800475D+00
    48  4.7000000000000D-01 -9.3530567669164D-02  1.8531696638149D+00
    49  4.8000000000000D-01 -2.0217059826045D-01  1.8915754865138D+00
    50  4.9000000000000D-01 -3.0600904742059D-01  1.9218341703002D+00
    51  5.0000000000000D-01 -4.0433175481691D-01  1.9433586760335D+00
    52  5.1000000000000D-01 -4.9648030604702D-01  1.9556408386108D+00
    53  5.2000000000000D-01 -5.8185901280983D-01  1.9582606874891D+00
    54  5.3000000000000D-01 -6.5994120512238D-01  1.9508946820785D+00
    55  5.4000000000000D-01 -7.3027474178350D-01  1.9333227073148D+00
    56  5.5000000000000D-01 -7.9248665582514D-01  1.9054336933141D+00
    57  5.6000000000000D-01 -8.4628686368890D-01  1.8672297442027D+00
    58  5.7000000000000D-01 -8.9147088011742D-01  1.8188286846261D+00
    59  5.8000000000000D-01 -9.2792149508052D-01  1.7604649577457D+00
    60  5.9000000000000D-01 -9.5560938410923D-01  1.6924888350583D+00
    61  6.0000000000000D-01 -9.7459263907810D-01  1.6153639259292D+00
    62  6.1000000000000D-01 -9.8501522229240D-01  1.5296630024459D+00
    63  6.2000000000000D-01 -9.8710436259149D-01  1.4360621828721D+00
    64  6.3000000000000D-01 -9.8116692767293D-01  1.3353335438719D+00
    65  6.4000000000000D-01 -9.6758482168685D-01  1.2283362572640D+00
    66  6.5000000000000D-01 -9.4680947120148D-01  1.1160063710674D+00
    67  6.6000000000000D-01 -9.1935547544203D-01  9.9934537621036D-01
    68  6.7000000000000D-01 -8.8579350817447D-01  8.7940771932469D-01
    69  6.8000000000000D-01 -8.4674256848889D-01  7.5728743809155D-01
    70  6.9000000000000D-01 -8.0286168579439D-01  6.3410410821043D-01
    71  7.0000000000000D-01 -7.5484119047903D-01  5.1098830009844D-01
    72  7.1000000000000D-01 -7.0339366580298D-01  3.8906674867121D-01
    73  7.2000000000000D-01 -6.4924469855501D-01  2.6944744083893D-01
    74  7.3000000000000D-01 -5.9312354583066D-01  1.5320482270788D-01
    75  7.4000000000000D-01 -5.3575383295614D-01  4.1365321884069D-02
    76  7.5000000000000D-01 -4.7784439319787D-01 -6.5106630014049D-02
    77  7.6000000000000D-01 -4.2008035345119D-01 -1.6532190354202D-01
    78  7.7000000000000D-01 -3.6311456183950D-01 -2.5847915243591D-01
    79  7.8000000000000D-01 -3.0755944317418D-01 -3.4387633579412D-01
    80  7.9000000000000D-01 -2.5397935675237D-01 -4.2092117058041D-01
    81  8.0000000000000D-01 -2.0288351823651D-01 -4.8914042849064D-01
    82  8.1000000000000D-01 -1.5471953362042D-01 -5.4818801772853D-01
    83  8.2000000000000D-01 -1.0986757882081D-01 -5.9785181780583D-01
    84  8.3000000000000D-01 -6.8635243530020D-02 -6.3805926356368D-01
    85  8.4000000000000D-01 -3.1253041340048D-02 -6.6888170631636D-01
    86  8.5000000000000D-01  2.1294243166368D-03 -6.9053760109766D-01
    87  8.6000000000000D-01  3.1446571312849D-02 -7.0339438704202D-01
    88  8.7000000000000D-01  5.6718842393772D-02 -7.0796815898453D-01
    89  8.8000000000000D-01  7.8036595344130D-02 -7.0488205378613D-01
    90  8.9000000000000D-01  9.5537355739730D-02 -6.9481227036989D-01
    91  9.0000000000000D-01  1.0939763149253D-01 -6.7847020309054D-01
    92  9.1000000000000D-01  1.1982855949919D-01 -6.5659413382351D-01
    93  9.2000000000000D-01  1.2707061680308D-01 -6.2993909333018D-01
    94  9.3000000000000D-01  1.3138820538579D-01 -5.9926678753644D-01
    95  9.4000000000000D-01  1.3306410431433D-01 -5.6533551795574D-01
    96  9.5000000000000D-01  1.3239388393817D-01 -5.2889027248917D-01
    97  9.6000000000000D-01  1.2968038515446D-01 -4.9065318035530D-01
    98  9.7000000000000D-01  1.2522835979114D-01 -4.5131450801441D-01
    99  9.8000000000000D-01  1.1933936248824D-01 -4.1152436002403D-01
   100  9.9000000000000D-01  1.1230697734824D-01 -3.7188523317750D-01
   101  1.0000000000000D+00  1.0441245430046D-01 -3.3294555443286D-01
   102  1.0100000000000D+00  9.5920819915968D-02 -2.9519431166568D-01
   103  1.0200000000000D+00  8.7077516774800D-02 -2.5905686420329D-01
   104  1.0300000000000D+00  7.8105613623785D-02 -2.2489199570913D-01
   105  1.0400000000000D+00  6.9203616277430D-02 -1.9299024695721D-01
   106  1.0500000000000D+00  6.0543895971128D-02 -1.6357353929242D-01
   107  1.0600000000000D+00  5.2271740358735D-02 -1.3679607643696D-01
   108  1.0700000000000D+00  4.4505017896543D-02 -1.1274648351507D-01
   109  1.0800000000000D+00  3.7334435322710D-02 -9.1451120374977D-02
   110  1.0900000000000D+00  3.0824355777067D-02 -7.2878482397320D-02
   111  1.1000000000000D+00  2.5014134153016D-02 -5.6944580725649D-02
   112  1.1100000000000D+00  1.9919917551488D-02 -4.3519177020502D-02
   113  1.1200000000000D+00  1.5536848555486D-02 -3.2432728608883D-02
   114  1.1300000000000D+00  1.1841603344404D-02 -2.3483889371492D-02
   115  1.1400000000000D+00  8.7951905809903D-03 -1.6447400868361D-02
   116  1.1500000000000D+00  6.3459336216226D-03 -1.1082202294395D-02
   117  1.1600000000000D+00  4.4325555161674D-03 -7.1395834564919D-03
   118  1.1700000000000D+00  2.9872866737139D-03 -4.3712069119276D-03
   119  1.1800000000000D+00  1.9389168140564D-03 -2.5368305936260D-03
   120  1.1900000000000D+00  1.2157138715093D-03 -1.4115653664670D-03
   121  1.2000000000000D+00  7.4813919561838D-04 -7.9251755956689D-04
   122  1.2100000000000D+00  4.7178617826609D-04 -5.0555430845400D-04
   123  1.2200000000000D+00  3.2475314370984D-04 -4.0219880973714D-04
   124  1.2300000000000D+00  2.6350445957686D-04 -3.8745930123267D-04
   125  1.2400000000000D+00  2.7048872537971D-04 -4.3192571909789D-04
   126  1.2500000000000D+00  1.9671467515840D-04 -3.1794516513404D-04
   127  1.2600000000000D+00  2.2594974417769D-05 -3.6529400943650D-05
   128  1.2700000000000D+00 -2.4022098877879D-05  3.9047613585619D-05
   129  1.2800000000000D+00  4.0745521399946D-06 -6.6270056305185D-06
   130  1.2900000000000D+00  2.1730680840499D-06 -3.5368167494955D-06
   131  1.3000000000000D+00 -6.8853058519245D-07  1.1108497355801D-06
   132  1.3100000000000D+00  0.0000000000000D+00  0.0000000000000D+00
   133  1.3200000000000D+00  0.0000000000000D+00  0.0000000000000D+00
   134  1.3300000000000D+00  0.0000000000000D+00  0.0000000000000D+00
   135  1.3400000000000D+00  0.0000000000000D+00  0.0000000000000D+00
   136  1.3500000000000D+00  0.0000000000000D+00  0.0000000000000D+00
   137  1.3600000000000D+00  0.0000000000000D+00  0.0000000000000D+00
   138  1.3700000000000D+00  0.0000000000000D+00  0.0000000000000D+00
   139  1.3800000000000D+00  0.0000000000000D+00  0.0000000000000D+00
   140  1.3900000000000D+00  0.0000000000000D+00  0.0000000000000D+00
   141  1.4000000000000D+00  0.0000000000000D+00  0.0000000000000D+00
   142  1.4100000000000D+00  0.0000000000000D+00  0.0000000000000D+00
   143  1.4200000000000D+00  0.0000000000000D+00  0.0000000000000D+00
   144  1.4300000000000D+00  0.0000000000000D+00  0.0000000000000D+00
   145  1.4400000000000D+00  0.0000000000000D+00  0.0000000000000D+00
   146  1.4500000000000D+00  0.0000000000000D+00  0.0000000000000D+00
   147  1.4600000000000D+00  0.0000000000000D+00  0.0000000000000D+00
   148  1.4700000000000D+00  0.0000000000000D+00  0.0000000000000D+00
   149  1.4800000000000D+00  0.0000000000000D+00  0.0000000000000D+00
   150  1.4900000000000D+00  0.0000000000000D+00  0.0000000000000D+00
   151  1.5000000000000D+00  0.0000000000000D+00  0.0000000000000D+00
   152  1.5100000000000D+00  0.0000000000000D+00  0.0000000000000D+00
   153  1.5200000000000D+00  0.0000000000000D+00  0.0000000000000D+00
   154  1.5300000000000D+00  0.0000000000000D+00  0.0000000000000D+00
   155  1.5400000000000D+00  0.0000000000000D+00  0.0000000000000D+00
   156  1.5500000000000D+00  0.0000000000000D+00  0.0000000000000D+00
   157  1.5600000000000D+00  0.0000000000000D+00  0.0000000000000D+00
   158  1.5700000000000D+00  0.0000000000000D+00  0.0000000000000D+00
   159  1.5800000000000D+00  0.0000000000000D+00  0.0000000000000D+00
   160  1.5900000000000D+00  0.0000000000000D+00  0.0000000000000D+00
   161  1.6000000000000D+00  0.0000000000000D+00  0.0000000000000D+00
   162  1.6100000000000D+00  0.0000000000000D+00  0.0000000000000D+00
   163  1.6200000000000D+00  0.0000000000000D+00  0.0000000000000D+00
   164  1.6300000000000D+00  0.0000000000000D+00  0.0000000000000D+00
   165  1.6400000000000D+00  0.0000000000000D+00  0.0000000000000D+00
   166  1.6500000000000D+00  0.0000000000000D+00  0.0000000000000D+00
   167  1.6600000000000D+00  0.0000000000000D+00  0.0000000000000D+00
   168  1.6700000000000D+00  0.0000000000000D+00  0.0000000000000D+00
   169  1.6800000000000D+00  0.0000000000000D+00  0.0000000000000D+00
   170  1.6900000000000D+00  0.0000000000000D+00  0.0000000000000D+00
   171  1.7000000000000D+00  0.0000000000000D+00  0.0000000000000D+00
   172  1.7100000000000D+00  0.0000000000000D+00  0.0000000000000D+00
   173  1.7200000000000D+00  0.0000000000000D+00  0.0000000000000D+00
   174  1.7300000000000D+00  0.0000000000000D+00  0.0000000000000D+00
   175  1.7400000000000D+00  0.0000000000000D+00  0.0000000000000D+00
   176  1.7500000000000D+00  0.0000000000000D+00  0.0000000000000D+00
   177  1.7600000000000D+00  0.0000000000000D+00  0.0000000000000D+00
   178  1.7700000000000D+00  0.0000000000000D+00  0.0000000000000D+00
   179  1.7800000000000D+00  0.0000000000000D+00  0.0000000000000D+00
   180  1.7900000000000D+00  0.0000000000000D+00  0.0000000000000D+00
   181  1.8000000000000D+00  0.0000000000000D+00  0.0000000000000D+00
   182  1.8100000000000D+00  0.0000000000000D+00  0.0000000000000D+00
   183  1.8200000000000D+00  0.0000000000000D+00  0.0000000000000D+00
   184  1.8300000000000D+00  0.0000000000000D+00  0.0000000000000D+00
   185  1.8400000000000D+00  0.0000000000000D+00  0.0000000000000D+00
   186  1.8500000000000D+00  0.0000000000000D+00  0.0000000000000D+00
   187  1.8600000000000D+00  0.0000000000000D+00  0.0000000000000D+00
   188  1.8700000000000D+00  0.0000000000000D+00  0.0000000000000D+00
   189  1.8800000000000D+00  0.0000000000000D+00  0.0000000000000D+00
   190  1.8900000000000D+00  0.0000000000000D+00  0.0000000000000D+00
   191  1.9000000000000D+00  0.0000000000000D+00  0.0000000000000D+00
   192  1.9100000000000D+00  0.0000000000000D+00  0.0000000000000D+00
   193  1.9200000000000D+00  0.0000000000000D+00  0.0000000000000D+00
   194  1.9300000000000D+00  0.0000000000000D+00  0.0000000000000D+00
   195  1.9400000000000D+00  0.0000000000000D+00  0.0000000000000D+00
   196  1.9500000000000D+00  0.0000000000000D+00  0.0000000000000D+00
   197  1.9600000000000D+00  0.0000000000000D+00  0.0000000000000D+00
   198  1.9700000000000D+00  0.0000000000000D+00  0.0000000000000D+00
   199  1.9800000000000D+00  0.0000000000000D+00  0.0000000000000D+00
   200  1.9900000000000D+00  0.0000000000000D+00  0.0000000000000D+00
   201  2.0000000000000D+00  0.0000000000000D+00  0.0000000000000D+00
   202  2.0100000000000D+00  0.0000000000000D+00  0.0000000000000D+00
   203  2.0200000000000D+00  0.0000000000000D+00  0.0000000000000D+00
   204  2.0300000000000D+00  0.0000000000000D+00  0.0000000000000D+00
   205  2.0400000000000D+00  0.0000000000000D+00  0.0000000000000D+00
   206  2.0500000000000D+00  0.0000000000000D+00  0.0000000000000D+00
   207  2.0600000000000D+00  0.0000000000000D+00  0.0000000000000D+00
   208  2.0700000000000D+00  0.0000000000000D+00  0.0000000000000D+00
   209  2.0800000000000D+00  0.0000000000000D+00  0.0000000000000D+00
   210  2.0900000000000D+00  0.0000000000000D+00  0.0000000000000D+00
   211  2.1000000000000D+00  0.0000000000000D+00  0.0000000000000D+00
   212  2.1100000000000D+00  0.0000000000000D+00  0.0000000000000D+00
   213  2.1200000000000D+00  0.0000000000000D+00  0.0000000000000D+00
   214  2.1300000000000D+00  0.0000000000000D+00  0.0000000000000D+00
   215  2.1400000000000D+00  0.0000000000000D+00  0.0000000000000D+00
   216  2.1500000000000D+00  0.0000000000000D+00  0.0000000000000D+00
   217  2.1600000000000D+00  0.0000000000000D+00  0.0000000000000D+00
   218  2.1700000000000D+00  0.0000000000000D+00  0.0000000000000D+00
   219  2.1800000000000D+00  0.0000000000000D+00  0.0000000000000D+00
   220  2.1900000000000D+00  0.0000000000000D+00  0.0000000000000D+00
   221  2.2000000000000D+00  0.0000000000000D+00  0.0000000000000D+00
   222  2.2100000000000D+00  0.0000000000000D+00  0.0000000000000D+00
   223  2.2200000000000D+00  0.0000000000000D+00  0.0000000000000D+00
   224  2.2300000000000D+00  0.0000000000000D+00  0.0000000000000D+00
   225  2.2400000000000D+00  0.0000000000000D+00  0.0000000000000D+00
   226  2.2500000000000D+00  0.0000000000000D+00  0.0000000000000D+00
   227  2.2600000000000D+00  0.0000000000000D+00  0.0000000000000D+00
   228  2.2700000000000D+00  0.0000000000000D+00  0.0000000000000D+00
   229  2.2800000000000D+00  0.0000000000000D+00  0.0000000000000D+00
   230  2.2900000000000D+00  0.0000000000000D+00  0.0000000000000D+00
   231  2.3000000000000D+00  0.0000000000000D+00  0.0000000000000D+00
   232  2.3100000000000D+00  0.0000000000000D+00  0.0000000000000D+00
   233  2.3200000000000D+00  0.0000000000000D+00  0.0000000000000D+00
   234  2.3300000000000D+00  0.0000000000000D+00  0.0000000000000D+00
   235  2.3400000000000D+00  0.0000000000000D+00  0.0000000000000D+00
   236  2.3500000000000D+00  0.0000000000000D+00  0.0000000000000D+00
   237  2.3600000000000D+00  0.0000000000000D+00  0.0000000000000D+00
   238  2.3700000000000D+00  0.0000000000000D+00  0.0000000000000D+00
   239  2.3800000000000D+00  0.0000000000000D+00  0.0000000000000D+00
   240  2.3900000000000D+00  0.0000000000000D+00  0.0000000000000D+00
   241  2.4000000000000D+00  0.0000000000000D+00  0.0000000000000D+00
   242  2.4100000000000D+00  0.0000000000000D+00  0.0000000000000D+00
   243  2.4200000000000D+00  0.0000000000000D+00  0.0000000000000D+00
   244  2.4300000000000D+00  0.0000000000000D+00  0.0000000000000D+00
   245  2.4400000000000D+00  0.0000000000000D+00  0.0000000000000D+00
   246  2.4500000000000D+00  0.0000000000000D+00  0.0000000000000D+00
   247  2.4600000000000D+00  0.0000000000000D+00  0.0000000000000D+00
   248  2.4700000000000D+00  0.0000000000000D+00  0.0000000000000D+00
   249  2.4800000000000D+00  0.0000000000000D+00  0.0000000000000D+00
   250  2.4900000000000D+00  0.0000000000000D+00  0.0000000000000D+00
   251  2.5000000000000D+00  0.0000000000000D+00  0.0000000000000D+00
   252  2.5100000000000D+00  0.0000000000000D+00  0.0000000000000D+00
   253  2.5200000000000D+00  0.0000000000000D+00  0.0000000000000D+00
   254  2.5300000000000D+00  0.0000000000000D+00  0.0000000000000D+00
   255  2.5400000000000D+00  0.0000000000000D+00  0.0000000000000D+00
   256  2.5500000000000D+00  0.0000000000000D+00  0.0000000000000D+00
   257  2.5600000000000D+00  0.0000000000000D+00  0.0000000000000D+00
   258  2.5700000000000D+00  0.0000000000000D+00  0.0000000000000D+00
   259  2.5800000000000D+00  0.0000000000000D+00  0.0000000000000D+00
   260  2.5900000000000D+00  0.0000000000000D+00  0.0000000000000D+00
   261  2.6000000000000D+00  0.0000000000000D+00  0.0000000000000D+00
   262  2.6100000000000D+00  0.0000000000000D+00  0.0000000000000D+00
   263  2.6200000000000D+00  0.0000000000000D+00  0.0000000000000D+00
   264  2.6300000000000D+00  0.0000000000000D+00  0.0000000000000D+00
   265  2.6400000000000D+00  0.0000000000000D+00  0.0000000000000D+00
   266  2.6500000000000D+00  0.0000000000000D+00  0.0000000000000D+00
   267  2.6600000000000D+00  0.0000000000000D+00  0.0000000000000D+00
   268  2.6700000000000D+00  0.0000000000000D+00  0.0000000000000D+00
   269  2.6800000000000D+00  0.0000000000000D+00  0.0000000000000D+00
   270  2.6900000000000D+00  0.0000000000000D+00  0.0000000000000D+00
   271  2.7000000000000D+00  0.0000000000000D+00  0.0000000000000D+00
   272  2.7100000000000D+00  0.0000000000000D+00  0.0000000000000D+00
   273  2.7200000000000D+00  0.0000000000000D+00  0.0000000000000D+00
   274  2.7300000000000D+00  0.0000000000000D+00  0.0000000000000D+00
   275  2.7400000000000D+00  0.0000000000000D+00  0.0000000000000D+00
   276  2.7500000000000D+00  0.0000000000000D+00  0.0000000000000D+00
   277  2.7600000000000D+00  0.0000000000000D+00  0.0000000000000D+00
   278  2.7700000000000D+00  0.0000000000000D+00  0.0000000000000D+00
   279  2.7800000000000D+00  0.0000000000000D+00  0.0000000000000D+00
   280  2.7900000000000D+00  0.0000000000000D+00  0.0000000000000D+00
   281  2.8000000000000D+00  0.0000000000000D+00  0.0000000000000D+00
   282  2.8100000000000D+00  0.0000000000000D+00  0.0000000000000D+00
   283  2.8200000000000D+00  0.0000000000000D+00  0.0000000000000D+00
   284  2.8300000000000D+00  0.0000000000000D+00  0.0000000000000D+00
   285  2.8400000000000D+00  0.0000000000000D+00  0.0000000000000D+00
   286  2.8500000000000D+00  0.0000000000000D+00  0.0000000000000D+00
   287  2.8600000000000D+00  0.0000000000000D+00  0.0000000000000D+00
   288  2.8700000000000D+00  0.0000000000000D+00  0.0000000000000D+00
   289  2.8800000000000D+00  0.0000000000000D+00  0.0000000000000D+00
   290  2.8900000000000D+00  0.0000000000000D+00  0.0000000000000D+00
   291  2.9000000000000D+00  0.0000000000000D+00  0.0000000000000D+00
   292  2.9100000000000D+00  0.0000000000000D+00  0.0000000000000D+00
   293  2.9200000000000D+00  0.0000000000000D+00  0.0000000000000D+00
   294  2.9300000000000D+00  0.0000000000000D+00  0.0000000000000D+00
   295  2.9400000000000D+00  0.0000000000000D+00  0.0000000000000D+00
   296  2.9500000000000D+00  0.0000000000000D+00  0.0000000000000D+00
   297  2.9600000000000D+00  0.0000000000000D+00  0.0000000000000D+00
   298  2.9700000000000D+00  0.0000000000000D+00  0.0000000000000D+00
   299  2.9800000000000D+00  0.0000000000000D+00  0.0000000000000D+00
   300  2.9900000000000D+00  0.0000000000000D+00  0.0000000000000D+00
   301  3.0000000000000D+00  0.0000000000000D+00  0.0000000000000D+00
   302  3.0100000000000D+00  0.0000000000000D+00  0.0000000000000D+00
   303  3.0200000000000D+00  0.0000000000000D+00  0.0000000000000D+00
   304  3.0300000000000D+00  0.0000000000000D+00  0.0000000000000D+00
   305  3.0400000000000D+00  0.0000000000000D+00  0.0000000000000D+00
   306  3.0500000000000D+00  0.0000000000000D+00  0.0000000000000D+00
   307  3.0600000000000D+00  0.0000000000000D+00  0.0000000000000D+00
   308  3.0700000000000D+00  0.0000000000000D+00  0.0000000000000D+00
   309  3.0800000000000D+00  0.0000000000000D+00  0.0000000000000D+00
   310  3.0900000000000D+00  0.0000000000000D+00  0.0000000000000D+00
   311  3.1000000000000D+00  0.0000000000000D+00  0.0000000000000D+00
   312  3.1100000000000D+00  0.0000000000000D+00  0.0000000000000D+00
   313  3.1200000000000D+00  0.0000000000000D+00  0.0000000000000D+00
   314  3.1300000000000D+00  0.0000000000000D+00  0.0000000000000D+00
   315  3.1400000000000D+00  0.0000000000000D+00  0.0000000000000D+00
   316  3.1500000000000D+00  0.0000000000000D+00  0.0000000000000D+00
   317  3.1600000000000D+00  0.0000000000000D+00  0.0000000000000D+00
   318  3.1700000000000D+00  0.0000000000000D+00  0.0000000000000D+00
   319  3.1800000000000D+00  0.0000000000000D+00  0.0000000000000D+00
   320  3.1900000000000D+00  0.0000000000000D+00  0.0000000000000D+00
   321  3.2000000000000D+00  0.0000000000000D+00  0.0000000000000D+00
   322  3.2100000000000D+00  0.0000000000000D+00  0.0000000000000D+00
   323  3.2200000000000D+00  0.0000000000000D+00  0.0000000000000D+00
   324  3.2300000000000D+00  0.0000000000000D+00  0.0000000000000D+00
   325  3.2400000000000D+00  0.0000000000000D+00  0.0000000000000D+00
   326  3.2500000000000D+00  0.0000000000000D+00  0.0000000000000D+00
   327  3.2600000000000D+00  0.0000000000000D+00  0.0000000000000D+00
   328  3.2700000000000D+00  0.0000000000000D+00  0.0000000000000D+00
   329  3.2800000000000D+00  0.0000000000000D+00  0.0000000000000D+00
   330  3.2900000000000D+00  0.0000000000000D+00  0.0000000000000D+00
   331  3.3000000000000D+00  0.0000000000000D+00  0.0000000000000D+00
   332  3.3100000000000D+00  0.0000000000000D+00  0.0000000000000D+00
   333  3.3200000000000D+00  0.0000000000000D+00  0.0000000000000D+00
   334  3.3300000000000D+00  0.0000000000000D+00  0.0000000000000D+00
   335  3.3400000000000D+00  0.0000000000000D+00  0.0000000000000D+00
   336  3.3500000000000D+00  0.0000000000000D+00  0.0000000000000D+00
   337  3.3600000000000D+00  0.0000000000000D+00  0.0000000000000D+00
   338  3.3700000000000D+00  0.0000000000000D+00  0.0000000000000D+00
   339  3.3800000000000D+00  0.0000000000000D+00  0.0000000000000D+00
   340  3.3900000000000D+00  0.0000000000000D+00  0.0000000000000D+00
   341  3.4000000000000D+00  0.0000000000000D+00  0.0000000000000D+00
   342  3.4100000000000D+00  0.0000000000000D+00  0.0000000000000D+00
   343  3.4200000000000D+00  0.0000000000000D+00  0.0000000000000D+00
   344  3.4300000000000D+00  0.0000000000000D+00  0.0000000000000D+00
   345  3.4400000000000D+00  0.0000000000000D+00  0.0000000000000D+00
   346  3.4500000000000D+00  0.0000000000000D+00  0.0000000000000D+00
   347  3.4600000000000D+00  0.0000000000000D+00  0.0000000000000D+00
   348  3.4700000000000D+00  0.0000000000000D+00  0.0000000000000D+00
   349  3.4800000000000D+00  0.0000000000000D+00  0.0000000000000D+00
   350  3.4900000000000D+00  0.0000000000000D+00  0.0000000000000D+00
   351  3.5000000000000D+00  0.0000000000000D+00  0.0000000000000D+00
   352  3.5100000000000D+00  0.0000000000000D+00  0.0000000000000D+00
   353  3.5200000000000D+00  0.0000000000000D+00  0.0000000000000D+00
   354  3.5300000000000D+00  0.0000000000000D+00  0.0000000000000D+00
   355  3.5400000000000D+00  0.0000000000000D+00  0.0000000000000D+00
   356  3.5500000000000D+00  0.0000000000000D+00  0.0000000000000D+00
   357  3.5600000000000D+00  0.0000000000000D+00  0.0000000000000D+00
   358  3.5700000000000D+00  0.0000000000000D+00  0.0000000000000D+00
   359  3.5800000000000D+00  0.0000000000000D+00  0.0000000000000D+00
   360  3.5900000000000D+00  0.0000000000000D+00  0.0000000000000D+00
   361  3.6000000000000D+00  0.0000000000000D+00  0.0000000000000D+00
   362  3.6100000000000D+00  0.0000000000000D+00  0.0000000000000D+00
   363  3.6200000000000D+00  0.0000000000000D+00  0.0000000000000D+00
   364  3.6300000000000D+00  0.0000000000000D+00  0.0000000000000D+00
   365  3.6400000000000D+00  0.0000000000000D+00  0.0000000000000D+00
   366  3.6500000000000D+00  0.0000000000000D+00  0.0000000000000D+00
   367  3.6600000000000D+00  0.0000000000000D+00  0.0000000000000D+00
   368  3.6700000000000D+00  0.0000000000000D+00  0.0000000000000D+00
   369  3.6800000000000D+00  0.0000000000000D+00  0.0000000000000D+00
   370  3.6900000000000D+00  0.0000000000000D+00  0.0000000000000D+00
   371  3.7000000000000D+00  0.0000000000000D+00  0.0000000000000D+00
   372  3.7100000000000D+00  0.0000000000000D+00  0.0000000000000D+00
   373  3.7200000000000D+00  0.0000000000000D+00  0.0000000000000D+00
   374  3.7300000000000D+00  0.0000000000000D+00  0.0000000000000D+00
   375  3.7400000000000D+00  0.0000000000000D+00  0.0000000000000D+00
   376  3.7500000000000D+00  0.0000000000000D+00  0.0000000000000D+00
   377  3.7600000000000D+00  0.0000000000000D+00  0.0000000000000D+00
   378  3.7700000000000D+00  0.0000000000000D+00  0.0000000000000D+00
   379  3.7800000000000D+00  0.0000000000000D+00  0.0000000000000D+00
   380  3.7900000000000D+00  0.0000000000000D+00  0.0000000000000D+00
   381  3.8000000000000D+00  0.0000000000000D+00  0.0000000000000D+00
   382  3.8100000000000D+00  0.0000000000000D+00  0.0000000000000D+00
   383  3.8200000000000D+00  0.0000000000000D+00  0.0000000000000D+00
   384  3.8300000000000D+00  0.0000000000000D+00  0.0000000000000D+00
   385  3.8400000000000D+00  0.0000000000000D+00  0.0000000000000D+00
   386  3.8500000000000D+00  0.0000000000000D+00  0.0000000000000D+00
   387  3.8600000000000D+00  0.0000000000000D+00  0.0000000000000D+00
   388  3.8700000000000D+00  0.0000000000000D+00  0.0000000000000D+00
   389  3.8800000000000D+00  0.0000000000000D+00  0.0000000000000D+00
   390  3.8900000000000D+00  0.0000000000000D+00  0.0000000000000D+00
   391  3.9000000000000D+00  0.0000000000000D+00  0.0000000000000D+00
   392  3.9100000000000D+00  0.0000000000000D+00  0.0000000000000D+00
   393  3.9200000000000D+00  0.0000000000000D+00  0.0000000000000D+00
   394  3.9300000000000D+00  0.0000000000000D+00  0.0000000000000D+00
   395  3.9400000000000D+00  0.0000000000000D+00  0.0000000000000D+00
   396  3.9500000000000D+00  0.0000000000000D+00  0.0000000000000D+00
   397  3.9600000000000D+00  0.0000000000000D+00  0.0000000000000D+00
   398  3.9700000000000D+00  0.0000000000000D+00  0.0000000000000D+00
   399  3.9800000000000D+00  0.0000000000000D+00  0.0000000000000D+00
   400  3.9900000000000D+00  0.0000000000000D+00  0.0000000000000D+00
   401  4.0000000000000D+00  0.0000000000000D+00  0.0000000000000D+00
   402  4.0100000000000D+00  0.0000000000000D+00  0.0000000000000D+00
   403  4.0200000000000D+00  0.0000000000000D+00  0.0000000000000D+00
   404  4.0300000000000D+00  0.0000000000000D+00  0.0000000000000D+00
   405  4.0400000000000D+00  0.0000000000000D+00  0.0000000000000D+00
   406  4.0500000000000D+00  0.0000000000000D+00  0.0000000000000D+00
   407  4.0600000000000D+00  0.0000000000000D+00  0.0000000000000D+00
   408  4.0700000000000D+00  0.0000000000000D+00  0.0000000000000D+00
   409  4.0800000000000D+00  0.0000000000000D+00  0.0000000000000D+00
   410  4.0900000000000D+00  0.0000000000000D+00  0.0000000000000D+00
   411  4.1000000000000D+00  0.0000000000000D+00  0.0000000000000D+00
   412  4.1100000000000D+00  0.0000000000000D+00  0.0000000000000D+00
   413  4.1200000000000D+00  0.0000000000000D+00  0.0000000000000D+00
   414  4.1300000000000D+00  0.0000000000000D+00  0.0000000000000D+00
   415  4.1400000000000D+00  0.0000000000000D+00  0.0000000000000D+00
   416  4.1500000000000D+00  0.0000000000000D+00  0.0000000000000D+00
   417  4.1600000000000D+00  0.0000000000000D+00  0.0000000000000D+00
   418  4.1700000000000D+00  0.0000000000000D+00  0.0000000000000D+00
   419  4.1800000000000D+00  0.0000000000000D+00  0.0000000000000D+00
   420  4.1900000000000D+00  0.0000000000000D+00  0.0000000000000D+00
   421  4.2000000000000D+00  0.0000000000000D+00  0.0000000000000D+00
   422  4.2100000000000D+00  0.0000000000000D+00  0.0000000000000D+00
   423  4.2200000000000D+00  0.0000000000000D+00  0.0000000000000D+00