Mn    ONCVPSP-3.3.1  r_core=   2.47442   2.47442   2.11898
     25.0000     15.0000      210905    zatom,zion,pspd
     8 -116133   2     4   600     0    pspcod,pspxc,lmax,lloc,mmax,r2well
  5.99000000  0.00000000  0.00000000    rchrg fchrg qchrg
     2     2     2     0    nproj
     3     1           extension_switch
     3     3     0    nprojso
   0                        -1.9860004905839D+00 -6.7942143420620D-01
     1  0.0000000000000D+00 -5.3185233994668D-13  1.3022027900433D-11
     2  1.0000000000000D-02  3.5369553137840D-02 -5.3524532237275D-02
     3  2.0000000000000D-02  7.0707956377785D-02 -1.0691556262950D-01
     4  3.0000000000000D-02  1.0598410082430D-01 -1.6003994024737D-01
     5  4.0000000000000D-02  1.4116695951877D-01 -2.1276521497421D-01
     6  5.0000000000000D-02  1.7622562823865D-01 -2.6495998536856D-01
     7  6.0000000000000D-02  2.1112936609370D-01 -3.1649424348332D-01
     8  7.0000000000000D-02  2.4584763585247D-01 -3.6723971564208D-01
     9  8.0000000000000D-02  2.8035014393231D-01 -4.1707019818622D-01
    10  9.0000000000000D-02  3.1460687998733D-01 -4.6586188722240D-01
    11  1.0000000000000D-01  3.4858815602898D-01 -5.1349370141900D-01
    12  1.1000000000000D-01  3.8226464501529D-01 -5.5984759692253D-01
    13  1.2000000000000D-01  4.1560741884543D-01 -6.0480887348968D-01
    14  1.3000000000000D-01  4.4858798569775D-01 -6.4826647095919D-01
    15  1.4000000000000D-01  4.8117832665034D-01 -6.9011325521763D-01
    16  1.5000000000000D-01  5.1335093152496D-01 -7.3024629284760D-01
    17  1.6000000000000D-01  5.4507883389617D-01 -7.6856711368142D-01
    18  1.7000000000000D-01  5.7633564520956D-01 -8.0498196052303D-01
    19  1.8000000000000D-01  6.0709558795443D-01 -8.3940202534032D-01
    20  1.9000000000000D-01  6.3733352783798D-01 -8.7174367127364D-01
    21  2.0000000000000D-01  6.6702500491025D-01 -9.0192863985032D-01
    22  2.1000000000000D-01  6.9614626359090D-01 -9.2988424284219D-01
    23  2.2000000000000D-01  7.2467428155080D-01 -9.5554353825087D-01
    24  2.3000000000000D-01  7.5258679740409D-01 -9.7884548995583D-01
    25  2.4000000000000D-01  7.7986233716797D-01 -9.9973511061081D-01
    26  2.5000000000000D-01  8.0648023945041D-01 -1.0181635874272D+00
    27  2.6000000000000D-01  8.3242067932790D-01 -1.0340883905358D+00
    28  2.7000000000000D-01  8.5766469087817D-01 -1.0474733636722D+00
    29  2.8000000000000D-01  8.8219418833504D-01 -1.0582887969873D+00
    30  2.9000000000000D-01  9.0599198583547D-01 -1.0665114818379D+00
    31  3.0000000000000D-01  9.2904181573117D-01 -1.0721247474683D+00
    32  3.1000000000000D-01  9.5132834544002D-01 -1.0751184795506D+00
    33  3.2000000000000D-01  9.7283719281526D-01 -1.0754891206061D+00
    34  3.3000000000000D-01  9.9355494001310D-01 -1.0732396523835D+00
    35  3.4000000000000D-01  1.0134691458421D+00 -1.0683795603292D+00
    36  3.5000000000000D-01  1.0325683565808D+00 -1.0609247803327D+00
    37  3.6000000000000D-01  1.0508421152521D+00 -1.0508976279897D+00
    38  3.7000000000000D-01  1.0682809693475D+00 -1.0383267106721D+00
    39  3.8000000000000D-01  1.0848764769938D+00 -1.0232468227506D+00
    40  3.9000000000000D-01  1.1006212115626D+00 -1.0056988243597D+00
    41  4.0000000000000D-01  1.1155087647202D+00 -9.8572950414881D-01
    42  4.1000000000000D-01  1.1295337479231D+00 -9.6339142650431D-01
    43  4.2000000000000D-01  1.1426917923641D+00 -9.3874276377766D-01
    44  4.3000000000000D-01  1.1549795473779D+00 -9.1184711409271D-01
    45  4.4000000000000D-01  1.1663946773179D+00 -8.8277330534921D-01
    46  4.5000000000000D-01  1.1769358569180D+00 -8.5159518607673D-01
    47  4.6000000000000D-01  1.1866027651569D+00 -8.1839140383046D-01
    48  4.7000000000000D-01  1.1953960776437D+00 -7.8324517185287D-01
    49  4.8000000000000D-01  1.2033174575467D+00 -7.4624402475805D-01
    50  4.9000000000000D-01  1.2103695450913D+00 -7.0747956402299D-01
    51  5.0000000000000D-01  1.2165559456520D+00 -6.6704719409697D-01
    52  5.1000000000000D-01  1.2218812164695D+00 -6.2504584996291D-01
    53  5.2000000000000D-01  1.2263508520240D+00 -5.8157771700538D-01
    54  5.3000000000000D-01  1.2299712680980D+00 -5.3674794405695D-01
    55  5.4000000000000D-01  1.2327497845664D+00 -4.9066435051002D-01
    56  5.5000000000000D-01  1.2346946069496D+00 -4.4343712839173D-01
    57  5.6000000000000D-01  1.2358148067725D+00 -3.9517854030975D-01
    58  5.7000000000000D-01  1.2361203007688D+00 -3.4600261418077D-01
    59  5.8000000000000D-01  1.2356218289767D+00 -2.9602483565765D-01
    60  5.9000000000000D-01  1.2343309317705D+00 -2.4536183917019D-01
    61  6.0000000000000D-01  1.2322599258745D+00 -1.9413109849117D-01
    62  6.1000000000000D-01  1.2294218794097D+00 -1.4245061773389D-01
    63  6.2000000000000D-01  1.2258305860223D+00 -9.0438623677331D-02
    64  6.3000000000000D-01  1.2215005381450D+00 -3.8213260304443D-02
    65  6.4000000000000D-01  1.2164468994446D+00  1.4107713576727D-02
    66  6.5000000000000D-01  1.2106854765093D+00  6.6407222775848D-02
    67  6.6000000000000D-01  1.2042326898291D+00  1.1856916939412D-01
    68  6.7000000000000D-01  1.1971055441270D+00  1.7047872091870D-01
    69  6.8000000000000D-01  1.1893215980952D+00  2.2202259195221D-01
    70  6.9000000000000D-01  1.1808989335931D+00  2.7308931881895D-01
    71  7.0000000000000D-01  1.1718561243665D+00  3.2356952631909D-01
    72  7.1000000000000D-01  1.1622122043429D+00  3.7335618593376D-01
    73  7.2000000000000D-01  1.1519866355623D+00  4.2234486481737D-01
    74  7.3000000000000D-01  1.1411992758020D+00  4.7043396494922D-01
    75  7.4000000000000D-01  1.1298703459518D+00  5.1752495185330D-01
    76  7.5000000000000D-01  1.1180203971990D+00  5.6352257233434D-01
    77  7.6000000000000D-01  1.1056702780813D+00  6.0833506071811D-01
    78  7.7000000000000D-01  1.0928411014629D+00  6.5187433312557D-01
    79  7.8000000000000D-01  1.0795542114937D+00  6.9405616935299D-01
    80  7.9000000000000D-01  1.0658311506065D+00  7.3480038197405D-01
    81  8.0000000000000D-01  1.0516936266075D+00  7.7403097232411D-01
    82  8.1000000000000D-01  1.0371634799175D+00  8.1167627307207D-01
    83  8.2000000000000D-01  1.0222626510161D+00  8.4766907713062D-01
    84  8.3000000000000D-01  1.0070131481424D+00  8.8194675270239D-01
    85  8.4000000000000D-01  9.9143701530645D-01  9.1445134430468D-01
    86  8.5000000000000D-01  9.7555630065990D-01  9.4512965966205D-01
    87  8.6000000000000D-01  9.5939302527795D-01  9.7393334240261D-01
    88  8.7000000000000D-01  9.4296915240020D-01  1.0008189305386D+00
    89  8.8000000000000D-01  9.2630655717800D-01  1.0257479007579D+00
    90  8.9000000000000D-01  9.0942699697393D-01  1.0486866985978D+00
    91  9.0000000000000D-01  8.9235208225779D-01  1.0696067546156D+00
    92  9.1000000000000D-01  8.7510324814155D-01  1.0884844867144D+00
    93  9.2000000000000D-01  8.5770172659429D-01  1.1053012888255D+00
    94  9.3000000000000D-01  8.4016851937620D-01  1.1200435061852D+00
    95  9.4000000000000D-01  8.2252437172907D-01  1.1327023974914D+00
    96  9.5000000000000D-01  8.0478974685866D-01  1.1432740842539D+00
    97  9.6000000000000D-01  7.8698480124265D-01  1.1517594876970D+00
    98  9.7000000000000D-01  7.6912936079563D-01  1.1581642536039D+00
    99  9.8000000000000D-01  7.5124289792087D-01  1.1624986655258D+00
   100  9.9000000000000D-01  7.3334450947639D-01  1.1647775468101D+00
   101  1.0000000000000D+00  7.1545289568085D-01  1.1650201519342D+00
   102  1.0100000000000D+00  6.9758633998276D-01  1.1632500476523D+00
   103  1.0200000000000D+00  6.7976268991422D-01  1.1594949844964D+00
   104  1.0300000000000D+00  6.6199933894854D-01  1.1537867591871D+00
   105  1.0400000000000D+00  6.4431320937868D-01  1.1461610685362D+00
   106  1.0500000000000D+00  6.2672073623165D-01  1.1366573554409D+00
   107  1.0600000000000D+00  6.0923785223136D-01  1.1253186475818D+00
   108  1.0700000000000D+00  5.9187997382097D-01  1.1121913894563D+00
   109  1.0800000000000D+00  5.7466198825300D-01  1.0973252683846D+00
   110  1.0900000000000D+00  5.5759824175379D-01  1.0807730351389D+00
   111  1.1000000000000D+00  5.4070252876669D-01  1.0625903198501D+00
   112  1.1100000000000D+00  5.2398808227622D-01  1.0428354438522D+00
   113  1.1200000000000D+00  5.0746756521335D-01  1.0215692281234D+00
   114  1.1300000000000D+00  4.9115306294043D-01  9.9885479898655D-01
   115  1.1400000000000D+00  4.7505607681188D-01  9.7475739172371D-01
   116  1.1500000000000D+00  4.5918751880501D-01  9.4934415275752D-01
   117  1.1600000000000D+00  4.4355770721330D-01  9.2268394104120D-01
   118  1.1700000000000D+00  4.2817636339319D-01  8.9484712929296D-01
   119  1.1800000000000D+00  4.1305260955287D-01  8.6590540569452D-01
   120  1.1900000000000D+00  3.9819496757029D-01  8.3593157666029D-01
   121  1.2000000000000D+00  3.8361135882577D-01  8.0499937126638D-01
   122  1.2100000000000D+00  3.6930910503335D-01  7.7318324791533D-01
   123  1.2200000000000D+00  3.5529493005291D-01  7.4055820378433D-01
   124  1.2300000000000D+00  3.4157496266364D-01  7.0719958758258D-01
   125  1.2400000000000D+00  3.2815474027898D-01  6.7318291613325D-01
   126  1.2500000000000D+00  3.1503921358052D-01  6.3858369525235D-01
   127  1.2600000000000D+00  3.0223275204752D-01  6.0347724537325D-01
   128  1.2700000000000D+00  2.8973915035836D-01  5.6793853235290D-01
   129  1.2800000000000D+00  2.7756163563780D-01  5.3204200384847D-01
   130  1.2900000000000D+00  2.6570287552351D-01  4.9586143161907D-01
   131  1.3000000000000D+00  2.5416498702482D-01  4.5946976010238D-01
   132  1.3100000000000D+00  2.4294954614488D-01  4.2293896155705D-01
   133  1.3200000000000D+00  2.3205759823697D-01  3.8633989802151D-01
   134  1.3300000000000D+00  2.2148966906560D-01  3.4974219035300D-01
   135  1.3400000000000D+00  2.1124577654121D-01  3.1321409451870D-01
   136  1.3500000000000D+00  2.0132544309763D-01  2.7682238529448D-01
   137  1.3600000000000D+00  1.9172770868093D-01  2.4063224753612D-01
   138  1.3700000000000D+00  1.8245114431719D-01  2.0470717506631D-01
   139  1.3800000000000D+00  1.7349386622726D-01  1.6910887726086D-01
   140  1.3900000000000D+00  1.6485355045591D-01  1.3389719336391D-01
   141  1.4000000000000D+00  1.5652744798243D-01  9.9130014470357D-02
   142  1.4100000000000D+00  1.4851240028019D-01  6.4863213193945D-02
   143  1.4200000000000D+00  1.4080485529207D-01  3.1150580879776D-02
   144  1.4300000000000D+00  1.3340088378927D-01 -1.9562277342430D-03
   145  1.4400000000000D+00  1.2629619608050D-01 -3.4407742528898D-02
   146  1.4500000000000D+00  1.1948615903976D-01 -6.6156718938457D-02
   147  1.4600000000000D+00  1.1296581341961D-01 -9.7158171927197D-02
   148  1.4700000000000D+00  1.0672989141909D-01 -1.2736940333598D-01
   149  1.4800000000000D+00  1.0077283447420D-01 -1.5675002281157D-01
   150  1.4900000000000D+00  9.5088811239916D-02 -1.8526196262770D-01
   151  1.5000000000000D+00  8.9671735734188D-02 -2.1286948675009D-01
   152  1.5100000000000D+00  8.4515285612032D-02 -2.3953919442280D-01
   153  1.5200000000000D+00  7.9612920543320D-02 -2.6524001873741D-01
   154  1.5300000000000D+00  7.4957900662111D-02 -2.8994322047066D-01
   155  1.5400000000000D+00  7.0543305063014D-02 -3.1362237769256D-01
   156  1.5500000000000D+00  6.6362050314597D-02 -3.3625337149640D-01
   157  1.5600000000000D+00  6.2406908965119D-02 -3.5781436833859D-01
   158  1.5700000000000D+00  5.8670528014538D-02 -3.7828579941629D-01
   159  1.5800000000000D+00  5.5145447327071D-02 -3.9765033755508D-01
   160  1.5900000000000D+00  5.1824117962866D-02 -4.1589287208545D-01
   161  1.6000000000000D+00  4.8698920401800D-02 -4.3300048217910D-01
   162  1.6100000000000D+00  4.5762182642938D-02 -4.4896240914196D-01
   163  1.6200000000000D+00  4.3006198151326D-02 -4.6377002815116D-01
   164  1.6300000000000D+00  4.0423243640761D-02 -4.7741681991736D-01
   165  1.6400000000000D+00  3.8005596663026D-02 -4.8989834279218D-01
   166  1.6500000000000D+00  3.5745552997023D-02 -5.0121220575594D-01
   167  1.6600000000000D+00  3.3635443807912D-02 -5.1135804284797D-01
   168  1.6700000000000D+00  3.1667652573291D-02 -5.2033748940961D-01
   169  1.6800000000000D+00  2.9834631747579D-02 -5.2815416074050D-01
   170  1.6900000000000D+00  2.8128919164116D-02 -5.3481363346343D-01
   171  1.7000000000000D+00  2.6543154147604D-02 -5.4032343023463D-01
   172  1.7100000000000D+00  2.5070093339077D-02 -5.4469300800133D-01
   173  1.7200000000000D+00  2.3702626206927D-02 -5.4793375048874D-01
   174  1.7300000000000D+00  2.2433790249400D-02 -5.5005896499667D-01
   175  1.7400000000000D+00  2.1256785862347D-02 -5.5108388425183D-01
   176  1.7500000000000D+00  2.0164990881281D-02 -5.5102567324164D-01
   177  1.7600000000000D+00  1.9151974771741D-02 -5.4990344184896D-01
   178  1.7700000000000D+00  1.8211512479480D-02 -5.4773826306784D-01
   179  1.7800000000000D+00  1.7337597916844D-02 -5.4455319763483D-01
   180  1.7900000000000D+00  1.6524457096558D-02 -5.4037332478051D-01
   181  1.8000000000000D+00  1.5766560893863D-02 -5.3522577986826D-01
   182  1.8100000000000D+00  1.5058637446015D-02 -5.2913979862297D-01
   183  1.8200000000000D+00  1.4395684176083D-02 -5.2214676856020D-01
   184  1.8300000000000D+00  1.3772979446326D-02 -5.1428028740989D-01
   185  1.8400000000000D+00  1.3186093835253D-02 -5.0557622887740D-01
   186  1.8500000000000D+00  1.2630901038640D-02 -4.9607281574278D-01
   187  1.8600000000000D+00  1.2103588396604D-02 -4.8581070024739D-01
   188  1.8700000000000D+00  1.1600667041207D-02 -4.7483305209840D-01
   189  1.8800000000000D+00  1.1118981674754D-02 -4.6318565353168D-01
   190  1.8900000000000D+00  1.0655720938693D-02 -4.5091702098568D-01
   191  1.9000000000000D+00  1.0208422123375D-02 -4.3807843086525D-01
   192  1.9100000000000D+00  9.7749919010332D-03 -4.2472427185281D-01
   193  1.9200000000000D+00  9.3536900899294D-03 -4.1091168955563D-01
   194  1.9300000000000D+00  8.9431487074469D-03 -3.9670093755741D-01
   195  1.9400000000000D+00  8.5424207365198D-03 -3.8215631325948D-01
   196  1.9500000000000D+00  8.1509724267884D-03 -3.6734600947938D-01
   197  1.9600000000000D+00  7.7685494049411D-03 -3.5233953605184D-01
   198  1.9700000000000D+00  7.3950964320142D-03 -3.3720620602833D-01
   199  1.9800000000000D+00  7.0306862374699D-03 -3.2201373496259D-01
   200  1.9900000000000D+00  6.6753657808920D-03 -3.0682527311860D-01
   201  2.0000000000000D+00  6.3291692598008D-03 -2.9169967440148D-01
   202  2.0100000000000D+00  5.9921465103248D-03 -2.7669206587324D-01
   203  2.0200000000000D+00  5.6643743744732D-03 -2.6185409897675D-01
   204  2.0300000000000D+00  5.3459268172345D-03 -2.4723342929387D-01
   205  2.0400000000000D+00  5.0368867327764D-03 -2.3287400438476D-01
   206  2.0500000000000D+00  4.7373384207157D-03 -2.1881599235566D-01
   207  2.0600000000000D+00  4.4473660776969D-03 -2.0509583653402D-01
   208  2.0700000000000D+00  4.1670513650387D-03 -1.9174630226109D-01
   209  2.0800000000000D+00  3.8964710201596D-03 -1.7879653369574D-01
   210  2.0900000000000D+00  3.6356944837977D-03 -1.6627211930611D-01
   211  2.1000000000000D+00  3.3847817756955D-03 -1.5419516996498D-01
   212  2.1100000000000D+00  3.1437814035012D-03 -1.4258440469093D-01
   213  2.1200000000000D+00  2.9127285081770D-03 -1.3145524728588D-01
   214  2.1300000000000D+00  2.6916432029192D-03 -1.2081993233055D-01
   215  2.1400000000000D+00  2.4805290249165D-03 -1.1068761833714D-01
   216  2.1500000000000D+00  2.2793717138746D-03 -1.0106451129384D-01
   217  2.1600000000000D+00  2.0881380938110D-03 -9.1953993885124D-02
   218  2.1700000000000D+00  1.9067752088708D-03 -8.3356762332548D-02
   219  2.1800000000000D+00  1.7352096879686D-03 -7.5270969697350D-02
   220  2.1900000000000D+00  1.5733472343531D-03 -6.7692373410636D-02
   221  2.2000000000000D+00  1.4210723961506D-03 -6.0614488478120D-02
   222  2.2100000000000D+00  1.2782484638814D-03 -5.4028743682143D-02
   223  2.2200000000000D+00  1.1447175473987D-03 -4.7924640671403D-02
   224  2.2300000000000D+00  1.0203008349958D-03 -4.2289915019015D-02
   225  2.2400000000000D+00  9.0479897169742D-04 -3.7110698538523D-02
   226  2.2500000000000D+00  7.9799258299692D-04 -3.2371681369336D-02
   227  2.2600000000000D+00  6.9964291163582D-04 -2.8056273435577D-02
   228  2.2700000000000D+00  6.0949256000720D-04 -2.4146765166540D-02
   229  2.2800000000000D+00  5.2726630794708D-04 -2.0624484417262D-02
   230  2.2900000000000D+00  4.5267201631852D-04 -1.7469951523105D-02
   231  2.3000000000000D+00  3.8540158747541D-04 -1.4663030307068D-02
   232  2.3100000000000D+00  3.2513195181374D-04 -1.2183073323970D-02
   233  2.3200000000000D+00  2.7152611936850D-04 -1.0009063764806D-02
   234  2.3300000000000D+00  2.2423422573940D-04 -8.1197500137923D-03
   235  2.3400000000000D+00  1.8289458230335D-04 -6.4937734668120D-03
   236  2.3500000000000D+00  1.4713476630549D-04 -5.1097915890300D-03
   237  2.3600000000000D+00  1.1657264839210D-04 -3.9465906219125D-03
   238  2.3700000000000D+00  9.0817423314661D-05 -2.9831915561354D-03
   239  2.3800000000000D+00  6.9470642410068D-05 -2.1989494095788D-03
   240  2.3900000000000D+00  5.2129750035710D-05 -1.5736388041454D-03
   241  2.4000000000000D+00  3.8385839847184D-05 -1.0875368766268D-03
   242  2.4100000000000D+00  2.7808643943828D-05 -7.2150619260861D-04
   243  2.4200000000000D+00  1.9938629905638D-05 -4.5674795466520D-04
   244  2.4300000000000D+00  1.4378577014679D-05 -2.7554184149325D-04
   245  2.4400000000000D+00  1.0848708926875D-05 -1.6170535012130D-04
   246  2.4500000000000D+00  9.0994324010141D-06 -1.0053395008663D-04
   247  2.4600000000000D+00  8.4305583885898D-06 -7.4236771271730D-05
   248  2.4700000000000D+00  7.7609677645107D-06 -6.2921607201492D-05
   249  2.4800000000000D+00  6.0587807781886D-06 -4.8880413467986D-05
   250  2.4900000000000D+00  3.4393598631079D-06 -2.8126481734189D-05
   251  2.5000000000000D+00  8.6481219145937D-07 -7.2271315613876D-06
   252  2.5100000000000D+00 -5.4916233849221D-07  4.2905776062737D-06
   253  2.5200000000000D+00 -7.1485495588798D-07  5.6005054593765D-06
   254  2.5300000000000D+00 -2.5500692326108D-07  2.0052806995509D-06
   255  2.5400000000000D+00  1.0939488725215D-07 -8.0292520700574D-07
   256  2.5500000000000D+00  1.6391976110138D-07 -1.1970237003422D-06
   257  2.5600000000000D+00  6.8464207655645D-08 -4.9783001350795D-07
   258  2.5700000000000D+00 -1.2100549298444D-08  9.7867923231980D-08
   259  2.5800000000000D+00 -2.0520237153291D-08  1.6596544048448D-07
   260  2.5900000000000D+00 -1.0109180613149D-08  8.1761950452378D-08
   261  2.6000000000000D+00  0.0000000000000D+00  0.0000000000000D+00
   262  2.6100000000000D+00  0.0000000000000D+00  0.0000000000000D+00
   263  2.6200000000000D+00  0.0000000000000D+00  0.0000000000000D+00
   264  2.6300000000000D+00  0.0000000000000D+00  0.0000000000000D+00
   265  2.6400000000000D+00  0.0000000000000D+00  0.0000000000000D+00
   266  2.6500000000000D+00  0.0000000000000D+00  0.0000000000000D+00
   267  2.6600000000000D+00  0.0000000000000D+00  0.0000000000000D+00
   268  2.6700000000000D+00  0.0000000000000D+00  0.0000000000000D+00
   269  2.6800000000000D+00  0.0000000000000D+00  0.0000000000000D+00
   270  2.6900000000000D+00  0.0000000000000D+00  0.0000000000000D+00
   271  2.7000000000000D+00  0.0000000000000D+00  0.0000000000000D+00
   272  2.7100000000000D+00  0.0000000000000D+00  0.0000000000000D+00
   273  2.7200000000000D+00  0.0000000000000D+00  0.0000000000000D+00
   274  2.7300000000000D+00  0.0000000000000D+00  0.0000000000000D+00
   275  2.7400000000000D+00  0.0000000000000D+00  0.0000000000000D+00
   276  2.7500000000000D+00  0.0000000000000D+00  0.0000000000000D+00
   277  2.7600000000000D+00  0.0000000000000D+00  0.0000000000000D+00
   278  2.7700000000000D+00  0.0000000000000D+00  0.0000000000000D+00
   279  2.7800000000000D+00  0.0000000000000D+00  0.0000000000000D+00
   280  2.7900000000000D+00  0.0000000000000D+00  0.0000000000000D+00
   281  2.8000000000000D+00  0.0000000000000D+00  0.0000000000000D+00
   282  2.8100000000000D+00  0.0000000000000D+00  0.0000000000000D+00
   283  2.8200000000000D+00  0.0000000000000D+00  0.0000000000000D+00
   284  2.8300000000000D+00  0.0000000000000D+00  0.0000000000000D+00
   285  2.8400000000000D+00  0.0000000000000D+00  0.0000000000000D+00
   286  2.8500000000000D+00  0.0000000000000D+00  0.0000000000000D+00
   287  2.8600000000000D+00  0.0000000000000D+00  0.0000000000000D+00
   288  2.8700000000000D+00  0.0000000000000D+00  0.0000000000000D+00
   289  2.8800000000000D+00  0.0000000000000D+00  0.0000000000000D+00
   290  2.8900000000000D+00  0.0000000000000D+00  0.0000000000000D+00
   291  2.9000000000000D+00  0.0000000000000D+00  0.0000000000000D+00
   292  2.9100000000000D+00  0.0000000000000D+00  0.0000000000000D+00
   293  2.9200000000000D+00  0.0000000000000D+00  0.0000000000000D+00
   294  2.9300000000000D+00  0.0000000000000D+00  0.0000000000000D+00
   295  2.9400000000000D+00  0.0000000000000D+00  0.0000000000000D+00
   296  2.9500000000000D+00  0.0000000000000D+00  0.0000000000000D+00
   297  2.9600000000000D+00  0.0000000000000D+00  0.0000000000000D+00
   298  2.9700000000000D+00  0.0000000000000D+00  0.0000000000000D+00
   299  2.9800000000000D+00  0.0000000000000D+00  0.0000000000000D+00
   300  2.9900000000000D+00  0.0000000000000D+00  0.0000000000000D+00
   301  3.0000000000000D+00  0.0000000000000D+00  0.0000000000000D+00
   302  3.0100000000000D+00  0.0000000000000D+00  0.0000000000000D+00
   303  3.0200000000000D+00  0.0000000000000D+00  0.0000000000000D+00
   304  3.0300000000000D+00  0.0000000000000D+00  0.0000000000000D+00
   305  3.0400000000000D+00  0.0000000000000D+00  0.0000000000000D+00
   306  3.0500000000000D+00  0.0000000000000D+00  0.0000000000000D+00
   307  3.0600000000000D+00  0.0000000000000D+00  0.0000000000000D+00
   308  3.0700000000000D+00  0.0000000000000D+00  0.0000000000000D+00
   309  3.0800000000000D+00  0.0000000000000D+00  0.0000000000000D+00
   310  3.0900000000000D+00  0.0000000000000D+00  0.0000000000000D+00
   311  3.1000000000000D+00  0.0000000000000D+00  0.0000000000000D+00
   312  3.1100000000000D+00  0.0000000000000D+00  0.0000000000000D+00
   313  3.1200000000000D+00  0.0000000000000D+00  0.0000000000000D+00
   314  3.1300000000000D+00  0.0000000000000D+00  0.0000000000000D+00
   315  3.1400000000000D+00  0.0000000000000D+00  0.0000000000000D+00
   316  3.1500000000000D+00  0.0000000000000D+00  0.0000000000000D+00
   317  3.1600000000000D+00  0.0000000000000D+00  0.0000000000000D+00
   318  3.1700000000000D+00  0.0000000000000D+00  0.0000000000000D+00
   319  3.1800000000000D+00  0.0000000000000D+00  0.0000000000000D+00
   320  3.1900000000000D+00  0.0000000000000D+00  0.0000000000000D+00
   321  3.2000000000000D+00  0.0000000000000D+00  0.0000000000000D+00
   322  3.2100000000000D+00  0.0000000000000D+00  0.0000000000000D+00
   323  3.2200000000000D+00  0.0000000000000D+00  0.0000000000000D+00
   324  3.2300000000000D+00  0.0000000000000D+00  0.0000000000000D+00
   325  3.2400000000000D+00  0.0000000000000D+00  0.0000000000000D+00
   326  3.2500000000000D+00  0.0000000000000D+00  0.0000000000000D+00
   327  3.2600000000000D+00  0.0000000000000D+00  0.0000000000000D+00
   328  3.2700000000000D+00  0.0000000000000D+00  0.0000000000000D+00
   329  3.2800000000000D+00  0.0000000000000D+00  0.0000000000000D+00
   330  3.2900000000000D+00  0.0000000000000D+00  0.0000000000000D+00
   331  3.3000000000000D+00  0.0000000000000D+00  0.0000000000000D+00
   332  3.3100000000000D+00  0.0000000000000D+00  0.0000000000000D+00
   333  3.3200000000000D+00  0.0000000000000D+00  0.0000000000000D+00
   334  3.3300000000000D+00  0.0000000000000D+00  0.0000000000000D+00
   335  3.3400000000000D+00  0.0000000000000D+00  0.0000000000000D+00
   336  3.3500000000000D+00  0.0000000000000D+00  0.0000000000000D+00
   337  3.3600000000000D+00  0.0000000000000D+00  0.0000000000000D+00
   338  3.3700000000000D+00  0.0000000000000D+00  0.0000000000000D+00
   339  3.3800000000000D+00  0.0000000000000D+00  0.0000000000000D+00
   340  3.3900000000000D+00  0.0000000000000D+00  0.0000000000000D+00
   341  3.4000000000000D+00  0.0000000000000D+00  0.0000000000000D+00
   342  3.4100000000000D+00  0.0000000000000D+00  0.0000000000000D+00
   343  3.4200000000000D+00  0.0000000000000D+00  0.0000000000000D+00
   344  3.4300000000000D+00  0.0000000000000D+00  0.0000000000000D+00
   345  3.4400000000000D+00  0.0000000000000D+00  0.0000000000000D+00
   346  3.4500000000000D+00  0.0000000000000D+00  0.0000000000000D+00
   347  3.4600000000000D+00  0.0000000000000D+00  0.0000000000000D+00
   348  3.4700000000000D+00  0.0000000000000D+00  0.0000000000000D+00
   349  3.4800000000000D+00  0.0000000000000D+00  0.0000000000000D+00
   350  3.4900000000000D+00  0.0000000000000D+00  0.0000000000000D+00
   351  3.5000000000000D+00  0.0000000000000D+00  0.0000000000000D+00
   352  3.5100000000000D+00  0.0000000000000D+00  0.0000000000000D+00
   353  3.5200000000000D+00  0.0000000000000D+00  0.0000000000000D+00
   354  3.5300000000000D+00  0.0000000000000D+00  0.0000000000000D+00
   355  3.5400000000000D+00  0.0000000000000D+00  0.0000000000000D+00
   356  3.5500000000000D+00  0.0000000000000D+00  0.0000000000000D+00
   357  3.5600000000000D+00  0.0000000000000D+00  0.0000000000000D+00
   358  3.5700000000000D+00  0.0000000000000D+00  0.0000000000000D+00
   359  3.5800000000000D+00  0.0000000000000D+00  0.0000000000000D+00
   360  3.5900000000000D+00  0.0000000000000D+00  0.0000000000000D+00
   361  3.6000000000000D+00  0.0000000000000D+00  0.0000000000000D+00
   362  3.6100000000000D+00  0.0000000000000D+00  0.0000000000000D+00
   363  3.6200000000000D+00  0.0000000000000D+00  0.0000000000000D+00
   364  3.6300000000000D+00  0.0000000000000D+00  0.0000000000000D+00
   365  3.6400000000000D+00  0.0000000000000D+00  0.0000000000000D+00
   366  3.6500000000000D+00  0.0000000000000D+00  0.0000000000000D+00
   367  3.6600000000000D+00  0.0000000000000D+00  0.0000000000000D+00
   368  3.6700000000000D+00  0.0000000000000D+00  0.0000000000000D+00
   369  3.6800000000000D+00  0.0000000000000D+00  0.0000000000000D+00
   370  3.6900000000000D+00  0.0000000000000D+00  0.0000000000000D+00
   371  3.7000000000000D+00  0.0000000000000D+00  0.0000000000000D+00
   372  3.7100000000000D+00  0.0000000000000D+00  0.0000000000000D+00
   373  3.7200000000000D+00  0.0000000000000D+00  0.0000000000000D+00
   374  3.7300000000000D+00  0.0000000000000D+00  0.0000000000000D+00
   375  3.7400000000000D+00  0.0000000000000D+00  0.0000000000000D+00
   376  3.7500000000000D+00  0.0000000000000D+00  0.0000000000000D+00
   377  3.7600000000000D+00  0.0000000000000D+00  0.0000000000000D+00
   378  3.7700000000000D+00  0.0000000000000D+00  0.0000000000000D+00
   379  3.7800000000000D+00  0.0000000000000D+00  0.0000000000000D+00
   380  3.7900000000000D+00  0.0000000000000D+00  0.0000000000000D+00
   381  3.8000000000000D+00  0.0000000000000D+00  0.0000000000000D+00
   382  3.8100000000000D+00  0.0000000000000D+00  0.0000000000000D+00
   383  3.8200000000000D+00  0.0000000000000D+00  0.0000000000000D+00
   384  3.8300000000000D+00  0.0000000000000D+00  0.0000000000000D+00
   385  3.8400000000000D+00  0.0000000000000D+00  0.0000000000000D+00
   386  3.8500000000000D+00  0.0000000000000D+00  0.0000000000000D+00
   387  3.8600000000000D+00  0.0000000000000D+00  0.0000000000000D+00
   388  3.8700000000000D+00  0.0000000000000D+00  0.0000000000000D+00
   389  3.8800000000000D+00  0.0000000000000D+00  0.0000000000000D+00
   390  3.8900000000000D+00  0.0000000000000D+00  0.0000000000000D+00
   391  3.9000000000000D+00  0.0000000000000D+00  0.0000000000000D+00
   392  3.9100000000000D+00  0.0000000000000D+00  0.0000000000000D+00
   393  3.9200000000000D+00  0.0000000000000D+00  0.0000000000000D+00
   394  3.9300000000000D+00  0.0000000000000D+00  0.0000000000000D+00
   395  3.9400000000000D+00  0.0000000000000D+00  0.0000000000000D+00
   396  3.9500000000000D+00  0.0000000000000D+00  0.0000000000000D+00
   397  3.9600000000000D+00  0.0000000000000D+00  0.0000000000000D+00
   398  3.9700000000000D+00  0.0000000000000D+00  0.0000000000000D+00
   399  3.9800000000000D+00  0.0000000000000D+00  0.0000000000000D+00
   400  3.9900000000000D+00  0.0000000000000D+00  0.0000000000000D+00
   401  4.0000000000000D+00  0.0000000000000D+00  0.0000000000000D+00
   402  4.0100000000000D+00  0.0000000000000D+00  0.0000000000000D+00
   403  4.0200000000000D+00  0.0000000000000D+00  0.0000000000000D+00
   404  4.0300000000000D+00  0.0000000000000D+00  0.0000000000000D+00
   405  4.0400000000000D+00  0.0000000000000D+00  0.0000000000000D+00
   406  4.0500000000000D+00  0.0000000000000D+00  0.0000000000000D+00
   407  4.0600000000000D+00  0.0000000000000D+00  0.0000000000000D+00
   408  4.0700000000000D+00  0.0000000000000D+00  0.0000000000000D+00
   409  4.0800000000000D+00  0.0000000000000D+00  0.0000000000000D+00
   410  4.0900000000000D+00  0.0000000000000D+00  0.0000000000000D+00
   411  4.1000000000000D+00  0.0000000000000D+00  0.0000000000000D+00
   412  4.1100000000000D+00  0.0000000000000D+00  0.0000000000000D+00
   413  4.1200000000000D+00  0.0000000000000D+00  0.0000000000000D+00
   414  4.1300000000000D+00  0.0000000000000D+00  0.0000000000000D+00
   415  4.1400000000000D+00  0.0000000000000D+00  0.0000000000000D+00
   416  4.1500000000000D+00  0.0000000000000D+00  0.0000000000000D+00
   417  4.1600000000000D+00  0.0000000000000D+00  0.0000000000000D+00
   418  4.1700000000000D+00  0.0000000000000D+00  0.0000000000000D+00
   419  4.1800000000000D+00  0.0000000000000D+00  0.0000000000000D+00
   420  4.1900000000000D+00  0.0000000000000D+00  0.0000000000000D+00
   421  4.2000000000000D+00  0.0000000000000D+00  0.0000000000000D+00
   422  4.2100000000000D+00  0.0000000000000D+00  0.0000000000000D+00