Mn    ONCVPSP-3.3.1  r_core=   2.47442   2.47442   2.11898
     25.0000     15.0000      210905    zatom,zion,pspd
     8 -116133   2     4   600     0    pspcod,pspxc,lmax,lloc,mmax,r2well
  5.99000000  0.00000000  0.00000000    rchrg fchrg qchrg
     2     2     2     0     0    nproj
     1     1           extension_switch
   0                        -1.9866009770663D+00 -6.5678101987341D-01
     1  0.0000000000000D+00 -4.8888670889369D-13  1.2896128609441D-11
     2  1.0000000000000D-02  3.5223329073841D-02 -5.3650408041227D-02
     3  2.0000000000000D-02  7.0415869947667D-02 -1.0716703982217D-01
     4  3.0000000000000D-02  1.0554687448456D-01 -1.6041647098861D-01
     5  4.0000000000000D-02  1.4058567460866D-01 -2.1326597997561D-01
     6  5.0000000000000D-02  1.7550172217313D-01 -2.6558389684853D-01
     7  6.0000000000000D-02  2.1026462863312D-01 -3.1723994908869D-01
     8  7.0000000000000D-02  2.4484420445974D-01 -3.6810560332059D-01
     9  8.0000000000000D-02  2.7921049823072D-01 -4.1805440199032D-01
    10  9.0000000000000D-02  3.1333383533488D-01 -4.6696229402106D-01
    11  1.0000000000000D-01  3.4718485622751D-01 -5.1470795849077D-01
    12  1.1000000000000D-01  3.8073455417515D-01 -5.6117312039930D-01
    13  1.2000000000000D-01  4.1395431242889D-01 -6.0624285761757D-01
    14  1.3000000000000D-01  4.4681594076659D-01 -6.4980589813932D-01
    15  1.4000000000000D-01  4.7929171134535D-01 -6.9175490678695D-01
    16  1.5000000000000D-01  5.1135439380707D-01 -7.3198676055642D-01
    17  1.6000000000000D-01  5.4297728958136D-01 -7.7040281182225D-01
    18  1.7000000000000D-01  5.7413426533119D-01 -8.0690913866214D-01
    19  1.8000000000000D-01  6.0479978548875D-01 -8.4141678160159D-01
    20  1.9000000000000D-01  6.3494894383039D-01 -8.7384196612181D-01
    21  2.0000000000000D-01  6.6455749404130D-01 -9.0410631031905D-01
    22  2.1000000000000D-01  6.9360187922253D-01 -9.3213701715057D-01
    23  2.2000000000000D-01  7.2205926029503D-01 -9.5786705075061D-01
    24  2.3000000000000D-01  7.4990754325709D-01 -9.8123529635007D-01
    25  2.4000000000000D-01  7.7712540525408D-01 -1.0021867033848D+00
    26  2.5000000000000D-01  8.0369231942125D-01 -1.0206724114301D+00
    27  2.6000000000000D-01  8.2958857846288D-01 -1.0366498586525D+00
    28  2.7000000000000D-01  8.5479531693310D-01 -1.0500828725240D+00
    29  2.8000000000000D-01  8.7929453218643D-01 -1.0609417426002D+00
    30  2.9000000000000D-01  9.0306910396821D-01 -1.0692032752175D+00
    31  3.0000000000000D-01  9.2610281261780D-01 -1.0748508300213D+00
    32  3.1000000000000D-01  9.4838035585974D-01 -1.0778743382935D+00
    33  3.2000000000000D-01  9.6988736416101D-01 -1.0782703031014D+00
    34  3.3000000000000D-01  9.9061041463465D-01 -1.0760417813487D+00
    35  3.4000000000000D-01  1.0105370434729D+00 -1.0711983478605D+00
    36  3.5000000000000D-01  1.0296557568961D+00 -1.0637560416915D+00
    37  3.6000000000000D-01  1.0479560406046D+00 -1.0537372948984D+00
    38  3.7000000000000D-01  1.0654283677271D+00 -1.0411708440719D+00
    39  3.8000000000000D-01  1.0820642052561D+00 -1.0260916249713D+00
    40  3.9000000000000D-01  1.0978560189703D+00 -1.0085406506593D+00
    41  4.0000000000000D-01  1.1127972768411D+00 -9.8856487357903D-01
    42  4.1000000000000D-01  1.1268824509254D+00 -9.6621703206547D-01
    43  4.2000000000000D-01  1.1401070177502D+00 -9.4155548182474D-01
    44  4.3000000000000D-01  1.1524674571954D+00 -9.1464401296133D-01
    45  4.4000000000000D-01  1.1639612498851D+00 -8.8555165317200D-01
    46  4.5000000000000D-01  1.1745868730998D+00 -8.5435245776452D-01
    47  4.6000000000000D-01  1.1843437952245D+00 -8.2112528719555D-01
    48  4.7000000000000D-01  1.1932324687506D+00 -7.8595357285636D-01
    49  4.8000000000000D-01  1.2012543218510D+00 -7.4892507186608D-01
    50  4.9000000000000D-01  1.2084117485520D+00 -7.1013161166094D-01
    51  5.0000000000000D-01  1.2147080975252D+00 -6.6966882519403D-01
    52  5.1000000000000D-01  1.2201476595289D+00 -6.2763587758391D-01
    53  5.2000000000000D-01  1.2247356535260D+00 -5.8413518506962D-01
    54  5.3000000000000D-01  1.2284782115122D+00 -5.3927212714871D-01
    55  5.4000000000000D-01  1.2313823620862D+00 -4.9315475278782D-01
    56  5.5000000000000D-01  1.2334560128001D+00 -4.4589348160850D-01
    57  5.6000000000000D-01  1.2347079313253D+00 -3.9760080095855D-01
    58  5.7000000000000D-01  1.2351477254753D+00 -3.4839095978489D-01
    59  5.8000000000000D-01  1.2347858221262D+00 -2.9837966022731D-01
    60  5.9000000000000D-01  1.2336334450780D+00 -2.4768374785095D-01
    61  6.0000000000000D-01  1.2317025919014D+00 -1.9642090143304D-01
    62  6.1000000000000D-01  1.2290060098169D+00 -1.4470932321261D-01
    63  6.2000000000000D-01  1.2255571706535D+00 -9.2667430502598D-02
    64  6.3000000000000D-01  1.2213702449353D+00 -4.0413549552320D-02
    65  6.4000000000000D-01  1.2164600751480D+00  1.1934387467131D-02
    66  6.5000000000000D-01  1.2108421482350D+00  6.4259141499132D-02
    67  6.6000000000000D-01  1.2045325673759D+00  1.1644446082441D-01
    68  6.7000000000000D-01  1.1975480231017D+00  1.6837536965771D-01
    69  6.8000000000000D-01  1.1899057637984D+00  2.1993845033160D-01
    70  6.9000000000000D-01  1.1816235656565D+00  2.7102211830695D-01
    71  7.0000000000000D-01  1.1727197021194D+00  3.2151688928026D-01
    72  7.1000000000000D-01  1.1632129128879D+00  3.7131563768974D-01
    73  7.2000000000000D-01  1.1531223725362D+00  4.2031384595551D-01
    74  7.3000000000000D-01  1.1424676587955D+00  4.6840984382526D-01
    75  7.4000000000000D-01  1.1312687205626D+00  5.1550503723414D-01
    76  7.5000000000000D-01  1.1195458456892D+00  5.6150412612671D-01
    77  7.6000000000000D-01  1.1073196286081D+00  6.0631531072892D-01
    78  7.7000000000000D-01  1.0946109378532D+00  6.4985048580022D-01
    79  7.8000000000000D-01  1.0814408835289D+00  6.9202542243851D-01
    80  7.9000000000000D-01  1.0678307847834D+00  7.3275993705460D-01
    81  8.0000000000000D-01  1.0538021373429D+00  7.7197804717754D-01
    82  8.1000000000000D-01  1.0393765811581D+00  8.0960811379749D-01
    83  8.2000000000000D-01  1.0245758682197D+00  8.4558296999844D-01
    84  8.3000000000000D-01  1.0094218305930D+00  8.7984003567975D-01
    85  8.4000000000000D-01  9.9393634872483D-01  9.1232141821141D-01
    86  8.5000000000000D-01  9.7814132007352D-01  9.4297399891421D-01
    87  8.6000000000000D-01  9.6205862811080D-01  9.7174950530267D-01
    88  8.7000000000000D-01  9.4571011174516D-01  9.9860456907434D-01
    89  8.8000000000000D-01  9.2911753521312D-01  1.0235007698741D+00
    90  8.9000000000000D-01  9.1230255848465D-01  1.0464046649075D+00
    91  9.0000000000000D-01  8.9528670822707D-01  1.0672878045216D+00
    92  9.1000000000000D-01  8.7809134937034D-01  1.0861267339130D+00
    93  9.2000000000000D-01  8.6073765731512D-01  1.1029029811683D+00
    94  9.3000000000000D-01  8.4324659082331D-01  1.1176030318793D+00
    95  9.4000000000000D-01  8.2563886562899D-01  1.1302182906181D+00
    96  9.5000000000000D-01  8.0793492880619D-01  1.1407450295937D+00
    97  9.6000000000000D-01  7.9015493392762D-01  1.1491843248488D+00
    98  9.7000000000000D-01  7.7231871704731D-01  1.1555419803899D+00
    99  9.8000000000000D-01  7.5444577353742D-01  1.1598284406786D+00
   100  9.9000000000000D-01  7.3655523580832D-01  1.1620586919416D+00
   101  1.0000000000000D+00  7.1866585193833D-01  1.1622521527863D+00
   102  1.0100000000000D+00  7.0079596523817D-01  1.1604325546381D+00
   103  1.0200000000000D+00  6.8296349477257D-01  1.1566278125377D+00
   104  1.0300000000000D+00  6.6518591685981D-01  1.1508698868620D+00
   105  1.0400000000000D+00  6.4748024756784D-01  1.1431946365519D+00
   106  1.0500000000000D+00  6.2986302622322D-01  1.1336416644485D+00
   107  1.0600000000000D+00  6.1235029994762D-01  1.1222541553558D+00
   108  1.0700000000000D+00  5.9495760923394D-01  1.1090787074613D+00
   109  1.0800000000000D+00  5.7769997457245D-01  1.0941651577558D+00
   110  1.0900000000000D+00  5.6059188413500D-01  1.0775664021057D+00
   111  1.1000000000000D+00  5.4364728252357D-01  1.0593382106339D+00
   112  1.1100000000000D+00  5.2687956058706D-01  1.0395390390710D+00
   113  1.1200000000000D+00  5.1030154630830D-01  1.0182298367398D+00
   114  1.1300000000000D+00  4.9392549676162D-01  9.9547385183510D-01
   115  1.1400000000000D+00  4.7776309113867D-01  9.7133643465691D-01
   116  1.1500000000000D+00  4.6182542483895D-01  9.4588483945055D-01
   117  1.1600000000000D+00  4.4612300461887D-01  9.1918802549648D-01
   118  1.1700000000000D+00  4.3066574479225D-01  8.9131645808684D-01
   119  1.1800000000000D+00  4.1546296447239D-01  8.6234191000917D-01
   120  1.1900000000000D+00  4.0052338584472D-01  8.3233726414436D-01
   121  1.2000000000000D+00  3.8585513345692D-01  8.0137631776817D-01
   122  1.2100000000000D+00  3.7146573451239D-01  7.6953358913247D-01
   123  1.2200000000000D+00  3.5736212015046D-01  7.3688412687390D-01
   124  1.2300000000000D+00  3.4355062769568D-01  7.0350332277501D-01
   125  1.2400000000000D+00  3.3003700385753D-01  6.6946672839291D-01
   126  1.2500000000000D+00  3.1682640885943D-01  6.3484987602701D-01
   127  1.2600000000000D+00  3.0392342147527D-01  5.9972810447355D-01
   128  1.2700000000000D+00  2.9133204495065D-01  5.6417639000168D-01
   129  1.2800000000000D+00  2.7905571378413D-01  5.2826918293867D-01
   130  1.2900000000000D+00  2.6709730134298D-01  4.9208025021681D-01
   131  1.3000000000000D+00  2.5545912828730D-01  4.5568252423078D-01
   132  1.3100000000000D+00  2.4414297177474D-01  4.1914795829383D-01
   133  1.3200000000000D+00  2.3315007541730D-01  3.8254738894146D-01
   134  1.3300000000000D+00  2.2248115996162D-01  3.4595040534428D-01
   135  1.3400000000000D+00  2.1213643466228D-01  3.0942522599932D-01
   136  1.3500000000000D+00  2.0211560931770D-01  2.7303858285297D-01
   137  1.3600000000000D+00  1.9241790693784D-01  2.3685561301750D-01
   138  1.3700000000000D+00  1.8304207701158D-01  2.0093975812205D-01
   139  1.3800000000000D+00  1.7398640934210D-01  1.6535267137821D-01
   140  1.3900000000000D+00  1.6524874841782D-01  1.3015413238742D-01
   141  1.4000000000000D+00  1.5682650828606D-01  9.5401969625281D-02
   142  1.4100000000000D+00  1.4871668789694D-01  6.1151990618087D-02
   143  1.4200000000000D+00  1.4091588688430D-01  2.7457919667320D-02
   144  1.4300000000000D+00  1.3342032175094D-01 -5.6286569764905D-03
   145  1.4400000000000D+00  1.2622584242488D-01 -3.8058338615630D-02
   146  1.4500000000000D+00  1.1932794915441D-01 -6.9783950536141D-02
   147  1.4600000000000D+00  1.1272180970865D-01 -1.0076057748947D-01
   148  1.4700000000000D+00  1.0640227685173D-01 -1.3094559055613D-01
   149  1.4800000000000D+00  1.0036390605834D-01 -1.6029866760720D-01
   150  1.4900000000000D+00  9.4600973438573D-02 -1.8878180767555D-01
   151  1.5000000000000D+00  8.9107493841970D-02 -2.1635933959184D-01
   152  1.5100000000000D+00  8.3877239107833D-02 -2.4299792516560D-01
   153  1.5200000000000D+00  7.8903756434515D-02 -2.6866655737533D-01
   154  1.5300000000000D+00  7.4180386834685D-02 -2.9333655385629D-01
   155  1.5400000000000D+00  6.9700283650772D-02 -3.1698154618984D-01
   156  1.5500000000000D+00  6.5456431099711D-02 -3.3957746534871D-01
   157  1.5600000000000D+00  6.1441662820985D-02 -3.6110252378779D-01
   158  1.5700000000000D+00  5.7648680400758D-02 -3.8153719461073D-01
   159  1.5800000000000D+00  5.4070071845161D-02 -4.0086418828660D-01
   160  1.5900000000000D+00  5.0698329979965D-02 -4.1906842739644D-01
   161  1.6000000000000D+00  4.7525870748428D-02 -4.3613701988326D-01
   162  1.6100000000000D+00  4.4545051389461D-02 -4.5205923130255D-01
   163  1.6200000000000D+00  4.1748188466501D-02 -4.6682645656307D-01
   164  1.6300000000000D+00  3.9127575734342D-02 -4.8043219163850D-01
   165  1.6400000000000D+00  3.6675501813079D-02 -4.9287200577275D-01
   166  1.6500000000000D+00  3.4384267661271D-02 -5.0414351461222D-01
   167  1.6600000000000D+00  3.2246203816976D-02 -5.1424635483025D-01
   168  1.6700000000000D+00  3.0253687402531D-02 -5.2318216061131D-01
   169  1.6800000000000D+00  2.8399158862665D-02 -5.3095454259846D-01
   170  1.6900000000000D+00  2.6675138434495D-02 -5.3756906959626D-01
   171  1.7000000000000D+00  2.5074242320328D-02 -5.4303325366841D-01
   172  1.7100000000000D+00  2.3589198564738D-02 -5.4735653882858D-01
   173  1.7200000000000D+00  2.2212862607607D-02 -5.5055029400861D-01
   174  1.7300000000000D+00  2.0938232518158D-02 -5.5262781038054D-01
   175  1.7400000000000D+00  1.9758463881727D-02 -5.5360430378039D-01
   176  1.7500000000000D+00  1.8666884348359D-02 -5.5349692215502D-01
   177  1.7600000000000D+00  1.7657007814969D-02 -5.5232475885334D-01
   178  1.7700000000000D+00  1.6722548253018D-02 -5.5010887153714D-01
   179  1.7800000000000D+00  1.5857433155765D-02 -5.4687230754722D-01
   180  1.7900000000000D+00  1.5055816616945D-02 -5.4264013542520D-01
   181  1.8000000000000D+00  1.4312092019656D-02 -5.3743948335800D-01
   182  1.8100000000000D+00  1.3620904345172D-02 -5.3129958424395D-01
   183  1.8200000000000D+00  1.2977162086803D-02 -5.2425182798995D-01
   184  1.8300000000000D+00  1.2376048774580D-02 -5.1632982083080D-01
   185  1.8400000000000D+00  1.1813034103787D-02 -5.0756945201134D-01
   186  1.8500000000000D+00  1.1283884667515D-02 -4.9800896782976D-01
   187  1.8600000000000D+00  1.0784674295368D-02 -4.8768905298843D-01
   188  1.8700000000000D+00  1.0311793991766D-02 -4.7665291958069D-01
   189  1.8800000000000D+00  9.8619614854538D-03 -4.6494640315079D-01
   190  1.8900000000000D+00  9.4322312981249D-03 -4.5261808545872D-01
   191  1.9000000000000D+00  9.0199994070387D-03 -4.3971932090154D-01
   192  1.9100000000000D+00  8.6230230642084D-03 -4.2630459085730D-01
   193  1.9200000000000D+00  8.2394055220524D-03 -4.1243114732563D-01
   194  1.9300000000000D+00  7.8676141734340D-03 -3.9815936594688D-01
   195  1.9400000000000D+00  7.5065268517618D-03 -3.8355368625550D-01
   196  1.9500000000000D+00  7.1554245398080D-03 -3.6868246304450D-01
   197  1.9600000000000D+00  6.8138643315642D-03 -3.5361537736620D-01
   198  1.9700000000000D+00  6.4816032204209D-03 -3.3842191670451D-01
   199  1.9800000000000D+00  6.1585306463346D-03 -3.2316996842808D-01
   200  1.9900000000000D+00  5.8445226277069D-03 -3.0792283948905D-01
   201  2.0000000000000D+00  5.5394540606029D-03 -2.9273952673678D-01
   202  2.0100000000000D+00  5.2432256119263D-03 -2.7767528906712D-01
   203  2.0200000000000D+00  4.9557744212559D-03 -2.6278189987682D-01
   204  2.0300000000000D+00  4.6770455973588D-03 -2.4810712472066D-01
   205  2.0400000000000D+00  4.4070032600687D-03 -2.3369501048339D-01
   206  2.0500000000000D+00  4.1456232048439D-03 -2.1958581373572D-01
   207  2.0600000000000D+00  3.8928912471199D-03 -2.0581605570724D-01
   208  2.0700000000000D+00  3.6488006630146D-03 -1.9241856932442D-01
   209  2.0800000000000D+00  3.4133496465802D-03 -1.7942255628259D-01
   210  2.0900000000000D+00  3.1865387590624D-03 -1.6685365282128D-01
   211  2.1000000000000D+00  2.9683685925043D-03 -1.5473400813739D-01
   212  2.1100000000000D+00  2.7588374455908D-03 -1.4308237045643D-01
   213  2.1200000000000D+00  2.5579392063470D-03 -1.3191418402558D-01
   214  2.1300000000000D+00  2.3656614027975D-03 -1.2124169548407D-01
   215  2.1400000000000D+00  2.1819833468531D-03 -1.1107406740292D-01
   216  2.1500000000000D+00  2.0068745765065D-03 -1.0141750223711D-01
   217  2.1600000000000D+00  1.8402933857196D-03 -9.2275371961753D-02
   218  2.1700000000000D+00  1.6821855873237D-03 -8.3648355339767D-02
   219  2.1800000000000D+00  1.5324834868725D-03 -7.5534581658674D-02
   220  2.1900000000000D+00  1.3911049698050D-03 -6.7929778700271D-02
   221  2.2000000000000D+00  1.2579528536110D-03 -6.0827426384791D-02
   222  2.2100000000000D+00  1.1329143586886D-03 -5.4218913414086D-02
   223  2.2200000000000D+00  1.0158607504302D-03 -4.8093696799298D-02
   224  2.2300000000000D+00  9.0664715765840D-04 -4.2439463348532D-02
   225  2.2400000000000D+00  8.0511250675352D-04 -3.7242292410853D-02
   226  2.2500000000000D+00  7.1107960135449D-04 -3.2486818374557D-02
   227  2.2600000000000D+00  6.2435531657276D-04 -2.8156392528603D-02
   228  2.2700000000000D+00  5.4473090073720D-04 -2.4233244178095D-02
   229  2.2800000000000D+00  4.7198236240536D-04 -2.0698637936012D-02
   230  2.2900000000000D+00  4.0587094823188D-04 -1.7533029140430D-02
   231  2.3000000000000D+00  3.4614368855784D-04 -1.4716215206528D-02
   232  2.3100000000000D+00  2.9253398458483D-04 -1.2227481192534D-02
   233  2.3200000000000D+00  2.4476226972123D-04 -1.0045742014691D-02
   234  2.3300000000000D+00  2.0253668519546D-04 -8.1496772907305D-03
   235  2.3400000000000D+00  1.6555377834233D-04 -6.5178594246292D-03
   236  2.3500000000000D+00  1.3349925379686D-04 -5.1288769165123D-03
   237  2.3600000000000D+00  1.0604869048874D-04 -3.9614472952509D-03
   238  2.3700000000000D+00  8.2868280309002D-05 -2.9945232999420D-03
   239  2.3800000000000D+00  6.3615586934081D-05 -2.2073923493295D-03
   240  2.3900000000000D+00  4.7942847562888D-05 -1.5797623832818D-03
   241  2.4000000000000D+00  3.5494499232511D-05 -1.0918448036276D-03
   242  2.4100000000000D+00  2.5891932313558D-05 -7.2443691715569D-04
   243  2.4200000000000D+00  1.8726228020600D-05 -4.5867405973492D-04
   244  2.4300000000000D+00  1.3647822717638D-05 -2.7677503916950D-04
   245  2.4400000000000D+00  1.0420451583966D-05 -1.6250486835734D-04
   246  2.4500000000000D+00  8.8339816857755D-06 -1.0111112249255D-04
   247  2.4600000000000D+00  8.2354721532776D-06 -7.4728140837259D-05
   248  2.4700000000000D+00  7.5962685583949D-06 -6.3367447011838D-05
   249  2.4800000000000D+00  5.9310839498369D-06 -4.9232252254979D-05
   250  2.4900000000000D+00  3.3659369587160D-06 -2.8328719977047D-05
   251  2.5000000000000D+00  8.4595116283961D-07 -7.2786692089215D-06
   252  2.5100000000000D+00 -5.3797151292444D-07  4.3223239321494D-06
   253  2.5200000000000D+00 -7.0024967320465D-07  5.6419412193180D-06
   254  2.5300000000000D+00 -2.4977784050942D-07  2.0201013406279D-06
   255  2.5400000000000D+00  1.0730239235434D-07 -8.0907326459909D-07
   256  2.5500000000000D+00  1.6080076962046D-07 -1.2062229787389D-06
   257  2.5600000000000D+00  6.7167247098209D-08 -5.0166768836312D-07
   258  2.5700000000000D+00 -1.1844666235386D-08  9.8567446229749D-08
   259  2.5800000000000D+00 -2.0086307997849D-08  1.6715169884799D-07
   260  2.5900000000000D+00 -9.8954078300713D-09  8.2346354032174D-08
   261  2.6000000000000D+00  0.0000000000000D+00  0.0000000000000D+00
   262  2.6100000000000D+00  0.0000000000000D+00  0.0000000000000D+00
   263  2.6200000000000D+00  0.0000000000000D+00  0.0000000000000D+00
   264  2.6300000000000D+00  0.0000000000000D+00  0.0000000000000D+00
   265  2.6400000000000D+00  0.0000000000000D+00  0.0000000000000D+00
   266  2.6500000000000D+00  0.0000000000000D+00  0.0000000000000D+00
   267  2.6600000000000D+00  0.0000000000000D+00  0.0000000000000D+00
   268  2.6700000000000D+00  0.0000000000000D+00  0.0000000000000D+00
   269  2.6800000000000D+00  0.0000000000000D+00  0.0000000000000D+00
   270  2.6900000000000D+00  0.0000000000000D+00  0.0000000000000D+00
   271  2.7000000000000D+00  0.0000000000000D+00  0.0000000000000D+00
   272  2.7100000000000D+00  0.0000000000000D+00  0.0000000000000D+00
   273  2.7200000000000D+00  0.0000000000000D+00  0.0000000000000D+00
   274  2.7300000000000D+00  0.0000000000000D+00  0.0000000000000D+00
   275  2.7400000000000D+00  0.0000000000000D+00  0.0000000000000D+00
   276  2.7500000000000D+00  0.0000000000000D+00  0.0000000000000D+00
   277  2.7600000000000D+00  0.0000000000000D+00  0.0000000000000D+00
   278  2.7700000000000D+00  0.0000000000000D+00  0.0000000000000D+00
   279  2.7800000000000D+00  0.0000000000000D+00  0.0000000000000D+00
   280  2.7900000000000D+00  0.0000000000000D+00  0.0000000000000D+00
   281  2.8000000000000D+00  0.0000000000000D+00  0.0000000000000D+00
   282  2.8100000000000D+00  0.0000000000000D+00  0.0000000000000D+00
   283  2.8200000000000D+00  0.0000000000000D+00  0.0000000000000D+00
   284  2.8300000000000D+00  0.0000000000000D+00  0.0000000000000D+00
   285  2.8400000000000D+00  0.0000000000000D+00  0.0000000000000D+00
   286  2.8500000000000D+00  0.0000000000000D+00  0.0000000000000D+00
   287  2.8600000000000D+00  0.0000000000000D+00  0.0000000000000D+00
   288  2.8700000000000D+00  0.0000000000000D+00  0.0000000000000D+00
   289  2.8800000000000D+00  0.0000000000000D+00  0.0000000000000D+00
   290  2.8900000000000D+00  0.0000000000000D+00  0.0000000000000D+00
   291  2.9000000000000D+00  0.0000000000000D+00  0.0000000000000D+00
   292  2.9100000000000D+00  0.0000000000000D+00  0.0000000000000D+00
   293  2.9200000000000D+00  0.0000000000000D+00  0.0000000000000D+00
   294  2.9300000000000D+00  0.0000000000000D+00  0.0000000000000D+00
   295  2.9400000000000D+00  0.0000000000000D+00  0.0000000000000D+00
   296  2.9500000000000D+00  0.0000000000000D+00  0.0000000000000D+00
   297  2.9600000000000D+00  0.0000000000000D+00  0.0000000000000D+00
   298  2.9700000000000D+00  0.0000000000000D+00  0.0000000000000D+00
   299  2.9800000000000D+00  0.0000000000000D+00  0.0000000000000D+00
   300  2.9900000000000D+00  0.0000000000000D+00  0.0000000000000D+00
   301  3.0000000000000D+00  0.0000000000000D+00  0.0000000000000D+00
   302  3.0100000000000D+00  0.0000000000000D+00  0.0000000000000D+00
   303  3.0200000000000D+00  0.0000000000000D+00  0.0000000000000D+00
   304  3.0300000000000D+00  0.0000000000000D+00  0.0000000000000D+00
   305  3.0400000000000D+00  0.0000000000000D+00  0.0000000000000D+00
   306  3.0500000000000D+00  0.0000000000000D+00  0.0000000000000D+00
   307  3.0600000000000D+00  0.0000000000000D+00  0.0000000000000D+00
   308  3.0700000000000D+00  0.0000000000000D+00  0.0000000000000D+00
   309  3.0800000000000D+00  0.0000000000000D+00  0.0000000000000D+00
   310  3.0900000000000D+00  0.0000000000000D+00  0.0000000000000D+00
   311  3.1000000000000D+00  0.0000000000000D+00  0.0000000000000D+00
   312  3.1100000000000D+00  0.0000000000000D+00  0.0000000000000D+00
   313  3.1200000000000D+00  0.0000000000000D+00  0.0000000000000D+00
   314  3.1300000000000D+00  0.0000000000000D+00  0.0000000000000D+00
   315  3.1400000000000D+00  0.0000000000000D+00  0.0000000000000D+00
   316  3.1500000000000D+00  0.0000000000000D+00  0.0000000000000D+00
   317  3.1600000000000D+00  0.0000000000000D+00  0.0000000000000D+00
   318  3.1700000000000D+00  0.0000000000000D+00  0.0000000000000D+00
   319  3.1800000000000D+00  0.0000000000000D+00  0.0000000000000D+00
   320  3.1900000000000D+00  0.0000000000000D+00  0.0000000000000D+00
   321  3.2000000000000D+00  0.0000000000000D+00  0.0000000000000D+00
   322  3.2100000000000D+00  0.0000000000000D+00  0.0000000000000D+00
   323  3.2200000000000D+00  0.0000000000000D+00  0.0000000000000D+00
   324  3.2300000000000D+00  0.0000000000000D+00  0.0000000000000D+00
   325  3.2400000000000D+00  0.0000000000000D+00  0.0000000000000D+00
   326  3.2500000000000D+00  0.0000000000000D+00  0.0000000000000D+00
   327  3.2600000000000D+00  0.0000000000000D+00  0.0000000000000D+00
   328  3.2700000000000D+00  0.0000000000000D+00  0.0000000000000D+00
   329  3.2800000000000D+00  0.0000000000000D+00  0.0000000000000D+00
   330  3.2900000000000D+00  0.0000000000000D+00  0.0000000000000D+00
   331  3.3000000000000D+00  0.0000000000000D+00  0.0000000000000D+00
   332  3.3100000000000D+00  0.0000000000000D+00  0.0000000000000D+00
   333  3.3200000000000D+00  0.0000000000000D+00  0.0000000000000D+00
   334  3.3300000000000D+00  0.0000000000000D+00  0.0000000000000D+00
   335  3.3400000000000D+00  0.0000000000000D+00  0.0000000000000D+00
   336  3.3500000000000D+00  0.0000000000000D+00  0.0000000000000D+00
   337  3.3600000000000D+00  0.0000000000000D+00  0.0000000000000D+00
   338  3.3700000000000D+00  0.0000000000000D+00  0.0000000000000D+00
   339  3.3800000000000D+00  0.0000000000000D+00  0.0000000000000D+00
   340  3.3900000000000D+00  0.0000000000000D+00  0.0000000000000D+00
   341  3.4000000000000D+00  0.0000000000000D+00  0.0000000000000D+00
   342  3.4100000000000D+00  0.0000000000000D+00  0.0000000000000D+00
   343  3.4200000000000D+00  0.0000000000000D+00  0.0000000000000D+00
   344  3.4300000000000D+00  0.0000000000000D+00  0.0000000000000D+00
   345  3.4400000000000D+00  0.0000000000000D+00  0.0000000000000D+00
   346  3.4500000000000D+00  0.0000000000000D+00  0.0000000000000D+00
   347  3.4600000000000D+00  0.0000000000000D+00  0.0000000000000D+00
   348  3.4700000000000D+00  0.0000000000000D+00  0.0000000000000D+00
   349  3.4800000000000D+00  0.0000000000000D+00  0.0000000000000D+00
   350  3.4900000000000D+00  0.0000000000000D+00  0.0000000000000D+00
   351  3.5000000000000D+00  0.0000000000000D+00  0.0000000000000D+00
   352  3.5100000000000D+00  0.0000000000000D+00  0.0000000000000D+00
   353  3.5200000000000D+00  0.0000000000000D+00  0.0000000000000D+00
   354  3.5300000000000D+00  0.0000000000000D+00  0.0000000000000D+00
   355  3.5400000000000D+00  0.0000000000000D+00  0.0000000000000D+00
   356  3.5500000000000D+00  0.0000000000000D+00  0.0000000000000D+00
   357  3.5600000000000D+00  0.0000000000000D+00  0.0000000000000D+00
   358  3.5700000000000D+00  0.0000000000000D+00  0.0000000000000D+00
   359  3.5800000000000D+00  0.0000000000000D+00  0.0000000000000D+00
   360  3.5900000000000D+00  0.0000000000000D+00  0.0000000000000D+00
   361  3.6000000000000D+00  0.0000000000000D+00  0.0000000000000D+00
   362  3.6100000000000D+00  0.0000000000000D+00  0.0000000000000D+00
   363  3.6200000000000D+00  0.0000000000000D+00  0.0000000000000D+00
   364  3.6300000000000D+00  0.0000000000000D+00  0.0000000000000D+00
   365  3.6400000000000D+00  0.0000000000000D+00  0.0000000000000D+00
   366  3.6500000000000D+00  0.0000000000000D+00  0.0000000000000D+00
   367  3.6600000000000D+00  0.0000000000000D+00  0.0000000000000D+00
   368  3.6700000000000D+00  0.0000000000000D+00  0.0000000000000D+00
   369  3.6800000000000D+00  0.0000000000000D+00  0.0000000000000D+00
   370  3.6900000000000D+00  0.0000000000000D+00  0.0000000000000D+00
   371  3.7000000000000D+00  0.0000000000000D+00  0.0000000000000D+00
   372  3.7100000000000D+00  0.0000000000000D+00  0.0000000000000D+00
   373  3.7200000000000D+00  0.0000000000000D+00  0.0000000000000D+00
   374  3.7300000000000D+00  0.0000000000000D+00  0.0000000000000D+00
   375  3.7400000000000D+00  0.0000000000000D+00  0.0000000000000D+00
   376  3.7500000000000D+00  0.0000000000000D+00  0.0000000000000D+00
   377  3.7600000000000D+00  0.0000000000000D+00  0.0000000000000D+00
   378  3.7700000000000D+00  0.0000000000000D+00  0.0000000000000D+00
   379  3.7800000000000D+00  0.0000000000000D+00  0.0000000000000D+00
   380  3.7900000000000D+00  0.0000000000000D+00  0.0000000000000D+00
   381  3.8000000000000D+00  0.0000000000000D+00  0.0000000000000D+00
   382  3.8100000000000D+00  0.0000000000000D+00  0.0000000000000D+00
   383  3.8200000000000D+00  0.0000000000000D+00  0.0000000000000D+00
   384  3.8300000000000D+00  0.0000000000000D+00  0.0000000000000D+00
   385  3.8400000000000D+00  0.0000000000000D+00  0.0000000000000D+00
   386  3.8500000000000D+00  0.0000000000000D+00  0.0000000000000D+00
   387  3.8600000000000D+00  0.0000000000000D+00  0.0000000000000D+00
   388  3.8700000000000D+00  0.0000000000000D+00  0.0000000000000D+00
   389  3.8800000000000D+00  0.0000000000000D+00  0.0000000000000D+00
   390  3.8900000000000D+00  0.0000000000000D+00  0.0000000000000D+00
   391  3.9000000000000D+00  0.0000000000000D+00  0.0000000000000D+00
   392  3.9100000000000D+00  0.0000000000000D+00  0.0000000000000D+00
   393  3.9200000000000D+00  0.0000000000000D+00  0.0000000000000D+00
   394  3.9300000000000D+00  0.0000000000000D+00  0.0000000000000D+00
   395  3.9400000000000D+00  0.0000000000000D+00  0.0000000000000D+00
   396  3.9500000000000D+00  0.0000000000000D+00  0.0000000000000D+00
   397  3.9600000000000D+00  0.0000000000000D+00  0.0000000000000D+00
   398  3.9700000000000D+00  0.0000000000000D+00  0.0000000000000D+00
   399  3.9800000000000D+00  0.0000000000000D+00  0.0000000000000D+00
   400  3.9900000000000D+00  0.0000000000000D+00  0.0000000000000D+00
   401  4.0000000000000D+00  0.0000000000000D+00  0.0000000000000D+00
   402  4.0100000000000D+00  0.0000000000000D+00  0.0000000000000D+00
   403  4.0200000000000D+00  0.0000000000000D+00  0.0000000000000D+00
   404  4.0300000000000D+00  0.0000000000000D+00  0.0000000000000D+00
   405  4.0400000000000D+00  0.0000000000000D+00  0.0000000000000D+00
   406  4.0500000000000D+00  0.0000000000000D+00  0.0000000000000D+00
   407  4.0600000000000D+00  0.0000000000000D+00  0.0000000000000D+00
   408  4.0700000000000D+00  0.0000000000000D+00  0.0000000000000D+00
   409  4.0800000000000D+00  0.0000000000000D+00  0.0000000000000D+00
   410  4.0900000000000D+00  0.0000000000000D+00  0.0000000000000D+00
   411  4.1000000000000D+00  0.0000000000000D+00  0.0000000000000D+00
   412  4.1100000000000D+00  0.0000000000000D+00  0.0000000000000D+00
   413  4.1200000000000D+00  0.0000000000000D+00  0.0000000000000D+00
   414  4.1300000000000D+00  0.0000000000000D+00  0.0000000000000D+00
   415  4.1400000000000D+00  0.0000000000000D+00  0.0000000000000D+00
   416  4.1500000000000D+00  0.0000000000000D+00  0.0000000000000D+00
   417  4.1600000000000D+00  0.0000000000000D+00  0.0000000000000D+00
   418  4.1700000000000D+00  0.0000000000000D+00  0.0000000000000D+00
   419  4.1800000000000D+00  0.0000000000000D+00  0.0000000000000D+00
   420  4.1900000000000D+00  0.0000000000000D+00  0.0000000000000D+00
   421  4.2000000000000D+00  0.0000000000000D+00  0.0000000000000D+00
   422  4.2100000000000D+00  0.0000000000000D+00  0.0000000000000D+00