Mo    ONCVPSP-3.3.1  r_core=   2.31752   2.51934   2.58017
     42.0000     14.0000      210905    zatom,zion,pspd
     8 -116133   2     4   600     0    pspcod,pspxc,lmax,lloc,mmax,r2well
  5.99000000  0.00000000  0.00000000    rchrg fchrg qchrg
     2     2     2     0     0    nproj
     1     1           extension_switch
   0                         5.6001838888338D+00  1.0650837103433D+00
     1  0.0000000000000D+00  7.0387029538210D-12 -1.6475890096679D-11
     2  1.0000000000000D-02  4.9297288424768D-02 -8.1579258775542D-03
     3  2.0000000000000D-02  9.8538121935505D-02 -1.6293602060903D-02
     4  3.0000000000000D-02  1.4766608109070D-01 -2.4384720888596D-02
     5  4.0000000000000D-02  1.9662481762113D-01 -3.2408859465108D-02
     6  5.0000000000000D-02  2.4535809058224D-01 -4.0343423790700D-02
     7  6.0000000000000D-02  2.9380980318125D-01 -4.8165594975959D-02
     8  7.0000000000000D-02  3.4192404049529D-01 -5.5852278216674D-02
     9  8.0000000000000D-02  3.8964510829045D-01 -6.3380055188267D-02
    10  9.0000000000000D-02  4.3691757314250D-01 -7.0725140498669D-02
    11  1.0000000000000D-01  4.8368630404976D-01 -7.7863342814286D-02
    12  1.1000000000000D-01  5.2989651571682D-01 -8.4770031245690D-02
    13  1.2000000000000D-01  5.7549381367407D-01 -9.1420107548037D-02
    14  1.3000000000000D-01  6.2042424138321D-01 -9.7787984656074D-02
    15  1.4000000000000D-01  6.6463432946249D-01 -1.0384757203509D-01
    16  1.5000000000000D-01  7.0807114714775D-01 -1.0957226828755D-01
    17  1.6000000000000D-01  7.5068235608629D-01 -1.1493496141053D-01
    18  1.7000000000000D-01  7.9241626654095D-01 -1.1990803705160D-01
    19  1.8000000000000D-01  8.3322189606016D-01 -1.2446339506092D-01
    20  1.9000000000000D-01  8.7304903064816D-01 -1.2857247458508D-01
    21  2.0000000000000D-01  9.1184828844670D-01 -1.3220628789381D-01
    22  2.1000000000000D-01  9.4957118591577D-01 -1.3533546307447D-01
    23  2.2000000000000D-01  9.8617020647731D-01 -1.3793029567185D-01
    24  2.3000000000000D-01  1.0215988715610D+00 -1.3996080929139D-01
    25  2.4000000000000D-01  1.0558118139664D+00 -1.4139682512458D-01
    26  2.5000000000000D-01  1.0887648534315D+00 -1.4220804029415D-01
    27  2.6000000000000D-01  1.1204150742716D+00 -1.4236411485630D-01
    28  2.7000000000000D-01  1.1507209049279D+00 -1.4183476723572D-01
    29  2.8000000000000D-01  1.1796421992422D+00 -1.4058987780894D-01
    30  2.9000000000000D-01  1.2071403192467D+00 -1.3859960029105D-01
    31  3.0000000000000D-01  1.2331782192379D+00 -1.3583448052196D-01
    32  3.1000000000000D-01  1.2577205308767D+00 -1.3226558219034D-01
    33  3.2000000000000D-01  1.2807336490396D+00 -1.2786461897697D-01
    34  3.3000000000000D-01  1.3021858181186D+00 -1.2260409254505D-01
    35  3.4000000000000D-01  1.3220472184536D+00 -1.1645743575251D-01
    36  3.5000000000000D-01  1.3402900525577D+00 -1.0939916041203D-01
    37  3.6000000000000D-01  1.3568886307808D+00 -1.0140500887740D-01
    38  3.7000000000000D-01  1.3718194560401D+00 -9.2452108691375D-02
    39  3.8000000000000D-01  1.3850613072319D+00 -8.2519129489987D-02
    40  3.9000000000000D-01  1.3965953209276D+00 -7.1586441321597D-02
    41  4.0000000000000D-01  1.4064050709442D+00 -5.9636273506730D-02
    42  4.1000000000000D-01  1.4144766453731D+00 -4.6652873136337D-02
    43  4.2000000000000D-01  1.4207987206428D+00 -3.2622662282338D-02
    44  4.3000000000000D-01  1.4253626321874D+00 -1.7534392975261D-02
    45  4.4000000000000D-01  1.4281624412908D+00 -1.3792989895516D-03
    46  4.5000000000000D-01  1.4291949976754D+00  1.5848756532131D-02
    47  4.6000000000000D-01  1.4284599974076D+00  3.4153138588123D-02
    48  4.7000000000000D-01  1.4259600356975D+00  5.3534303931753D-02
    49  4.8000000000000D-01  1.4217006541749D+00  7.3989671754553D-02
    50  4.9000000000000D-01  1.4156903822378D+00  9.5513502390882D-02
    51  5.0000000000000D-01  1.4079407720764D+00  1.1809678497826D-01
    52  5.1000000000000D-01  1.3984664269942D+00  1.4172713498448D-01
    53  5.2000000000000D-01  1.3872850226635D+00  1.6638870248354D-01
    54  5.3000000000000D-01  1.3744173209706D+00  1.9206209202793D-01
    55  5.4000000000000D-01  1.3598871761296D+00  2.1872429492546D-01
    56  5.5000000000000D-01  1.3437215327668D+00  2.4634863468285D-01
    57  5.6000000000000D-01  1.3259504157034D+00  2.7490472632896D-01
    58  5.7000000000000D-01  1.3066069111937D+00  3.0435845027445D-01
    59  5.8000000000000D-01  1.2857271394049D+00  3.3467194130487D-01
    60  5.9000000000000D-01  1.2633502179577D+00  3.6580359323976D-01
    61  6.0000000000000D-01  1.2395182163812D+00  3.9770807972075D-01
    62  6.1000000000000D-01  1.2142761013700D+00  4.3033639151925D-01
    63  6.2000000000000D-01  1.1876716727697D+00  4.6363589067749D-01
    64  6.3000000000000D-01  1.1597554902554D+00  4.9755038171627D-01
    65  6.4000000000000D-01  1.1305807907057D+00  5.3202020006061D-01
    66  6.5000000000000D-01  1.1002033963188D+00  5.6698231774804D-01
    67  6.6000000000000D-01  1.0686816135548D+00  6.0237046639731D-01
    68  6.7000000000000D-01  1.0360761230327D+00  6.3811527732564D-01
    69  6.8000000000000D-01  1.0024498605534D+00  6.7414443861180D-01
    70  6.9000000000000D-01  9.6786788945884D-01  7.1038286881130D-01
    71  7.0000000000000D-01  9.3239726458599D-01  7.4675290693814D-01
    72  7.1000000000000D-01  8.9610688811010D-01  7.8317451823601D-01
    73  7.2000000000000D-01  8.5906735761838D-01  8.1956551517131D-01
    74  7.3000000000000D-01  8.2135080679332D-01  8.5584179299087D-01
    75  7.4000000000000D-01  7.8303073912632D-01  8.9191757909918D-01
    76  7.5000000000000D-01  7.4418185512041D-01  9.2770569542552D-01
    77  7.6000000000000D-01  7.0487987347872D-01  9.6311783286744D-01
    78  7.7000000000000D-01  6.6520134681105D-01  9.9806483681872D-01
    79  7.8000000000000D-01  6.2522347242487D-01  1.0324570027142D+00
    80  7.9000000000000D-01  5.8502389879899D-01  1.0662043804519D+00
    81  8.0000000000000D-01  5.4468052836806D-01  1.0992170864882D+00
    82  8.1000000000000D-01  5.0427131727292D-01  1.1314056223379D+00
    83  8.2000000000000D-01  4.6387407275697D-01  1.1626811981571D+00
    84  8.3000000000000D-01  4.2356624891011D-01  1.1929560600382D+00
    85  8.4000000000000D-01  3.8342474148107D-01  1.2221438195984D+00
    86  8.5000000000000D-01  3.4352568249446D-01  1.2501597844135D+00
    87  8.6000000000000D-01  3.0394423542180D-01  1.2769212878117D+00
    88  8.7000000000000D-01  2.6475439166459D-01  1.3023480165262D+00
    89  8.8000000000000D-01  2.2602876911391D-01  1.3263623346856D+00
    90  8.9000000000000D-01  1.8783841355267D-01  1.3488896026190D+00
    91  9.0000000000000D-01  1.5025260366609D-01  1.3698584889471D+00
    92  9.1000000000000D-01  1.1333866042042D-01  1.3892012744467D+00
    93  9.2000000000000D-01  7.7161761562167D-02  1.4068541461860D+00
    94  9.3000000000000D-01  4.1784761977254D-02  1.4227574804573D+00
    95  9.4000000000000D-01  7.2680206343831D-03  1.4368561130646D+00
    96  9.5000000000000D-01 -2.6330765182757D-02  1.4490995955634D+00
    97  9.6000000000000D-01 -5.8956717672491D-02  1.4594424361008D+00
    98  9.7000000000000D-01 -9.0557927685677D-02  1.4678443235576D+00
    99  9.8000000000000D-01 -1.2108559464358D-01  1.4742703337572D+00
   100  9.9000000000000D-01 -1.5049415661031D-01  1.4786911165796D+00
   101  1.0000000000000D+00 -1.7874140996125D-01  1.4810830628910D+00
   102  1.0100000000000D+00 -2.0578861812999D-01  1.4814284502862D+00
   103  1.0200000000000D+00 -2.3160060895586D-01  1.4797155667310D+00
   104  1.0300000000000D+00 -2.5614586019929D-01  1.4759388112824D+00
   105  1.0400000000000D+00 -2.7939657283777D-01  1.4700987711692D+00
   106  1.0500000000000D+00 -3.0132873180599D-01  1.4622022746197D+00
   107  1.0600000000000D+00 -3.2192215388898D-01  1.4522624189240D+00
   108  1.0700000000000D+00 -3.4116052253522D-01  1.4402985733417D+00
   109  1.0800000000000D+00 -3.5903140940596D-01  1.4263363565718D+00
   110  1.0900000000000D+00 -3.7552628253225D-01  1.4104075886215D+00
   111  1.1000000000000D+00 -3.9064050100990D-01  1.3925502170342D+00
   112  1.1100000000000D+00 -4.0437329620853D-01  1.3728082175362D+00
   113  1.1200000000000D+00 -4.1672773953962D-01  1.3512314693095D+00
   114  1.1300000000000D+00 -4.2771069687469D-01  1.3278756051919D+00
   115  1.1400000000000D+00 -4.3733276976831D-01  1.3028018372467D+00
   116  1.1500000000000D+00 -4.4560822368253D-01  1.2760767582249D+00
   117  1.1600000000000D+00 -4.5255490347842D-01  1.2477721195956D+00
   118  1.1700000000000D+00 -4.5819413648308D-01  1.2179645869024D+00
   119  1.1800000000000D+00 -4.6255062349990D-01  1.1867354733318D+00
   120  1.1900000000000D+00 -4.6565231816138D-01  1.1541704524416D+00
   121  1.2000000000000D+00 -4.6753029509514D-01  1.1203592511447D+00
   122  1.2100000000000D+00 -4.6821860740505D-01  1.0853953241059D+00
   123  1.2200000000000D+00 -4.6775413400751D-01  1.0493755107847D+00
   124  1.2300000000000D+00 -4.6617641741088D-01  1.0123996764546D+00
   125  1.2400000000000D+00 -4.6352749256422D-01  9.7457033859992D-01
   126  1.2500000000000D+00 -4.5985170742608D-01  9.3599228013881D-01
   127  1.2600000000000D+00 -4.5519553593474D-01  8.9677215097821D-01
   128  1.2700000000000D+00 -4.4960738409966D-01  8.5701805947571D-01
   129  1.2800000000000D+00 -4.4313738994233D-01  8.1683915539164D-01
   130  1.2900000000000D+00 -4.3583721803605D-01  7.7634520595651D-01
   131  1.3000000000000D+00 -4.2775984942009D-01  7.3564616670939D-01
   132  1.3100000000000D+00 -4.1895936765868D-01  6.9485174874929D-01
   133  1.3200000000000D+00 -4.0949074183393D-01  6.5407098407263D-01
   134  1.3300000000000D+00 -3.9940960726018D-01  6.1341179063519D-01
   135  1.3400000000000D+00 -3.8877204470296D-01  5.7298053877363D-01
   136  1.3500000000000D+00 -3.7763435889373D-01  5.3288162061727D-01
   137  1.3600000000000D+00 -3.6605285709601D-01  4.9321702401518D-01
   138  1.3700000000000D+00 -3.5408362850118D-01  4.5408591256880D-01
   139  1.3800000000000D+00 -3.4178232518874D-01  4.1558421322037D-01
   140  1.3900000000000D+00 -3.2920394535631D-01  3.7780421277792D-01
   141  1.4000000000000D+00 -3.1640261956127D-01  3.4083416484439D-01
   142  1.4100000000000D+00 -3.0343140058854D-01  3.0475790828046D-01
   143  1.4200000000000D+00 -2.9034205762984D-01  2.6965449851980D-01
   144  1.4300000000000D+00 -2.7718487537251D-01  2.3559785282046D-01
   145  1.4400000000000D+00 -2.6400845852377D-01  2.0265641036256D-01
   146  1.4500000000000D+00 -2.5085954239937D-01  1.7089280835208D-01
   147  1.4600000000000D+00 -2.3778280994119D-01  1.4036357463807D-01
   148  1.4700000000000D+00 -2.2482071573124D-01  1.1111883785077D-01
   149  1.4800000000000D+00 -2.1201331732707D-01  8.3202055470495D-02
   150  1.4900000000000D+00 -1.9939811428476D-01  5.6649760349204D-02
   151  1.5000000000000D+00 -1.8700989382644D-01  3.1491321390810D-02
   152  1.5100000000000D+00 -1.7488059073353D-01  7.7487439937398D-03
   153  1.5200000000000D+00 -1.6303914066272D-01 -1.4563562176923D-02
   154  1.5300000000000D+00 -1.5151140723490D-01 -3.5438777147056D-02
   155  1.5400000000000D+00 -1.4031991891017D-01 -5.4878310947472D-02
   156  1.5500000000000D+00 -1.2948385640862D-01 -7.2891621825052D-02
   157  1.5600000000000D+00 -1.1901944900003D-01 -8.9494627852255D-02
   158  1.5700000000000D+00 -1.0894030246641D-01 -1.0470846322544D-01
   159  1.5800000000000D+00 -9.9257908269646D-02 -1.1855771954714D-01
   160  1.5900000000000D+00 -8.9981778107346D-02 -1.3106997797606D-01
   161  1.6000000000000D+00 -8.1119361652038D-02 -1.4227613108906D-01
   162  1.6100000000000D+00 -7.2676151569644D-02 -1.5221004810402D-01
   163  1.6200000000000D+00 -6.4655742479531D-02 -1.6090841134632D-01
   164  1.6300000000000D+00 -5.7059903070631D-02 -1.6841051727901D-01
   165  1.6400000000000D+00 -4.9888650982684D-02 -1.7475807561366D-01
   166  1.6500000000000D+00 -4.3140331978404D-02 -1.7999500144857D-01
   167  1.6600000000000D+00 -3.6811703459949D-02 -1.8416719962988D-01
   168  1.6700000000000D+00 -3.0898021701965D-02 -1.8732234328285D-01
   169  1.6800000000000D+00 -2.5393132164516D-02 -1.8950964808098D-01
   170  1.6900000000000D+00 -2.0289562502366D-02 -1.9077964327736D-01
   171  1.7000000000000D+00 -1.5578617750705D-02 -1.9118394069449D-01
   172  1.7100000000000D+00 -1.1250477211780D-02 -1.9077500294496D-01
   173  1.7200000000000D+00 -7.2942925909957D-03 -1.8960591188259D-01
   174  1.7300000000000D+00 -3.6982868288776D-03 -1.8773013875686D-01
   175  1.7400000000000D+00 -4.4985328161879D-04 -1.8520131677254D-01
   176  1.7500000000000D+00  2.4643453954002D-03 -1.8207301776813D-01
   177  1.7600000000000D+00  5.0582788833152D-03 -1.7839853336726D-01
   178  1.7700000000000D+00  7.3464520799423D-03 -1.7423066251397D-01
   179  1.7800000000000D+00  9.3438093326394D-03 -1.6962150544345D-01
   180  1.7900000000000D+00  1.1065640785815D-02 -1.6462226606930D-01
   181  1.8000000000000D+00  1.2527490877046D-02 -1.5928306265426D-01
   182  1.8100000000000D+00  1.3745069710503D-02 -1.5365274862118D-01
   183  1.8200000000000D+00  1.4734167337936D-02 -1.4777874338331D-01
   184  1.8300000000000D+00  1.5510571541110D-02 -1.4170687465132D-01
   185  1.8400000000000D+00  1.6089989247242D-02 -1.3548123239262D-01
   186  1.8500000000000D+00  1.6487971904216D-02 -1.2914403514975D-01
   187  1.8600000000000D+00  1.6719845181000D-02 -1.2273550954076D-01
   188  1.8700000000000D+00  1.6800642904244D-02 -1.1629378251125D-01
   189  1.8800000000000D+00  1.6745045969036D-02 -1.0985478816631D-01
   190  1.8900000000000D+00  1.6567325597408D-02 -1.0345218731031D-01
   191  1.9000000000000D+00  1.6281292065153D-02 -9.7117302534205D-02
   192  1.9100000000000D+00  1.5900247950726D-02 -9.0879066142292D-02
   193  1.9200000000000D+00  1.5436946924212D-02 -8.4763983457680D-02
   194  1.9300000000000D+00  1.4903557404055D-02 -7.8796109553395D-02
   195  1.9400000000000D+00  1.4311631485443D-02 -7.2997040299426D-02
   196  1.9500000000000D+00  1.3672079103168D-02 -6.7385917459786D-02
   197  1.9600000000000D+00  1.2995146993832D-02 -6.1979446527546D-02
   198  1.9700000000000D+00  1.2290403135843D-02 -5.6791928887366D-02
   199  1.9800000000000D+00  1.1566725537166D-02 -5.1835305213848D-02
   200  1.9900000000000D+00  1.0832296330520D-02 -4.7119212388049D-02
   201  2.0000000000000D+00  1.0094600102730D-02 -4.2651051022106D-02
   202  2.0100000000000D+00  9.3604267986191D-03 -3.8436064263284D-02
   203  2.0200000000000D+00  8.6358789229524D-03 -3.4477426999753D-02
   204  2.0300000000000D+00  7.9263824212684D-03 -3.0776343739402D-02
   205  2.0400000000000D+00  7.2367017698056D-03 -2.7332156271740D-02
   206  2.0500000000000D+00  6.5709581723724D-03 -2.4142458247412D-02
   207  2.0600000000000D+00  5.9326511064355D-03 -2.1203216964835D-02
   208  2.0700000000000D+00  5.3246826746890D-03 -1.8508900929533D-02
   209  2.0800000000000D+00  4.7493844909329D-03 -1.6052612321391D-02
   210  2.0900000000000D+00  4.2085470367959D-03 -1.3826223943877D-02
   211  2.1000000000000D+00  3.7034507108482D-03 -1.1820518728842D-02
   212  2.1100000000000D+00  3.2348987246429D-03 -1.0025331769197D-02
   213  2.1200000000000D+00  2.8032512659743D-03 -8.4296934943754D-03
   214  2.1300000000000D+00  2.4084605914628D-03 -7.0219729071133D-03
   215  2.1400000000000D+00  2.0501064567249D-03 -5.7900190638706D-03
   216  2.1500000000000D+00  1.7274320631670D-03 -4.7213015226981D-03
   217  2.1600000000000D+00  1.4393798378978D-03 -3.8030474608948D-03
   218  2.1700000000000D+00  1.1846269525466D-03 -3.0223754257480D-03
   219  2.1800000000000D+00  9.6162028554582D-04 -2.3664248339463D-03
   220  2.1900000000000D+00  7.6861008230375D-04 -1.8224789050132D-03
   221  2.2000000000000D+00  6.0368295618103D-04 -1.3780831320464D-03
   222  2.2100000000000D+00  4.6479287997000D-04 -1.0211552356475D-03
   223  2.2200000000000D+00  3.4979040484157D-04 -7.4008735085175D-04
   224  2.2300000000000D+00  2.5645052368100D-04 -5.2384175317364D-04
   225  2.2400000000000D+00  1.8250327473757D-04 -3.6207055237080D-04
   226  2.2500000000000D+00  1.2564189258550D-04 -2.4510096865836D-04
   227  2.2600000000000D+00  8.3536279104482D-05 -1.6395909191391D-04
   228  2.2700000000000D+00  5.3744358481309D-05 -1.1020005211979D-04
   229  2.2800000000000D+00  3.4248256732512D-05 -7.7611267744979D-05
   230  2.2900000000000D+00  2.3008640215331D-05 -6.0745776626314D-05
   231  2.3000000000000D+00  1.8419989318895D-05 -5.6003114430382D-05
   232  2.3100000000000D+00  1.6412957684382D-05 -5.3320084206728D-05
   233  2.3200000000000D+00  1.3701199517656D-05 -4.5070197831932D-05
   234  2.3300000000000D+00  8.3025377781157D-06 -2.7342593458382D-05
   235  2.3400000000000D+00  2.5535276759407D-06 -8.3647874966392D-06
   236  2.3500000000000D+00 -9.8888761020078D-07  3.3213089532205D-06
   237  2.3600000000000D+00 -1.4579715968773D-06  4.9013523585907D-06
   238  2.3700000000000D+00 -4.6167644177192D-07  1.5523119932201D-06
   239  2.3800000000000D+00  2.4671105373628D-07 -8.3956927222206D-07
   240  2.3900000000000D+00  3.0848458680335D-07 -1.0517648260515D-06
   241  2.4000000000000D+00  6.3094859761682D-08 -2.1545515629526D-07
   242  2.4100000000000D+00 -3.4489622579182D-08  1.1318248007143D-07
   243  2.4200000000000D+00 -3.7507154861591D-08  1.2308493077626D-07
   244  2.4300000000000D+00 -3.3624693804453D-09  1.1034409633486D-08
   245  2.4400000000000D+00  0.0000000000000D+00  0.0000000000000D+00
   246  2.4500000000000D+00  0.0000000000000D+00  0.0000000000000D+00
   247  2.4600000000000D+00  0.0000000000000D+00  0.0000000000000D+00
   248  2.4700000000000D+00  0.0000000000000D+00  0.0000000000000D+00
   249  2.4800000000000D+00  0.0000000000000D+00  0.0000000000000D+00
   250  2.4900000000000D+00  0.0000000000000D+00  0.0000000000000D+00
   251  2.5000000000000D+00  0.0000000000000D+00  0.0000000000000D+00
   252  2.5100000000000D+00  0.0000000000000D+00  0.0000000000000D+00
   253  2.5200000000000D+00  0.0000000000000D+00  0.0000000000000D+00
   254  2.5300000000000D+00  0.0000000000000D+00  0.0000000000000D+00
   255  2.5400000000000D+00  0.0000000000000D+00  0.0000000000000D+00
   256  2.5500000000000D+00  0.0000000000000D+00  0.0000000000000D+00
   257  2.5600000000000D+00  0.0000000000000D+00  0.0000000000000D+00
   258  2.5700000000000D+00  0.0000000000000D+00  0.0000000000000D+00
   259  2.5800000000000D+00  0.0000000000000D+00  0.0000000000000D+00
   260  2.5900000000000D+00  0.0000000000000D+00  0.0000000000000D+00
   261  2.6000000000000D+00  0.0000000000000D+00  0.0000000000000D+00
   262  2.6100000000000D+00  0.0000000000000D+00  0.0000000000000D+00
   263  2.6200000000000D+00  0.0000000000000D+00  0.0000000000000D+00
   264  2.6300000000000D+00  0.0000000000000D+00  0.0000000000000D+00
   265  2.6400000000000D+00  0.0000000000000D+00  0.0000000000000D+00
   266  2.6500000000000D+00  0.0000000000000D+00  0.0000000000000D+00
   267  2.6600000000000D+00  0.0000000000000D+00  0.0000000000000D+00
   268  2.6700000000000D+00  0.0000000000000D+00  0.0000000000000D+00
   269  2.6800000000000D+00  0.0000000000000D+00  0.0000000000000D+00
   270  2.6900000000000D+00  0.0000000000000D+00  0.0000000000000D+00
   271  2.7000000000000D+00  0.0000000000000D+00  0.0000000000000D+00
   272  2.7100000000000D+00  0.0000000000000D+00  0.0000000000000D+00
   273  2.7200000000000D+00  0.0000000000000D+00  0.0000000000000D+00
   274  2.7300000000000D+00  0.0000000000000D+00  0.0000000000000D+00
   275  2.7400000000000D+00  0.0000000000000D+00  0.0000000000000D+00
   276  2.7500000000000D+00  0.0000000000000D+00  0.0000000000000D+00
   277  2.7600000000000D+00  0.0000000000000D+00  0.0000000000000D+00
   278  2.7700000000000D+00  0.0000000000000D+00  0.0000000000000D+00
   279  2.7800000000000D+00  0.0000000000000D+00  0.0000000000000D+00
   280  2.7900000000000D+00  0.0000000000000D+00  0.0000000000000D+00
   281  2.8000000000000D+00  0.0000000000000D+00  0.0000000000000D+00
   282  2.8100000000000D+00  0.0000000000000D+00  0.0000000000000D+00
   283  2.8200000000000D+00  0.0000000000000D+00  0.0000000000000D+00
   284  2.8300000000000D+00  0.0000000000000D+00  0.0000000000000D+00
   285  2.8400000000000D+00  0.0000000000000D+00  0.0000000000000D+00
   286  2.8500000000000D+00  0.0000000000000D+00  0.0000000000000D+00
   287  2.8600000000000D+00  0.0000000000000D+00  0.0000000000000D+00
   288  2.8700000000000D+00  0.0000000000000D+00  0.0000000000000D+00
   289  2.8800000000000D+00  0.0000000000000D+00  0.0000000000000D+00
   290  2.8900000000000D+00  0.0000000000000D+00  0.0000000000000D+00
   291  2.9000000000000D+00  0.0000000000000D+00  0.0000000000000D+00
   292  2.9100000000000D+00  0.0000000000000D+00  0.0000000000000D+00
   293  2.9200000000000D+00  0.0000000000000D+00  0.0000000000000D+00
   294  2.9300000000000D+00  0.0000000000000D+00  0.0000000000000D+00
   295  2.9400000000000D+00  0.0000000000000D+00  0.0000000000000D+00
   296  2.9500000000000D+00  0.0000000000000D+00  0.0000000000000D+00
   297  2.9600000000000D+00  0.0000000000000D+00  0.0000000000000D+00
   298  2.9700000000000D+00  0.0000000000000D+00  0.0000000000000D+00
   299  2.9800000000000D+00  0.0000000000000D+00  0.0000000000000D+00
   300  2.9900000000000D+00  0.0000000000000D+00  0.0000000000000D+00
   301  3.0000000000000D+00  0.0000000000000D+00  0.0000000000000D+00
   302  3.0100000000000D+00  0.0000000000000D+00  0.0000000000000D+00
   303  3.0200000000000D+00  0.0000000000000D+00  0.0000000000000D+00
   304  3.0300000000000D+00  0.0000000000000D+00  0.0000000000000D+00
   305  3.0400000000000D+00  0.0000000000000D+00  0.0000000000000D+00
   306  3.0500000000000D+00  0.0000000000000D+00  0.0000000000000D+00
   307  3.0600000000000D+00  0.0000000000000D+00  0.0000000000000D+00
   308  3.0700000000000D+00  0.0000000000000D+00  0.0000000000000D+00
   309  3.0800000000000D+00  0.0000000000000D+00  0.0000000000000D+00
   310  3.0900000000000D+00  0.0000000000000D+00  0.0000000000000D+00
   311  3.1000000000000D+00  0.0000000000000D+00  0.0000000000000D+00
   312  3.1100000000000D+00  0.0000000000000D+00  0.0000000000000D+00
   313  3.1200000000000D+00  0.0000000000000D+00  0.0000000000000D+00
   314  3.1300000000000D+00  0.0000000000000D+00  0.0000000000000D+00
   315  3.1400000000000D+00  0.0000000000000D+00  0.0000000000000D+00
   316  3.1500000000000D+00  0.0000000000000D+00  0.0000000000000D+00
   317  3.1600000000000D+00  0.0000000000000D+00  0.0000000000000D+00
   318  3.1700000000000D+00  0.0000000000000D+00  0.0000000000000D+00
   319  3.1800000000000D+00  0.0000000000000D+00  0.0000000000000D+00
   320  3.1900000000000D+00  0.0000000000000D+00  0.0000000000000D+00
   321  3.2000000000000D+00  0.0000000000000D+00  0.0000000000000D+00
   322  3.2100000000000D+00  0.0000000000000D+00  0.0000000000000D+00
   323  3.2200000000000D+00  0.0000000000000D+00  0.0000000000000D+00
   324  3.2300000000000D+00  0.0000000000000D+00  0.0000000000000D+00
   325  3.2400000000000D+00  0.0000000000000D+00  0.0000000000000D+00
   326  3.2500000000000D+00  0.0000000000000D+00  0.0000000000000D+00
   327  3.2600000000000D+00  0.0000000000000D+00  0.0000000000000D+00
   328  3.2700000000000D+00  0.0000000000000D+00  0.0000000000000D+00
   329  3.2800000000000D+00  0.0000000000000D+00  0.0000000000000D+00
   330  3.2900000000000D+00  0.0000000000000D+00  0.0000000000000D+00
   331  3.3000000000000D+00  0.0000000000000D+00  0.0000000000000D+00
   332  3.3100000000000D+00  0.0000000000000D+00  0.0000000000000D+00
   333  3.3200000000000D+00  0.0000000000000D+00  0.0000000000000D+00
   334  3.3300000000000D+00  0.0000000000000D+00  0.0000000000000D+00
   335  3.3400000000000D+00  0.0000000000000D+00  0.0000000000000D+00
   336  3.3500000000000D+00  0.0000000000000D+00  0.0000000000000D+00
   337  3.3600000000000D+00  0.0000000000000D+00  0.0000000000000D+00
   338  3.3700000000000D+00  0.0000000000000D+00  0.0000000000000D+00
   339  3.3800000000000D+00  0.0000000000000D+00  0.0000000000000D+00
   340  3.3900000000000D+00  0.0000000000000D+00  0.0000000000000D+00
   341  3.4000000000000D+00  0.0000000000000D+00  0.0000000000000D+00
   342  3.4100000000000D+00  0.0000000000000D+00  0.0000000000000D+00
   343  3.4200000000000D+00  0.0000000000000D+00  0.0000000000000D+00
   344  3.4300000000000D+00  0.0000000000000D+00  0.0000000000000D+00
   345  3.4400000000000D+00  0.0000000000000D+00  0.0000000000000D+00
   346  3.4500000000000D+00  0.0000000000000D+00  0.0000000000000D+00
   347  3.4600000000000D+00  0.0000000000000D+00  0.0000000000000D+00
   348  3.4700000000000D+00  0.0000000000000D+00  0.0000000000000D+00
   349  3.4800000000000D+00  0.0000000000000D+00  0.0000000000000D+00
   350  3.4900000000000D+00  0.0000000000000D+00  0.0000000000000D+00
   351  3.5000000000000D+00  0.0000000000000D+00  0.0000000000000D+00
   352  3.5100000000000D+00  0.0000000000000D+00  0.0000000000000D+00
   353  3.5200000000000D+00  0.0000000000000D+00  0.0000000000000D+00
   354  3.5300000000000D+00  0.0000000000000D+00  0.0000000000000D+00
   355  3.5400000000000D+00  0.0000000000000D+00  0.0000000000000D+00
   356  3.5500000000000D+00  0.0000000000000D+00  0.0000000000000D+00
   357  3.5600000000000D+00  0.0000000000000D+00  0.0000000000000D+00
   358  3.5700000000000D+00  0.0000000000000D+00  0.0000000000000D+00
   359  3.5800000000000D+00  0.0000000000000D+00  0.0000000000000D+00
   360  3.5900000000000D+00  0.0000000000000D+00  0.0000000000000D+00
   361  3.6000000000000D+00  0.0000000000000D+00  0.0000000000000D+00
   362  3.6100000000000D+00  0.0000000000000D+00  0.0000000000000D+00
   363  3.6200000000000D+00  0.0000000000000D+00  0.0000000000000D+00
   364  3.6300000000000D+00  0.0000000000000D+00  0.0000000000000D+00
   365  3.6400000000000D+00  0.0000000000000D+00  0.0000000000000D+00
   366  3.6500000000000D+00  0.0000000000000D+00  0.0000000000000D+00
   367  3.6600000000000D+00  0.0000000000000D+00  0.0000000000000D+00
   368  3.6700000000000D+00  0.0000000000000D+00  0.0000000000000D+00
   369  3.6800000000000D+00  0.0000000000000D+00  0.0000000000000D+00
   370  3.6900000000000D+00  0.0000000000000D+00  0.0000000000000D+00
   371  3.7000000000000D+00  0.0000000000000D+00  0.0000000000000D+00
   372  3.7100000000000D+00  0.0000000000000D+00  0.0000000000000D+00
   373  3.7200000000000D+00  0.0000000000000D+00  0.0000000000000D+00
   374  3.7300000000000D+00  0.0000000000000D+00  0.0000000000000D+00
   375  3.7400000000000D+00  0.0000000000000D+00  0.0000000000000D+00
   376  3.7500000000000D+00  0.0000000000000D+00  0.0000000000000D+00
   377  3.7600000000000D+00  0.0000000000000D+00  0.0000000000000D+00
   378  3.7700000000000D+00  0.0000000000000D+00  0.0000000000000D+00
   379  3.7800000000000D+00  0.0000000000000D+00  0.0000000000000D+00
   380  3.7900000000000D+00  0.0000000000000D+00  0.0000000000000D+00
   381  3.8000000000000D+00  0.0000000000000D+00  0.0000000000000D+00
   382  3.8100000000000D+00  0.0000000000000D+00  0.0000000000000D+00
   383  3.8200000000000D+00  0.0000000000000D+00  0.0000000000000D+00
   384  3.8300000000000D+00  0.0000000000000D+00  0.0000000000000D+00
   385  3.8400000000000D+00  0.0000000000000D+00  0.0000000000000D+00
   386  3.8500000000000D+00  0.0000000000000D+00  0.0000000000000D+00
   387  3.8600000000000D+00  0.0000000000000D+00  0.0000000000000D+00
   388  3.8700000000000D+00  0.0000000000000D+00  0.0000000000000D+00
   389  3.8800000000000D+00  0.0000000000000D+00  0.0000000000000D+00
   390  3.8900000000000D+00  0.0000000000000D+00  0.0000000000000D+00
   391  3.9000000000000D+00  0.0000000000000D+00  0.0000000000000D+00
   392  3.9100000000000D+00  0.0000000000000D+00  0.0000000000000D+00
   393  3.9200000000000D+00  0.0000000000000D+00  0.0000000000000D+00
   394  3.9300000000000D+00  0.0000000000000D+00  0.0000000000000D+00
   395  3.9400000000000D+00  0.0000000000000D+00  0.0000000000000D+00
   396  3.9500000000000D+00  0.0000000000000D+00  0.0000000000000D+00
   397  3.9600000000000D+00  0.0000000000000D+00  0.0000000000000D+00
   398  3.9700000000000D+00  0.0000000000000D+00  0.0000000000000D+00
   399  3.9800000000000D+00  0.0000000000000D+00  0.0000000000000D+00
   400  3.9900000000000D+00  0.0000000000000D+00  0.0000000000000D+00
   401  4.0000000000000D+00  0.0000000000000D+00  0.0000000000000D+00
   402  4.0100000000000D+00  0.0000000000000D+00  0.0000000000000D+00
   403  4.0200000000000D+00  0.0000000000000D+00  0.0000000000000D+00
   404  4.0300000000000D+00  0.0000000000000D+00  0.0000000000000D+00
   405  4.0400000000000D+00  0.0000000000000D+00  0.0000000000000D+00
   406  4.0500000000000D+00  0.0000000000000D+00  0.0000000000000D+00
   407  4.0600000000000D+00  0.0000000000000D+00  0.0000000000000D+00
   408  4.0700000000000D+00  0.0000000000000D+00  0.0000000000000D+00
   409  4.0800000000000D+00  0.0000000000000D+00  0.0000000000000D+00
   410  4.0900000000000D+00  0.0000000000000D+00  0.0000000000000D+00
   411  4.1000000000000D+00  0.0000000000000D+00  0.0000000000000D+00
   412  4.1100000000000D+00  0.0000000000000D+00  0.0000000000000D+00
   413  4.1200000000000D+00  0.0000000000000D+00  0.0000000000000D+00
   414  4.1300000000000D+00  0.0000000000000D+00  0.0000000000000D+00
   415  4.1400000000000D+00  0.0000000000000D+00  0.0000000000000D+00
   416  4.1500000000000D+00  0.0000000000000D+00  0.0000000000000D+00
   417  4.1600000000000D+00  0.0000000000000D+00  0.0000000000000D+00
   418  4.1700000000000D+00  0.0000000000000D+00  0.0000000000000D+00
   419  4.1800000000000D+00  0.0000000000000D+00  0.0000000000000D+00
   420  4.1900000000000D+00  0.0000000000000D+00  0.0000000000000D+00
   421  4.2000000000000D+00  0.0000000000000D+00  0.0000000000000D+00
   422  4.2100000000000D+00  0.0000000000000D+00  0.0000000000000D+00