Ni    ONCVPSP-3.3.1  r_core=   2.20931   2.20931   2.28980
     28.0000     18.0000      210905    zatom,zion,pspd
     8 -116133   2     4   600     0    pspcod,pspxc,lmax,lloc,mmax,r2well
  5.99000000  0.00000000  0.00000000    rchrg fchrg qchrg
     2     2     2     0     0    nproj
     1     1           extension_switch
   0                        -3.4222802359006D+00 -2.1686968747879D-01
     1  0.0000000000000D+00 -6.5025762552295D-13 -7.7084449934262D-12
     2  1.0000000000000D-02  4.1746850598391D-02 -3.3544311104524D-02
     3  2.0000000000000D-02  8.3449261280669D-02 -6.7019360610840D-02
     4  3.0000000000000D-02  1.2506285843387D-01 -1.0035598477003D-01
     5  4.0000000000000D-02  1.6654340093992D-01 -1.3348521561324D-01
     6  5.0000000000000D-02  2.0784684614478D-01 -1.6633837904343D-01
     7  6.0000000000000D-02  2.4892941549406D-01 -1.9884719316375D-01
     8  7.0000000000000D-02  2.8974765972468D-01 -2.3094386691214D-01
     9  8.0000000000000D-02  3.3025852350286D-01 -2.6256119906426D-01
    10  9.0000000000000D-02  3.7041940939953D-01 -2.9363267765712D-01
    11  1.0000000000000D-01  4.1018824109508D-01 -3.2409257987452D-01
    12  1.1000000000000D-01  4.4952352570677D-01 -3.5387607242248D-01
    13  1.2000000000000D-01  4.8838441513326D-01 -3.8291931240818D-01
    14  1.3000000000000D-01  5.2673076631224D-01 -4.1115954872013D-01
    15  1.4000000000000D-01  5.6452320028868D-01 -4.3853522388986D-01
    16  1.5000000000000D-01  6.0172315999333D-01 -4.6498607639690D-01
    17  1.6000000000000D-01  6.3829296663259D-01 -4.9045324335941D-01
    18  1.7000000000000D-01  6.7419587459345D-01 -5.1487936353222D-01
    19  1.8000000000000D-01  7.0939612476916D-01 -5.3820868051316D-01
    20  1.9000000000000D-01  7.4385899621394D-01 -5.6038714603643D-01
    21  2.0000000000000D-01  7.7755085603761D-01 -5.8136252321020D-01
    22  2.1000000000000D-01  8.1043920745359D-01 -6.0108448953288D-01
    23  2.2000000000000D-01  8.4249273589705D-01 -6.1950473950051D-01
    24  2.3000000000000D-01  8.7368135313268D-01 -6.3657708659545D-01
    25  2.4000000000000D-01  9.0397623927494D-01 -6.5225756442490D-01
    26  2.5000000000000D-01  9.3334988264719D-01 -6.6650452675643D-01
    27  2.6000000000000D-01  9.6177611740931D-01 -6.7927874617743D-01
    28  2.7000000000000D-01  9.8923015888744D-01 -6.9054351108575D-01
    29  2.8000000000000D-01  1.0156886365431D+00 -7.0026472070018D-01
    30  2.9000000000000D-01  1.0411296245230D+00 -7.0841097776278D-01
    31  3.0000000000000D-01  1.0655326697348D+00 -7.1495367858871D-01
    32  3.1000000000000D-01  1.0888788173988D+00 -7.1986710010570D-01
    33  3.2000000000000D-01  1.1111506340293D+00 -7.2312848351261D-01
    34  3.3000000000000D-01  1.1323322278039D+00 -7.2471811417636D-01
    35  3.4000000000000D-01  1.1524092662844D+00 -7.2461939737790D-01
    36  3.5000000000000D-01  1.1713689914571D+00 -7.2281892951208D-01
    37  3.6000000000000D-01  1.1892002320641D+00 -7.1930656434196D-01
    38  3.7000000000000D-01  1.2058934132050D+00 -7.1407547390690D-01
    39  3.8000000000000D-01  1.2214405631893D+00 -7.0712220368450D-01
    40  3.9000000000000D-01  1.2358353176298D+00 -6.9844672161013D-01
    41  4.0000000000000D-01  1.2490729207673D+00 -6.8805246056358D-01
    42  4.1000000000000D-01  1.2611502240259D+00 -6.7594635394135D-01
    43  4.2000000000000D-01  1.2720656818027D+00 -6.6213886394402D-01
    44  4.3000000000000D-01  1.2818193444995D+00 -6.4664400222254D-01
    45  4.4000000000000D-01  1.2904128488105D+00 -6.2947934254350D-01
    46  4.5000000000000D-01  1.2978494052864D+00 -6.1066602515284D-01
    47  4.6000000000000D-01  1.3041337831988D+00 -5.9022875253918D-01
    48  4.7000000000000D-01  1.3092722927351D+00 -5.6819577632204D-01
    49  4.8000000000000D-01  1.3132727645599D+00 -5.4459887501725D-01
    50  4.9000000000000D-01  1.3161445267833D+00 -5.1947332246031D-01
    51  5.0000000000000D-01  1.3178983793824D+00 -4.9285784670016D-01
    52  5.1000000000000D-01  1.3185465661273D+00 -4.6479457920870D-01
    53  5.2000000000000D-01  1.3181027440696D+00 -4.3532899428687D-01
    54  5.3000000000000D-01  1.3165819506519D+00 -4.0450983858474D-01
    55  5.4000000000000D-01  1.3140005685099D+00 -3.7238905069225D-01
    56  5.5000000000000D-01  1.3103762880337D+00 -3.3902167079641D-01
    57  5.6000000000000D-01  1.3057280677690D+00 -3.0446574044288D-01
    58  5.7000000000000D-01  1.3000760927373D+00 -2.6878219248149D-01
    59  5.8000000000000D-01  1.2934417307613D+00 -2.3203473131868D-01
    60  5.9000000000000D-01  1.2858474868861D+00 -1.9428970364338D-01
    61  6.0000000000000D-01  1.2773169559894D+00 -1.5561595983708D-01
    62  6.1000000000000D-01  1.2678747736815D+00 -1.1608470632262D-01
    63  6.2000000000000D-01  1.2575465655944D+00 -7.5769349150758D-02
    64  6.3000000000000D-01  1.2463588951681D+00 -3.4745329167035D-02
    65  6.4000000000000D-01  1.2343392100425D+00  6.9100508556325D-03
    66  6.5000000000000D-01  1.2215157871677D+00  4.9117806690522D-02
    67  6.6000000000000D-01  1.2079176767472D+00  9.1797460267936D-02
    68  6.7000000000000D-01  1.1935746451339D+00  1.3486723391435D-01
    69  6.8000000000000D-01  1.1785171167973D+00  1.7824425067284D-01
    70  6.9000000000000D-01  1.1627761154863D+00  2.2184474012118D-01
    71  7.0000000000000D-01  1.1463832047108D+00  2.6558424906942D-01
    72  7.1000000000000D-01  1.1293704276689D+00  3.0937785648719D-01
    73  7.2000000000000D-01  1.1117702467470D+00  3.5314039198022D-01
    74  7.3000000000000D-01  1.0936154827208D+00  3.9678665710948D-01
    75  7.4000000000000D-01  1.0749392537864D+00  4.4023164882140D-01
    76  7.5000000000000D-01  1.0557749145504D+00  4.8339078423677D-01
    77  7.6000000000000D-01  1.0361559951089D+00  5.2618012602744D-01
    78  7.7000000000000D-01  1.0161161403442D+00  5.6851660759561D-01
    79  7.8000000000000D-01  9.9568904956718D-01  6.1031825725854D-01
    80  7.9000000000000D-01  9.7490841663371D-01  6.5150442063424D-01
    81  8.0000000000000D-01  9.5380787065996D-01  6.9199598041898D-01
    82  8.1000000000000D-01  9.3242091746248D-01  7.3171557274722D-01
    83  8.2000000000000D-01  9.1078088184491D-01  7.7058779932773D-01
    84  8.3000000000000D-01  8.8892085085188D-01  8.0853943455621D-01
    85  8.4000000000000D-01  8.6687361810817D-01  8.4549962681636D-01
    86  8.5000000000000D-01  8.4467162935770D-01  8.8140009319491D-01
    87  8.6000000000000D-01  8.2234692931463D-01  9.1617530685497D-01
    88  8.7000000000000D-01  7.9993110993446D-01  9.4976267633397D-01
    89  8.8000000000000D-01  7.7745526021008D-01  9.8210271605788D-01
    90  8.9000000000000D-01  7.5494991759309D-01  1.0131392073926D+00
    91  9.0000000000000D-01  7.3244502113672D-01  1.0428193495863D+00
    92  9.1000000000000D-01  7.0996986645207D-01  1.0710938999914D+00
    93  9.2000000000000D-01  6.8755306256441D-01  1.0979173029951D+00
    94  9.3000000000000D-01  6.6522249075162D-01  1.1232478071294D+00
    95  9.4000000000000D-01  6.4300526544104D-01  1.1470475698734D+00
    96  9.5000000000000D-01  6.2092769723615D-01  1.1692827497137D+00
    97  9.6000000000000D-01  5.9901525813830D-01  1.1899235850722D+00
    98  9.7000000000000D-01  5.7729254902329D-01  1.2089444597677D+00
    99  9.8000000000000D-01  5.5578326942641D-01  1.2263239547277D+00
   100  9.9000000000000D-01  5.3451018968336D-01  1.2420448857261D+00
   101  1.0000000000000D+00  5.1349512546865D-01  1.2560943269745D+00
   102  1.0100000000000D+00  4.9275891476604D-01  1.2684636204584D+00
   103  1.0200000000000D+00  4.7232139729992D-01  1.2791483709640D+00
   104  1.0300000000000D+00  4.5220139644940D-01  1.2881484268033D+00
   105  1.0400000000000D+00  4.3241670366078D-01  1.2954678463033D+00
   106  1.0500000000000D+00  4.1298406536716D-01  1.3011148501886D+00
   107  1.0600000000000D+00  3.9391917241779D-01  1.3051017600374D+00
   108  1.0700000000000D+00  3.7523665201290D-01  1.3074449230612D+00
   109  1.0800000000000D+00  3.5695006213320D-01  1.3081646235075D+00
   110  1.0900000000000D+00  3.3907188844709D-01  1.3072849810442D+00
   111  1.1000000000000D+00  3.2161354367158D-01  1.3048338365449D+00
   112  1.1100000000000D+00  3.0458536935796D-01  1.3008426257337D+00
   113  1.1200000000000D+00  2.8799664006523D-01  1.2953462412181D+00
   114  1.1300000000000D+00  2.7185556987988D-01  1.2883828834717D+00
   115  1.1400000000000D+00  2.5616932123335D-01  1.2799939013885D+00
   116  1.1500000000000D+00  2.4094401596438D-01  1.2702236230600D+00
   117  1.1600000000000D+00  2.2618474856622D-01  1.2591191774801D+00
   118  1.1700000000000D+00  2.1189560155447D-01  1.2467303079154D+00
   119  1.1800000000000D+00  1.9807966288509D-01  1.2331091777146D+00
   120  1.1900000000000D+00  1.8473904534935D-01  1.2183101693529D+00
   121  1.2000000000000D+00  1.7187490786510D-01  1.2023896775512D+00
   122  1.2100000000000D+00  1.5948747858097D-01  1.1854058973200D+00
   123  1.2200000000000D+00  1.4757607970610D-01  1.1674186077997D+00
   124  1.2300000000000D+00  1.3613915397366D-01  1.1484889527896D+00
   125  1.2400000000000D+00  1.2517429264259D-01  1.1286792188656D+00
   126  1.2500000000000D+00  1.1467826493933D-01  1.1080526119918D+00
   127  1.2600000000000D+00  1.0464704883898D-01  1.0866730335417D+00
   128  1.2700000000000D+00  9.5075863080745D-02  1.0646048566367D+00
   129  1.2800000000000D+00  8.5959200312381D-02  1.0419127037039D+00
   130  1.2900000000000D+00  7.7290861255669D-02  1.0186612261586D+00
   131  1.3000000000000D+00  6.9063989782589D-02  9.9491488708583D-01
   132  1.3100000000000D+00  6.1271108791959D-02  9.7073774778510D-01
   133  1.3200000000000D+00  5.3904156774580D-02  9.4619325903930D-01
   134  1.3300000000000D+00  4.6954524954360D-02  9.2134405790604D-01
   135  1.3400000000000D+00  4.0413094893409D-02  8.9625177083554D-01
   136  1.3500000000000D+00  3.4270276447927D-02  8.7097682388799D-01
   137  1.3600000000000D+00  2.8516045964140D-02  8.4557826073764D-01
   138  1.3700000000000D+00  2.3139984602081D-02  8.2011356919954D-01
   139  1.3800000000000D+00  1.8131316677547D-02  7.9463851689965D-01
   140  1.3900000000000D+00  1.3478947915400D-02  7.6920699666974D-01
   141  1.4000000000000D+00  9.1715035040000D-03  7.4387088229793D-01
   142  1.4100000000000D+00  5.1973658506180D-03  7.1867989505159D-01
   143  1.4200000000000D+00  1.5447119324571D-03  6.9368148150667D-01
   144  1.4300000000000D+00 -1.7984498560416D-03  6.6892070307663D-01
   145  1.4400000000000D+00 -4.8442434516269D-03  6.4444013753754D-01
   146  1.4500000000000D+00 -7.6048895683679D-03  6.2027979298314D-01
   147  1.4600000000000D+00 -1.0092670920202D-02  5.9647703429504D-01
   148  1.4700000000000D+00 -1.2319898315861D-02  5.7306652247141D-01
   149  1.4800000000000D+00 -1.4298877702215D-02  5.5008016686047D-01
   150  1.4900000000000D+00 -1.6041878233325D-02  5.2754709039252D-01
   151  1.5000000000000D+00 -1.7561101447067D-02  5.0549360792578D-01
   152  1.5100000000000D+00 -1.8868651601423D-02  4.8394321750264D-01
   153  1.5200000000000D+00 -1.9976507258092D-02  4.6291660468767D-01
   154  1.5300000000000D+00 -2.0896494146323D-02  4.4243165958349D-01
   155  1.5400000000000D+00 -2.1640259385852D-02  4.2250350659465D-01
   156  1.5500000000000D+00 -2.2219247098670D-02  4.0314454651512D-01
   157  1.5600000000000D+00 -2.2644675465827D-02  3.8436451078843D-01
   158  1.5700000000000D+00 -2.2927515263960D-02  3.6617052756523D-01
   159  1.5800000000000D+00 -2.3078469910093D-02  3.4856719917829D-01
   160  1.5900000000000D+00 -2.3107957056480D-02  3.3155669070773D-01
   161  1.6000000000000D+00 -2.3026091735258D-02  3.1513882906152D-01
   162  1.6100000000000D+00 -2.2842671101715D-02  2.9931121226994D-01
   163  1.6200000000000D+00 -2.2567160747866D-02  2.8406932827299D-01
   164  1.6300000000000D+00 -2.2208682640916D-02  2.6940668289505D-01
   165  1.6400000000000D+00 -2.1776004632337D-02  2.5531493619617D-01
   166  1.6500000000000D+00 -2.1277531594806D-02  2.4178404685440D-01
   167  1.6600000000000D+00 -2.0721298112781D-02  2.2880242374408D-01
   168  1.6700000000000D+00 -2.0114962778935D-02  2.1635708428299D-01
   169  1.6800000000000D+00 -1.9465804010670D-02  2.0443381874872D-01
   170  1.6900000000000D+00 -1.8780717428976D-02  1.9301736003724D-01
   171  1.7000000000000D+00 -1.8066214704970D-02  1.8209155812960D-01
   172  1.7100000000000D+00 -1.7328423907227D-02  1.7163955864251D-01
   173  1.7200000000000D+00 -1.6573091245565D-02  1.6164398481759D-01
   174  1.7300000000000D+00 -1.5805584237711D-02  1.5208712222516D-01
   175  1.7400000000000D+00 -1.5030896184061D-02  1.4295110565937D-01
   176  1.7500000000000D+00 -1.4253651971397D-02  1.3421810738895D-01
   177  1.7600000000000D+00 -1.3478115083420D-02  1.2587052639245D-01
   178  1.7700000000000D+00 -1.2708195828562D-02  1.1789117763779D-01
   179  1.7800000000000D+00 -1.1947460664914D-02  1.1026348117827D-01
   180  1.7900000000000D+00 -1.1199142614032D-02  1.0297165007432D-01
   181  1.8000000000000D+00 -1.0466152654415D-02  9.6000877001463D-02
   182  1.8100000000000D+00 -9.7510921824452D-03  8.9337524958778D-02
   183  1.8200000000000D+00 -9.0562657371530D-03  8.2969284064954D-02
   184  1.8300000000000D+00 -8.3836961686260D-03  7.6885412089427D-02
   185  1.8400000000000D+00 -7.7351372848353D-03  7.1076802167504D-02
   186  1.8500000000000D+00 -7.1120885195780D-03  6.5536115323956D-02
   187  1.8600000000000D+00 -6.5158176066528D-03  6.0258302585392D-02
   188  1.8700000000000D+00 -5.9473786330469D-03  5.5240860824696D-02
   189  1.8800000000000D+00 -5.4076016426038D-03  5.0482534003893D-02
   190  1.8900000000000D+00 -4.8970934659066D-03  4.5982573412289D-02
   191  1.9000000000000D+00 -4.4162386822370D-03  4.1740092947587D-02
   192  1.9100000000000D+00 -3.9651868235181D-03  3.7752645825993D-02
   193  1.9200000000000D+00 -3.5438724094094D-03  3.4016548525245D-02
   194  1.9300000000000D+00 -3.1520361666479D-03  3.0527274961981D-02
   195  1.9400000000000D+00 -2.7892407379655D-03  2.7279534772243D-02
   196  1.9500000000000D+00 -2.4548840372607D-03  2.4267208711195D-02
   197  1.9600000000000D+00 -2.1482168818408D-03  2.1483519081259D-02
   198  1.9700000000000D+00 -1.8683582405664D-03  1.8921070862533D-02
   199  1.9800000000000D+00 -1.6143112303105D-03  1.6571935894447D-02
   200  1.9900000000000D+00 -1.3849786875526D-03  1.4427724767821D-02
   201  2.0000000000000D+00 -1.1791785109980D-03  1.2479655806310D-02
   202  2.0100000000000D+00 -9.9565863825957D-04  1.0718620667257D-02
   203  2.0200000000000D+00 -8.3311161166938D-04  9.1352465607820D-03
   204  2.0300000000000D+00 -6.9018872258805D-04  7.7199552381949D-03
   205  2.0400000000000D+00 -5.6551356183877D-04  6.4630182251097D-03
   206  2.0500000000000D+00 -4.5769508166894D-04  5.3546088441722D-03
   207  2.0600000000000D+00 -3.6533995869428D-04  4.3848504573506D-03
   208  2.0700000000000D+00 -2.8706432369897D-04  3.5438612511860D-03
   209  2.0800000000000D+00 -2.2150479370650D-04  2.8217954964928D-03
   210  2.0900000000000D+00 -1.6732868017002D-04  2.2088810722937D-03
   211  2.1000000000000D+00 -1.2324351916785D-04  1.6954536528999D-03
   212  2.1100000000000D+00 -8.8005668768377D-05  1.2719871574998D-03
   213  2.1200000000000D+00 -6.0428129881449D-05  9.2912079174065D-04
   214  2.1300000000000D+00 -3.9387500213958D-05  6.5768261275464D-04
   215  2.1400000000000D+00 -2.3822602855493D-05  4.4872250446865D-04
   216  2.1500000000000D+00 -1.2768905886501D-05  2.9347755103075D-04
   217  2.1600000000000D+00 -5.3479382426052D-06  1.8330970803405D-04
   218  2.1700000000000D+00 -7.3559693558360D-07  1.0995347667437D-04
   219  2.1800000000000D+00  1.9133278238565D-06  6.6158544899860D-05
   220  2.1900000000000D+00  3.3500299163383D-06  4.5374282774272D-05
   221  2.2000000000000D+00  3.8362400811037D-06  3.7242094538078D-05
   222  2.2100000000000D+00  3.4305076838583D-06  3.1472382365675D-05
   223  2.2200000000000D+00  2.1174850711918D-06  1.9530229018039D-05
   224  2.2300000000000D+00  6.7503871868706D-07  6.4167719845568D-06
   225  2.2400000000000D+00 -2.3072225881374D-07 -2.0180504165492D-06
   226  2.2500000000000D+00 -3.5215783124154D-07 -3.0910729959153D-06
   227  2.2600000000000D+00 -8.9255909483700D-08 -7.8758488676248D-07
   228  2.2700000000000D+00  7.1835473500558D-08  5.8034273657846D-07
   229  2.2800000000000D+00  7.4385344053204D-08  5.9696262531199D-07
   230  2.2900000000000D+00 -2.7728147014958D-10 -2.5480321196852D-09
   231  2.3000000000000D+00 -9.4387570846824D-09 -8.6735894067148D-08
   232  2.3100000000000D+00 -6.9882418648494D-09 -6.4217290546532D-08
   233  2.3200000000000D+00  0.0000000000000D+00  0.0000000000000D+00
   234  2.3300000000000D+00  0.0000000000000D+00  0.0000000000000D+00
   235  2.3400000000000D+00  0.0000000000000D+00  0.0000000000000D+00
   236  2.3500000000000D+00  0.0000000000000D+00  0.0000000000000D+00
   237  2.3600000000000D+00  0.0000000000000D+00  0.0000000000000D+00
   238  2.3700000000000D+00  0.0000000000000D+00  0.0000000000000D+00
   239  2.3800000000000D+00  0.0000000000000D+00  0.0000000000000D+00
   240  2.3900000000000D+00  0.0000000000000D+00  0.0000000000000D+00
   241  2.4000000000000D+00  0.0000000000000D+00  0.0000000000000D+00
   242  2.4100000000000D+00  0.0000000000000D+00  0.0000000000000D+00
   243  2.4200000000000D+00  0.0000000000000D+00  0.0000000000000D+00
   244  2.4300000000000D+00  0.0000000000000D+00  0.0000000000000D+00
   245  2.4400000000000D+00  0.0000000000000D+00  0.0000000000000D+00
   246  2.4500000000000D+00  0.0000000000000D+00  0.0000000000000D+00
   247  2.4600000000000D+00  0.0000000000000D+00  0.0000000000000D+00
   248  2.4700000000000D+00  0.0000000000000D+00  0.0000000000000D+00
   249  2.4800000000000D+00  0.0000000000000D+00  0.0000000000000D+00
   250  2.4900000000000D+00  0.0000000000000D+00  0.0000000000000D+00
   251  2.5000000000000D+00  0.0000000000000D+00  0.0000000000000D+00
   252  2.5100000000000D+00  0.0000000000000D+00  0.0000000000000D+00
   253  2.5200000000000D+00  0.0000000000000D+00  0.0000000000000D+00
   254  2.5300000000000D+00  0.0000000000000D+00  0.0000000000000D+00
   255  2.5400000000000D+00  0.0000000000000D+00  0.0000000000000D+00
   256  2.5500000000000D+00  0.0000000000000D+00  0.0000000000000D+00
   257  2.5600000000000D+00  0.0000000000000D+00  0.0000000000000D+00
   258  2.5700000000000D+00  0.0000000000000D+00  0.0000000000000D+00
   259  2.5800000000000D+00  0.0000000000000D+00  0.0000000000000D+00
   260  2.5900000000000D+00  0.0000000000000D+00  0.0000000000000D+00
   261  2.6000000000000D+00  0.0000000000000D+00  0.0000000000000D+00
   262  2.6100000000000D+00  0.0000000000000D+00  0.0000000000000D+00
   263  2.6200000000000D+00  0.0000000000000D+00  0.0000000000000D+00
   264  2.6300000000000D+00  0.0000000000000D+00  0.0000000000000D+00
   265  2.6400000000000D+00  0.0000000000000D+00  0.0000000000000D+00
   266  2.6500000000000D+00  0.0000000000000D+00  0.0000000000000D+00
   267  2.6600000000000D+00  0.0000000000000D+00  0.0000000000000D+00
   268  2.6700000000000D+00  0.0000000000000D+00  0.0000000000000D+00
   269  2.6800000000000D+00  0.0000000000000D+00  0.0000000000000D+00
   270  2.6900000000000D+00  0.0000000000000D+00  0.0000000000000D+00
   271  2.7000000000000D+00  0.0000000000000D+00  0.0000000000000D+00
   272  2.7100000000000D+00  0.0000000000000D+00  0.0000000000000D+00
   273  2.7200000000000D+00  0.0000000000000D+00  0.0000000000000D+00
   274  2.7300000000000D+00  0.0000000000000D+00  0.0000000000000D+00
   275  2.7400000000000D+00  0.0000000000000D+00  0.0000000000000D+00
   276  2.7500000000000D+00  0.0000000000000D+00  0.0000000000000D+00
   277  2.7600000000000D+00  0.0000000000000D+00  0.0000000000000D+00
   278  2.7700000000000D+00  0.0000000000000D+00  0.0000000000000D+00
   279  2.7800000000000D+00  0.0000000000000D+00  0.0000000000000D+00
   280  2.7900000000000D+00  0.0000000000000D+00  0.0000000000000D+00
   281  2.8000000000000D+00  0.0000000000000D+00  0.0000000000000D+00
   282  2.8100000000000D+00  0.0000000000000D+00  0.0000000000000D+00
   283  2.8200000000000D+00  0.0000000000000D+00  0.0000000000000D+00
   284  2.8300000000000D+00  0.0000000000000D+00  0.0000000000000D+00
   285  2.8400000000000D+00  0.0000000000000D+00  0.0000000000000D+00
   286  2.8500000000000D+00  0.0000000000000D+00  0.0000000000000D+00
   287  2.8600000000000D+00  0.0000000000000D+00  0.0000000000000D+00
   288  2.8700000000000D+00  0.0000000000000D+00  0.0000000000000D+00
   289  2.8800000000000D+00  0.0000000000000D+00  0.0000000000000D+00
   290  2.8900000000000D+00  0.0000000000000D+00  0.0000000000000D+00
   291  2.9000000000000D+00  0.0000000000000D+00  0.0000000000000D+00
   292  2.9100000000000D+00  0.0000000000000D+00  0.0000000000000D+00
   293  2.9200000000000D+00  0.0000000000000D+00  0.0000000000000D+00
   294  2.9300000000000D+00  0.0000000000000D+00  0.0000000000000D+00
   295  2.9400000000000D+00  0.0000000000000D+00  0.0000000000000D+00
   296  2.9500000000000D+00  0.0000000000000D+00  0.0000000000000D+00
   297  2.9600000000000D+00  0.0000000000000D+00  0.0000000000000D+00
   298  2.9700000000000D+00  0.0000000000000D+00  0.0000000000000D+00
   299  2.9800000000000D+00  0.0000000000000D+00  0.0000000000000D+00
   300  2.9900000000000D+00  0.0000000000000D+00  0.0000000000000D+00
   301  3.0000000000000D+00  0.0000000000000D+00  0.0000000000000D+00
   302  3.0100000000000D+00  0.0000000000000D+00  0.0000000000000D+00
   303  3.0200000000000D+00  0.0000000000000D+00  0.0000000000000D+00
   304  3.0300000000000D+00  0.0000000000000D+00  0.0000000000000D+00
   305  3.0400000000000D+00  0.0000000000000D+00  0.0000000000000D+00
   306  3.0500000000000D+00  0.0000000000000D+00  0.0000000000000D+00
   307  3.0600000000000D+00  0.0000000000000D+00  0.0000000000000D+00
   308  3.0700000000000D+00  0.0000000000000D+00  0.0000000000000D+00
   309  3.0800000000000D+00  0.0000000000000D+00  0.0000000000000D+00
   310  3.0900000000000D+00  0.0000000000000D+00  0.0000000000000D+00
   311  3.1000000000000D+00  0.0000000000000D+00  0.0000000000000D+00
   312  3.1100000000000D+00  0.0000000000000D+00  0.0000000000000D+00
   313  3.1200000000000D+00  0.0000000000000D+00  0.0000000000000D+00
   314  3.1300000000000D+00  0.0000000000000D+00  0.0000000000000D+00
   315  3.1400000000000D+00  0.0000000000000D+00  0.0000000000000D+00
   316  3.1500000000000D+00  0.0000000000000D+00  0.0000000000000D+00
   317  3.1600000000000D+00  0.0000000000000D+00  0.0000000000000D+00
   318  3.1700000000000D+00  0.0000000000000D+00  0.0000000000000D+00
   319  3.1800000000000D+00  0.0000000000000D+00  0.0000000000000D+00
   320  3.1900000000000D+00  0.0000000000000D+00  0.0000000000000D+00
   321  3.2000000000000D+00  0.0000000000000D+00  0.0000000000000D+00
   322  3.2100000000000D+00  0.0000000000000D+00  0.0000000000000D+00
   323  3.2200000000000D+00  0.0000000000000D+00  0.0000000000000D+00
   324  3.2300000000000D+00  0.0000000000000D+00  0.0000000000000D+00
   325  3.2400000000000D+00  0.0000000000000D+00  0.0000000000000D+00
   326  3.2500000000000D+00  0.0000000000000D+00  0.0000000000000D+00
   327  3.2600000000000D+00  0.0000000000000D+00  0.0000000000000D+00
   328  3.2700000000000D+00  0.0000000000000D+00  0.0000000000000D+00
   329  3.2800000000000D+00  0.0000000000000D+00  0.0000000000000D+00
   330  3.2900000000000D+00  0.0000000000000D+00  0.0000000000000D+00
   331  3.3000000000000D+00  0.0000000000000D+00  0.0000000000000D+00
   332  3.3100000000000D+00  0.0000000000000D+00  0.0000000000000D+00
   333  3.3200000000000D+00  0.0000000000000D+00  0.0000000000000D+00
   334  3.3300000000000D+00  0.0000000000000D+00  0.0000000000000D+00
   335  3.3400000000000D+00  0.0000000000000D+00  0.0000000000000D+00
   336  3.3500000000000D+00  0.0000000000000D+00  0.0000000000000D+00
   337  3.3600000000000D+00  0.0000000000000D+00  0.0000000000000D+00
   338  3.3700000000000D+00  0.0000000000000D+00  0.0000000000000D+00
   339  3.3800000000000D+00  0.0000000000000D+00  0.0000000000000D+00
   340  3.3900000000000D+00  0.0000000000000D+00  0.0000000000000D+00
   341  3.4000000000000D+00  0.0000000000000D+00  0.0000000000000D+00
   342  3.4100000000000D+00  0.0000000000000D+00  0.0000000000000D+00
   343  3.4200000000000D+00  0.0000000000000D+00  0.0000000000000D+00
   344  3.4300000000000D+00  0.0000000000000D+00  0.0000000000000D+00
   345  3.4400000000000D+00  0.0000000000000D+00  0.0000000000000D+00
   346  3.4500000000000D+00  0.0000000000000D+00  0.0000000000000D+00
   347  3.4600000000000D+00  0.0000000000000D+00  0.0000000000000D+00
   348  3.4700000000000D+00  0.0000000000000D+00  0.0000000000000D+00
   349  3.4800000000000D+00  0.0000000000000D+00  0.0000000000000D+00
   350  3.4900000000000D+00  0.0000000000000D+00  0.0000000000000D+00
   351  3.5000000000000D+00  0.0000000000000D+00  0.0000000000000D+00
   352  3.5100000000000D+00  0.0000000000000D+00  0.0000000000000D+00
   353  3.5200000000000D+00  0.0000000000000D+00  0.0000000000000D+00
   354  3.5300000000000D+00  0.0000000000000D+00  0.0000000000000D+00
   355  3.5400000000000D+00  0.0000000000000D+00  0.0000000000000D+00
   356  3.5500000000000D+00  0.0000000000000D+00  0.0000000000000D+00
   357  3.5600000000000D+00  0.0000000000000D+00  0.0000000000000D+00
   358  3.5700000000000D+00  0.0000000000000D+00  0.0000000000000D+00
   359  3.5800000000000D+00  0.0000000000000D+00  0.0000000000000D+00
   360  3.5900000000000D+00  0.0000000000000D+00  0.0000000000000D+00
   361  3.6000000000000D+00  0.0000000000000D+00  0.0000000000000D+00
   362  3.6100000000000D+00  0.0000000000000D+00  0.0000000000000D+00
   363  3.6200000000000D+00  0.0000000000000D+00  0.0000000000000D+00
   364  3.6300000000000D+00  0.0000000000000D+00  0.0000000000000D+00
   365  3.6400000000000D+00  0.0000000000000D+00  0.0000000000000D+00
   366  3.6500000000000D+00  0.0000000000000D+00  0.0000000000000D+00
   367  3.6600000000000D+00  0.0000000000000D+00  0.0000000000000D+00
   368  3.6700000000000D+00  0.0000000000000D+00  0.0000000000000D+00
   369  3.6800000000000D+00  0.0000000000000D+00  0.0000000000000D+00
   370  3.6900000000000D+00  0.0000000000000D+00  0.0000000000000D+00
   371  3.7000000000000D+00  0.0000000000000D+00  0.0000000000000D+00
   372  3.7100000000000D+00  0.0000000000000D+00  0.0000000000000D+00
   373  3.7200000000000D+00  0.0000000000000D+00  0.0000000000000D+00
   374  3.7300000000000D+00  0.0000000000000D+00  0.0000000000000D+00
   375  3.7400000000000D+00  0.0000000000000D+00  0.0000000000000D+00
   376  3.7500000000000D+00  0.0000000000000D+00  0.0000000000000D+00
   377  3.7600000000000D+00  0.0000000000000D+00  0.0000000000000D+00
   378  3.7700000000000D+00  0.0000000000000D+00  0.0000000000000D+00
   379  3.7800000000000D+00  0.0000000000000D+00  0.0000000000000D+00
   380  3.7900000000000D+00  0.0000000000000D+00  0.0000000000000D+00
   381  3.8000000000000D+00  0.0000000000000D+00  0.0000000000000D+00
   382  3.8100000000000D+00  0.0000000000000D+00  0.0000000000000D+00
   383  3.8200000000000D+00  0.0000000000000D+00  0.0000000000000D+00
   384  3.8300000000000D+00  0.0000000000000D+00  0.0000000000000D+00
   385  3.8400000000000D+00  0.0000000000000D+00  0.0000000000000D+00
   386  3.8500000000000D+00  0.0000000000000D+00  0.0000000000000D+00
   387  3.8600000000000D+00  0.0000000000000D+00  0.0000000000000D+00
   388  3.8700000000000D+00  0.0000000000000D+00  0.0000000000000D+00
   389  3.8800000000000D+00  0.0000000000000D+00  0.0000000000000D+00
   390  3.8900000000000D+00  0.0000000000000D+00  0.0000000000000D+00
   391  3.9000000000000D+00  0.0000000000000D+00  0.0000000000000D+00
   392  3.9100000000000D+00  0.0000000000000D+00  0.0000000000000D+00
   393  3.9200000000000D+00  0.0000000000000D+00  0.0000000000000D+00
   394  3.9300000000000D+00  0.0000000000000D+00  0.0000000000000D+00
   395  3.9400000000000D+00  0.0000000000000D+00  0.0000000000000D+00
   396  3.9500000000000D+00  0.0000000000000D+00  0.0000000000000D+00
   397  3.9600000000000D+00  0.0000000000000D+00  0.0000000000000D+00
   398  3.9700000000000D+00  0.0000000000000D+00  0.0000000000000D+00
   399  3.9800000000000D+00  0.0000000000000D+00  0.0000000000000D+00
   400  3.9900000000000D+00  0.0000000000000D+00  0.0000000000000D+00
   401  4.0000000000000D+00  0.0000000000000D+00  0.0000000000000D+00
   402  4.0100000000000D+00  0.0000000000000D+00  0.0000000000000D+00
   403  4.0200000000000D+00  0.0000000000000D+00  0.0000000000000D+00
   404  4.0300000000000D+00  0.0000000000000D+00  0.0000000000000D+00
   405  4.0400000000000D+00  0.0000000000000D+00  0.0000000000000D+00
   406  4.0500000000000D+00  0.0000000000000D+00  0.0000000000000D+00
   407  4.0600000000000D+00  0.0000000000000D+00  0.0000000000000D+00
   408  4.0700000000000D+00  0.0000000000000D+00  0.0000000000000D+00
   409  4.0800000000000D+00  0.0000000000000D+00  0.0000000000000D+00
   410  4.0900000000000D+00  0.0000000000000D+00  0.0000000000000D+00
   411  4.1000000000000D+00  0.0000000000000D+00  0.0000000000000D+00
   412  4.1100000000000D+00  0.0000000000000D+00  0.0000000000000D+00
   413  4.1200000000000D+00  0.0000000000000D+00  0.0000000000000D+00
   414  4.1300000000000D+00  0.0000000000000D+00  0.0000000000000D+00
   415  4.1400000000000D+00  0.0000000000000D+00  0.0000000000000D+00
   416  4.1500000000000D+00  0.0000000000000D+00  0.0000000000000D+00
   417  4.1600000000000D+00  0.0000000000000D+00  0.0000000000000D+00
   418  4.1700000000000D+00  0.0000000000000D+00  0.0000000000000D+00
   419  4.1800000000000D+00  0.0000000000000D+00  0.0000000000000D+00
   420  4.1900000000000D+00  0.0000000000000D+00  0.0000000000000D+00
   421  4.2000000000000D+00  0.0000000000000D+00  0.0000000000000D+00
   422  4.2100000000000D+00  0.0000000000000D+00  0.0000000000000D+00