Os    ONCVPSP-3.3.1  r_core=   1.76739   1.87601   1.51352   2.61993
     76.0000     16.0000      210905    zatom,zion,pspd
     8 -116133   3     4   600     0    pspcod,pspxc,lmax,lloc,mmax,r2well
  5.99000000  0.00000000  0.00000000    rchrg fchrg qchrg
     2     2     2     2     0    nproj
     1     1           extension_switch
   0                         1.4105714379143D+01  2.0666018919609D+00
     1  0.0000000000000D+00  1.3819867472620D-10 -3.1549014789523D-10
     2  1.0000000000000D-02  5.2858256056088D-02 -9.4238140632119D-03
     3  2.0000000000000D-02  1.0568723628558D-01 -1.8890478769716D-02
     4  3.0000000000000D-02  1.5845725715567D-01 -2.8441818669186D-02
     5  4.0000000000000D-02  2.1113782416969D-01 -3.8117616360896D-02
     6  5.0000000000000D-02  2.6369723747177D-01 -4.7954617030556D-02
     7  6.0000000000000D-02  3.1610221065696D-01 -5.7985563377949D-02
     8  7.0000000000000D-02  3.6831750702630D-01 -6.8238270694230D-02
     9  8.0000000000000D-02  4.2030559738729D-01 -7.8734751532255D-02
    10  9.0000000000000D-02  4.7202634332986D-01 -8.9490399022336D-02
    11  1.0000000000000D-01  5.2343670970448D-01 -1.0051323742186D-01
    12  1.1000000000000D-01  5.7449050979593D-01 -1.1180324795282D-01
    13  1.2000000000000D-01  6.2513818642422D-01 -1.2335177738003D-01
    14  1.3000000000000D-01  6.7532663191416D-01 -1.3514103611793D-01
    15  1.4000000000000D-01  7.2499904956080D-01 -1.4714369193004D-01
    16  1.5000000000000D-01  7.7409485887969D-01 -1.5932256450638D-01
    17  1.6000000000000D-01  8.2254964657239D-01 -1.7163042537578D-01
    18  1.7000000000000D-01  8.7029516476012D-01 -1.8400990673778D-01
    19  1.8000000000000D-01  9.1725937764562D-01 -1.9639352188730D-01
    20  1.9000000000000D-01  9.6336655735710D-01 -2.0870379896253D-01
    21  2.0000000000000D-01  1.0085374293118D+00 -2.2085352877714D-01
    22  2.1000000000000D-01  1.0526893670133D+00 -2.3274612651050D-01
    23  2.2000000000000D-01  1.0957366357692D+00 -2.4427610602974D-01
    24  2.3000000000000D-01  1.1375906843879D+00 -2.5532966461427D-01
    25  2.4000000000000D-01  1.1781604834847D+00 -2.6578537485285D-01
    26  2.5000000000000D-01  1.2173529086118D+00 -2.7551497949418D-01
    27  2.6000000000000D-01  1.2550731660094D+00 -2.8438428406260D-01
    28  2.7000000000000D-01  1.2912252583809D+00 -2.9225414110723D-01
    29  2.8000000000000D-01  1.3257124877068D+00 -2.9898151904588D-01
    30  2.9000000000000D-01  1.3584379917513D+00 -3.0442064770062D-01
    31  3.0000000000000D-01  1.3893053105682D+00 -3.0842423180863D-01
    32  3.1000000000000D-01  1.4182189789956D+00 -3.1084472303755D-01
    33  3.2000000000000D-01  1.4450851408394D+00 -3.1153564034606D-01
    34  3.3000000000000D-01  1.4698121801824D+00 -3.1035292791527D-01
    35  3.4000000000000D-01  1.4923113650311D+00 -3.0715633934138D-01
    36  3.5000000000000D-01  1.5124974983173D+00 -3.0181083633061D-01
    37  3.6000000000000D-01  1.5302895711206D+00 -2.9418798978038D-01
    38  3.7000000000000D-01  1.5456114128584D+00 -2.8416737087005D-01
    39  3.8000000000000D-01  1.5583923331196D+00 -2.7163791962506D-01
    40  3.9000000000000D-01  1.5685677497822D+00 -2.5649927836407D-01
    41  4.0000000000000D-01  1.5760797980686D+00 -2.3866307749154D-01
    42  4.1000000000000D-01  1.5808779152464D+00 -2.1805416126081D-01
    43  4.2000000000000D-01  1.5829193957792D+00 -1.9461174140577D-01
    44  4.3000000000000D-01  1.5821699118766D+00 -1.6829046692306D-01
    45  4.4000000000000D-01  1.5786039945783D+00 -1.3906139877984D-01
    46  4.5000000000000D-01  1.5722054707341D+00 -1.0691287892290D-01
    47  4.6000000000000D-01  1.5629678515137D+00 -7.1851283670885D-02
    48  4.7000000000000D-01  1.5508946683888D+00 -3.3901652377091D-02
    49  4.8000000000000D-01  1.5359997528774D+00  6.8918168476522D-03
    50  4.9000000000000D-01  1.5183074567253D+00  5.0465411571612D-02
    51  5.0000000000000D-01  1.4978528096142D+00  9.6735695784418D-02
    52  5.1000000000000D-01  1.4746816119315D+00  1.4559945194282D-01
    53  5.2000000000000D-01  1.4488504606118D+00  1.9693377810484D-01
    54  5.3000000000000D-01  1.4204267065536D+00  2.5059634266806D-01
    55  5.4000000000000D-01  1.3894883426292D+00  3.0642579791351D-01
    56  5.5000000000000D-01  1.3561238218383D+00  3.6424235220750D-01
    57  5.6000000000000D-01  1.3204318056912D+00  4.2384849934494D-01
    58  5.7000000000000D-01  1.2825208434588D+00  4.8502990213384D-01
    59  5.8000000000000D-01  1.2425089834723D+00  5.4755642594560D-01
    60  5.9000000000000D-01  1.2005233182005D+00  6.1118331658885D-01
    61  6.0000000000000D-01  1.1566994653706D+00  6.7565251553330D-01
    62  6.1000000000000D-01  1.1111809879235D+00  7.4069410421107D-01
    63  6.2000000000000D-01  1.0641187561012D+00  8.0602786788857D-01
    64  6.3000000000000D-01  1.0156702554512D+00  8.7136496842070D-01
    65  6.4000000000000D-01  9.6599884499134D-01  9.3640971410894D-01
    66  6.5000000000000D-01  9.1527297020928D-01  1.0008614138750D+00
    67  6.6000000000000D-01  8.6366533596515D-01  1.0644163020557D+00
    68  6.7000000000000D-01  8.1135204472323D-01  1.1267695193294D+00
    69  6.8000000000000D-01  7.5851170585363D-01  1.1876171346088D+00
    70  6.9000000000000D-01  7.0532452201622D-01  1.2466581921818D+00
    71  7.0000000000000D-01  6.5197135886230D-01  1.3035967679701D+00
    72  7.1000000000000D-01  5.9863280446318D-01  1.3581440184985D+00
    73  7.2000000000000D-01  5.4548822499749D-01  1.4100202060331D+00
    74  7.3000000000000D-01  4.9271482329885D-01  1.4589566833652D+00
    75  7.4000000000000D-01  4.4048670688084D-01  1.5046978218746D+00
    76  7.5000000000000D-01  3.8897397201869D-01  1.5470028668210D+00
    77  7.6000000000000D-01  3.3834181037423D-01  1.5856477042649D+00
    78  7.7000000000000D-01  2.8874964450621D-01  1.6204265246173D+00
    79  7.8000000000000D-01  2.4035029840931D-01  1.6511533685591D+00
    80  7.9000000000000D-01  1.9328920897769D-01  1.6776635419353D+00
    81  8.0000000000000D-01  1.4770368399221D-01  1.6998148872260D+00
    82  8.1000000000000D-01  1.0372221188776D-01  1.7174889003051D+00
    83  8.2000000000000D-01  6.1463828172613D-02  1.7305916824118D+00
    84  8.3000000000000D-01  2.1037542946589D-02  1.7390547185695D+00
    85  8.4000000000000D-01 -1.7458166494192D-02  1.7428354750787D+00
    86  8.5000000000000D-01 -5.3935794469786D-02  1.7419178101672D+00
    87  8.6000000000000D-01 -8.8319174167181D-02  1.7363121933976D+00
    88  8.7000000000000D-01 -1.2054377089006D-01  1.7260557309812D+00
    89  8.8000000000000D-01 -1.5055689942471D-01  1.7112119957275D+00
    90  8.9000000000000D-01 -1.7831786420729D-01  1.6918706619409D+00
    91  9.0000000000000D-01 -2.0379802155244D-01  1.6681469471554D+00
    92  9.1000000000000D-01 -2.2698076377886D-01  1.6401808641526D+00
    93  9.2000000000000D-01 -2.4786142563916D-01  1.6081362882228D+00
    94  9.3000000000000D-01 -2.6644711402369D-01  1.5721998460911D+00
    95  9.4000000000000D-01 -2.8275646245533D-01  1.5325796343242D+00
    96  9.5000000000000D-01 -2.9681931242044D-01  1.4895037763399D+00
    97  9.6000000000000D-01 -3.0867632408619D-01  1.4432188283631D+00
    98  9.7000000000000D-01 -3.1837851942788D-01  1.3939880457695D+00
    99  9.8000000000000D-01 -3.2598676123011D-01  1.3420895222447D+00
   100  9.9000000000000D-01 -3.3157117183733D-01  1.2878142150597D+00
   101  1.0000000000000D+00 -3.3521049588805D-01  1.2314638704678D+00
   102  1.0100000000000D+00 -3.3699141159168D-01  1.1733488638175D+00
   103  1.0200000000000D+00 -3.3700779538289D-01  1.1137859694016D+00
   104  1.0300000000000D+00 -3.3535994501787D-01  1.0530960753418D+00
   105  1.0400000000000D+00 -3.3215376635267D-01  9.9160185892455D-01
   106  1.0500000000000D+00 -3.2749992917704D-01  9.2962543779235D-01
   107  1.0600000000000D+00 -3.2151299755548D-01  8.6748601219090D-01
   108  1.0700000000000D+00 -3.1431054015303D-01  8.0549751315585D-01
   109  1.0800000000000D+00 -3.0601222600169D-01  7.4396627103184D-01
   110  1.0900000000000D+00 -2.9673891108898D-01  6.8318871809855D-01
   111  1.1000000000000D+00 -2.8661172104777D-01  6.2344913839833D-01
   112  1.1100000000000D+00 -2.7575113504159D-01  5.6501747689155D-01
   113  1.1200000000000D+00 -2.6427607575445D-01  5.0814721919351D-01
   114  1.1300000000000D+00 -2.5230301010783D-01  4.5307335191137D-01
   115  1.1400000000000D+00 -2.3994506513398D-01  4.0001041278312D-01
   116  1.1500000000000D+00 -2.2731116301671D-01  3.4915063818438D-01
   117  1.1600000000000D+00 -2.1450517903890D-01  3.0066221457097D-01
   118  1.1700000000000D+00 -2.0162512433962D-01  2.5468763248757D-01
   119  1.1800000000000D+00 -1.8876236230115D-01  2.1134217435922D-01
   120  1.1900000000000D+00 -1.7600085459635D-01  1.7071250401912D-01
   121  1.2000000000000D+00 -1.6341648411207D-01  1.3285557379902D-01
   122  1.2100000000000D+00 -1.5107610345252D-01  9.7796231217431D-02
   123  1.2200000000000D+00 -1.3903800804236D-01  6.5531282641757D-02
   124  1.2300000000000D+00 -1.2735301313015D-01  3.6035860443523D-02
   125  1.2400000000000D+00 -1.1606585016494D-01  9.2704985550666D-03
   126  1.2500000000000D+00 -1.0521526204089D-01 -1.4818012313656D-02
   127  1.2600000000000D+00 -9.4834040882798D-02 -3.6296185781772D-02
   128  1.2700000000000D+00 -8.4949229875519D-02 -5.5242666933309D-02
   129  1.2800000000000D+00 -7.5582312746930D-02 -7.1747217733544D-02
   130  1.2900000000000D+00 -6.6749435237342D-02 -8.5909628498524D-02
   131  1.3000000000000D+00 -5.8461653315908D-02 -9.7838580416554D-02
   132  1.3100000000000D+00 -5.0725204270476D-02 -1.0765047426753D-01
   133  1.3200000000000D+00 -4.3541797596430D-02 -1.1546823624839D-01
   134  1.3300000000000D+00 -3.6908922461392D-02 -1.2142011248282D-01
   135  1.3400000000000D+00 -3.0820168944633D-02 -1.2563846185303D-01
   136  1.3500000000000D+00 -2.5265559642666D-02 -1.2825855875203D-01
   137  1.3600000000000D+00 -2.0231888365784D-02 -1.2941741699220D-01
   138  1.3700000000000D+00 -1.5703062961675D-02 -1.2925264441033D-01
   139  1.3800000000000D+00 -1.1660449396690D-02 -1.2790133711917D-01
   140  1.3900000000000D+00 -8.0832139524441D-03 -1.2549902363677D-01
   141  1.4000000000000D+00 -4.9486610275973D-03 -1.2217866602136D-01
   142  1.4100000000000D+00 -2.2325640380390D-03 -1.1806972536231D-01
   143  1.4200000000000D+00  9.0513539485940D-05 -1.1329730046275D-01
   144  1.4300000000000D+00  2.0469085795848D-03 -1.0798134305448D-01
   145  1.4400000000000D+00  3.6635621662885D-03 -1.0223595471900D-01
   146  1.4500000000000D+00  4.9677389182317D-03 -9.6168770202677D-02
   147  1.4600000000000D+00  5.9867632687121D-03 -8.9880430116249D-02
   148  1.4700000000000D+00  6.7477746137365D-03 -8.3464147220684D-02
   149  1.4800000000000D+00  7.2775017631485D-03 -7.7005364984978D-02
   150  1.4900000000000D+00  7.6020569012157D-03 -7.0581506536723D-02
   151  1.5000000000000D+00  7.7467499614328D-03 -6.4261814140614D-02
   152  1.5100000000000D+00  7.7359248123472D-03 -5.8107281570700D-02
   153  1.5200000000000D+00  7.5928163175880D-03 -5.2170672736170D-02
   154  1.5300000000000D+00  7.3394286959365D-03 -4.6496625180470D-02
   155  1.5400000000000D+00  6.9964343086233D-03 -4.1121832207971D-02
   156  1.5500000000000D+00  6.5830919676595D-03 -3.6075297435530D-02
   157  1.5600000000000D+00  6.1171852548816D-03 -3.1378660292732D-02
   158  1.5700000000000D+00  5.6149786147287D-03 -2.7046581730853D-02
   159  1.5800000000000D+00  5.0911911556186D-03 -2.3087186506915D-02
   160  1.5900000000000D+00  4.5589859249142D-03 -1.9502551630085D-02
   161  1.6000000000000D+00  4.0299742010421D-03 -1.6289235912612D-02
   162  1.6100000000000D+00  3.5142325818260D-03 -1.3438840479519D-02
   163  1.6200000000000D+00  3.0203318680243D-03 -1.0938593424974D-02
   164  1.6300000000000D+00  2.5553757327469D-03 -8.7719493668284D-03
   165  1.6400000000000D+00  2.1250478071501D-03 -6.9191961230239D-03
   166  1.6500000000000D+00  1.7336653186559D-03 -5.3580598885493D-03
   167  1.6600000000000D+00  1.3842377835863D-03 -4.0643011429330D-03
   168  1.6700000000000D+00  1.0785289895492D-03 -3.0122931380854D-03
   169  1.6800000000000D+00  8.1712083853204D-04 -2.1755759588011D-03
   170  1.6900000000000D+00  5.9947738792025D-04 -1.5273785541235D-03
   171  1.7000000000000D+00  4.2400784843012D-04 -1.0411028935837D-03
   172  1.7100000000000D+00  2.8816807930571D-04 -6.9093017537394D-04
   173  1.7200000000000D+00  1.8836747917635D-04 -4.5160208090568D-04
   174  1.7300000000000D+00  1.1969725486191D-04 -2.9780159758872D-04
   175  1.7400000000000D+00  7.7656929259723D-05 -2.1001941252969D-04
   176  1.7500000000000D+00  5.8890508663629D-05 -1.7661263039553D-04
   177  1.7600000000000D+00  5.3540585588236D-05 -1.6979087077897D-04
   178  1.7700000000000D+00  4.2767160269434D-05 -1.3713133685057D-04
   179  1.7800000000000D+00  1.8965926870410D-05 -6.0883241792157D-05
   180  1.7900000000000D+00 -1.4738483776037D-06  4.7709688536567D-06
   181  1.8000000000000D+00 -4.6980498289325D-06  1.5225611031000D-05
   182  1.8100000000000D+00 -3.7196869985844D-08  1.2060951941885D-07
   183  1.8200000000000D+00  1.0988987355772D-06 -3.5714029403105D-06
   184  1.8300000000000D+00  2.5074820079785D-07 -8.1561522244988D-07
   185  1.8400000000000D+00 -1.2899941334725D-07  4.1290656268339D-07
   186  1.8500000000000D+00 -6.5545126731454D-08  2.0979950433168D-07
   187  1.8600000000000D+00  0.0000000000000D+00  0.0000000000000D+00
   188  1.8700000000000D+00  0.0000000000000D+00  0.0000000000000D+00
   189  1.8800000000000D+00  0.0000000000000D+00  0.0000000000000D+00
   190  1.8900000000000D+00  0.0000000000000D+00  0.0000000000000D+00
   191  1.9000000000000D+00  0.0000000000000D+00  0.0000000000000D+00
   192  1.9100000000000D+00  0.0000000000000D+00  0.0000000000000D+00
   193  1.9200000000000D+00  0.0000000000000D+00  0.0000000000000D+00
   194  1.9300000000000D+00  0.0000000000000D+00  0.0000000000000D+00
   195  1.9400000000000D+00  0.0000000000000D+00  0.0000000000000D+00
   196  1.9500000000000D+00  0.0000000000000D+00  0.0000000000000D+00
   197  1.9600000000000D+00  0.0000000000000D+00  0.0000000000000D+00
   198  1.9700000000000D+00  0.0000000000000D+00  0.0000000000000D+00
   199  1.9800000000000D+00  0.0000000000000D+00  0.0000000000000D+00
   200  1.9900000000000D+00  0.0000000000000D+00  0.0000000000000D+00
   201  2.0000000000000D+00  0.0000000000000D+00  0.0000000000000D+00
   202  2.0100000000000D+00  0.0000000000000D+00  0.0000000000000D+00
   203  2.0200000000000D+00  0.0000000000000D+00  0.0000000000000D+00
   204  2.0300000000000D+00  0.0000000000000D+00  0.0000000000000D+00
   205  2.0400000000000D+00  0.0000000000000D+00  0.0000000000000D+00
   206  2.0500000000000D+00  0.0000000000000D+00  0.0000000000000D+00
   207  2.0600000000000D+00  0.0000000000000D+00  0.0000000000000D+00
   208  2.0700000000000D+00  0.0000000000000D+00  0.0000000000000D+00
   209  2.0800000000000D+00  0.0000000000000D+00  0.0000000000000D+00
   210  2.0900000000000D+00  0.0000000000000D+00  0.0000000000000D+00
   211  2.1000000000000D+00  0.0000000000000D+00  0.0000000000000D+00
   212  2.1100000000000D+00  0.0000000000000D+00  0.0000000000000D+00
   213  2.1200000000000D+00  0.0000000000000D+00  0.0000000000000D+00
   214  2.1300000000000D+00  0.0000000000000D+00  0.0000000000000D+00
   215  2.1400000000000D+00  0.0000000000000D+00  0.0000000000000D+00
   216  2.1500000000000D+00  0.0000000000000D+00  0.0000000000000D+00
   217  2.1600000000000D+00  0.0000000000000D+00  0.0000000000000D+00
   218  2.1700000000000D+00  0.0000000000000D+00  0.0000000000000D+00
   219  2.1800000000000D+00  0.0000000000000D+00  0.0000000000000D+00
   220  2.1900000000000D+00  0.0000000000000D+00  0.0000000000000D+00
   221  2.2000000000000D+00  0.0000000000000D+00  0.0000000000000D+00
   222  2.2100000000000D+00  0.0000000000000D+00  0.0000000000000D+00
   223  2.2200000000000D+00  0.0000000000000D+00  0.0000000000000D+00
   224  2.2300000000000D+00  0.0000000000000D+00  0.0000000000000D+00
   225  2.2400000000000D+00  0.0000000000000D+00  0.0000000000000D+00
   226  2.2500000000000D+00  0.0000000000000D+00  0.0000000000000D+00
   227  2.2600000000000D+00  0.0000000000000D+00  0.0000000000000D+00
   228  2.2700000000000D+00  0.0000000000000D+00  0.0000000000000D+00
   229  2.2800000000000D+00  0.0000000000000D+00  0.0000000000000D+00
   230  2.2900000000000D+00  0.0000000000000D+00  0.0000000000000D+00
   231  2.3000000000000D+00  0.0000000000000D+00  0.0000000000000D+00
   232  2.3100000000000D+00  0.0000000000000D+00  0.0000000000000D+00
   233  2.3200000000000D+00  0.0000000000000D+00  0.0000000000000D+00
   234  2.3300000000000D+00  0.0000000000000D+00  0.0000000000000D+00
   235  2.3400000000000D+00  0.0000000000000D+00  0.0000000000000D+00
   236  2.3500000000000D+00  0.0000000000000D+00  0.0000000000000D+00
   237  2.3600000000000D+00  0.0000000000000D+00  0.0000000000000D+00
   238  2.3700000000000D+00  0.0000000000000D+00  0.0000000000000D+00
   239  2.3800000000000D+00  0.0000000000000D+00  0.0000000000000D+00
   240  2.3900000000000D+00  0.0000000000000D+00  0.0000000000000D+00
   241  2.4000000000000D+00  0.0000000000000D+00  0.0000000000000D+00
   242  2.4100000000000D+00  0.0000000000000D+00  0.0000000000000D+00
   243  2.4200000000000D+00  0.0000000000000D+00  0.0000000000000D+00
   244  2.4300000000000D+00  0.0000000000000D+00  0.0000000000000D+00
   245  2.4400000000000D+00  0.0000000000000D+00  0.0000000000000D+00
   246  2.4500000000000D+00  0.0000000000000D+00  0.0000000000000D+00
   247  2.4600000000000D+00  0.0000000000000D+00  0.0000000000000D+00
   248  2.4700000000000D+00  0.0000000000000D+00  0.0000000000000D+00
   249  2.4800000000000D+00  0.0000000000000D+00  0.0000000000000D+00
   250  2.4900000000000D+00  0.0000000000000D+00  0.0000000000000D+00
   251  2.5000000000000D+00  0.0000000000000D+00  0.0000000000000D+00
   252  2.5100000000000D+00  0.0000000000000D+00  0.0000000000000D+00
   253  2.5200000000000D+00  0.0000000000000D+00  0.0000000000000D+00
   254  2.5300000000000D+00  0.0000000000000D+00  0.0000000000000D+00
   255  2.5400000000000D+00  0.0000000000000D+00  0.0000000000000D+00
   256  2.5500000000000D+00  0.0000000000000D+00  0.0000000000000D+00
   257  2.5600000000000D+00  0.0000000000000D+00  0.0000000000000D+00
   258  2.5700000000000D+00  0.0000000000000D+00  0.0000000000000D+00
   259  2.5800000000000D+00  0.0000000000000D+00  0.0000000000000D+00
   260  2.5900000000000D+00  0.0000000000000D+00  0.0000000000000D+00
   261  2.6000000000000D+00  0.0000000000000D+00  0.0000000000000D+00
   262  2.6100000000000D+00  0.0000000000000D+00  0.0000000000000D+00
   263  2.6200000000000D+00  0.0000000000000D+00  0.0000000000000D+00
   264  2.6300000000000D+00  0.0000000000000D+00  0.0000000000000D+00
   265  2.6400000000000D+00  0.0000000000000D+00  0.0000000000000D+00
   266  2.6500000000000D+00  0.0000000000000D+00  0.0000000000000D+00
   267  2.6600000000000D+00  0.0000000000000D+00  0.0000000000000D+00
   268  2.6700000000000D+00  0.0000000000000D+00  0.0000000000000D+00
   269  2.6800000000000D+00  0.0000000000000D+00  0.0000000000000D+00
   270  2.6900000000000D+00  0.0000000000000D+00  0.0000000000000D+00
   271  2.7000000000000D+00  0.0000000000000D+00  0.0000000000000D+00
   272  2.7100000000000D+00  0.0000000000000D+00  0.0000000000000D+00
   273  2.7200000000000D+00  0.0000000000000D+00  0.0000000000000D+00
   274  2.7300000000000D+00  0.0000000000000D+00  0.0000000000000D+00
   275  2.7400000000000D+00  0.0000000000000D+00  0.0000000000000D+00
   276  2.7500000000000D+00  0.0000000000000D+00  0.0000000000000D+00
   277  2.7600000000000D+00  0.0000000000000D+00  0.0000000000000D+00
   278  2.7700000000000D+00  0.0000000000000D+00  0.0000000000000D+00
   279  2.7800000000000D+00  0.0000000000000D+00  0.0000000000000D+00
   280  2.7900000000000D+00  0.0000000000000D+00  0.0000000000000D+00
   281  2.8000000000000D+00  0.0000000000000D+00  0.0000000000000D+00
   282  2.8100000000000D+00  0.0000000000000D+00  0.0000000000000D+00
   283  2.8200000000000D+00  0.0000000000000D+00  0.0000000000000D+00
   284  2.8300000000000D+00  0.0000000000000D+00  0.0000000000000D+00
   285  2.8400000000000D+00  0.0000000000000D+00  0.0000000000000D+00
   286  2.8500000000000D+00  0.0000000000000D+00  0.0000000000000D+00
   287  2.8600000000000D+00  0.0000000000000D+00  0.0000000000000D+00
   288  2.8700000000000D+00  0.0000000000000D+00  0.0000000000000D+00
   289  2.8800000000000D+00  0.0000000000000D+00  0.0000000000000D+00
   290  2.8900000000000D+00  0.0000000000000D+00  0.0000000000000D+00
   291  2.9000000000000D+00  0.0000000000000D+00  0.0000000000000D+00
   292  2.9100000000000D+00  0.0000000000000D+00  0.0000000000000D+00
   293  2.9200000000000D+00  0.0000000000000D+00  0.0000000000000D+00
   294  2.9300000000000D+00  0.0000000000000D+00  0.0000000000000D+00
   295  2.9400000000000D+00  0.0000000000000D+00  0.0000000000000D+00
   296  2.9500000000000D+00  0.0000000000000D+00  0.0000000000000D+00
   297  2.9600000000000D+00  0.0000000000000D+00  0.0000000000000D+00
   298  2.9700000000000D+00  0.0000000000000D+00  0.0000000000000D+00
   299  2.9800000000000D+00  0.0000000000000D+00  0.0000000000000D+00
   300  2.9900000000000D+00  0.0000000000000D+00  0.0000000000000D+00
   301  3.0000000000000D+00  0.0000000000000D+00  0.0000000000000D+00
   302  3.0100000000000D+00  0.0000000000000D+00  0.0000000000000D+00
   303  3.0200000000000D+00  0.0000000000000D+00  0.0000000000000D+00
   304  3.0300000000000D+00  0.0000000000000D+00  0.0000000000000D+00
   305  3.0400000000000D+00  0.0000000000000D+00  0.0000000000000D+00
   306  3.0500000000000D+00  0.0000000000000D+00  0.0000000000000D+00
   307  3.0600000000000D+00  0.0000000000000D+00  0.0000000000000D+00
   308  3.0700000000000D+00  0.0000000000000D+00  0.0000000000000D+00
   309  3.0800000000000D+00  0.0000000000000D+00  0.0000000000000D+00
   310  3.0900000000000D+00  0.0000000000000D+00  0.0000000000000D+00
   311  3.1000000000000D+00  0.0000000000000D+00  0.0000000000000D+00
   312  3.1100000000000D+00  0.0000000000000D+00  0.0000000000000D+00
   313  3.1200000000000D+00  0.0000000000000D+00  0.0000000000000D+00
   314  3.1300000000000D+00  0.0000000000000D+00  0.0000000000000D+00
   315  3.1400000000000D+00  0.0000000000000D+00  0.0000000000000D+00
   316  3.1500000000000D+00  0.0000000000000D+00  0.0000000000000D+00
   317  3.1600000000000D+00  0.0000000000000D+00  0.0000000000000D+00
   318  3.1700000000000D+00  0.0000000000000D+00  0.0000000000000D+00
   319  3.1800000000000D+00  0.0000000000000D+00  0.0000000000000D+00
   320  3.1900000000000D+00  0.0000000000000D+00  0.0000000000000D+00
   321  3.2000000000000D+00  0.0000000000000D+00  0.0000000000000D+00
   322  3.2100000000000D+00  0.0000000000000D+00  0.0000000000000D+00
   323  3.2200000000000D+00  0.0000000000000D+00  0.0000000000000D+00
   324  3.2300000000000D+00  0.0000000000000D+00  0.0000000000000D+00
   325  3.2400000000000D+00  0.0000000000000D+00  0.0000000000000D+00
   326  3.2500000000000D+00  0.0000000000000D+00  0.0000000000000D+00
   327  3.2600000000000D+00  0.0000000000000D+00  0.0000000000000D+00
   328  3.2700000000000D+00  0.0000000000000D+00  0.0000000000000D+00
   329  3.2800000000000D+00  0.0000000000000D+00  0.0000000000000D+00
   330  3.2900000000000D+00  0.0000000000000D+00  0.0000000000000D+00
   331  3.3000000000000D+00  0.0000000000000D+00  0.0000000000000D+00
   332  3.3100000000000D+00  0.0000000000000D+00  0.0000000000000D+00
   333  3.3200000000000D+00  0.0000000000000D+00  0.0000000000000D+00
   334  3.3300000000000D+00  0.0000000000000D+00  0.0000000000000D+00
   335  3.3400000000000D+00  0.0000000000000D+00  0.0000000000000D+00
   336  3.3500000000000D+00  0.0000000000000D+00  0.0000000000000D+00
   337  3.3600000000000D+00  0.0000000000000D+00  0.0000000000000D+00
   338  3.3700000000000D+00  0.0000000000000D+00  0.0000000000000D+00
   339  3.3800000000000D+00  0.0000000000000D+00  0.0000000000000D+00
   340  3.3900000000000D+00  0.0000000000000D+00  0.0000000000000D+00
   341  3.4000000000000D+00  0.0000000000000D+00  0.0000000000000D+00
   342  3.4100000000000D+00  0.0000000000000D+00  0.0000000000000D+00
   343  3.4200000000000D+00  0.0000000000000D+00  0.0000000000000D+00
   344  3.4300000000000D+00  0.0000000000000D+00  0.0000000000000D+00
   345  3.4400000000000D+00  0.0000000000000D+00  0.0000000000000D+00
   346  3.4500000000000D+00  0.0000000000000D+00  0.0000000000000D+00
   347  3.4600000000000D+00  0.0000000000000D+00  0.0000000000000D+00
   348  3.4700000000000D+00  0.0000000000000D+00  0.0000000000000D+00
   349  3.4800000000000D+00  0.0000000000000D+00  0.0000000000000D+00
   350  3.4900000000000D+00  0.0000000000000D+00  0.0000000000000D+00
   351  3.5000000000000D+00  0.0000000000000D+00  0.0000000000000D+00
   352  3.5100000000000D+00  0.0000000000000D+00  0.0000000000000D+00
   353  3.5200000000000D+00  0.0000000000000D+00  0.0000000000000D+00
   354  3.5300000000000D+00  0.0000000000000D+00  0.0000000000000D+00
   355  3.5400000000000D+00  0.0000000000000D+00  0.0000000000000D+00
   356  3.5500000000000D+00  0.0000000000000D+00  0.0000000000000D+00
   357  3.5600000000000D+00  0.0000000000000D+00  0.0000000000000D+00
   358  3.5700000000000D+00  0.0000000000000D+00  0.0000000000000D+00
   359  3.5800000000000D+00  0.0000000000000D+00  0.0000000000000D+00
   360  3.5900000000000D+00  0.0000000000000D+00  0.0000000000000D+00
   361  3.6000000000000D+00  0.0000000000000D+00  0.0000000000000D+00
   362  3.6100000000000D+00  0.0000000000000D+00  0.0000000000000D+00
   363  3.6200000000000D+00  0.0000000000000D+00  0.0000000000000D+00
   364  3.6300000000000D+00  0.0000000000000D+00  0.0000000000000D+00
   365  3.6400000000000D+00  0.0000000000000D+00  0.0000000000000D+00
   366  3.6500000000000D+00  0.0000000000000D+00  0.0000000000000D+00
   367  3.6600000000000D+00  0.0000000000000D+00  0.0000000000000D+00
   368  3.6700000000000D+00  0.0000000000000D+00  0.0000000000000D+00
   369  3.6800000000000D+00  0.0000000000000D+00  0.0000000000000D+00
   370  3.6900000000000D+00  0.0000000000000D+00  0.0000000000000D+00
   371  3.7000000000000D+00  0.0000000000000D+00  0.0000000000000D+00
   372  3.7100000000000D+00  0.0000000000000D+00  0.0000000000000D+00
   373  3.7200000000000D+00  0.0000000000000D+00  0.0000000000000D+00
   374  3.7300000000000D+00  0.0000000000000D+00  0.0000000000000D+00
   375  3.7400000000000D+00  0.0000000000000D+00  0.0000000000000D+00
   376  3.7500000000000D+00  0.0000000000000D+00  0.0000000000000D+00
   377  3.7600000000000D+00  0.0000000000000D+00  0.0000000000000D+00
   378  3.7700000000000D+00  0.0000000000000D+00  0.0000000000000D+00
   379  3.7800000000000D+00  0.0000000000000D+00  0.0000000000000D+00
   380  3.7900000000000D+00  0.0000000000000D+00  0.0000000000000D+00
   381  3.8000000000000D+00  0.0000000000000D+00  0.0000000000000D+00
   382  3.8100000000000D+00  0.0000000000000D+00  0.0000000000000D+00
   383  3.8200000000000D+00  0.0000000000000D+00  0.0000000000000D+00
   384  3.8300000000000D+00  0.0000000000000D+00  0.0000000000000D+00
   385  3.8400000000000D+00  0.0000000000000D+00  0.0000000000000D+00
   386  3.8500000000000D+00  0.0000000000000D+00  0.0000000000000D+00
   387  3.8600000000000D+00  0.0000000000000D+00  0.0000000000000D+00
   388  3.8700000000000D+00  0.0000000000000D+00  0.0000000000000D+00
   389  3.8800000000000D+00  0.0000000000000D+00  0.0000000000000D+00
   390  3.8900000000000D+00  0.0000000000000D+00  0.0000000000000D+00
   391  3.9000000000000D+00  0.0000000000000D+00  0.0000000000000D+00
   392  3.9100000000000D+00  0.0000000000000D+00  0.0000000000000D+00
   393  3.9200000000000D+00  0.0000000000000D+00  0.0000000000000D+00
   394  3.9300000000000D+00  0.0000000000000D+00  0.0000000000000D+00
   395  3.9400000000000D+00  0.0000000000000D+00  0.0000000000000D+00
   396  3.9500000000000D+00  0.0000000000000D+00  0.0000000000000D+00
   397  3.9600000000000D+00  0.0000000000000D+00  0.0000000000000D+00
   398  3.9700000000000D+00  0.0000000000000D+00  0.0000000000000D+00
   399  3.9800000000000D+00  0.0000000000000D+00  0.0000000000000D+00
   400  3.9900000000000D+00  0.0000000000000D+00  0.0000000000000D+00
   401  4.0000000000000D+00  0.0000000000000D+00  0.0000000000000D+00
   402  4.0100000000000D+00  0.0000000000000D+00  0.0000000000000D+00
   403  4.0200000000000D+00  0.0000000000000D+00  0.0000000000000D+00
   404  4.0300000000000D+00  0.0000000000000D+00  0.0000000000000D+00
   405  4.0400000000000D+00  0.0000000000000D+00  0.0000000000000D+00
   406  4.0500000000000D+00  0.0000000000000D+00  0.0000000000000D+00
   407  4.0600000000000D+00  0.0000000000000D+00  0.0000000000000D+00
   408  4.0700000000000D+00  0.0000000000000D+00  0.0000000000000D+00
   409  4.0800000000000D+00  0.0000000000000D+00  0.0000000000000D+00
   410  4.0900000000000D+00  0.0000000000000D+00  0.0000000000000D+00
   411  4.1000000000000D+00  0.0000000000000D+00  0.0000000000000D+00
   412  4.1100000000000D+00  0.0000000000000D+00  0.0000000000000D+00
   413  4.1200000000000D+00  0.0000000000000D+00  0.0000000000000D+00
   414  4.1300000000000D+00  0.0000000000000D+00  0.0000000000000D+00
   415  4.1400000000000D+00  0.0000000000000D+00  0.0000000000000D+00
   416  4.1500000000000D+00  0.0000000000000D+00  0.0000000000000D+00
   417  4.1600000000000D+00  0.0000000000000D+00  0.0000000000000D+00
   418  4.1700000000000D+00  0.0000000000000D+00  0.0000000000000D+00
   419  4.1800000000000D+00  0.0000000000000D+00  0.0000000000000D+00
   420  4.1900000000000D+00  0.0000000000000D+00  0.0000000000000D+00
   421  4.2000000000000D+00  0.0000000000000D+00  0.0000000000000D+00
   422  4.2100000000000D+00  0.0000000000000D+00  0.0000000000000D+00