Os    ONCVPSP-3.3.1  r_core=   1.76739   1.87601   1.51352   2.61993
     76.0000     16.0000      210905    zatom,zion,pspd
     8 -116133   3     4   600     0    pspcod,pspxc,lmax,lloc,mmax,r2well
  5.99000000  0.00000000  0.00000000    rchrg fchrg qchrg
     2     4     3     4    nproj
     3     1           extension_switch
     4     4     4    nprojso
   0                         2.0621022772230D+00  1.4117481992608D+01
     1  0.0000000000000D+00 -3.1634657393642D-10  1.3849416058420D-10
     2  1.0000000000000D-02 -9.4007143273498D-03  5.2726547776912D-02
     3  2.0000000000000D-02 -1.8844877526646D-02  1.0542444714459D-01
     4  3.0000000000000D-02 -2.8374907978417D-02  1.5806463923650D-01
     5  4.0000000000000D-02 -3.8031173346360D-02  2.1061724873269D-01
     6  5.0000000000000D-02 -4.7850990803703D-02  2.6305118675102D-01
     7  6.0000000000000D-02 -5.7867657737065D-02  3.1533376698153D-01
     8  7.0000000000000D-02 -6.8109522714744D-02  3.6743033931532D-01
     9  8.0000000000000D-02 -7.8599106189977D-02  4.1930394508063D-01
    10  9.0000000000000D-02 -8.9352280017896D-02  4.7091499782771D-01
    11  1.0000000000000D-01 -1.0037751439976D-01  5.2222099340037D-01
    12  1.1000000000000D-01 -1.1167520033237D-01  5.7317625279880D-01
    13  1.2000000000000D-01 -1.2323705503793D-01  6.2373170107514D-01
    14  1.3000000000000D-01 -1.3504561718298D-01  6.7383468521348D-01
    15  1.4000000000000D-01 -1.4707383796970D-01  7.2342883363057D-01
    16  1.5000000000000D-01 -1.5928477340195D-01  7.7245395959501D-01
    17  1.6000000000000D-01 -1.7163138219860D-01  8.2084601050309D-01
    18  1.7000000000000D-01 -1.8405643295161D-01  8.6853706457182D-01
    19  1.8000000000000D-01 -1.9649252321357D-01  9.1545537611552D-01
    20  1.9000000000000D-01 -2.0886221225373D-01  9.6152547016590D-01
    21  2.0000000000000D-01 -2.2107826825044D-01  1.0066682867782D+00
    22  2.1000000000000D-01 -2.3304402969781D-01  1.0508013749419D+00
    23  2.2000000000000D-01 -2.4465387980269D-01  1.0938391355860D+00
    24  2.3000000000000D-01 -2.5579383164207D-01  1.1356931127403D+00
    25  2.4000000000000D-01 -2.6634222084835D-01  1.1762723314861D+00
    26  2.5000000000000D-01 -2.7617050159889D-01  1.2154836809092D+00
    27  2.6000000000000D-01 -2.8514414071370D-01  1.2532323398562D+00
    28  2.7000000000000D-01 -2.9312360372086D-01  1.2894222428939D+00
    29  2.8000000000000D-01 -2.9996542583905D-01  1.3239565834871D+00
    30  2.9000000000000D-01 -3.0552335996095D-01  1.3567383510459D+00
    31  3.0000000000000D-01 -3.0964959290541D-01  1.3876708981460D+00
    32  3.1000000000000D-01 -3.1219602045042D-01  1.4166585339093D+00
    33  3.2000000000000D-01 -3.1301557096867D-01  1.4436071392400D+00
    34  3.3000000000000D-01 -3.1196356687058D-01  1.4684247993480D+00
    35  3.4000000000000D-01 -3.0889911252310D-01  1.4910224487659D+00
    36  3.5000000000000D-01 -3.0368649686207D-01  1.5113145238720D+00
    37  3.6000000000000D-01 -2.9619659855759D-01  1.5292196177773D+00
    38  3.7000000000000D-01 -2.8630828132967D-01  1.5446611323164D+00
    39  3.8000000000000D-01 -2.7390976685232D-01  1.5575679218099D+00
    40  3.9000000000000D-01 -2.5889997262794D-01  1.5678749232316D+00
    41  4.0000000000000D-01 -2.4118980226708D-01  1.5755237674243D+00
    42  4.1000000000000D-01 -2.2070337577065D-01  1.5804633660623D+00
    43  4.2000000000000D-01 -1.9737918768447D-01  1.5826504691565D+00
    44  4.3000000000000D-01 -1.7117118138001D-01  1.5820501880407D+00
    45  4.4000000000000D-01 -1.4204972820804D-01  1.5786364789630D+00
    46  4.5000000000000D-01 -1.1000250087384D-01  1.5723925826335D+00
    47  4.6000000000000D-01 -7.5035231087954D-02  1.5633114153518D+00
    48  4.7000000000000D-01 -3.7172342353826D-02  1.5513959076435D+00
    49  4.8000000000000D-01  3.5425503442319D-03  1.5366592866865D+00
    50  4.9000000000000D-01  4.7046281196882D-02  1.5191252991886D+00
    51  5.0000000000000D-01  9.3255920739398D-02  1.4988283717927D+00
    52  5.1000000000000D-01  1.4206871455540D-01  1.4758137065360D+00
    53  5.2000000000000D-01  1.9336217732073D-01  1.4501373093585D+00
    54  5.3000000000000D-01  2.4699434472266D-01  1.4218659501513D+00
    55  5.4000000000000D-01  3.0280418447434D-01  1.3910770533541D+00
    56  5.5000000000000D-01  3.6061216629279D-01  1.3578585186361D+00
    57  5.6000000000000D-01  4.2022098933871D-01  1.3223084717371D+00
    58  5.7000000000000D-01  4.8141646423061D-01  1.2845349460934D+00
    59  5.8000000000000D-01  5.4396854536830D-01  1.2446554964189D+00
    60  5.9000000000000D-01  6.0763250793255D-01  1.2027967459592D+00
    61  6.0000000000000D-01  6.7215026259396D-01  1.1590938696727D+00
    62  6.1000000000000D-01  7.3725179966282D-01  1.1136900161196D+00
    63  6.2000000000000D-01  8.0265675317583D-01  1.0667356713460D+00
    64  6.3000000000000D-01  8.6807607423143D-01  1.0183879685382D+00
    65  6.4000000000000D-01  9.3321380179334D-01  9.6880994768128D-01
    66  6.5000000000000D-01  9.9776891817016D-01  9.1816976988901D-01
    67  6.6000000000000D-01  1.0614372754699D+00  8.6663989146377D-01
    68  6.7000000000000D-01  1.1239135785323D+00  8.1439620310691D-01
    69  6.8000000000000D-01  1.1848934091616D+00  7.6161714001346D-01
    70  6.9000000000000D-01  1.2440752759308D+00  7.0848276885847D-01
    71  7.0000000000000D-01  1.3011626734109D+00  6.5517385790567D-01
    72  7.1000000000000D-01  1.3558661344023D+00  6.0187093664436D-01
    73  7.2000000000000D-01  1.4079052586078D+00  5.4875335148390D-01
    74  7.3000000000000D-01  1.4570107012037D+00  4.9599832410585D-01
    75  7.4000000000000D-01  1.5029261049217D+00  4.4378001909070D-01
    76  7.5000000000000D-01  1.5454099595650D+00  3.9226862739928D-01
    77  7.6000000000000D-01  1.5842373733359D+00  3.4162947219748D-01
    78  7.7000000000000D-01  1.6192017409495D+00  2.9202214336974D-01
    79  7.8000000000000D-01  1.6501162942429D+00  2.4359966686902D-01
    80  7.9000000000000D-01  1.6768155218601D+00  1.9650771480476D-01
    81  8.0000000000000D-01  1.6991564455833D+00  1.5088386187489D-01
    82  8.1000000000000D-01  1.7170197419906D+00  1.0685689340660D-01
    83  8.2000000000000D-01  1.7303106993354D+00  6.4546169886713D-02
    84  8.3000000000000D-01  1.7389600008494D+00  2.4061052439472D-02
    85  8.4000000000000D-01  1.7429243270646D+00 -1.4499606749489D-02
    86  8.5000000000000D-01  1.7421867712058D+00 -5.1047905553659D-02
    87  8.6000000000000D-01  1.7367570632208D+00 -8.5507261578265D-02
    88  8.7000000000000D-01  1.7266715995665D+00 -1.1781270793101D-01
    89  8.8000000000000D-01  1.7119932774482D+00 -1.4791111319257D-01
    90  8.9000000000000D-01  1.6928111337928D+00 -1.7576132425574D-01
    91  9.0000000000000D-01  1.6692397908182D+00 -2.0133423127627D-01
    92  9.1000000000000D-01  1.6414187116120D+00 -2.2461275455342D-01
    93  9.2000000000000D-01  1.6095112706542D+00 -2.4559175372949D-01
    94  9.3000000000000D-01  1.5737036456777D+00 -2.6427786025959D-01
    95  9.4000000000000D-01  1.5342035386561D+00 -2.8068923465002D-01
    96  9.5000000000000D-01  1.4912387350187D+00 -2.9485525049165D-01
    97  9.6000000000000D-01  1.4450555114122D+00 -3.0681610781983D-01
    98  9.7000000000000D-01  1.3959169034319D+00 -3.1662237880579D-01
    99  9.8000000000000D-01  1.3441008457303D+00 -3.2433448922515D-01
   100  9.9000000000000D-01  1.2898981977876D+00 -3.3002213956114D-01
   101  1.0000000000000D+00  1.2336106693365D+00 -3.3376366995951D-01
   102  1.0100000000000D+00  1.1755486600212D+00 -3.3564537357760D-01
   103  1.0200000000000D+00  1.1160290283042D+00 -3.3576076314640D-01
   104  1.0300000000000D+00  1.0553728049095D+00 -3.3420979579552D-01
   105  1.0400000000000D+00  9.9390286621700D-01 -3.3109806136699D-01
   106  1.0500000000000D+00  9.3194158300526D-01 -3.2653593957924D-01
   107  1.0600000000000D+00  8.6980845974727D-01 -3.2063773148112D-01
   108  1.0700000000000D+00  8.0781777934257D-01 -3.1352077066394D-01
   109  1.0800000000000D+00  7.4627626768446D-01 -3.0530451967870D-01
   110  1.0900000000000D+00  6.8548079184408D-01 -2.9610965703317D-01
   111  1.1000000000000D+00  6.2571610497532D-01 -2.8605716004235D-01
   112  1.1100000000000D+00  5.6725265007889D-01 -2.7526738862300D-01
   113  1.1200000000000D+00  5.1034443389295D-01 -2.6385917493889D-01
   114  1.1300000000000D+00  4.5522698094553D-01 -2.5194892351929D-01
   115  1.1400000000000D+00  4.0211537698805D-01 -2.3964972628075D-01
   116  1.1500000000000D+00  3.5120240939625D-01 -2.2707049646634D-01
   117  1.1600000000000D+00  3.0265681112790D-01 -2.1431512524623D-01
   118  1.1700000000000D+00  2.5662160686908D-01 -2.0148166288758D-01
   119  1.1800000000000D+00  2.1321259269934D-01 -1.8866153332436D-01
   120  1.1900000000000D+00  1.7251691715408D-01 -1.7593877816841D-01
   121  1.2000000000000D+00  1.3459198024017D-01 -1.6338937740844D-01
   122  1.2100000000000D+00  9.9463026974677D-02 -1.5108029527174D-01
   123  1.2200000000000D+00  6.7127219193706D-02 -1.3906995145250D-01
   124  1.2300000000000D+00  3.7560018990632D-02 -1.2740929687914D-01
   125  1.2400000000000D+00  1.0722283968983D-02 -1.1614320962034D-01
   126  1.2500000000000D+00 -1.3438878781854D-02 -1.0531058888566D-01
   127  1.2600000000000D+00 -3.4989676574639D-02 -9.4944391522222D-02
   128  1.2700000000000D+00 -5.4008458964198D-02 -8.5071832531033D-02
   129  1.2800000000000D+00 -7.0584704360486D-02 -7.5714573243987D-02
   130  1.2900000000000D+00 -8.4817932662010D-02 -6.6888941452383D-02
   131  1.3000000000000D+00 -9.6816568961028D-02 -5.8606178255926D-02
   132  1.3100000000000D+00 -1.0669677336404D-01 -5.0872707791388D-02
   133  1.3200000000000D+00 -1.1458124779581D-01 -4.3690426787066D-02
   134  1.3300000000000D+00 -1.2059803119612D-01 -3.7057010770920D-02
   135  1.3400000000000D+00 -1.2487929334338D-01 -3.0966233990361D-02
   136  1.3500000000000D+00 -1.2756013839227D-01 -2.5408299772181D-02
   137  1.3600000000000D+00 -1.2877742887223D-01 -2.0370178177135D-02
   138  1.3700000000000D+00 -1.2866864060681D-01 -1.5835947766725D-02
   139  1.3800000000000D+00 -1.2737075713857D-01 -1.1787138710376D-02
   140  1.3900000000000D+00 -1.2501921472172D-01 -8.2030738752384D-03
   141  1.4000000000000D+00 -1.2174690359261D-01 -5.0612057671971D-03
   142  1.4100000000000D+00 -1.1768323282436D-01 -2.3374468278384D-03
   143  1.4200000000000D+00 -1.1295326823764D-01 -6.4899905355554D-06
   144  1.4300000000000D+00 -1.0767694655866D-01  1.9578820725852D-03
   145  1.4400000000000D+00 -1.0196837309933D-01  3.5825015612846D-03
   146  1.4500000000000D+00 -9.5935204899193D-02  4.8945353028168D-03
   147  1.4600000000000D+00 -8.9678123224600D-02  5.9212213930748D-03
   148  1.4700000000000D+00 -8.3290397719581D-02  6.6896240819077D-03
   149  1.4800000000000D+00 -7.6857541102923D-02  7.2264074107556D-03
   150  1.4900000000000D+00 -7.0457058938668D-02  7.5576295547272D-03
   151  1.5000000000000D+00 -6.4158289009651D-02  7.7085572506994D-03
   152  1.5100000000000D+00 -5.8022333521271D-02  7.7035019677787D-03
   153  1.5200000000000D+00 -5.2102076509353D-02  7.5656765768318D-03
   154  1.5300000000000D+00 -4.6442283381844D-02  7.3170724834355D-03
   155  1.5400000000000D+00 -4.1079781598231D-02  6.9783578207117D-03
   156  1.5500000000000D+00 -3.6043714598994D-02  6.5687953280579D-03
   157  1.5600000000000D+00 -3.1355865902333D-02  6.1061799731717D-03
   158  1.5700000000000D+00 -2.7031043820762D-02  5.6067944141848D-03
   159  1.5800000000000D+00 -2.3077521842338D-02  5.0853818632345D-03
   160  1.5900000000000D+00 -1.9497525285887D-02  4.5551344181409D-03
   161  1.6000000000000D+00 -1.6287759612376D-02  4.0276965332519D-03
   162  1.6100000000000D+00 -1.3439969546266D-02  3.5131812185944D-03
   163  1.6200000000000D+00 -1.0941522297458D-02  3.0201980010625D-03
   164  1.6300000000000D+00 -8.7760057917589D-03  2.5558906899780D-03
   165  1.6400000000000D+00 -6.9238340903266D-03  2.1259835715615D-03
   166  1.6500000000000D+00 -5.3628513750646D-03  1.7348341750250D-03
   167  1.6600000000000D+00 -4.0689267457435D-03  1.3854911229865D-03
   168  1.6700000000000D+00 -3.0165316849698D-03  1.0797553099499D-03
   169  1.6800000000000D+00 -2.1792931896539D-03  8.1824298737442D-04
   170  1.6900000000000D+00 -1.5305149719931D-03  6.0044910011460D-04
   171  1.7000000000000D+00 -1.0436608885717D-03  4.2480963942793D-04
   172  1.7100000000000D+00 -6.9296146844702D-04  2.8880278987970D-04
   173  1.7200000000000D+00 -4.5319122054259D-04  1.8885447017563D-04
   174  1.7300000000000D+00 -2.9904354321004D-04  1.2006466544889D-04
   175  1.7400000000000D+00 -2.1102878988956D-04  7.7941940392528D-05
   176  1.7500000000000D+00 -1.7754303141308D-04  5.9142242120311D-05
   177  1.7600000000000D+00 -1.7071685213218D-04  5.3786248412264D-05
   178  1.7700000000000D+00 -1.3788339980845D-04  4.2965932106290D-05
   179  1.7800000000000D+00 -6.1216683864005D-05  1.9054008884495D-05
   180  1.7900000000000D+00  4.7971746871423D-06 -1.4807518728673D-06
   181  1.8000000000000D+00  1.5309179989309D-05 -4.7200547133300D-06
   182  1.8100000000000D+00  1.2127095872523D-07 -3.7370996969645D-08
   183  1.8200000000000D+00 -3.5911642682052D-06  1.1040993755098D-06
   184  1.8300000000000D+00 -8.2013046350610D-07  2.5193617042251D-07
   185  1.8400000000000D+00  4.1517033996507D-07 -1.2959810977926D-07
   186  1.8500000000000D+00  2.1094973877825D-07 -6.5849326824237D-08
   187  1.8600000000000D+00  0.0000000000000D+00  0.0000000000000D+00
   188  1.8700000000000D+00  0.0000000000000D+00  0.0000000000000D+00
   189  1.8800000000000D+00  0.0000000000000D+00  0.0000000000000D+00
   190  1.8900000000000D+00  0.0000000000000D+00  0.0000000000000D+00
   191  1.9000000000000D+00  0.0000000000000D+00  0.0000000000000D+00
   192  1.9100000000000D+00  0.0000000000000D+00  0.0000000000000D+00
   193  1.9200000000000D+00  0.0000000000000D+00  0.0000000000000D+00
   194  1.9300000000000D+00  0.0000000000000D+00  0.0000000000000D+00
   195  1.9400000000000D+00  0.0000000000000D+00  0.0000000000000D+00
   196  1.9500000000000D+00  0.0000000000000D+00  0.0000000000000D+00
   197  1.9600000000000D+00  0.0000000000000D+00  0.0000000000000D+00
   198  1.9700000000000D+00  0.0000000000000D+00  0.0000000000000D+00
   199  1.9800000000000D+00  0.0000000000000D+00  0.0000000000000D+00
   200  1.9900000000000D+00  0.0000000000000D+00  0.0000000000000D+00
   201  2.0000000000000D+00  0.0000000000000D+00  0.0000000000000D+00
   202  2.0100000000000D+00  0.0000000000000D+00  0.0000000000000D+00
   203  2.0200000000000D+00  0.0000000000000D+00  0.0000000000000D+00
   204  2.0300000000000D+00  0.0000000000000D+00  0.0000000000000D+00
   205  2.0400000000000D+00  0.0000000000000D+00  0.0000000000000D+00
   206  2.0500000000000D+00  0.0000000000000D+00  0.0000000000000D+00
   207  2.0600000000000D+00  0.0000000000000D+00  0.0000000000000D+00
   208  2.0700000000000D+00  0.0000000000000D+00  0.0000000000000D+00
   209  2.0800000000000D+00  0.0000000000000D+00  0.0000000000000D+00
   210  2.0900000000000D+00  0.0000000000000D+00  0.0000000000000D+00
   211  2.1000000000000D+00  0.0000000000000D+00  0.0000000000000D+00
   212  2.1100000000000D+00  0.0000000000000D+00  0.0000000000000D+00
   213  2.1200000000000D+00  0.0000000000000D+00  0.0000000000000D+00
   214  2.1300000000000D+00  0.0000000000000D+00  0.0000000000000D+00
   215  2.1400000000000D+00  0.0000000000000D+00  0.0000000000000D+00
   216  2.1500000000000D+00  0.0000000000000D+00  0.0000000000000D+00
   217  2.1600000000000D+00  0.0000000000000D+00  0.0000000000000D+00
   218  2.1700000000000D+00  0.0000000000000D+00  0.0000000000000D+00
   219  2.1800000000000D+00  0.0000000000000D+00  0.0000000000000D+00
   220  2.1900000000000D+00  0.0000000000000D+00  0.0000000000000D+00
   221  2.2000000000000D+00  0.0000000000000D+00  0.0000000000000D+00
   222  2.2100000000000D+00  0.0000000000000D+00  0.0000000000000D+00
   223  2.2200000000000D+00  0.0000000000000D+00  0.0000000000000D+00
   224  2.2300000000000D+00  0.0000000000000D+00  0.0000000000000D+00
   225  2.2400000000000D+00  0.0000000000000D+00  0.0000000000000D+00
   226  2.2500000000000D+00  0.0000000000000D+00  0.0000000000000D+00
   227  2.2600000000000D+00  0.0000000000000D+00  0.0000000000000D+00
   228  2.2700000000000D+00  0.0000000000000D+00  0.0000000000000D+00
   229  2.2800000000000D+00  0.0000000000000D+00  0.0000000000000D+00
   230  2.2900000000000D+00  0.0000000000000D+00  0.0000000000000D+00
   231  2.3000000000000D+00  0.0000000000000D+00  0.0000000000000D+00
   232  2.3100000000000D+00  0.0000000000000D+00  0.0000000000000D+00
   233  2.3200000000000D+00  0.0000000000000D+00  0.0000000000000D+00
   234  2.3300000000000D+00  0.0000000000000D+00  0.0000000000000D+00
   235  2.3400000000000D+00  0.0000000000000D+00  0.0000000000000D+00
   236  2.3500000000000D+00  0.0000000000000D+00  0.0000000000000D+00
   237  2.3600000000000D+00  0.0000000000000D+00  0.0000000000000D+00
   238  2.3700000000000D+00  0.0000000000000D+00  0.0000000000000D+00
   239  2.3800000000000D+00  0.0000000000000D+00  0.0000000000000D+00
   240  2.3900000000000D+00  0.0000000000000D+00  0.0000000000000D+00
   241  2.4000000000000D+00  0.0000000000000D+00  0.0000000000000D+00
   242  2.4100000000000D+00  0.0000000000000D+00  0.0000000000000D+00
   243  2.4200000000000D+00  0.0000000000000D+00  0.0000000000000D+00
   244  2.4300000000000D+00  0.0000000000000D+00  0.0000000000000D+00
   245  2.4400000000000D+00  0.0000000000000D+00  0.0000000000000D+00
   246  2.4500000000000D+00  0.0000000000000D+00  0.0000000000000D+00
   247  2.4600000000000D+00  0.0000000000000D+00  0.0000000000000D+00
   248  2.4700000000000D+00  0.0000000000000D+00  0.0000000000000D+00
   249  2.4800000000000D+00  0.0000000000000D+00  0.0000000000000D+00
   250  2.4900000000000D+00  0.0000000000000D+00  0.0000000000000D+00
   251  2.5000000000000D+00  0.0000000000000D+00  0.0000000000000D+00
   252  2.5100000000000D+00  0.0000000000000D+00  0.0000000000000D+00
   253  2.5200000000000D+00  0.0000000000000D+00  0.0000000000000D+00
   254  2.5300000000000D+00  0.0000000000000D+00  0.0000000000000D+00
   255  2.5400000000000D+00  0.0000000000000D+00  0.0000000000000D+00
   256  2.5500000000000D+00  0.0000000000000D+00  0.0000000000000D+00
   257  2.5600000000000D+00  0.0000000000000D+00  0.0000000000000D+00
   258  2.5700000000000D+00  0.0000000000000D+00  0.0000000000000D+00
   259  2.5800000000000D+00  0.0000000000000D+00  0.0000000000000D+00
   260  2.5900000000000D+00  0.0000000000000D+00  0.0000000000000D+00
   261  2.6000000000000D+00  0.0000000000000D+00  0.0000000000000D+00
   262  2.6100000000000D+00  0.0000000000000D+00  0.0000000000000D+00
   263  2.6200000000000D+00  0.0000000000000D+00  0.0000000000000D+00
   264  2.6300000000000D+00  0.0000000000000D+00  0.0000000000000D+00
   265  2.6400000000000D+00  0.0000000000000D+00  0.0000000000000D+00
   266  2.6500000000000D+00  0.0000000000000D+00  0.0000000000000D+00
   267  2.6600000000000D+00  0.0000000000000D+00  0.0000000000000D+00
   268  2.6700000000000D+00  0.0000000000000D+00  0.0000000000000D+00
   269  2.6800000000000D+00  0.0000000000000D+00  0.0000000000000D+00
   270  2.6900000000000D+00  0.0000000000000D+00  0.0000000000000D+00
   271  2.7000000000000D+00  0.0000000000000D+00  0.0000000000000D+00
   272  2.7100000000000D+00  0.0000000000000D+00  0.0000000000000D+00
   273  2.7200000000000D+00  0.0000000000000D+00  0.0000000000000D+00
   274  2.7300000000000D+00  0.0000000000000D+00  0.0000000000000D+00
   275  2.7400000000000D+00  0.0000000000000D+00  0.0000000000000D+00
   276  2.7500000000000D+00  0.0000000000000D+00  0.0000000000000D+00
   277  2.7600000000000D+00  0.0000000000000D+00  0.0000000000000D+00
   278  2.7700000000000D+00  0.0000000000000D+00  0.0000000000000D+00
   279  2.7800000000000D+00  0.0000000000000D+00  0.0000000000000D+00
   280  2.7900000000000D+00  0.0000000000000D+00  0.0000000000000D+00
   281  2.8000000000000D+00  0.0000000000000D+00  0.0000000000000D+00
   282  2.8100000000000D+00  0.0000000000000D+00  0.0000000000000D+00
   283  2.8200000000000D+00  0.0000000000000D+00  0.0000000000000D+00
   284  2.8300000000000D+00  0.0000000000000D+00  0.0000000000000D+00
   285  2.8400000000000D+00  0.0000000000000D+00  0.0000000000000D+00
   286  2.8500000000000D+00  0.0000000000000D+00  0.0000000000000D+00
   287  2.8600000000000D+00  0.0000000000000D+00  0.0000000000000D+00
   288  2.8700000000000D+00  0.0000000000000D+00  0.0000000000000D+00
   289  2.8800000000000D+00  0.0000000000000D+00  0.0000000000000D+00
   290  2.8900000000000D+00  0.0000000000000D+00  0.0000000000000D+00
   291  2.9000000000000D+00  0.0000000000000D+00  0.0000000000000D+00
   292  2.9100000000000D+00  0.0000000000000D+00  0.0000000000000D+00
   293  2.9200000000000D+00  0.0000000000000D+00  0.0000000000000D+00
   294  2.9300000000000D+00  0.0000000000000D+00  0.0000000000000D+00
   295  2.9400000000000D+00  0.0000000000000D+00  0.0000000000000D+00
   296  2.9500000000000D+00  0.0000000000000D+00  0.0000000000000D+00
   297  2.9600000000000D+00  0.0000000000000D+00  0.0000000000000D+00
   298  2.9700000000000D+00  0.0000000000000D+00  0.0000000000000D+00
   299  2.9800000000000D+00  0.0000000000000D+00  0.0000000000000D+00
   300  2.9900000000000D+00  0.0000000000000D+00  0.0000000000000D+00
   301  3.0000000000000D+00  0.0000000000000D+00  0.0000000000000D+00
   302  3.0100000000000D+00  0.0000000000000D+00  0.0000000000000D+00
   303  3.0200000000000D+00  0.0000000000000D+00  0.0000000000000D+00
   304  3.0300000000000D+00  0.0000000000000D+00  0.0000000000000D+00
   305  3.0400000000000D+00  0.0000000000000D+00  0.0000000000000D+00
   306  3.0500000000000D+00  0.0000000000000D+00  0.0000000000000D+00
   307  3.0600000000000D+00  0.0000000000000D+00  0.0000000000000D+00
   308  3.0700000000000D+00  0.0000000000000D+00  0.0000000000000D+00
   309  3.0800000000000D+00  0.0000000000000D+00  0.0000000000000D+00
   310  3.0900000000000D+00  0.0000000000000D+00  0.0000000000000D+00
   311  3.1000000000000D+00  0.0000000000000D+00  0.0000000000000D+00
   312  3.1100000000000D+00  0.0000000000000D+00  0.0000000000000D+00
   313  3.1200000000000D+00  0.0000000000000D+00  0.0000000000000D+00
   314  3.1300000000000D+00  0.0000000000000D+00  0.0000000000000D+00
   315  3.1400000000000D+00  0.0000000000000D+00  0.0000000000000D+00
   316  3.1500000000000D+00  0.0000000000000D+00  0.0000000000000D+00
   317  3.1600000000000D+00  0.0000000000000D+00  0.0000000000000D+00
   318  3.1700000000000D+00  0.0000000000000D+00  0.0000000000000D+00
   319  3.1800000000000D+00  0.0000000000000D+00  0.0000000000000D+00
   320  3.1900000000000D+00  0.0000000000000D+00  0.0000000000000D+00
   321  3.2000000000000D+00  0.0000000000000D+00  0.0000000000000D+00
   322  3.2100000000000D+00  0.0000000000000D+00  0.0000000000000D+00
   323  3.2200000000000D+00  0.0000000000000D+00  0.0000000000000D+00
   324  3.2300000000000D+00  0.0000000000000D+00  0.0000000000000D+00
   325  3.2400000000000D+00  0.0000000000000D+00  0.0000000000000D+00
   326  3.2500000000000D+00  0.0000000000000D+00  0.0000000000000D+00
   327  3.2600000000000D+00  0.0000000000000D+00  0.0000000000000D+00
   328  3.2700000000000D+00  0.0000000000000D+00  0.0000000000000D+00
   329  3.2800000000000D+00  0.0000000000000D+00  0.0000000000000D+00
   330  3.2900000000000D+00  0.0000000000000D+00  0.0000000000000D+00
   331  3.3000000000000D+00  0.0000000000000D+00  0.0000000000000D+00
   332  3.3100000000000D+00  0.0000000000000D+00  0.0000000000000D+00
   333  3.3200000000000D+00  0.0000000000000D+00  0.0000000000000D+00
   334  3.3300000000000D+00  0.0000000000000D+00  0.0000000000000D+00
   335  3.3400000000000D+00  0.0000000000000D+00  0.0000000000000D+00
   336  3.3500000000000D+00  0.0000000000000D+00  0.0000000000000D+00
   337  3.3600000000000D+00  0.0000000000000D+00  0.0000000000000D+00
   338  3.3700000000000D+00  0.0000000000000D+00  0.0000000000000D+00
   339  3.3800000000000D+00  0.0000000000000D+00  0.0000000000000D+00
   340  3.3900000000000D+00  0.0000000000000D+00  0.0000000000000D+00
   341  3.4000000000000D+00  0.0000000000000D+00  0.0000000000000D+00
   342  3.4100000000000D+00  0.0000000000000D+00  0.0000000000000D+00
   343  3.4200000000000D+00  0.0000000000000D+00  0.0000000000000D+00
   344  3.4300000000000D+00  0.0000000000000D+00  0.0000000000000D+00
   345  3.4400000000000D+00  0.0000000000000D+00  0.0000000000000D+00
   346  3.4500000000000D+00  0.0000000000000D+00  0.0000000000000D+00
   347  3.4600000000000D+00  0.0000000000000D+00  0.0000000000000D+00
   348  3.4700000000000D+00  0.0000000000000D+00  0.0000000000000D+00
   349  3.4800000000000D+00  0.0000000000000D+00  0.0000000000000D+00
   350  3.4900000000000D+00  0.0000000000000D+00  0.0000000000000D+00
   351  3.5000000000000D+00  0.0000000000000D+00  0.0000000000000D+00
   352  3.5100000000000D+00  0.0000000000000D+00  0.0000000000000D+00
   353  3.5200000000000D+00  0.0000000000000D+00  0.0000000000000D+00
   354  3.5300000000000D+00  0.0000000000000D+00  0.0000000000000D+00
   355  3.5400000000000D+00  0.0000000000000D+00  0.0000000000000D+00
   356  3.5500000000000D+00  0.0000000000000D+00  0.0000000000000D+00
   357  3.5600000000000D+00  0.0000000000000D+00  0.0000000000000D+00
   358  3.5700000000000D+00  0.0000000000000D+00  0.0000000000000D+00
   359  3.5800000000000D+00  0.0000000000000D+00  0.0000000000000D+00
   360  3.5900000000000D+00  0.0000000000000D+00  0.0000000000000D+00
   361  3.6000000000000D+00  0.0000000000000D+00  0.0000000000000D+00
   362  3.6100000000000D+00  0.0000000000000D+00  0.0000000000000D+00
   363  3.6200000000000D+00  0.0000000000000D+00  0.0000000000000D+00
   364  3.6300000000000D+00  0.0000000000000D+00  0.0000000000000D+00
   365  3.6400000000000D+00  0.0000000000000D+00  0.0000000000000D+00
   366  3.6500000000000D+00  0.0000000000000D+00  0.0000000000000D+00
   367  3.6600000000000D+00  0.0000000000000D+00  0.0000000000000D+00
   368  3.6700000000000D+00  0.0000000000000D+00  0.0000000000000D+00
   369  3.6800000000000D+00  0.0000000000000D+00  0.0000000000000D+00
   370  3.6900000000000D+00  0.0000000000000D+00  0.0000000000000D+00
   371  3.7000000000000D+00  0.0000000000000D+00  0.0000000000000D+00
   372  3.7100000000000D+00  0.0000000000000D+00  0.0000000000000D+00
   373  3.7200000000000D+00  0.0000000000000D+00  0.0000000000000D+00
   374  3.7300000000000D+00  0.0000000000000D+00  0.0000000000000D+00
   375  3.7400000000000D+00  0.0000000000000D+00  0.0000000000000D+00
   376  3.7500000000000D+00  0.0000000000000D+00  0.0000000000000D+00
   377  3.7600000000000D+00  0.0000000000000D+00  0.0000000000000D+00
   378  3.7700000000000D+00  0.0000000000000D+00  0.0000000000000D+00
   379  3.7800000000000D+00  0.0000000000000D+00  0.0000000000000D+00
   380  3.7900000000000D+00  0.0000000000000D+00  0.0000000000000D+00
   381  3.8000000000000D+00  0.0000000000000D+00  0.0000000000000D+00
   382  3.8100000000000D+00  0.0000000000000D+00  0.0000000000000D+00
   383  3.8200000000000D+00  0.0000000000000D+00  0.0000000000000D+00
   384  3.8300000000000D+00  0.0000000000000D+00  0.0000000000000D+00
   385  3.8400000000000D+00  0.0000000000000D+00  0.0000000000000D+00
   386  3.8500000000000D+00  0.0000000000000D+00  0.0000000000000D+00
   387  3.8600000000000D+00  0.0000000000000D+00  0.0000000000000D+00
   388  3.8700000000000D+00  0.0000000000000D+00  0.0000000000000D+00
   389  3.8800000000000D+00  0.0000000000000D+00  0.0000000000000D+00
   390  3.8900000000000D+00  0.0000000000000D+00  0.0000000000000D+00
   391  3.9000000000000D+00  0.0000000000000D+00  0.0000000000000D+00
   392  3.9100000000000D+00  0.0000000000000D+00  0.0000000000000D+00
   393  3.9200000000000D+00  0.0000000000000D+00  0.0000000000000D+00
   394  3.9300000000000D+00  0.0000000000000D+00  0.0000000000000D+00
   395  3.9400000000000D+00  0.0000000000000D+00  0.0000000000000D+00
   396  3.9500000000000D+00  0.0000000000000D+00  0.0000000000000D+00
   397  3.9600000000000D+00  0.0000000000000D+00  0.0000000000000D+00
   398  3.9700000000000D+00  0.0000000000000D+00  0.0000000000000D+00
   399  3.9800000000000D+00  0.0000000000000D+00  0.0000000000000D+00
   400  3.9900000000000D+00  0.0000000000000D+00  0.0000000000000D+00
   401  4.0000000000000D+00  0.0000000000000D+00  0.0000000000000D+00
   402  4.0100000000000D+00  0.0000000000000D+00  0.0000000000000D+00
   403  4.0200000000000D+00  0.0000000000000D+00  0.0000000000000D+00
   404  4.0300000000000D+00  0.0000000000000D+00  0.0000000000000D+00
   405  4.0400000000000D+00  0.0000000000000D+00  0.0000000000000D+00
   406  4.0500000000000D+00  0.0000000000000D+00  0.0000000000000D+00
   407  4.0600000000000D+00  0.0000000000000D+00  0.0000000000000D+00
   408  4.0700000000000D+00  0.0000000000000D+00  0.0000000000000D+00
   409  4.0800000000000D+00  0.0000000000000D+00  0.0000000000000D+00
   410  4.0900000000000D+00  0.0000000000000D+00  0.0000000000000D+00
   411  4.1000000000000D+00  0.0000000000000D+00  0.0000000000000D+00
   412  4.1100000000000D+00  0.0000000000000D+00  0.0000000000000D+00
   413  4.1200000000000D+00  0.0000000000000D+00  0.0000000000000D+00
   414  4.1300000000000D+00  0.0000000000000D+00  0.0000000000000D+00
   415  4.1400000000000D+00  0.0000000000000D+00  0.0000000000000D+00
   416  4.1500000000000D+00  0.0000000000000D+00  0.0000000000000D+00
   417  4.1600000000000D+00  0.0000000000000D+00  0.0000000000000D+00
   418  4.1700000000000D+00  0.0000000000000D+00  0.0000000000000D+00
   419  4.1800000000000D+00  0.0000000000000D+00  0.0000000000000D+00
   420  4.1900000000000D+00  0.0000000000000D+00  0.0000000000000D+00
   421  4.2000000000000D+00  0.0000000000000D+00  0.0000000000000D+00
   422  4.2100000000000D+00  0.0000000000000D+00  0.0000000000000D+00