P     ONCVPSP-3.3.1  r_core=   2.62098   1.72641
     15.0000      5.0000      210905    zatom,zion,pspd
     8 -116133   1     4   600     0    pspcod,pspxc,lmax,lloc,mmax,r2well
  5.99000000  0.00000000  0.00000000    rchrg fchrg qchrg
     2     3     0     0    nproj
     3     1           extension_switch
     4     0     0    nprojso
   0                         4.4664979601529D-01  7.8790561663519D+00
     1  0.0000000000000D+00  1.4493128919213D-11  1.9411861007512D-11
     2  1.0000000000000D-02 -4.5767128286241D-02  3.4963389160679D-02
     3  2.0000000000000D-02 -9.1401444464435D-02  6.9918784258301D-02
     4  3.0000000000000D-02 -1.3677050913625D-01  1.0485806005776D-01
     5  4.0000000000000D-02 -1.8174262730056D-01  1.3977282990899D-01
     6  5.0000000000000D-02 -2.2618721800027D-01  1.7465431735738D-01
     7  6.0000000000000D-02 -2.6997518091733D-01  2.0949323052208D-01
     8  7.0000000000000D-02 -3.1297925891619D-01  2.4427964014179D-01
     9  8.0000000000000D-02 -3.5507439555003D-01  2.7900286216875D-01
    10  9.0000000000000D-02 -3.9613808656271D-01  3.1365134576701D-01
    11  1.0000000000000D-01 -4.3605072444001D-01  3.4821256754279D-01
    12  1.1000000000000D-01 -4.7469593508833D-01  3.8267293280138D-01
    13  1.2000000000000D-01 -5.1196090574582D-01  4.1701768458758D-01
    14  1.3000000000000D-01 -5.4773670326046D-01  4.5123082122511D-01
    15  1.4000000000000D-01 -5.8191858190143D-01  4.8529502302486D-01
    16  1.5000000000000D-01 -6.1440627990383D-01  5.1919158878218D-01
    17  1.6000000000000D-01 -6.4510430398211D-01  5.5290038263080D-01
    18  1.7000000000000D-01 -6.7392220108436D-01  5.8639979176450D-01
    19  1.8000000000000D-01 -7.0077481669738D-01  6.1966669547820D-01
    20  1.9000000000000D-01 -7.2558253905065D-01  6.5267644591821D-01
    21  2.0000000000000D-01 -7.4827152860637D-01  6.8540286086628D-01
    22  2.1000000000000D-01 -7.6877393226127D-01  7.1781822881554D-01
    23  2.2000000000000D-01 -7.8702808172424D-01  7.4989332652705D-01
    24  2.3000000000000D-01 -8.0297867557268D-01  7.8159744918561D-01
    25  2.4000000000000D-01 -8.1657694452595D-01  8.1289845320109D-01
    26  2.5000000000000D-01 -8.2778079951199D-01  8.4376281162929D-01
    27  2.6000000000000D-01 -8.3655496213658D-01  8.7415568211248D-01
    28  2.7000000000000D-01 -8.4287107719842D-01  9.0404098716619D-01
    29  2.8000000000000D-01 -8.4670780692459D-01  9.3338150656538D-01
    30  2.9000000000000D-01 -8.4805090663038D-01  9.6213898150954D-01
    31  3.0000000000000D-01 -8.4689328153532D-01  9.9027423017437D-01
    32  3.1000000000000D-01 -8.4323502449325D-01  1.0177472741860D+00
    33  3.2000000000000D-01 -8.3708343441767D-01  1.0445174754845D+00
    34  3.3000000000000D-01 -8.2845301520592D-01  1.0705436829751D+00
    35  3.4000000000000D-01 -8.1736545498612D-01  1.0957843883004D+00
    36  3.5000000000000D-01 -8.0384958552860D-01  1.1201978900042D+00
    37  3.6000000000000D-01 -7.8794132168170D-01  1.1437424652960D+00
    38  3.7000000000000D-01 -7.6968358070683D-01  1.1663765485713D+00
    39  3.8000000000000D-01 -7.4912618140341D-01  1.1880589157868D+00
    40  3.9000000000000D-01 -7.2632572292802D-01  1.2087488737421D+00
    41  4.0000000000000D-01 -7.0134544322729D-01  1.2284064532743D+00
    42  4.1000000000000D-01 -6.7425505701766D-01  1.2469926053319D+00
    43  4.2000000000000D-01 -6.4513057326096D-01  1.2644693988571D+00
    44  4.3000000000000D-01 -6.1405409210117D-01  1.2808002193774D+00
    45  4.4000000000000D-01 -5.8111358124556D-01  1.2959499671811D+00
    46  4.5000000000000D-01 -5.4640263179441D-01  1.3098852539312D+00
    47  4.6000000000000D-01 -5.1002019354661D-01  1.3225745965583D+00
    48  4.7000000000000D-01 -4.7207028983582D-01  1.3339886072673D+00
    49  4.8000000000000D-01 -4.3266171198242D-01  1.3441001784870D+00
    50  4.9000000000000D-01 -3.9190769348300D-01  1.3528846615988D+00
    51  5.0000000000000D-01 -3.4992556410006D-01  1.3603200382911D+00
    52  5.1000000000000D-01 -3.0683638406221D-01  1.3663870834008D+00
    53  5.2000000000000D-01 -2.6276455863901D-01  1.3710695181296D+00
    54  5.3000000000000D-01 -2.1783743341634D-01  1.3743541525498D+00
    55  5.4000000000000D-01 -1.7218487066657D-01  1.3762310163542D+00
    56  5.5000000000000D-01 -1.2593880728660D-01  1.3766934768424D+00
    57  5.6000000000000D-01 -7.9232794862169D-02  1.3757383431907D+00
    58  5.7000000000000D-01 -3.2201522513775D-02  1.3733659561038D+00
    59  5.8000000000000D-01  1.5019676715648D-02  1.3695802620091D+00
    60  5.9000000000000D-01  6.2295335054058D-02  1.3643888710240D+00
    61  6.0000000000000D-01  1.0949037377222D-01  1.3578030979969D+00
    62  6.1000000000000D-01  1.5647064039327D-01  1.3498379860040D+00
    63  6.2000000000000D-01  2.0310345805237D-01  1.3405123117665D+00
    64  6.3000000000000D-01  2.4925818555832D-01  1.3298485725433D+00
    65  6.4000000000000D-01  2.9480678654011D-01  1.3178729541487D+00
    66  6.5000000000000D-01  3.3962440587990D-01  1.3046152798418D+00
    67  6.6000000000000D-01  3.8358995144220D-01  1.2901089399391D+00
    68  6.7000000000000D-01  4.2658667890673D-01  1.2743908021068D+00
    69  6.8000000000000D-01  4.6850277730098D-01  1.2575011023989D+00
    70  6.9000000000000D-01  5.0923195260520D-01  1.2394833172227D+00
    71  7.0000000000000D-01  5.4867400657221D-01  1.2203840165252D+00
    72  7.1000000000000D-01  5.8673540766522D-01  1.2002526986128D+00
    73  7.2000000000000D-01  6.2332985076894D-01  1.1791416071365D+00
    74  7.3000000000000D-01  6.5837880207540D-01  1.1571055308923D+00
    75  7.4000000000000D-01  6.9181202528569D-01  1.1342015872102D+00
    76  7.5000000000000D-01  7.2356808500444D-01  1.1104889898223D+00
    77  7.6000000000000D-01  7.5359482293389D-01  1.0860288022230D+00
    78  7.7000000000000D-01  7.8184980220478D-01  1.0608836776531D+00
    79  7.8000000000000D-01  8.0830071490683D-01  1.0351175869549D+00
    80  7.9000000000000D-01  8.3292574761013D-01  1.0087955356645D+00
    81  8.0000000000000D-01  8.5571389939686D-01  9.8198327181623D-01
    82  8.1000000000000D-01  8.7666524665505D-01  9.5474698604715D-01
    83  8.2000000000000D-01  8.9579114862153D-01  9.2715300569358D-01
    84  8.3000000000000D-01  9.1311438740411D-01  8.9926748467358D-01
    85  8.4000000000000D-01  9.2866923596209D-01  8.7115609104724D-01
    86  8.5000000000000D-01  9.4250144728378D-01  8.4288369423747D-01
    87  8.6000000000000D-01  9.5466815776919D-01  8.1451405398089D-01
    88  8.7000000000000D-01  9.6523769760869D-01  7.8610951315814D-01
    89  8.8000000000000D-01  9.7428930074509D-01  7.5773069672648D-01
    90  8.9000000000000D-01  9.8191270681877D-01  7.2943621904440D-01
    91  9.0000000000000D-01  9.8820764732578D-01  7.0128240193665D-01
    92  9.1000000000000D-01  9.9328320806737D-01  6.7332300590002D-01
    93  9.2000000000000D-01  9.9725705983890D-01  6.4560897689353D-01
    94  9.3000000000000D-01  1.0002545491978D+00  6.1818821119156D-01
    95  9.4000000000000D-01  1.0024076410647D+00  5.9110534080537D-01
    96  9.5000000000000D-01  1.0038537048514D+00  5.6440154199576D-01
    97  9.6000000000000D-01  1.0047341357760D+00  5.3811436940844D-01
    98  9.7000000000000D-01  1.0051928030163D+00  5.1227761836320D-01
    99  9.8000000000000D-01  1.0053743163757D+00  4.8692121781820D-01
   100  9.9000000000000D-01  1.0054221031832D+00  4.6207115651131D-01
   101  1.0000000000000D+00  1.0054762872323D+00  4.3774944475224D-01
   102  1.0100000000000D+00  1.0056713616709D+00  4.1397411430095D-01
   103  1.0200000000000D+00  1.0061336478964D+00  3.9075925872107D-01
   104  1.0300000000000D+00  1.0069785326900D+00  3.6811511653884D-01
   105  1.0400000000000D+00  1.0083074760152D+00  3.4604819947559D-01
   106  1.0500000000000D+00  1.0102047821554D+00  3.2456146794485D-01
   107  1.0600000000000D+00  1.0127341271281D+00  3.0365455592180D-01
   108  1.0700000000000D+00  1.0159348356139D+00  2.8332404720312D-01
   109  1.0800000000000D+00  1.0198178908471D+00  2.6356380438017D-01
   110  1.0900000000000D+00  1.0243617040594D+00  2.4436535521708D-01
   111  1.1000000000000D+00  1.0295077453811D+00  2.2571833845070D-01
   112  1.1100000000000D+00  1.0351552174497D+00  2.0761097756271D-01
   113  1.1200000000000D+00  1.0411587989717D+00  1.9003080316257D-01
   114  1.1300000000000D+00  1.0473335349936D+00  1.7296580295748D-01
   115  1.1400000000000D+00  1.0534754341438D+00  1.5640608540534D-01
   116  1.1500000000000D+00  1.0593763361322D+00  1.4034473461726D-01
   117  1.1600000000000D+00  1.0648336593398D+00  1.2477797183856D-01
   118  1.1700000000000D+00  1.0696603025957D+00  1.0970512535299D-01
   119  1.1800000000000D+00  1.0736915532724D+00  9.5128278744488D-02
   120  1.1900000000000D+00  1.0767894593155D+00  8.1051731348377D-02
   121  1.2000000000000D+00  1.0788447264794D+00  6.7481349780691D-02
   122  1.2100000000000D+00  1.0797764852390D+00  5.4423895449911D-02
   123  1.2200000000000D+00  1.0795304774926D+00  4.1886390419090D-02
   124  1.2300000000000D+00  1.0780761582033D+00  2.9875560780489D-02
   125  1.2400000000000D+00  1.0754032014138D+00  1.8397384430897D-02
   126  1.2500000000000D+00  1.0715178520602D+00  7.4567499782810D-03
   127  1.2600000000000D+00  1.0664393839294D+00 -2.9427813667263D-03
   128  1.2700000000000D+00  1.0601968852087D+00 -1.2799119841284D-02
   129  1.2800000000000D+00  1.0528265011641D+00 -2.2111715313049D-02
   130  1.2900000000000D+00  1.0443691382451D+00 -3.0881566241556D-02
   131  1.3000000000000D+00  1.0348686493893D+00 -3.9111184245508D-02
   132  1.3100000000000D+00  1.0243704517201D+00 -4.6804529980987D-02
   133  1.3200000000000D+00  1.0129205130435D+00 -5.3966929168544D-02
   134  1.3300000000000D+00  1.0005646534060D+00 -6.0604978668405D-02
   135  1.3400000000000D+00  9.8734808882697D-01 -6.6726448887361D-02
   136  1.3500000000000D+00  9.7331517020841D-01 -7.2340185544976D-02
   137  1.3600000000000D+00  9.5850926018190D-01 -7.7456015064803D-02
   138  1.3700000000000D+00  9.4297270994278D-01 -8.2084654198015D-02
   139  1.3800000000000D+00  9.2674690842351D-01 -8.6237624794090D-02
   140  1.3900000000000D+00  9.0987236712583D-01 -8.9927174453716D-02
   141  1.4000000000000D+00  8.9238883361982D-01 -9.3166202243866D-02
   142  1.4100000000000D+00  8.7433541204289D-01 -9.5968189630907D-02
   143  1.4200000000000D+00  8.5575068217236D-01 -9.8347135914078D-02
   144  1.4300000000000D+00  8.3667281301375D-01 -1.0031749778628D-01
   145  1.4400000000000D+00  8.1713966141375D-01 -1.0189413244336D-01
   146  1.4500000000000D+00  7.9718885784159D-01 -1.0309224385459D-01
   147  1.4600000000000D+00  7.7685787472126D-01 -1.0392733174471D-01
   148  1.4700000000000D+00  7.5618407806330D-01 -1.0441514289976D-01
   149  1.4800000000000D+00  7.3520476257867D-01 -1.0457162458517D-01
   150  1.4900000000000D+00  7.1395717012777D-01 -1.0441287966233D-01
   151  1.5000000000000D+00  6.9247849333557D-01 -1.0395512338217D-01
   152  1.5100000000000D+00  6.7080586463713D-01 -1.0321464151581D-01
   153  1.5200000000000D+00  6.4897633252276D-01 -1.0220774983299D-01
   154  1.5300000000000D+00  6.2702682591338D-01 -1.0095075475592D-01
   155  1.5400000000000D+00  6.0499410816687D-01 -9.9459915157314D-02
   156  1.5500000000000D+00  5.8291472186442D-01 -9.7751405284060D-02
   157  1.5600000000000D+00  5.6082492583850D-01 -9.5841278744734D-02
   158  1.5700000000000D+00  5.3876062545705D-01 -9.3745433639676D-02
   159  1.5800000000000D+00  5.1675729770552D-01 -9.1479578771463D-02
   160  1.5900000000000D+00  4.9484991183761D-01 -8.9059201052586D-02
   161  1.6000000000000D+00  4.7307284715812D-01 -8.6499534081068D-02
   162  1.6100000000000D+00  4.5145980854349D-01 -8.3815527991281D-02
   163  1.6200000000000D+00  4.3004374114005D-01 -8.1021820595236D-02
   164  1.6300000000000D+00  4.0885674478094D-01 -7.8132709897996D-02
   165  1.6400000000000D+00  3.8792998935904D-01 -7.5162128032532D-02
   166  1.6500000000000D+00  3.6729363165788D-01 -7.2123616679085D-02
   167  1.6600000000000D+00  3.4697673466361D-01 -6.9030304025548D-02
   168  1.6700000000000D+00  3.2700718981392D-01 -6.5894883320387D-02
   169  1.6800000000000D+00  3.0741164301045D-01 -6.2729593073304D-02
   170  1.6900000000000D+00  2.8821542477961D-01 -5.9546198942434D-02
   171  1.7000000000000D+00  2.6944248524882D-01 -5.6355977356316D-02
   172  1.7100000000000D+00  2.5111533421616D-01 -5.3169700893482D-02
   173  1.7200000000000D+00  2.3325498687091D-01 -4.9997625461169D-02
   174  1.7300000000000D+00  2.1588091529425D-01 -4.6849479273707D-02
   175  1.7400000000000D+00  1.9901100624560D-01 -4.3734453670242D-02
   176  1.7500000000000D+00  1.8266152517038D-01 -4.0661195741435D-02
   177  1.7600000000000D+00  1.6684708694146D-01 -3.7637802810845D-02
   178  1.7700000000000D+00  1.5158063303555D-01 -3.4671818700574D-02
   179  1.7800000000000D+00  1.3687341571796D-01 -3.1770231841769D-02
   180  1.7900000000000D+00  1.2273498867029D-01 -2.8939475111630D-02
   181  1.8000000000000D+00  1.0917320473559D-01 -2.6185427479625D-02
   182  1.8100000000000D+00  9.6194219940649D-02 -2.3513417293355D-02
   183  1.8200000000000D+00  8.3802504563641D-02 -2.0928227307386D-02
   184  1.8300000000000D+00  7.2000860227655D-02 -1.8434101250812D-02
   185  1.8400000000000D+00  6.0790443711940D-02 -1.6034752026443D-02
   186  1.8500000000000D+00  5.0170796536436D-02 -1.3733371348626D-02
   187  1.8600000000000D+00  4.0139880691387D-02 -1.1532640857217D-02
   188  1.8700000000000D+00  3.0694119848371D-02 -9.4347445641106D-03
   189  1.8800000000000D+00  2.1828446005649D-02 -7.4413825956382D-03
   190  1.8900000000000D+00  1.3536351224461D-02 -5.5537861438105D-03
   191  1.9000000000000D+00  5.8099440186909D-03 -3.7727335222381D-03
   192  1.9100000000000D+00 -1.3599896749106D-03 -2.0985672844031D-03
   193  1.9200000000000D+00 -7.9839216642833D-03 -5.3121225676649D-04
   194  1.9300000000000D+00 -1.4073512760233D-02  9.2980554176817D-04
   195  1.9400000000000D+00 -1.9641540878419D-02  2.2853392394601D-03
   196  1.9500000000000D+00 -2.4701826097408D-02  3.5366007709991D-03
   197  1.9600000000000D+00 -2.9269153210917D-02  4.6851399635271D-03
   198  1.9700000000000D+00 -3.3359192135138D-02  5.7328231458716D-03
   199  1.9800000000000D+00 -3.6988416553444D-02  6.6818113736432D-03
   200  1.9900000000000D+00 -4.0174021206271D-02  7.5345383529296D-03
   201  2.0000000000000D+00 -4.2933838295575D-02  8.2936881934397D-03
   202  2.0100000000000D+00 -4.5286253230861D-02  8.9621730194615D-03
   203  2.0200000000000D+00 -4.7250120358470D-02  9.5431106082919D-03
   204  2.0300000000000D+00 -4.8844678821668D-02  1.0039802075560D-02
   205  2.0400000000000D+00 -5.0089469035464D-02  1.0455709722440D-02
   206  2.0500000000000D+00 -5.1004250299615D-02  1.0794435169108D-02
   207  2.0600000000000D+00 -5.1608919404369D-02  1.1059697727758D-02
   208  2.0700000000000D+00 -5.1923431365729D-02  1.1255313289030D-02
   209  2.0800000000000D+00 -5.1967721773659D-02  1.1385173589529D-02
   210  2.0900000000000D+00 -5.1761631641726D-02  1.1453226068449D-02
   211  2.1000000000000D+00 -5.1324835006691D-02  1.1463454367430D-02
   212  2.1100000000000D+00 -5.0676768932491D-02  1.1419859390733D-02
   213  2.1200000000000D+00 -4.9836567354922D-02  1.1326441253372D-02
   214  2.1300000000000D+00 -4.8822997682357D-02  1.1187181868083D-02
   215  2.1400000000000D+00 -4.7654401285607D-02  1.1006028426000D-02
   216  2.1500000000000D+00 -4.6348637979717D-02  1.0786877792418D-02
   217  2.1600000000000D+00 -4.4923033738391D-02  1.0533561649040D-02
   218  2.1700000000000D+00 -4.3394333485237D-02  1.0249832788672D-02
   219  2.1800000000000D+00 -4.1778657347456D-02  9.9393522078320D-03
   220  2.1900000000000D+00 -4.0091461430425D-02  9.6056772284700D-03
   221  2.2000000000000D+00 -3.8347503407635D-02  9.2522507120268D-03
   222  2.2100000000000D+00 -3.6560811688311D-02  8.8823910995846D-03
   223  2.2200000000000D+00 -3.4744659953017D-02  8.4992836618895D-03
   224  2.2300000000000D+00 -3.2911545733367D-02  8.1059726764985D-03
   225  2.2400000000000D+00 -3.1073173123658D-02  7.7053545516054D-03
   226  2.2500000000000D+00 -2.9240440733327D-02  7.3001721305607D-03
   227  2.2600000000000D+00 -2.7423433130274D-02  6.8930098071152D-03
   228  2.2700000000000D+00 -2.5631416914088D-02  6.4862896938203D-03
   229  2.2800000000000D+00 -2.3872841184778D-02  6.0822687910603D-03
   230  2.2900000000000D+00 -2.2155341103109D-02  5.6830368953772D-03
   231  2.3000000000000D+00 -2.0485746377375D-02  5.2905156023965D-03
   232  2.3100000000000D+00 -1.8870092963689D-02  4.9064580727448D-03
   233  2.3200000000000D+00 -1.7313638054719D-02  4.5324495570980D-03
   234  2.3300000000000D+00 -1.5820878736403D-02  4.1699087982363D-03
   235  2.3400000000000D+00 -1.4395573303316D-02  3.8200900603657D-03
   236  2.3500000000000D+00 -1.3040765458680D-02  3.4840858472523D-03
   237  2.3600000000000D+00 -1.1758811614736D-02  3.1628303366894D-03
   238  2.3700000000000D+00 -1.0551409859794D-02  2.8571032699703D-03
   239  2.3800000000000D+00 -9.4196314693325D-03  2.5675344369908D-03
   240  2.3900000000000D+00 -8.3639542523012D-03  2.2946086316557D-03
   241  2.4000000000000D+00 -7.3842975966702D-03  2.0386710245425D-03
   242  2.4100000000000D+00 -6.4800581867920D-03  1.7999328132411D-03
   243  2.4200000000000D+00 -5.6501468727000D-03  1.5784771829740D-03
   244  2.4300000000000D+00 -4.8930260548554D-03  1.3742654851162D-03
   245  2.4400000000000D+00 -4.2067478282665D-03  1.1871436200945D-03
   246  2.4500000000000D+00 -3.5889920471561D-03  1.0168485116219D-03
   247  2.4600000000000D+00 -3.0371044912011D-03  8.6301469921209D-04
   248  2.4700000000000D+00 -2.5481342294776D-03  7.2518083701863D-04
   249  2.4800000000000D+00 -2.1188704301062D-03  6.0279618084718D-04
   250  2.4900000000000D+00 -1.7458789245890D-03  4.9522709653037D-04
   251  2.5000000000000D+00 -1.4255361268445D-03  4.0176314743577D-04
   252  2.5100000000000D+00 -1.1540623396292D-03  3.2162312692238D-04
   253  2.5200000000000D+00 -9.2755374367412D-04  2.5396092315797D-04
   254  2.5300000000000D+00 -7.4206308141665D-04  1.9787876519164D-04
   255  2.5400000000000D+00 -5.9378319572051D-04  1.5245625389794D-04
   256  2.5500000000000D+00 -4.7793038762109D-04  1.1658016928882D-04
   257  2.5600000000000D+00 -3.8999986680852D-04  8.9132941304175D-05
   258  2.5700000000000D+00 -3.2379563365231D-04  6.8662149921688D-05
   259  2.5800000000000D+00 -2.8120860801378D-04  5.5041400108485D-05
   260  2.5900000000000D+00 -2.5980305769582D-04  4.7368946898529D-05
   261  2.6000000000000D+00 -2.6324139814903D-04  4.5803886203889D-05
   262  2.6100000000000D+00 -2.6360594090161D-04  4.4966729229139D-05
   263  2.6200000000000D+00 -2.4371793801333D-04  4.1400508810317D-05
   264  2.6300000000000D+00 -1.7760871976701D-04  3.0157648841794D-05
   265  2.6400000000000D+00 -9.3365332672506D-05  1.5873351937372D-05
   266  2.6500000000000D+00 -1.5439273968582D-05  2.6299210318304D-06
   267  2.6600000000000D+00  2.0964209884603D-05 -3.5447519187739D-06
   268  2.6700000000000D+00  2.3618449207050D-05 -3.9937601662176D-06
   269  2.6800000000000D+00  8.3448779910005D-06 -1.4113050485671D-06
   270  2.6900000000000D+00 -3.5161857367477D-06  5.9184656726030D-07
   271  2.7000000000000D+00 -5.6622301859230D-06  9.5266224792214D-07
   272  2.7100000000000D+00 -3.0526598095492D-06  5.1342072028661D-07
   273  2.7200000000000D+00  2.6190188589915D-07 -4.4491788839384D-08
   274  2.7300000000000D+00  6.6998029095799D-07 -1.1381598696594D-07
   275  2.7400000000000D+00  4.9805908935458D-07 -8.4610081202825D-08
   276  2.7500000000000D+00  0.0000000000000D+00  0.0000000000000D+00
   277  2.7600000000000D+00  0.0000000000000D+00  0.0000000000000D+00
   278  2.7700000000000D+00  0.0000000000000D+00  0.0000000000000D+00
   279  2.7800000000000D+00  0.0000000000000D+00  0.0000000000000D+00
   280  2.7900000000000D+00  0.0000000000000D+00  0.0000000000000D+00
   281  2.8000000000000D+00  0.0000000000000D+00  0.0000000000000D+00
   282  2.8100000000000D+00  0.0000000000000D+00  0.0000000000000D+00
   283  2.8200000000000D+00  0.0000000000000D+00  0.0000000000000D+00
   284  2.8300000000000D+00  0.0000000000000D+00  0.0000000000000D+00
   285  2.8400000000000D+00  0.0000000000000D+00  0.0000000000000D+00
   286  2.8500000000000D+00  0.0000000000000D+00  0.0000000000000D+00
   287  2.8600000000000D+00  0.0000000000000D+00  0.0000000000000D+00
   288  2.8700000000000D+00  0.0000000000000D+00  0.0000000000000D+00
   289  2.8800000000000D+00  0.0000000000000D+00  0.0000000000000D+00
   290  2.8900000000000D+00  0.0000000000000D+00  0.0000000000000D+00
   291  2.9000000000000D+00  0.0000000000000D+00  0.0000000000000D+00
   292  2.9100000000000D+00  0.0000000000000D+00  0.0000000000000D+00
   293  2.9200000000000D+00  0.0000000000000D+00  0.0000000000000D+00
   294  2.9300000000000D+00  0.0000000000000D+00  0.0000000000000D+00
   295  2.9400000000000D+00  0.0000000000000D+00  0.0000000000000D+00
   296  2.9500000000000D+00  0.0000000000000D+00  0.0000000000000D+00
   297  2.9600000000000D+00  0.0000000000000D+00  0.0000000000000D+00
   298  2.9700000000000D+00  0.0000000000000D+00  0.0000000000000D+00
   299  2.9800000000000D+00  0.0000000000000D+00  0.0000000000000D+00
   300  2.9900000000000D+00  0.0000000000000D+00  0.0000000000000D+00
   301  3.0000000000000D+00  0.0000000000000D+00  0.0000000000000D+00
   302  3.0100000000000D+00  0.0000000000000D+00  0.0000000000000D+00
   303  3.0200000000000D+00  0.0000000000000D+00  0.0000000000000D+00
   304  3.0300000000000D+00  0.0000000000000D+00  0.0000000000000D+00
   305  3.0400000000000D+00  0.0000000000000D+00  0.0000000000000D+00
   306  3.0500000000000D+00  0.0000000000000D+00  0.0000000000000D+00
   307  3.0600000000000D+00  0.0000000000000D+00  0.0000000000000D+00
   308  3.0700000000000D+00  0.0000000000000D+00  0.0000000000000D+00
   309  3.0800000000000D+00  0.0000000000000D+00  0.0000000000000D+00
   310  3.0900000000000D+00  0.0000000000000D+00  0.0000000000000D+00
   311  3.1000000000000D+00  0.0000000000000D+00  0.0000000000000D+00
   312  3.1100000000000D+00  0.0000000000000D+00  0.0000000000000D+00
   313  3.1200000000000D+00  0.0000000000000D+00  0.0000000000000D+00
   314  3.1300000000000D+00  0.0000000000000D+00  0.0000000000000D+00
   315  3.1400000000000D+00  0.0000000000000D+00  0.0000000000000D+00
   316  3.1500000000000D+00  0.0000000000000D+00  0.0000000000000D+00
   317  3.1600000000000D+00  0.0000000000000D+00  0.0000000000000D+00
   318  3.1700000000000D+00  0.0000000000000D+00  0.0000000000000D+00
   319  3.1800000000000D+00  0.0000000000000D+00  0.0000000000000D+00
   320  3.1900000000000D+00  0.0000000000000D+00  0.0000000000000D+00
   321  3.2000000000000D+00  0.0000000000000D+00  0.0000000000000D+00
   322  3.2100000000000D+00  0.0000000000000D+00  0.0000000000000D+00
   323  3.2200000000000D+00  0.0000000000000D+00  0.0000000000000D+00
   324  3.2300000000000D+00  0.0000000000000D+00  0.0000000000000D+00
   325  3.2400000000000D+00  0.0000000000000D+00  0.0000000000000D+00
   326  3.2500000000000D+00  0.0000000000000D+00  0.0000000000000D+00
   327  3.2600000000000D+00  0.0000000000000D+00  0.0000000000000D+00
   328  3.2700000000000D+00  0.0000000000000D+00  0.0000000000000D+00
   329  3.2800000000000D+00  0.0000000000000D+00  0.0000000000000D+00
   330  3.2900000000000D+00  0.0000000000000D+00  0.0000000000000D+00
   331  3.3000000000000D+00  0.0000000000000D+00  0.0000000000000D+00
   332  3.3100000000000D+00  0.0000000000000D+00  0.0000000000000D+00
   333  3.3200000000000D+00  0.0000000000000D+00  0.0000000000000D+00
   334  3.3300000000000D+00  0.0000000000000D+00  0.0000000000000D+00
   335  3.3400000000000D+00  0.0000000000000D+00  0.0000000000000D+00
   336  3.3500000000000D+00  0.0000000000000D+00  0.0000000000000D+00
   337  3.3600000000000D+00  0.0000000000000D+00  0.0000000000000D+00
   338  3.3700000000000D+00  0.0000000000000D+00  0.0000000000000D+00
   339  3.3800000000000D+00  0.0000000000000D+00  0.0000000000000D+00
   340  3.3900000000000D+00  0.0000000000000D+00  0.0000000000000D+00
   341  3.4000000000000D+00  0.0000000000000D+00  0.0000000000000D+00
   342  3.4100000000000D+00  0.0000000000000D+00  0.0000000000000D+00
   343  3.4200000000000D+00  0.0000000000000D+00  0.0000000000000D+00
   344  3.4300000000000D+00  0.0000000000000D+00  0.0000000000000D+00
   345  3.4400000000000D+00  0.0000000000000D+00  0.0000000000000D+00
   346  3.4500000000000D+00  0.0000000000000D+00  0.0000000000000D+00
   347  3.4600000000000D+00  0.0000000000000D+00  0.0000000000000D+00
   348  3.4700000000000D+00  0.0000000000000D+00  0.0000000000000D+00
   349  3.4800000000000D+00  0.0000000000000D+00  0.0000000000000D+00
   350  3.4900000000000D+00  0.0000000000000D+00  0.0000000000000D+00
   351  3.5000000000000D+00  0.0000000000000D+00  0.0000000000000D+00
   352  3.5100000000000D+00  0.0000000000000D+00  0.0000000000000D+00
   353  3.5200000000000D+00  0.0000000000000D+00  0.0000000000000D+00
   354  3.5300000000000D+00  0.0000000000000D+00  0.0000000000000D+00
   355  3.5400000000000D+00  0.0000000000000D+00  0.0000000000000D+00
   356  3.5500000000000D+00  0.0000000000000D+00  0.0000000000000D+00
   357  3.5600000000000D+00  0.0000000000000D+00  0.0000000000000D+00
   358  3.5700000000000D+00  0.0000000000000D+00  0.0000000000000D+00
   359  3.5800000000000D+00  0.0000000000000D+00  0.0000000000000D+00
   360  3.5900000000000D+00  0.0000000000000D+00  0.0000000000000D+00
   361  3.6000000000000D+00  0.0000000000000D+00  0.0000000000000D+00
   362  3.6100000000000D+00  0.0000000000000D+00  0.0000000000000D+00
   363  3.6200000000000D+00  0.0000000000000D+00  0.0000000000000D+00
   364  3.6300000000000D+00  0.0000000000000D+00  0.0000000000000D+00
   365  3.6400000000000D+00  0.0000000000000D+00  0.0000000000000D+00
   366  3.6500000000000D+00  0.0000000000000D+00  0.0000000000000D+00
   367  3.6600000000000D+00  0.0000000000000D+00  0.0000000000000D+00
   368  3.6700000000000D+00  0.0000000000000D+00  0.0000000000000D+00
   369  3.6800000000000D+00  0.0000000000000D+00  0.0000000000000D+00
   370  3.6900000000000D+00  0.0000000000000D+00  0.0000000000000D+00
   371  3.7000000000000D+00  0.0000000000000D+00  0.0000000000000D+00
   372  3.7100000000000D+00  0.0000000000000D+00  0.0000000000000D+00
   373  3.7200000000000D+00  0.0000000000000D+00  0.0000000000000D+00
   374  3.7300000000000D+00  0.0000000000000D+00  0.0000000000000D+00
   375  3.7400000000000D+00  0.0000000000000D+00  0.0000000000000D+00
   376  3.7500000000000D+00  0.0000000000000D+00  0.0000000000000D+00
   377  3.7600000000000D+00  0.0000000000000D+00  0.0000000000000D+00
   378  3.7700000000000D+00  0.0000000000000D+00  0.0000000000000D+00
   379  3.7800000000000D+00  0.0000000000000D+00  0.0000000000000D+00
   380  3.7900000000000D+00  0.0000000000000D+00  0.0000000000000D+00
   381  3.8000000000000D+00  0.0000000000000D+00  0.0000000000000D+00
   382  3.8100000000000D+00  0.0000000000000D+00  0.0000000000000D+00
   383  3.8200000000000D+00  0.0000000000000D+00  0.0000000000000D+00
   384  3.8300000000000D+00  0.0000000000000D+00  0.0000000000000D+00
   385  3.8400000000000D+00  0.0000000000000D+00  0.0000000000000D+00
   386  3.8500000000000D+00  0.0000000000000D+00  0.0000000000000D+00
   387  3.8600000000000D+00  0.0000000000000D+00  0.0000000000000D+00
   388  3.8700000000000D+00  0.0000000000000D+00  0.0000000000000D+00
   389  3.8800000000000D+00  0.0000000000000D+00  0.0000000000000D+00
   390  3.8900000000000D+00  0.0000000000000D+00  0.0000000000000D+00
   391  3.9000000000000D+00  0.0000000000000D+00  0.0000000000000D+00
   392  3.9100000000000D+00  0.0000000000000D+00  0.0000000000000D+00
   393  3.9200000000000D+00  0.0000000000000D+00  0.0000000000000D+00
   394  3.9300000000000D+00  0.0000000000000D+00  0.0000000000000D+00
   395  3.9400000000000D+00  0.0000000000000D+00  0.0000000000000D+00
   396  3.9500000000000D+00  0.0000000000000D+00  0.0000000000000D+00
   397  3.9600000000000D+00  0.0000000000000D+00  0.0000000000000D+00
   398  3.9700000000000D+00  0.0000000000000D+00  0.0000000000000D+00
   399  3.9800000000000D+00  0.0000000000000D+00  0.0000000000000D+00
   400  3.9900000000000D+00  0.0000000000000D+00  0.0000000000000D+00
   401  4.0000000000000D+00  0.0000000000000D+00  0.0000000000000D+00
   402  4.0100000000000D+00  0.0000000000000D+00  0.0000000000000D+00
   403  4.0200000000000D+00  0.0000000000000D+00  0.0000000000000D+00
   404  4.0300000000000D+00  0.0000000000000D+00  0.0000000000000D+00
   405  4.0400000000000D+00  0.0000000000000D+00  0.0000000000000D+00
   406  4.0500000000000D+00  0.0000000000000D+00  0.0000000000000D+00
   407  4.0600000000000D+00  0.0000000000000D+00  0.0000000000000D+00
   408  4.0700000000000D+00  0.0000000000000D+00  0.0000000000000D+00
   409  4.0800000000000D+00  0.0000000000000D+00  0.0000000000000D+00
   410  4.0900000000000D+00  0.0000000000000D+00  0.0000000000000D+00
   411  4.1000000000000D+00  0.0000000000000D+00  0.0000000000000D+00
   412  4.1100000000000D+00  0.0000000000000D+00  0.0000000000000D+00
   413  4.1200000000000D+00  0.0000000000000D+00  0.0000000000000D+00
   414  4.1300000000000D+00  0.0000000000000D+00  0.0000000000000D+00
   415  4.1400000000000D+00  0.0000000000000D+00  0.0000000000000D+00
   416  4.1500000000000D+00  0.0000000000000D+00  0.0000000000000D+00
   417  4.1600000000000D+00  0.0000000000000D+00  0.0000000000000D+00
   418  4.1700000000000D+00  0.0000000000000D+00  0.0000000000000D+00
   419  4.1800000000000D+00  0.0000000000000D+00  0.0000000000000D+00
   420  4.1900000000000D+00  0.0000000000000D+00  0.0000000000000D+00
   421  4.2000000000000D+00  0.0000000000000D+00  0.0000000000000D+00
   422  4.2100000000000D+00  0.0000000000000D+00  0.0000000000000D+00