Pt    ONCVPSP-3.3.1  r_core=   2.32041   2.32041   2.23884   3.01673
     78.0000     18.0000      210905    zatom,zion,pspd
     8 -116133   3     4   600     0    pspcod,pspxc,lmax,lloc,mmax,r2well
  5.99000000  0.00000000  0.00000000    rchrg fchrg qchrg
     2     2     2     2     0    nproj
     1     1           extension_switch
   0                         6.3726664953673D+00  1.2702096350100D+00
     1  0.0000000000000D+00  5.4470317145672D-12 -2.0770593578412D-11
     2  1.0000000000000D-02  5.8239324408554D-02 -8.2622497595098D-03
     3  2.0000000000000D-02  1.1638802013601D-01 -1.6485260258065D-02
     4  3.0000000000000D-02  1.7435560197168D-01 -2.4629801504164D-02
     5  4.0000000000000D-02  2.3205187157759D-01 -3.2656662641874D-02
     6  5.0000000000000D-02  2.8938706075307D-01 -4.0526663004991D-02
     7  6.0000000000000D-02  3.4627197448936D-01 -4.8200664940098D-02
     8  7.0000000000000D-02  4.0261813373782D-01 -5.5639588963663D-02
     9  8.0000000000000D-02  4.5833791780975D-01 -6.2804431797563D-02
    10  9.0000000000000D-02  5.1334470631920D-01 -6.9656287801697D-02
    11  1.0000000000000D-01  5.6755302057218D-01 -7.6156374291913D-02
    12  1.1000000000000D-01  6.2087866429672D-01 -8.2266061196448D-02
    13  1.2000000000000D-01  6.7323886359778D-01 -8.7946905464834D-02
    14  1.3000000000000D-01  7.2455240601039D-01 -9.3160690599719D-02
    15  1.4000000000000D-01  7.7473977851201D-01 -9.7869471635167D-02
    16  1.5000000000000D-01  8.2372330434280D-01 -1.0203562583427D-01
    17  1.6000000000000D-01  8.7142727846906D-01 -1.0562190932540D-01
    18  1.7000000000000D-01  9.1777810151118D-01 -1.0859151984016D-01
    19  1.8000000000000D-01  9.6270441194357D-01 -1.1090816565731D-01
    20  1.9000000000000D-01  1.0061372163597D+00 -1.1253614079655D-01
    21  2.0000000000000D-01  1.0480100175808D+00 -1.1344040644383D-01
    22  2.1000000000000D-01  1.0882589403721D+00 -1.1358667852700D-01
    23  2.2000000000000D-01  1.1268228545185D+00 -1.1294152129642D-01
    24  2.3000000000000D-01  1.1636434949934D+00 -1.1147244670187D-01
    25  2.4000000000000D-01  1.1986655789478D+00 -1.0914801929283D-01
    26  2.5000000000000D-01  1.2318369192274D+00 -1.0593796630675D-01
    27  2.6000000000000D-01  1.2631085341190D+00 -1.0181329254801D-01
    28  2.7000000000000D-01  1.2924347530152D+00 -9.6746399600339D-02
    29  2.8000000000000D-01  1.3197733176758D+00 -9.0711208857138D-02
    30  2.9000000000000D-01  1.3450854787581D+00 -8.3683287799174D-02
    31  3.0000000000000D-01  1.3683360872802D+00 -7.5639978895950D-02
    32  3.1000000000000D-01  1.3894936806773D+00 -6.6560530458258D-02
    33  3.2000000000000D-01  1.4085305631064D+00 -5.6426228723561D-02
    34  3.3000000000000D-01  1.4254228796533D+00 -4.5220530414504D-02
    35  3.4000000000000D-01  1.4401506840967D+00 -3.2929194973685D-02
    36  3.5000000000000D-01  1.4526979998864D+00 -1.9540415645535D-02
    37  3.6000000000000D-01  1.4630528739932D+00 -5.0449485485623D-03
    38  3.7000000000000D-01  1.4712074233012D+00  1.0563761140590D-02
    39  3.8000000000000D-01  1.4771578732139D+00  2.7289456786789D-02
    40  3.9000000000000D-01  1.4809045881616D+00  4.5132952586046D-02
    41  4.0000000000000D-01  1.4824520937078D+00  6.4092021456608D-02
    42  4.1000000000000D-01  1.4818090899677D+00  8.4161289442289D-02
    43  4.2000000000000D-01  1.4789884560697D+00  1.0533213753178D-01
    44  4.3000000000000D-01  1.4740072454093D+00  1.2759261178493D-01
    45  4.4000000000000D-01  1.4668866714667D+00  1.5092734263798D-01
    46  4.5000000000000D-01  1.4576520839839D+00  1.7531747423444D-01
    47  4.6000000000000D-01  1.4463329353214D+00  2.0074060459758D-01
    48  4.7000000000000D-01  1.4329627368432D+00  2.2717073742323D-01
    49  4.8000000000000D-01  1.4175790052083D+00  2.5457824622902D-01
    50  4.9000000000000D-01  1.4002231984781D+00  2.8292985154798D-01
    51  5.0000000000000D-01  1.3809406419826D+00  3.1218861180063D-01
    52  5.1000000000000D-01  1.3597804439212D+00  3.4231392842105D-01
    53  5.2000000000000D-01  1.3367954007132D+00  3.7326156574897D-01
    54  5.3000000000000D-01  1.3120418921460D+00  4.0498368613162D-01
    55  5.4000000000000D-01  1.2855797664102D+00  4.3742890060714D-01
    56  5.5000000000000D-01  1.2574722151500D+00  4.7054233546542D-01
    57  5.6000000000000D-01  1.2277856386938D+00  5.0426571490244D-01
    58  5.7000000000000D-01  1.1965895016752D+00  5.3853745990266D-01
    59  5.8000000000000D-01  1.1639561792898D+00  5.7329280339852D-01
    60  5.9000000000000D-01  1.1299607944785D+00  6.0846392166986D-01
    61  6.0000000000000D-01  1.0946810463653D+00  6.4398008185741D-01
    62  6.1000000000000D-01  1.0581970303194D+00  6.7976780537536D-01
    63  6.2000000000000D-01  1.0205910500501D+00  7.1575104691818D-01
    64  6.3000000000000D-01  9.8194742218366D-01  7.5185138866656D-01
    65  6.4000000000000D-01  9.4235227380513D-01  7.8798824920878D-01
    66  6.5000000000000D-01  9.0189333349045D-01  8.2407910660478D-01
    67  6.6000000000000D-01  8.6065971638391D-01  8.6003973493372D-01
    68  6.7000000000000D-01  8.1874170391299D-01  8.9578445358151D-01
    69  6.8000000000000D-01  7.7623051876302D-01  9.3122638844217D-01
    70  6.9000000000000D-01  7.3321809576391D-01  9.6627774412851D-01
    71  7.0000000000000D-01  6.8979684936872D-01  1.0008500862118D+00
    72  7.1000000000000D-01  6.4605943842875D-01  1.0348546324395D+00
    73  7.2000000000000D-01  6.0209852899240D-01  1.0682025518122D+00
    74  7.3000000000000D-01  5.5800655587459D-01  1.1008052703409D+00
    75  7.4000000000000D-01  5.1387548376033D-01  1.1325747822471D+00
    76  7.5000000000000D-01  4.6979656861997D-01  1.1634239653198D+00
    77  7.6000000000000D-01  4.2586012022418D-01  1.1932668990959D+00
    78  7.7000000000000D-01  3.8215526655404D-01  1.2220191844959D+00
    79  7.8000000000000D-01  3.3876972090599D-01  1.2495982635114D+00
    80  7.9000000000000D-01  2.9578955249180D-01  1.2759237375185D+00
    81  8.0000000000000D-01  2.5329896133111D-01  1.3009176827724D+00
    82  8.1000000000000D-01  2.1138005822791D-01  1.3245049616291D+00
    83  8.2000000000000D-01  1.7011265061252D-01  1.3466135280352D+00
    84  8.3000000000000D-01  1.2957403501754D-01  1.3671747258334D+00
    85  8.4000000000000D-01  8.9838796939383D-02  1.3861235784411D+00
    86  8.5000000000000D-01  5.0978618817387D-02  1.4033990684801D+00
    87  8.6000000000000D-01  1.3062096838373D-02  1.4189444059612D+00
    88  8.7000000000000D-01 -2.3845432751575D-02  1.4327072836632D+00
    89  8.8000000000000D-01 -5.9682057176613D-02  1.4446401183844D+00
    90  8.9000000000000D-01 -9.4389439883292D-02  1.4547002767955D+00
    91  9.0000000000000D-01 -1.2791296193269D-01  1.4628502846762D+00
    92  9.1000000000000D-01 -1.6020185148853D-01  1.4690580183801D+00
    93  9.2000000000000D-01 -1.9120930089870D-01  1.4732968774406D+00
    94  9.3000000000000D-01 -2.2089257091131D-01  1.4755459373030D+00
    95  9.4000000000000D-01 -2.4921308161249D-01  1.4757900812487D+00
    96  9.5000000000000D-01 -2.7613648972131D-01  1.4740201106600D+00
    97  9.6000000000000D-01 -3.0163275192691D-01  1.4702328328660D+00
    98  9.7000000000000D-01 -3.2567617400449D-01  1.4644311258988D+00
    99  9.8000000000000D-01 -3.4824544550038D-01  1.4566239795917D+00
   100  9.9000000000000D-01 -3.6932365982840D-01  1.4468265125460D+00
   101  1.0000000000000D+00 -3.8889831967700D-01  1.4350599645992D+00
   102  1.0100000000000D+00 -4.0696132768028D-01  1.4213516645318D+00
   103  1.0200000000000D+00 -4.2350896236240D-01  1.4057349728560D+00
   104  1.0300000000000D+00 -4.3854183942025D-01  1.3882491996368D+00
   105  1.0400000000000D+00 -4.5206485846562D-01  1.3689394974058D+00
   106  1.0500000000000D+00 -4.6408713540186D-01  1.3478567293343D+00
   107  1.0600000000000D+00 -4.7462192066424D-01  1.3250573129371D+00
   108  1.0700000000000D+00 -4.8368650360837D-01  1.3006030396907D+00
   109  1.0800000000000D+00 -4.9130210338045D-01  1.2745608710462D+00
   110  1.0900000000000D+00 -4.9749374665595D-01  1.2470027114264D+00
   111  1.1000000000000D+00 -5.0229013267904D-01  1.2180051588844D+00
   112  1.1100000000000D+00 -5.0572348608285D-01  1.1876492342052D+00
   113  1.1200000000000D+00 -5.0782939801660D-01  1.1560200893186D+00
   114  1.1300000000000D+00 -5.0864665614525D-01  1.1232066959809D+00
   115  1.1400000000000D+00 -5.0821706412774D-01  1.0893015157597D+00
   116  1.1500000000000D+00 -5.0658525121223D-01  1.0544001524306D+00
   117  1.1600000000000D+00 -5.0379847262727D-01  1.0186009879743D+00
   118  1.1700000000000D+00 -4.9990640147227D-01  9.8200480341861D-01
   119  1.1800000000000D+00 -4.9496091283773D-01  9.4471438582628D-01
   120  1.1900000000000D+00 -4.8901586090964D-01  9.0683412278217D-01
   121  1.2000000000000D+00 -4.8212684983427D-01  8.6846958578097D-01
   122  1.2100000000000D+00 -4.7435099913299D-01  8.2972710394855D-01
   123  1.2200000000000D+00 -4.6574670446722D-01  7.9071332955265D-01
   124  1.2300000000000D+00 -4.5637339456865D-01  7.5153479679593D-01
   125  1.2400000000000D+00 -4.4629128514791D-01  7.1229747538314D-01
   126  1.2500000000000D+00 -4.3556113059908D-01  6.7310632036525D-01
   127  1.2600000000000D+00 -4.2424397431704D-01  6.3406481976823D-01
   128  1.2700000000000D+00 -4.1240089843126D-01  5.9527454149119D-01
   129  1.2800000000000D+00 -4.0009277375687D-01  5.5683468095413D-01
   130  1.2900000000000D+00 -3.8738001075109D-01  5.1884161095564D-01
   131  1.3000000000000D+00 -3.7432231223232D-01  4.8138843514227D-01
   132  1.3100000000000D+00 -3.6097842861910D-01  4.4456454649181D-01
   133  1.3200000000000D+00 -3.4740591641465D-01  4.0845519215509D-01
   134  1.3300000000000D+00 -3.3366090061451D-01  3.7314104590603D-01
   135  1.3400000000000D+00 -3.1979784173390D-01  3.3869778948887D-01
   136  1.3500000000000D+00 -3.0586930807572D-01  3.0519570400442D-01
   137  1.3600000000000D+00 -2.9192575382081D-01  2.7269927240000D-01
   138  1.3700000000000D+00 -2.7801530355780D-01  2.4126679419864D-01
   139  1.3800000000000D+00 -2.6418354371951D-01  2.1095001330879D-01
   140  1.3900000000000D+00 -2.5047332127021D-01  1.8179375924582D-01
   141  1.4000000000000D+00 -2.3692454991239D-01  1.5383560191449D-01
   142  1.4100000000000D+00 -2.2357402382452D-01  1.2710552026909D-01
   143  1.4200000000000D+00 -2.1045525609681D-01  1.0162563938976D-01
   144  1.4300000000000D+00 -1.9759832646511D-01  7.7409994128150D-02
   145  1.4400000000000D+00 -1.8502952583543D-01  5.4463552817034D-02
   146  1.4500000000000D+00 -1.7277167233054D-01  3.2783595503777D-02
   147  1.4600000000000D+00 -1.6084462810184D-01  1.2361788535065D-02
   148  1.4700000000000D+00 -1.4926589842614D-01 -6.8137009562434D-03
   149  1.4800000000000D+00 -1.3805112450792D-01 -2.4756494655882D-02
   150  1.4900000000000D+00 -1.2721393460567D-01 -4.1482631986476D-02
   151  1.5000000000000D+00 -1.1676599191977D-01 -5.7010504482355D-02
   152  1.5100000000000D+00 -1.0671706768784D-01 -7.1360690461764D-02
   153  1.5200000000000D+00 -9.7075087511396D-02 -8.4555900602949D-02
   154  1.5300000000000D+00 -8.7846190321029D-02 -9.6620882041719D-02
   155  1.5400000000000D+00 -7.9034788415587D-02 -1.0758232417177D-01
   156  1.5500000000000D+00 -7.0643631548576D-02 -1.1746875479800D-01
   157  1.5600000000000D+00 -6.2673874139503D-02 -1.2631042964284D-01
   158  1.5700000000000D+00 -5.5125145281403D-02 -1.3413921591956D-01
   159  1.5800000000000D+00 -4.7995621275085D-02 -1.4098847054406D-01
   160  1.5900000000000D+00 -4.1282100370369D-02 -1.4689291367783D-01
   161  1.6000000000000D+00 -3.4980079421286D-02 -1.5188849823171D-01
   162  1.6100000000000D+00 -2.9083832138507D-02 -1.5601227601560D-01
   163  1.6200000000000D+00 -2.3586488640097D-02 -1.5930226118089D-01
   164  1.6300000000000D+00 -1.8480115978346D-02 -1.6179729165293D-01
   165  1.6400000000000D+00 -1.3755799356109D-02 -1.6353688917557D-01
   166  1.6500000000000D+00 -9.4037236970887D-03 -1.6456111869520D-01
   167  1.6600000000000D+00 -5.4132553124966D-03 -1.6491044764259D-01
   168  1.6700000000000D+00 -1.7730233092921D-03 -1.6462560588435D-01
   169  1.6800000000000D+00  1.5289994748323D-03 -1.6374744680645D-01
   170  1.6900000000000D+00  4.5054163861090D-03 -1.6231681035149D-01
   171  1.7000000000000D+00  7.1693278818344D-03 -1.6037438835437D-01
   172  1.7100000000000D+00  9.5342538661631D-03 -1.5796059304456D-01
   173  1.7200000000000D+00  1.1614057541752D-02 -1.5511542893267D-01
   174  1.7300000000000D+00  1.3422871185479D-02 -1.5187836897853D-01
   175  1.7400000000000D+00  1.4975023902430D-02 -1.4828823513636D-01
   176  1.7500000000000D+00  1.6284971764497D-02 -1.4438308417246D-01
   177  1.7600000000000D+00  1.7367230357259D-02 -1.4020009878584D-01
   178  1.7700000000000D+00  1.8236310094432D-02 -1.3577548480905D-01
   179  1.7800000000000D+00  1.8906654287715D-02 -1.3114437442378D-01
   180  1.7900000000000D+00  1.9392580352175D-02 -1.2634073626990D-01
   181  1.8000000000000D+00  1.9708224175520D-02 -1.2139729248656D-01
   182  1.8100000000000D+00  1.9867487740078D-02 -1.1634544278500D-01
   183  1.8200000000000D+00  1.9883990097864D-02 -1.1121519575632D-01
   184  1.8300000000000D+00  1.9771021852394D-02 -1.0603510780727D-01
   185  1.8400000000000D+00  1.9541503342355D-02 -1.0083223013233D-01
   186  1.8500000000000D+00  1.9207946285215D-02 -9.5632063091553D-02
   187  1.8600000000000D+00  1.8782419422988D-02 -9.0458519293144D-02
   188  1.8700000000000D+00  1.8276517705035D-02 -8.5333894273139D-02
   189  1.8800000000000D+00  1.7701335126654D-02 -8.0278844763892D-02
   190  1.8900000000000D+00  1.7067441078796D-02 -7.5312374430183D-02
   191  1.9000000000000D+00  1.6384860723725D-02 -7.0451828260504D-02
   192  1.9100000000000D+00  1.5663058825599D-02 -6.5712894181563D-02
   193  1.9200000000000D+00  1.4910927251286D-02 -6.1109612384589D-02
   194  1.9300000000000D+00  1.4136776038544D-02 -5.6654392114036D-02
   195  1.9400000000000D+00  1.3348327774346D-02 -5.2358035281003D-02
   196  1.9500000000000D+00  1.2552715376381D-02 -4.8229767025527D-02
   197  1.9600000000000D+00  1.1756482838770D-02 -4.4277272268539D-02
   198  1.9700000000000D+00  1.0965589397290D-02 -4.0506739293258D-02
   199  1.9800000000000D+00  1.0185416385188D-02 -3.6922908615444D-02
   200  1.9900000000000D+00  9.4207769851258D-03 -3.3529127584911D-02
   201  2.0000000000000D+00  8.6759285762299D-03 -3.0327410015149D-02
   202  2.0100000000000D+00  7.9545874715469D-03 -2.7318500352825D-02
   203  2.0200000000000D+00  7.2599460479587D-03 -2.4501942349600D-02
   204  2.0300000000000D+00  6.5946918106252D-03 -2.1876151193901D-02
   205  2.0400000000000D+00  5.9610284736808D-03 -1.9438489227550D-02
   206  2.0500000000000D+00  5.3606986556959D-03 -1.7185344344352D-02
   207  2.0600000000000D+00  4.7950080775923D-03 -1.5112210769182D-02
   208  2.0700000000000D+00  4.2648510596966D-03 -1.3213771729251D-02
   209  2.0800000000000D+00  3.7707370717569D-03 -1.1483983469428D-02
   210  2.0900000000000D+00  3.3128181409370D-03 -9.9161600857190D-03
   211  2.1000000000000D+00  2.8909169446090D-03 -8.5030588327591D-03
   212  2.1100000000000D+00  2.5045553157856D-03 -7.2369652151805D-03
   213  2.1200000000000D+00  2.1529829725392D-03 -6.1097774285015D-03
   214  2.1300000000000D+00  1.8352063890215D-03 -5.1130899873430D-03
   215  2.1400000000000D+00  1.5500173226990D-03 -4.2382753345263D-03
   216  2.1500000000000D+00  1.2960211746422D-03 -3.4765639220628D-03
   217  2.1600000000000D+00  1.0716647084573D-03 -2.8191216012009D-03
   218  2.1700000000000D+00  8.7526296556193D-04 -2.2571239487898D-03
   219  2.1800000000000D+00  7.0502558599642D-04 -1.7818280743313D-03
   220  2.1900000000000D+00  5.5908165584131D-04 -1.3846397631261D-03
   221  2.2000000000000D+00  4.3550366335895D-04 -1.0571774135734D-03
   222  2.2100000000000D+00  3.3233004987812D-04 -7.9133152850966D-04
   223  2.2200000000000D+00  2.4758602056582D-04 -5.7931896469371D-04
   224  2.2300000000000D+00  1.7930320711266D-04 -4.1373340651214D-04
   225  2.2400000000000D+00  1.2553685630259D-04 -2.8759428175667D-04
   226  2.2500000000000D+00  8.4380813895194D-05 -1.9439805186127D-04
   227  2.2600000000000D+00  5.3988998378411D-05 -1.2804871771212D-04
   228  2.2700000000000D+00  3.2558902414182D-05 -8.2888537477558D-05
   229  2.2800000000000D+00  1.8391027971726D-05 -5.4108100167819D-05
   230  2.2900000000000D+00  9.9068279204275D-06 -3.7819382659980D-05
   231  2.3000000000000D+00  5.7066875611300D-06 -3.0964712428993D-05
   232  2.3100000000000D+00  4.0557169425257D-06 -2.8361774826007D-05
   233  2.3200000000000D+00  3.3821221786142D-06 -2.5213729984303D-05
   234  2.3300000000000D+00  2.2608028760961D-06 -1.6891108111286D-05
   235  2.3400000000000D+00  9.6033461215518D-07 -7.0067692519446D-06
   236  2.3500000000000D+00 -9.3675932300708D-08  7.3961875376670D-07
   237  2.3600000000000D+00 -3.3084132321746D-07  2.6091893912655D-06
   238  2.3700000000000D+00 -1.8242360986761D-07  1.4335942387578D-06
   239  2.3800000000000D+00  3.0819062022682D-08 -2.6299863633459D-07
   240  2.3900000000000D+00  6.6188001368675D-08 -5.6943363050739D-07
   241  2.4000000000000D+00  3.0900796125555D-08 -2.6764993911938D-07
   242  2.4100000000000D+00 -5.5491563502232D-09  4.1355714256455D-08
   243  2.4200000000000D+00 -9.4058621010576D-09  7.0098249326009D-08
   244  2.4300000000000D+00 -3.6168140292550D-09  2.6954714928259D-08
   245  2.4400000000000D+00  0.0000000000000D+00  0.0000000000000D+00
   246  2.4500000000000D+00  0.0000000000000D+00  0.0000000000000D+00
   247  2.4600000000000D+00  0.0000000000000D+00  0.0000000000000D+00
   248  2.4700000000000D+00  0.0000000000000D+00  0.0000000000000D+00
   249  2.4800000000000D+00  0.0000000000000D+00  0.0000000000000D+00
   250  2.4900000000000D+00  0.0000000000000D+00  0.0000000000000D+00
   251  2.5000000000000D+00  0.0000000000000D+00  0.0000000000000D+00
   252  2.5100000000000D+00  0.0000000000000D+00  0.0000000000000D+00
   253  2.5200000000000D+00  0.0000000000000D+00  0.0000000000000D+00
   254  2.5300000000000D+00  0.0000000000000D+00  0.0000000000000D+00
   255  2.5400000000000D+00  0.0000000000000D+00  0.0000000000000D+00
   256  2.5500000000000D+00  0.0000000000000D+00  0.0000000000000D+00
   257  2.5600000000000D+00  0.0000000000000D+00  0.0000000000000D+00
   258  2.5700000000000D+00  0.0000000000000D+00  0.0000000000000D+00
   259  2.5800000000000D+00  0.0000000000000D+00  0.0000000000000D+00
   260  2.5900000000000D+00  0.0000000000000D+00  0.0000000000000D+00
   261  2.6000000000000D+00  0.0000000000000D+00  0.0000000000000D+00
   262  2.6100000000000D+00  0.0000000000000D+00  0.0000000000000D+00
   263  2.6200000000000D+00  0.0000000000000D+00  0.0000000000000D+00
   264  2.6300000000000D+00  0.0000000000000D+00  0.0000000000000D+00
   265  2.6400000000000D+00  0.0000000000000D+00  0.0000000000000D+00
   266  2.6500000000000D+00  0.0000000000000D+00  0.0000000000000D+00
   267  2.6600000000000D+00  0.0000000000000D+00  0.0000000000000D+00
   268  2.6700000000000D+00  0.0000000000000D+00  0.0000000000000D+00
   269  2.6800000000000D+00  0.0000000000000D+00  0.0000000000000D+00
   270  2.6900000000000D+00  0.0000000000000D+00  0.0000000000000D+00
   271  2.7000000000000D+00  0.0000000000000D+00  0.0000000000000D+00
   272  2.7100000000000D+00  0.0000000000000D+00  0.0000000000000D+00
   273  2.7200000000000D+00  0.0000000000000D+00  0.0000000000000D+00
   274  2.7300000000000D+00  0.0000000000000D+00  0.0000000000000D+00
   275  2.7400000000000D+00  0.0000000000000D+00  0.0000000000000D+00
   276  2.7500000000000D+00  0.0000000000000D+00  0.0000000000000D+00
   277  2.7600000000000D+00  0.0000000000000D+00  0.0000000000000D+00
   278  2.7700000000000D+00  0.0000000000000D+00  0.0000000000000D+00
   279  2.7800000000000D+00  0.0000000000000D+00  0.0000000000000D+00
   280  2.7900000000000D+00  0.0000000000000D+00  0.0000000000000D+00
   281  2.8000000000000D+00  0.0000000000000D+00  0.0000000000000D+00
   282  2.8100000000000D+00  0.0000000000000D+00  0.0000000000000D+00
   283  2.8200000000000D+00  0.0000000000000D+00  0.0000000000000D+00
   284  2.8300000000000D+00  0.0000000000000D+00  0.0000000000000D+00
   285  2.8400000000000D+00  0.0000000000000D+00  0.0000000000000D+00
   286  2.8500000000000D+00  0.0000000000000D+00  0.0000000000000D+00
   287  2.8600000000000D+00  0.0000000000000D+00  0.0000000000000D+00
   288  2.8700000000000D+00  0.0000000000000D+00  0.0000000000000D+00
   289  2.8800000000000D+00  0.0000000000000D+00  0.0000000000000D+00
   290  2.8900000000000D+00  0.0000000000000D+00  0.0000000000000D+00
   291  2.9000000000000D+00  0.0000000000000D+00  0.0000000000000D+00
   292  2.9100000000000D+00  0.0000000000000D+00  0.0000000000000D+00
   293  2.9200000000000D+00  0.0000000000000D+00  0.0000000000000D+00
   294  2.9300000000000D+00  0.0000000000000D+00  0.0000000000000D+00
   295  2.9400000000000D+00  0.0000000000000D+00  0.0000000000000D+00
   296  2.9500000000000D+00  0.0000000000000D+00  0.0000000000000D+00
   297  2.9600000000000D+00  0.0000000000000D+00  0.0000000000000D+00
   298  2.9700000000000D+00  0.0000000000000D+00  0.0000000000000D+00
   299  2.9800000000000D+00  0.0000000000000D+00  0.0000000000000D+00
   300  2.9900000000000D+00  0.0000000000000D+00  0.0000000000000D+00
   301  3.0000000000000D+00  0.0000000000000D+00  0.0000000000000D+00
   302  3.0100000000000D+00  0.0000000000000D+00  0.0000000000000D+00
   303  3.0200000000000D+00  0.0000000000000D+00  0.0000000000000D+00
   304  3.0300000000000D+00  0.0000000000000D+00  0.0000000000000D+00
   305  3.0400000000000D+00  0.0000000000000D+00  0.0000000000000D+00
   306  3.0500000000000D+00  0.0000000000000D+00  0.0000000000000D+00
   307  3.0600000000000D+00  0.0000000000000D+00  0.0000000000000D+00
   308  3.0700000000000D+00  0.0000000000000D+00  0.0000000000000D+00
   309  3.0800000000000D+00  0.0000000000000D+00  0.0000000000000D+00
   310  3.0900000000000D+00  0.0000000000000D+00  0.0000000000000D+00
   311  3.1000000000000D+00  0.0000000000000D+00  0.0000000000000D+00
   312  3.1100000000000D+00  0.0000000000000D+00  0.0000000000000D+00
   313  3.1200000000000D+00  0.0000000000000D+00  0.0000000000000D+00
   314  3.1300000000000D+00  0.0000000000000D+00  0.0000000000000D+00
   315  3.1400000000000D+00  0.0000000000000D+00  0.0000000000000D+00
   316  3.1500000000000D+00  0.0000000000000D+00  0.0000000000000D+00
   317  3.1600000000000D+00  0.0000000000000D+00  0.0000000000000D+00
   318  3.1700000000000D+00  0.0000000000000D+00  0.0000000000000D+00
   319  3.1800000000000D+00  0.0000000000000D+00  0.0000000000000D+00
   320  3.1900000000000D+00  0.0000000000000D+00  0.0000000000000D+00
   321  3.2000000000000D+00  0.0000000000000D+00  0.0000000000000D+00
   322  3.2100000000000D+00  0.0000000000000D+00  0.0000000000000D+00
   323  3.2200000000000D+00  0.0000000000000D+00  0.0000000000000D+00
   324  3.2300000000000D+00  0.0000000000000D+00  0.0000000000000D+00
   325  3.2400000000000D+00  0.0000000000000D+00  0.0000000000000D+00
   326  3.2500000000000D+00  0.0000000000000D+00  0.0000000000000D+00
   327  3.2600000000000D+00  0.0000000000000D+00  0.0000000000000D+00
   328  3.2700000000000D+00  0.0000000000000D+00  0.0000000000000D+00
   329  3.2800000000000D+00  0.0000000000000D+00  0.0000000000000D+00
   330  3.2900000000000D+00  0.0000000000000D+00  0.0000000000000D+00
   331  3.3000000000000D+00  0.0000000000000D+00  0.0000000000000D+00
   332  3.3100000000000D+00  0.0000000000000D+00  0.0000000000000D+00
   333  3.3200000000000D+00  0.0000000000000D+00  0.0000000000000D+00
   334  3.3300000000000D+00  0.0000000000000D+00  0.0000000000000D+00
   335  3.3400000000000D+00  0.0000000000000D+00  0.0000000000000D+00
   336  3.3500000000000D+00  0.0000000000000D+00  0.0000000000000D+00
   337  3.3600000000000D+00  0.0000000000000D+00  0.0000000000000D+00
   338  3.3700000000000D+00  0.0000000000000D+00  0.0000000000000D+00
   339  3.3800000000000D+00  0.0000000000000D+00  0.0000000000000D+00
   340  3.3900000000000D+00  0.0000000000000D+00  0.0000000000000D+00
   341  3.4000000000000D+00  0.0000000000000D+00  0.0000000000000D+00
   342  3.4100000000000D+00  0.0000000000000D+00  0.0000000000000D+00
   343  3.4200000000000D+00  0.0000000000000D+00  0.0000000000000D+00
   344  3.4300000000000D+00  0.0000000000000D+00  0.0000000000000D+00
   345  3.4400000000000D+00  0.0000000000000D+00  0.0000000000000D+00
   346  3.4500000000000D+00  0.0000000000000D+00  0.0000000000000D+00
   347  3.4600000000000D+00  0.0000000000000D+00  0.0000000000000D+00
   348  3.4700000000000D+00  0.0000000000000D+00  0.0000000000000D+00
   349  3.4800000000000D+00  0.0000000000000D+00  0.0000000000000D+00
   350  3.4900000000000D+00  0.0000000000000D+00  0.0000000000000D+00
   351  3.5000000000000D+00  0.0000000000000D+00  0.0000000000000D+00
   352  3.5100000000000D+00  0.0000000000000D+00  0.0000000000000D+00
   353  3.5200000000000D+00  0.0000000000000D+00  0.0000000000000D+00
   354  3.5300000000000D+00  0.0000000000000D+00  0.0000000000000D+00
   355  3.5400000000000D+00  0.0000000000000D+00  0.0000000000000D+00
   356  3.5500000000000D+00  0.0000000000000D+00  0.0000000000000D+00
   357  3.5600000000000D+00  0.0000000000000D+00  0.0000000000000D+00
   358  3.5700000000000D+00  0.0000000000000D+00  0.0000000000000D+00
   359  3.5800000000000D+00  0.0000000000000D+00  0.0000000000000D+00
   360  3.5900000000000D+00  0.0000000000000D+00  0.0000000000000D+00
   361  3.6000000000000D+00  0.0000000000000D+00  0.0000000000000D+00
   362  3.6100000000000D+00  0.0000000000000D+00  0.0000000000000D+00
   363  3.6200000000000D+00  0.0000000000000D+00  0.0000000000000D+00
   364  3.6300000000000D+00  0.0000000000000D+00  0.0000000000000D+00
   365  3.6400000000000D+00  0.0000000000000D+00  0.0000000000000D+00
   366  3.6500000000000D+00  0.0000000000000D+00  0.0000000000000D+00
   367  3.6600000000000D+00  0.0000000000000D+00  0.0000000000000D+00
   368  3.6700000000000D+00  0.0000000000000D+00  0.0000000000000D+00
   369  3.6800000000000D+00  0.0000000000000D+00  0.0000000000000D+00
   370  3.6900000000000D+00  0.0000000000000D+00  0.0000000000000D+00
   371  3.7000000000000D+00  0.0000000000000D+00  0.0000000000000D+00
   372  3.7100000000000D+00  0.0000000000000D+00  0.0000000000000D+00
   373  3.7200000000000D+00  0.0000000000000D+00  0.0000000000000D+00
   374  3.7300000000000D+00  0.0000000000000D+00  0.0000000000000D+00
   375  3.7400000000000D+00  0.0000000000000D+00  0.0000000000000D+00
   376  3.7500000000000D+00  0.0000000000000D+00  0.0000000000000D+00
   377  3.7600000000000D+00  0.0000000000000D+00  0.0000000000000D+00
   378  3.7700000000000D+00  0.0000000000000D+00  0.0000000000000D+00
   379  3.7800000000000D+00  0.0000000000000D+00  0.0000000000000D+00
   380  3.7900000000000D+00  0.0000000000000D+00  0.0000000000000D+00
   381  3.8000000000000D+00  0.0000000000000D+00  0.0000000000000D+00
   382  3.8100000000000D+00  0.0000000000000D+00  0.0000000000000D+00
   383  3.8200000000000D+00  0.0000000000000D+00  0.0000000000000D+00
   384  3.8300000000000D+00  0.0000000000000D+00  0.0000000000000D+00
   385  3.8400000000000D+00  0.0000000000000D+00  0.0000000000000D+00
   386  3.8500000000000D+00  0.0000000000000D+00  0.0000000000000D+00
   387  3.8600000000000D+00  0.0000000000000D+00  0.0000000000000D+00
   388  3.8700000000000D+00  0.0000000000000D+00  0.0000000000000D+00
   389  3.8800000000000D+00  0.0000000000000D+00  0.0000000000000D+00
   390  3.8900000000000D+00  0.0000000000000D+00  0.0000000000000D+00
   391  3.9000000000000D+00  0.0000000000000D+00  0.0000000000000D+00
   392  3.9100000000000D+00  0.0000000000000D+00  0.0000000000000D+00
   393  3.9200000000000D+00  0.0000000000000D+00  0.0000000000000D+00
   394  3.9300000000000D+00  0.0000000000000D+00  0.0000000000000D+00
   395  3.9400000000000D+00  0.0000000000000D+00  0.0000000000000D+00
   396  3.9500000000000D+00  0.0000000000000D+00  0.0000000000000D+00
   397  3.9600000000000D+00  0.0000000000000D+00  0.0000000000000D+00
   398  3.9700000000000D+00  0.0000000000000D+00  0.0000000000000D+00
   399  3.9800000000000D+00  0.0000000000000D+00  0.0000000000000D+00
   400  3.9900000000000D+00  0.0000000000000D+00  0.0000000000000D+00
   401  4.0000000000000D+00  0.0000000000000D+00  0.0000000000000D+00
   402  4.0100000000000D+00  0.0000000000000D+00  0.0000000000000D+00
   403  4.0200000000000D+00  0.0000000000000D+00  0.0000000000000D+00
   404  4.0300000000000D+00  0.0000000000000D+00  0.0000000000000D+00
   405  4.0400000000000D+00  0.0000000000000D+00  0.0000000000000D+00
   406  4.0500000000000D+00  0.0000000000000D+00  0.0000000000000D+00
   407  4.0600000000000D+00  0.0000000000000D+00  0.0000000000000D+00
   408  4.0700000000000D+00  0.0000000000000D+00  0.0000000000000D+00
   409  4.0800000000000D+00  0.0000000000000D+00  0.0000000000000D+00
   410  4.0900000000000D+00  0.0000000000000D+00  0.0000000000000D+00
   411  4.1000000000000D+00  0.0000000000000D+00  0.0000000000000D+00
   412  4.1100000000000D+00  0.0000000000000D+00  0.0000000000000D+00
   413  4.1200000000000D+00  0.0000000000000D+00  0.0000000000000D+00
   414  4.1300000000000D+00  0.0000000000000D+00  0.0000000000000D+00
   415  4.1400000000000D+00  0.0000000000000D+00  0.0000000000000D+00
   416  4.1500000000000D+00  0.0000000000000D+00  0.0000000000000D+00
   417  4.1600000000000D+00  0.0000000000000D+00  0.0000000000000D+00
   418  4.1700000000000D+00  0.0000000000000D+00  0.0000000000000D+00
   419  4.1800000000000D+00  0.0000000000000D+00  0.0000000000000D+00
   420  4.1900000000000D+00  0.0000000000000D+00  0.0000000000000D+00
   421  4.2000000000000D+00  0.0000000000000D+00  0.0000000000000D+00
   422  4.2100000000000D+00  0.0000000000000D+00  0.0000000000000D+00