Re    ONCVPSP-3.3.1  r_core=   1.99393   2.09138   1.81245   2.65487
     75.0000     15.0000      210905    zatom,zion,pspd
     8 -116133   3     4   600     0    pspcod,pspxc,lmax,lloc,mmax,r2well
  5.99000000  0.00000000  0.00000000    rchrg fchrg qchrg
     2     3     3     4    nproj
     3     1           extension_switch
     4     3     4    nprojso
   0                         2.0098295483765D+00  1.2135772010291D+01
     1  0.0000000000000D+00 -1.0889797397162D-10  4.8190951229543D-11
     2  1.0000000000000D-02 -1.0619758431898D-02  5.1944672268876D-02
     3  2.0000000000000D-02 -2.1244704725558D-02  1.0384208903193D-01
     4  3.0000000000000D-02 -3.1879572051040D-02  1.5564486161605D-01
     5  4.0000000000000D-02 -4.2528188344690D-02  2.0730533673141D-01
     6  5.0000000000000D-02 -5.3193034038986D-02  2.5877546844582D-01
     7  6.0000000000000D-02 -6.3874812131429D-02  3.1000669526404D-01
     8  7.0000000000000D-02 -7.4572034577569D-02  3.6094982395705D-01
     9  8.0000000000000D-02 -8.5280628884362D-02  4.1155492173829D-01
    10  9.0000000000000D-02 -9.5993568644949D-02  4.6177121832355D-01
    11  1.0000000000000D-01 -1.0670053159516D-01  5.1154701934097D-01
    12  1.1000000000000D-01 -1.1738758858665D-01  5.6082963247513D-01
    13  1.2000000000000D-01 -1.2803692666187D-01  6.0956530763757D-01
    14  1.3000000000000D-01 -1.3862660918397D-01  6.5769919235364D-01
    15  1.4000000000000D-01 -1.4913037572056D-01  7.0517530344461D-01
    16  1.5000000000000D-01 -1.5951748410578D-01  7.5193651596372D-01
    17  1.6000000000000D-01 -1.6975259681169D-01  7.9792457021722D-01
    18  1.7000000000000D-01 -1.7979571344898D-01  8.4308009756591D-01
    19  1.8000000000000D-01 -1.8960215089040D-01  8.8734266556175D-01
    20  1.9000000000000D-01 -1.9912257216934D-01  9.3065084282616D-01
    21  2.0000000000000D-01 -2.0830306495324D-01  9.7294228392565D-01
    22  2.1000000000000D-01 -2.1708527002846D-01  1.0141538343440D+00
    23  2.2000000000000D-01 -2.2540655986215D-01  1.0542216554923D+00
    24  2.3000000000000D-01 -2.3320026692976D-01  1.0930813695380D+00
    25  2.4000000000000D-01 -2.4039596111651D-01  1.1306682236717D+00
    26  2.5000000000000D-01 -2.4691977511940D-01  1.1669172732727D+00
    27  2.6000000000000D-01 -2.5269477639608D-01  1.2017635832699D+00
    28  2.7000000000000D-01 -2.5764138383014D-01  1.2351424468430D+00
    29  2.8000000000000D-01 -2.6167782691227D-01  1.2669896204504D+00
    30  2.9000000000000D-01 -2.6472064487489D-01  1.2972415740243D+00
    31  3.0000000000000D-01 -2.6668522286782D-01  1.3258357550276D+00
    32  3.1000000000000D-01 -2.6748636192652D-01  1.3527108649313D+00
    33  3.2000000000000D-01 -2.6703887916442D-01  1.3778071465423D+00
    34  3.3000000000000D-01 -2.6525823432055D-01  1.4010666804876D+00
    35  3.4000000000000D-01 -2.6206117851419D-01  1.4224336890543D+00
    36  3.5000000000000D-01 -2.5736642080331D-01  1.4418548454808D+00
    37  3.6000000000000D-01 -2.5109530791416D-01  1.4592795867059D+00
    38  3.7000000000000D-01 -2.4317251230874D-01  1.4746604275070D+00
    39  3.8000000000000D-01 -2.3352672358657D-01  1.4879532738929D+00
    40  3.9000000000000D-01 -2.2209133807893D-01  1.4991177335671D+00
    41  4.0000000000000D-01 -2.0880514138983D-01  1.5081174212417D+00
    42  4.1000000000000D-01 -1.9361297856943D-01  1.5149202565595D+00
    43  4.2000000000000D-01 -1.7646640657388D-01  1.5194987523773D+00
    44  4.3000000000000D-01 -1.5732432367184D-01  1.5218302911711D+00
    45  4.4000000000000D-01 -1.3615357050330D-01  1.5218973873513D+00
    46  4.5000000000000D-01 -1.1292949758023D-01  1.5196879333140D+00
    47  4.6000000000000D-01 -8.7636494143379D-02  1.5151954271146D+00
    48  4.7000000000000D-01 -6.0268473452953D-02  1.5084191797212D+00
    49  4.8000000000000D-01 -3.0829309794476D-02  1.4993644998938D+00
    50  4.9000000000000D-01  6.6677727675656D-04  1.4880428548385D+00
    51  5.0000000000000D-01  3.4194895648883D-02  1.4744720049069D+00
    52  5.1000000000000D-01  6.9719214203733D-02  1.4586761107410D+00
    53  5.2000000000000D-01  1.0719276073078D-01  1.4406858114132D+00
    54  5.3000000000000D-01  1.4655728734613D-01  1.4205382722679D+00
    55  5.4000000000000D-01  1.8774320613997D-01  1.3982772013454D+00
    56  5.5000000000000D-01  2.3066959732992D-01  1.3739528334505D+00
    57  5.6000000000000D-01  2.7524429172523D-01  1.3476218811202D+00
    58  5.7000000000000D-01  3.2136402881001D-01  1.3193474519463D+00
    59  5.8000000000000D-01  3.6891469123901D-01  1.2891989319201D+00
    60  5.9000000000000D-01  4.1777161600416D-01  1.2572518346781D+00
    61  6.0000000000000D-01  4.6779998198725D-01  1.2235876167488D+00
    62  6.1000000000000D-01  5.1885527305528D-01  1.1882934591256D+00
    63  6.2000000000000D-01  5.7078381529798D-01  1.1514620157132D+00
    64  6.3000000000000D-01  6.2342338644277D-01  1.1131911294208D+00
    65  6.4000000000000D-01  6.7660389492462D-01  1.0735835169012D+00
    66  6.5000000000000D-01  7.3014812553827D-01  1.0327464231520D+00
    67  6.6000000000000D-01  7.8387254805847D-01  9.9079124741434D-01
    68  6.7000000000000D-01  8.3758818469137D-01  9.4783314201433D-01
    69  6.8000000000000D-01  8.9110153171781D-01  9.0399058599209D-01
    70  6.9000000000000D-01  9.4421553020781D-01  8.5938493555947D-01
    71  7.0000000000000D-01  9.9673058023670D-01  8.1413995360729D-01
    72  7.1000000000000D-01  1.0484455926140D+00  7.6838132065405D-01
    73  7.2000000000000D-01  1.0991590717550D+00  7.2223612978310D-01
    74  7.3000000000000D-01  1.1486702229804D+00  6.7583236825793D-01
    75  7.4000000000000D-01  1.1967800772306D+00  6.2929838862919D-01
    76  7.5000000000000D-01  1.2432926259263D+00  5.8276237225583D-01
    77  7.6000000000000D-01  1.2880159585002D+00  5.3635178825241D-01
    78  7.7000000000000D-01  1.3307633949693D+00  4.9019285094550D-01
    79  7.8000000000000D-01  1.3713546058149D+00  4.4440997897353D-01
    80  7.9000000000000D-01  1.4096167113832D+00  3.9912525919554D-01
    81  8.0000000000000D-01  1.4453853530303D+00  3.5445791858462D-01
    82  8.1000000000000D-01  1.4785057282916D+00  3.1052380727165D-01
    83  8.2000000000000D-01  1.5088335824709D+00  2.6743489587338D-01
    84  8.3000000000000D-01  1.5362361492209D+00  2.2529879018695D-01
    85  8.4000000000000D-01  1.5605930329036D+00  1.8421826625984D-01
    86  8.5000000000000D-01  1.5817970258072D+00  1.4429082875132D-01
    87  8.6000000000000D-01  1.5997548536178D+00  1.0560829538857D-01
    88  8.7000000000000D-01  1.6143878429300D+00  6.8256410188820D-02
    89  8.8000000000000D-01  1.6256325050023D+00  3.2314487968981D-02
    90  8.9000000000000D-01  1.6334410304375D+00 -2.1449075027895D-03
    91  9.0000000000000D-01  1.6377816899741D+00 -3.5056249542236D-02
    92  9.1000000000000D-01  1.6386391371256D+00 -6.6361296797115D-02
    93  9.2000000000000D-01  1.6360146089843D+00 -9.6009301945543D-02
    94  9.3000000000000D-01  1.6299260221112D+00 -1.2395717930457D-01
    95  9.4000000000000D-01  1.6204079610684D+00 -1.5016963004171D-01
    96  9.5000000000000D-01  1.6075115578008D+00 -1.7461922392427D-01
    97  9.6000000000000D-01  1.5913042607371D+00 -1.9728643678880D-01
    98  9.7000000000000D-01  1.5718694931475D+00 -2.1815964316437D-01
    99  9.8000000000000D-01  1.5493062009835D+00 -2.3723506374312D-01
   100  9.9000000000000D-01  1.5237282910861D+00 -2.5451666764531D-01
   101  1.0000000000000D+00  1.4952639613216D+00 -2.7001602968364D-01
   102  1.0100000000000D+00  1.4640549248544D+00 -2.8375214308510D-01
   103  1.0200000000000D+00  1.4302555314018D+00 -2.9575118837737D-01
   104  1.0300000000000D+00  1.3940317889367D+00 -3.0604625939425D-01
   105  1.0400000000000D+00  1.3555602898567D+00 -3.1467704757483D-01
   106  1.0500000000000D+00  1.3150270462357D+00 -3.2168948597640D-01
   107  1.0600000000000D+00  1.2726262392529D+00 -3.2713535461880D-01
   108  1.0700000000000D+00  1.2285588883785D+00 -3.3107184898349D-01
   109  1.0800000000000D+00  1.1830314463394D+00 -3.3356111368256D-01
   110  1.0900000000000D+00  1.1362543262248D+00 -3.3466974346453D-01
   111  1.1000000000000D+00  1.0884403674799D+00 -3.3446825390147D-01
   112  1.1100000000000D+00  1.0398032477725D+00 -3.3303052422146D-01
   113  1.1200000000000D+00  9.9055584795719D-01 -3.3043321487424D-01
   114  1.1300000000000D+00  9.4090857751160D-01 -3.2675516250960D-01
   115  1.1400000000000D+00  8.9106766794774D-01 -3.2207675513071D-01
   116  1.1500000000000D+00  8.4123344174572D-01 -3.1647929024479D-01
   117  1.1600000000000D+00  7.9159856433707D-01 -3.1004431886365D-01
   118  1.1700000000000D+00  7.4234628262468D-01 -3.0285297749475D-01
   119  1.1800000000000D+00  6.9364868304722D-01 -2.9498531565925D-01
   120  1.1900000000000D+00  6.4566488203635D-01 -2.8651960433858D-01
   121  1.2000000000000D+00  5.9853957562095D-01 -2.7753170693574D-01
   122  1.2100000000000D+00  5.5240027823739D-01 -2.6809420331390D-01
   123  1.2200000000000D+00  5.0735860715432D-01 -2.5827625237896D-01
   124  1.2300000000000D+00  4.6351413545610D-01 -2.4814396983739D-01
   125  1.2400000000000D+00  4.2095884553582D-01 -2.3776106874338D-01
   126  1.2500000000000D+00  3.7977768955966D-01 -2.2718883927510D-01
   127  1.2600000000000D+00  3.4004763698914D-01 -2.1648588623250D-01
   128  1.2700000000000D+00  3.0183768194627D-01 -2.0570803153861D-01
   129  1.2800000000000D+00  2.6520861480804D-01 -1.9490818789675D-01
   130  1.2900000000000D+00  2.3021289917658D-01 -1.8413625840376D-01
   131  1.3000000000000D+00  1.9689458922532D-01 -1.7343905175185D-01
   132  1.3100000000000D+00  1.6528930086659D-01 -1.6286021540218D-01
   133  1.3200000000000D+00  1.3542423389251D-01 -1.5244018631938D-01
   134  1.3300000000000D+00  1.0731824576742D-01 -1.4221615949592D-01
   135  1.3400000000000D+00  8.0981972909726D-02 -1.3222207342132D-01
   136  1.3500000000000D+00  5.6417998152205D-02 -1.2248861218129D-01
   137  1.3600000000000D+00  3.3621062534730D-02 -1.1304322377703D-01
   138  1.3700000000000D+00  1.2578319465442D-02 -1.0391015415091D-01
   139  1.3800000000000D+00 -6.7303712037076D-03 -9.5110496288206D-02
   140  1.3900000000000D+00 -2.4332112142318D-02 -8.6662253662210D-02
   141  1.4000000000000D+00 -4.0260603770965D-02 -7.8580417117507D-02
   142  1.4100000000000D+00 -5.4555748593116D-02 -7.0877054437967D-02
   143  1.4200000000000D+00 -6.7263228339466D-02 -6.3561411559442D-02
   144  1.4300000000000D+00 -7.8434057475464D-02 -5.6640024414261D-02
   145  1.4400000000000D+00 -8.8124114989986D-02 -5.0116840814125D-02
   146  1.4500000000000D+00 -9.6393659378948D-02 -4.3993350965616D-02
   147  1.4600000000000D+00 -1.0330683062250D-01 -3.8268725549742D-02
   148  1.4700000000000D+00 -1.0893114247071D-01 -3.2939960326584D-02
   149  1.4800000000000D+00 -1.1333696868709D-01 -2.8002026171427D-02
   150  1.4900000000000D+00 -1.1659702695454D-01 -2.3448023428429D-02
   151  1.5000000000000D+00 -1.1878586382899D-01 -1.9269339501613D-02
   152  1.5100000000000D+00 -1.1997934403956D-01 -1.5455808680591D-02
   153  1.5200000000000D+00 -1.2025414779979D-01 -1.1995873024277D-02
   154  1.5300000000000D+00 -1.1968727974636D-01 -8.8767432011696D-03
   155  1.5400000000000D+00 -1.1835559249850D-01 -6.0845582773495D-03
   156  1.5500000000000D+00 -1.1633532848184D-01 -3.6045433089075D-03
   157  1.5600000000000D+00 -1.1370168099704D-01 -1.4211642767961D-03
   158  1.5700000000000D+00 -1.1052837690604D-01  4.8172046765616D-04
   159  1.5800000000000D+00 -1.0688728618298D-01  2.1207138217272D-03
   160  1.5900000000000D+00 -1.0284805772640D-01  3.5127386689806D-03
   161  1.6000000000000D+00 -9.8477785768922D-02  4.6749030972360D-03
   162  1.6100000000000D+00 -9.3840706003587D-02  5.6243720574179D-03
   163  1.6200000000000D+00 -8.8997924391720D-02  6.3782464621559D-03
   164  1.6300000000000D+00 -8.4007178016077D-02  6.9534497458364D-03
   165  1.6400000000000D+00 -7.8922631661136D-02  7.3666230831476D-03
   166  1.6500000000000D+00 -7.3794707602940D-02  7.6340287721119D-03
   167  1.6600000000000D+00 -6.8669951330695D-02  7.7714627263830D-03
   168  1.6700000000000D+00 -6.3590930993688D-02  7.7941756517826D-03
   169  1.6800000000000D+00 -5.8596172431399D-02  7.7168036205084D-03
   170  1.6900000000000D+00 -5.3720127078813D-02  7.5533074688311D-03
   171  1.7000000000000D+00 -4.8993174014324D-02  7.3169215721481D-03
   172  1.7100000000000D+00 -4.4441652986394D-02  7.0201112819597D-03
   173  1.7200000000000D+00 -4.0087929207237D-02  6.6745394508796D-03
   174  1.7300000000000D+00 -3.5950486217191D-02  6.2910411616531D-03
   175  1.7400000000000D+00 -3.2044047281210D-02  5.8796070044766D-03
   176  1.7500000000000D+00 -2.8379721095742D-02  5.4493738425508D-03
   177  1.7600000000000D+00 -2.4965172005904D-02  5.0086233540332D-03
   178  1.7700000000000D+00 -2.1804810131486D-02  4.5647871418408D-03
   179  1.7800000000000D+00 -1.8900001253829D-02  4.1244586306430D-03
   180  1.7900000000000D+00 -1.6249291835446D-02  3.6934104771967D-03
   181  1.8000000000000D+00 -1.3848648358256D-02  3.2766175631145D-03
   182  1.8100000000000D+00 -1.1691706960412D-02  2.8782844121429D-03
   183  1.8200000000000D+00 -9.7700313775743D-03  2.5018767808304D-03
   184  1.8300000000000D+00 -8.0733763206712D-03  2.1501565708967D-03
   185  1.8400000000000D+00 -6.5899531107611D-03  1.8252194450381D-03
   186  1.8500000000000D+00 -5.3066956347588D-03  1.5285345814689D-03
   187  1.8600000000000D+00 -4.2095230355202D-03  1.2609857566752D-03
   188  1.8700000000000D+00 -3.2835972126031D-03  1.0229132623520D-03
   189  1.8800000000000D+00 -2.5135725302757D-03  8.1415599898488D-04
   190  1.8900000000000D+00 -1.8838343562730D-03  6.3409295593998D-04
   191  1.9000000000000D+00 -1.3787265930782D-03  4.8168403055117D-04
   192  1.9100000000000D+00 -9.8276191899479D-04  3.5550871829031D-04
   193  1.9200000000000D+00 -6.8081851494843D-04  2.5380348679521D-04
   194  1.9300000000000D+00 -4.5840286469721D-04  1.7451203685910D-04
   195  1.9400000000000D+00 -3.0147661069245D-04  1.1525619627671D-04
   196  1.9500000000000D+00 -1.9644161212017D-04  7.3298407298838D-05
   197  1.9600000000000D+00 -1.3152190279905D-04  4.5888009068162D-05
   198  1.9700000000000D+00 -9.8090235958696D-05  3.0637427383843D-05
   199  1.9800000000000D+00 -8.8985975794335D-05  2.5182401759557D-05
   200  1.9900000000000D+00 -8.2488725138124D-05  2.2481679971038D-05
   201  2.0000000000000D+00 -5.9483997391515D-05  1.6116789267167D-05
   202  2.0100000000000D+00 -2.4229388386658D-05  6.5723734999193D-06
   203  2.0200000000000D+00  3.1532151265324D-06 -8.4409233100794D-07
   204  2.0300000000000D+00  7.8581875655642D-06 -2.1010874995143D-06
   205  2.0400000000000D+00  1.6979402775940D-06 -4.5378172796798D-07
   206  2.0500000000000D+00 -1.6315949335788D-06  4.3382053775772D-07
   207  2.0600000000000D+00 -1.2317393919789D-06  3.2710328462820D-07
   208  2.0700000000000D+00  1.0436113078169D-07 -2.8371114949629D-08
   209  2.0800000000000D+00  2.1386412586154D-07 -5.8140072390671D-08
   210  2.0900000000000D+00  3.5740513571722D-08 -9.7162440777233D-09
   211  2.1000000000000D+00  0.0000000000000D+00  0.0000000000000D+00
   212  2.1100000000000D+00  0.0000000000000D+00  0.0000000000000D+00
   213  2.1200000000000D+00  0.0000000000000D+00  0.0000000000000D+00
   214  2.1300000000000D+00  0.0000000000000D+00  0.0000000000000D+00
   215  2.1400000000000D+00  0.0000000000000D+00  0.0000000000000D+00
   216  2.1500000000000D+00  0.0000000000000D+00  0.0000000000000D+00
   217  2.1600000000000D+00  0.0000000000000D+00  0.0000000000000D+00
   218  2.1700000000000D+00  0.0000000000000D+00  0.0000000000000D+00
   219  2.1800000000000D+00  0.0000000000000D+00  0.0000000000000D+00
   220  2.1900000000000D+00  0.0000000000000D+00  0.0000000000000D+00
   221  2.2000000000000D+00  0.0000000000000D+00  0.0000000000000D+00
   222  2.2100000000000D+00  0.0000000000000D+00  0.0000000000000D+00
   223  2.2200000000000D+00  0.0000000000000D+00  0.0000000000000D+00
   224  2.2300000000000D+00  0.0000000000000D+00  0.0000000000000D+00
   225  2.2400000000000D+00  0.0000000000000D+00  0.0000000000000D+00
   226  2.2500000000000D+00  0.0000000000000D+00  0.0000000000000D+00
   227  2.2600000000000D+00  0.0000000000000D+00  0.0000000000000D+00
   228  2.2700000000000D+00  0.0000000000000D+00  0.0000000000000D+00
   229  2.2800000000000D+00  0.0000000000000D+00  0.0000000000000D+00
   230  2.2900000000000D+00  0.0000000000000D+00  0.0000000000000D+00
   231  2.3000000000000D+00  0.0000000000000D+00  0.0000000000000D+00
   232  2.3100000000000D+00  0.0000000000000D+00  0.0000000000000D+00
   233  2.3200000000000D+00  0.0000000000000D+00  0.0000000000000D+00
   234  2.3300000000000D+00  0.0000000000000D+00  0.0000000000000D+00
   235  2.3400000000000D+00  0.0000000000000D+00  0.0000000000000D+00
   236  2.3500000000000D+00  0.0000000000000D+00  0.0000000000000D+00
   237  2.3600000000000D+00  0.0000000000000D+00  0.0000000000000D+00
   238  2.3700000000000D+00  0.0000000000000D+00  0.0000000000000D+00
   239  2.3800000000000D+00  0.0000000000000D+00  0.0000000000000D+00
   240  2.3900000000000D+00  0.0000000000000D+00  0.0000000000000D+00
   241  2.4000000000000D+00  0.0000000000000D+00  0.0000000000000D+00
   242  2.4100000000000D+00  0.0000000000000D+00  0.0000000000000D+00
   243  2.4200000000000D+00  0.0000000000000D+00  0.0000000000000D+00
   244  2.4300000000000D+00  0.0000000000000D+00  0.0000000000000D+00
   245  2.4400000000000D+00  0.0000000000000D+00  0.0000000000000D+00
   246  2.4500000000000D+00  0.0000000000000D+00  0.0000000000000D+00
   247  2.4600000000000D+00  0.0000000000000D+00  0.0000000000000D+00
   248  2.4700000000000D+00  0.0000000000000D+00  0.0000000000000D+00
   249  2.4800000000000D+00  0.0000000000000D+00  0.0000000000000D+00
   250  2.4900000000000D+00  0.0000000000000D+00  0.0000000000000D+00
   251  2.5000000000000D+00  0.0000000000000D+00  0.0000000000000D+00
   252  2.5100000000000D+00  0.0000000000000D+00  0.0000000000000D+00
   253  2.5200000000000D+00  0.0000000000000D+00  0.0000000000000D+00
   254  2.5300000000000D+00  0.0000000000000D+00  0.0000000000000D+00
   255  2.5400000000000D+00  0.0000000000000D+00  0.0000000000000D+00
   256  2.5500000000000D+00  0.0000000000000D+00  0.0000000000000D+00
   257  2.5600000000000D+00  0.0000000000000D+00  0.0000000000000D+00
   258  2.5700000000000D+00  0.0000000000000D+00  0.0000000000000D+00
   259  2.5800000000000D+00  0.0000000000000D+00  0.0000000000000D+00
   260  2.5900000000000D+00  0.0000000000000D+00  0.0000000000000D+00
   261  2.6000000000000D+00  0.0000000000000D+00  0.0000000000000D+00
   262  2.6100000000000D+00  0.0000000000000D+00  0.0000000000000D+00
   263  2.6200000000000D+00  0.0000000000000D+00  0.0000000000000D+00
   264  2.6300000000000D+00  0.0000000000000D+00  0.0000000000000D+00
   265  2.6400000000000D+00  0.0000000000000D+00  0.0000000000000D+00
   266  2.6500000000000D+00  0.0000000000000D+00  0.0000000000000D+00
   267  2.6600000000000D+00  0.0000000000000D+00  0.0000000000000D+00
   268  2.6700000000000D+00  0.0000000000000D+00  0.0000000000000D+00
   269  2.6800000000000D+00  0.0000000000000D+00  0.0000000000000D+00
   270  2.6900000000000D+00  0.0000000000000D+00  0.0000000000000D+00
   271  2.7000000000000D+00  0.0000000000000D+00  0.0000000000000D+00
   272  2.7100000000000D+00  0.0000000000000D+00  0.0000000000000D+00
   273  2.7200000000000D+00  0.0000000000000D+00  0.0000000000000D+00
   274  2.7300000000000D+00  0.0000000000000D+00  0.0000000000000D+00
   275  2.7400000000000D+00  0.0000000000000D+00  0.0000000000000D+00
   276  2.7500000000000D+00  0.0000000000000D+00  0.0000000000000D+00
   277  2.7600000000000D+00  0.0000000000000D+00  0.0000000000000D+00
   278  2.7700000000000D+00  0.0000000000000D+00  0.0000000000000D+00
   279  2.7800000000000D+00  0.0000000000000D+00  0.0000000000000D+00
   280  2.7900000000000D+00  0.0000000000000D+00  0.0000000000000D+00
   281  2.8000000000000D+00  0.0000000000000D+00  0.0000000000000D+00
   282  2.8100000000000D+00  0.0000000000000D+00  0.0000000000000D+00
   283  2.8200000000000D+00  0.0000000000000D+00  0.0000000000000D+00
   284  2.8300000000000D+00  0.0000000000000D+00  0.0000000000000D+00
   285  2.8400000000000D+00  0.0000000000000D+00  0.0000000000000D+00
   286  2.8500000000000D+00  0.0000000000000D+00  0.0000000000000D+00
   287  2.8600000000000D+00  0.0000000000000D+00  0.0000000000000D+00
   288  2.8700000000000D+00  0.0000000000000D+00  0.0000000000000D+00
   289  2.8800000000000D+00  0.0000000000000D+00  0.0000000000000D+00
   290  2.8900000000000D+00  0.0000000000000D+00  0.0000000000000D+00
   291  2.9000000000000D+00  0.0000000000000D+00  0.0000000000000D+00
   292  2.9100000000000D+00  0.0000000000000D+00  0.0000000000000D+00
   293  2.9200000000000D+00  0.0000000000000D+00  0.0000000000000D+00
   294  2.9300000000000D+00  0.0000000000000D+00  0.0000000000000D+00
   295  2.9400000000000D+00  0.0000000000000D+00  0.0000000000000D+00
   296  2.9500000000000D+00  0.0000000000000D+00  0.0000000000000D+00
   297  2.9600000000000D+00  0.0000000000000D+00  0.0000000000000D+00
   298  2.9700000000000D+00  0.0000000000000D+00  0.0000000000000D+00
   299  2.9800000000000D+00  0.0000000000000D+00  0.0000000000000D+00
   300  2.9900000000000D+00  0.0000000000000D+00  0.0000000000000D+00
   301  3.0000000000000D+00  0.0000000000000D+00  0.0000000000000D+00
   302  3.0100000000000D+00  0.0000000000000D+00  0.0000000000000D+00
   303  3.0200000000000D+00  0.0000000000000D+00  0.0000000000000D+00
   304  3.0300000000000D+00  0.0000000000000D+00  0.0000000000000D+00
   305  3.0400000000000D+00  0.0000000000000D+00  0.0000000000000D+00
   306  3.0500000000000D+00  0.0000000000000D+00  0.0000000000000D+00
   307  3.0600000000000D+00  0.0000000000000D+00  0.0000000000000D+00
   308  3.0700000000000D+00  0.0000000000000D+00  0.0000000000000D+00
   309  3.0800000000000D+00  0.0000000000000D+00  0.0000000000000D+00
   310  3.0900000000000D+00  0.0000000000000D+00  0.0000000000000D+00
   311  3.1000000000000D+00  0.0000000000000D+00  0.0000000000000D+00
   312  3.1100000000000D+00  0.0000000000000D+00  0.0000000000000D+00
   313  3.1200000000000D+00  0.0000000000000D+00  0.0000000000000D+00
   314  3.1300000000000D+00  0.0000000000000D+00  0.0000000000000D+00
   315  3.1400000000000D+00  0.0000000000000D+00  0.0000000000000D+00
   316  3.1500000000000D+00  0.0000000000000D+00  0.0000000000000D+00
   317  3.1600000000000D+00  0.0000000000000D+00  0.0000000000000D+00
   318  3.1700000000000D+00  0.0000000000000D+00  0.0000000000000D+00
   319  3.1800000000000D+00  0.0000000000000D+00  0.0000000000000D+00
   320  3.1900000000000D+00  0.0000000000000D+00  0.0000000000000D+00
   321  3.2000000000000D+00  0.0000000000000D+00  0.0000000000000D+00
   322  3.2100000000000D+00  0.0000000000000D+00  0.0000000000000D+00
   323  3.2200000000000D+00  0.0000000000000D+00  0.0000000000000D+00
   324  3.2300000000000D+00  0.0000000000000D+00  0.0000000000000D+00
   325  3.2400000000000D+00  0.0000000000000D+00  0.0000000000000D+00
   326  3.2500000000000D+00  0.0000000000000D+00  0.0000000000000D+00
   327  3.2600000000000D+00  0.0000000000000D+00  0.0000000000000D+00
   328  3.2700000000000D+00  0.0000000000000D+00  0.0000000000000D+00
   329  3.2800000000000D+00  0.0000000000000D+00  0.0000000000000D+00
   330  3.2900000000000D+00  0.0000000000000D+00  0.0000000000000D+00
   331  3.3000000000000D+00  0.0000000000000D+00  0.0000000000000D+00
   332  3.3100000000000D+00  0.0000000000000D+00  0.0000000000000D+00
   333  3.3200000000000D+00  0.0000000000000D+00  0.0000000000000D+00
   334  3.3300000000000D+00  0.0000000000000D+00  0.0000000000000D+00
   335  3.3400000000000D+00  0.0000000000000D+00  0.0000000000000D+00
   336  3.3500000000000D+00  0.0000000000000D+00  0.0000000000000D+00
   337  3.3600000000000D+00  0.0000000000000D+00  0.0000000000000D+00
   338  3.3700000000000D+00  0.0000000000000D+00  0.0000000000000D+00
   339  3.3800000000000D+00  0.0000000000000D+00  0.0000000000000D+00
   340  3.3900000000000D+00  0.0000000000000D+00  0.0000000000000D+00
   341  3.4000000000000D+00  0.0000000000000D+00  0.0000000000000D+00
   342  3.4100000000000D+00  0.0000000000000D+00  0.0000000000000D+00
   343  3.4200000000000D+00  0.0000000000000D+00  0.0000000000000D+00
   344  3.4300000000000D+00  0.0000000000000D+00  0.0000000000000D+00
   345  3.4400000000000D+00  0.0000000000000D+00  0.0000000000000D+00
   346  3.4500000000000D+00  0.0000000000000D+00  0.0000000000000D+00
   347  3.4600000000000D+00  0.0000000000000D+00  0.0000000000000D+00
   348  3.4700000000000D+00  0.0000000000000D+00  0.0000000000000D+00
   349  3.4800000000000D+00  0.0000000000000D+00  0.0000000000000D+00
   350  3.4900000000000D+00  0.0000000000000D+00  0.0000000000000D+00
   351  3.5000000000000D+00  0.0000000000000D+00  0.0000000000000D+00
   352  3.5100000000000D+00  0.0000000000000D+00  0.0000000000000D+00
   353  3.5200000000000D+00  0.0000000000000D+00  0.0000000000000D+00
   354  3.5300000000000D+00  0.0000000000000D+00  0.0000000000000D+00
   355  3.5400000000000D+00  0.0000000000000D+00  0.0000000000000D+00
   356  3.5500000000000D+00  0.0000000000000D+00  0.0000000000000D+00
   357  3.5600000000000D+00  0.0000000000000D+00  0.0000000000000D+00
   358  3.5700000000000D+00  0.0000000000000D+00  0.0000000000000D+00
   359  3.5800000000000D+00  0.0000000000000D+00  0.0000000000000D+00
   360  3.5900000000000D+00  0.0000000000000D+00  0.0000000000000D+00
   361  3.6000000000000D+00  0.0000000000000D+00  0.0000000000000D+00
   362  3.6100000000000D+00  0.0000000000000D+00  0.0000000000000D+00
   363  3.6200000000000D+00  0.0000000000000D+00  0.0000000000000D+00
   364  3.6300000000000D+00  0.0000000000000D+00  0.0000000000000D+00
   365  3.6400000000000D+00  0.0000000000000D+00  0.0000000000000D+00
   366  3.6500000000000D+00  0.0000000000000D+00  0.0000000000000D+00
   367  3.6600000000000D+00  0.0000000000000D+00  0.0000000000000D+00
   368  3.6700000000000D+00  0.0000000000000D+00  0.0000000000000D+00
   369  3.6800000000000D+00  0.0000000000000D+00  0.0000000000000D+00
   370  3.6900000000000D+00  0.0000000000000D+00  0.0000000000000D+00
   371  3.7000000000000D+00  0.0000000000000D+00  0.0000000000000D+00
   372  3.7100000000000D+00  0.0000000000000D+00  0.0000000000000D+00
   373  3.7200000000000D+00  0.0000000000000D+00  0.0000000000000D+00
   374  3.7300000000000D+00  0.0000000000000D+00  0.0000000000000D+00
   375  3.7400000000000D+00  0.0000000000000D+00  0.0000000000000D+00
   376  3.7500000000000D+00  0.0000000000000D+00  0.0000000000000D+00
   377  3.7600000000000D+00  0.0000000000000D+00  0.0000000000000D+00
   378  3.7700000000000D+00  0.0000000000000D+00  0.0000000000000D+00
   379  3.7800000000000D+00  0.0000000000000D+00  0.0000000000000D+00
   380  3.7900000000000D+00  0.0000000000000D+00  0.0000000000000D+00
   381  3.8000000000000D+00  0.0000000000000D+00  0.0000000000000D+00
   382  3.8100000000000D+00  0.0000000000000D+00  0.0000000000000D+00
   383  3.8200000000000D+00  0.0000000000000D+00  0.0000000000000D+00
   384  3.8300000000000D+00  0.0000000000000D+00  0.0000000000000D+00
   385  3.8400000000000D+00  0.0000000000000D+00  0.0000000000000D+00
   386  3.8500000000000D+00  0.0000000000000D+00  0.0000000000000D+00
   387  3.8600000000000D+00  0.0000000000000D+00  0.0000000000000D+00
   388  3.8700000000000D+00  0.0000000000000D+00  0.0000000000000D+00
   389  3.8800000000000D+00  0.0000000000000D+00  0.0000000000000D+00
   390  3.8900000000000D+00  0.0000000000000D+00  0.0000000000000D+00
   391  3.9000000000000D+00  0.0000000000000D+00  0.0000000000000D+00
   392  3.9100000000000D+00  0.0000000000000D+00  0.0000000000000D+00
   393  3.9200000000000D+00  0.0000000000000D+00  0.0000000000000D+00
   394  3.9300000000000D+00  0.0000000000000D+00  0.0000000000000D+00
   395  3.9400000000000D+00  0.0000000000000D+00  0.0000000000000D+00
   396  3.9500000000000D+00  0.0000000000000D+00  0.0000000000000D+00
   397  3.9600000000000D+00  0.0000000000000D+00  0.0000000000000D+00
   398  3.9700000000000D+00  0.0000000000000D+00  0.0000000000000D+00
   399  3.9800000000000D+00  0.0000000000000D+00  0.0000000000000D+00
   400  3.9900000000000D+00  0.0000000000000D+00  0.0000000000000D+00
   401  4.0000000000000D+00  0.0000000000000D+00  0.0000000000000D+00
   402  4.0100000000000D+00  0.0000000000000D+00  0.0000000000000D+00
   403  4.0200000000000D+00  0.0000000000000D+00  0.0000000000000D+00
   404  4.0300000000000D+00  0.0000000000000D+00  0.0000000000000D+00
   405  4.0400000000000D+00  0.0000000000000D+00  0.0000000000000D+00
   406  4.0500000000000D+00  0.0000000000000D+00  0.0000000000000D+00
   407  4.0600000000000D+00  0.0000000000000D+00  0.0000000000000D+00
   408  4.0700000000000D+00  0.0000000000000D+00  0.0000000000000D+00
   409  4.0800000000000D+00  0.0000000000000D+00  0.0000000000000D+00
   410  4.0900000000000D+00  0.0000000000000D+00  0.0000000000000D+00
   411  4.1000000000000D+00  0.0000000000000D+00  0.0000000000000D+00
   412  4.1100000000000D+00  0.0000000000000D+00  0.0000000000000D+00
   413  4.1200000000000D+00  0.0000000000000D+00  0.0000000000000D+00
   414  4.1300000000000D+00  0.0000000000000D+00  0.0000000000000D+00
   415  4.1400000000000D+00  0.0000000000000D+00  0.0000000000000D+00
   416  4.1500000000000D+00  0.0000000000000D+00  0.0000000000000D+00
   417  4.1600000000000D+00  0.0000000000000D+00  0.0000000000000D+00
   418  4.1700000000000D+00  0.0000000000000D+00  0.0000000000000D+00
   419  4.1800000000000D+00  0.0000000000000D+00  0.0000000000000D+00
   420  4.1900000000000D+00  0.0000000000000D+00  0.0000000000000D+00
   421  4.2000000000000D+00  0.0000000000000D+00  0.0000000000000D+00
   422  4.2100000000000D+00  0.0000000000000D+00  0.0000000000000D+00