Rh    ONCVPSP-3.3.1  r_core=   2.40816   2.58683   2.58683
     45.0000     17.0000      210905    zatom,zion,pspd
     8 -116133   2     4   600     0    pspcod,pspxc,lmax,lloc,mmax,r2well
  5.99000000  0.00000000  0.00000000    rchrg fchrg qchrg
     2     3     3     0    nproj
     3     1           extension_switch
     4     4     0    nprojso
   0                         7.6359216404616D-01  4.2362068033785D+00
     1  0.0000000000000D+00 -9.2347969549156D-12  5.8714144657301D-13
     2  1.0000000000000D-02 -6.6755055614966D-04  5.3621997629900D-02
     3  2.0000000000000D-02 -1.3210537243945D-03  1.0716767626862D-01
     4  3.0000000000000D-02 -1.9464176257139D-03  1.6056082986110D-01
     5  4.0000000000000D-02 -2.5294618680028D-03  2.1372547811327D-01
     6  5.0000000000000D-02 -3.0558744600520D-03  2.6658597909449D-01
     7  6.0000000000000D-02 -3.5111701236503D-03  3.1906714150570D-01
     8  7.0000000000000D-02 -3.8806504589767D-03  3.7109433650147D-01
     9  8.0000000000000D-02 -4.1493664092140D-03  4.2259360895301D-01
    10  9.0000000000000D-02 -4.3020834587712D-03  4.7349178803906D-01
    11  1.0000000000000D-01 -4.3232499857402D-03  5.2371659705018D-01
    12  1.1000000000000D-01 -4.1969691732318D-03  5.7319676229129D-01
    13  1.2000000000000D-01 -3.9069748661567D-03  6.2186212096612D-01
    14  1.3000000000000D-01 -3.4366117397456D-03  6.6964372792579D-01
    15  1.4000000000000D-01 -2.7688201238973D-03  7.1647396116259D-01
    16  1.5000000000000D-01 -1.8861258032056D-03  7.6228662592831D-01
    17  1.6000000000000D-01 -7.7063508633549D-04  8.0701705735494D-01
    18  1.7000000000000D-01  5.9596458940453D-04  8.5060222145381D-01
    19  1.8000000000000D-01  2.2323982822608D-03  8.9298081436742D-01
    20  1.9000000000000D-01  4.1577911941277D-03  9.3409335974623D-01
    21  2.0000000000000D-01  6.3916501706119D-03  9.7388230412075D-01
    22  2.1000000000000D-01  8.9538389152271D-03  1.0122921101372D+00
    23  2.2000000000000D-01  1.1864546815547D-02  1.0492693475231D+00
    24  2.3000000000000D-01  1.5144251315686D-02  1.0847627816464D+00
    25  2.4000000000000D-01  1.8813673807255D-02  1.1187234595304D+00
    26  2.5000000000000D-01  2.2893729049477D-02  1.1511047931847D+00
    27  2.6000000000000D-01  2.7405468168415D-02  1.1818626401092D+00
    28  2.7000000000000D-01  3.2370015325177D-02  1.2109553808271D+00
    29  2.8000000000000D-01  3.7808498183115D-02  1.2383439933010D+00
    30  2.9000000000000D-01  4.3741972344512D-02  1.2639921240846D+00
    31  3.0000000000000D-01  5.0191339967812D-02  1.2878661560590D+00
    32  3.1000000000000D-01  5.7177262816693D-02  1.3099352726040D+00
    33  3.2000000000000D-01  6.4720070032229D-02  1.3301715180518D+00
    34  3.3000000000000D-01  7.2839660958985D-02  1.3485498542696D+00
    35  3.4000000000000D-01  8.1555403394398D-02  1.3650482132171D+00
    36  3.5000000000000D-01  9.0886027668600D-02  1.3796475453259D+00
    37  3.6000000000000D-01  1.0084951699847D-01  1.3923318635447D+00
    38  3.7000000000000D-01  1.1146299459477D-01  1.4030882828987D+00
    39  3.8000000000000D-01  1.2274260803489D-01  1.4119070554094D+00
    40  3.9000000000000D-01  1.3470341144563D-01  1.4187816002232D+00
    41  4.0000000000000D-01  1.4735924607010D-01  1.4237085288006D+00
    42  4.1000000000000D-01  1.6072261982052D-01  1.4266876650187D+00
    43  4.2000000000000D-01  1.7480458644397D-01  1.4277220600431D+00
    44  4.3000000000000D-01  1.8961462495065D-01  1.4268180018313D+00
    45  4.4000000000000D-01  2.0516051997399D-01  1.4239850191297D+00
    46  4.5000000000000D-01  2.2144824374899D-01  1.4192358798384D+00
    47  4.6000000000000D-01  2.3848184040857D-01  1.4125865836163D+00
    48  4.7000000000000D-01  2.5626331330849D-01  1.4040563486131D+00
    49  4.8000000000000D-01  2.7479251609797D-01  1.3936675922183D+00
    50  4.9000000000000D-01  2.9406704825675D-01  1.3814459057260D+00
    51  5.0000000000000D-01  3.1408215581898D-01  1.3674200228269D+00
    52  5.1000000000000D-01  3.3483063800000D-01  1.3516217818459D+00
    53  5.2000000000000D-01  3.5630276043434D-01  1.3340860816573D+00
    54  5.3000000000000D-01  3.7848617572090D-01  1.3148508312206D+00
    55  5.4000000000000D-01  4.0136585195561D-01  1.2939568926938D+00
    56  5.5000000000000D-01  4.2492400991156D-01  1.2714480180958D+00
    57  5.6000000000000D-01  4.4914006950261D-01  1.2473707795013D+00
    58  5.7000000000000D-01  4.7399060613831D-01  1.2217744927736D+00
    59  5.8000000000000D-01  4.9944931754590D-01  1.1947111348508D+00
    60  5.9000000000000D-01  5.2548700159908D-01  1.1662352546223D+00
    61  6.0000000000000D-01  5.5207154565314D-01  1.1364038774513D+00
    62  6.1000000000000D-01  5.7916792784282D-01  1.1052764034152D+00
    63  6.2000000000000D-01  6.0673823075158D-01  1.0729144993591D+00
    64  6.3000000000000D-01  6.3474166781053D-01  1.0393819848747D+00
    65  6.4000000000000D-01  6.6313462273119D-01  1.0047447123406D+00
    66  6.5000000000000D-01  6.9187070221934D-01  9.6907044118090D-01
    67  6.6000000000000D-01  7.2090080215715D-01  9.3242870651918D-01
    68  6.7000000000000D-01  7.5017318737858D-01  8.9489068243001D-01
    69  6.8000000000000D-01  7.7963358509815D-01  8.5652904001032D-01
    70  6.9000000000000D-01  8.0922529198639D-01  8.1741780051705D-01
    71  7.0000000000000D-01  8.3888929481673D-01  7.7763218383934D-01
    72  7.1000000000000D-01  8.6856440453910D-01  7.3724845259643D-01
    73  7.2000000000000D-01  8.9818740356393D-01  6.9634375217495D-01
    74  7.3000000000000D-01  9.2769320596937D-01  6.5499594704107D-01
    75  7.4000000000000D-01  9.5701503027214D-01  6.1328345368476D-01
    76  7.5000000000000D-01  9.8608458433082D-01  5.7128507057470D-01
    77  7.6000000000000D-01  1.0148322618791D+00  5.2907980552231D-01
    78  7.7000000000000D-01  1.0431873501161D+00  4.8674670087353D-01
    79  7.8000000000000D-01  1.0710782477112D+00  4.4436465696517D-01
    80  7.9000000000000D-01  1.0984326925138D+00  4.0201225430058D-01
    81  8.0000000000000D-01  1.1251779981938D+00  3.5976757491561D-01
    82  8.1000000000000D-01  1.1512412989723D+00  3.1770802342103D-01
    83  8.2000000000000D-01  1.1765498015475D+00  2.7591014822109D-01
    84  8.3000000000000D-01  1.2010310432584D+00  2.3444946342032D-01
    85  8.4000000000000D-01  1.2246131554791D+00  1.9340027194076D-01
    86  8.5000000000000D-01  1.2472251311866D+00  1.5283549038069D-01
    87  8.6000000000000D-01  1.2687970955999D+00  1.1282647615283D-01
    88  8.7000000000000D-01  1.2892605787475D+00  7.3442857444619D-02
    89  8.8000000000000D-01  1.3085487887877D+00  3.4752366546093D-02
    90  8.9000000000000D-01  1.3265968848723D+00 -3.1793229082980D-03
    91  9.0000000000000D-01  1.3433422483245D+00 -4.0288754239363D-02
    92  9.1000000000000D-01  1.3587247508797D+00 -7.6514841023261D-02
    93  9.2000000000000D-01  1.3726870187268D+00 -1.1179901485709D-01
    94  9.3000000000000D-01  1.3851746910811D+00 -1.4608536706339D-01
    95  9.4000000000000D-01  1.3961366720210D+00 -1.7932078381760D-01
    96  9.5000000000000D-01  1.4055253743230D+00 -2.1145507419572D-01
    97  9.6000000000000D-01  1.4132969540479D+00 -2.4244109065453D-01
    98  9.7000000000000D-01  1.4194115346454D+00 -2.7223484147501D-01
    99  9.8000000000000D-01  1.4238334193725D+00 -3.0079559471872D-01
   100  9.9000000000000D-01  1.4265312908527D+00 -3.2808597327022D-01
   101  1.0000000000000D+00  1.4274783966417D+00 -3.5407204056221D-01
   102  1.0100000000000D+00  1.4266527197091D+00 -3.7872337660745D-01
   103  1.0200000000000D+00  1.4240371327984D+00 -4.0201314398944D-01
   104  1.0300000000000D+00  1.4196195356809D+00 -4.2391814349490D-01
   105  1.0400000000000D+00  1.4133929743875D+00 -4.4441885910432D-01
   106  1.0500000000000D+00  1.4053557415611D+00 -4.6349949208817D-01
   107  1.0600000000000D+00  1.3955114571542D+00 -4.8114798399593D-01
   108  1.0700000000000D+00  1.3838691287690D+00 -4.9735602835957D-01
   109  1.0800000000000D+00  1.3704431910182D+00 -5.1211907097206D-01
   110  1.0900000000000D+00  1.3552535233794D+00 -5.2543629864377D-01
   111  1.1000000000000D+00  1.3383254460870D+00 -5.3731061637296D-01
   112  1.1100000000000D+00  1.3196896937196D+00 -5.4774861291701D-01
   113  1.1200000000000D+00  1.2993823662217D+00 -5.5676051478577D-01
   114  1.1300000000000D+00  1.2774448572043D+00 -5.6436012872612D-01
   115  1.1400000000000D+00  1.2539237594572D+00 -5.7056477280179D-01
   116  1.1500000000000D+00  1.2288707477138D+00 -5.7539519622179D-01
   117  1.1600000000000D+00  1.2023424388106D+00 -5.7887548810946D-01
   118  1.1700000000000D+00  1.1744002294872D+00 -5.8103297544990D-01
   119  1.1800000000000D+00  1.1451101121474D+00 -5.8189811048256D-01
   120  1.1900000000000D+00  1.1145424690356D+00 -5.8150434786063D-01
   121  1.2000000000000D+00  1.0827718453618D+00 -5.7988801193027D-01
   122  1.2100000000000D+00  1.0498767020051D+00 -5.7708815452071D-01
   123  1.2200000000000D+00  1.0159391485034D+00 -5.7314640366740D-01
   124  1.2300000000000D+00  9.8104465715599D-01 -5.6810680373673D-01
   125  1.2400000000000D+00  9.4528175914167D-01 -5.6201564744808D-01
   126  1.2500000000000D+00  9.0874172359102D-01 -5.5492130030488D-01
   127  1.2600000000000D+00  8.7151822069959D-01 -5.4687401800042D-01
   128  1.2700000000000D+00  8.3370697000169D-01 -5.3792575737552D-01
   129  1.2800000000000D+00  7.9540537495926D-01 -5.2812998151868D-01
   130  1.2900000000000D+00  7.5671214514299D-01 -5.1754145964250D-01
   131  1.3000000000000D+00  7.1772690730166D-01 -5.0621606237451D-01
   132  1.3100000000000D+00  6.7854980663371D-01 -4.9421055310862D-01
   133  1.3200000000000D+00  6.3928109967738D-01 -4.8158237609506D-01
   134  1.3300000000000D+00  6.0002074021823D-01 -4.6838944193775D-01
   135  1.3400000000000D+00  5.6086795964466D-01 -4.5468991118137D-01
   136  1.3500000000000D+00  5.2192084322521D-01 -4.4054197667511D-01
   137  1.3600000000000D+00  4.8327590375215D-01 -4.2600364539073D-01
   138  1.3700000000000D+00  4.4502765403767D-01 -4.1113252038512D-01
   139  1.3800000000000D+00  4.0726817970036D-01 -3.9598558356603D-01
   140  1.3900000000000D+00  3.7008671370797D-01 -3.8061897993826D-01
   141  1.4000000000000D+00  3.3356921410257D-01 -3.6508780397764D-01
   142  1.4100000000000D+00  2.9779794626572D-01 -3.4944588874929D-01
   143  1.4200000000000D+00  2.6285107116887D-01 -3.3374559842706D-01
   144  1.4300000000000D+00  2.2880224082050D-01 -3.1803762475499D-01
   145  1.4400000000000D+00  1.9572020227453D-01 -3.0237078806785D-01
   146  1.4500000000000D+00  1.6366841137712D-01 -2.8679184339452D-01
   147  1.4600000000000D+00  1.3270465734934D-01 -2.7134529213439D-01
   148  1.4700000000000D+00  1.0288069945507D-01 -2.5607319986391D-01
   149  1.4800000000000D+00  7.4241913391586D-02 -2.4101501972371D-01
   150  1.4900000000000D+00  4.6826965819444D-02 -2.2620742679909D-01
   151  1.5000000000000D+00  2.0667453455687D-02 -2.1168414525799D-01
   152  1.5100000000000D+00 -4.2122784591900D-03 -1.9747583132886D-01
   153  1.5200000000000D+00 -2.7795459144437D-02 -1.8360991570576D-01
   154  1.5300000000000D+00 -5.0073854893113D-02 -1.7011027264370D-01
   155  1.5400000000000D+00 -7.1046402477744D-02 -1.5699755023108D-01
   156  1.5500000000000D+00 -9.0717456795392D-02 -1.4428960966008D-01
   157  1.5600000000000D+00 -1.0909515707519D-01 -1.3200199120604D-01
   158  1.5700000000000D+00 -1.2618951110953D-01 -1.2014846559054D-01
   159  1.5800000000000D+00 -1.4201301038472D-01 -1.0874088390053D-01
   160  1.5900000000000D+00 -1.5658081064490D-01 -9.7789158134663D-02
   161  1.6000000000000D+00 -1.6991047502907D-01 -8.7301356259731D-02
   162  1.6100000000000D+00 -1.8202202281947D-01 -7.7283717812266D-02
   163  1.6200000000000D+00 -1.9293785017519D-01 -6.7740705519013D-02
   164  1.6300000000000D+00 -2.0268267243124D-01 -5.8675052339349D-02
   165  1.6400000000000D+00 -2.1128344823024D-01 -5.0087814746712D-02
   166  1.6500000000000D+00 -2.1876929235675D-01 -4.1978430278238D-02
   167  1.6600000000000D+00 -2.2517137791943D-01 -3.4344779084248D-02
   168  1.6700000000000D+00 -2.3052282840221D-01 -2.7183249248691D-02
   169  1.6800000000000D+00 -2.3485860045922D-01 -2.0488805535135D-02
   170  1.6900000000000D+00 -2.3821535797470D-01 -1.4255061329086D-02
   171  1.7000000000000D+00 -2.4063133822408D-01 -8.4743534401923D-03
   172  1.7100000000000D+00 -2.4214621120538D-01 -3.1378193589145D-03
   173  1.7200000000000D+00 -2.4280093291194D-01  1.7645233462042D-03
   174  1.7300000000000D+00 -2.4263759314774D-01  6.2436957566583D-03
   175  1.7400000000000D+00 -2.4169925895448D-01  1.0311674863176D-02
   176  1.7500000000000D+00 -2.4002981432718D-01  1.3981309641741D-02
   177  1.7600000000000D+00 -2.3767379701289D-01  1.7266236264903D-02
   178  1.7700000000000D+00 -2.3467623376877D-01  2.0180792958985D-02
   179  1.7800000000000D+00 -2.3108247487895D-01  2.2739934825392D-02
   180  1.7900000000000D+00 -2.2693802857429D-01  2.4959148898344D-02
   181  1.8000000000000D+00 -2.2228839635483D-01  2.6854369828349D-02
   182  1.8100000000000D+00 -2.1717890997648D-01  2.8441896482067D-02
   183  1.8200000000000D+00 -2.1165457104343D-01  2.9738309842586D-02
   184  1.8300000000000D+00 -2.0575989373909D-01  3.0760392403618D-02
   185  1.8400000000000D+00 -1.9953875222696D-01  3.1525049654712D-02
   186  1.8500000000000D+00 -1.9303423244258D-01  3.2049233553546D-02
   187  1.8600000000000D+00 -1.8628849009675D-01  3.2349868698492D-02
   188  1.8700000000000D+00 -1.7934261443337D-01  3.2443781018927D-02
   189  1.8800000000000D+00 -1.7223649949053D-01  3.2347629665805D-02
   190  1.8900000000000D+00 -1.6500872252709D-01  3.2077841972522D-02
   191  1.9000000000000D+00 -1.5769643078112D-01  3.1650551939290D-02
   192  1.9100000000000D+00 -1.5033523686179D-01  3.1081542359823D-02
   193  1.9200000000000D+00 -1.4295912287147D-01  3.0386190629665D-02
   194  1.9300000000000D+00 -1.3560035463788D-01  2.9579418770657D-02
   195  1.9400000000000D+00 -1.2828940470728D-01  2.8675647154892D-02
   196  1.9500000000000D+00 -1.2105488658919D-01  2.7688752888540D-02
   197  1.9600000000000D+00 -1.1392349813061D-01  2.6632032043356D-02
   198  1.9700000000000D+00 -1.0691997614706D-01  2.5518166555168D-02
   199  1.9800000000000D+00 -1.0006706117034D-01  2.4359195355318D-02
   200  1.9900000000000D+00 -9.3385472637138D-02  2.3166489862179D-02
   201  2.0000000000000D+00 -8.6893895295928D-02  2.1950734133577D-02
   202  2.0100000000000D+00 -8.0608974873006D-02  2.0721908933246D-02
   203  2.0200000000000D+00 -7.4545325500229D-02  1.9489280671930D-02
   204  2.0300000000000D+00 -6.8715546014062D-02  1.8261394120414D-02
   205  2.0400000000000D+00 -6.3130246873641D-02  1.7046069566017D-02
   206  2.0500000000000D+00 -5.7798086571990D-02  1.5850403984928D-02
   207  2.0600000000000D+00 -5.2725816712677D-02  1.4680775916809D-02
   208  2.0700000000000D+00 -4.7918336931754D-02  1.3542854496155D-02
   209  2.0800000000000D+00 -4.3378757052001D-02  1.2441611643398D-02
   210  2.0900000000000D+00 -3.9108468035864D-02  1.1381338018947D-02
   211  2.1000000000000D+00 -3.5107219904665D-02  1.0365662041220D-02
   212  2.1100000000000D+00 -3.1373206240800D-02  9.3975718252269D-03
   213  2.1200000000000D+00 -2.7903155522513D-02  8.4794401417014D-03
   214  2.1300000000000D+00 -2.4692427249412D-02  7.6130516148022D-03
   215  2.1400000000000D+00 -2.1735113567086D-02  6.7996324374215D-03
   216  2.1500000000000D+00 -1.9024144885072D-02  6.0398820265243D-03
   217  2.1600000000000D+00 -1.6551398900797D-02  5.3340063967149D-03
   218  2.1700000000000D+00 -1.4307812706817D-02  4.6817531366314D-03
   219  2.1800000000000D+00 -1.2283496810406D-02  4.0824475320736D-03
   220  2.1900000000000D+00 -1.0467850545935D-02  3.5350296506919D-03
   221  2.2000000000000D+00 -8.8496781150885D-03  3.0380920917377D-03
   222  2.2100000000000D+00 -7.4173047408932D-03  2.5899182001273D-03
   223  2.2200000000000D+00 -6.1586915558382D-03  2.1885202363202D-03
   224  2.2300000000000D+00 -5.0615494850546D-03  1.8316775811024D-03
   225  2.2400000000000D+00 -4.1134506988292D-03  1.5169744451724D-03
   226  2.2500000000000D+00 -3.3019367627133D-03  1.2418367529158D-03
   227  2.2600000000000D+00 -2.6146243251601D-03  1.0035685012238D-03
   228  2.2700000000000D+00 -2.0393053989574D-03  7.9938649759631D-04
   229  2.2800000000000D+00 -1.5640433282616D-03  6.2645387315731D-04
   230  2.2900000000000D+00 -1.1772643609492D-03  4.8191233415607D-04
   231  2.3000000000000D+00 -8.6784141995828D-04  3.6291187983780D-04
   232  2.3100000000000D+00 -6.2517323123159D-04  2.6663915262173D-04
   233  2.3200000000000D+00 -4.3925630794524D-04  1.9034348428909D-04
   234  2.3300000000000D+00 -3.0078602922886D-04  1.3136111226399D-04
   235  2.3400000000000D+00 -2.0108607283651D-04  8.7133370132316D-05
   236  2.3500000000000D+00 -1.3224783108985D-04  5.5227441492818D-05
   237  2.3600000000000D+00 -8.6894569082868D-05  3.3299099768029D-05
   238  2.3700000000000D+00 -5.9562176270577D-05  1.9315265057982D-05
   239  2.3800000000000D+00 -4.5320274449711D-05  1.1357842883750D-05
   240  2.3900000000000D+00 -4.0636737443177D-05  7.8331259564126D-06
   241  2.4000000000000D+00 -3.8241967564886D-05  6.4477634222389D-06
   242  2.4100000000000D+00 -3.2873514922445D-05  5.4258752190503D-06
   243  2.4200000000000D+00 -2.0986286872534D-05  3.4795375523699D-06
   244  2.4300000000000D+00 -7.8213278027972D-06  1.3193821015140D-06
   245  2.4400000000000D+00  1.5874219698866D-06 -2.5360438971180D-07
   246  2.4500000000000D+00  3.6385556007739D-06 -5.8208376702000D-07
   247  2.4600000000000D+00  1.8976689460137D-06 -3.0437483286583D-07
   248  2.4700000000000D+00 -3.6735232132091D-07  5.5790149093136D-08
   249  2.4800000000000D+00 -7.9691521844433D-07  1.2045078333216D-07
   250  2.4900000000000D+00 -4.2442965829924D-07  6.3895838687813D-08
   251  2.5000000000000D+00  4.6542460150224D-08 -7.6994348367020D-09
   252  2.5100000000000D+00  9.8134940441251D-08 -1.6234285353466D-08
   253  2.5200000000000D+00  5.3473838438751D-08 -8.8460801856756D-09
   254  2.5300000000000D+00  0.0000000000000D+00  0.0000000000000D+00
   255  2.5400000000000D+00  0.0000000000000D+00  0.0000000000000D+00
   256  2.5500000000000D+00  0.0000000000000D+00  0.0000000000000D+00
   257  2.5600000000000D+00  0.0000000000000D+00  0.0000000000000D+00
   258  2.5700000000000D+00  0.0000000000000D+00  0.0000000000000D+00
   259  2.5800000000000D+00  0.0000000000000D+00  0.0000000000000D+00
   260  2.5900000000000D+00  0.0000000000000D+00  0.0000000000000D+00
   261  2.6000000000000D+00  0.0000000000000D+00  0.0000000000000D+00
   262  2.6100000000000D+00  0.0000000000000D+00  0.0000000000000D+00
   263  2.6200000000000D+00  0.0000000000000D+00  0.0000000000000D+00
   264  2.6300000000000D+00  0.0000000000000D+00  0.0000000000000D+00
   265  2.6400000000000D+00  0.0000000000000D+00  0.0000000000000D+00
   266  2.6500000000000D+00  0.0000000000000D+00  0.0000000000000D+00
   267  2.6600000000000D+00  0.0000000000000D+00  0.0000000000000D+00
   268  2.6700000000000D+00  0.0000000000000D+00  0.0000000000000D+00
   269  2.6800000000000D+00  0.0000000000000D+00  0.0000000000000D+00
   270  2.6900000000000D+00  0.0000000000000D+00  0.0000000000000D+00
   271  2.7000000000000D+00  0.0000000000000D+00  0.0000000000000D+00
   272  2.7100000000000D+00  0.0000000000000D+00  0.0000000000000D+00
   273  2.7200000000000D+00  0.0000000000000D+00  0.0000000000000D+00
   274  2.7300000000000D+00  0.0000000000000D+00  0.0000000000000D+00
   275  2.7400000000000D+00  0.0000000000000D+00  0.0000000000000D+00
   276  2.7500000000000D+00  0.0000000000000D+00  0.0000000000000D+00
   277  2.7600000000000D+00  0.0000000000000D+00  0.0000000000000D+00
   278  2.7700000000000D+00  0.0000000000000D+00  0.0000000000000D+00
   279  2.7800000000000D+00  0.0000000000000D+00  0.0000000000000D+00
   280  2.7900000000000D+00  0.0000000000000D+00  0.0000000000000D+00
   281  2.8000000000000D+00  0.0000000000000D+00  0.0000000000000D+00
   282  2.8100000000000D+00  0.0000000000000D+00  0.0000000000000D+00
   283  2.8200000000000D+00  0.0000000000000D+00  0.0000000000000D+00
   284  2.8300000000000D+00  0.0000000000000D+00  0.0000000000000D+00
   285  2.8400000000000D+00  0.0000000000000D+00  0.0000000000000D+00
   286  2.8500000000000D+00  0.0000000000000D+00  0.0000000000000D+00
   287  2.8600000000000D+00  0.0000000000000D+00  0.0000000000000D+00
   288  2.8700000000000D+00  0.0000000000000D+00  0.0000000000000D+00
   289  2.8800000000000D+00  0.0000000000000D+00  0.0000000000000D+00
   290  2.8900000000000D+00  0.0000000000000D+00  0.0000000000000D+00
   291  2.9000000000000D+00  0.0000000000000D+00  0.0000000000000D+00
   292  2.9100000000000D+00  0.0000000000000D+00  0.0000000000000D+00
   293  2.9200000000000D+00  0.0000000000000D+00  0.0000000000000D+00
   294  2.9300000000000D+00  0.0000000000000D+00  0.0000000000000D+00
   295  2.9400000000000D+00  0.0000000000000D+00  0.0000000000000D+00
   296  2.9500000000000D+00  0.0000000000000D+00  0.0000000000000D+00
   297  2.9600000000000D+00  0.0000000000000D+00  0.0000000000000D+00
   298  2.9700000000000D+00  0.0000000000000D+00  0.0000000000000D+00
   299  2.9800000000000D+00  0.0000000000000D+00  0.0000000000000D+00
   300  2.9900000000000D+00  0.0000000000000D+00  0.0000000000000D+00
   301  3.0000000000000D+00  0.0000000000000D+00  0.0000000000000D+00
   302  3.0100000000000D+00  0.0000000000000D+00  0.0000000000000D+00
   303  3.0200000000000D+00  0.0000000000000D+00  0.0000000000000D+00
   304  3.0300000000000D+00  0.0000000000000D+00  0.0000000000000D+00
   305  3.0400000000000D+00  0.0000000000000D+00  0.0000000000000D+00
   306  3.0500000000000D+00  0.0000000000000D+00  0.0000000000000D+00
   307  3.0600000000000D+00  0.0000000000000D+00  0.0000000000000D+00
   308  3.0700000000000D+00  0.0000000000000D+00  0.0000000000000D+00
   309  3.0800000000000D+00  0.0000000000000D+00  0.0000000000000D+00
   310  3.0900000000000D+00  0.0000000000000D+00  0.0000000000000D+00
   311  3.1000000000000D+00  0.0000000000000D+00  0.0000000000000D+00
   312  3.1100000000000D+00  0.0000000000000D+00  0.0000000000000D+00
   313  3.1200000000000D+00  0.0000000000000D+00  0.0000000000000D+00
   314  3.1300000000000D+00  0.0000000000000D+00  0.0000000000000D+00
   315  3.1400000000000D+00  0.0000000000000D+00  0.0000000000000D+00
   316  3.1500000000000D+00  0.0000000000000D+00  0.0000000000000D+00
   317  3.1600000000000D+00  0.0000000000000D+00  0.0000000000000D+00
   318  3.1700000000000D+00  0.0000000000000D+00  0.0000000000000D+00
   319  3.1800000000000D+00  0.0000000000000D+00  0.0000000000000D+00
   320  3.1900000000000D+00  0.0000000000000D+00  0.0000000000000D+00
   321  3.2000000000000D+00  0.0000000000000D+00  0.0000000000000D+00
   322  3.2100000000000D+00  0.0000000000000D+00  0.0000000000000D+00
   323  3.2200000000000D+00  0.0000000000000D+00  0.0000000000000D+00
   324  3.2300000000000D+00  0.0000000000000D+00  0.0000000000000D+00
   325  3.2400000000000D+00  0.0000000000000D+00  0.0000000000000D+00
   326  3.2500000000000D+00  0.0000000000000D+00  0.0000000000000D+00
   327  3.2600000000000D+00  0.0000000000000D+00  0.0000000000000D+00
   328  3.2700000000000D+00  0.0000000000000D+00  0.0000000000000D+00
   329  3.2800000000000D+00  0.0000000000000D+00  0.0000000000000D+00
   330  3.2900000000000D+00  0.0000000000000D+00  0.0000000000000D+00
   331  3.3000000000000D+00  0.0000000000000D+00  0.0000000000000D+00
   332  3.3100000000000D+00  0.0000000000000D+00  0.0000000000000D+00
   333  3.3200000000000D+00  0.0000000000000D+00  0.0000000000000D+00
   334  3.3300000000000D+00  0.0000000000000D+00  0.0000000000000D+00
   335  3.3400000000000D+00  0.0000000000000D+00  0.0000000000000D+00
   336  3.3500000000000D+00  0.0000000000000D+00  0.0000000000000D+00
   337  3.3600000000000D+00  0.0000000000000D+00  0.0000000000000D+00
   338  3.3700000000000D+00  0.0000000000000D+00  0.0000000000000D+00
   339  3.3800000000000D+00  0.0000000000000D+00  0.0000000000000D+00
   340  3.3900000000000D+00  0.0000000000000D+00  0.0000000000000D+00
   341  3.4000000000000D+00  0.0000000000000D+00  0.0000000000000D+00
   342  3.4100000000000D+00  0.0000000000000D+00  0.0000000000000D+00
   343  3.4200000000000D+00  0.0000000000000D+00  0.0000000000000D+00
   344  3.4300000000000D+00  0.0000000000000D+00  0.0000000000000D+00
   345  3.4400000000000D+00  0.0000000000000D+00  0.0000000000000D+00
   346  3.4500000000000D+00  0.0000000000000D+00  0.0000000000000D+00
   347  3.4600000000000D+00  0.0000000000000D+00  0.0000000000000D+00
   348  3.4700000000000D+00  0.0000000000000D+00  0.0000000000000D+00
   349  3.4800000000000D+00  0.0000000000000D+00  0.0000000000000D+00
   350  3.4900000000000D+00  0.0000000000000D+00  0.0000000000000D+00
   351  3.5000000000000D+00  0.0000000000000D+00  0.0000000000000D+00
   352  3.5100000000000D+00  0.0000000000000D+00  0.0000000000000D+00
   353  3.5200000000000D+00  0.0000000000000D+00  0.0000000000000D+00
   354  3.5300000000000D+00  0.0000000000000D+00  0.0000000000000D+00
   355  3.5400000000000D+00  0.0000000000000D+00  0.0000000000000D+00
   356  3.5500000000000D+00  0.0000000000000D+00  0.0000000000000D+00
   357  3.5600000000000D+00  0.0000000000000D+00  0.0000000000000D+00
   358  3.5700000000000D+00  0.0000000000000D+00  0.0000000000000D+00
   359  3.5800000000000D+00  0.0000000000000D+00  0.0000000000000D+00
   360  3.5900000000000D+00  0.0000000000000D+00  0.0000000000000D+00
   361  3.6000000000000D+00  0.0000000000000D+00  0.0000000000000D+00
   362  3.6100000000000D+00  0.0000000000000D+00  0.0000000000000D+00
   363  3.6200000000000D+00  0.0000000000000D+00  0.0000000000000D+00
   364  3.6300000000000D+00  0.0000000000000D+00  0.0000000000000D+00
   365  3.6400000000000D+00  0.0000000000000D+00  0.0000000000000D+00
   366  3.6500000000000D+00  0.0000000000000D+00  0.0000000000000D+00
   367  3.6600000000000D+00  0.0000000000000D+00  0.0000000000000D+00
   368  3.6700000000000D+00  0.0000000000000D+00  0.0000000000000D+00
   369  3.6800000000000D+00  0.0000000000000D+00  0.0000000000000D+00
   370  3.6900000000000D+00  0.0000000000000D+00  0.0000000000000D+00
   371  3.7000000000000D+00  0.0000000000000D+00  0.0000000000000D+00
   372  3.7100000000000D+00  0.0000000000000D+00  0.0000000000000D+00
   373  3.7200000000000D+00  0.0000000000000D+00  0.0000000000000D+00
   374  3.7300000000000D+00  0.0000000000000D+00  0.0000000000000D+00
   375  3.7400000000000D+00  0.0000000000000D+00  0.0000000000000D+00
   376  3.7500000000000D+00  0.0000000000000D+00  0.0000000000000D+00
   377  3.7600000000000D+00  0.0000000000000D+00  0.0000000000000D+00
   378  3.7700000000000D+00  0.0000000000000D+00  0.0000000000000D+00
   379  3.7800000000000D+00  0.0000000000000D+00  0.0000000000000D+00
   380  3.7900000000000D+00  0.0000000000000D+00  0.0000000000000D+00
   381  3.8000000000000D+00  0.0000000000000D+00  0.0000000000000D+00
   382  3.8100000000000D+00  0.0000000000000D+00  0.0000000000000D+00
   383  3.8200000000000D+00  0.0000000000000D+00  0.0000000000000D+00
   384  3.8300000000000D+00  0.0000000000000D+00  0.0000000000000D+00
   385  3.8400000000000D+00  0.0000000000000D+00  0.0000000000000D+00
   386  3.8500000000000D+00  0.0000000000000D+00  0.0000000000000D+00
   387  3.8600000000000D+00  0.0000000000000D+00  0.0000000000000D+00
   388  3.8700000000000D+00  0.0000000000000D+00  0.0000000000000D+00
   389  3.8800000000000D+00  0.0000000000000D+00  0.0000000000000D+00
   390  3.8900000000000D+00  0.0000000000000D+00  0.0000000000000D+00
   391  3.9000000000000D+00  0.0000000000000D+00  0.0000000000000D+00
   392  3.9100000000000D+00  0.0000000000000D+00  0.0000000000000D+00
   393  3.9200000000000D+00  0.0000000000000D+00  0.0000000000000D+00
   394  3.9300000000000D+00  0.0000000000000D+00  0.0000000000000D+00
   395  3.9400000000000D+00  0.0000000000000D+00  0.0000000000000D+00
   396  3.9500000000000D+00  0.0000000000000D+00  0.0000000000000D+00
   397  3.9600000000000D+00  0.0000000000000D+00  0.0000000000000D+00
   398  3.9700000000000D+00  0.0000000000000D+00  0.0000000000000D+00
   399  3.9800000000000D+00  0.0000000000000D+00  0.0000000000000D+00
   400  3.9900000000000D+00  0.0000000000000D+00  0.0000000000000D+00
   401  4.0000000000000D+00  0.0000000000000D+00  0.0000000000000D+00
   402  4.0100000000000D+00  0.0000000000000D+00  0.0000000000000D+00
   403  4.0200000000000D+00  0.0000000000000D+00  0.0000000000000D+00
   404  4.0300000000000D+00  0.0000000000000D+00  0.0000000000000D+00
   405  4.0400000000000D+00  0.0000000000000D+00  0.0000000000000D+00
   406  4.0500000000000D+00  0.0000000000000D+00  0.0000000000000D+00
   407  4.0600000000000D+00  0.0000000000000D+00  0.0000000000000D+00
   408  4.0700000000000D+00  0.0000000000000D+00  0.0000000000000D+00
   409  4.0800000000000D+00  0.0000000000000D+00  0.0000000000000D+00
   410  4.0900000000000D+00  0.0000000000000D+00  0.0000000000000D+00
   411  4.1000000000000D+00  0.0000000000000D+00  0.0000000000000D+00
   412  4.1100000000000D+00  0.0000000000000D+00  0.0000000000000D+00
   413  4.1200000000000D+00  0.0000000000000D+00  0.0000000000000D+00
   414  4.1300000000000D+00  0.0000000000000D+00  0.0000000000000D+00
   415  4.1400000000000D+00  0.0000000000000D+00  0.0000000000000D+00
   416  4.1500000000000D+00  0.0000000000000D+00  0.0000000000000D+00
   417  4.1600000000000D+00  0.0000000000000D+00  0.0000000000000D+00
   418  4.1700000000000D+00  0.0000000000000D+00  0.0000000000000D+00
   419  4.1800000000000D+00  0.0000000000000D+00  0.0000000000000D+00
   420  4.1900000000000D+00  0.0000000000000D+00  0.0000000000000D+00
   421  4.2000000000000D+00  0.0000000000000D+00  0.0000000000000D+00
   422  4.2100000000000D+00  0.0000000000000D+00  0.0000000000000D+00