Ru    ONCVPSP-3.3.1  r_core=   2.58325   2.55262   2.61425
     44.0000     16.0000      210905    zatom,zion,pspd
     8 -116133   2     4   600     0    pspcod,pspxc,lmax,lloc,mmax,r2well
  5.99000000  0.00000000  0.00000000    rchrg fchrg qchrg
     2     4     3     0    nproj
     3     1           extension_switch
     4     4     0    nprojso
   0                         7.6294773153531D-01  4.1034235763199D+00
     1  0.0000000000000D+00 -3.7961370158435D-12 -7.4262818117177D-13
     2  1.0000000000000D-02 -5.5381886014425D-03  5.1833471048727D-02
     3  2.0000000000000D-02 -1.1048856400543D-02  1.0359579835743D-01
     4  3.0000000000000D-02 -1.6504503468224D-02  1.5521595048031D-01
     5  4.0000000000000D-02 -2.1877671761942D-02  2.0662312039065D-01
     6  5.0000000000000D-02 -2.7140966418002D-02  2.5774683726708D-01
     7  6.0000000000000D-02 -3.2267077460028D-02  3.0851707777232D-01
     8  7.0000000000000D-02 -3.7228802057797D-02  3.5886437665629D-01
     9  8.0000000000000D-02 -4.1999067466873D-02  4.0871993651587D-01
    10  9.0000000000000D-02 -4.6550954774624D-02  4.5801573654473D-01
    11  1.0000000000000D-01 -5.0857723572609D-02  5.0668464010769D-01
    12  1.1000000000000D-01 -5.4892837668738D-02  5.5466050097527D-01
    13  1.2000000000000D-01 -5.8629991945132D-02  6.0187826805575D-01
    14  1.3000000000000D-01 -6.2043140459388D-02  6.4827408846341D-01
    15  1.4000000000000D-01 -6.5106525877851D-02  6.9378540876369D-01
    16  1.5000000000000D-01 -6.7794710319653D-02  7.3835107423781D-01
    17  1.6000000000000D-01 -7.0082607679610D-02  7.8191142601173D-01
    18  1.7000000000000D-01 -7.1945517486983D-02  8.2440839589655D-01
    19  1.8000000000000D-01 -7.3359160344898D-02  8.6578559878990D-01
    20  1.9000000000000D-01 -7.4299714982942D-02  9.0598842249083D-01
    21  2.0000000000000D-01 -7.4743856942239D-02  9.4496411478325D-01
    22  2.1000000000000D-01 -7.4668798898743D-02  9.8266186764622D-01
    23  2.2000000000000D-01 -7.4052332616530D-02  1.0190328984525D+00
    24  2.3000000000000D-01 -7.2872872508417D-02  1.0540305280201D+00
    25  2.4000000000000D-01 -7.1109500766544D-02  1.0876102553855D+00
    26  2.5000000000000D-01 -6.8742014010706D-02  1.1197298291700D+00
    27  2.6000000000000D-01 -6.5750971386865D-02  1.1503493154160D+00
    28  2.7000000000000D-01 -6.2117744033263D-02  1.1794311617722D+00
    29  2.8000000000000D-01 -5.7824565816105D-02  1.2069402579133D+00
    30  2.9000000000000D-01 -5.2854585221627D-02  1.2328439920813D+00
    31  3.0000000000000D-01 -4.7191918276151D-02  1.2571123036434D+00
    32  3.1000000000000D-01 -4.0821702350813D-02  1.2797177315628D+00
    33  3.2000000000000D-01 -3.3730150692943D-02  1.3006354586867D+00
    34  3.3000000000000D-01 -2.5904607511754D-02  1.3198433517593D+00
    35  3.4000000000000D-01 -1.7333603432026D-02  1.3373219970723D+00
    36  3.5000000000000D-01 -8.0069111160906D-03  1.3530547316731D+00
    37  3.6000000000000D-01  2.0843991584769D-03  1.3670276700542D+00
    38  3.7000000000000D-01  1.2947904190087D-02  1.3792297262552D+00
    39  3.8000000000000D-01  2.4589773049613D-02  1.3896526313130D+00
    40  3.9000000000000D-01  3.7014713028743D-02  1.3982909460033D+00
    41  4.0000000000000D-01  5.0225916596875D-02  1.4051420688228D+00
    42  4.1000000000000D-01  6.4225009631711D-02  1.4102062391677D+00
    43  4.2000000000000D-01  7.9012001196650D-02  1.4134865356708D+00
    44  4.3000000000000D-01  9.4585235144588D-02  1.4149888696676D+00
    45  4.4000000000000D-01  1.1094134383313D-01  1.4147219737682D+00
    46  4.5000000000000D-01  1.2807520424059D-01  1.4126973855182D+00
    47  4.6000000000000D-01  1.4597989677485D-01  1.4089294261429D+00
    48  4.7000000000000D-01  1.6464666706900D-01  1.4034351743716D+00
    49  4.8000000000000D-01  1.8406489105746D-01  1.3962344353528D+00
    50  4.9000000000000D-01  2.0422204362557D-01  1.3873497046739D+00
    51  5.0000000000000D-01  2.2510367112211D-01  1.3768061275116D+00
    52  5.1000000000000D-01  2.4669336802091D-01  1.3646314529449D+00
    53  5.2000000000000D-01  2.6897275801091D-01  1.3508559834722D+00
    54  5.3000000000000D-01  2.9192147978755D-01  1.3355125197847D+00
    55  5.4000000000000D-01  3.1551717780883D-01  1.3186363008539D+00
    56  5.5000000000000D-01  3.3973549826905D-01  1.3002649394030D+00
    57  5.6000000000000D-01  3.6455009053145D-01  1.2804383528409D+00
    58  5.7000000000000D-01  3.8993261424673D-01  1.2591986897455D+00
    59  5.8000000000000D-01  4.1585275236984D-01  1.2365902519938D+00
    60  5.9000000000000D-01  4.4227823027024D-01  1.2126594126468D+00
    61  6.0000000000000D-01  4.6917484111292D-01  1.1874545297041D+00
    62  6.1000000000000D-01  4.9650647766753D-01  1.1610258558559D+00
    63  6.2000000000000D-01  5.2423517068229D-01  1.1334254443684D+00
    64  6.3000000000000D-01  5.5232113393641D-01  1.1047070512484D+00
    65  6.4000000000000D-01  5.8072281606153D-01  1.0749260338426D+00
    66  6.5000000000000D-01  6.0939695919764D-01  1.0441392460387D+00
    67  6.6000000000000D-01  6.3829866452273D-01  1.0124049302410D+00
    68  6.7000000000000D-01  6.6738146466873D-01  9.7978260630822D-01
    69  6.8000000000000D-01  6.9659740300806D-01  9.4633295764555D-01
    70  6.9000000000000D-01  7.2589711976637D-01  9.1211771465573D-01
    71  7.0000000000000D-01  7.5522994488759D-01  8.7719953576122D-01
    72  7.1000000000000D-01  7.8454399754718D-01  8.4164188621932D-01
    73  7.2000000000000D-01  8.1378629217909D-01  8.0550891495989D-01
    74  7.3000000000000D-01  8.4290285085053D-01  7.6886532968442D-01
    75  7.4000000000000D-01  8.7183882178814D-01  7.3177627047233D-01
    76  7.5000000000000D-01  9.0053860382736D-01  6.9430718214857D-01
    77  7.6000000000000D-01  9.2894597652595D-01  6.5652368567333D-01
    78  7.7000000000000D-01  9.5700423565158D-01  6.1849144882158D-01
    79  7.8000000000000D-01  9.8465633372286D-01  5.8027605642619D-01
    80  7.9000000000000D-01  1.0118450252531D+00  5.4194288046409D-01
    81  8.0000000000000D-01  1.0385130163166D+00  5.0355695027016D-01
    82  8.1000000000000D-01  1.0646031180293D+00  4.6518282316777D-01
    83  8.2000000000000D-01  1.0900584035068D+00  4.2688445580889D-01
    84  8.3000000000000D-01  1.1148223678376D+00  3.8872507651993D-01
    85  8.4000000000000D-01  1.1388390905837D+00  3.5076705895167D-01
    86  8.5000000000000D-01  1.1620534002968D+00  3.1307179733372D-01
    87  8.6000000000000D-01  1.1844110405157D+00  2.7569958363448D-01
    88  8.7000000000000D-01  1.2058588366917D+00  2.3870948692810D-01
    89  8.8000000000000D-01  1.2263448634678D+00  2.0215923526903D-01
    90  8.9000000000000D-01  1.2458186117225D+00  1.6610510037331D-01
    91  9.0000000000000D-01  1.2642311547736D+00  1.3060178540324D-01
    92  9.1000000000000D-01  1.2815353131252D+00  9.5702316149023D-02
    93  9.2000000000000D-01  1.2976858171306D+00  6.1457935896544D-02
    94  9.3000000000000D-01  1.3126394669367D+00  2.7918004265445D-02
    95  9.4000000000000D-01  1.3263552890686D+00 -4.8700997043301D-03
    96  9.5000000000000D-01  1.3387946890131D+00 -3.6861069946348D-02
    97  9.6000000000000D-01  1.3499215991564D+00 -6.8011760978527D-02
    98  9.7000000000000D-01  1.3597026214354D+00 -9.8281270476452D-02
    99  9.8000000000000D-01  1.3681071640682D+00 -1.2763101656449D-01
   100  9.9000000000000D-01  1.3751075717346D+00 -1.5602480959026D-01
   101  1.0000000000000D+00  1.3806792485902D+00 -1.8342891815988D-01
   102  1.0100000000000D+00  1.3848007735099D+00 -2.0981212922375D-01
   103  1.0200000000000D+00  1.3874540069730D+00 -2.3514580201547D-01
   104  1.0300000000000D+00  1.3886241890210D+00 -2.5940391566100D-01
   105  1.0400000000000D+00  1.3883000277397D+00 -2.8256311028977D-01
   106  1.0500000000000D+00  1.3864737777420D+00 -3.0460272149485D-01
   107  1.0600000000000D+00  1.3831413081533D+00 -3.2550480800549D-01
   108  1.0700000000000D+00  1.3783021596319D+00 -3.4525417245282D-01
   109  1.0800000000000D+00  1.3719595899852D+00 -3.6383837512614D-01
   110  1.0900000000000D+00  1.3641206079799D+00 -3.8124774063644D-01
   111  1.1000000000000D+00  1.3547959949752D+00 -3.9747535742102D-01
   112  1.1100000000000D+00  1.3440003140490D+00 -4.1251707004259D-01
   113  1.1200000000000D+00  1.3317519063251D+00 -4.2637146425627D-01
   114  1.1300000000000D+00  1.3180728742505D+00 -4.3903984483694D-01
   115  1.1400000000000D+00  1.3029890516164D+00 -4.5052620617993D-01
   116  1.1500000000000D+00  1.2865299601524D+00 -4.6083719570554D-01
   117  1.1600000000000D+00  1.2687287525805D+00 -4.6998207012229D-01
   118  1.1700000000000D+00  1.2496221420527D+00 -4.7797264462157D-01
   119  1.1800000000000D+00  1.2292503179458D+00 -4.8482323509623D-01
   120  1.1900000000000D+00  1.2076568480284D+00 -4.9055059349484D-01
   121  1.2000000000000D+00  1.1848885670733D+00 -4.9517383644631D-01
   122  1.2100000000000D+00  1.1609954520339D+00 -4.9871436730904D-01
   123  1.2200000000000D+00  1.1360304839320D+00 -5.0119579180959D-01
   124  1.2300000000000D+00  1.1100494966801D+00 -5.0264382746652D-01
   125  1.2400000000000D+00  1.0831110130948D+00 -5.0308620700780D-01
   126  1.2500000000000D+00  1.0552760683934D+00 -5.0255257600311D-01
   127  1.2600000000000D+00  1.0266080215248D+00 -5.0107438495581D-01
   128  1.2700000000000D+00  9.9717235473445D-01 -4.9868477611603D-01
   129  1.2800000000000D+00  9.6703646178280D-01 -4.9541846528410D-01
   130  1.2900000000000D+00  9.3626942529342D-01 -4.9131161889322D-01
   131  1.3000000000000D+00  9.0494178375677D-01 -4.8640172667793D-01
   132  1.3100000000000D+00  8.7312528872038D-01 -4.8072747023556D-01
   133  1.3200000000000D+00  8.4089265275593D-01 -4.7432858780889D-01
   134  1.3300000000000D+00  8.0831728883400D-01 -4.6724573562911D-01
   135  1.3400000000000D+00  7.7547304172635D-01 -4.5952034615593D-01
   136  1.3500000000000D+00  7.4243391212918D-01 -4.5119448357349D-01
   137  1.3600000000000D+00  7.0927377420722D-01 -4.4231069689984D-01
   138  1.3700000000000D+00  6.7606608725622D-01 -4.3291187107014D-01
   139  1.3800000000000D+00  6.4288360225030D-01 -4.2304107636765D-01
   140  1.3900000000000D+00  6.0979806400809D-01 -4.1274141656790D-01
   141  1.4000000000000D+00  5.7687990975038D-01 -4.0205587617244D-01
   142  1.4100000000000D+00  5.4419796482766D-01 -3.9102716709942D-01
   143  1.4200000000000D+00  5.1181913639072D-01 -3.7969757520669D-01
   144  1.4300000000000D+00  4.7980810579710D-01 -3.6810880701166D-01
   145  1.4400000000000D+00  4.4822702052387D-01 -3.5630183696957D-01
   146  1.4500000000000D+00  4.1713518638590D-01 -3.4431675567970D-01
   147  1.4600000000000D+00  3.8658876079591D-01 -3.3219261934800D-01
   148  1.4700000000000D+00  3.5664044787513D-01 -3.1996730088199D-01
   149  1.4800000000000D+00  3.2733919611144D-01 -3.0767734291874D-01
   150  1.4900000000000D+00  2.9872989933027D-01 -2.9535781313386D-01
   151  1.5000000000000D+00  2.7085309657266D-01 -2.8304216083683D-01
   152  1.5100000000000D+00  2.4374470702687D-01 -2.7076208416851D-01
   153  1.5200000000000D+00  2.1743566129097D-01 -2.5854737234378D-01
   154  1.5300000000000D+00  1.9195188074617D-01 -2.4642584068621D-01
   155  1.5400000000000D+00  1.6731359161416D-01 -2.3442309282762D-01
   156  1.5500000000000D+00  1.4353496883955D-01 -2.2256237674119D-01
   157  1.5600000000000D+00  1.2062579450104D-01 -2.1086494606934D-01
   158  1.5700000000000D+00  9.8592676815016D-02 -1.9935033198482D-01
   159  1.5800000000000D+00  7.7440698875352D-02 -1.8803676355293D-01
   160  1.5900000000000D+00  5.7174186038113D-02 -1.7694136578762D-01
   161  1.6000000000000D+00  3.7796073193448D-02 -1.6608001606673D-01
   162  1.6100000000000D+00  1.9307929112085D-02 -1.5546736428805D-01
   163  1.6200000000000D+00  1.7099901829762D-03 -1.4511685386515D-01
   164  1.6300000000000D+00 -1.4998891937622D-02 -1.3504072388135D-01
   165  1.6400000000000D+00 -3.0821261042829D-02 -1.2525002201768D-01
   166  1.6500000000000D+00 -4.5761072904989D-02 -1.1575461689927D-01
   167  1.6600000000000D+00 -5.9823702450576D-02 -1.0656321353513D-01
   168  1.6700000000000D+00 -7.3015944438534D-02 -9.7683371138649D-02
   169  1.6800000000000D+00 -8.5346007984347D-02 -8.9121523191369D-02
   170  1.6900000000000D+00 -9.6823504760163D-02 -8.0882999779467D-02
   171  1.7000000000000D+00 -1.0745943129143D-01 -7.2972052039888D-02
   172  1.7100000000000D+00 -1.1726614521136D-01 -6.5391878735327D-02
   173  1.7200000000000D+00 -1.2625733594176D-01 -5.8144654779547D-02
   174  1.7300000000000D+00 -1.3444798971816D-01 -5.1231561713511D-02
   175  1.7400000000000D+00 -1.4185434947080D-01 -4.4652819941018D-02
   176  1.7500000000000D+00 -1.4849386949839D-01 -3.8407722715824D-02
   177  1.7600000000000D+00 -1.5438516538335D-01 -3.2494671708890D-02
   178  1.7700000000000D+00 -1.5954795943123D-01 -2.6911214041676D-02
   179  1.7800000000000D+00 -1.6400302205582D-01 -2.1654080624716D-02
   180  1.7900000000000D+00 -1.6777210894831D-01 -1.6719225815195D-02
   181  1.8000000000000D+00 -1.7087789456515D-01 -1.2101868200568D-02
   182  1.8100000000000D+00 -1.7334390248315D-01 -7.7965323117998D-03
   183  1.8200000000000D+00 -1.7519443279283D-01 -3.7970911832188D-03
   184  1.8300000000000D+00 -1.7645448695640D-01 -9.6809594271648D-05
   185  1.8400000000000D+00 -1.7714969070289D-01  3.3116122135640D-03
   186  1.8500000000000D+00 -1.7730621503408D-01  6.4359943914174D-03
   187  1.8600000000000D+00 -1.7695069504479D-01  9.2846328610604D-03
   188  1.8700000000000D+00 -1.7611014769307D-01  1.1866254575941D-02
   189  1.8800000000000D+00 -1.7481188926851D-01  1.4189972938391D-02
   190  1.8900000000000D+00 -1.7308345212827D-01  1.6265243249816D-02
   191  1.9000000000000D+00 -1.7095250161003D-01  1.8101818525507D-02
   192  1.9100000000000D+00 -1.6844675327644D-01  1.9709705723364D-02
   193  1.9200000000000D+00 -1.6559389068241D-01  2.1099122485256D-02
   194  1.9300000000000D+00 -1.6242148400556D-01  2.2280454514101D-02
   195  1.9400000000000D+00 -1.5895691002258D-01  2.3264213750323D-02
   196  1.9500000000000D+00 -1.5522727403371D-01  2.4060997577597D-02
   197  1.9600000000000D+00 -1.5125933347790D-01  2.4681448958394D-02
   198  1.9700000000000D+00 -1.4707942408414D-01  2.5136217831849D-02
   199  1.9800000000000D+00 -1.4271338834654D-01  2.5435923670913D-02
   200  1.9900000000000D+00 -1.3818650705473D-01  2.5591119484132D-02
   201  2.0000000000000D+00 -1.3352343387716D-01  2.5612257253257D-02
   202  2.0100000000000D+00 -1.2874813319966D-01  2.5509654878541D-02
   203  2.0200000000000D+00 -1.2388382185020D-01  2.5293464870968D-02
   204  2.0300000000000D+00 -1.1895291417236D-01  2.4973644577135D-02
   205  2.0400000000000D+00 -1.1397697159183D-01  2.4559928371859D-02
   206  2.0500000000000D+00 -1.0897665595560D-01  2.4061801536773D-02
   207  2.0600000000000D+00 -1.0397168733065D-01  2.3488476082074D-02
   208  2.0700000000000D+00 -9.8980806414364D-02  2.2848868564375D-02
   209  2.0800000000000D+00 -9.4021741011505D-02  2.2151579689151D-02
   210  2.0900000000000D+00 -8.9111177814266D-02  2.1404876160459D-02
   211  2.1000000000000D+00 -8.4264738284701D-02  2.0616674320599D-02
   212  2.1100000000000D+00 -7.9496959606225D-02  1.9794525938680D-02
   213  2.1200000000000D+00 -7.4821280484084D-02  1.8945606060857D-02
   214  2.1300000000000D+00 -7.0250031216005D-02  1.8076702701454D-02
   215  2.1400000000000D+00 -6.5794429239750D-02  1.7194208820598D-02
   216  2.1500000000000D+00 -6.1464578726202D-02  1.6304116050730D-02
   217  2.1600000000000D+00 -5.7269475112042D-02  1.5412010499791D-02
   218  2.1700000000000D+00 -5.3217014359854D-02  1.4523070547491D-02
   219  2.1800000000000D+00 -4.9314006014429D-02  1.3642066285625D-02
   220  2.1900000000000D+00 -4.5566191403806D-02  1.2773361095562D-02
   221  2.2000000000000D+00 -4.1978265407051D-02  1.1920914776010D-02
   222  2.2100000000000D+00 -3.8553902335363D-02  1.1088288417540D-02
   223  2.2200000000000D+00 -3.5295785975020D-02  1.0278651036315D-02
   224  2.2300000000000D+00 -3.2205642679794D-02  9.4947875541173D-03
   225  2.2400000000000D+00 -2.9284278373911D-02  8.7391084341892D-03
   226  2.2500000000000D+00 -2.6531618579875D-02  8.0136606437911D-03
   227  2.2600000000000D+00 -2.3946751114638D-02  7.3201398083045D-03
   228  2.2700000000000D+00 -2.1527971958777D-02  6.6599037336919D-03
   229  2.2800000000000D+00 -1.9272833162687D-02  6.0339868797981D-03
   230  2.2900000000000D+00 -1.7178192993263D-02  5.4431158513693D-03
   231  2.3000000000000D+00 -1.5240268090583D-02  4.8877258163295D-03
   232  2.3100000000000D+00 -1.3454686983565D-02  4.3679776124739D-03
   233  2.3200000000000D+00 -1.1816545025739D-02  3.8837755539234D-03
   234  2.3300000000000D+00 -1.0320460281216D-02  3.4347857632931D-03
   235  2.3400000000000D+00 -8.9606300960019D-03  3.0204549316905D-03
   236  2.3500000000000D+00 -7.7308880055831D-03  2.6400293640321D-03
   237  2.3600000000000D+00 -6.6247607598311D-03  2.2925742342525D-03
   238  2.3700000000000D+00 -5.6355252261934D-03  1.9769929565304D-03
   239  2.3800000000000D+00 -4.7562645091282D-03  1.6920464184032D-03
   240  2.3900000000000D+00 -3.9799235411525D-03  1.4363721753243D-03
   241  2.4000000000000D+00 -3.2993635599354D-03  1.2085033825017D-03
   242  2.4100000000000D+00 -2.7074148706630D-03  1.0068872362656D-03
   243  2.4200000000000D+00 -2.1969285014839D-03  8.2990315329448D-04
   244  2.4300000000000D+00 -1.7608256838844D-03  6.7588028418921D-04
   245  2.4400000000000D+00 -1.3921448970091D-03  5.4311426219499D-04
   246  2.4500000000000D+00 -1.0840873022333D-03  4.2988349462232D-04
   247  2.4600000000000D+00 -8.3005895806123D-04  3.3446439290943D-04
   248  2.4700000000000D+00 -6.2371008515467D-04  2.5514564041335D-04
   249  2.4800000000000D+00 -4.5897230673370D-04  1.9024184074065D-04
   250  2.4900000000000D+00 -3.3009173589163D-04  1.3810575111067D-04
   251  2.5000000000000D+00 -2.3168210575735D-04  9.7138065009052D-05
   252  2.5100000000000D+00 -1.5867007688318D-04  6.5802593285526D-05
   253  2.5200000000000D+00 -1.0638897716123D-04  4.2630827076963D-05
   254  2.5300000000000D+00 -7.0422659959508D-05  2.6206191804335D-05
   255  2.5400000000000D+00 -4.7312631109798D-05  1.5248396094908D-05
   256  2.5500000000000D+00 -3.3944795955568D-05  8.5516157165571D-06
   257  2.5600000000000D+00 -2.8035542969373D-05  5.0926422585747D-06
   258  2.5700000000000D+00 -2.5725979828203D-05  3.6247830499641D-06
   259  2.5800000000000D+00 -2.3559787489952D-05  3.0440212287995D-06
   260  2.5900000000000D+00 -1.8151972080272D-05  2.3374572393974D-06
   261  2.6000000000000D+00 -1.0360840377303D-05  1.3604789073054D-06
   262  2.6100000000000D+00 -2.6914975838379D-06  3.6380178957466D-07
   263  2.6200000000000D+00  1.6392326803924D-06 -2.0108509843795D-07
   264  2.6300000000000D+00  2.2896042229122D-06 -2.8183814879812D-07
   265  2.6400000000000D+00  1.0297473237067D-06 -1.2737129049361D-07
   266  2.6500000000000D+00 -2.5656817020273D-07  2.8737634907501D-08
   267  2.6600000000000D+00 -5.1137536105042D-07  5.6836690147039D-08
   268  2.6700000000000D+00 -3.1171073198748D-07  3.4418884662607D-08
   269  2.6800000000000D+00  1.8904052637155D-08 -2.4422265875398D-09
   270  2.6900000000000D+00  6.1794548748638D-08 -7.9832770684486D-09
   271  2.7000000000000D+00  4.8817318697557D-08 -6.3067404616324D-09
   272  2.7100000000000D+00  0.0000000000000D+00  0.0000000000000D+00
   273  2.7200000000000D+00  0.0000000000000D+00  0.0000000000000D+00
   274  2.7300000000000D+00  0.0000000000000D+00  0.0000000000000D+00
   275  2.7400000000000D+00  0.0000000000000D+00  0.0000000000000D+00
   276  2.7500000000000D+00  0.0000000000000D+00  0.0000000000000D+00
   277  2.7600000000000D+00  0.0000000000000D+00  0.0000000000000D+00
   278  2.7700000000000D+00  0.0000000000000D+00  0.0000000000000D+00
   279  2.7800000000000D+00  0.0000000000000D+00  0.0000000000000D+00
   280  2.7900000000000D+00  0.0000000000000D+00  0.0000000000000D+00
   281  2.8000000000000D+00  0.0000000000000D+00  0.0000000000000D+00
   282  2.8100000000000D+00  0.0000000000000D+00  0.0000000000000D+00
   283  2.8200000000000D+00  0.0000000000000D+00  0.0000000000000D+00
   284  2.8300000000000D+00  0.0000000000000D+00  0.0000000000000D+00
   285  2.8400000000000D+00  0.0000000000000D+00  0.0000000000000D+00
   286  2.8500000000000D+00  0.0000000000000D+00  0.0000000000000D+00
   287  2.8600000000000D+00  0.0000000000000D+00  0.0000000000000D+00
   288  2.8700000000000D+00  0.0000000000000D+00  0.0000000000000D+00
   289  2.8800000000000D+00  0.0000000000000D+00  0.0000000000000D+00
   290  2.8900000000000D+00  0.0000000000000D+00  0.0000000000000D+00
   291  2.9000000000000D+00  0.0000000000000D+00  0.0000000000000D+00
   292  2.9100000000000D+00  0.0000000000000D+00  0.0000000000000D+00
   293  2.9200000000000D+00  0.0000000000000D+00  0.0000000000000D+00
   294  2.9300000000000D+00  0.0000000000000D+00  0.0000000000000D+00
   295  2.9400000000000D+00  0.0000000000000D+00  0.0000000000000D+00
   296  2.9500000000000D+00  0.0000000000000D+00  0.0000000000000D+00
   297  2.9600000000000D+00  0.0000000000000D+00  0.0000000000000D+00
   298  2.9700000000000D+00  0.0000000000000D+00  0.0000000000000D+00
   299  2.9800000000000D+00  0.0000000000000D+00  0.0000000000000D+00
   300  2.9900000000000D+00  0.0000000000000D+00  0.0000000000000D+00
   301  3.0000000000000D+00  0.0000000000000D+00  0.0000000000000D+00
   302  3.0100000000000D+00  0.0000000000000D+00  0.0000000000000D+00
   303  3.0200000000000D+00  0.0000000000000D+00  0.0000000000000D+00
   304  3.0300000000000D+00  0.0000000000000D+00  0.0000000000000D+00
   305  3.0400000000000D+00  0.0000000000000D+00  0.0000000000000D+00
   306  3.0500000000000D+00  0.0000000000000D+00  0.0000000000000D+00
   307  3.0600000000000D+00  0.0000000000000D+00  0.0000000000000D+00
   308  3.0700000000000D+00  0.0000000000000D+00  0.0000000000000D+00
   309  3.0800000000000D+00  0.0000000000000D+00  0.0000000000000D+00
   310  3.0900000000000D+00  0.0000000000000D+00  0.0000000000000D+00
   311  3.1000000000000D+00  0.0000000000000D+00  0.0000000000000D+00
   312  3.1100000000000D+00  0.0000000000000D+00  0.0000000000000D+00
   313  3.1200000000000D+00  0.0000000000000D+00  0.0000000000000D+00
   314  3.1300000000000D+00  0.0000000000000D+00  0.0000000000000D+00
   315  3.1400000000000D+00  0.0000000000000D+00  0.0000000000000D+00
   316  3.1500000000000D+00  0.0000000000000D+00  0.0000000000000D+00
   317  3.1600000000000D+00  0.0000000000000D+00  0.0000000000000D+00
   318  3.1700000000000D+00  0.0000000000000D+00  0.0000000000000D+00
   319  3.1800000000000D+00  0.0000000000000D+00  0.0000000000000D+00
   320  3.1900000000000D+00  0.0000000000000D+00  0.0000000000000D+00
   321  3.2000000000000D+00  0.0000000000000D+00  0.0000000000000D+00
   322  3.2100000000000D+00  0.0000000000000D+00  0.0000000000000D+00
   323  3.2200000000000D+00  0.0000000000000D+00  0.0000000000000D+00
   324  3.2300000000000D+00  0.0000000000000D+00  0.0000000000000D+00
   325  3.2400000000000D+00  0.0000000000000D+00  0.0000000000000D+00
   326  3.2500000000000D+00  0.0000000000000D+00  0.0000000000000D+00
   327  3.2600000000000D+00  0.0000000000000D+00  0.0000000000000D+00
   328  3.2700000000000D+00  0.0000000000000D+00  0.0000000000000D+00
   329  3.2800000000000D+00  0.0000000000000D+00  0.0000000000000D+00
   330  3.2900000000000D+00  0.0000000000000D+00  0.0000000000000D+00
   331  3.3000000000000D+00  0.0000000000000D+00  0.0000000000000D+00
   332  3.3100000000000D+00  0.0000000000000D+00  0.0000000000000D+00
   333  3.3200000000000D+00  0.0000000000000D+00  0.0000000000000D+00
   334  3.3300000000000D+00  0.0000000000000D+00  0.0000000000000D+00
   335  3.3400000000000D+00  0.0000000000000D+00  0.0000000000000D+00
   336  3.3500000000000D+00  0.0000000000000D+00  0.0000000000000D+00
   337  3.3600000000000D+00  0.0000000000000D+00  0.0000000000000D+00
   338  3.3700000000000D+00  0.0000000000000D+00  0.0000000000000D+00
   339  3.3800000000000D+00  0.0000000000000D+00  0.0000000000000D+00
   340  3.3900000000000D+00  0.0000000000000D+00  0.0000000000000D+00
   341  3.4000000000000D+00  0.0000000000000D+00  0.0000000000000D+00
   342  3.4100000000000D+00  0.0000000000000D+00  0.0000000000000D+00
   343  3.4200000000000D+00  0.0000000000000D+00  0.0000000000000D+00
   344  3.4300000000000D+00  0.0000000000000D+00  0.0000000000000D+00
   345  3.4400000000000D+00  0.0000000000000D+00  0.0000000000000D+00
   346  3.4500000000000D+00  0.0000000000000D+00  0.0000000000000D+00
   347  3.4600000000000D+00  0.0000000000000D+00  0.0000000000000D+00
   348  3.4700000000000D+00  0.0000000000000D+00  0.0000000000000D+00
   349  3.4800000000000D+00  0.0000000000000D+00  0.0000000000000D+00
   350  3.4900000000000D+00  0.0000000000000D+00  0.0000000000000D+00
   351  3.5000000000000D+00  0.0000000000000D+00  0.0000000000000D+00
   352  3.5100000000000D+00  0.0000000000000D+00  0.0000000000000D+00
   353  3.5200000000000D+00  0.0000000000000D+00  0.0000000000000D+00
   354  3.5300000000000D+00  0.0000000000000D+00  0.0000000000000D+00
   355  3.5400000000000D+00  0.0000000000000D+00  0.0000000000000D+00
   356  3.5500000000000D+00  0.0000000000000D+00  0.0000000000000D+00
   357  3.5600000000000D+00  0.0000000000000D+00  0.0000000000000D+00
   358  3.5700000000000D+00  0.0000000000000D+00  0.0000000000000D+00
   359  3.5800000000000D+00  0.0000000000000D+00  0.0000000000000D+00
   360  3.5900000000000D+00  0.0000000000000D+00  0.0000000000000D+00
   361  3.6000000000000D+00  0.0000000000000D+00  0.0000000000000D+00
   362  3.6100000000000D+00  0.0000000000000D+00  0.0000000000000D+00
   363  3.6200000000000D+00  0.0000000000000D+00  0.0000000000000D+00
   364  3.6300000000000D+00  0.0000000000000D+00  0.0000000000000D+00
   365  3.6400000000000D+00  0.0000000000000D+00  0.0000000000000D+00
   366  3.6500000000000D+00  0.0000000000000D+00  0.0000000000000D+00
   367  3.6600000000000D+00  0.0000000000000D+00  0.0000000000000D+00
   368  3.6700000000000D+00  0.0000000000000D+00  0.0000000000000D+00
   369  3.6800000000000D+00  0.0000000000000D+00  0.0000000000000D+00
   370  3.6900000000000D+00  0.0000000000000D+00  0.0000000000000D+00
   371  3.7000000000000D+00  0.0000000000000D+00  0.0000000000000D+00
   372  3.7100000000000D+00  0.0000000000000D+00  0.0000000000000D+00
   373  3.7200000000000D+00  0.0000000000000D+00  0.0000000000000D+00
   374  3.7300000000000D+00  0.0000000000000D+00  0.0000000000000D+00
   375  3.7400000000000D+00  0.0000000000000D+00  0.0000000000000D+00
   376  3.7500000000000D+00  0.0000000000000D+00  0.0000000000000D+00
   377  3.7600000000000D+00  0.0000000000000D+00  0.0000000000000D+00
   378  3.7700000000000D+00  0.0000000000000D+00  0.0000000000000D+00
   379  3.7800000000000D+00  0.0000000000000D+00  0.0000000000000D+00
   380  3.7900000000000D+00  0.0000000000000D+00  0.0000000000000D+00
   381  3.8000000000000D+00  0.0000000000000D+00  0.0000000000000D+00
   382  3.8100000000000D+00  0.0000000000000D+00  0.0000000000000D+00
   383  3.8200000000000D+00  0.0000000000000D+00  0.0000000000000D+00
   384  3.8300000000000D+00  0.0000000000000D+00  0.0000000000000D+00
   385  3.8400000000000D+00  0.0000000000000D+00  0.0000000000000D+00
   386  3.8500000000000D+00  0.0000000000000D+00  0.0000000000000D+00
   387  3.8600000000000D+00  0.0000000000000D+00  0.0000000000000D+00
   388  3.8700000000000D+00  0.0000000000000D+00  0.0000000000000D+00
   389  3.8800000000000D+00  0.0000000000000D+00  0.0000000000000D+00
   390  3.8900000000000D+00  0.0000000000000D+00  0.0000000000000D+00
   391  3.9000000000000D+00  0.0000000000000D+00  0.0000000000000D+00
   392  3.9100000000000D+00  0.0000000000000D+00  0.0000000000000D+00
   393  3.9200000000000D+00  0.0000000000000D+00  0.0000000000000D+00
   394  3.9300000000000D+00  0.0000000000000D+00  0.0000000000000D+00
   395  3.9400000000000D+00  0.0000000000000D+00  0.0000000000000D+00
   396  3.9500000000000D+00  0.0000000000000D+00  0.0000000000000D+00
   397  3.9600000000000D+00  0.0000000000000D+00  0.0000000000000D+00
   398  3.9700000000000D+00  0.0000000000000D+00  0.0000000000000D+00
   399  3.9800000000000D+00  0.0000000000000D+00  0.0000000000000D+00
   400  3.9900000000000D+00  0.0000000000000D+00  0.0000000000000D+00
   401  4.0000000000000D+00  0.0000000000000D+00  0.0000000000000D+00
   402  4.0100000000000D+00  0.0000000000000D+00  0.0000000000000D+00
   403  4.0200000000000D+00  0.0000000000000D+00  0.0000000000000D+00
   404  4.0300000000000D+00  0.0000000000000D+00  0.0000000000000D+00
   405  4.0400000000000D+00  0.0000000000000D+00  0.0000000000000D+00
   406  4.0500000000000D+00  0.0000000000000D+00  0.0000000000000D+00
   407  4.0600000000000D+00  0.0000000000000D+00  0.0000000000000D+00
   408  4.0700000000000D+00  0.0000000000000D+00  0.0000000000000D+00
   409  4.0800000000000D+00  0.0000000000000D+00  0.0000000000000D+00
   410  4.0900000000000D+00  0.0000000000000D+00  0.0000000000000D+00
   411  4.1000000000000D+00  0.0000000000000D+00  0.0000000000000D+00
   412  4.1100000000000D+00  0.0000000000000D+00  0.0000000000000D+00
   413  4.1200000000000D+00  0.0000000000000D+00  0.0000000000000D+00
   414  4.1300000000000D+00  0.0000000000000D+00  0.0000000000000D+00
   415  4.1400000000000D+00  0.0000000000000D+00  0.0000000000000D+00
   416  4.1500000000000D+00  0.0000000000000D+00  0.0000000000000D+00
   417  4.1600000000000D+00  0.0000000000000D+00  0.0000000000000D+00
   418  4.1700000000000D+00  0.0000000000000D+00  0.0000000000000D+00
   419  4.1800000000000D+00  0.0000000000000D+00  0.0000000000000D+00
   420  4.1900000000000D+00  0.0000000000000D+00  0.0000000000000D+00
   421  4.2000000000000D+00  0.0000000000000D+00  0.0000000000000D+00
   422  4.2100000000000D+00  0.0000000000000D+00  0.0000000000000D+00