Ru    ONCVPSP-3.3.1  r_core=   2.58325   2.55262   2.61425
     44.0000     16.0000      210905    zatom,zion,pspd
     8 -116133   2     4   600     0    pspcod,pspxc,lmax,lloc,mmax,r2well
  5.99000000  0.00000000  0.00000000    rchrg fchrg qchrg
     2     2     2     0     0    nproj
     1     1           extension_switch
   0                         4.1000049118782D+00  7.6166991130562D-01
     1  0.0000000000000D+00 -7.3935302324912D-13 -3.8446329453379D-12
     2  1.0000000000000D-02  5.1852436550707D-02 -5.5232697890143D-03
     3  2.0000000000000D-02  1.0363365686040D-01 -1.1019015245242D-02
     4  3.0000000000000D-02  1.5527255720090D-01 -1.6459732973639D-02
     5  4.0000000000000D-02  2.0669825869966D-01 -2.1817961594380D-02
     6  5.0000000000000D-02  2.5784021934253D-01 -2.7066303098863D-02
     7  6.0000000000000D-02  3.0862834546714D-01 -3.2177444621071D-02
     8  7.0000000000000D-02  3.5899310257778D-01 -3.7124180758266D-02
     9  8.0000000000000D-02  4.0886562531370D-01 -4.1879436571158D-02
    10  9.0000000000000D-02  4.5817782640338D-01 -4.6416291388927D-02
    11  1.0000000000000D-01  5.0686250443877D-01 -5.0708003538807D-02
    12  1.1000000000000D-01  5.5485345030449D-01 -5.4728036113413D-02
    13  1.2000000000000D-01  6.0208555209855D-01 -5.8450083881486D-02
    14  1.3000000000000D-01  6.4849489838300D-01 -6.1848101439574D-02
    15  1.4000000000000D-01  6.9401887960433D-01 -6.4896332692996D-02
    16  1.5000000000000D-01  7.3859628752593D-01 -6.7569341744651D-02
    17  1.6000000000000D-01  7.8216741251679D-01 -6.9842045259616D-02
    18  1.7000000000000D-01  8.2467413854301D-01 -7.1689746362259D-02
    19  1.8000000000000D-01  8.6606003571151D-01 -7.3088170110580D-02
    20  1.9000000000000D-01  9.0627045021760D-01 -7.4013500580097D-02
    21  2.0000000000000D-01  9.4525259155141D-01 -7.4442419576406D-02
    22  2.1000000000000D-01  9.8295561682088D-01 -7.4352146982071D-02
    23  2.2000000000000D-01  1.0193307120525D+00 -7.3720482729459D-02
    24  2.3000000000000D-01  1.0543311703345D+00 -7.2525850376757D-02
    25  2.4000000000000D-01  1.0879124666698D+00 -7.0747342249729D-02
    26  2.5000000000000D-01  1.1200323294117D+00 -6.8364766096868D-02
    27  2.6000000000000D-01  1.1506508081577D+00 -6.5358693190379D-02
    28  2.7000000000000D-01  1.1797303379799D+00 -6.1710507790319D-02
    29  2.8000000000000D-01  1.2072357998791D+00 -5.7402457873834D-02
    30  2.9000000000000D-01  1.2331345773480D+00 -5.2417707016316D-02
    31  3.0000000000000D-01  1.2573966089389D+00 -4.6740387296021D-02
    32  3.1000000000000D-01  1.2799944367333D+00 -4.0355653078955D-02
    33  3.2000000000000D-01  1.3009032506157D+00 -3.3249735525919D-02
    34  3.3000000000000D-01  1.3201009282609D+00 -2.5409997649489D-02
    35  3.4000000000000D-01  1.3375680707479D+00 -1.6824989734648D-02
    36  3.5000000000000D-01  1.3532880337183D+00 -7.4845049234731D-03
    37  3.6000000000000D-01  1.3672469540063D+00  2.6203652486230D-03
    38  3.7000000000000D-01  1.3794337716690D+00  1.3497175589680D-02
    39  3.8000000000000D-01  1.3898402473537D+00  2.5152072497086D-02
    40  3.9000000000000D-01  1.3984609749474D+00  3.7589739959223D-02
    41  4.0000000000000D-01  1.4052933894547D+00  5.0813346569227D-02
    42  4.1000000000000D-01  1.4103377700636D+00  6.4824493816020D-02
    43  4.2000000000000D-01  1.4135972383598D+00  7.9623165925391D-02
    44  4.3000000000000D-01  1.4150777516604D+00  9.5207681530609D-02
    45  4.4000000000000D-01  1.4147880914452D+00  1.1157464745738D-01
    46  4.5000000000000D-01  1.4127398468691D+00  1.2871891491233D-01
    47  4.6000000000000D-01  1.4089473933483D+00  1.4663353836678D-01
    48  4.7000000000000D-01  1.4034278662221D+00  1.6530973742961D-01
    49  4.8000000000000D-01  1.3962011294962D+00  1.8473686200263D-01
    50  4.9000000000000D-01  1.3872897396863D+00  2.0490236101103D-01
    51  5.0000000000000D-01  1.3767189047853D+00  2.2579175499861D-01
    52  5.1000000000000D-01  1.3645164383893D+00  2.4738861287294D-01
    53  5.2000000000000D-01  1.3507127090231D+00  2.6967453308030D-01
    54  5.3000000000000D-01  1.3353405847172D+00  2.9262912948245D-01
    55  5.4000000000000D-01  1.3184353728973D+00  3.1623002219854D-01
    56  5.5000000000000D-01  1.3000347556540D+00  3.4045283366500D-01
    57  5.6000000000000D-01  1.2801787204738D+00  3.6527119015394D-01
    58  5.7000000000000D-01  1.2589094865178D+00  3.9065672897732D-01
    59  5.8000000000000D-01  1.2362714265470D+00  4.1657911158837D-01
    60  5.9000000000000D-01  1.2123109846023D+00  4.4300604277586D-01
    61  6.0000000000000D-01  1.1870765895545D+00  4.6990329612753D-01
    62  6.1000000000000D-01  1.1606185646537D+00  4.9723474592036D-01
    63  6.2000000000000D-01  1.1329890332137D+00  5.2496240557368D-01
    64  6.3000000000000D-01  1.1042418205777D+00  5.5304647277868D-01
    65  6.4000000000000D-01  1.0744323525229D+00  5.8144538139476D-01
    66  6.5000000000000D-01  1.0436175502692D+00  6.1011586017752D-01
    67  6.6000000000000D-01  1.0118557222686D+00  6.3901299837785D-01
    68  6.7000000000000D-01  9.7920645295994D-01  6.6809031822406D-01
    69  6.8000000000000D-01  9.4573048868423D-01  6.9729985427131D-01
    70  6.9000000000000D-01  9.1148962096469D-01  7.2659223957374D-01
    71  7.0000000000000D-01  8.7654656736445D-01  7.5591679860500D-01
    72  7.1000000000000D-01  8.4096485014386D-01  7.8522164682315D-01
    73  7.2000000000000D-01  8.0480867294804D-01  8.1445379674489D-01
    74  7.3000000000000D-01  7.6814279576331D-01  8.4355927036346D-01
    75  7.4000000000000D-01  7.3103240838915D-01  8.7248321771321D-01
    76  7.5000000000000D-01  6.9354300267996D-01  9.0117004135276D-01
    77  7.6000000000000D-01  6.5574024381778D-01  9.2956352650751D-01
    78  7.7000000000000D-01  6.1768984088398D-01  9.5760697658116D-01
    79  7.8000000000000D-01  5.7945741700399D-01  9.8524335371564D-01
    80  7.9000000000000D-01  5.4110837934481D-01  1.0124154240486D+00
    81  8.0000000000000D-01  5.0270778924996D-01  1.0390659072881D+00
    82  8.1000000000000D-01  4.6432023280128D-01  1.0651376301964D+00
    83  8.2000000000000D-01  4.2600969210045D-01  1.0905736835454D+00
    84  8.3000000000000D-01  3.8783941756649D-01  1.1153175820826D+00
    85  8.4000000000000D-01  3.4987180154774D-01  1.1393134270181D+00
    86  8.5000000000000D-01  3.1216825354877D-01  1.1625060705223D+00
    87  8.6000000000000D-01  2.7478907737319D-01  1.1848412816989D+00
    88  8.7000000000000D-01  2.3779335048382D-01  1.2062659134807D+00
    89  8.8000000000000D-01  2.0123880588078D-01  1.2267280698741D+00
    90  8.9000000000000D-01  1.6518171679643D-01  1.2461772729618D+00
    91  9.0000000000000D-01  1.2967678450394D-01  1.2645646290616D+00
    92  9.1000000000000D-01  9.4777029532567D-02  1.2818429934218D+00
    93  9.2000000000000D-01  6.0533686578921D-02  1.2979671328285D+00
    94  9.3000000000000D-01  2.6996103397960D-02  1.3128938854884D+00
    95  9.4000000000000D-01 -5.7883560482598D-03  1.3265823175477D+00
    96  9.5000000000000D-01 -3.7774403913212D-02  1.3389938756046D+00
    97  9.6000000000000D-01 -6.8918915996905D-02  1.3500925345714D+00
    98  9.7000000000000D-01 -9.9181014230985D-02  1.3598449402461D+00
    99  9.8000000000000D-01 -1.2852214387366D-01  1.3682205459583D+00
   100  9.9000000000000D-01 -1.5690614518034D-01  1.3751917426613D+00
   101  1.0000000000000D+00 -1.8429931932785D-01  1.3807339818539D+00
   102  1.0100000000000D+00 -2.1067048838231D-01  1.3848258907275D+00
   103  1.0200000000000D+00 -2.3599104911382D-01  1.3874493789514D+00
   104  1.0300000000000D+00 -2.6023502047540D-01  1.3885897365274D+00
   105  1.0400000000000D+00 -2.8337908457836D-01  1.3882357221656D+00
   106  1.0500000000000D+00 -3.0540262101184D-01  1.3863796416576D+00
   107  1.0600000000000D+00 -3.2628773437003D-01  1.3830174157504D+00
   108  1.0700000000000D+00 -3.4601927486857D-01  1.3781486370513D+00
   109  1.0800000000000D+00 -3.6458485194800D-01  1.3717766155280D+00
   110  1.0900000000000D+00 -3.8197484078135D-01  1.3639084121995D+00
   111  1.1000000000000D+00 -3.9818238162033D-01  1.3545548606486D+00
   112  1.1100000000000D+00 -4.1320337193382D-01  1.3437305760255D+00
   113  1.1200000000000D+00 -4.2703645131292D-01  1.3314539512515D+00
   114  1.1300000000000D+00 -4.3968297913509D-01  1.3177471401712D+00
   115  1.1400000000000D+00 -4.5114700500125D-01  1.3026360274475D+00
   116  1.1500000000000D+00 -4.6143523197649D-01  1.2861501850299D+00
   117  1.1600000000000D+00 -4.7055697269008D-01  1.2683228150803D+00
   118  1.1700000000000D+00 -4.7852409836767D-01  1.2491906792842D+00
   119  1.1800000000000D+00 -4.8535098088878D-01  1.2287940145175D+00
   120  1.1900000000000D+00 -4.9105442798185D-01  1.2071764348867D+00
   121  1.2000000000000D+00 -4.9565361169178D-01  1.1843848202137D+00
   122  1.2100000000000D+00 -4.9916999027474D-01  1.1604691910861D+00
   123  1.2200000000000D+00 -5.0162722368548D-01  1.1354825706191D+00
   124  1.2300000000000D+00 -5.0305108285332D-01  1.1094808331528D+00
   125  1.2400000000000D+00 -5.0346935295547D-01  1.0825225401414D+00
   126  1.2500000000000D+00 -5.0291173090949D-01  1.0546687635278D+00
   127  1.2600000000000D+00 -5.0140971732973D-01  1.0259828969519D+00
   128  1.2700000000000D+00 -4.9899650320988D-01  9.9653045519615D-01
   129  1.2800000000000D+00 -4.9570685160073D-01  9.6637886228559D-01
   130  1.2900000000000D+00 -4.9157697457272D-01  9.3559722871876D-01
   131  1.3000000000000D+00 -4.8664440576963D-01  9.0425611835668D-01
   132  1.3100000000000D+00 -4.8094786886115D-01  8.7242730549966D-01
   133  1.3200000000000D+00 -4.7452714222264D-01  8.4018352274327D-01
   134  1.3300000000000D+00 -4.6742292018121D-01  8.0759820024375D-01
   135  1.3400000000000D+00 -4.5967667116531D-01  7.7474519701317D-01
   136  1.3500000000000D+00 -4.5133049311639D-01  7.4169852493760D-01
   137  1.3600000000000D+00 -4.4242696652073D-01  7.0853206621834D-01
   138  1.3700000000000D+00 -4.3300900542138D-01  6.7531928493359D-01
   139  1.3800000000000D+00 -4.2311970678452D-01  6.4213293348738D-01
   140  1.3900000000000D+00 -4.1280219858554D-01  6.0904475467931D-01
   141  1.4000000000000D+00 -4.0209948699130D-01  5.7612518016817D-01
   142  1.4100000000000D+00 -3.9105430300576D-01  5.4344302610743D-01
   143  1.4200000000000D+00 -3.7970894895455D-01  5.1106518672622D-01
   144  1.4300000000000D+00 -3.6810514517280D-01  4.7905632664807D-01
   145  1.4400000000000D+00 -3.5628387725757D-01  4.4747857271822D-01
   146  1.4500000000000D+00 -3.4428524425455D-01  4.1639120613849D-01
   147  1.4600000000000D+00 -3.3214830810712D-01  3.8585035564587D-01
   148  1.4700000000000D+00 -3.1991094474360D-01  3.5590869254378D-01
   149  1.4800000000000D+00 -3.0760969710340D-01  3.2661512828264D-01
   150  1.4900000000000D+00 -2.9527963044961D-01  2.9801451535505D-01
   151  1.5000000000000D+00 -2.8295418897138D-01  2.7014734709185D-01
   152  1.5100000000000D+00 -2.7066506300503D-01  2.4304949256161D-01
   153  1.5200000000000D+00 -2.5844203126453D-01  2.1675182763117D-01
   154  1.5300000000000D+00 -2.4631289599556D-01  1.9128021467250D-01
   155  1.5400000000000D+00 -2.3430324505017D-01  1.6665481591058D-01
   156  1.5500000000000D+00 -2.2243630791551D-01  1.4288973707519D-01
   157  1.5600000000000D+00 -2.1073331779764D-01  1.1999468881949D-01
   158  1.5700000000000D+00 -1.9921378406331D-01  9.7976207927254D-02
   159  1.5800000000000D+00 -1.8789591332521D-01  7.6839308757953D-02
   160  1.5900000000000D+00 -1.7679680788751D-01  5.6588251921199D-02
   161  1.6000000000000D+00 -1.6593232201622D-01  3.7225910540399D-02
   162  1.6100000000000D+00 -1.5531708219341D-01  1.8753794641707D-02
   163  1.6200000000000D+00 -1.4496450821018D-01  1.1720849468970D-03
   164  1.6300000000000D+00 -1.3488681538021D-01 -1.5520419580764D-02
   165  1.6400000000000D+00 -1.2509502753775D-01 -3.1326312499471D-02
   166  1.6500000000000D+00 -1.1559898944701D-01 -4.6249596486707D-02
   167  1.6600000000000D+00 -1.0640738230328D-01 -6.0295690578636D-02
   168  1.6700000000000D+00 -9.7527741612128D-02 -7.3471430914196D-02
   169  1.6800000000000D+00 -8.8966477309143D-02 -8.5785065326148D-02
   170  1.6900000000000D+00 -8.0728896149656D-02 -9.7246241609201D-02
   171  1.7000000000000D+00 -7.2819226205365D-02 -1.0786598988568D-01
   172  1.7100000000000D+00 -6.5240643487023D-02 -1.1765669892981D-01
   173  1.7200000000000D+00 -5.7995300514746D-02 -1.2663208691923D-01
   174  1.7300000000000D+00 -5.1084356836303D-02 -1.3480716653127D-01
   175  1.7400000000000D+00 -4.4508011301927D-02 -1.4219820489687D-01
   176  1.7500000000000D+00 -3.8265536088212D-02 -1.4882267834611D-01
   177  1.7600000000000D+00 -3.2355312299849D-02 -1.5469922239426D-01
   178  1.7700000000000D+00 -2.6774867033399D-02 -1.5984757725667D-01
   179  1.7800000000000D+00 -2.1520911743438D-02 -1.6428852931019D-01
   180  1.7900000000000D+00 -1.6589381925828D-02 -1.6804384833599D-01
   181  1.8000000000000D+00 -1.1975477923681D-02 -1.7113622108337D-01
   182  1.8100000000000D+00 -7.6737066615208D-03 -1.7358918169686D-01
   183  1.8200000000000D+00 -3.6779242255556D-03 -1.7542703917460D-01
   184  1.8300000000000D+00  1.8620878569380D-05 -1.7667480229756D-01
   185  1.8400000000000D+00  3.4232439986319D-03 -1.7735810260655D-01
   186  1.8500000000000D+00  6.5437801812102D-03 -1.7750311548506D-01
   187  1.8600000000000D+00  9.3885395427135D-03 -1.7713647905479D-01
   188  1.8700000000000D+00  1.1966262527948D-02 -1.7628521202820D-01
   189  1.8800000000000D+00  1.4286075321286D-02 -1.7497663123957D-01
   190  1.8900000000000D+00  1.6357445293658D-02 -1.7323826844525D-01
   191  1.9000000000000D+00  1.8190136819046D-02 -1.7109778730925D-01
   192  1.9100000000000D+00  1.9794167506204D-02 -1.6858290071731D-01
   193  1.9200000000000D+00  2.1179764945090D-02 -1.6572128861315D-01
   194  1.9300000000000D+00  2.2357324091389D-02 -1.6254051669844D-01
   195  1.9400000000000D+00  2.3337365452024D-02 -1.5906795647722D-01
   196  1.9500000000000D+00  2.4130494300467D-02 -1.5533070724331D-01
   197  1.9600000000000D+00  2.4747360823539D-02 -1.5135551975773D-01
   198  1.9700000000000D+00  2.5198621532617D-02 -1.4716872246258D-01
   199  1.9800000000000D+00  2.5494901835084D-02 -1.4279615001610D-01
   200  1.9900000000000D+00  2.5646760051628D-02 -1.3826307488105D-01
   201  2.0000000000000D+00  2.5664652870453D-02 -1.3359414196429D-01
   202  2.0100000000000D+00  2.5558902310200D-02 -1.2881330650957D-01
   203  2.0200000000000D+00  2.5339664430680D-02 -1.2394377587437D-01
   204  2.0300000000000D+00  2.5016899577093D-02 -1.1900795465367D-01
   205  2.0400000000000D+00  2.4600344592628D-02 -1.1402739429416D-01
   206  2.0500000000000D+00  2.4099486717712D-02 -1.0902274647929D-01
   207  2.0600000000000D+00  2.3523539432917D-02 -1.0401372097139D-01
   208  2.0700000000000D+00  2.2881420298378D-02 -9.9019048063242D-02
   209  2.0800000000000D+00  2.2181730578244D-02 -9.4056445094181D-02
   210  2.0900000000000D+00  2.1432737112575D-02 -8.9142588266658D-02
   211  2.1000000000000D+00  2.0642355979481D-02 -8.4293088563229D-02
   212  2.1100000000000D+00  1.9818138306251D-02 -7.9522472730227D-02
   213  2.1200000000000D+00  1.8967258142195D-02 -7.4844169108171D-02
   214  2.1300000000000D+00  1.8096502172486D-02 -7.0270497730355D-02
   215  2.1400000000000D+00  1.7212261718304D-02 -6.5812665895978D-02
   216  2.1500000000000D+00  1.6320526485882D-02 -6.1480767786927D-02
   217  2.1600000000000D+00  1.5426880392011D-02 -5.7283789022043D-02
   218  2.1700000000000D+00  1.4536499382383D-02 -5.3229615936839D-02
   219  2.1800000000000D+00  1.3654150893835D-02 -4.9325048657637D-02
   220  2.1900000000000D+00  1.2784195453350D-02 -4.5575819318503D-02
   221  2.2000000000000D+00  1.1930589827072D-02 -4.1986613843259D-02
   222  2.2100000000000D+00  1.1096891915719D-02 -3.8561097839152D-02
   223  2.2200000000000D+00  1.0286267408724D-02 -3.5301946650752D-02
   224  2.2300000000000D+00  9.5014977843419D-03 -3.2210878461834D-02
   225  2.2400000000000D+00  8.7449899650230D-03 -2.9288691306391D-02
   226  2.2500000000000D+00  8.0187872990390D-03 -2.6535303103161D-02
   227  2.2600000000000D+00  7.3245817331846D-03 -2.3949794357212D-02
   228  2.2700000000000D+00  6.6637273532152D-03 -2.1530454033404D-02
   229  2.2800000000000D+00  6.0372548746355D-03 -1.9274827465707D-02
   230  2.2900000000000D+00  5.4458871506078D-03 -1.7179766505981D-02
   231  2.3000000000000D+00  4.8900556064878D-03 -1.5241481681852D-02
   232  2.3100000000000D+00  4.3699173622256D-03 -1.3455595712561D-02
   233  2.3200000000000D+00  3.8853730538454D-03 -1.1817198444202D-02
   234  2.3300000000000D+00  3.4360851799997D-03 -1.0320902734387D-02
   235  2.3400000000000D+00  3.0214968757544D-03 -8.9609010214500D-03
   236  2.3500000000000D+00  2.6408509709413D-03 -7.7310222294489D-03
   237  2.3600000000000D+00  2.2932092577735D-03 -6.6247887898041D-03
   238  2.3700000000000D+00  1.9774718738139D-03 -5.6354735406678D-03
   239  2.3800000000000D+00  1.6923965460665D-03 -4.7561558421853D-03
   240  2.3900000000000D+00  1.4366177958716D-03 -3.9797771628407D-03
   241  2.4000000000000D+00  1.2086658803711D-03 -3.2991955514854D-03
   242  2.4100000000000D+00  1.0069852427423D-03 -2.7072383943837D-03
   243  2.4200000000000D+00  8.2995269964621D-04 -2.1967540649556D-03
   244  2.4300000000000D+00  6.7589496227845D-04 -1.7606613982497D-03
   245  2.4400000000000D+00  5.4310539182729D-04 -1.3919967291994D-03
   246  2.4500000000000D+00  4.2986029698579D-04 -1.0839593208737D-03
   247  2.4600000000000D+00  3.3443416934599D-04 -8.2995357299375D-04
   248  2.4700000000000D+00  2.5511395580716D-04 -6.2362828049951D-04
   249  2.4800000000000D+00  1.9021271088698D-04 -4.5891386734222D-04
   250  2.4900000000000D+00  1.3808183330893D-04 -3.3005546725162D-04
   251  2.5000000000000D+00  9.7120878095509D-05 -2.3166612407558D-04
   252  2.5100000000000D+00  6.5792644841950D-05 -1.5867182231043D-04
   253  2.5200000000000D+00  4.2627823876592D-05 -1.0640545462544D-04
   254  2.5300000000000D+00  2.6209130518341D-05 -7.0450247168176D-05
   255  2.5400000000000D+00  1.5256162307363D-05 -4.7348623738731D-05
   256  2.5500000000000D+00  8.5631137619360D-06 -3.3987354049500D-05
   257  2.5600000000000D+00  5.1071453838124D-06 -2.8084510532414D-05
   258  2.5700000000000D+00  3.6408661863088D-06 -2.5778579095934D-05
   259  2.5800000000000D+00  3.0595797070285D-06 -2.3610372864217D-05
   260  2.5900000000000D+00  2.3495319249793D-06 -1.8191245812453D-05
   261  2.6000000000000D+00  1.3673281098845D-06 -1.0383149470218D-05
   262  2.6100000000000D+00  3.6555925756532D-07 -2.6972363253946D-06
   263  2.6200000000000D+00 -2.0220395346823D-07  1.6428478737968D-06
   264  2.6300000000000D+00 -2.8339958527288D-07  2.2946475147688D-06
   265  2.6400000000000D+00 -1.2807238699965D-07  1.0320113438897D-06
   266  2.6500000000000D+00  2.8919234254710D-08 -2.5715370429311D-07
   267  2.6600000000000D+00  5.7199816136244D-08 -5.1254568696338D-07
   268  2.6700000000000D+00  3.4640830826709D-08 -3.1242578729338D-07
   269  2.6800000000000D+00 -2.4547430432936D-09  1.8944783448556D-08
   270  2.6900000000000D+00 -8.0241915088643D-09  6.1927691739667D-08
   271  2.7000000000000D+00 -6.3390626213950D-09  4.8922500852893D-08
   272  2.7100000000000D+00  0.0000000000000D+00  0.0000000000000D+00
   273  2.7200000000000D+00  0.0000000000000D+00  0.0000000000000D+00
   274  2.7300000000000D+00  0.0000000000000D+00  0.0000000000000D+00
   275  2.7400000000000D+00  0.0000000000000D+00  0.0000000000000D+00
   276  2.7500000000000D+00  0.0000000000000D+00  0.0000000000000D+00
   277  2.7600000000000D+00  0.0000000000000D+00  0.0000000000000D+00
   278  2.7700000000000D+00  0.0000000000000D+00  0.0000000000000D+00
   279  2.7800000000000D+00  0.0000000000000D+00  0.0000000000000D+00
   280  2.7900000000000D+00  0.0000000000000D+00  0.0000000000000D+00
   281  2.8000000000000D+00  0.0000000000000D+00  0.0000000000000D+00
   282  2.8100000000000D+00  0.0000000000000D+00  0.0000000000000D+00
   283  2.8200000000000D+00  0.0000000000000D+00  0.0000000000000D+00
   284  2.8300000000000D+00  0.0000000000000D+00  0.0000000000000D+00
   285  2.8400000000000D+00  0.0000000000000D+00  0.0000000000000D+00
   286  2.8500000000000D+00  0.0000000000000D+00  0.0000000000000D+00
   287  2.8600000000000D+00  0.0000000000000D+00  0.0000000000000D+00
   288  2.8700000000000D+00  0.0000000000000D+00  0.0000000000000D+00
   289  2.8800000000000D+00  0.0000000000000D+00  0.0000000000000D+00
   290  2.8900000000000D+00  0.0000000000000D+00  0.0000000000000D+00
   291  2.9000000000000D+00  0.0000000000000D+00  0.0000000000000D+00
   292  2.9100000000000D+00  0.0000000000000D+00  0.0000000000000D+00
   293  2.9200000000000D+00  0.0000000000000D+00  0.0000000000000D+00
   294  2.9300000000000D+00  0.0000000000000D+00  0.0000000000000D+00
   295  2.9400000000000D+00  0.0000000000000D+00  0.0000000000000D+00
   296  2.9500000000000D+00  0.0000000000000D+00  0.0000000000000D+00
   297  2.9600000000000D+00  0.0000000000000D+00  0.0000000000000D+00
   298  2.9700000000000D+00  0.0000000000000D+00  0.0000000000000D+00
   299  2.9800000000000D+00  0.0000000000000D+00  0.0000000000000D+00
   300  2.9900000000000D+00  0.0000000000000D+00  0.0000000000000D+00
   301  3.0000000000000D+00  0.0000000000000D+00  0.0000000000000D+00
   302  3.0100000000000D+00  0.0000000000000D+00  0.0000000000000D+00
   303  3.0200000000000D+00  0.0000000000000D+00  0.0000000000000D+00
   304  3.0300000000000D+00  0.0000000000000D+00  0.0000000000000D+00
   305  3.0400000000000D+00  0.0000000000000D+00  0.0000000000000D+00
   306  3.0500000000000D+00  0.0000000000000D+00  0.0000000000000D+00
   307  3.0600000000000D+00  0.0000000000000D+00  0.0000000000000D+00
   308  3.0700000000000D+00  0.0000000000000D+00  0.0000000000000D+00
   309  3.0800000000000D+00  0.0000000000000D+00  0.0000000000000D+00
   310  3.0900000000000D+00  0.0000000000000D+00  0.0000000000000D+00
   311  3.1000000000000D+00  0.0000000000000D+00  0.0000000000000D+00
   312  3.1100000000000D+00  0.0000000000000D+00  0.0000000000000D+00
   313  3.1200000000000D+00  0.0000000000000D+00  0.0000000000000D+00
   314  3.1300000000000D+00  0.0000000000000D+00  0.0000000000000D+00
   315  3.1400000000000D+00  0.0000000000000D+00  0.0000000000000D+00
   316  3.1500000000000D+00  0.0000000000000D+00  0.0000000000000D+00
   317  3.1600000000000D+00  0.0000000000000D+00  0.0000000000000D+00
   318  3.1700000000000D+00  0.0000000000000D+00  0.0000000000000D+00
   319  3.1800000000000D+00  0.0000000000000D+00  0.0000000000000D+00
   320  3.1900000000000D+00  0.0000000000000D+00  0.0000000000000D+00
   321  3.2000000000000D+00  0.0000000000000D+00  0.0000000000000D+00
   322  3.2100000000000D+00  0.0000000000000D+00  0.0000000000000D+00
   323  3.2200000000000D+00  0.0000000000000D+00  0.0000000000000D+00
   324  3.2300000000000D+00  0.0000000000000D+00  0.0000000000000D+00
   325  3.2400000000000D+00  0.0000000000000D+00  0.0000000000000D+00
   326  3.2500000000000D+00  0.0000000000000D+00  0.0000000000000D+00
   327  3.2600000000000D+00  0.0000000000000D+00  0.0000000000000D+00
   328  3.2700000000000D+00  0.0000000000000D+00  0.0000000000000D+00
   329  3.2800000000000D+00  0.0000000000000D+00  0.0000000000000D+00
   330  3.2900000000000D+00  0.0000000000000D+00  0.0000000000000D+00
   331  3.3000000000000D+00  0.0000000000000D+00  0.0000000000000D+00
   332  3.3100000000000D+00  0.0000000000000D+00  0.0000000000000D+00
   333  3.3200000000000D+00  0.0000000000000D+00  0.0000000000000D+00
   334  3.3300000000000D+00  0.0000000000000D+00  0.0000000000000D+00
   335  3.3400000000000D+00  0.0000000000000D+00  0.0000000000000D+00
   336  3.3500000000000D+00  0.0000000000000D+00  0.0000000000000D+00
   337  3.3600000000000D+00  0.0000000000000D+00  0.0000000000000D+00
   338  3.3700000000000D+00  0.0000000000000D+00  0.0000000000000D+00
   339  3.3800000000000D+00  0.0000000000000D+00  0.0000000000000D+00
   340  3.3900000000000D+00  0.0000000000000D+00  0.0000000000000D+00
   341  3.4000000000000D+00  0.0000000000000D+00  0.0000000000000D+00
   342  3.4100000000000D+00  0.0000000000000D+00  0.0000000000000D+00
   343  3.4200000000000D+00  0.0000000000000D+00  0.0000000000000D+00
   344  3.4300000000000D+00  0.0000000000000D+00  0.0000000000000D+00
   345  3.4400000000000D+00  0.0000000000000D+00  0.0000000000000D+00
   346  3.4500000000000D+00  0.0000000000000D+00  0.0000000000000D+00
   347  3.4600000000000D+00  0.0000000000000D+00  0.0000000000000D+00
   348  3.4700000000000D+00  0.0000000000000D+00  0.0000000000000D+00
   349  3.4800000000000D+00  0.0000000000000D+00  0.0000000000000D+00
   350  3.4900000000000D+00  0.0000000000000D+00  0.0000000000000D+00
   351  3.5000000000000D+00  0.0000000000000D+00  0.0000000000000D+00
   352  3.5100000000000D+00  0.0000000000000D+00  0.0000000000000D+00
   353  3.5200000000000D+00  0.0000000000000D+00  0.0000000000000D+00
   354  3.5300000000000D+00  0.0000000000000D+00  0.0000000000000D+00
   355  3.5400000000000D+00  0.0000000000000D+00  0.0000000000000D+00
   356  3.5500000000000D+00  0.0000000000000D+00  0.0000000000000D+00
   357  3.5600000000000D+00  0.0000000000000D+00  0.0000000000000D+00
   358  3.5700000000000D+00  0.0000000000000D+00  0.0000000000000D+00
   359  3.5800000000000D+00  0.0000000000000D+00  0.0000000000000D+00
   360  3.5900000000000D+00  0.0000000000000D+00  0.0000000000000D+00
   361  3.6000000000000D+00  0.0000000000000D+00  0.0000000000000D+00
   362  3.6100000000000D+00  0.0000000000000D+00  0.0000000000000D+00
   363  3.6200000000000D+00  0.0000000000000D+00  0.0000000000000D+00
   364  3.6300000000000D+00  0.0000000000000D+00  0.0000000000000D+00
   365  3.6400000000000D+00  0.0000000000000D+00  0.0000000000000D+00
   366  3.6500000000000D+00  0.0000000000000D+00  0.0000000000000D+00
   367  3.6600000000000D+00  0.0000000000000D+00  0.0000000000000D+00
   368  3.6700000000000D+00  0.0000000000000D+00  0.0000000000000D+00
   369  3.6800000000000D+00  0.0000000000000D+00  0.0000000000000D+00
   370  3.6900000000000D+00  0.0000000000000D+00  0.0000000000000D+00
   371  3.7000000000000D+00  0.0000000000000D+00  0.0000000000000D+00
   372  3.7100000000000D+00  0.0000000000000D+00  0.0000000000000D+00
   373  3.7200000000000D+00  0.0000000000000D+00  0.0000000000000D+00
   374  3.7300000000000D+00  0.0000000000000D+00  0.0000000000000D+00
   375  3.7400000000000D+00  0.0000000000000D+00  0.0000000000000D+00
   376  3.7500000000000D+00  0.0000000000000D+00  0.0000000000000D+00
   377  3.7600000000000D+00  0.0000000000000D+00  0.0000000000000D+00
   378  3.7700000000000D+00  0.0000000000000D+00  0.0000000000000D+00
   379  3.7800000000000D+00  0.0000000000000D+00  0.0000000000000D+00
   380  3.7900000000000D+00  0.0000000000000D+00  0.0000000000000D+00
   381  3.8000000000000D+00  0.0000000000000D+00  0.0000000000000D+00
   382  3.8100000000000D+00  0.0000000000000D+00  0.0000000000000D+00
   383  3.8200000000000D+00  0.0000000000000D+00  0.0000000000000D+00
   384  3.8300000000000D+00  0.0000000000000D+00  0.0000000000000D+00
   385  3.8400000000000D+00  0.0000000000000D+00  0.0000000000000D+00
   386  3.8500000000000D+00  0.0000000000000D+00  0.0000000000000D+00
   387  3.8600000000000D+00  0.0000000000000D+00  0.0000000000000D+00
   388  3.8700000000000D+00  0.0000000000000D+00  0.0000000000000D+00
   389  3.8800000000000D+00  0.0000000000000D+00  0.0000000000000D+00
   390  3.8900000000000D+00  0.0000000000000D+00  0.0000000000000D+00
   391  3.9000000000000D+00  0.0000000000000D+00  0.0000000000000D+00
   392  3.9100000000000D+00  0.0000000000000D+00  0.0000000000000D+00
   393  3.9200000000000D+00  0.0000000000000D+00  0.0000000000000D+00
   394  3.9300000000000D+00  0.0000000000000D+00  0.0000000000000D+00
   395  3.9400000000000D+00  0.0000000000000D+00  0.0000000000000D+00
   396  3.9500000000000D+00  0.0000000000000D+00  0.0000000000000D+00
   397  3.9600000000000D+00  0.0000000000000D+00  0.0000000000000D+00
   398  3.9700000000000D+00  0.0000000000000D+00  0.0000000000000D+00
   399  3.9800000000000D+00  0.0000000000000D+00  0.0000000000000D+00
   400  3.9900000000000D+00  0.0000000000000D+00  0.0000000000000D+00
   401  4.0000000000000D+00  0.0000000000000D+00  0.0000000000000D+00
   402  4.0100000000000D+00  0.0000000000000D+00  0.0000000000000D+00
   403  4.0200000000000D+00  0.0000000000000D+00  0.0000000000000D+00
   404  4.0300000000000D+00  0.0000000000000D+00  0.0000000000000D+00
   405  4.0400000000000D+00  0.0000000000000D+00  0.0000000000000D+00
   406  4.0500000000000D+00  0.0000000000000D+00  0.0000000000000D+00
   407  4.0600000000000D+00  0.0000000000000D+00  0.0000000000000D+00
   408  4.0700000000000D+00  0.0000000000000D+00  0.0000000000000D+00
   409  4.0800000000000D+00  0.0000000000000D+00  0.0000000000000D+00
   410  4.0900000000000D+00  0.0000000000000D+00  0.0000000000000D+00
   411  4.1000000000000D+00  0.0000000000000D+00  0.0000000000000D+00
   412  4.1100000000000D+00  0.0000000000000D+00  0.0000000000000D+00
   413  4.1200000000000D+00  0.0000000000000D+00  0.0000000000000D+00
   414  4.1300000000000D+00  0.0000000000000D+00  0.0000000000000D+00
   415  4.1400000000000D+00  0.0000000000000D+00  0.0000000000000D+00
   416  4.1500000000000D+00  0.0000000000000D+00  0.0000000000000D+00
   417  4.1600000000000D+00  0.0000000000000D+00  0.0000000000000D+00
   418  4.1700000000000D+00  0.0000000000000D+00  0.0000000000000D+00
   419  4.1800000000000D+00  0.0000000000000D+00  0.0000000000000D+00
   420  4.1900000000000D+00  0.0000000000000D+00  0.0000000000000D+00
   421  4.2000000000000D+00  0.0000000000000D+00  0.0000000000000D+00
   422  4.2100000000000D+00  0.0000000000000D+00  0.0000000000000D+00