S     ONCVPSP-3.3.1  r_core=   2.12945   1.52480
     16.0000      6.0000      210905    zatom,zion,pspd
     8 -116133   1     4   600     0    pspcod,pspxc,lmax,lloc,mmax,r2well
  5.99000000  0.00000000  0.00000000    rchrg fchrg qchrg
     2     3     0     0    nproj
     3     1           extension_switch
     4     0     0    nprojso
   0                         6.7324763501681D-01  1.0241014657358D+01
     1  0.0000000000000D+00 -1.8827644998609D-10  9.0119911533293D-11
     2  1.0000000000000D-02 -2.7774365991051D-02  3.8157109343682D-02
     3  2.0000000000000D-02 -5.5519257365904D-02  7.6323761155946D-02
     4  3.0000000000000D-02 -8.3204762537252D-02  1.1450910127136D-01
     5  4.0000000000000D-02 -1.1080010157231D-01  1.5272148555746D-01
     6  5.0000000000000D-02 -1.3827320596418D-01  1.9096809316083D-01
     7  6.0000000000000D-02 -1.6559031500249D-01  2.2925454956477D-01
     8  7.0000000000000D-02 -1.9271559405488D-01  2.6758456262312D-01
     9  8.0000000000000D-02 -2.1961077988261D-01  3.0595957464442D-01
    10  9.0000000000000D-02 -2.4623485788085D-01  3.4437843348939D-01
    11  1.0000000000000D-01 -2.7254377585813D-01  3.8283708551211D-01
    12  1.1000000000000D-01 -2.9849019865234D-01  4.2132829302304D-01
    13  1.2000000000000D-01 -3.2402330752371D-01  4.5984137878066D-01
    14  1.3000000000000D-01 -3.4908864787238D-01  4.9836199982920D-01
    15  1.4000000000000D-01 -3.7362802840001D-01  5.3687195279387D-01
    16  1.5000000000000D-01 -3.9757947437647D-01  5.7534901252331D-01
    17  1.6000000000000D-01 -4.2087723718527D-01  6.1376680573320D-01
    18  1.7000000000000D-01 -4.4345186180983D-01  6.5209472105687D-01
    19  1.8000000000000D-01 -4.6523031338912D-01  6.9029785664886D-01
    20  1.9000000000000D-01 -4.8613616342119D-01  7.2833700621889D-01
    21  2.0000000000000D-01 -5.0608983562807D-01  7.6616868409672D-01
    22  2.1000000000000D-01 -5.2500891092233D-01  8.0374518964596D-01
    23  2.2000000000000D-01 -5.4280849033588D-01  8.4101471105793D-01
    24  2.3000000000000D-01 -5.5940161419165D-01  8.7792146826763D-01
    25  2.4000000000000D-01 -5.7469973522101D-01  9.1440589444420D-01
    26  2.5000000000000D-01 -5.8861324276148D-01  9.5040485522017D-01
    27  2.6000000000000D-01 -6.0105203461038D-01  9.8585190453870D-01
    28  2.7000000000000D-01 -6.1192613257093D-01  1.0206775757187D+00
    29  2.8000000000000D-01 -6.2114633720597D-01  1.0548097060650D+00
    30  2.9000000000000D-01 -6.2862491682133D-01  1.0881737930864D+00
    31  3.0000000000000D-01 -6.3427632523521D-01  1.1206933801333D+00
    32  3.1000000000000D-01 -6.3801794245920D-01  1.1522904690234D+00
    33  3.2000000000000D-01 -6.3977083202441D-01  1.1828859570000D+00
    34  3.3000000000000D-01 -6.3946050833352D-01  1.2124000951561D+00
    35  3.4000000000000D-01 -6.3701770711604D-01  1.2407529652626D+00
    36  3.5000000000000D-01 -6.3237915180617D-01  1.2678649717680D+00
    37  3.6000000000000D-01 -6.2548830845978D-01  1.2936573455779D+00
    38  3.7000000000000D-01 -6.1629612167821D-01  1.3180526560945D+00
    39  3.8000000000000D-01 -6.0476172391672D-01  1.3409753278804D+00
    40  3.9000000000000D-01 -5.9085311052594D-01  1.3623521582297D+00
    41  4.0000000000000D-01 -5.7454777290804D-01  1.3821128318604D+00
    42  4.1000000000000D-01 -5.5583328226739D-01  1.4001904289102D+00
    43  4.2000000000000D-01 -5.3470781659954D-01  1.4165219224010D+00
    44  4.3000000000000D-01 -5.1118062379335D-01  1.4310486613543D+00
    45  4.4000000000000D-01 -4.8527241401994D-01  1.4437168357792D+00
    46  4.5000000000000D-01 -4.5701567494876D-01  1.4544779198207D+00
    47  4.6000000000000D-01 -4.2645490376529D-01  1.4632890894520D+00
    48  4.7000000000000D-01 -3.9364675046642D-01  1.4701136112110D+00
    49  4.8000000000000D-01 -3.5866006747728D-01  1.4749211986289D+00
    50  4.9000000000000D-01 -3.2157586126477D-01  1.4776883331707D+00
    51  5.0000000000000D-01 -2.8248714231815D-01  1.4783985467017D+00
    52  5.1000000000000D-01 -2.4149867062184D-01  1.4770426627148D+00
    53  5.2000000000000D-01 -1.9872659455776D-01  1.4736189937984D+00
    54  5.3000000000000D-01 -1.5429798204167D-01  1.4681334930878D+00
    55  5.4000000000000D-01 -1.0835024361501D-01  1.4605998577301D+00
    56  5.5000000000000D-01 -6.1030448177816D-02  1.4510395826986D+00
    57  5.6000000000000D-01 -1.2494533055783D-02  1.4394819636161D+00
    58  5.7000000000000D-01  3.7093588863874D-02  1.4259640475847D+00
    59  5.8000000000000D-01  8.7563021112201D-02  1.4105305313773D+00
    60  5.9000000000000D-01  1.3873696981998D-01  1.3932336067100D+00
    61  6.0000000000000D-01  1.9043391805464D-01  1.3741327526954D+00
    62  6.1000000000000D-01  2.4246888113235D-01  1.3532944759611D+00
    63  6.2000000000000D-01  2.9465473456672D-01  1.3307919993153D+00
    64  6.3000000000000D-01  3.4680360516640D-01  1.3067049002355D+00
    65  6.4000000000000D-01  3.9872831463986D-01  1.2811187008612D+00
    66  6.5000000000000D-01  4.5024386392221D-01  1.2541244115711D+00
    67  6.6000000000000D-01  5.0116894531545D-01  1.2258180306253D+00
    68  6.7000000000000D-01  5.5132746842760D-01  1.1963000027489D+00
    69  6.8000000000000D-01  6.0055008482091D-01  1.1656746399228D+00
    70  6.9000000000000D-01  6.4867569524056D-01  1.1340495080280D+00
    71  7.0000000000000D-01  6.9555292229923D-01  1.1015347833604D+00
    72  7.1000000000000D-01  7.4104153053950D-01  1.0682425833909D+00
    73  7.2000000000000D-01  7.8501377490308D-01  1.0342862764879D+00
    74  7.3000000000000D-01  8.2735565779896D-01  9.9977977564630D-01
    75  7.4000000000000D-01  8.6796807419225D-01  9.6483682157425D-01
    76  7.5000000000000D-01  9.0676782343461D-01  9.2957026077571D-01
    77  7.6000000000000D-01  9.4368846593175D-01  8.9409132453312D-01
    78  7.7000000000000D-01  9.7868100219862D-01  8.5850891493501D-01
    79  7.8000000000000D-01  1.0117143513905D+00  8.2292890431039D-01
    80  7.9000000000000D-01  1.0427756060235D+00  7.8745345462150D-01
    81  8.0000000000000D-01  1.0718700393132D+00  7.5218036352946D-01
    82  8.1000000000000D-01  1.0990208413694D+00  7.1720244398093D-01
    83  8.2000000000000D-01  1.1242685603857D+00  6.8260694426911D-01
    84  8.3000000000000D-01  1.1476702249657D+00  6.4847501559675D-01
    85  8.4000000000000D-01  1.1692981238203D+00  6.1488123421280D-01
    86  8.5000000000000D-01  1.1892382192672D+00  5.8189318520814D-01
    87  8.6000000000000D-01  1.2075881712566D+00  5.4957111503732D-01
    88  8.7000000000000D-01  1.2244549490314D+00  5.1796765978490D-01
    89  8.8000000000000D-01  1.2399520080207D+00  4.8712765611483D-01
    90  8.9000000000000D-01  1.2541960101345D+00  4.5708804173170D-01
    91  9.0000000000000D-01  1.2673030663051D+00  4.2787785204173D-01
    92  9.1000000000000D-01  1.2793844808693D+00  3.9951831953265D-01
    93  9.2000000000000D-01  1.2905419782328D+00  3.7202308219328D-01
    94  9.3000000000000D-01  1.3008623931764D+00  3.4539850706857D-01
    95  9.4000000000000D-01  1.3104118022803D+00  3.1964413429562D-01
    96  9.5000000000000D-01  1.3192291069186D+00  2.9475325043145D-01
    97  9.6000000000000D-01  1.3273189862188D+00  2.7071358696609D-01
    98  9.7000000000000D-01  1.3346443783362D+00  2.4750817110214D-01
    99  9.8000000000000D-01  1.3411199013893D+00  2.2511648051511D-01
   100  9.9000000000000D-01  1.3466112472679D+00  2.0351626258644D-01
   101  1.0000000000000D+00  1.3509521627535D+00  1.8268669809562D-01
   102  1.0100000000000D+00  1.3539605724724D+00  1.6261050136125D-01
   103  1.0200000000000D+00  1.3554552267354D+00  1.4327522694096D-01
   104  1.0300000000000D+00  1.3552707062250D+00  1.2467373589394D-01
   105  1.0400000000000D+00  1.3532689833190D+00  1.0680388690007D-01
   106  1.0500000000000D+00  1.3493468422668D+00  8.9667655159848D-02
   107  1.0600000000000D+00  1.3434391044293D+00  7.3269911730678D-02
   108  1.0700000000000D+00  1.3355182400845D+00  5.7617092679285D-02
   109  1.0800000000000D+00  1.3255912893660D+00  4.2715935364880D-02
   110  1.0900000000000D+00  1.3136950922849D+00  2.8572401850753D-02
   111  1.1000000000000D+00  1.2998907438150D+00  1.5190847834042D-02
   112  1.1100000000000D+00  1.2842580171771D+00  2.5734494980986D-03
   113  1.1200000000000D+00  1.2668902364954D+00 -9.2801377953242D-03
   114  1.1300000000000D+00  1.2478898668530D+00 -2.0372928816773D-02
   115  1.1400000000000D+00  1.2273649280336D+00 -3.0710611279157D-02
   116  1.1500000000000D+00  1.2054262191339D+00 -4.0301446649558D-02
   117  1.1600000000000D+00  1.1821852580890D+00 -4.9156106555944D-02
   118  1.1700000000000D+00  1.1577528174103D+00 -5.7287472650421D-02
   119  1.1800000000000D+00  1.1322379340242D+00 -6.4710420869968D-02
   120  1.1900000000000D+00  1.1057472713908D+00 -7.1441605075205D-02
   121  1.2000000000000D+00  1.0783847364973D+00 -7.7499247668022D-02
   122  1.2100000000000D+00  1.0502512737550D+00 -8.2902942266254D-02
   123  1.2200000000000D+00  1.0214447734906D+00 -8.7673470767343D-02
   124  1.2300000000000D+00  9.9206004898550D-01 -9.1832635130576D-02
   125  1.2400000000000D+00  9.6218885414877D-01 -9.5403103131458D-02
   126  1.2500000000000D+00  9.3191991910565D-01 -9.8408267221685D-02
   127  1.2600000000000D+00  9.0133898844479D-01 -1.0087211508872D-01
   128  1.2700000000000D+00  8.7052885676091D-01 -1.0281911057126D-01
   129  1.2800000000000D+00  8.3956939546357D-01 -1.0427408377262D-01
   130  1.2900000000000D+00  8.0853756821568D-01 -1.0526212910844D-01
   131  1.3000000000000D+00  7.7750743595378D-01 -1.0580851042363D-01
   132  1.3100000000000D+00  7.4655015131258D-01 -1.0593857234507D-01
   133  1.3200000000000D+00  7.1573394355523D-01 -1.0567765707367D-01
   134  1.3300000000000D+00  6.8512409581180D-01 -1.0505102616207D-01
   135  1.3400000000000D+00  6.5478291599357D-01 -1.0408378676027D-01
   136  1.3500000000000D+00  6.2476970333817D-01 -1.0280082193481D-01
   137  1.3600000000000D+00  5.9514071215759D-01 -1.0122672485097D-01
   138  1.3700000000000D+00  5.6594911444055D-01 -9.9385736528858D-02
   139  1.3800000000000D+00  5.3724496297003D-01 -9.7301687043128D-02
   140  1.3900000000000D+00  5.0907515627667D-01 -9.4997940084112D-02
   141  1.4000000000000D+00  4.8148340702517D-01 -9.2497340750297D-02
   142  1.4100000000000D+00  4.5451021489614D-01 -8.9822166599840D-02
   143  1.4200000000000D+00  4.2819284517286D-01 -8.6994081910346D-02
   144  1.4300000000000D+00  4.0256531415367D-01 -8.4034095167446D-02
   145  1.4400000000000D+00  3.7765838197702D-01 -8.0962519809058D-02
   146  1.4500000000000D+00  3.5349955399384D-01 -7.7798938242236D-02
   147  1.4600000000000D+00  3.3011309091950D-01 -7.4562169177043D-02
   148  1.4700000000000D+00  3.0752002846094D-01 -7.1270238298257D-02
   149  1.4800000000000D+00  2.8573820673625D-01 -6.7940352317867D-02
   150  1.4900000000000D+00  2.6478230949261D-01 -6.4588876404473D-02
   151  1.5000000000000D+00  2.4466391358425D-01 -6.1231315041374D-02
   152  1.5100000000000D+00  2.2539154818568D-01 -5.7882296264873D-02
   153  1.5200000000000D+00  2.0697076409173D-01 -5.4555559328087D-02
   154  1.5300000000000D+00  1.8940421242608D-01 -5.1263945718680D-02
   155  1.5400000000000D+00  1.7269173271167D-01 -4.8019393530248D-02
   156  1.5500000000000D+00  1.5683044971372D-01 -4.4832935122776D-02
   157  1.5600000000000D+00  1.4181487857622D-01 -4.1714698005215D-02
   158  1.5700000000000D+00  1.2763703775278D-01 -3.8673908890951D-02
   159  1.5800000000000D+00  1.1428656894652D-01 -3.5718900794173D-02
   160  1.5900000000000D+00  1.0175086357838D-01 -3.2857123129418D-02
   161  1.6000000000000D+00  9.0015194843513D-02 -3.0095154629796D-02
   162  1.6100000000000D+00  7.9062854812957D-02 -2.7438719046135D-02
   163  1.6200000000000D+00  6.8875295634595D-02 -2.4892703414312D-02
   164  1.6300000000000D+00  5.9432274160777D-02 -2.2461178831477D-02
   165  1.6400000000000D+00  5.0711999154871D-02 -2.0147423528157D-02
   166  1.6500000000000D+00  4.2691280273231D-02 -1.7953948143201D-02
   167  1.6600000000000D+00  3.5345678099448D-02 -1.5882522999706D-02
   168  1.6700000000000D+00  2.8649654344006D-02 -1.3934207258991D-02
   169  1.6800000000000D+00  2.2576721614069D-02 -1.2109379763233D-02
   170  1.6900000000000D+00  1.7099591820551D-02 -1.0407771421329D-02
   171  1.7000000000000D+00  1.2190322773963D-02 -8.8284989626983D-03
   172  1.7100000000000D+00  7.8204620031651D-03 -7.3700998962765D-03
   173  1.7200000000000D+00  3.9611875316872D-03 -6.0305685174466D-03
   174  1.7300000000000D+00  5.8344459733104D-04 -4.8073927841349D-03
   175  1.7400000000000D+00 -2.3419217094892D-03 -3.6975919304989D-03
   176  1.7500000000000D+00 -4.8440389938463D-03 -2.6977546199222D-03
   177  1.7600000000000D+00 -6.9518850009650D-03 -1.8040775428764D-03
   178  1.7700000000000D+00 -8.6941712115069D-03 -1.0124042343504D-03
   179  1.7800000000000D+00 -1.0099231912913D-02 -3.1826406692102D-04
   180  1.7900000000000D+00 -1.1194920181219D-02  2.8308883977639D-04
   181  1.8000000000000D+00 -1.2008509747995D-02  7.9663678350284D-04
   182  1.8100000000000D+00 -1.2566604216829D-02  1.2275599970118D-03
   183  1.8200000000000D+00 -1.2895052511330D-02  1.5811984817423D-03
   184  1.8300000000000D+00 -1.3018871731600D-02  1.8630144167254D-03
   185  1.8400000000000D+00 -1.2962176521444D-02  2.0785551197612D-03
   186  1.8500000000000D+00 -1.2748115592734D-02  2.2334167600659D-03
   187  1.8600000000000D+00 -1.2398814916059D-02  2.3332088477971D-03
   188  1.8700000000000D+00 -1.1935327571207D-02  2.3835196077774D-03
   189  1.8800000000000D+00 -1.1377590267159D-02  2.3898823402560D-03
   190  1.8900000000000D+00 -1.0744385852658D-02  2.3577427596338D-03
   191  1.9000000000000D+00 -1.0053312302074D-02  2.2924275101760D-03
   192  1.9100000000000D+00 -9.3207569619529D-03  2.1991137274284D-03
   193  1.9200000000000D+00 -8.5618767576712D-03  2.0827999173784D-03
   194  1.9300000000000D+00 -7.7905831186492D-03  1.9482779813904D-03
   195  1.9400000000000D+00 -7.0195318976266D-03  1.8001065981035D-03
   196  1.9500000000000D+00 -6.2601175778607D-03  1.6425858888819D-03
   197  1.9600000000000D+00 -5.5224714375456D-03  1.4797334299795D-03
   198  1.9700000000000D+00 -4.8154633554398D-03  1.3152616697565D-03
   199  1.9800000000000D+00 -4.1467067204037D-03  1.1525566730523D-03
   200  1.9900000000000D+00 -3.5225660619260D-03  9.9465834609748D-04
   201  2.0000000000000D+00 -2.9481671082708D-03  8.4424200599798D-04
   202  2.0100000000000D+00 -2.4274085901304D-03  7.0360142396932D-04
   203  2.0200000000000D+00 -1.9629756969285D-03  5.7463327735843D-04
   204  2.0300000000000D+00 -1.5563546466227D-03  4.5882302682126D-04
   205  2.0400000000000D+00 -1.2078477254220D-03  3.5723224912600D-04
   206  2.0500000000000D+00 -9.1658914531113D-04  2.7048734608669D-04
   207  2.0600000000000D+00 -6.8073805596219D-04  1.9880169376940D-04
   208  2.0700000000000D+00 -4.9689462462198D-04  1.4185939688303D-04
   209  2.0800000000000D+00 -3.6017913653022D-04  9.8812117409563D-05
   210  2.0900000000000D+00 -2.6359511138902D-04  6.8109346547538D-05
   211  2.1000000000000D+00 -2.0692034168934D-04  4.9390832926594D-05
   212  2.1100000000000D+00 -1.8870308940612D-04  4.1847378111666D-05
   213  2.1200000000000D+00 -1.8638968394391D-04  3.9857640172127D-05
   214  2.1300000000000D+00 -1.6720511740955D-04  3.5478888434202D-05
   215  2.1400000000000D+00 -1.0294468761468D-04  2.1816121114075D-05
   216  2.1500000000000D+00 -3.0183467525505D-05  6.4068005430608D-06
   217  2.1600000000000D+00  1.3002137702255D-05 -2.7384824824395D-06
   218  2.1700000000000D+00  1.6116237289824D-05 -3.3933128613335D-06
   219  2.1800000000000D+00  1.4740065820343D-06 -3.1034149768785D-07
   220  2.1900000000000D+00 -3.7669120982956D-06  7.9006100271592D-07
   221  2.2000000000000D+00 -2.7583071685448D-06  5.7817626894242D-07
   222  2.2100000000000D+00  1.9070336760731D-07 -4.0474556298357D-08
   223  2.2200000000000D+00  4.8074921970569D-07 -1.0203339145241D-07
   224  2.2300000000000D+00  1.8414274057164D-07 -3.9082140046672D-08
   225  2.2400000000000D+00  0.0000000000000D+00  0.0000000000000D+00
   226  2.2500000000000D+00  0.0000000000000D+00  0.0000000000000D+00
   227  2.2600000000000D+00  0.0000000000000D+00  0.0000000000000D+00
   228  2.2700000000000D+00  0.0000000000000D+00  0.0000000000000D+00
   229  2.2800000000000D+00  0.0000000000000D+00  0.0000000000000D+00
   230  2.2900000000000D+00  0.0000000000000D+00  0.0000000000000D+00
   231  2.3000000000000D+00  0.0000000000000D+00  0.0000000000000D+00
   232  2.3100000000000D+00  0.0000000000000D+00  0.0000000000000D+00
   233  2.3200000000000D+00  0.0000000000000D+00  0.0000000000000D+00
   234  2.3300000000000D+00  0.0000000000000D+00  0.0000000000000D+00
   235  2.3400000000000D+00  0.0000000000000D+00  0.0000000000000D+00
   236  2.3500000000000D+00  0.0000000000000D+00  0.0000000000000D+00
   237  2.3600000000000D+00  0.0000000000000D+00  0.0000000000000D+00
   238  2.3700000000000D+00  0.0000000000000D+00  0.0000000000000D+00
   239  2.3800000000000D+00  0.0000000000000D+00  0.0000000000000D+00
   240  2.3900000000000D+00  0.0000000000000D+00  0.0000000000000D+00
   241  2.4000000000000D+00  0.0000000000000D+00  0.0000000000000D+00
   242  2.4100000000000D+00  0.0000000000000D+00  0.0000000000000D+00
   243  2.4200000000000D+00  0.0000000000000D+00  0.0000000000000D+00
   244  2.4300000000000D+00  0.0000000000000D+00  0.0000000000000D+00
   245  2.4400000000000D+00  0.0000000000000D+00  0.0000000000000D+00
   246  2.4500000000000D+00  0.0000000000000D+00  0.0000000000000D+00
   247  2.4600000000000D+00  0.0000000000000D+00  0.0000000000000D+00
   248  2.4700000000000D+00  0.0000000000000D+00  0.0000000000000D+00
   249  2.4800000000000D+00  0.0000000000000D+00  0.0000000000000D+00
   250  2.4900000000000D+00  0.0000000000000D+00  0.0000000000000D+00
   251  2.5000000000000D+00  0.0000000000000D+00  0.0000000000000D+00
   252  2.5100000000000D+00  0.0000000000000D+00  0.0000000000000D+00
   253  2.5200000000000D+00  0.0000000000000D+00  0.0000000000000D+00
   254  2.5300000000000D+00  0.0000000000000D+00  0.0000000000000D+00
   255  2.5400000000000D+00  0.0000000000000D+00  0.0000000000000D+00
   256  2.5500000000000D+00  0.0000000000000D+00  0.0000000000000D+00
   257  2.5600000000000D+00  0.0000000000000D+00  0.0000000000000D+00
   258  2.5700000000000D+00  0.0000000000000D+00  0.0000000000000D+00
   259  2.5800000000000D+00  0.0000000000000D+00  0.0000000000000D+00
   260  2.5900000000000D+00  0.0000000000000D+00  0.0000000000000D+00
   261  2.6000000000000D+00  0.0000000000000D+00  0.0000000000000D+00
   262  2.6100000000000D+00  0.0000000000000D+00  0.0000000000000D+00
   263  2.6200000000000D+00  0.0000000000000D+00  0.0000000000000D+00
   264  2.6300000000000D+00  0.0000000000000D+00  0.0000000000000D+00
   265  2.6400000000000D+00  0.0000000000000D+00  0.0000000000000D+00
   266  2.6500000000000D+00  0.0000000000000D+00  0.0000000000000D+00
   267  2.6600000000000D+00  0.0000000000000D+00  0.0000000000000D+00
   268  2.6700000000000D+00  0.0000000000000D+00  0.0000000000000D+00
   269  2.6800000000000D+00  0.0000000000000D+00  0.0000000000000D+00
   270  2.6900000000000D+00  0.0000000000000D+00  0.0000000000000D+00
   271  2.7000000000000D+00  0.0000000000000D+00  0.0000000000000D+00
   272  2.7100000000000D+00  0.0000000000000D+00  0.0000000000000D+00
   273  2.7200000000000D+00  0.0000000000000D+00  0.0000000000000D+00
   274  2.7300000000000D+00  0.0000000000000D+00  0.0000000000000D+00
   275  2.7400000000000D+00  0.0000000000000D+00  0.0000000000000D+00
   276  2.7500000000000D+00  0.0000000000000D+00  0.0000000000000D+00
   277  2.7600000000000D+00  0.0000000000000D+00  0.0000000000000D+00
   278  2.7700000000000D+00  0.0000000000000D+00  0.0000000000000D+00
   279  2.7800000000000D+00  0.0000000000000D+00  0.0000000000000D+00
   280  2.7900000000000D+00  0.0000000000000D+00  0.0000000000000D+00
   281  2.8000000000000D+00  0.0000000000000D+00  0.0000000000000D+00
   282  2.8100000000000D+00  0.0000000000000D+00  0.0000000000000D+00
   283  2.8200000000000D+00  0.0000000000000D+00  0.0000000000000D+00
   284  2.8300000000000D+00  0.0000000000000D+00  0.0000000000000D+00
   285  2.8400000000000D+00  0.0000000000000D+00  0.0000000000000D+00
   286  2.8500000000000D+00  0.0000000000000D+00  0.0000000000000D+00
   287  2.8600000000000D+00  0.0000000000000D+00  0.0000000000000D+00
   288  2.8700000000000D+00  0.0000000000000D+00  0.0000000000000D+00
   289  2.8800000000000D+00  0.0000000000000D+00  0.0000000000000D+00
   290  2.8900000000000D+00  0.0000000000000D+00  0.0000000000000D+00
   291  2.9000000000000D+00  0.0000000000000D+00  0.0000000000000D+00
   292  2.9100000000000D+00  0.0000000000000D+00  0.0000000000000D+00
   293  2.9200000000000D+00  0.0000000000000D+00  0.0000000000000D+00
   294  2.9300000000000D+00  0.0000000000000D+00  0.0000000000000D+00
   295  2.9400000000000D+00  0.0000000000000D+00  0.0000000000000D+00
   296  2.9500000000000D+00  0.0000000000000D+00  0.0000000000000D+00
   297  2.9600000000000D+00  0.0000000000000D+00  0.0000000000000D+00
   298  2.9700000000000D+00  0.0000000000000D+00  0.0000000000000D+00
   299  2.9800000000000D+00  0.0000000000000D+00  0.0000000000000D+00
   300  2.9900000000000D+00  0.0000000000000D+00  0.0000000000000D+00
   301  3.0000000000000D+00  0.0000000000000D+00  0.0000000000000D+00
   302  3.0100000000000D+00  0.0000000000000D+00  0.0000000000000D+00
   303  3.0200000000000D+00  0.0000000000000D+00  0.0000000000000D+00
   304  3.0300000000000D+00  0.0000000000000D+00  0.0000000000000D+00
   305  3.0400000000000D+00  0.0000000000000D+00  0.0000000000000D+00
   306  3.0500000000000D+00  0.0000000000000D+00  0.0000000000000D+00
   307  3.0600000000000D+00  0.0000000000000D+00  0.0000000000000D+00
   308  3.0700000000000D+00  0.0000000000000D+00  0.0000000000000D+00
   309  3.0800000000000D+00  0.0000000000000D+00  0.0000000000000D+00
   310  3.0900000000000D+00  0.0000000000000D+00  0.0000000000000D+00
   311  3.1000000000000D+00  0.0000000000000D+00  0.0000000000000D+00
   312  3.1100000000000D+00  0.0000000000000D+00  0.0000000000000D+00
   313  3.1200000000000D+00  0.0000000000000D+00  0.0000000000000D+00
   314  3.1300000000000D+00  0.0000000000000D+00  0.0000000000000D+00
   315  3.1400000000000D+00  0.0000000000000D+00  0.0000000000000D+00
   316  3.1500000000000D+00  0.0000000000000D+00  0.0000000000000D+00
   317  3.1600000000000D+00  0.0000000000000D+00  0.0000000000000D+00
   318  3.1700000000000D+00  0.0000000000000D+00  0.0000000000000D+00
   319  3.1800000000000D+00  0.0000000000000D+00  0.0000000000000D+00
   320  3.1900000000000D+00  0.0000000000000D+00  0.0000000000000D+00
   321  3.2000000000000D+00  0.0000000000000D+00  0.0000000000000D+00
   322  3.2100000000000D+00  0.0000000000000D+00  0.0000000000000D+00
   323  3.2200000000000D+00  0.0000000000000D+00  0.0000000000000D+00
   324  3.2300000000000D+00  0.0000000000000D+00  0.0000000000000D+00
   325  3.2400000000000D+00  0.0000000000000D+00  0.0000000000000D+00
   326  3.2500000000000D+00  0.0000000000000D+00  0.0000000000000D+00
   327  3.2600000000000D+00  0.0000000000000D+00  0.0000000000000D+00
   328  3.2700000000000D+00  0.0000000000000D+00  0.0000000000000D+00
   329  3.2800000000000D+00  0.0000000000000D+00  0.0000000000000D+00
   330  3.2900000000000D+00  0.0000000000000D+00  0.0000000000000D+00
   331  3.3000000000000D+00  0.0000000000000D+00  0.0000000000000D+00
   332  3.3100000000000D+00  0.0000000000000D+00  0.0000000000000D+00
   333  3.3200000000000D+00  0.0000000000000D+00  0.0000000000000D+00
   334  3.3300000000000D+00  0.0000000000000D+00  0.0000000000000D+00
   335  3.3400000000000D+00  0.0000000000000D+00  0.0000000000000D+00
   336  3.3500000000000D+00  0.0000000000000D+00  0.0000000000000D+00
   337  3.3600000000000D+00  0.0000000000000D+00  0.0000000000000D+00
   338  3.3700000000000D+00  0.0000000000000D+00  0.0000000000000D+00
   339  3.3800000000000D+00  0.0000000000000D+00  0.0000000000000D+00
   340  3.3900000000000D+00  0.0000000000000D+00  0.0000000000000D+00
   341  3.4000000000000D+00  0.0000000000000D+00  0.0000000000000D+00
   342  3.4100000000000D+00  0.0000000000000D+00  0.0000000000000D+00
   343  3.4200000000000D+00  0.0000000000000D+00  0.0000000000000D+00
   344  3.4300000000000D+00  0.0000000000000D+00  0.0000000000000D+00
   345  3.4400000000000D+00  0.0000000000000D+00  0.0000000000000D+00
   346  3.4500000000000D+00  0.0000000000000D+00  0.0000000000000D+00
   347  3.4600000000000D+00  0.0000000000000D+00  0.0000000000000D+00
   348  3.4700000000000D+00  0.0000000000000D+00  0.0000000000000D+00
   349  3.4800000000000D+00  0.0000000000000D+00  0.0000000000000D+00
   350  3.4900000000000D+00  0.0000000000000D+00  0.0000000000000D+00
   351  3.5000000000000D+00  0.0000000000000D+00  0.0000000000000D+00
   352  3.5100000000000D+00  0.0000000000000D+00  0.0000000000000D+00
   353  3.5200000000000D+00  0.0000000000000D+00  0.0000000000000D+00
   354  3.5300000000000D+00  0.0000000000000D+00  0.0000000000000D+00
   355  3.5400000000000D+00  0.0000000000000D+00  0.0000000000000D+00
   356  3.5500000000000D+00  0.0000000000000D+00  0.0000000000000D+00
   357  3.5600000000000D+00  0.0000000000000D+00  0.0000000000000D+00
   358  3.5700000000000D+00  0.0000000000000D+00  0.0000000000000D+00
   359  3.5800000000000D+00  0.0000000000000D+00  0.0000000000000D+00
   360  3.5900000000000D+00  0.0000000000000D+00  0.0000000000000D+00
   361  3.6000000000000D+00  0.0000000000000D+00  0.0000000000000D+00
   362  3.6100000000000D+00  0.0000000000000D+00  0.0000000000000D+00
   363  3.6200000000000D+00  0.0000000000000D+00  0.0000000000000D+00
   364  3.6300000000000D+00  0.0000000000000D+00  0.0000000000000D+00
   365  3.6400000000000D+00  0.0000000000000D+00  0.0000000000000D+00
   366  3.6500000000000D+00  0.0000000000000D+00  0.0000000000000D+00
   367  3.6600000000000D+00  0.0000000000000D+00  0.0000000000000D+00
   368  3.6700000000000D+00  0.0000000000000D+00  0.0000000000000D+00
   369  3.6800000000000D+00  0.0000000000000D+00  0.0000000000000D+00
   370  3.6900000000000D+00  0.0000000000000D+00  0.0000000000000D+00
   371  3.7000000000000D+00  0.0000000000000D+00  0.0000000000000D+00
   372  3.7100000000000D+00  0.0000000000000D+00  0.0000000000000D+00
   373  3.7200000000000D+00  0.0000000000000D+00  0.0000000000000D+00
   374  3.7300000000000D+00  0.0000000000000D+00  0.0000000000000D+00
   375  3.7400000000000D+00  0.0000000000000D+00  0.0000000000000D+00
   376  3.7500000000000D+00  0.0000000000000D+00  0.0000000000000D+00
   377  3.7600000000000D+00  0.0000000000000D+00  0.0000000000000D+00
   378  3.7700000000000D+00  0.0000000000000D+00  0.0000000000000D+00
   379  3.7800000000000D+00  0.0000000000000D+00  0.0000000000000D+00
   380  3.7900000000000D+00  0.0000000000000D+00  0.0000000000000D+00
   381  3.8000000000000D+00  0.0000000000000D+00  0.0000000000000D+00
   382  3.8100000000000D+00  0.0000000000000D+00  0.0000000000000D+00
   383  3.8200000000000D+00  0.0000000000000D+00  0.0000000000000D+00
   384  3.8300000000000D+00  0.0000000000000D+00  0.0000000000000D+00
   385  3.8400000000000D+00  0.0000000000000D+00  0.0000000000000D+00
   386  3.8500000000000D+00  0.0000000000000D+00  0.0000000000000D+00
   387  3.8600000000000D+00  0.0000000000000D+00  0.0000000000000D+00
   388  3.8700000000000D+00  0.0000000000000D+00  0.0000000000000D+00
   389  3.8800000000000D+00  0.0000000000000D+00  0.0000000000000D+00
   390  3.8900000000000D+00  0.0000000000000D+00  0.0000000000000D+00
   391  3.9000000000000D+00  0.0000000000000D+00  0.0000000000000D+00
   392  3.9100000000000D+00  0.0000000000000D+00  0.0000000000000D+00
   393  3.9200000000000D+00  0.0000000000000D+00  0.0000000000000D+00
   394  3.9300000000000D+00  0.0000000000000D+00  0.0000000000000D+00
   395  3.9400000000000D+00  0.0000000000000D+00  0.0000000000000D+00
   396  3.9500000000000D+00  0.0000000000000D+00  0.0000000000000D+00
   397  3.9600000000000D+00  0.0000000000000D+00  0.0000000000000D+00
   398  3.9700000000000D+00  0.0000000000000D+00  0.0000000000000D+00
   399  3.9800000000000D+00  0.0000000000000D+00  0.0000000000000D+00
   400  3.9900000000000D+00  0.0000000000000D+00  0.0000000000000D+00
   401  4.0000000000000D+00  0.0000000000000D+00  0.0000000000000D+00
   402  4.0100000000000D+00  0.0000000000000D+00  0.0000000000000D+00
   403  4.0200000000000D+00  0.0000000000000D+00  0.0000000000000D+00
   404  4.0300000000000D+00  0.0000000000000D+00  0.0000000000000D+00
   405  4.0400000000000D+00  0.0000000000000D+00  0.0000000000000D+00
   406  4.0500000000000D+00  0.0000000000000D+00  0.0000000000000D+00
   407  4.0600000000000D+00  0.0000000000000D+00  0.0000000000000D+00
   408  4.0700000000000D+00  0.0000000000000D+00  0.0000000000000D+00
   409  4.0800000000000D+00  0.0000000000000D+00  0.0000000000000D+00
   410  4.0900000000000D+00  0.0000000000000D+00  0.0000000000000D+00
   411  4.1000000000000D+00  0.0000000000000D+00  0.0000000000000D+00
   412  4.1100000000000D+00  0.0000000000000D+00  0.0000000000000D+00
   413  4.1200000000000D+00  0.0000000000000D+00  0.0000000000000D+00
   414  4.1300000000000D+00  0.0000000000000D+00  0.0000000000000D+00
   415  4.1400000000000D+00  0.0000000000000D+00  0.0000000000000D+00
   416  4.1500000000000D+00  0.0000000000000D+00  0.0000000000000D+00
   417  4.1600000000000D+00  0.0000000000000D+00  0.0000000000000D+00
   418  4.1700000000000D+00  0.0000000000000D+00  0.0000000000000D+00
   419  4.1800000000000D+00  0.0000000000000D+00  0.0000000000000D+00
   420  4.1900000000000D+00  0.0000000000000D+00  0.0000000000000D+00
   421  4.2000000000000D+00  0.0000000000000D+00  0.0000000000000D+00
   422  4.2100000000000D+00  0.0000000000000D+00  0.0000000000000D+00