Sb    ONCVPSP-3.3.1  r_core=   2.48127   3.00305   3.59145
     51.0000     15.0000      210905    zatom,zion,pspd
     8 -116133   2     4   600     0    pspcod,pspxc,lmax,lloc,mmax,r2well
  5.99000000  0.00000000  0.00000000    rchrg fchrg qchrg
     2     4     2     0    nproj
     3     1           extension_switch
     4     4     0    nprojso
   0                         1.3334897017119D+00  6.2254352866868D+00
     1  0.0000000000000D+00 -2.4938245912765D-11  4.2419401324878D-12
     2  1.0000000000000D-02  2.6998742170377D-02  9.0820387060385D-03
     3  2.0000000000000D-02  5.3878168254506D-02  1.8197404166654D-02
     4  3.0000000000000D-02  8.0519443582357D-02  2.7379293849496D-02
     5  4.0000000000000D-02  1.0680469451302D-01  3.6660647043229D-02
     6  5.0000000000000D-02  1.3261748444726D-01  4.6074016754142D-02
     7  6.0000000000000D-02  1.5784328445529D-01  5.5651442783087D-02
     8  7.0000000000000D-02  1.8236993675398D-01  6.5424326371218D-02
     9  8.0000000000000D-02  2.0608810929285D-01  7.5423306798728D-02
    10  9.0000000000000D-02  2.2889173973914D-01  8.5678140315508D-02
    11  1.0000000000000D-01  2.5067846718935D-01  9.6217581776269D-02
    12  1.1000000000000D-01  2.7135004997757D-01  1.0706926934535D-01
    13  1.2000000000000D-01  2.9081276799984D-01  1.1825961262799D-01
    14  1.3000000000000D-01  3.0897780802796D-01  1.2981368457558D-01
    15  1.4000000000000D-01  3.2576163054605D-01  1.4175511750187D-01
    16  1.5000000000000D-01  3.4108631670856D-01  1.5410600353606D-01
    17  1.6000000000000D-01  3.5487989408832D-01  1.6688679982623D-01
    18  1.7000000000000D-01  3.6707663995854D-01  1.8011623879354D-01
    19  1.8000000000000D-01  3.7761736093249D-01  1.9381124372361D-01
    20  1.9000000000000D-01  3.8644964786869D-01  2.0798684996661D-01
    21  2.0000000000000D-01  3.9352810503771D-01  2.2265613200182D-01
    22  2.1000000000000D-01  3.9881455263921D-01  2.3783013660607D-01
    23  2.2000000000000D-01  4.0227820185321D-01  2.5351782234828D-01
    24  2.3000000000000D-01  4.0389580170898D-01  2.6972600561411D-01
    25  2.4000000000000D-01  4.0365175715692D-01  2.8645931334656D-01
    26  2.5000000000000D-01  4.0153821783331D-01  3.0372014266886D-01
    27  2.6000000000000D-01  3.9755513711493D-01  3.2150862753624D-01
    28  2.7000000000000D-01  3.9171030116940D-01  3.3982261254289D-01
    29  2.8000000000000D-01  3.8401932781748D-01  3.5865763398979D-01
    30  2.9000000000000D-01  3.7450563513519D-01  3.7800690829737D-01
    31  3.0000000000000D-01  3.6320037983625D-01  3.9786132782606D-01
    32  3.1000000000000D-01  3.5014236558798D-01  4.1820946414520D-01
    33  3.2000000000000D-01  3.3537792152676D-01  4.3903757876915D-01
    34  3.3000000000000D-01  3.1896075135185D-01  4.6032964135663D-01
    35  3.4000000000000D-01  3.0095175348779D-01  4.8206735534716D-01
    36  3.5000000000000D-01  2.8141881291629D-01  5.0423019098568D-01
    37  3.6000000000000D-01  2.6043656538761D-01  5.2679542566388D-01
    38  3.7000000000000D-01  2.3808613482792D-01  5.4973819148421D-01
    39  3.8000000000000D-01  2.1445484486408D-01  5.7303152993030D-01
    40  3.9000000000000D-01  1.8963590548859D-01  5.9664645350493D-01
    41  4.0000000000000D-01  1.6372807598606D-01  6.2055201417514D-01
    42  4.1000000000000D-01  1.3683530533733D-01  6.4471537844205D-01
    43  4.2000000000000D-01  1.0906635140808D-01  6.6910190883199D-01
    44  4.3000000000000D-01  8.0534380315165D-02  6.9367525158462D-01
    45  4.4000000000000D-01  5.1356547445716D-02  7.1839743029353D-01
    46  4.5000000000000D-01  2.1653561680235D-02  7.4322894523502D-01
    47  4.6000000000000D-01 -8.4507655576587D-03  7.6812887810209D-01
    48  4.7000000000000D-01 -3.8829984737242D-02  7.9305500184209D-01
    49  4.8000000000000D-01 -6.9355484395371D-02  8.1796389527926D-01
    50  4.9000000000000D-01 -9.9896977250149D-02  8.4281106218684D-01
    51  5.0000000000000D-01 -1.3032299440761D-01  8.6755105445761D-01
    52  5.1000000000000D-01 -1.6050138577615D-01  8.9213759900734D-01
    53  5.2000000000000D-01 -1.9029982477123D-01  9.1652372803177D-01
    54  5.3000000000000D-01 -2.1958631536817D-01  9.4066191222557D-01
    55  5.4000000000000D-01 -2.4822969954303D-01  9.6450419656014D-01
    56  5.5000000000000D-01 -2.7610016313227D-01  9.8800233820713D-01
    57  5.6000000000000D-01 -3.0306973813934D-01  1.0111079461857D+00
    58  5.7000000000000D-01 -3.2901279952239D-01  1.0337726223041D+00
    59  5.8000000000000D-01 -3.5380655451063D-01  1.0559481029594D+00
    60  5.9000000000000D-01 -3.7733152251845D-01  1.0775864013559D+00
    61  6.0000000000000D-01 -3.9947200375580D-01  1.0986399496965D+00
    62  6.1000000000000D-01 -4.2011653467009D-01  1.1190617409023D+00
    63  6.2000000000000D-01 -4.3915832840024D-01  1.1388054694147D+00
    64  6.3000000000000D-01 -4.5649569847550D-01  1.1578256706312D+00
    65  6.4000000000000D-01 -4.7203246405203D-01  1.1760778585360D+00
    66  6.5000000000000D-01 -4.8567833504714D-01  1.1935186610827D+00
    67  6.6000000000000D-01 -4.9734927560556D-01  1.2101059528968D+00
    68  6.7000000000000D-01 -5.0696784441341D-01  1.2257989848706D+00
    69  6.8000000000000D-01 -5.1446351046287D-01  1.2405585102324D+00
    70  6.9000000000000D-01 -5.1977294296486D-01  1.2543469066799D+00
    71  7.0000000000000D-01 -5.2284027420654D-01  1.2671282941816D+00
    72  7.1000000000000D-01 -5.2361733425607D-01  1.2788686480602D+00
    73  7.2000000000000D-01 -5.2206385652741D-01  1.2895359069873D+00
    74  7.3000000000000D-01 -5.1814765333283D-01  1.2991000755348D+00
    75  7.4000000000000D-01 -5.1184476067056D-01  1.3075333209417D+00
    76  7.5000000000000D-01 -5.0313955161778D-01  1.3148100637782D+00
    77  7.6000000000000D-01 -4.9202481782575D-01  1.3209070622029D+00
    78  7.7000000000000D-01 -4.7850181874270D-01  1.3258034895322D+00
    79  7.8000000000000D-01 -4.6258029832147D-01  1.3294810048615D+00
    80  7.9000000000000D-01 -4.4427846910165D-01  1.3319238164996D+00
    81  8.0000000000000D-01 -4.2362296369012D-01  1.3331187380018D+00
    82  8.1000000000000D-01 -4.0064875379784D-01  1.3330552366092D+00
    83  8.2000000000000D-01 -3.7539903712530D-01  1.3317254739307D+00
    84  8.3000000000000D-01 -3.4792509252260D-01  1.3291243387231D+00
    85  8.4000000000000D-01 -3.1828610398219D-01  1.3252494716581D+00
    86  8.5000000000000D-01 -2.8654895415273D-01  1.3201012819852D+00
    87  8.6000000000000D-01 -2.5278798819027D-01  1.3136829560302D+00
    88  8.7000000000000D-01 -2.1708474888787D-01  1.3060004574951D+00
    89  8.8000000000000D-01 -1.7952768414560D-01  1.2970625195515D+00
    90  8.9000000000000D-01 -1.4021182796003D-01  1.2868806287493D+00
    91  9.0000000000000D-01 -9.9238456224035D-02  1.2754690007871D+00
    92  9.1000000000000D-01 -5.6714718734841D-02  1.2628445482213D+00
    93  9.2000000000000D-01 -1.2753248909120D-02  1.2490268402145D+00
    94  9.3000000000000D-01  3.2528247201888D-02  1.2340380544538D+00
    95  9.4000000000000D-01  7.9007420915523D-02  1.2179029213928D+00
    96  9.5000000000000D-01  1.2655772817750D-01  1.2006486610009D+00
    97  9.6000000000000D-01  1.7504889224327D-01  1.1823049122237D+00
    98  9.7000000000000D-01  2.2434737988095D-01  1.1629036553877D+00
    99  9.8000000000000D-01  2.7431688913891D-01  1.1424791278025D+00
   100  9.9000000000000D-01  3.2481884667302D-01  1.1210677328384D+00
   101  1.0000000000000D+00  3.7571291258914D-01  1.0987079427785D+00
   102  1.0100000000000D+00  4.2685749072613D-01  1.0754401957651D+00
   103  1.0200000000000D+00  4.7811024228397D-01  1.0513067871792D+00
   104  1.0300000000000D+00  5.2932860068912D-01  1.0263517558112D+00
   105  1.0400000000000D+00  5.8037028558773D-01  1.0006207651969D+00
   106  1.0500000000000D+00  6.3109381386398D-01  9.7416098050970D-01
   107  1.0600000000000D+00  6.8135900559846D-01  9.4702094141166D-01
   108  1.0700000000000D+00  7.3102748290677D-01  9.1925043128218D-01
   109  1.0800000000000D+00  7.7996315963290D-01  8.9090034325088D-01
   110  1.0900000000000D+00  8.2803271991903D-01  8.6202254347313D-01
   111  1.1000000000000D+00  8.7510608372398D-01  8.3266973209357D-01
   112  1.1100000000000D+00  9.2105685743116D-01  8.0289530234958D-01
   113  1.1200000000000D+00  9.6576276774436D-01  7.7275319827092D-01
   114  1.1300000000000D+00  1.0091060771624D+00  7.4229777143551D-01
   115  1.1400000000000D+00  1.0509739794014D+00  7.1158363724218D-01
   116  1.1500000000000D+00  1.0912589732387D+00  6.8066553116030D-01
   117  1.1600000000000D+00  1.1298592133292D+00  6.4959816541549D-01
   118  1.1700000000000D+00  1.1666788366772D+00  6.1843608656582D-01
   119  1.1800000000000D+00  1.2016282635460D+00  5.8723353441822D-01
   120  1.1900000000000D+00  1.2346244717244D+00  5.5604430272606D-01
   121  1.2000000000000D+00  1.2655912431413D+00  5.2492160210489D-01
   122  1.2100000000000D+00  1.2944593820122D+00  4.9391792558830D-01
   123  1.2200000000000D+00  1.3211669038058D+00  4.6308491723512D-01
   124  1.2300000000000D+00  1.3456591944196D+00  4.3247324419044D-01
   125  1.2400000000000D+00  1.3678891391300D+00  4.0213247258525D-01
   126  1.2500000000000D+00  1.3878172210256D+00  3.7211094764109D-01
   127  1.2600000000000D+00  1.4054115887299D+00  3.4245567833528D-01
   128  1.2700000000000D+00  1.4206480933639D+00  3.1321222696426D-01
   129  1.2800000000000D+00  1.4335102948984D+00  2.8442460391371D-01
   130  1.2900000000000D+00  1.4439894381025D+00  2.5613516793559D-01
   131  1.3000000000000D+00  1.4520843984372D+00  2.2838453221173D-01
   132  1.3100000000000D+00  1.4578015984712D+00  2.0121147644472D-01
   133  1.3200000000000D+00  1.4611548953860D+00  1.7465286521710D-01
   134  1.3300000000000D+00  1.4621654403309D+00  1.4874357282859D-01
   135  1.3400000000000D+00  1.4608615105806D+00  1.2351641477793D-01
   136  1.3500000000000D+00  1.4572783153779D+00  9.9002086073040D-02
   137  1.3600000000000D+00  1.4514577766322D+00  7.5229106492774D-02
   138  1.3700000000000D+00  1.4434482857106D+00  5.2223772898597D-02
   139  1.3800000000000D+00  1.4333044374991D+00  3.0010118719100D-02
   140  1.3900000000000D+00  1.4210867432729D+00  8.6098806282214D-03
   141  1.4000000000000D+00  1.4068613237520D+00 -1.1957527521680D-02
   142  1.4100000000000D+00  1.3906995838980D+00 -3.1675033492205D-02
   143  1.4200000000000D+00  1.3726778711367D+00 -5.0527918225758D-02
   144  1.4300000000000D+00  1.3528771185555D+00 -6.8503820163695D-02
   145  1.4400000000000D+00  1.3313824749119D+00 -8.5592732429324D-02
   146  1.4500000000000D+00  1.3082829231272D+00 -1.0178699292434D-01
   147  1.4600000000000D+00  1.2836708890899D+00 -1.1708126743847D-01
   148  1.4700000000000D+00  1.2576418425642D+00 -1.3147252593415D-01
   149  1.4800000000000D+00  1.2302938920252D+00 -1.4496001208578D-01
   150  1.4900000000000D+00  1.2017273752294D+00 -1.5754520631208D-01
   151  1.5000000000000D+00  1.1720444473506D+00 -1.6923178241776D-01
   152  1.5100000000000D+00  1.1413486684679D+00 -1.8002555809036D-01
   153  1.5200000000000D+00  1.1097445921476D+00 -1.8993443944918D-01
   154  1.5300000000000D+00  1.0773373569479D+00 -1.9896835987206D-01
   155  1.5400000000000D+00  1.0442322823533D+00 -2.0713921337693D-01
   156  1.5500000000000D+00  1.0105344710770D+00 -2.1446078276771D-01
   157  1.5600000000000D+00  9.7634841889530D-01 -2.2094866288007D-01
   158  1.5700000000000D+00  9.4177763404518D-01 -2.2662017913959D-01
   159  1.5800000000000D+00  9.0692426706632D-01 -2.3149430179005D-01
   160  1.5900000000000D+00  8.7188875298688D-01 -2.3559155603622D-01
   161  1.6000000000000D+00  8.3676946664974D-01 -2.3893392845005D-01
   162  1.6100000000000D+00  8.0166239275270D-01 -2.4154476992150D-01
   163  1.6200000000000D+00  7.6666081139131D-01 -2.4344869549213D-01
   164  1.6300000000000D+00  7.3185500027349D-01 -2.4467148137498D-01
   165  1.6400000000000D+00  6.9733195440626D-01 -2.4523995949411D-01
   166  1.6500000000000D+00  6.6317512398365D-01 -2.4518190985345D-01
   167  1.6600000000000D+00  6.2946417127725D-01 -2.4452595106897D-01
   168  1.6700000000000D+00  5.9627474682330D-01 -2.4330142936612D-01
   169  1.6800000000000D+00  5.6367828566808D-01 -2.4153830638003D-01
   170  1.6900000000000D+00  5.3174182357554D-01 -2.3926704604237D-01
   171  1.7000000000000D+00  5.0052783384954D-01 -2.3651850089506D-01
   172  1.7100000000000D+00  4.7009408436788D-01 -2.3332379809178D-01
   173  1.7200000000000D+00  4.4049351527659D-01 -2.2971422542394D-01
   174  1.7300000000000D+00  4.1177413674925D-01 -2.2572111761060D-01
   175  1.7400000000000D+00  3.8397894694579D-01 -2.2137574317360D-01
   176  1.7500000000000D+00  3.5714586951775D-01 -2.1670919212464D-01
   177  1.7600000000000D+00  3.3130771036703D-01 -2.1175226475140D-01
   178  1.7700000000000D+00  3.0649213308477D-01 -2.0653536173353D-01
   179  1.7800000000000D+00  2.8272165225615D-01 -2.0108837581577D-01
   180  1.7900000000000D+00  2.6001364424896D-01 -1.9544058529755D-01
   181  1.8000000000000D+00  2.3838037313404D-01 -1.8962054921745D-01
   182  1.8100000000000D+00  2.1782903464005D-01 -1.8365600535592D-01
   183  1.8200000000000D+00  1.9836182087982D-01 -1.7757377226552D-01
   184  1.8300000000000D+00  1.7997594543737D-01 -1.7139963937381D-01
   185  1.8400000000000D+00  1.6266386322222D-01 -1.6515831081733D-01
   186  1.8500000000000D+00  1.4641324095949D-01 -1.5887327601807D-01
   187  1.8600000000000D+00  1.3120681587974D-01 -1.5256666083429D-01
   188  1.8700000000000D+00  1.1702305978511D-01 -1.4625928539796D-01
   189  1.8800000000000D+00  1.0383672013947D-01 -1.3997068715575D-01
   190  1.8900000000000D+00  9.1619392702472D-02 -1.3371917908356D-01
   191  1.9000000000000D+00  8.0340274951946D-02 -1.2752196726155D-01
   192  1.9100000000000D+00  6.9966715828304D-02 -1.2139521775616D-01
   193  1.9200000000000D+00  6.0464260216222D-02 -1.1535399939424D-01
   194  1.9300000000000D+00  5.1796806392334D-02 -1.0941226524155D-01
   195  1.9400000000000D+00  4.3926992527832D-02 -1.0358288782755D-01
   196  1.9500000000000D+00  3.6816392191745D-02 -9.7877654308632D-02
   197  1.9600000000000D+00  3.0425771613624D-02 -9.2307280737785D-02
   198  1.9700000000000D+00  2.4715329061351D-02 -8.6881426082675D-02
   199  1.9800000000000D+00  1.9644926471841D-02 -8.1608708931187D-02
   200  1.9900000000000D+00  1.5174313864000D-02 -7.6496727066684D-02
   201  2.0000000000000D+00  1.1263345779842D-02 -7.1552079558853D-02
   202  2.0100000000000D+00  7.8721864811272D-03 -6.6780391215829D-02
   203  2.0200000000000D+00  4.9615063462138D-03 -6.2186339252465D-02
   204  2.0300000000000D+00  2.4926652096320D-03 -5.7773682014080D-02
   205  2.0400000000000D+00  4.2788471883614D-04 -5.3545289614729D-02
   206  2.0500000000000D+00 -1.2695920391570D-03 -4.9503176333375D-02
   207  2.0600000000000D+00 -2.6353552009526D-03 -4.5648534610242D-02
   208  2.0700000000000D+00 -3.7036941805117D-03 -4.1981770523243D-02
   209  2.0800000000000D+00 -4.5074803826257D-03 -3.8502540541415D-02
   210  2.0900000000000D+00 -5.0780619541466D-03 -3.5209789470810D-02
   211  2.1000000000000D+00 -5.4451738240781D-03 -3.2101789398120D-02
   212  2.1100000000000D+00 -5.6368629476082D-03 -2.9176179486766D-02
   213  2.1200000000000D+00 -5.6794258094548D-03 -2.6430006554224D-02
   214  2.1300000000000D+00 -5.5973632843111D-03 -2.3859766146054D-02
   215  2.1400000000000D+00 -5.4133473259781D-03 -2.1461444131868D-02
   216  2.1500000000000D+00 -5.1482025797559D-03 -1.9230558572288D-02
   217  2.1600000000000D+00 -4.8209025109453D-03 -1.7162201719720D-02
   218  2.1700000000000D+00 -4.4485764449359D-03 -1.5251082178891D-02
   219  2.1800000000000D+00 -4.0465322291667D-03 -1.3491566825063D-02
   220  2.1900000000000D+00 -3.6282892011022D-03 -1.1877722629814D-02
   221  2.2000000000000D+00 -3.2056230156656D-03 -1.0403358144506D-02
   222  2.2100000000000D+00 -2.7886226472093D-03 -9.0620644437981D-03
   223  2.2200000000000D+00 -2.3857557284134D-03 -7.8472556858916D-03
   224  2.2300000000000D+00 -2.0039448692729D-03 -6.7522088538553D-03
   225  2.2400000000000D+00 -1.6486521107926D-03 -5.7701027852824D-03
   226  2.2500000000000D+00 -1.3239703484027D-03 -4.8940564588531D-03
   227  2.2600000000000D+00 -1.0327228582279D-03 -4.1171661156234D-03
   228  2.2700000000000D+00 -7.7656774514234D-04 -3.4325415380726D-03
   229  2.2800000000000D+00 -5.5610752708335D-04 -2.8333411549703D-03
   230  2.2900000000000D+00 -3.7100283996775D-04 -2.3128058520261D-03
   231  2.3000000000000D+00 -2.2008895195271D-04 -1.8642917244135D-03
   232  2.3100000000000D+00 -1.0149411861798D-04 -1.4813013135235D-03
   233  2.3200000000000D+00 -1.2758796549770D-05 -1.1575134752404D-03
   234  2.3300000000000D+00  4.9044405179155D-05 -8.8681198369748D-04
   235  2.3400000000000D+00  8.7193152168421D-05 -6.6331234768027D-04
   236  2.3500000000000D+00  1.0519881682850D-04 -4.8138725665278D-04
   237  2.3600000000000D+00  1.0669238284946D-04 -3.3569046277430D-04
   238  2.3700000000000D+00  9.5315959245986D-05 -2.2117883848352D-04
   239  2.3800000000000D+00  7.4616933456692D-05 -1.3313294312353D-04
   240  2.3900000000000D+00  4.7948174374640D-05 -6.7175834498707D-05
   241  2.4000000000000D+00  1.8221795990348D-05 -1.9210190340670D-05
   242  2.4100000000000D+00 -1.1680672654449D-05  1.4308487513264D-05
   243  2.4200000000000D+00 -3.9260101493527D-05  3.6499935372903D-05
   244  2.4300000000000D+00 -6.1741490397984D-05  4.9550981986568D-05
   245  2.4400000000000D+00 -8.0067531232265D-05  5.7159816120306D-05
   246  2.4500000000000D+00 -9.5496221661002D-05  6.2392994381939D-05
   247  2.4600000000000D+00 -1.1145393205869D-04  6.8957134254797D-05
   248  2.4700000000000D+00 -1.1962331022207D-04  7.2187162193552D-05
   249  2.4800000000000D+00 -1.1289000939596D-04  6.7589263182114D-05
   250  2.4900000000000D+00 -8.1511766436200D-05  4.8619545048414D-05
   251  2.5000000000000D+00 -4.0232446117387D-05  2.3960764352438D-05
   252  2.5100000000000D+00 -3.1437311634777D-06  1.8718970809047D-06
   253  2.5200000000000D+00  1.0982553640611D-05 -6.4999166991412D-06
   254  2.5300000000000D+00  9.8449927885390D-06 -5.8201273326369D-06
   255  2.5400000000000D+00  1.1417829418818D-06 -6.7441725938569D-07
   256  2.5500000000000D+00 -2.3111591870288D-06  1.3725324728419D-06
   257  2.5600000000000D+00 -2.3856020162699D-06  1.4162524246354D-06
   258  2.5700000000000D+00 -4.1106299273583D-07  2.4396380931009D-07
   259  2.5800000000000D+00  2.5259305136091D-07 -1.5119253210419D-07
   260  2.5900000000000D+00  2.9275255139090D-07 -1.7523047164710D-07
   261  2.6000000000000D+00  7.5355284361186D-08 -4.5104788863413D-08
   262  2.6100000000000D+00  0.0000000000000D+00  0.0000000000000D+00
   263  2.6200000000000D+00  0.0000000000000D+00  0.0000000000000D+00
   264  2.6300000000000D+00  0.0000000000000D+00  0.0000000000000D+00
   265  2.6400000000000D+00  0.0000000000000D+00  0.0000000000000D+00
   266  2.6500000000000D+00  0.0000000000000D+00  0.0000000000000D+00
   267  2.6600000000000D+00  0.0000000000000D+00  0.0000000000000D+00
   268  2.6700000000000D+00  0.0000000000000D+00  0.0000000000000D+00
   269  2.6800000000000D+00  0.0000000000000D+00  0.0000000000000D+00
   270  2.6900000000000D+00  0.0000000000000D+00  0.0000000000000D+00
   271  2.7000000000000D+00  0.0000000000000D+00  0.0000000000000D+00
   272  2.7100000000000D+00  0.0000000000000D+00  0.0000000000000D+00
   273  2.7200000000000D+00  0.0000000000000D+00  0.0000000000000D+00
   274  2.7300000000000D+00  0.0000000000000D+00  0.0000000000000D+00
   275  2.7400000000000D+00  0.0000000000000D+00  0.0000000000000D+00
   276  2.7500000000000D+00  0.0000000000000D+00  0.0000000000000D+00
   277  2.7600000000000D+00  0.0000000000000D+00  0.0000000000000D+00
   278  2.7700000000000D+00  0.0000000000000D+00  0.0000000000000D+00
   279  2.7800000000000D+00  0.0000000000000D+00  0.0000000000000D+00
   280  2.7900000000000D+00  0.0000000000000D+00  0.0000000000000D+00
   281  2.8000000000000D+00  0.0000000000000D+00  0.0000000000000D+00
   282  2.8100000000000D+00  0.0000000000000D+00  0.0000000000000D+00
   283  2.8200000000000D+00  0.0000000000000D+00  0.0000000000000D+00
   284  2.8300000000000D+00  0.0000000000000D+00  0.0000000000000D+00
   285  2.8400000000000D+00  0.0000000000000D+00  0.0000000000000D+00
   286  2.8500000000000D+00  0.0000000000000D+00  0.0000000000000D+00
   287  2.8600000000000D+00  0.0000000000000D+00  0.0000000000000D+00
   288  2.8700000000000D+00  0.0000000000000D+00  0.0000000000000D+00
   289  2.8800000000000D+00  0.0000000000000D+00  0.0000000000000D+00
   290  2.8900000000000D+00  0.0000000000000D+00  0.0000000000000D+00
   291  2.9000000000000D+00  0.0000000000000D+00  0.0000000000000D+00
   292  2.9100000000000D+00  0.0000000000000D+00  0.0000000000000D+00
   293  2.9200000000000D+00  0.0000000000000D+00  0.0000000000000D+00
   294  2.9300000000000D+00  0.0000000000000D+00  0.0000000000000D+00
   295  2.9400000000000D+00  0.0000000000000D+00  0.0000000000000D+00
   296  2.9500000000000D+00  0.0000000000000D+00  0.0000000000000D+00
   297  2.9600000000000D+00  0.0000000000000D+00  0.0000000000000D+00
   298  2.9700000000000D+00  0.0000000000000D+00  0.0000000000000D+00
   299  2.9800000000000D+00  0.0000000000000D+00  0.0000000000000D+00
   300  2.9900000000000D+00  0.0000000000000D+00  0.0000000000000D+00
   301  3.0000000000000D+00  0.0000000000000D+00  0.0000000000000D+00
   302  3.0100000000000D+00  0.0000000000000D+00  0.0000000000000D+00
   303  3.0200000000000D+00  0.0000000000000D+00  0.0000000000000D+00
   304  3.0300000000000D+00  0.0000000000000D+00  0.0000000000000D+00
   305  3.0400000000000D+00  0.0000000000000D+00  0.0000000000000D+00
   306  3.0500000000000D+00  0.0000000000000D+00  0.0000000000000D+00
   307  3.0600000000000D+00  0.0000000000000D+00  0.0000000000000D+00
   308  3.0700000000000D+00  0.0000000000000D+00  0.0000000000000D+00
   309  3.0800000000000D+00  0.0000000000000D+00  0.0000000000000D+00
   310  3.0900000000000D+00  0.0000000000000D+00  0.0000000000000D+00
   311  3.1000000000000D+00  0.0000000000000D+00  0.0000000000000D+00
   312  3.1100000000000D+00  0.0000000000000D+00  0.0000000000000D+00
   313  3.1200000000000D+00  0.0000000000000D+00  0.0000000000000D+00
   314  3.1300000000000D+00  0.0000000000000D+00  0.0000000000000D+00
   315  3.1400000000000D+00  0.0000000000000D+00  0.0000000000000D+00
   316  3.1500000000000D+00  0.0000000000000D+00  0.0000000000000D+00
   317  3.1600000000000D+00  0.0000000000000D+00  0.0000000000000D+00
   318  3.1700000000000D+00  0.0000000000000D+00  0.0000000000000D+00
   319  3.1800000000000D+00  0.0000000000000D+00  0.0000000000000D+00
   320  3.1900000000000D+00  0.0000000000000D+00  0.0000000000000D+00
   321  3.2000000000000D+00  0.0000000000000D+00  0.0000000000000D+00
   322  3.2100000000000D+00  0.0000000000000D+00  0.0000000000000D+00
   323  3.2200000000000D+00  0.0000000000000D+00  0.0000000000000D+00
   324  3.2300000000000D+00  0.0000000000000D+00  0.0000000000000D+00
   325  3.2400000000000D+00  0.0000000000000D+00  0.0000000000000D+00
   326  3.2500000000000D+00  0.0000000000000D+00  0.0000000000000D+00
   327  3.2600000000000D+00  0.0000000000000D+00  0.0000000000000D+00
   328  3.2700000000000D+00  0.0000000000000D+00  0.0000000000000D+00
   329  3.2800000000000D+00  0.0000000000000D+00  0.0000000000000D+00
   330  3.2900000000000D+00  0.0000000000000D+00  0.0000000000000D+00
   331  3.3000000000000D+00  0.0000000000000D+00  0.0000000000000D+00
   332  3.3100000000000D+00  0.0000000000000D+00  0.0000000000000D+00
   333  3.3200000000000D+00  0.0000000000000D+00  0.0000000000000D+00
   334  3.3300000000000D+00  0.0000000000000D+00  0.0000000000000D+00
   335  3.3400000000000D+00  0.0000000000000D+00  0.0000000000000D+00
   336  3.3500000000000D+00  0.0000000000000D+00  0.0000000000000D+00
   337  3.3600000000000D+00  0.0000000000000D+00  0.0000000000000D+00
   338  3.3700000000000D+00  0.0000000000000D+00  0.0000000000000D+00
   339  3.3800000000000D+00  0.0000000000000D+00  0.0000000000000D+00
   340  3.3900000000000D+00  0.0000000000000D+00  0.0000000000000D+00
   341  3.4000000000000D+00  0.0000000000000D+00  0.0000000000000D+00
   342  3.4100000000000D+00  0.0000000000000D+00  0.0000000000000D+00
   343  3.4200000000000D+00  0.0000000000000D+00  0.0000000000000D+00
   344  3.4300000000000D+00  0.0000000000000D+00  0.0000000000000D+00
   345  3.4400000000000D+00  0.0000000000000D+00  0.0000000000000D+00
   346  3.4500000000000D+00  0.0000000000000D+00  0.0000000000000D+00
   347  3.4600000000000D+00  0.0000000000000D+00  0.0000000000000D+00
   348  3.4700000000000D+00  0.0000000000000D+00  0.0000000000000D+00
   349  3.4800000000000D+00  0.0000000000000D+00  0.0000000000000D+00
   350  3.4900000000000D+00  0.0000000000000D+00  0.0000000000000D+00
   351  3.5000000000000D+00  0.0000000000000D+00  0.0000000000000D+00
   352  3.5100000000000D+00  0.0000000000000D+00  0.0000000000000D+00
   353  3.5200000000000D+00  0.0000000000000D+00  0.0000000000000D+00
   354  3.5300000000000D+00  0.0000000000000D+00  0.0000000000000D+00
   355  3.5400000000000D+00  0.0000000000000D+00  0.0000000000000D+00
   356  3.5500000000000D+00  0.0000000000000D+00  0.0000000000000D+00
   357  3.5600000000000D+00  0.0000000000000D+00  0.0000000000000D+00
   358  3.5700000000000D+00  0.0000000000000D+00  0.0000000000000D+00
   359  3.5800000000000D+00  0.0000000000000D+00  0.0000000000000D+00
   360  3.5900000000000D+00  0.0000000000000D+00  0.0000000000000D+00
   361  3.6000000000000D+00  0.0000000000000D+00  0.0000000000000D+00
   362  3.6100000000000D+00  0.0000000000000D+00  0.0000000000000D+00
   363  3.6200000000000D+00  0.0000000000000D+00  0.0000000000000D+00
   364  3.6300000000000D+00  0.0000000000000D+00  0.0000000000000D+00
   365  3.6400000000000D+00  0.0000000000000D+00  0.0000000000000D+00
   366  3.6500000000000D+00  0.0000000000000D+00  0.0000000000000D+00
   367  3.6600000000000D+00  0.0000000000000D+00  0.0000000000000D+00
   368  3.6700000000000D+00  0.0000000000000D+00  0.0000000000000D+00
   369  3.6800000000000D+00  0.0000000000000D+00  0.0000000000000D+00
   370  3.6900000000000D+00  0.0000000000000D+00  0.0000000000000D+00
   371  3.7000000000000D+00  0.0000000000000D+00  0.0000000000000D+00
   372  3.7100000000000D+00  0.0000000000000D+00  0.0000000000000D+00
   373  3.7200000000000D+00  0.0000000000000D+00  0.0000000000000D+00
   374  3.7300000000000D+00  0.0000000000000D+00  0.0000000000000D+00
   375  3.7400000000000D+00  0.0000000000000D+00  0.0000000000000D+00
   376  3.7500000000000D+00  0.0000000000000D+00  0.0000000000000D+00
   377  3.7600000000000D+00  0.0000000000000D+00  0.0000000000000D+00
   378  3.7700000000000D+00  0.0000000000000D+00  0.0000000000000D+00
   379  3.7800000000000D+00  0.0000000000000D+00  0.0000000000000D+00
   380  3.7900000000000D+00  0.0000000000000D+00  0.0000000000000D+00
   381  3.8000000000000D+00  0.0000000000000D+00  0.0000000000000D+00
   382  3.8100000000000D+00  0.0000000000000D+00  0.0000000000000D+00
   383  3.8200000000000D+00  0.0000000000000D+00  0.0000000000000D+00
   384  3.8300000000000D+00  0.0000000000000D+00  0.0000000000000D+00
   385  3.8400000000000D+00  0.0000000000000D+00  0.0000000000000D+00
   386  3.8500000000000D+00  0.0000000000000D+00  0.0000000000000D+00
   387  3.8600000000000D+00  0.0000000000000D+00  0.0000000000000D+00
   388  3.8700000000000D+00  0.0000000000000D+00  0.0000000000000D+00
   389  3.8800000000000D+00  0.0000000000000D+00  0.0000000000000D+00
   390  3.8900000000000D+00  0.0000000000000D+00  0.0000000000000D+00
   391  3.9000000000000D+00  0.0000000000000D+00  0.0000000000000D+00
   392  3.9100000000000D+00  0.0000000000000D+00  0.0000000000000D+00
   393  3.9200000000000D+00  0.0000000000000D+00  0.0000000000000D+00
   394  3.9300000000000D+00  0.0000000000000D+00  0.0000000000000D+00
   395  3.9400000000000D+00  0.0000000000000D+00  0.0000000000000D+00
   396  3.9500000000000D+00  0.0000000000000D+00  0.0000000000000D+00
   397  3.9600000000000D+00  0.0000000000000D+00  0.0000000000000D+00
   398  3.9700000000000D+00  0.0000000000000D+00  0.0000000000000D+00
   399  3.9800000000000D+00  0.0000000000000D+00  0.0000000000000D+00
   400  3.9900000000000D+00  0.0000000000000D+00  0.0000000000000D+00
   401  4.0000000000000D+00  0.0000000000000D+00  0.0000000000000D+00
   402  4.0100000000000D+00  0.0000000000000D+00  0.0000000000000D+00
   403  4.0200000000000D+00  0.0000000000000D+00  0.0000000000000D+00
   404  4.0300000000000D+00  0.0000000000000D+00  0.0000000000000D+00
   405  4.0400000000000D+00  0.0000000000000D+00  0.0000000000000D+00
   406  4.0500000000000D+00  0.0000000000000D+00  0.0000000000000D+00
   407  4.0600000000000D+00  0.0000000000000D+00  0.0000000000000D+00
   408  4.0700000000000D+00  0.0000000000000D+00  0.0000000000000D+00
   409  4.0800000000000D+00  0.0000000000000D+00  0.0000000000000D+00
   410  4.0900000000000D+00  0.0000000000000D+00  0.0000000000000D+00
   411  4.1000000000000D+00  0.0000000000000D+00  0.0000000000000D+00
   412  4.1100000000000D+00  0.0000000000000D+00  0.0000000000000D+00
   413  4.1200000000000D+00  0.0000000000000D+00  0.0000000000000D+00
   414  4.1300000000000D+00  0.0000000000000D+00  0.0000000000000D+00
   415  4.1400000000000D+00  0.0000000000000D+00  0.0000000000000D+00
   416  4.1500000000000D+00  0.0000000000000D+00  0.0000000000000D+00
   417  4.1600000000000D+00  0.0000000000000D+00  0.0000000000000D+00
   418  4.1700000000000D+00  0.0000000000000D+00  0.0000000000000D+00
   419  4.1800000000000D+00  0.0000000000000D+00  0.0000000000000D+00
   420  4.1900000000000D+00  0.0000000000000D+00  0.0000000000000D+00
   421  4.2000000000000D+00  0.0000000000000D+00  0.0000000000000D+00
   422  4.2100000000000D+00  0.0000000000000D+00  0.0000000000000D+00