Sc    ONCVPSP-3.3.1  r_core=   2.91081   2.94574   2.37654
     21.0000     11.0000      210905    zatom,zion,pspd
     8 -116133   2     4   600     0    pspcod,pspxc,lmax,lloc,mmax,r2well
  5.99000000  0.00000000  0.00000000    rchrg fchrg qchrg
     2     3     2     0    nproj
     3     1           extension_switch
     3     3     0    nprojso
   0                        -3.5576683326386D-01  1.2898682610448D+00
     1  0.0000000000000D+00 -2.5253688029636D-12 -1.3147261057611D-12
     2  1.0000000000000D-02  1.6425216039982D-02  4.8595991144656D-02
     3  2.0000000000000D-02  3.2830425481280D-02  9.7125244774532D-02
     4  3.0000000000000D-02  4.9195687517924D-02  1.4552113096901D-01
     5  4.0000000000000D-02  6.5501192714236D-02  1.9371723480667D-01
     6  5.0000000000000D-02  8.1727328152800D-02  2.4164746339255D-01
     7  6.0000000000000D-02  9.7854741939589D-02  2.8924615231929D-01
     8  7.0000000000000D-02  1.1386440685493D-01  3.3644817137537D-01
     9  8.0000000000000D-02  1.2973768294153D-01  3.8318902931441D-01
    10  9.0000000000000D-02  1.4545637882391D-01  4.2940497750152D-01
    11  1.0000000000000D-01  1.6100281155734D-01  4.7503311225462D-01
    12  1.1000000000000D-01  1.7635986480885D-01  5.2001147570068D-01
    13  1.2000000000000D-01  1.9151104517766D-01  5.6427915496999D-01
    14  1.3000000000000D-01  2.0644053646800D-01  6.0777637955388D-01
    15  1.4000000000000D-01  2.2113325173358D-01  6.5044461665506D-01
    16  1.5000000000000D-01  2.3557488291919D-01  6.9222666436304D-01
    17  1.6000000000000D-01  2.4975194793258D-01  7.3306674249102D-01
    18  1.7000000000000D-01  2.6365183498714D-01  7.7291058091484D-01
    19  1.8000000000000D-01  2.7726284406425D-01  8.1170550525891D-01
    20  1.9000000000000D-01  2.9057422535285D-01  8.4940051977889D-01
    21  2.0000000000000D-01  3.0357621453282D-01  8.8594638729578D-01
    22  2.1000000000000D-01  3.1626006477846D-01  9.2129570604143D-01
    23  2.2000000000000D-01  3.2861807536823D-01  9.5540298328090D-01
    24  2.3000000000000D-01  3.4064361679721D-01  9.8822470558308D-01
    25  2.4000000000000D-01  3.5233115229965D-01  1.0197194056166D+00
    26  2.5000000000000D-01  3.6367625569975D-01  1.0498477253551D+00
    27  2.6000000000000D-01  3.7467562552029D-01  1.0785724755806D+00
    28  2.7000000000000D-01  3.8532709529029D-01  1.1058586915840D+00
    29  2.8000000000000D-01  3.9562964000455D-01  1.1316736849632D+00
    30  2.9000000000000D-01  4.0558337870023D-01  1.1559870914321D+00
    31  3.0000000000000D-01  4.1518957312740D-01  1.1787709145571D+00
    32  3.1000000000000D-01  4.2445062250324D-01  1.1999995653465D+00
    33  3.2000000000000D-01  4.3337005435159D-01  1.2196498976255D+00
    34  3.3000000000000D-01  4.4195251144226D-01  1.2377012391382D+00
    35  3.4000000000000D-01  4.5020373485690D-01  1.2541354183235D+00
    36  3.5000000000000D-01  4.5813054322077D-01  1.2689367867230D+00
    37  3.6000000000000D-01  4.6574080815214D-01  1.2820922369837D+00
    38  3.7000000000000D-01  4.7304342599334D-01  1.2935912164283D+00
    39  3.8000000000000D-01  4.8004828589992D-01  1.3034257361747D+00
    40  3.9000000000000D-01  4.8676623437616D-01  1.3115903757925D+00
    41  4.0000000000000D-01  4.9320903635725D-01  1.3180822834942D+00
    42  4.1000000000000D-01  4.9938933295006D-01  1.3229011718662D+00
    43  4.2000000000000D-01  5.0532059595570D-01  1.3260493091541D+00
    44  4.3000000000000D-01  5.1101707930809D-01  1.3275315061236D+00
    45  4.4000000000000D-01  5.1649376757379D-01  1.3273550985280D+00
    46  4.5000000000000D-01  5.2176632166817D-01  1.3255299252207D+00
    47  4.6000000000000D-01  5.2685102195328D-01  1.3220683019593D+00
    48  4.7000000000000D-01  5.3176470889220D-01  1.3169849909568D+00
    49  4.8000000000000D-01  5.3652472144340D-01  1.3102971662422D+00
    50  4.9000000000000D-01  5.4114883338739D-01  1.3020243749021D+00
    51  5.0000000000000D-01  5.4565518778563D-01  1.2921884942816D+00
    52  5.1000000000000D-01  5.5006222977917D-01  1.2808136852305D+00
    53  5.2000000000000D-01  5.5438863794104D-01  1.2679263414895D+00
    54  5.3000000000000D-01  5.5865325440274D-01  1.2535550353170D+00
    55  5.4000000000000D-01  5.6287501398034D-01  1.2377304594656D+00
    56  5.5000000000000D-01  5.6707287253070D-01  1.2204853656222D+00
    57  5.6000000000000D-01  5.7126573477221D-01  1.2018544994357D+00
    58  5.7000000000000D-01  5.7547238180781D-01  1.1818745322595D+00
    59  5.8000000000000D-01  5.7971139859073D-01  1.1605839897441D+00
    60  5.9000000000000D-01  5.8400110157497D-01  1.1380231774208D+00
    61  6.0000000000000D-01  5.8835946679391D-01  1.1142341034234D+00
    62  6.1000000000000D-01  5.9280405861044D-01  1.0892603984991D+00
    63  6.2000000000000D-01  5.9735195938149D-01  1.0631472334668D+00
    64  6.3000000000000D-01  6.0201970027884D-01  1.0359412342847D+00
    65  6.4000000000000D-01  6.0682319350539D-01  1.0076903948926D+00
    66  6.5000000000000D-01  6.1177766614370D-01  9.7844398800228D-01
    67  6.6000000000000D-01  6.1689759586948D-01  9.4825247400779D-01
    68  6.7000000000000D-01  6.2219664875834D-01  9.1716740819550D-01
    69  6.8000000000000D-01  6.2768761940885D-01  8.8524134643480D-01
    70  6.9000000000000D-01  6.3338237359853D-01  8.5252774953323D-01
    71  7.0000000000000D-01  6.3929179368300D-01  8.1908088644270D-01
    72  7.1000000000000D-01  6.4542572694033D-01  7.8495573650497D-01
    73  7.2000000000000D-01  6.5179293705476D-01  7.5020789092659D-01
    74  7.3000000000000D-01  6.5840105892447D-01  7.1489345367427D-01
    75  7.4000000000000D-01  6.6525655696852D-01  6.7906894198285D-01
    76  7.5000000000000D-01  6.7236468709753D-01  6.4279118666810D-01
    77  7.6000000000000D-01  6.7972946250167D-01  6.0611723243681D-01
    78  7.7000000000000D-01  6.8735362339764D-01  5.6910423838612D-01
    79  7.8000000000000D-01  6.9523861086428D-01  5.3180937888317D-01
    80  7.9000000000000D-01  7.0338454488342D-01  4.9428974501492D-01
    81  8.0000000000000D-01  7.1179020668950D-01  4.5660224679662D-01
    82  8.1000000000000D-01  7.2045302551733D-01  4.1880351632475D-01
    83  8.2000000000000D-01  7.2936906982375D-01  3.8094981205861D-01
    84  8.3000000000000D-01  7.3853304304385D-01  3.4309692441115D-01
    85  8.4000000000000D-01  7.4793828392771D-01  3.0530008282692D-01
    86  8.5000000000000D-01  7.5757677148873D-01  2.6761386452119D-01
    87  8.6000000000000D-01  7.6743913457879D-01  2.3009210505028D-01
    88  8.7000000000000D-01  7.7751466609022D-01  1.9278781087886D-01
    89  8.8000000000000D-01  7.8779134176884D-01  1.5575307410531D-01
    90  8.9000000000000D-01  7.9825584360652D-01  1.1903898950103D-01
    91  9.0000000000000D-01  8.0889358776599D-01  8.2695574014238D-02
    92  9.1000000000000D-01  8.1968875697502D-01  4.6771688883258D-02
    93  9.2000000000000D-01  8.3062433731125D-01  1.1314964497950D-02
    94  9.3000000000000D-01  8.4168215928368D-01 -2.3628271858132D-02
    95  9.4000000000000D-01  8.5284294310171D-01 -5.8013065258989D-02
    96  9.5000000000000D-01  8.6408634800717D-01 -9.1795899261806D-02
    97  9.6000000000000D-01  8.7539102553075D-01 -1.2493475879512D-01
    98  9.7000000000000D-01  8.8673467651955D-01 -1.5738918970487D-01
    99  9.8000000000000D-01  8.9809411176852D-01 -1.8912035486160D-01
   100  9.9000000000000D-01  9.0944531607602D-01 -2.2009108673930D-01
   101  1.0000000000000D+00  9.2076351552978D-01 -2.5026593638486D-01
   102  1.0100000000000D+00  9.3202324781813D-01 -2.7961121870489D-01
   103  1.0200000000000D+00  9.4319843534968D-01 -3.0809505400506D-01
   104  1.0300000000000D+00  9.5426246095335D-01 -3.3568740572517D-01
   105  1.0400000000000D+00  9.6518824592098D-01 -3.6236011432227D-01
   106  1.0500000000000D+00  9.7594833014502D-01 -3.8808692726180D-01
   107  1.0600000000000D+00  9.8651495409558D-01 -4.1284352508592D-01
   108  1.0700000000000D+00  9.9686014237291D-01 -4.3660754353667D-01
   109  1.0800000000000D+00  1.0069557885651D+00 -4.5935859172021D-01
   110  1.0900000000000D+00  1.0167737411344D+00 -4.8107826630699D-01
   111  1.1000000000000D+00  1.0262858900510D+00 -5.0175016177124D-01
   112  1.1100000000000D+00  1.0354642538890D+00 -5.2135987668159D-01
   113  1.1200000000000D+00  1.0442810670964D+00 -5.3989501606350D-01
   114  1.1300000000000D+00  1.0527088671484D+00 -5.5734518986217D-01
   115  1.1400000000000D+00  1.0607205812932D+00 -5.7370200754323D-01
   116  1.1500000000000D+00  1.0682896125997D+00 -5.8895906887534D-01
   117  1.1600000000000D+00  1.0753899250156D+00 -6.0311195094884D-01
   118  1.1700000000000D+00  1.0819961271508D+00 -6.1615819149096D-01
   119  1.1800000000000D+00  1.0880835544992D+00 -6.2809726854582D-01
   120  1.1900000000000D+00  1.0936283498197D+00 -6.3893057659449D-01
   121  1.2000000000000D+00  1.0986075414018D+00 -6.4866139919864D-01
   122  1.2100000000000D+00  1.1029991189484D+00 -6.5729487825802D-01
   123  1.2200000000000D+00  1.1067821068120D+00 -6.6483797997588D-01
   124  1.2300000000000D+00  1.1099366343334D+00 -6.7129945763684D-01
   125  1.2400000000000D+00  1.1124440030418D+00 -6.7668981130582D-01
   126  1.2500000000000D+00  1.1142867504782D+00 -6.8102124456070D-01
   127  1.2600000000000D+00  1.1154487104234D+00 -6.8430761837932D-01
   128  1.2700000000000D+00  1.1159150693222D+00 -6.8656440230614D-01
   129  1.2800000000000D+00  1.1156724187033D+00 -6.8780862302625D-01
   130  1.2900000000000D+00  1.1147088034117D+00 -6.8805881048089D-01
   131  1.3000000000000D+00  1.1130137654895D+00 -6.8733494166302D-01
   132  1.3100000000000D+00  1.1105783835457D+00 -6.8565838223211D-01
   133  1.3200000000000D+00  1.1073953074755D+00 -6.8305182609320D-01
   134  1.3300000000000D+00  1.1034587884181D+00 -6.7953923308791D-01
   135  1.3400000000000D+00  1.0987647038323D+00 -6.7514576494472D-01
   136  1.3500000000000D+00  1.0933105776105D+00 -6.6989771964138D-01
   137  1.3600000000000D+00  1.0870955951683D+00 -6.6382246433157D-01
   138  1.3700000000000D+00  1.0801206134346D+00 -6.5694836698915D-01
   139  1.3800000000000D+00  1.0723881657340D+00 -6.4930472692550D-01
   140  1.3900000000000D+00  1.0639024615313D+00 -6.4092170433373D-01
   141  1.4000000000000D+00  1.0546693810344D+00 -6.3183024901592D-01
   142  1.4100000000000D+00  1.0446964647049D+00 -6.2206202844544D-01
   143  1.4200000000000D+00  1.0339928976765D+00 -6.1164935532047D-01
   144  1.4300000000000D+00  1.0225694891747D+00 -6.0062511475859D-01
   145  1.4400000000000D+00  1.0104386469999D+00 -5.8902269128282D-01
   146  1.4500000000000D+00  9.9761434715502D-01 -5.7687589575098D-01
   147  1.4600000000000D+00  9.8411209877310D-01 -5.6421889236636D-01
   148  1.4700000000000D+00  9.6994890441222D-01 -5.5108612592420D-01
   149  1.4800000000000D+00  9.5514321592960D-01 -5.3751224942202D-01
   150  1.4900000000000D+00  9.3971488605015D-01 -5.2353205217913D-01
   151  1.5000000000000D+00  9.2368511583225D-01 -5.0918038859485D-01
   152  1.5100000000000D+00  9.0707639822916D-01 -4.9449210767000D-01
   153  1.5200000000000D+00  8.8991245792671D-01 -4.7950198342834D-01
   154  1.5300000000000D+00  8.7221818773217D-01 -4.6424464633597D-01
   155  1.5400000000000D+00  8.5401958168342D-01 -4.4875451586242D-01
   156  1.5500000000000D+00  8.3534366519940D-01 -4.3306573425994D-01
   157  1.5600000000000D+00  8.1621842246553D-01 -4.1721210169691D-01
   158  1.5700000000000D+00  7.9667272137828D-01 -4.0122701281635D-01
   159  1.5800000000000D+00  7.7673623628919D-01 -3.8514339483264D-01
   160  1.5900000000000D+00  7.5643936886199D-01 -3.6899364724050D-01
   161  1.6000000000000D+00  7.3581316732392D-01 -3.5280958322035D-01
   162  1.6100000000000D+00  7.1488924441839D-01 -3.3662237281968D-01
   163  1.6200000000000D+00  6.9369969436486D-01 -3.2046248796318D-01
   164  1.6300000000000D+00  6.7227700913487D-01 -3.0435964937744D-01
   165  1.6400000000000D+00  6.5065399435753D-01 -2.8834277545090D-01
   166  1.6500000000000D+00  6.2886368517312D-01 -2.7243993312021D-01
   167  1.6600000000000D+00  6.0693926233824D-01 -2.5667829077300D-01
   168  1.6700000000000D+00  5.8491396891865D-01 -2.4108407326087D-01
   169  1.6800000000000D+00  5.6282102784705D-01 -2.2568251898502D-01
   170  1.6900000000000D+00  5.4069356070462D-01 -2.1049783914758D-01
   171  1.7000000000000D+00  5.1856450796475D-01 -1.9555317910738D-01
   172  1.7100000000000D+00  4.9646655108168D-01 -1.8087058192836D-01
   173  1.7200000000000D+00  4.7443203661560D-01 -1.6647095404092D-01
   174  1.7300000000000D+00  4.5249290279686D-01 -1.5237403309412D-01
   175  1.7400000000000D+00  4.3068060867258D-01 -1.3859835790763D-01
   176  1.7500000000000D+00  4.0902606624683D-01 -1.2516124058437D-01
   177  1.7600000000000D+00  3.8755957571718D-01 -1.1207874068928D-01
   178  1.7700000000000D+00  3.6631076420589D-01 -9.9365641531245D-02
   179  1.7800000000000D+00  3.4530852806789D-01 -8.7035428458961D-02
   180  1.7900000000000D+00  3.2458097912698D-01 -7.5100269175985D-02
   181  1.8000000000000D+00  3.0415539493554D-01 -6.3570996000433D-02
   182  1.8100000000000D+00  2.8405817331493D-01 -5.2457090036005D-02
   183  1.8200000000000D+00  2.6431479133316D-01 -4.1766667201892D-02
   184  1.8300000000000D+00  2.4494976882239D-01 -3.1506466045498D-02
   185  1.8400000000000D+00  2.2598663671461D-01 -2.1681837312049D-02
   186  1.8500000000000D+00  2.0744791007504D-01 -1.2296735152382D-02
   187  1.8600000000000D+00  1.8935506629778D-01 -3.3537099684637D-03
   188  1.8700000000000D+00  1.7172852806355D-01  5.1460972570315D-03
   189  1.8800000000000D+00  1.5458765413754D-01  1.3202961342654D-02
   190  1.8900000000000D+00  1.3795072236247D-01  2.0818566450351D-02
   191  1.9000000000000D+00  1.2183495420379D-01  2.7996031650526D-02
   192  1.9100000000000D+00  1.0625647195624D-01  3.4739867170905D-02
   193  1.9200000000000D+00  9.1230314129279D-02  4.1055981081089D-02
   194  1.9300000000000D+00  7.6770540550697D-02  4.6951761660323D-02
   195  1.9400000000000D+00  6.2890288582566D-02  5.2436104732141D-02
   196  1.9500000000000D+00  4.9601390611700D-02  5.7519040267974D-02
   197  1.9600000000000D+00  3.6914177655708D-02  6.2211534423785D-02
   198  1.9700000000000D+00  2.4837287118524D-02  6.6525236849441D-02
   199  1.9800000000000D+00  1.3377288297549D-02  7.0472071605997D-02
   200  1.9900000000000D+00  2.5386766452043D-03  7.4064150788028D-02
   201  2.0000000000000D+00 -7.6759955784559D-03  7.7313802353872D-02
   202  2.0100000000000D+00 -1.7266030662998D-02  8.0233553018599D-02
   203  2.0200000000000D+00 -2.6232635098686D-02  8.2835995052653D-02
   204  2.0300000000000D+00 -3.4578837109115D-02  8.5133762315566D-02
   205  2.0400000000000D+00 -4.2309449176562D-02  8.7139465562427D-02
   206  2.0500000000000D+00 -4.9431013844649D-02  8.8865640868616D-02
   207  2.0600000000000D+00 -5.5951745150711D-02  9.0324700551056D-02
   208  2.0700000000000D+00 -6.1881465299585D-02  9.1528887282003D-02
   209  2.0800000000000D+00 -6.7231537056285D-02  9.2490231445890D-02
   210  2.0900000000000D+00 -7.2014790265809D-02  9.3220513503876D-02
   211  2.1000000000000D+00 -7.6245444557624D-02  9.3731229796127D-02
   212  2.1100000000000D+00 -7.9939026832911D-02  9.4033563611729D-02
   213  2.1200000000000D+00 -8.3112284014815D-02  9.4138361427448D-02
   214  2.1300000000000D+00 -8.5783092701851D-02  9.4056112789735D-02
   215  2.1400000000000D+00 -8.7970362991904D-02  9.3796937614818D-02
   216  2.1500000000000D+00 -8.9693940225783D-02  9.3370576626741D-02
   217  2.1600000000000D+00 -9.0974502644014D-02  9.2786387996366D-02
   218  2.1700000000000D+00 -9.1833455564133D-02  9.2053349886899D-02
   219  2.1800000000000D+00 -9.2292824890830D-02  9.1180065361381D-02
   220  2.1900000000000D+00 -9.2375146535113D-02  9.0174775286089D-02
   221  2.2000000000000D+00 -9.2103356005756D-02  8.9045373271664D-02
   222  2.2100000000000D+00 -9.1500677161379D-02  8.7799424836441D-02
   223  2.2200000000000D+00 -9.0590510267918D-02  8.6444191406384D-02
   224  2.2300000000000D+00 -8.9396321680816D-02  8.4986655211315D-02
   225  2.2400000000000D+00 -8.7941534616809D-02  8.3433547863651D-02
   226  2.2500000000000D+00 -8.6249422367729D-02  8.1791380121870D-02
   227  2.2600000000000D+00 -8.4343004166863D-02  8.0066472279992D-02
   228  2.2700000000000D+00 -8.2244946036444D-02  7.8264984749479D-02
   229  2.2800000000000D+00 -7.9977464937172D-02  7.6392948478948D-02
   230  2.2900000000000D+00 -7.7562238616000D-02  7.4456293890969D-02
   231  2.3000000000000D+00 -7.5020323050788D-02  7.2460876600751D-02
   232  2.3100000000000D+00 -7.2372073189358D-02  7.0412503314240D-02
   233  2.3200000000000D+00 -6.9637073877804D-02  6.8316951748043D-02
   234  2.3300000000000D+00 -6.6834078490842D-02  6.6179986655068D-02
   235  2.3400000000000D+00 -6.3980950928475D-02  6.4007376301550D-02
   236  2.3500000000000D+00 -6.1094622257098D-02  6.1804897928020D-02
   237  2.3600000000000D+00 -5.8191052063756D-02  5.9578342252853D-02
   238  2.3700000000000D+00 -5.5285196105293D-02  5.7333515481476D-02
   239  2.3800000000000D+00 -5.2390987771568D-02  5.5076230647161D-02
   240  2.3900000000000D+00 -4.9521323106673D-02  5.2812299303234D-02
   241  2.4000000000000D+00 -4.6688053923843D-02  5.0547518614039D-02
   242  2.4100000000000D+00 -4.3901991275653D-02  4.8287651263204D-02
   243  2.4200000000000D+00 -4.1172912617609D-02  4.6038405488445D-02
   244  2.4300000000000D+00 -3.8509576479665D-02  4.3805410977958D-02
   245  2.4400000000000D+00 -3.5919743774845D-02  4.1594191563414D-02
   246  2.4500000000000D+00 -3.3410203239937D-02  3.9410137265073D-02
   247  2.4600000000000D+00 -3.0986801767734D-02  3.7258475054254D-02
   248  2.4700000000000D+00 -2.8654478459926D-02  3.5144239521229D-02
   249  2.4800000000000D+00 -2.6417303066840D-02  3.3072242156731D-02
   250  2.4900000000000D+00 -2.4278515709088D-02  3.1047043464544D-02
   251  2.5000000000000D+00 -2.2240568515791D-02  2.9072926728004D-02
   252  2.5100000000000D+00 -2.0305171369259D-02  2.7153870168622D-02
   253  2.5200000000000D+00 -1.8473335721069D-02  2.5293525601292D-02
   254  2.5300000000000D+00 -1.6745419297215D-02  2.3495199472896D-02
   255  2.5400000000000D+00 -1.5121174053306D-02  2.1761832713496D-02
   256  2.5500000000000D+00 -1.3599790408912D-02  2.0095988936299D-02
   257  2.5600000000000D+00 -1.2179941612608D-02  1.8499845355623D-02
   258  2.5700000000000D+00 -1.0859830151501D-02  1.6975183361238D-02
   259  2.5800000000000D+00 -9.6372302789175D-03  1.5523387077723D-02
   260  2.5900000000000D+00 -8.5095299272587D-03  1.4145444935570D-02
   261  2.6000000000000D+00 -7.4737734342374D-03  1.2841951794031D-02
   262  2.6100000000000D+00 -6.5267013089728D-03  1.1613117077969D-02
   263  2.6200000000000D+00 -5.6647887637282D-03  1.0458776053758D-02
   264  2.6300000000000D+00 -4.8842840543060D-03  9.3784022883301D-03
   265  2.6400000000000D+00 -4.1812449714027D-03  8.3711237162207D-03
   266  2.6500000000000D+00 -3.5515738956865D-03  7.4357413879720D-03
   267  2.6600000000000D+00 -2.9910519786435D-03  6.5707496293039D-03
   268  2.6700000000000D+00 -2.4953720561089D-03  5.7743580631909D-03
   269  2.6800000000000D+00 -2.0601704969697D-03  5.0445149445194D-03
   270  2.6900000000000D+00 -1.6810577670092D-03  4.3789317669619D-03
   271  2.7000000000000D+00 -1.3536475779707D-03  3.7751091834624D-03
   272  2.7100000000000D+00 -1.0735857287585D-03  3.2303620277241D-03
   273  2.7200000000000D+00 -8.3657739923398D-04  2.7418452424748D-03
   274  2.7300000000000D+00 -6.3841249769389D-04  2.3065816146133D-03
   275  2.7400000000000D+00 -4.7499138043333D-04  1.9214859306759D-03
   276  2.7500000000000D+00 -3.4234854919172D-04  1.5833903636906D-03
   277  2.7600000000000D+00 -2.3667471799059D-04  1.2890706623600D-03
   278  2.7700000000000D+00 -1.5433838526810D-04  1.0352689990182D-03
   279  2.7800000000000D+00 -9.1905794261668D-05  8.1871655106199D-04
   280  2.7900000000000D+00 -4.6159315939227D-05  6.3615618280142D-04
   281  2.8000000000000D+00 -1.4114457644061D-05  4.8436318036100D-04
   282  2.8100000000000D+00  6.9669045251364D-06  3.6016221949237D-04
   283  2.8200000000000D+00  1.9566218193624D-05  2.6044323052586D-04
   284  2.8300000000000D+00  2.5860663137423D-05  1.8220195498964D-04
   285  2.8400000000000D+00  2.7759749972161D-05  1.2252329870369D-04
   286  2.8500000000000D+00  2.6726579130331D-05  7.8564015634550D-05
   287  2.8600000000000D+00  2.4317404373055D-05  4.7688104509087D-05
   288  2.8700000000000D+00  2.1706578477912D-05  2.7374762808925D-05
   289  2.8800000000000D+00  1.9879896844191D-05  1.5353042003257D-05
   290  2.8900000000000D+00  1.9072775761210D-05  9.3553293420718D-06
   291  2.9000000000000D+00  1.8161554613633D-05  6.8544396959156D-06
   292  2.9100000000000D+00  1.6400618133489D-05  5.9143619507246D-06
   293  2.9200000000000D+00  1.2195122721174D-05  4.4784528411909D-06
   294  2.9300000000000D+00  7.1204792068601D-06  2.7457429606301D-06
   295  2.9400000000000D+00  2.2772965476569D-06  9.2905746886383D-07
   296  2.9500000000000D+00 -8.3863277815979D-07 -2.8793962829575D-07
   297  2.9600000000000D+00 -1.6441417653595D-06 -5.7114760667808D-07
   298  2.9700000000000D+00 -1.1893471025228D-06 -4.1864382771804D-07
   299  2.9800000000000D+00 -1.2291820824023D-07 -4.3854214463756D-08
   300  2.9900000000000D+00  2.9598204413747D-07  8.2003696506893D-08
   301  3.0000000000000D+00  3.6710481830010D-07  1.0044577130780D-07
   302  3.0100000000000D+00  1.9332311506387D-07  5.2325188566404D-08
   303  3.0200000000000D+00 -1.4380574763730D-08 -5.2006572798629D-09
   304  3.0300000000000D+00 -4.3285887532751D-08 -1.5654107698136D-08
   305  3.0400000000000D+00 -4.0198987084109D-08 -1.4537746804764D-08
   306  3.0500000000000D+00 -1.1356741965259D-08 -4.1071044619239D-09
   307  3.0600000000000D+00  0.0000000000000D+00  0.0000000000000D+00
   308  3.0700000000000D+00  0.0000000000000D+00  0.0000000000000D+00
   309  3.0800000000000D+00  0.0000000000000D+00  0.0000000000000D+00
   310  3.0900000000000D+00  0.0000000000000D+00  0.0000000000000D+00
   311  3.1000000000000D+00  0.0000000000000D+00  0.0000000000000D+00
   312  3.1100000000000D+00  0.0000000000000D+00  0.0000000000000D+00
   313  3.1200000000000D+00  0.0000000000000D+00  0.0000000000000D+00
   314  3.1300000000000D+00  0.0000000000000D+00  0.0000000000000D+00
   315  3.1400000000000D+00  0.0000000000000D+00  0.0000000000000D+00
   316  3.1500000000000D+00  0.0000000000000D+00  0.0000000000000D+00
   317  3.1600000000000D+00  0.0000000000000D+00  0.0000000000000D+00
   318  3.1700000000000D+00  0.0000000000000D+00  0.0000000000000D+00
   319  3.1800000000000D+00  0.0000000000000D+00  0.0000000000000D+00
   320  3.1900000000000D+00  0.0000000000000D+00  0.0000000000000D+00
   321  3.2000000000000D+00  0.0000000000000D+00  0.0000000000000D+00
   322  3.2100000000000D+00  0.0000000000000D+00  0.0000000000000D+00
   323  3.2200000000000D+00  0.0000000000000D+00  0.0000000000000D+00
   324  3.2300000000000D+00  0.0000000000000D+00  0.0000000000000D+00
   325  3.2400000000000D+00  0.0000000000000D+00  0.0000000000000D+00
   326  3.2500000000000D+00  0.0000000000000D+00  0.0000000000000D+00
   327  3.2600000000000D+00  0.0000000000000D+00  0.0000000000000D+00
   328  3.2700000000000D+00  0.0000000000000D+00  0.0000000000000D+00
   329  3.2800000000000D+00  0.0000000000000D+00  0.0000000000000D+00
   330  3.2900000000000D+00  0.0000000000000D+00  0.0000000000000D+00
   331  3.3000000000000D+00  0.0000000000000D+00  0.0000000000000D+00
   332  3.3100000000000D+00  0.0000000000000D+00  0.0000000000000D+00
   333  3.3200000000000D+00  0.0000000000000D+00  0.0000000000000D+00
   334  3.3300000000000D+00  0.0000000000000D+00  0.0000000000000D+00
   335  3.3400000000000D+00  0.0000000000000D+00  0.0000000000000D+00
   336  3.3500000000000D+00  0.0000000000000D+00  0.0000000000000D+00
   337  3.3600000000000D+00  0.0000000000000D+00  0.0000000000000D+00
   338  3.3700000000000D+00  0.0000000000000D+00  0.0000000000000D+00
   339  3.3800000000000D+00  0.0000000000000D+00  0.0000000000000D+00
   340  3.3900000000000D+00  0.0000000000000D+00  0.0000000000000D+00
   341  3.4000000000000D+00  0.0000000000000D+00  0.0000000000000D+00
   342  3.4100000000000D+00  0.0000000000000D+00  0.0000000000000D+00
   343  3.4200000000000D+00  0.0000000000000D+00  0.0000000000000D+00
   344  3.4300000000000D+00  0.0000000000000D+00  0.0000000000000D+00
   345  3.4400000000000D+00  0.0000000000000D+00  0.0000000000000D+00
   346  3.4500000000000D+00  0.0000000000000D+00  0.0000000000000D+00
   347  3.4600000000000D+00  0.0000000000000D+00  0.0000000000000D+00
   348  3.4700000000000D+00  0.0000000000000D+00  0.0000000000000D+00
   349  3.4800000000000D+00  0.0000000000000D+00  0.0000000000000D+00
   350  3.4900000000000D+00  0.0000000000000D+00  0.0000000000000D+00
   351  3.5000000000000D+00  0.0000000000000D+00  0.0000000000000D+00
   352  3.5100000000000D+00  0.0000000000000D+00  0.0000000000000D+00
   353  3.5200000000000D+00  0.0000000000000D+00  0.0000000000000D+00
   354  3.5300000000000D+00  0.0000000000000D+00  0.0000000000000D+00
   355  3.5400000000000D+00  0.0000000000000D+00  0.0000000000000D+00
   356  3.5500000000000D+00  0.0000000000000D+00  0.0000000000000D+00
   357  3.5600000000000D+00  0.0000000000000D+00  0.0000000000000D+00
   358  3.5700000000000D+00  0.0000000000000D+00  0.0000000000000D+00
   359  3.5800000000000D+00  0.0000000000000D+00  0.0000000000000D+00
   360  3.5900000000000D+00  0.0000000000000D+00  0.0000000000000D+00
   361  3.6000000000000D+00  0.0000000000000D+00  0.0000000000000D+00
   362  3.6100000000000D+00  0.0000000000000D+00  0.0000000000000D+00
   363  3.6200000000000D+00  0.0000000000000D+00  0.0000000000000D+00
   364  3.6300000000000D+00  0.0000000000000D+00  0.0000000000000D+00
   365  3.6400000000000D+00  0.0000000000000D+00  0.0000000000000D+00
   366  3.6500000000000D+00  0.0000000000000D+00  0.0000000000000D+00
   367  3.6600000000000D+00  0.0000000000000D+00  0.0000000000000D+00
   368  3.6700000000000D+00  0.0000000000000D+00  0.0000000000000D+00
   369  3.6800000000000D+00  0.0000000000000D+00  0.0000000000000D+00
   370  3.6900000000000D+00  0.0000000000000D+00  0.0000000000000D+00
   371  3.7000000000000D+00  0.0000000000000D+00  0.0000000000000D+00
   372  3.7100000000000D+00  0.0000000000000D+00  0.0000000000000D+00
   373  3.7200000000000D+00  0.0000000000000D+00  0.0000000000000D+00
   374  3.7300000000000D+00  0.0000000000000D+00  0.0000000000000D+00
   375  3.7400000000000D+00  0.0000000000000D+00  0.0000000000000D+00
   376  3.7500000000000D+00  0.0000000000000D+00  0.0000000000000D+00
   377  3.7600000000000D+00  0.0000000000000D+00  0.0000000000000D+00
   378  3.7700000000000D+00  0.0000000000000D+00  0.0000000000000D+00
   379  3.7800000000000D+00  0.0000000000000D+00  0.0000000000000D+00
   380  3.7900000000000D+00  0.0000000000000D+00  0.0000000000000D+00
   381  3.8000000000000D+00  0.0000000000000D+00  0.0000000000000D+00
   382  3.8100000000000D+00  0.0000000000000D+00  0.0000000000000D+00
   383  3.8200000000000D+00  0.0000000000000D+00  0.0000000000000D+00
   384  3.8300000000000D+00  0.0000000000000D+00  0.0000000000000D+00
   385  3.8400000000000D+00  0.0000000000000D+00  0.0000000000000D+00
   386  3.8500000000000D+00  0.0000000000000D+00  0.0000000000000D+00
   387  3.8600000000000D+00  0.0000000000000D+00  0.0000000000000D+00
   388  3.8700000000000D+00  0.0000000000000D+00  0.0000000000000D+00
   389  3.8800000000000D+00  0.0000000000000D+00  0.0000000000000D+00
   390  3.8900000000000D+00  0.0000000000000D+00  0.0000000000000D+00
   391  3.9000000000000D+00  0.0000000000000D+00  0.0000000000000D+00
   392  3.9100000000000D+00  0.0000000000000D+00  0.0000000000000D+00
   393  3.9200000000000D+00  0.0000000000000D+00  0.0000000000000D+00
   394  3.9300000000000D+00  0.0000000000000D+00  0.0000000000000D+00
   395  3.9400000000000D+00  0.0000000000000D+00  0.0000000000000D+00
   396  3.9500000000000D+00  0.0000000000000D+00  0.0000000000000D+00
   397  3.9600000000000D+00  0.0000000000000D+00  0.0000000000000D+00
   398  3.9700000000000D+00  0.0000000000000D+00  0.0000000000000D+00
   399  3.9800000000000D+00  0.0000000000000D+00  0.0000000000000D+00
   400  3.9900000000000D+00  0.0000000000000D+00  0.0000000000000D+00
   401  4.0000000000000D+00  0.0000000000000D+00  0.0000000000000D+00
   402  4.0100000000000D+00  0.0000000000000D+00  0.0000000000000D+00
   403  4.0200000000000D+00  0.0000000000000D+00  0.0000000000000D+00
   404  4.0300000000000D+00  0.0000000000000D+00  0.0000000000000D+00
   405  4.0400000000000D+00  0.0000000000000D+00  0.0000000000000D+00
   406  4.0500000000000D+00  0.0000000000000D+00  0.0000000000000D+00
   407  4.0600000000000D+00  0.0000000000000D+00  0.0000000000000D+00
   408  4.0700000000000D+00  0.0000000000000D+00  0.0000000000000D+00
   409  4.0800000000000D+00  0.0000000000000D+00  0.0000000000000D+00
   410  4.0900000000000D+00  0.0000000000000D+00  0.0000000000000D+00
   411  4.1000000000000D+00  0.0000000000000D+00  0.0000000000000D+00
   412  4.1100000000000D+00  0.0000000000000D+00  0.0000000000000D+00
   413  4.1200000000000D+00  0.0000000000000D+00  0.0000000000000D+00
   414  4.1300000000000D+00  0.0000000000000D+00  0.0000000000000D+00
   415  4.1400000000000D+00  0.0000000000000D+00  0.0000000000000D+00
   416  4.1500000000000D+00  0.0000000000000D+00  0.0000000000000D+00
   417  4.1600000000000D+00  0.0000000000000D+00  0.0000000000000D+00
   418  4.1700000000000D+00  0.0000000000000D+00  0.0000000000000D+00
   419  4.1800000000000D+00  0.0000000000000D+00  0.0000000000000D+00
   420  4.1900000000000D+00  0.0000000000000D+00  0.0000000000000D+00
   421  4.2000000000000D+00  0.0000000000000D+00  0.0000000000000D+00
   422  4.2100000000000D+00  0.0000000000000D+00  0.0000000000000D+00