Se    ONCVPSP-3.3.1  r_core=   2.63348   2.72943   3.38315
     34.0000      6.0000      210905    zatom,zion,pspd
     8 -116133   2     4   600     0    pspcod,pspxc,lmax,lloc,mmax,r2well
  5.99000000  0.00000000  0.00000000    rchrg fchrg qchrg
     2     2     2     0     0    nproj
     1     1           extension_switch
   0                         6.1986577084976D+00  3.8950640925425D-01
     1  0.0000000000000D+00  5.8150984028060D-12 -1.3158418799009D-11
     2  1.0000000000000D-02  3.1341989996881D-02 -1.5906370158500D-02
     3  2.0000000000000D-02  6.2673519136487D-02 -3.1804176044652D-02
     4  3.0000000000000D-02  9.3984075644078D-02 -4.7684752697481D-02
     5  4.0000000000000D-02  1.2526304622614D-01 -6.3539234455163D-02
     6  5.0000000000000D-02  1.5649966609987D-01 -7.9358456292223D-02
     7  6.0000000000000D-02  1.8768296996532D-01 -9.5132857172610D-02
     8  7.0000000000000D-02  2.1880174422732D-01 -1.1085238607510D-01
     9  8.0000000000000D-02  2.4984448076905D-01 -1.2650641133430D-01
    10  9.0000000000000D-02  2.8079933257128D-01 -1.4208363392422D-01
    11  1.0000000000000D-01  3.1165407146317D-01 -1.5757200529189D-01
    12  1.1000000000000D-01  3.4239604828042D-01 -1.7295865032589D-01
    13  1.2000000000000D-01  3.7301215569527D-01 -1.8822979601958D-01
    14  1.3000000000000D-01  4.0348879397052D-01 -2.0337070636013D-01
    15  1.4000000000000D-01  4.3381183987607D-01 -2.1836562394400D-01
    16  1.5000000000000D-01  4.6396661899153D-01 -2.3319771878592D-01
    17  1.6000000000000D-01  4.9393788160290D-01 -2.4784904475242D-01
    18  1.7000000000000D-01  5.2370978238435D-01 -2.6230050401348D-01
    19  1.8000000000000D-01  5.5326586403819D-01 -2.7653181986508D-01
    20  1.9000000000000D-01  5.8258904504810D-01 -2.9052151823404D-01
    21  2.0000000000000D-01  6.1166161168061D-01 -3.0424691813273D-01
    22  2.1000000000000D-01  6.4046521435052D-01 -3.1768413128601D-01
    23  2.2000000000000D-01  6.6898086844500D-01 -3.3080807110659D-01
    24  2.3000000000000D-01  6.9718895967995D-01 -3.4359247114744D-01
    25  2.4000000000000D-01  7.2506925404110D-01 -3.5600991311142D-01
    26  2.5000000000000D-01  7.5260091234035D-01 -3.6803186444994D-01
    27  2.6000000000000D-01  7.7976250939570D-01 -3.7962872553237D-01
    28  2.7000000000000D-01  8.0653205782152D-01 -3.9076988631885D-01
    29  2.8000000000000D-01  8.3288703639328D-01 -4.0142379241980D-01
    30  2.9000000000000D-01  8.5880442292940D-01 -4.1155802037587D-01
    31  3.0000000000000D-01  8.8426073161052D-01 -4.2113936194339D-01
    32  3.1000000000000D-01  9.0923205463545D-01 -4.3013391712277D-01
    33  3.2000000000000D-01  9.3369410809158D-01 -4.3850719561974D-01
    34  3.3000000000000D-01  9.5762228189703D-01 -4.4622422638372D-01
    35  3.4000000000000D-01  9.8099169365149D-01 -4.5324967482289D-01
    36  3.5000000000000D-01  1.0037772462136D+00 -4.5954796725264D-01
    37  3.6000000000000D-01  1.0259536888032D+00 -4.6508342209272D-01
    38  3.7000000000000D-01  1.0474956814106D+00 -4.6982038728937D-01
    39  3.8000000000000D-01  1.0683778622748D+00 -4.7372338340125D-01
    40  3.9000000000000D-01  1.0885749181808D+00 -4.7675725175343D-01
    41  4.0000000000000D-01  1.1080616573068D+00 -4.7888730703115D-01
    42  4.1000000000000D-01  1.1268130843424D+00 -4.8007949365549D-01
    43  4.2000000000000D-01  1.1448044775811D+00 -4.8030054525610D-01
    44  4.3000000000000D-01  1.1620114676857D+00 -4.7951814653182D-01
    45  4.4000000000000D-01  1.1784101178067D+00 -4.7770109676942D-01
    46  4.5000000000000D-01  1.1939770047334D+00 -4.7481947427241D-01
    47  4.6000000000000D-01  1.2086893007431D+00 -4.7084480093725D-01
    48  4.7000000000000D-01  1.2225248558108D+00 -4.6575020620287D-01
    49  4.8000000000000D-01  1.2354622798373D+00 -4.5951058959147D-01
    50  4.9000000000000D-01  1.2474810245494D+00 -4.5210278105343D-01
    51  5.0000000000000D-01  1.2585614647236D+00 -4.4350569832886D-01
    52  5.1000000000000D-01  1.2686849783858D+00 -4.3370050053922D-01
    53  5.2000000000000D-01  1.2778340256394D+00 -4.2267073722940D-01
    54  5.3000000000000D-01  1.2859922257776D+00 -4.1040249208907D-01
    55  5.4000000000000D-01  1.2931444323392D+00 -3.9688452059476D-01
    56  5.5000000000000D-01  1.2992768057731D+00 -3.8210838083043D-01
    57  5.6000000000000D-01  1.3043768833825D+00 -3.6606855676337D-01
    58  5.7000000000000D-01  1.3084336462315D+00 -3.4876257327455D-01
    59  5.8000000000000D-01  1.3114375827001D+00 -3.3019110226948D-01
    60  5.9000000000000D-01  1.3133807483926D+00 -3.1035805922292D-01
    61  6.0000000000000D-01  1.3142568221096D+00 -2.8927068954417D-01
    62  6.1000000000000D-01  1.3140611576115D+00 -2.6693964418389D-01
    63  6.2000000000000D-01  1.3127908309148D+00 -2.4337904394040D-01
    64  6.3000000000000D-01  1.3104446828779D+00 -2.1860653196524D-01
    65  6.4000000000000D-01  1.3070233568503D+00 -1.9264331400851D-01
    66  6.5000000000000D-01  1.3025293311777D+00 -1.6551418599081D-01
    67  6.6000000000000D-01  1.2969669463718D+00 -1.3724754853566D-01
    68  6.7000000000000D-01  1.2903424267765D+00 -1.0787540814444D-01
    69  6.8000000000000D-01  1.2826638965794D+00 -7.7433364748308D-02
    70  6.9000000000000D-01  1.2739413900404D+00 -4.5960585422556D-02
    71  7.0000000000000D-01  1.2641868558297D+00 -1.3499764103705D-02
    72  7.1000000000000D-01  1.2534141553908D+00  1.9902932795332D-02
    73  7.2000000000000D-01  1.2416390552642D+00  5.4197934920983D-02
    74  7.3000000000000D-01  1.2288792133332D+00  8.9332350657527D-02
    75  7.4000000000000D-01  1.2151541589738D+00  1.2525006388251D-01
    76  7.5000000000000D-01  1.2004852671155D+00  1.6189184467601D-01
    77  7.6000000000000D-01  1.1848957262420D+00  1.9919547380207D-01
    78  7.7000000000000D-01  1.1684105003834D+00  2.3709588072300D-01
    79  7.8000000000000D-01  1.1510562851775D+00  2.7552529484992D-01
    80  7.9000000000000D-01  1.1328614580964D+00  3.1441340967516D-01
    81  8.0000000000000D-01  1.1138560229599D+00  3.5368755937599D-01
    82  8.1000000000000D-01  1.0940715488793D+00  3.9327290742380D-01
    83  8.2000000000000D-01  1.0735411037948D+00  4.3309264667836D-01
    84  8.3000000000000D-01  1.0522991827940D+00  4.7306821039287D-01
    85  8.4000000000000D-01  1.0303816314151D+00  5.1311949350471D-01
    86  8.5000000000000D-01  1.0078255641631D+00  5.5316508353688D-01
    87  8.6000000000000D-01  9.8466927848193D-01  5.9312250038560D-01
    88  8.7000000000000D-01  9.6095216444654D-01  6.3290844422495D-01
    89  8.8000000000000D-01  9.3671461045430D-01  6.7243905071401D-01
    90  8.9000000000000D-01  9.1199790521239D-01  7.1163015265113D-01
    91  9.0000000000000D-01  8.8684413633250D-01  7.5039754718009D-01
    92  9.1000000000000D-01  8.6129608585851D-01  7.8865726761624D-01
    93  9.2000000000000D-01  8.3539712306571D-01  8.2632585892623D-01
    94  9.3000000000000D-01  8.0919109488180D-01  8.6332065586492D-01
    95  9.4000000000000D-01  7.8272221429098D-01  8.9956006274235D-01
    96  9.5000000000000D-01  7.5603494709122D-01  9.3496383377020D-01
    97  9.6000000000000D-01  7.2917389738336D-01  9.6945335291384D-01
    98  9.7000000000000D-01  7.0218369217735D-01  1.0029519121560D+00
    99  9.8000000000000D-01  6.7510886550652D-01  1.0353849870632D+00
   100  9.9000000000000D-01  6.4799374244487D-01  1.0666805085318D+00
   101  1.0000000000000D+00  6.2088232342566D-01  1.0967691295805D+00
   102  1.0100000000000D+00  5.9381816926056D-01  1.1255844860512D+00
   103  1.0200000000000D+00  5.6684428725974D-01  1.1530634500731D+00
   104  1.0300000000000D+00  5.4000301885144D-01  1.1791463751487D+00
   105  1.0400000000000D+00  5.1333592909804D-01  1.2037773317192D+00
   106  1.0500000000000D+00  4.8688369850165D-01  1.2269043320757D+00
   107  1.0600000000000D+00  4.6068601748756D-01  1.2484795434886D+00
   108  1.0700000000000D+00  4.3478148394813D-01  1.2684594884444D+00
   109  1.0800000000000D+00  4.0920750422258D-01  1.2868052308860D+00
   110  1.0900000000000D+00  3.8400019787956D-01  1.3034825473792D+00
   111  1.1000000000000D+00  3.5919430666068D-01  1.3184620821421D+00
   112  1.1100000000000D+00  3.3482310793142D-01  1.3317194849014D+00
   113  1.1200000000000D+00  3.1091833297704D-01  1.3432355305610D+00
   114  1.1300000000000D+00  2.8751009046627D-01  1.3529962197012D+00
   115  1.1400000000000D+00  2.6462679539385D-01  1.3609928589533D+00
   116  1.1500000000000D+00  2.4229510379756D-01  1.3672221203329D+00
   117  1.1600000000000D+00  2.2053985353364D-01  1.3716860786402D+00
   118  1.1700000000000D+00  1.9938401137593D-01  1.3743922260819D+00
   119  1.1800000000000D+00  1.7884862668975D-01  1.3753534633028D+00
   120  1.1900000000000D+00  1.5895279191201D-01  1.3745880660628D+00
   121  1.2000000000000D+00  1.3971361005985D-01  1.3721196268176D+00
   122  1.2100000000000D+00  1.2114616946245D-01  1.3679769705282D+00
   123  1.2200000000000D+00  1.0326352589745D-01  1.3621940440592D+00
   124  1.2300000000000D+00  8.6076692298542D-02  1.3548097785619D+00
   125  1.2400000000000D+00  6.9594636178294D-02  1.3458679242936D+00
   126  1.2500000000000D+00  5.3824284889596D-02  1.3354168573792D+00
   127  1.2600000000000D+00  3.8770538836548D-02  1.3235093580530D+00
   128  1.2700000000000D+00  2.4436292726637D-02  1.3102023599655D+00
   129  1.2800000000000D+00  1.0822464928328D-02  1.2955566702140D+00
   130  1.2900000000000D+00 -2.0719650091070D-03  1.2796366597766D+00
   131  1.3000000000000D+00 -1.4249910635567D-02  1.2625099240746D+00
   132  1.3100000000000D+00 -2.5716124673468D-02  1.2442469134777D+00
   133  1.3200000000000D+00 -3.6477136877377D-02  1.2249205335622D+00
   134  1.3300000000000D+00 -4.6541183697612D-02  1.2046057150006D+00
   135  1.3400000000000D+00 -5.5918129794604D-02  1.1833789530430D+00
   136  1.3500000000000D+00 -6.4619381440479D-02  1.1613178165206D+00
   137  1.3600000000000D+00 -7.2657791883564D-02  1.1385004264140D+00
   138  1.3700000000000D+00 -8.0047558766226D-02  1.1150049040731D+00
   139  1.3800000000000D+00 -8.6804113672409D-02  1.0909087891326D+00
   140  1.3900000000000D+00 -9.2944003940357D-02  1.0662884273446D+00
   141  1.4000000000000D+00 -9.8484766851825D-02  1.0412183284790D+00
   142  1.4100000000000D+00 -1.0344479633336D-01  1.0157704945145D+00
   143  1.4200000000000D+00 -1.0784320207176D-01  9.9001371387033D-01
   144  1.4300000000000D+00 -1.1169966274822D-01  9.6401284901838D-01
   145  1.4400000000000D+00 -1.1503426657891D-01  9.3782800576932D-01
   146  1.4500000000000D+00 -1.1786736634208D-01  9.1151398960592D-01
   147  1.4600000000000D+00 -1.2021939371810D-01  8.8511927624947D-01
   148  1.4700000000000D+00 -1.2211064075297D-01  8.5868430432694D-01
   149  1.4800000000000D+00 -1.2356126173797D-01  8.3224389362678D-01
   150  1.4900000000000D+00 -1.2459127965895D-01  8.0582937262379D-01
   151  1.5000000000000D+00 -1.2522070377865D-01  7.7947139558021D-01
   152  1.5100000000000D+00 -1.2546956712408D-01  7.5320132660634D-01
   153  1.5200000000000D+00 -1.2535784172801D-01  7.2705011247431D-01
   154  1.5300000000000D+00 -1.2490540927075D-01  7.0104828983117D-01
   155  1.5400000000000D+00 -1.2413202264422D-01  6.7522587290374D-01
   156  1.5500000000000D+00 -1.2305726794243D-01  6.4961221945082D-01
   157  1.5600000000000D+00 -1.2170052696117D-01  6.2423591505419D-01
   158  1.5700000000000D+00 -1.2008094086650D-01  5.9912466901976D-01
   159  1.5800000000000D+00 -1.1821737517738D-01  5.7430522527652D-01
   160  1.5900000000000D+00 -1.1612838648943D-01  5.4980328654966D-01
   161  1.6000000000000D+00 -1.1383219083702D-01  5.2564345013100D-01
   162  1.6100000000000D+00 -1.1134663400171D-01  5.0184915476468D-01
   163  1.6200000000000D+00 -1.0868916371652D-01  4.7844263742984D-01
   164  1.6300000000000D+00 -1.0587680390660D-01  4.5544489924340D-01
   165  1.6400000000000D+00 -1.0292613094584D-01  4.3287567946338D-01
   166  1.6500000000000D+00 -9.9853251964292D-02  4.1075343687744D-01
   167  1.6600000000000D+00 -9.6673785193937D-02  3.8909533764208D-01
   168  1.6700000000000D+00 -9.3402842330192D-02  3.6791724904638D-01
   169  1.6800000000000D+00 -9.0055012890388D-02  3.4723373833885D-01
   170  1.6900000000000D+00 -8.6644350520401D-02  3.2705807627432D-01
   171  1.7000000000000D+00 -8.3184361218304D-02  3.0740224462384D-01
   172  1.7100000000000D+00 -7.9687993417033D-02  2.8827694742440D-01
   173  1.7200000000000D+00 -7.6167629882558D-02  2.6969162535478D-01
   174  1.7300000000000D+00 -7.2635081367762D-02  2.5165447306298D-01
   175  1.7400000000000D+00 -6.9101581968932D-02  2.3417245899710D-01
   176  1.7500000000000D+00 -6.5577786125491D-02  2.1725134755975D-01
   177  1.7600000000000D+00 -6.2073767203694D-02  2.0089572330511D-01
   178  1.7700000000000D+00 -5.8599017605456D-02  1.8510901696422D-01
   179  1.7800000000000D+00 -5.5162450339303D-02  1.6989353316350D-01
   180  1.7900000000000D+00 -5.1772401994976D-02  1.5525047958431D-01
   181  1.8000000000000D+00 -4.8436637056288D-02  1.4117999753757D-01
   182  1.8100000000000D+00 -4.5162353493915D-02  1.2768119367651D-01
   183  1.8200000000000D+00 -4.1956189571423D-02  1.1475217288944D-01
   184  1.8300000000000D+00 -3.8824231805836D-02  1.0239007209303D-01
   185  1.8400000000000D+00 -3.5772024016172D-02  9.0591094993945D-02
   186  1.8500000000000D+00 -3.2804577399204D-02  7.9350547562755D-02
   187  1.8600000000000D+00 -2.9926381568724D-02  6.8662874269192D-02
   188  1.8700000000000D+00 -2.7141416493337D-02  5.8521694883130D-02
   189  1.8800000000000D+00 -2.4453165273567D-02  4.8919841834602D-02
   190  1.8900000000000D+00 -2.1864627690031D-02  3.9849398005165D-02
   191  1.9000000000000D+00 -1.9378334465047D-02  3.1301734894809D-02
   192  1.9100000000000D+00 -1.6996362172609D-02  2.3267551084137D-02
   193  1.9200000000000D+00 -1.4720348732341D-02  1.5736910904530D-02
   194  1.9300000000000D+00 -1.2551509436932D-02  8.6992832684115D-03
   195  1.9400000000000D+00 -1.0490653431053D-02  2.1435805480845D-03
   196  1.9500000000000D+00 -8.5382006138535D-03 -3.9418025184744D-03
   197  1.9600000000000D+00 -6.6941988674601D-03 -9.5689500203294D-03
   198  1.9700000000000D+00 -4.9583415915039D-03 -1.4750386181906D-02
   199  1.9800000000000D+00 -3.3299854595893D-03 -1.9499036890268D-02
   200  1.9900000000000D+00 -1.8081683505165D-03 -2.3828191496159D-02
   201  2.0000000000000D+00 -3.9162741881483D-04 -2.7751464928290D-02
   202  2.0100000000000D+00  9.2118279553650D-04 -3.1282760244919D-02
   203  2.0200000000000D+00  2.1320721968294D-03 -3.4436231587241D-02
   204  2.0300000000000D+00  3.2430970334420D-03 -3.7226247700070D-02
   205  2.0400000000000D+00  4.2565418458929D-03 -3.9667355982147D-02
   206  2.0500000000000D+00  5.1749015411914D-03 -4.1774247162669D-02
   207  2.0600000000000D+00  6.0008636572181D-03 -4.3561720681408D-02
   208  2.0700000000000D+00  6.7372907771637D-03 -4.5044650707867D-02
   209  2.0800000000000D+00  7.3872032594764D-03 -4.6237953017301D-02
   210  2.0900000000000D+00  7.9537621881016D-03 -4.7156552578563D-02
   211  2.1000000000000D+00  8.4402526664096D-03 -4.7815352020357D-02
   212  2.1100000000000D+00  8.8500674734664D-03 -4.8229200983960D-02
   213  2.1200000000000D+00  9.1866910452182D-03 -4.8412866345897D-02
   214  2.1300000000000D+00  9.4536839306471D-03 -4.8381003397061D-02
   215  2.1400000000000D+00  9.6546675962933D-03 -4.8148127813336D-02
   216  2.1500000000000D+00  9.7933097340454D-03 -4.7728588786563D-02
   217  2.1600000000000D+00  9.8733100669480D-03 -4.7136543197226D-02
   218  2.1700000000000D+00  9.8983866089646D-03 -4.6385930986064D-02
   219  2.1800000000000D+00  9.8722624206881D-03 -4.5490450911479D-02
   220  2.1900000000000D+00  9.7986528555735D-03 -4.4463537556688D-02
   221  2.2000000000000D+00  9.6812533421529D-03 -4.3318339347907D-02
   222  2.2100000000000D+00  9.5237277817931D-03 -4.2067697913011D-02
   223  2.2200000000000D+00  9.3296973318271D-03 -4.0724127828830D-02
   224  2.2300000000000D+00  9.1027299216812D-03 -3.9299798260447D-02
   225  2.2400000000000D+00  8.8463302578453D-03 -3.7806515363550D-02
   226  2.2500000000000D+00  8.5639304073161D-03 -3.6255706134319D-02
   227  2.2600000000000D+00  8.2588807988944D-03 -3.4658401916011D-02
   228  2.2700000000000D+00  7.9344417790522D-03 -3.3025223380532D-02
   229  2.2800000000000D+00  7.5937757300574D-03 -3.1366366530699D-02
   230  2.2900000000000D+00  7.2399397942735D-03 -2.9691590027345D-02
   231  2.3000000000000D+00  6.8758789898419D-03 -2.8010202929309D-02
   232  2.3100000000000D+00  6.5044199488408D-03 -2.6331053784893D-02
   233  2.3200000000000D+00  6.1282651139052D-03 -2.4662520423310D-02
   234  2.3300000000000D+00  5.7499874346451D-03 -2.3012500962777D-02
   235  2.3400000000000D+00  5.3720254720033D-03 -2.1388404854102D-02
   236  2.3500000000000D+00  4.9966789713360D-03 -1.9797145083949D-02
   237  2.3600000000000D+00  4.6261048403384D-03 -1.8245130954296D-02
   238  2.3700000000000D+00  4.2623136221771D-03 -1.6738261936890D-02
   239  2.3800000000000D+00  3.9071663102544D-03 -1.5281922016585D-02
   240  2.3900000000000D+00  3.5623715536497D-03 -1.3880974724694D-02
   241  2.4000000000000D+00  3.2294832250973D-03 -1.2539758760236D-02
   242  2.4100000000000D+00  2.9098983206694D-03 -1.1262084236645D-02
   243  2.4200000000000D+00  2.6048551836084D-03 -1.0051229482064D-02
   244  2.4300000000000D+00  2.3154320259600D-03 -8.9099383631728D-03
   245  2.4400000000000D+00  2.0425457356892D-03 -7.8404181282955D-03
   246  2.4500000000000D+00  1.7869509315489D-03 -6.8443376809940D-03
   247  2.4600000000000D+00  1.5492392556890D-03 -5.9228262864940D-03
   248  2.4700000000000D+00  1.3298389112144D-03 -5.0764727305188D-03
   249  2.4800000000000D+00  1.1290143634252D-03 -4.3053247784949D-03
   250  2.4900000000000D+00  9.4686623018613D-04 -3.6088889939121D-03
   251  2.5000000000000D+00  7.8333137846926D-04 -2.9861309457798D-03
   252  2.5100000000000D+00  6.3818309991039D-04 -2.4354755883987D-03
   253  2.5200000000000D+00  5.1103143722061D-04 -1.9548079426648D-03
   254  2.5300000000000D+00  4.0132368184712D-04 -1.5414741107660D-03
   255  2.5400000000000D+00  3.0834487325950D-04 -1.1922823493830D-03
   256  2.5500000000000D+00  2.3123999512481D-04 -9.0365918907741D-04
   257  2.5600000000000D+00  1.6893404981320D-04 -6.7107220327941D-04
   258  2.5700000000000D+00  1.2021751404436D-04 -4.8963962506943D-04
   259  2.5800000000000D+00  8.3439625896800D-05 -3.5247273207491D-04
   260  2.5900000000000D+00  5.7620872571612D-05 -2.5665837103118D-04
   261  2.6000000000000D+00  4.1336842609436D-05 -1.9722483545312D-04
   262  2.6100000000000D+00  3.3688804847783D-05 -1.7200212922602D-04
   263  2.6200000000000D+00  3.0614825438541D-05 -1.6272854057592D-04
   264  2.6300000000000D+00  2.8181191168101D-05 -1.5168579101238D-04
   265  2.6400000000000D+00  2.2060568655216D-05 -1.1891912527503D-04
   266  2.6500000000000D+00  1.2975947768336D-05 -6.9848239823475D-05
   267  2.6600000000000D+00  3.8588501412132D-06 -2.0709093737836D-05
   268  2.6700000000000D+00 -1.7143404070596D-06  9.3130568385314D-06
   269  2.6800000000000D+00 -2.7708968144884D-06  1.5053774744174D-05
   270  2.6900000000000D+00 -1.4883511161578D-06  8.0844799177886D-06
   271  2.7000000000000D+00  2.1150429930665D-07 -1.1579330545569D-06
   272  2.7100000000000D+00  6.0057097295515D-07 -3.2907716300946D-06
   273  2.7200000000000D+00  4.4863540820292D-07 -2.4600127817091D-06
   274  2.7300000000000D+00 -5.0178260542377D-09  2.7016373428107D-08
   275  2.7400000000000D+00 -6.8173526051039D-08  3.6705167094228D-07
   276  2.7500000000000D+00 -6.8021727823046D-08  3.6623437724400D-07
   277  2.7600000000000D+00 -1.4944654260298D-08  8.0463203763150D-08
   278  2.7700000000000D+00  0.0000000000000D+00  0.0000000000000D+00
   279  2.7800000000000D+00  0.0000000000000D+00  0.0000000000000D+00
   280  2.7900000000000D+00  0.0000000000000D+00  0.0000000000000D+00
   281  2.8000000000000D+00  0.0000000000000D+00  0.0000000000000D+00
   282  2.8100000000000D+00  0.0000000000000D+00  0.0000000000000D+00
   283  2.8200000000000D+00  0.0000000000000D+00  0.0000000000000D+00
   284  2.8300000000000D+00  0.0000000000000D+00  0.0000000000000D+00
   285  2.8400000000000D+00  0.0000000000000D+00  0.0000000000000D+00
   286  2.8500000000000D+00  0.0000000000000D+00  0.0000000000000D+00
   287  2.8600000000000D+00  0.0000000000000D+00  0.0000000000000D+00
   288  2.8700000000000D+00  0.0000000000000D+00  0.0000000000000D+00
   289  2.8800000000000D+00  0.0000000000000D+00  0.0000000000000D+00
   290  2.8900000000000D+00  0.0000000000000D+00  0.0000000000000D+00
   291  2.9000000000000D+00  0.0000000000000D+00  0.0000000000000D+00
   292  2.9100000000000D+00  0.0000000000000D+00  0.0000000000000D+00
   293  2.9200000000000D+00  0.0000000000000D+00  0.0000000000000D+00
   294  2.9300000000000D+00  0.0000000000000D+00  0.0000000000000D+00
   295  2.9400000000000D+00  0.0000000000000D+00  0.0000000000000D+00
   296  2.9500000000000D+00  0.0000000000000D+00  0.0000000000000D+00
   297  2.9600000000000D+00  0.0000000000000D+00  0.0000000000000D+00
   298  2.9700000000000D+00  0.0000000000000D+00  0.0000000000000D+00
   299  2.9800000000000D+00  0.0000000000000D+00  0.0000000000000D+00
   300  2.9900000000000D+00  0.0000000000000D+00  0.0000000000000D+00
   301  3.0000000000000D+00  0.0000000000000D+00  0.0000000000000D+00
   302  3.0100000000000D+00  0.0000000000000D+00  0.0000000000000D+00
   303  3.0200000000000D+00  0.0000000000000D+00  0.0000000000000D+00
   304  3.0300000000000D+00  0.0000000000000D+00  0.0000000000000D+00
   305  3.0400000000000D+00  0.0000000000000D+00  0.0000000000000D+00
   306  3.0500000000000D+00  0.0000000000000D+00  0.0000000000000D+00
   307  3.0600000000000D+00  0.0000000000000D+00  0.0000000000000D+00
   308  3.0700000000000D+00  0.0000000000000D+00  0.0000000000000D+00
   309  3.0800000000000D+00  0.0000000000000D+00  0.0000000000000D+00
   310  3.0900000000000D+00  0.0000000000000D+00  0.0000000000000D+00
   311  3.1000000000000D+00  0.0000000000000D+00  0.0000000000000D+00
   312  3.1100000000000D+00  0.0000000000000D+00  0.0000000000000D+00
   313  3.1200000000000D+00  0.0000000000000D+00  0.0000000000000D+00
   314  3.1300000000000D+00  0.0000000000000D+00  0.0000000000000D+00
   315  3.1400000000000D+00  0.0000000000000D+00  0.0000000000000D+00
   316  3.1500000000000D+00  0.0000000000000D+00  0.0000000000000D+00
   317  3.1600000000000D+00  0.0000000000000D+00  0.0000000000000D+00
   318  3.1700000000000D+00  0.0000000000000D+00  0.0000000000000D+00
   319  3.1800000000000D+00  0.0000000000000D+00  0.0000000000000D+00
   320  3.1900000000000D+00  0.0000000000000D+00  0.0000000000000D+00
   321  3.2000000000000D+00  0.0000000000000D+00  0.0000000000000D+00
   322  3.2100000000000D+00  0.0000000000000D+00  0.0000000000000D+00
   323  3.2200000000000D+00  0.0000000000000D+00  0.0000000000000D+00
   324  3.2300000000000D+00  0.0000000000000D+00  0.0000000000000D+00
   325  3.2400000000000D+00  0.0000000000000D+00  0.0000000000000D+00
   326  3.2500000000000D+00  0.0000000000000D+00  0.0000000000000D+00
   327  3.2600000000000D+00  0.0000000000000D+00  0.0000000000000D+00
   328  3.2700000000000D+00  0.0000000000000D+00  0.0000000000000D+00
   329  3.2800000000000D+00  0.0000000000000D+00  0.0000000000000D+00
   330  3.2900000000000D+00  0.0000000000000D+00  0.0000000000000D+00
   331  3.3000000000000D+00  0.0000000000000D+00  0.0000000000000D+00
   332  3.3100000000000D+00  0.0000000000000D+00  0.0000000000000D+00
   333  3.3200000000000D+00  0.0000000000000D+00  0.0000000000000D+00
   334  3.3300000000000D+00  0.0000000000000D+00  0.0000000000000D+00
   335  3.3400000000000D+00  0.0000000000000D+00  0.0000000000000D+00
   336  3.3500000000000D+00  0.0000000000000D+00  0.0000000000000D+00
   337  3.3600000000000D+00  0.0000000000000D+00  0.0000000000000D+00
   338  3.3700000000000D+00  0.0000000000000D+00  0.0000000000000D+00
   339  3.3800000000000D+00  0.0000000000000D+00  0.0000000000000D+00
   340  3.3900000000000D+00  0.0000000000000D+00  0.0000000000000D+00
   341  3.4000000000000D+00  0.0000000000000D+00  0.0000000000000D+00
   342  3.4100000000000D+00  0.0000000000000D+00  0.0000000000000D+00
   343  3.4200000000000D+00  0.0000000000000D+00  0.0000000000000D+00
   344  3.4300000000000D+00  0.0000000000000D+00  0.0000000000000D+00
   345  3.4400000000000D+00  0.0000000000000D+00  0.0000000000000D+00
   346  3.4500000000000D+00  0.0000000000000D+00  0.0000000000000D+00
   347  3.4600000000000D+00  0.0000000000000D+00  0.0000000000000D+00
   348  3.4700000000000D+00  0.0000000000000D+00  0.0000000000000D+00
   349  3.4800000000000D+00  0.0000000000000D+00  0.0000000000000D+00
   350  3.4900000000000D+00  0.0000000000000D+00  0.0000000000000D+00
   351  3.5000000000000D+00  0.0000000000000D+00  0.0000000000000D+00
   352  3.5100000000000D+00  0.0000000000000D+00  0.0000000000000D+00
   353  3.5200000000000D+00  0.0000000000000D+00  0.0000000000000D+00
   354  3.5300000000000D+00  0.0000000000000D+00  0.0000000000000D+00
   355  3.5400000000000D+00  0.0000000000000D+00  0.0000000000000D+00
   356  3.5500000000000D+00  0.0000000000000D+00  0.0000000000000D+00
   357  3.5600000000000D+00  0.0000000000000D+00  0.0000000000000D+00
   358  3.5700000000000D+00  0.0000000000000D+00  0.0000000000000D+00
   359  3.5800000000000D+00  0.0000000000000D+00  0.0000000000000D+00
   360  3.5900000000000D+00  0.0000000000000D+00  0.0000000000000D+00
   361  3.6000000000000D+00  0.0000000000000D+00  0.0000000000000D+00
   362  3.6100000000000D+00  0.0000000000000D+00  0.0000000000000D+00
   363  3.6200000000000D+00  0.0000000000000D+00  0.0000000000000D+00
   364  3.6300000000000D+00  0.0000000000000D+00  0.0000000000000D+00
   365  3.6400000000000D+00  0.0000000000000D+00  0.0000000000000D+00
   366  3.6500000000000D+00  0.0000000000000D+00  0.0000000000000D+00
   367  3.6600000000000D+00  0.0000000000000D+00  0.0000000000000D+00
   368  3.6700000000000D+00  0.0000000000000D+00  0.0000000000000D+00
   369  3.6800000000000D+00  0.0000000000000D+00  0.0000000000000D+00
   370  3.6900000000000D+00  0.0000000000000D+00  0.0000000000000D+00
   371  3.7000000000000D+00  0.0000000000000D+00  0.0000000000000D+00
   372  3.7100000000000D+00  0.0000000000000D+00  0.0000000000000D+00
   373  3.7200000000000D+00  0.0000000000000D+00  0.0000000000000D+00
   374  3.7300000000000D+00  0.0000000000000D+00  0.0000000000000D+00
   375  3.7400000000000D+00  0.0000000000000D+00  0.0000000000000D+00
   376  3.7500000000000D+00  0.0000000000000D+00  0.0000000000000D+00
   377  3.7600000000000D+00  0.0000000000000D+00  0.0000000000000D+00
   378  3.7700000000000D+00  0.0000000000000D+00  0.0000000000000D+00
   379  3.7800000000000D+00  0.0000000000000D+00  0.0000000000000D+00
   380  3.7900000000000D+00  0.0000000000000D+00  0.0000000000000D+00
   381  3.8000000000000D+00  0.0000000000000D+00  0.0000000000000D+00
   382  3.8100000000000D+00  0.0000000000000D+00  0.0000000000000D+00
   383  3.8200000000000D+00  0.0000000000000D+00  0.0000000000000D+00
   384  3.8300000000000D+00  0.0000000000000D+00  0.0000000000000D+00
   385  3.8400000000000D+00  0.0000000000000D+00  0.0000000000000D+00
   386  3.8500000000000D+00  0.0000000000000D+00  0.0000000000000D+00
   387  3.8600000000000D+00  0.0000000000000D+00  0.0000000000000D+00
   388  3.8700000000000D+00  0.0000000000000D+00  0.0000000000000D+00
   389  3.8800000000000D+00  0.0000000000000D+00  0.0000000000000D+00
   390  3.8900000000000D+00  0.0000000000000D+00  0.0000000000000D+00
   391  3.9000000000000D+00  0.0000000000000D+00  0.0000000000000D+00
   392  3.9100000000000D+00  0.0000000000000D+00  0.0000000000000D+00
   393  3.9200000000000D+00  0.0000000000000D+00  0.0000000000000D+00
   394  3.9300000000000D+00  0.0000000000000D+00  0.0000000000000D+00
   395  3.9400000000000D+00  0.0000000000000D+00  0.0000000000000D+00
   396  3.9500000000000D+00  0.0000000000000D+00  0.0000000000000D+00
   397  3.9600000000000D+00  0.0000000000000D+00  0.0000000000000D+00
   398  3.9700000000000D+00  0.0000000000000D+00  0.0000000000000D+00
   399  3.9800000000000D+00  0.0000000000000D+00  0.0000000000000D+00
   400  3.9900000000000D+00  0.0000000000000D+00  0.0000000000000D+00
   401  4.0000000000000D+00  0.0000000000000D+00  0.0000000000000D+00
   402  4.0100000000000D+00  0.0000000000000D+00  0.0000000000000D+00
   403  4.0200000000000D+00  0.0000000000000D+00  0.0000000000000D+00
   404  4.0300000000000D+00  0.0000000000000D+00  0.0000000000000D+00
   405  4.0400000000000D+00  0.0000000000000D+00  0.0000000000000D+00
   406  4.0500000000000D+00  0.0000000000000D+00  0.0000000000000D+00
   407  4.0600000000000D+00  0.0000000000000D+00  0.0000000000000D+00
   408  4.0700000000000D+00  0.0000000000000D+00  0.0000000000000D+00
   409  4.0800000000000D+00  0.0000000000000D+00  0.0000000000000D+00
   410  4.0900000000000D+00  0.0000000000000D+00  0.0000000000000D+00
   411  4.1000000000000D+00  0.0000000000000D+00  0.0000000000000D+00
   412  4.1100000000000D+00  0.0000000000000D+00  0.0000000000000D+00
   413  4.1200000000000D+00  0.0000000000000D+00  0.0000000000000D+00
   414  4.1300000000000D+00  0.0000000000000D+00  0.0000000000000D+00
   415  4.1400000000000D+00  0.0000000000000D+00  0.0000000000000D+00
   416  4.1500000000000D+00  0.0000000000000D+00  0.0000000000000D+00
   417  4.1600000000000D+00  0.0000000000000D+00  0.0000000000000D+00
   418  4.1700000000000D+00  0.0000000000000D+00  0.0000000000000D+00
   419  4.1800000000000D+00  0.0000000000000D+00  0.0000000000000D+00
   420  4.1900000000000D+00  0.0000000000000D+00  0.0000000000000D+00
   421  4.2000000000000D+00  0.0000000000000D+00  0.0000000000000D+00
   422  4.2100000000000D+00  0.0000000000000D+00  0.0000000000000D+00