Sn    ONCVPSP-3.3.1  r_core=   2.81773   2.95543   3.36982
     50.0000     14.0000      210905    zatom,zion,pspd
     8 -116133   2     4   600     0    pspcod,pspxc,lmax,lloc,mmax,r2well
  5.99000000  0.00000000  0.00000000    rchrg fchrg qchrg
     2     2     2     0     0    nproj
     1     1           extension_switch
   0                         5.2868311088570D+00  1.3782062831887D+00
     1  0.0000000000000D+00  1.7701951016136D-12 -6.4721006332036D-12
     2  1.0000000000000D-02  7.5559975645057D-03  2.6005759952968D-02
     3  2.0000000000000D-02  1.5139677095634D-02  5.1931090931654D-02
     4  3.0000000000000D-02  2.2778630019191D-02  7.7695811415071D-02
     5  4.0000000000000D-02  3.0500266905021D-02  1.0322023409928D-01
     6  5.0000000000000D-02  3.8331727602753D-02  1.2842541128368D-01
     7  6.0000000000000D-02  4.6299792052789D-02  1.5323337819513D-01
     8  7.0000000000000D-02  5.4430791995528D-02  1.7756739357008D-01
     9  8.0000000000000D-02  6.2750523800068D-02  2.0135217682152D-01
    10  9.0000000000000D-02  7.1284162631394D-02  2.2451414112514D-01
    11  1.0000000000000D-01  8.0056178172425D-02  2.4698162176956D-01
    12  1.1000000000000D-01  8.9090252114165D-02  2.6868509912587D-01
    13  1.2000000000000D-01  9.8409197623691D-02  2.8955741560526D-01
    14  1.3000000000000D-01  1.0803488099574D-01  3.0953398598750D-01
    15  1.4000000000000D-01  1.1798814568925D-01  3.2855300051901D-01
    16  1.5000000000000D-01  1.2828873894531D-01  3.4655562019679D-01
    17  1.6000000000000D-01  1.3895524117786D-01  3.6348616367330D-01
    18  1.7000000000000D-01  1.5000499832264D-01  3.7929228523781D-01
    19  1.8000000000000D-01  1.6145405732380D-01  3.9392514335147D-01
    20  1.9000000000000D-01  1.7331710493116D-01  4.0733955923666D-01
    21  2.0000000000000D-01  1.8560740997411D-01  4.1949416504581D-01
    22  2.1000000000000D-01  1.9833676927072D-01  4.3035154116057D-01
    23  2.2000000000000D-01  2.1151545732300D-01  4.3987834219968D-01
    24  2.3000000000000D-01  2.2515217994118D-01  4.4804541134217D-01
    25  2.4000000000000D-01  2.3925403193115D-01  4.5482788260222D-01
    26  2.5000000000000D-01  2.5382645897058D-01  4.6020527072289D-01
    27  2.6000000000000D-01  2.6887322378988D-01  4.6416154838760D-01
    28  2.7000000000000D-01  2.8439637676450D-01  4.6668521048134D-01
    29  2.8000000000000D-01  3.0039623101540D-01  4.6776932516753D-01
    30  2.9000000000000D-01  3.1687134210404D-01  4.6741157158090D-01
    31  3.0000000000000D-01  3.3381849239781D-01  4.6561426397284D-01
    32  3.1000000000000D-01  3.5123268017096D-01  4.6238436218168D-01
    33  3.2000000000000D-01  3.6910711349514D-01  4.5773346833759D-01
    34  3.3000000000000D-01  3.8743320896202D-01  4.5167780974940D-01
    35  3.4000000000000D-01  4.0620059526909D-01  4.4423820795892D-01
    36  3.5000000000000D-01  4.2539712168799D-01  4.3544003398667D-01
    37  3.6000000000000D-01  4.4500887142261D-01  4.2531314983213D-01
    38  3.7000000000000D-01  4.6502017985202D-01  4.1389183633070D-01
    39  3.8000000000000D-01  4.8541365764131D-01  4.0121470750873D-01
    40  3.9000000000000D-01  5.0617021869065D-01  3.8732461161742D-01
    41  4.0000000000000D-01  5.2726911288072D-01  3.7226851906569D-01
    42  4.1000000000000D-01  5.4868796356002D-01  3.5609739751100D-01
    43  4.2000000000000D-01  5.7040280970695D-01  3.3886607440608D-01
    44  4.3000000000000D-01  5.9238815268723D-01  3.2063308733772D-01
    45  4.4000000000000D-01  6.1461700751462D-01  3.0146052253171D-01
    46  4.5000000000000D-01  6.3706095851036D-01  2.8141384193531D-01
    47  4.6000000000000D-01  6.5969021924476D-01  2.6056169932472D-01
    48  4.7000000000000D-01  6.8247369663190D-01  2.3897574592110D-01
    49  4.8000000000000D-01  7.0537905903672D-01  2.1673042603280D-01
    50  4.9000000000000D-01  7.2837280824157D-01  1.9390276327522D-01
    51  5.0000000000000D-01  7.5142035510848D-01  1.7057213795173D-01
    52  5.1000000000000D-01  7.7448609876134D-01  1.4682005621019D-01
    53  5.2000000000000D-01  7.9753350910205D-01  1.2272991161869D-01
    54  5.3000000000000D-01  8.2052521246370D-01  9.8386739832305D-02
    55  5.4000000000000D-01  8.4342308019383D-01  7.3876967048506D-02
    56  5.5000000000000D-01  8.6618831995123D-01  4.9288152973241D-02
    57  5.6000000000000D-01  8.8878156949035D-01  2.4708729042276D-02
    58  5.7000000000000D-01  9.1116299269882D-01  2.2773266254011D-04
    59  5.8000000000000D-01  9.3329237764527D-01 -2.4065461743401D-02
    60  5.9000000000000D-01  9.5512923638717D-01 -4.8081414090468D-02
    61  6.0000000000000D-01  9.7663290628144D-01 -7.1730891568932D-02
    62  6.1000000000000D-01  9.9776265253396D-01 -9.4925142342531D-02
    63  6.2000000000000D-01  1.0184777717189D+00 -1.1757616917361D-01
    64  6.3000000000000D-01  1.0387376959934D+00 -1.3959700213543D-01
    65  6.4000000000000D-01  1.0585020977290D+00 -1.6090196956817D-01
    66  6.5000000000000D-01  1.0777309942779D+00 -1.8140696643359D-01
    67  6.6000000000000D-01  1.0963848525897D+00 -2.0102971922517D-01
    68  6.7000000000000D-01  1.1144246933904D+00 -2.1969004659449D-01
    69  6.8000000000000D-01  1.1318121946380D+00 -2.3731011486136D-01
    70  6.9000000000000D-01  1.1485097939655D+00 -2.5381468758546D-01
    71  7.0000000000000D-01  1.1644807898228D+00 -2.6913136838897D-01
    72  7.1000000000000D-01  1.1796894410340D+00 -2.8319083623544D-01
    73  7.2000000000000D-01  1.1941010644839D+00 -2.9592707238788D-01
    74  7.3000000000000D-01  1.2076821306542D+00 -3.0727757828974D-01
    75  7.4000000000000D-01  1.2204003567328D+00 -3.1718358363595D-01
    76  7.5000000000000D-01  1.2322247970242D+00 -3.2559024392718D-01
    77  7.6000000000000D-01  1.2431259303952D+00 -3.3244682682925D-01
    78  7.7000000000000D-01  1.2530757444968D+00 -3.3770688669058D-01
    79  7.8000000000000D-01  1.2620478165107D+00 -3.4132842660465D-01
    80  7.9000000000000D-01  1.2700173901757D+00 -3.4327404744007D-01
    81  8.0000000000000D-01  1.2769614488616D+00 -3.4351108329951D-01
    82  8.1000000000000D-01  1.2828587844644D+00 -3.4201172290913D-01
    83  8.2000000000000D-01  1.2876900619109D+00 -3.3875311648273D-01
    84  8.3000000000000D-01  1.2914378790687D+00 -3.3371746764937D-01
    85  8.4000000000000D-01  1.2940868218731D+00 -3.2689211007967D-01
    86  8.5000000000000D-01  1.2956235144932D+00 -3.1826956849363D-01
    87  8.6000000000000D-01  1.2960366643736D+00 -3.0784760378271D-01
    88  8.7000000000000D-01  1.2953171020027D+00 -2.9562924202957D-01
    89  8.8000000000000D-01  1.2934578152730D+00 -2.8162278726068D-01
    90  8.9000000000000D-01  1.2904539783131D+00 -2.6584181782033D-01
    91  9.0000000000000D-01  1.2863029746899D+00 -2.4830516630839D-01
    92  9.1000000000000D-01  1.2810044148916D+00 -2.2903688307812D-01
    93  9.2000000000000D-01  1.2745601480216D+00 -2.0806618334614D-01
    94  9.3000000000000D-01  1.2669742676498D+00 -1.8542737802086D-01
    95  9.4000000000000D-01  1.2582531117842D+00 -1.6115978841152D-01
    96  9.5000000000000D-01  1.2484052569443D+00 -1.3530764503471D-01
    97  9.6000000000000D-01  1.2374415063337D+00 -1.0791997079033D-01
    98  9.7000000000000D-01  1.2253748721290D+00 -7.9050448831904D-02
    99  9.8000000000000D-01  1.2122205519191D+00 -4.8757275511129D-02
   100  9.9000000000000D-01  1.1979958993455D+00 -1.7102998827681D-02
   101  1.0000000000000D+00  1.1827203890143D+00  1.5845657133228D-02
   102  1.0100000000000D+00  1.1664155757662D+00  5.0017981243130D-02
   103  1.0200000000000D+00  1.1491050484084D+00  8.5339477272115D-02
   104  1.0300000000000D+00  1.1308143780314D+00  1.2173207810233D-01
   105  1.0400000000000D+00  1.1115710610467D+00  1.5911437154386D-01
   106  1.0500000000000D+00  1.0914044571017D+00  1.9740183703735D-01
   107  1.0600000000000D+00  1.0703457220420D+00  2.3650709249068D-01
   108  1.0700000000000D+00  1.0484277361060D+00  2.7634015045878D-01
   109  1.0800000000000D+00  1.0256850275555D+00  3.1680868283946D-01
   110  1.0900000000000D+00  1.0021536919537D+00  3.5781829322966D-01
   111  1.1000000000000D+00  9.7787130732321D-01  3.9927279605335D-01
   112  1.1100000000000D+00  9.5287684542315D-01  4.4107450154866D-01
   113  1.1200000000000D+00  9.2721057940165D-01  4.8312450567832D-01
   114  1.1300000000000D+00  9.0091398808748D-01  5.2532298400876D-01
   115  1.1400000000000D+00  8.7402965719729D-01  5.6756948858673D-01
   116  1.1500000000000D+00  8.4660117774429D-01  6.0976324682854D-01
   117  1.1600000000000D+00  8.1867304194275D-01  6.5180346142969D-01
   118  1.1700000000000D+00  7.9029053690993D-01  6.9358961029703D-01
   119  1.1800000000000D+00  7.6149963647426D-01  7.3502174550212D-01
   120  1.1900000000000D+00  7.3234689140494D-01  7.7600079025750D-01
   121  1.2000000000000D+00  7.0287931838200D-01  8.1642883292544D-01
   122  1.2100000000000D+00  6.7314428802922D-01  8.5620941707168D-01
   123  1.2200000000000D+00  6.4318941233644D-01  8.9524782659508D-01
   124  1.2300000000000D+00  6.1306243179773D-01  9.3345136498126D-01
   125  1.2400000000000D+00  5.8281110259278D-01  9.7072962774309D-01
   126  1.2500000000000D+00  5.5248308413931D-01  1.0069947671345D+00
   127  1.2600000000000D+00  5.2212582734050D-01  1.0421617482615D+00
   128  1.2700000000000D+00  4.9178646384984D-01  1.0761485957332D+00
   129  1.2800000000000D+00  4.6151169667355D-01  1.1088766300241D+00
   130  1.2900000000000D+00  4.3134769242141D-01  1.1402706927800D+00
   131  1.3000000000000D+00  4.0133997551450D-01  1.1702593603164D+00
   132  1.3100000000000D+00  3.7153332465313D-01  1.1987751445929D+00
   133  1.3200000000000D+00  3.4197167183182D-01  1.2257546810388D+00
   134  1.3300000000000D+00  3.1269800418957D-01  1.2511389025929D+00
   135  1.3400000000000D+00  2.8375426897084D-01  1.2748731993949D+00
   136  1.3500000000000D+00  2.5518128185044D-01  1.2969075636645D+00
   137  1.3600000000000D+00  2.2701863888818D-01  1.3171967192471D+00
   138  1.3700000000000D+00  1.9930463234324D-01  1.3357002354739D+00
   139  1.3800000000000D+00  1.7207617057000D-01  1.3523826250059D+00
   140  1.3900000000000D+00  1.4536870222676D-01  1.3672134253032D+00
   141  1.4000000000000D+00  1.1921614496993D-01  1.3801672635969D+00
   142  1.4100000000000D+00  9.3650818836238D-02  1.3912239051170D+00
   143  1.4200000000000D+00  6.8703384477734D-02  1.4003682844878D+00
   144  1.4300000000000D+00  4.4402786381028D-02  1.4075905203145D+00
   145  1.4400000000000D+00  2.0776201245910D-02  1.4128859128350D+00
   146  1.4500000000000D+00 -2.1510084055245D-03  1.4162549248807D+00
   147  1.4600000000000D+00 -2.4355335248743D-02  1.4177031461430D+00
   148  1.4700000000000D+00 -4.5815162739731D-02  1.4172412410092D+00
   149  1.4800000000000D+00 -6.6510795203214D-02  1.4148848802415D+00
   150  1.4900000000000D+00 -8.6424482337859D-02  1.4106546566938D+00
   151  1.5000000000000D+00 -1.0554043817093D-01  1.4045759856266D+00
   152  1.5100000000000D+00 -1.2384485436718D-01  1.3966789897965D+00
   153  1.5200000000000D+00 -1.4132590797373D-01  1.3869983700283D+00
   154  1.5300000000000D+00 -1.5797376355754D-01  1.3755732616036D+00
   155  1.5400000000000D+00 -1.7378056980919D-01  1.3624470771476D+00
   156  1.5500000000000D+00 -1.8874045065540D-01  1.3476673365871D+00
   157  1.5600000000000D+00 -2.0284949093153D-01  1.3312854848052D+00
   158  1.5700000000000D+00 -2.1610571674230D-01  1.3133566977790D+00
   159  1.5800000000000D+00 -2.2850907054124D-01  1.2939396777865D+00
   160  1.5900000000000D+00 -2.4006138113400D-01  1.2730964386341D+00
   161  1.6000000000000D+00 -2.5076632862511D-01  1.2508920814849D+00
   162  1.6100000000000D+00 -2.6062940456742D-01  1.2273945623299D+00
   163  1.6200000000000D+00 -2.6965786734953D-01  1.2026744517394D+00
   164  1.6300000000000D+00 -2.7786069309960D-01  1.1768046879374D+00
   165  1.6400000000000D+00 -2.8524852218060D-01  1.1498603239346D+00
   166  1.6500000000000D+00 -2.9183360155479D-01  1.1219182697212D+00
   167  1.6600000000000D+00 -2.9762972313507D-01  1.0930570303449D+00
   168  1.6700000000000D+00 -3.0265215839823D-01  1.0633564408248D+00
   169  1.6800000000000D+00 -3.0691758941255D-01  1.0328973987903D+00
   170  1.6900000000000D+00 -3.1044403655354D-01  1.0017615957414D+00
   171  1.7000000000000D+00 -3.1325078308655D-01  9.7003124786111D-01
   172  1.7100000000000D+00 -3.1535829688911D-01  9.3778882720772D-01
   173  1.7200000000000D+00 -3.1678814951182D-01  9.0511679425424D-01
   174  1.7300000000000D+00 -3.1756293284649D-01  8.7209733249675D-01
   175  1.7400000000000D+00 -3.1770617361832D-01  8.3881208615830D-01
   176  1.7500000000000D+00 -3.1724224595856D-01  8.0534190154271D-01
   177  1.7600000000000D+00 -3.1619628229625D-01  7.7176657316891D-01
   178  1.7700000000000D+00 -3.1459408279834D-01  7.3816459499044D-01
   179  1.7800000000000D+00 -3.1246202362962D-01  7.0461291800527D-01
   180  1.7900000000000D+00 -3.0982696421370D-01  6.7118671420978D-01
   181  1.8000000000000D+00 -3.0671615381258D-01  6.3795914843470D-01
   182  1.8100000000000D+00 -3.0315713754462D-01  6.0500115765778D-01
   183  1.8200000000000D+00 -2.9917766219783D-01  5.7238123944257D-01
   184  1.8300000000000D+00 -2.9480558191395D-01  5.4016524894748D-01
   185  1.8400000000000D+00 -2.9006876410088D-01  5.0841620597666D-01
   186  1.8500000000000D+00 -2.8499499564784D-01  4.7719411165570D-01
   187  1.8600000000000D+00 -2.7961188974693D-01  4.4655577573960D-01
   188  1.8700000000000D+00 -2.7394679344818D-01  4.1655465453439D-01
   189  1.8800000000000D+00 -2.6802669594858D-01  3.8724069911645D-01
   190  1.8900000000000D+00 -2.6187813830233D-01  3.5866021590394D-01
   191  1.9000000000000D+00 -2.5552712652204D-01  3.3085574519463D-01
   192  1.9100000000000D+00 -2.4899903204897D-01  3.0386590802894D-01
   193  1.9200000000000D+00 -2.4231853777935D-01  2.7772539695322D-01
   194  1.9300000000000D+00 -2.3550952601162D-01  2.5246480533322D-01
   195  1.9400000000000D+00 -2.2859495611138D-01  2.2811040851091D-01
   196  1.9500000000000D+00 -2.2159684700492D-01  2.0468429746162D-01
   197  1.9600000000000D+00 -2.1453629126819D-01  1.8220462483074D-01
   198  1.9700000000000D+00 -2.0743346126803D-01  1.6068580911729D-01
   199  1.9800000000000D+00 -2.0030763813473D-01  1.4013874879613D-01
   200  1.9900000000000D+00 -1.9317731992286D-01  1.2057131242441D-01
   201  2.0000000000000D+00 -1.8606013896500D-01  1.0198819811672D-01
   202  2.0100000000000D+00 -1.7897284154522D-01  8.4390977373809D-02
   203  2.0200000000000D+00 -1.7193128037316D-01  6.7778193542633D-02
   204  2.0300000000000D+00 -1.6495041299760D-01  5.2145480463825D-02
   205  2.0400000000000D+00 -1.5804429029672D-01  3.7485641334186D-02
   206  2.0500000000000D+00 -1.5122605740136D-01  2.3788768719905D-02
   207  2.0600000000000D+00 -1.4450795364686D-01  1.1042358688115D-02
   208  2.0700000000000D+00 -1.3790131633565D-01 -7.6856513317844D-04
   209  2.0800000000000D+00 -1.3141658719675D-01 -1.1661321314776D-02
   210  2.0900000000000D+00 -1.2506332148991D-01 -2.1655434736105D-02
   211  2.1000000000000D+00 -1.1885019972263D-01 -3.0772495572685D-02
   212  2.1100000000000D+00 -1.1278504164202D-01 -3.9036014070424D-02
   213  2.1200000000000D+00 -1.0687482259050D-01 -4.6471271641192D-02
   214  2.1300000000000D+00 -1.0112569191854D-01 -5.3105168983015D-02
   215  2.1400000000000D+00 -9.5542993368873D-02 -5.8966071932333D-02
   216  2.1500000000000D+00 -9.0131287317884D-02 -6.4083655846273D-02
   217  2.1600000000000D+00 -8.4894374659337D-02 -6.8488748777659D-02
   218  2.1700000000000D+00 -7.9835322230622D-02 -7.2213174770173D-02
   219  2.1800000000000D+00 -7.4956489614698D-02 -7.5289597341218D-02
   220  2.1900000000000D+00 -7.0259557175029D-02 -7.7751363873407D-02
   221  2.2000000000000D+00 -6.5745555136052D-02 -7.9632352207535D-02
   222  2.2100000000000D+00 -6.1414893651190D-02 -8.0966818790315D-02
   223  2.2200000000000D+00 -5.7267393599550D-02 -8.1789250254325D-02
   224  2.2300000000000D+00 -5.3302318011825D-02 -8.2134218494030D-02
   225  2.2400000000000D+00 -4.9518404101456D-02 -8.2036238816671D-02
   226  2.2500000000000D+00 -4.5913895476276D-02 -8.1529633982926D-02
   227  2.2600000000000D+00 -4.2486574712593D-02 -8.0648402155175D-02
   228  2.2700000000000D+00 -3.9233796003733D-02 -7.9426090408656D-02
   229  2.2800000000000D+00 -3.6152517639051D-02 -7.7895675011698D-02
   230  2.2900000000000D+00 -3.3239334540522D-02 -7.6089446539421D-02
   231  2.3000000000000D+00 -3.0490510347745D-02 -7.4038902725984D-02
   232  2.3100000000000D+00 -2.7902009093183D-02 -7.1774648382693D-02
   233  2.3200000000000D+00 -2.5469526652265D-02 -6.9326300943295D-02
   234  2.3300000000000D+00 -2.3188521219788D-02 -6.6722405740716D-02
   235  2.3400000000000D+00 -2.1054243310369D-02 -6.3990357744272D-02
   236  2.3500000000000D+00 -1.9061765101535D-02 -6.1156330532181D-02
   237  2.3600000000000D+00 -1.7206008560146D-02 -5.8245215296260D-02
   238  2.3700000000000D+00 -1.5481772963735D-02 -5.5280566194786D-02
   239  2.3800000000000D+00 -1.3883761369380D-02 -5.2284554208302D-02
   240  2.3900000000000D+00 -1.2406605779387D-02 -4.9277930517128D-02
   241  2.4000000000000D+00 -1.1044891565489D-02 -4.6279996188604D-02
   242  2.4100000000000D+00 -9.7931805264893D-03 -4.3308581109837D-02
   243  2.4200000000000D+00 -8.6460326392580D-03 -4.0380031564745D-02
   244  2.4300000000000D+00 -7.5980269682680D-03 -3.7509203898614D-02
   245  2.4400000000000D+00 -6.6437809840475D-03 -3.4709467645746D-02
   246  2.4500000000000D+00 -5.7779686326281D-03 -3.1992716181151D-02
   247  2.4600000000000D+00 -4.9953375020932D-03 -2.9369383048222D-02
   248  2.4700000000000D+00 -4.2907242803333D-03 -2.6848467390387D-02
   249  2.4800000000000D+00 -3.6590690588654D-03 -2.4437565665843D-02
   250  2.4900000000000D+00 -3.0954287118459D-03 -2.2142908440696D-02
   251  2.5000000000000D+00 -2.5949885635007D-03 -1.9969405348426D-02
   252  2.5100000000000D+00 -2.1530730141823D-03 -1.7920695063959D-02
   253  2.5200000000000D+00 -1.7651552581245D-03 -1.5999199589581D-02
   254  2.5300000000000D+00 -1.4268653997601D-03 -1.4206185238895D-02
   255  2.5400000000000D+00 -1.1339976447950D-03 -1.2541827396654D-02
   256  2.5500000000000D+00 -8.8251663389820D-04 -1.1005278686547D-02
   257  2.5600000000000D+00 -6.6856238582111D-04 -9.5947419366996D-03
   258  2.5700000000000D+00 -4.8845442854968D-04 -8.3075457274255D-03
   259  2.5800000000000D+00 -3.3869515226784D-04 -7.1402223470074D-03
   260  2.5900000000000D+00 -2.1597205930787D-04 -6.0885883690975D-03
   261  2.6000000000000D+00 -1.1715931564994D-04 -5.1478266292576D-03
   262  2.6100000000000D+00 -3.9318624310808D-05 -4.3125695575508D-03
   263  2.6200000000000D+00  2.0300676856826D-05 -3.5769829019754D-03
   264  2.6300000000000D+00  6.4262088342129D-05 -2.9348495881288D-03
   265  2.6400000000000D+00  9.4942985879125D-05 -2.3796538679641D-03
   266  2.6500000000000D+00  1.1453611673260D-04 -1.9046638644614D-03
   267  2.6600000000000D+00  1.2505150062047D-04 -1.5030127638866D-03
   268  2.6700000000000D+00  1.2831877050653D-04 -1.1677792395057D-03
   269  2.6800000000000D+00  1.2598973017273D-04 -8.9206485726943D-04
   270  2.6900000000000D+00  1.1954107846427D-04 -6.6906823171396D-04
   271  2.7000000000000D+00  1.1027744286270D-04 -4.9215737567829D-04
   272  2.7100000000000D+00  9.9334526311982D-05 -3.5493855376289D-04
   273  2.7200000000000D+00  8.7689050745521D-05 -2.5133201537467D-04
   274  2.7300000000000D+00  7.6177863125560D-05 -1.7566116493674D-04
   275  2.7400000000000D+00  6.5372798473151D-05 -1.2247773013556D-04
   276  2.7500000000000D+00  5.5751549986450D-05 -8.6914475676017D-05
   277  2.7600000000000D+00  4.7304012399695D-05 -6.4229752989587D-05
   278  2.7700000000000D+00  4.0848493138488D-05 -5.1455756150471D-05
   279  2.7800000000000D+00  3.6733907129421D-05 -4.5830532572765D-05
   280  2.7900000000000D+00  3.5632694095378D-05 -4.5703453219234D-05
   281  2.8000000000000D+00  3.6058901482580D-05 -4.7662973147922D-05
   282  2.8100000000000D+00  3.5315137331943D-05 -4.7568272762259D-05
   283  2.8200000000000D+00  3.1082613593316D-05 -4.2236007552947D-05
   284  2.8300000000000D+00  2.1630377467410D-05 -2.9613951476307D-05
   285  2.8400000000000D+00  1.0830899495762D-05 -1.4895163929837D-05
   286  2.8500000000000D+00  1.2204441601611D-06 -1.6827366878814D-06
   287  2.8600000000000D+00 -2.9231502098958D-06  4.0537600581205D-06
   288  2.8700000000000D+00 -3.2681545078150D-06  4.5445387568781D-06
   289  2.8800000000000D+00 -1.4267026089636D-06  1.9883622862667D-06
   290  2.8900000000000D+00  3.5112961376471D-07 -4.8015669887288D-07
   291  2.9000000000000D+00  7.6814247318589D-07 -1.0508136017733D-06
   292  2.9100000000000D+00  5.8427063912296D-07 -7.9954110604884D-07
   293  2.9200000000000D+00  2.4323887212849D-08 -3.3295259276319D-08
   294  2.9300000000000D+00 -7.5611328463440D-08  1.0250720718120D-07
   295  2.9400000000000D+00 -8.9701489367832D-08  1.2160941147247D-07
   296  2.9500000000000D+00 -4.1059792809966D-08  5.5665265693931D-08
   297  2.9600000000000D+00  0.0000000000000D+00  0.0000000000000D+00
   298  2.9700000000000D+00  0.0000000000000D+00  0.0000000000000D+00
   299  2.9800000000000D+00  0.0000000000000D+00  0.0000000000000D+00
   300  2.9900000000000D+00  0.0000000000000D+00  0.0000000000000D+00
   301  3.0000000000000D+00  0.0000000000000D+00  0.0000000000000D+00
   302  3.0100000000000D+00  0.0000000000000D+00  0.0000000000000D+00
   303  3.0200000000000D+00  0.0000000000000D+00  0.0000000000000D+00
   304  3.0300000000000D+00  0.0000000000000D+00  0.0000000000000D+00
   305  3.0400000000000D+00  0.0000000000000D+00  0.0000000000000D+00
   306  3.0500000000000D+00  0.0000000000000D+00  0.0000000000000D+00
   307  3.0600000000000D+00  0.0000000000000D+00  0.0000000000000D+00
   308  3.0700000000000D+00  0.0000000000000D+00  0.0000000000000D+00
   309  3.0800000000000D+00  0.0000000000000D+00  0.0000000000000D+00
   310  3.0900000000000D+00  0.0000000000000D+00  0.0000000000000D+00
   311  3.1000000000000D+00  0.0000000000000D+00  0.0000000000000D+00
   312  3.1100000000000D+00  0.0000000000000D+00  0.0000000000000D+00
   313  3.1200000000000D+00  0.0000000000000D+00  0.0000000000000D+00
   314  3.1300000000000D+00  0.0000000000000D+00  0.0000000000000D+00
   315  3.1400000000000D+00  0.0000000000000D+00  0.0000000000000D+00
   316  3.1500000000000D+00  0.0000000000000D+00  0.0000000000000D+00
   317  3.1600000000000D+00  0.0000000000000D+00  0.0000000000000D+00
   318  3.1700000000000D+00  0.0000000000000D+00  0.0000000000000D+00
   319  3.1800000000000D+00  0.0000000000000D+00  0.0000000000000D+00
   320  3.1900000000000D+00  0.0000000000000D+00  0.0000000000000D+00
   321  3.2000000000000D+00  0.0000000000000D+00  0.0000000000000D+00
   322  3.2100000000000D+00  0.0000000000000D+00  0.0000000000000D+00
   323  3.2200000000000D+00  0.0000000000000D+00  0.0000000000000D+00
   324  3.2300000000000D+00  0.0000000000000D+00  0.0000000000000D+00
   325  3.2400000000000D+00  0.0000000000000D+00  0.0000000000000D+00
   326  3.2500000000000D+00  0.0000000000000D+00  0.0000000000000D+00
   327  3.2600000000000D+00  0.0000000000000D+00  0.0000000000000D+00
   328  3.2700000000000D+00  0.0000000000000D+00  0.0000000000000D+00
   329  3.2800000000000D+00  0.0000000000000D+00  0.0000000000000D+00
   330  3.2900000000000D+00  0.0000000000000D+00  0.0000000000000D+00
   331  3.3000000000000D+00  0.0000000000000D+00  0.0000000000000D+00
   332  3.3100000000000D+00  0.0000000000000D+00  0.0000000000000D+00
   333  3.3200000000000D+00  0.0000000000000D+00  0.0000000000000D+00
   334  3.3300000000000D+00  0.0000000000000D+00  0.0000000000000D+00
   335  3.3400000000000D+00  0.0000000000000D+00  0.0000000000000D+00
   336  3.3500000000000D+00  0.0000000000000D+00  0.0000000000000D+00
   337  3.3600000000000D+00  0.0000000000000D+00  0.0000000000000D+00
   338  3.3700000000000D+00  0.0000000000000D+00  0.0000000000000D+00
   339  3.3800000000000D+00  0.0000000000000D+00  0.0000000000000D+00
   340  3.3900000000000D+00  0.0000000000000D+00  0.0000000000000D+00
   341  3.4000000000000D+00  0.0000000000000D+00  0.0000000000000D+00
   342  3.4100000000000D+00  0.0000000000000D+00  0.0000000000000D+00
   343  3.4200000000000D+00  0.0000000000000D+00  0.0000000000000D+00
   344  3.4300000000000D+00  0.0000000000000D+00  0.0000000000000D+00
   345  3.4400000000000D+00  0.0000000000000D+00  0.0000000000000D+00
   346  3.4500000000000D+00  0.0000000000000D+00  0.0000000000000D+00
   347  3.4600000000000D+00  0.0000000000000D+00  0.0000000000000D+00
   348  3.4700000000000D+00  0.0000000000000D+00  0.0000000000000D+00
   349  3.4800000000000D+00  0.0000000000000D+00  0.0000000000000D+00
   350  3.4900000000000D+00  0.0000000000000D+00  0.0000000000000D+00
   351  3.5000000000000D+00  0.0000000000000D+00  0.0000000000000D+00
   352  3.5100000000000D+00  0.0000000000000D+00  0.0000000000000D+00
   353  3.5200000000000D+00  0.0000000000000D+00  0.0000000000000D+00
   354  3.5300000000000D+00  0.0000000000000D+00  0.0000000000000D+00
   355  3.5400000000000D+00  0.0000000000000D+00  0.0000000000000D+00
   356  3.5500000000000D+00  0.0000000000000D+00  0.0000000000000D+00
   357  3.5600000000000D+00  0.0000000000000D+00  0.0000000000000D+00
   358  3.5700000000000D+00  0.0000000000000D+00  0.0000000000000D+00
   359  3.5800000000000D+00  0.0000000000000D+00  0.0000000000000D+00
   360  3.5900000000000D+00  0.0000000000000D+00  0.0000000000000D+00
   361  3.6000000000000D+00  0.0000000000000D+00  0.0000000000000D+00
   362  3.6100000000000D+00  0.0000000000000D+00  0.0000000000000D+00
   363  3.6200000000000D+00  0.0000000000000D+00  0.0000000000000D+00
   364  3.6300000000000D+00  0.0000000000000D+00  0.0000000000000D+00
   365  3.6400000000000D+00  0.0000000000000D+00  0.0000000000000D+00
   366  3.6500000000000D+00  0.0000000000000D+00  0.0000000000000D+00
   367  3.6600000000000D+00  0.0000000000000D+00  0.0000000000000D+00
   368  3.6700000000000D+00  0.0000000000000D+00  0.0000000000000D+00
   369  3.6800000000000D+00  0.0000000000000D+00  0.0000000000000D+00
   370  3.6900000000000D+00  0.0000000000000D+00  0.0000000000000D+00
   371  3.7000000000000D+00  0.0000000000000D+00  0.0000000000000D+00
   372  3.7100000000000D+00  0.0000000000000D+00  0.0000000000000D+00
   373  3.7200000000000D+00  0.0000000000000D+00  0.0000000000000D+00
   374  3.7300000000000D+00  0.0000000000000D+00  0.0000000000000D+00
   375  3.7400000000000D+00  0.0000000000000D+00  0.0000000000000D+00
   376  3.7500000000000D+00  0.0000000000000D+00  0.0000000000000D+00
   377  3.7600000000000D+00  0.0000000000000D+00  0.0000000000000D+00
   378  3.7700000000000D+00  0.0000000000000D+00  0.0000000000000D+00
   379  3.7800000000000D+00  0.0000000000000D+00  0.0000000000000D+00
   380  3.7900000000000D+00  0.0000000000000D+00  0.0000000000000D+00
   381  3.8000000000000D+00  0.0000000000000D+00  0.0000000000000D+00
   382  3.8100000000000D+00  0.0000000000000D+00  0.0000000000000D+00
   383  3.8200000000000D+00  0.0000000000000D+00  0.0000000000000D+00
   384  3.8300000000000D+00  0.0000000000000D+00  0.0000000000000D+00
   385  3.8400000000000D+00  0.0000000000000D+00  0.0000000000000D+00
   386  3.8500000000000D+00  0.0000000000000D+00  0.0000000000000D+00
   387  3.8600000000000D+00  0.0000000000000D+00  0.0000000000000D+00
   388  3.8700000000000D+00  0.0000000000000D+00  0.0000000000000D+00
   389  3.8800000000000D+00  0.0000000000000D+00  0.0000000000000D+00
   390  3.8900000000000D+00  0.0000000000000D+00  0.0000000000000D+00
   391  3.9000000000000D+00  0.0000000000000D+00  0.0000000000000D+00
   392  3.9100000000000D+00  0.0000000000000D+00  0.0000000000000D+00
   393  3.9200000000000D+00  0.0000000000000D+00  0.0000000000000D+00
   394  3.9300000000000D+00  0.0000000000000D+00  0.0000000000000D+00
   395  3.9400000000000D+00  0.0000000000000D+00  0.0000000000000D+00
   396  3.9500000000000D+00  0.0000000000000D+00  0.0000000000000D+00
   397  3.9600000000000D+00  0.0000000000000D+00  0.0000000000000D+00
   398  3.9700000000000D+00  0.0000000000000D+00  0.0000000000000D+00
   399  3.9800000000000D+00  0.0000000000000D+00  0.0000000000000D+00
   400  3.9900000000000D+00  0.0000000000000D+00  0.0000000000000D+00
   401  4.0000000000000D+00  0.0000000000000D+00  0.0000000000000D+00
   402  4.0100000000000D+00  0.0000000000000D+00  0.0000000000000D+00
   403  4.0200000000000D+00  0.0000000000000D+00  0.0000000000000D+00
   404  4.0300000000000D+00  0.0000000000000D+00  0.0000000000000D+00
   405  4.0400000000000D+00  0.0000000000000D+00  0.0000000000000D+00
   406  4.0500000000000D+00  0.0000000000000D+00  0.0000000000000D+00
   407  4.0600000000000D+00  0.0000000000000D+00  0.0000000000000D+00
   408  4.0700000000000D+00  0.0000000000000D+00  0.0000000000000D+00
   409  4.0800000000000D+00  0.0000000000000D+00  0.0000000000000D+00
   410  4.0900000000000D+00  0.0000000000000D+00  0.0000000000000D+00
   411  4.1000000000000D+00  0.0000000000000D+00  0.0000000000000D+00
   412  4.1100000000000D+00  0.0000000000000D+00  0.0000000000000D+00
   413  4.1200000000000D+00  0.0000000000000D+00  0.0000000000000D+00
   414  4.1300000000000D+00  0.0000000000000D+00  0.0000000000000D+00
   415  4.1400000000000D+00  0.0000000000000D+00  0.0000000000000D+00
   416  4.1500000000000D+00  0.0000000000000D+00  0.0000000000000D+00
   417  4.1600000000000D+00  0.0000000000000D+00  0.0000000000000D+00
   418  4.1700000000000D+00  0.0000000000000D+00  0.0000000000000D+00
   419  4.1800000000000D+00  0.0000000000000D+00  0.0000000000000D+00
   420  4.1900000000000D+00  0.0000000000000D+00  0.0000000000000D+00
   421  4.2000000000000D+00  0.0000000000000D+00  0.0000000000000D+00
   422  4.2100000000000D+00  0.0000000000000D+00  0.0000000000000D+00