Sr    ONCVPSP-3.3.1  r_core=   2.81795   2.68665   2.38455
     38.0000     10.0000      210905    zatom,zion,pspd
     8 -116133   2     4   600     0    pspcod,pspxc,lmax,lloc,mmax,r2well
  5.99000000  0.00000000  0.00000000    rchrg fchrg qchrg
     2     4     3     0    nproj
     3     1           extension_switch
     4     4     0    nprojso
   0                         4.4422379498029D-01  2.8645819929085D+00
     1  0.0000000000000D+00 -1.9880416757267D-12  7.7304829204650D-13
     2  1.0000000000000D-02 -5.6826104353316D-03  3.8200230188435D-02
     3  2.0000000000000D-02 -1.1349386067476D-02  7.6367171704495D-02
     4  3.0000000000000D-02 -1.6984491469738D-02  1.1446756052277D-01
     5  4.0000000000000D-02 -2.2572090069306D-02  1.5246818193008D-01
     6  5.0000000000000D-02 -2.8096343825961D-02  1.9033589522722D-01
     7  6.0000000000000D-02 -3.3541413211514D-02  2.2803765848483D-01
     8  7.0000000000000D-02 -3.8891457587901D-02  2.6554055337067D-01
     9  8.0000000000000D-02 -4.4130636079902D-02  3.0281181006456D-01
    10  9.0000000000000D-02 -4.9243109036006D-02  3.3981883227663D-01
    11  1.0000000000000D-01 -5.4213040168004D-02  3.7652922238300D-01
    12  1.1000000000000D-01 -5.9024599456546D-02  4.1291080669201D-01
    13  1.2000000000000D-01 -6.3661966906053D-02  4.4893166085263D-01
    14  1.3000000000000D-01 -6.8109337228120D-02  4.8456013541475D-01
    15  1.4000000000000D-01 -7.2350925527895D-02  5.1976488154963D-01
    16  1.5000000000000D-01 -7.6370974062805D-02  5.5451487693658D-01
    17  1.6000000000000D-01 -8.0153760137614D-02  5.8877945182002D-01
    18  1.7000000000000D-01 -8.3683605193893D-02  6.2252831523861D-01
    19  1.8000000000000D-01 -8.6944885145947D-02  6.5573158142612D-01
    20  1.9000000000000D-01 -8.9922042008628D-02  6.8835979638098D-01
    21  2.0000000000000D-01 -9.2599596855897D-02  7.2038396459899D-01
    22  2.1000000000000D-01 -9.4962164141771D-02  7.5177557596100D-01
    23  2.2000000000000D-01 -9.6994467408191D-02  7.8250663276468D-01
    24  2.3000000000000D-01 -9.8681356396762D-02  8.1254967688658D-01
    25  2.4000000000000D-01 -1.0000782557380D-01  8.4187781705795D-01
    26  2.5000000000000D-01 -1.0095903407004D-01  8.7046475623478D-01
    27  2.6000000000000D-01 -1.0152032702884D-01  8.9828481903965D-01
    28  2.7000000000000D-01 -1.0167725834829D-01  9.2531297924994D-01
    29  2.8000000000000D-01 -1.0141561479474D-01  9.5152488730418D-01
    30  2.9000000000000D-01 -1.0072144145728D-01  9.7689689779504D-01
    31  3.0000000000000D-01 -9.9581068504185D-02  1.0014060969149D+00
    32  3.1000000000000D-01 -9.7981139194810D-02  1.0250303298170D+00
    33  3.2000000000000D-01 -9.5908639091948D-02  1.0477482278515D+00
    34  3.3000000000000D-01 -9.3350926412023D-02  1.0695392356350D+00
    35  3.4000000000000D-01 -9.0295763442628D-02  1.0903836379067D+00
    36  3.5000000000000D-01 -8.6731348949406D-02  1.1102625861245D+00
    37  3.6000000000000D-01 -8.2646351486724D-02  1.1291581247489D+00
    38  3.7000000000000D-01 -7.8029943519551D-02  1.1470532171637D+00
    39  3.8000000000000D-01 -7.2871836257020D-02  1.1639317711771D+00
    40  3.9000000000000D-01 -6.7162315091466D-02  1.1797786640456D+00
    41  4.0000000000000D-01 -6.0892275530577D-02  1.1945797669631D+00
    42  4.1000000000000D-01 -5.4053259504126D-02  1.2083219689525D+00
    43  4.2000000000000D-01 -4.6637491921519D-02  1.2209932000983D+00
    44  4.3000000000000D-01 -3.8637917350872D-02  1.2325824540560D+00
    45  4.4000000000000D-01 -3.0048236685895D-02  1.2430798097722D+00
    46  4.5000000000000D-01 -2.0862943662475D-02  1.2524764523513D+00
    47  4.6000000000000D-01 -1.1077361082936D-02  1.2607646929989D+00
    48  4.7000000000000D-01 -6.8767660297663D-04  1.2679379879772D+00
    49  4.8000000000000D-01  1.0309022066819D-02  1.2739909565027D+00
    50  4.9000000000000D-01  2.1914712695066D-02  1.2789193975189D+00
    51  5.0000000000000D-01  3.4130404951082D-02  1.2827203052764D+00
    52  5.1000000000000D-01  4.6956107866881D-02  1.2853918836527D+00
    53  5.2000000000000D-01  6.0390798493132D-02  1.2869335591450D+00
    54  5.3000000000000D-01  7.4432391902535D-02  1.2873459924711D+00
    55  5.4000000000000D-01  8.9077712693465D-02  1.2866310887129D+00
    56  5.5000000000000D-01  1.0432246814544D-01  1.2847920059396D+00
    57  5.6000000000000D-01  1.2016122317597D-01  1.2818331622499D+00
    58  5.7000000000000D-01  1.3658737724610D-01  1.2777602411737D+00
    59  5.8000000000000D-01  1.5359314335862D-01  1.2725801953755D+00
    60  5.9000000000000D-01  1.7116952928942D-01  1.2663012486058D+00
    61  6.0000000000000D-01  1.8930632118787D-01  1.2589328958489D+00
    62  6.1000000000000D-01  2.0799206967762D-01  1.2504859016172D+00
    63  6.2000000000000D-01  2.2721407858316D-01  1.2409722963477D+00
    64  6.3000000000000D-01  2.4695839640195D-01  1.2304053708589D+00
    65  6.4000000000000D-01  2.6720981063497D-01  1.2187996688283D+00
    66  6.5000000000000D-01  2.8795184508132D-01  1.2061709772584D+00
    67  6.6000000000000D-01  3.0916676019506D-01  1.1925363149000D+00
    68  6.7000000000000D-01  3.3083555659399D-01  1.1779139186071D+00
    69  6.8000000000000D-01  3.5293798180147D-01  1.1623232276034D+00
    70  6.9000000000000D-01  3.7545254029323D-01  1.1457848656426D+00
    71  7.0000000000000D-01  3.9835650691156D-01  1.1283206210533D+00
    72  7.1000000000000D-01  4.2162594369909D-01  1.1099534246604D+00
    73  7.2000000000000D-01  4.4523572019416D-01  1.0907073255833D+00
    74  7.3000000000000D-01  4.6915953721916D-01  1.0706074649146D+00
    75  7.4000000000000D-01  4.9336995418179D-01  1.0496800472899D+00
    76  7.5000000000000D-01  5.1783841989851D-01  1.0279523103642D+00
    77  7.6000000000000D-01  5.4253530693721D-01  1.0054524922150D+00
    78  7.7000000000000D-01  5.6742994946519D-01  9.8220979670098D-01
    79  7.8000000000000D-01  5.9249068457597D-01  9.5825435680659D-01
    80  7.9000000000000D-01  6.1768489705689D-01  9.3361719601318D-01
    81  8.0000000000000D-01  6.4297906754733D-01  9.0833018773931D-01
    82  8.1000000000000D-01  6.6833882402518D-01  8.8242601290118D-01
    83  8.2000000000000D-01  6.9372899654719D-01  8.5593811564840D-01
    84  8.3000000000000D-01  7.1911367515692D-01  8.2890065733685D-01
    85  8.4000000000000D-01  7.4445627086191D-01  8.0134846880543D-01
    86  8.5000000000000D-01  7.6971957957008D-01  7.7331700102945D-01
    87  8.6000000000000D-01  7.9486584886385D-01  7.4484227422845D-01
    88  8.7000000000000D-01  8.1985684747884D-01  7.1596082551173D-01
    89  8.8000000000000D-01  8.4465393734339D-01  6.8670965514996D-01
    90  8.9000000000000D-01  8.6921814802417D-01  6.5712617156611D-01
    91  9.0000000000000D-01  8.9351025341269D-01  6.2724813514368D-01
    92  9.1000000000000D-01  9.1749085047784D-01  5.9711360095499D-01
    93  9.2000000000000D-01  9.4112043990001D-01  5.6676086051623D-01
    94  9.3000000000000D-01  9.6435950839315D-01  5.3622838268031D-01
    95  9.4000000000000D-01  9.8716861251287D-01  5.0555475378246D-01
    96  9.5000000000000D-01  1.0095084637407D+00  4.7477861715664D-01
    97  9.6000000000000D-01  1.0313400146273D+00  4.4393861214456D-01
    98  9.7000000000000D-01  1.0526245457708D+00  4.1307331272178D-01
    99  9.8000000000000D-01  1.0733237533998D+00  3.8222116586793D-01
   100  9.9000000000000D-01  1.0933998373274D+00  3.5142042981067D-01
   101  1.0000000000000D+00  1.1128155890341D+00  3.2070911227457D-01
   102  1.0100000000000D+00  1.1315344796381D+00  2.9012490886809D-01
   103  1.0200000000000D+00  1.1495207475048D+00  2.5970514174268D-01
   104  1.0300000000000D+00  1.1667394852473D+00  2.2948669865915D-01
   105  1.0400000000000D+00  1.1831567258667D+00  1.9950597259685D-01
   106  1.0500000000000D+00  1.1987395277820D+00  1.6979880204123D-01
   107  1.0600000000000D+00  1.2134560584970D+00  1.4040041208516D-01
   108  1.0700000000000D+00  1.2272756766561D+00  1.1134535647866D-01
   109  1.0800000000000D+00  1.2401690122390D+00  8.2667460760492D-02
   110  1.0900000000000D+00  1.2521080446498D+00  5.4399766603811D-02
   111  1.1000000000000D+00  1.2630661784587D+00  2.6574477506043D-02
   112  1.1100000000000D+00  1.2730183165574D+00 -7.7709404906322D-04
   113  1.1200000000000D+00  1.2819409304977D+00 -2.7624577832031D-02
   114  1.1300000000000D+00  1.2898121277852D+00 -5.3938595388572D-02
   115  1.1400000000000D+00  1.2966117159093D+00 -7.9690807721844D-02
   116  1.1500000000000D+00  1.3023212628973D+00 -1.0485396102118D-01
   117  1.1600000000000D+00  1.3069241541899D+00 -1.2940193032648D-01
   118  1.1700000000000D+00  1.3104056456424D+00 -1.5330976102173D-01
   119  1.1800000000000D+00  1.3127529124671D+00 -1.7655370805571D-01
   120  1.1900000000000D+00  1.3139550939440D+00 -1.9911127279386D-01
   121  1.2000000000000D+00  1.3140033337371D+00 -2.2096123741101D-01
   122  1.2100000000000D+00  1.3128908156626D+00 -2.4208369673801D-01
   123  1.2200000000000D+00  1.3106127947726D+00 -2.6246008748431D-01
   124  1.2300000000000D+00  1.3071666236302D+00 -2.8207321476422D-01
   125  1.2400000000000D+00  1.3025517736599D+00 -3.0090727585907D-01
   126  1.2500000000000D+00  1.2967698514768D+00 -3.1894788115597D-01
   127  1.2600000000000D+00  1.2898246101116D+00 -3.3618207221192D-01
   128  1.2700000000000D+00  1.2817219550625D+00 -3.5259833689688D-01
   129  1.2800000000000D+00  1.2724699451138D+00 -3.6818662157609D-01
   130  1.2900000000000D+00  1.2620787878917D+00 -3.8293834030449D-01
   131  1.3000000000000D+00  1.2505608301273D+00 -3.9684638100758D-01
   132  1.3100000000000D+00  1.2379305426158D+00 -4.0990510863187D-01
   133  1.3200000000000D+00  1.2242044998910D+00 -4.2211036526201D-01
   134  1.3300000000000D+00  1.2094013546264D+00 -4.3345946719948D-01
   135  1.3400000000000D+00  1.1935418068048D+00 -4.4395119901129D-01
   136  1.3500000000000D+00  1.1766485677226D+00 -4.5358580456953D-01
   137  1.3600000000000D+00  1.1587463188782D+00 -4.6236497509567D-01
   138  1.3700000000000D+00  1.1398616658470D+00 -4.7029183424736D-01
   139  1.3800000000000D+00  1.1200230872424D+00 -4.7737092028639D-01
   140  1.3900000000000D+00  1.0992608788621D+00 -4.8360816536509D-01
   141  1.4000000000000D+00  1.0776070931738D+00 -4.8901087199650D-01
   142  1.4100000000000D+00  1.0550954742640D+00 -4.9358768675811D-01
   143  1.4200000000000D+00  1.0317613884128D+00 -4.9734857129963D-01
   144  1.4300000000000D+00  1.0076417504778D+00 -5.0030477073451D-01
   145  1.4400000000000D+00  9.8277494624231D-01 -5.0246877948161D-01
   146  1.4500000000000D+00  9.5720075095482D-01 -5.0385430466070D-01
   147  1.4600000000000D+00  9.3096024423812D-01 -5.0447622711955D-01
   148  1.4700000000000D+00  9.0409572159969D-01 -5.0435056019911D-01
   149  1.4800000000000D+00  8.7665060276845D-01 -5.0349440634033D-01
   150  1.4900000000000D+00  8.4866933707898D-01 -5.0192591163282D-01
   151  1.5000000000000D+00  8.2019730617116D-01 -4.9966421843390D-01
   152  1.5100000000000D+00  7.9128072422442D-01 -4.9672941615641D-01
   153  1.5200000000000D+00  7.6196653601302D-01 -4.9314249036562D-01
   154  1.5300000000000D+00  7.3230231302111D-01 -4.8892527029538D-01
   155  1.5400000000000D+00  7.0233614789934D-01 -4.8410037492127D-01
   156  1.5500000000000D+00  6.7211654752453D-01 -4.7869115771703D-01
   157  1.5600000000000D+00  6.4169232494010D-01 -4.7272165022824D-01
   158  1.5700000000000D+00  6.1111249044794D-01 -4.6621650460010D-01
   159  1.5800000000000D+00  5.8042614213286D-01 -4.5920093519303D-01
   160  1.5900000000000D+00  5.4968235608377D-01 -4.5170065942605D-01
   161  1.6000000000000D+00  5.1893007660359D-01 -4.4374183798534D-01
   162  1.6100000000000D+00  4.8821800665224D-01 -4.3535101453419D-01
   163  1.6200000000000D+00  4.5759449882717D-01 -4.2655505506758D-01
   164  1.6300000000000D+00  4.2710744710184D-01 -4.1738108703988D-01
   165  1.6400000000000D+00  3.9680417963080D-01 -4.0785643841342D-01
   166  1.6500000000000D+00  3.6673135282055D-01 -3.9800857674792D-01
   167  1.6600000000000D+00  3.3693484696992D-01 -3.8786504847982D-01
   168  1.6700000000000D+00  3.0745966365727D-01 -3.7745341850259D-01
   169  1.6800000000000D+00  2.7834982516954D-01 -3.6680121019624D-01
   170  1.6900000000000D+00  2.4964827612332D-01 -3.5593584600619D-01
   171  1.7000000000000D+00  2.2139678756485D-01 -3.4488458871865D-01
   172  1.7100000000000D+00  1.9363586366300D-01 -3.3367448351796D-01
   173  1.7200000000000D+00  1.6640465127970D-01 -3.2233230097390D-01
   174  1.7300000000000D+00  1.3974085248156D-01 -3.1088448102394D-01
   175  1.7400000000000D+00  1.1368064028638D-01 -2.9935707810355D-01
   176  1.7500000000000D+00  8.8258577638623D-02 -2.8777570746092D-01
   177  1.7600000000000D+00  6.3507539934443D-02 -2.7616549282154D-01
   178  1.7700000000000D+00  3.9458640996444D-02 -2.6455101539960D-01
   179  1.7800000000000D+00  1.6141162868114D-02 -2.5295626444387D-01
   180  1.7900000000000D+00 -6.4175107906423D-03 -2.4140458926381D-01
   181  1.8000000000000D+00 -2.8191957277476D-02 -2.2991865295123D-01
   182  1.8100000000000D+00 -4.9158773709299D-02 -2.1852038769825D-01
   183  1.8200000000000D+00 -6.9296631745126D-02 -2.0723095192921D-01
   184  1.8300000000000D+00 -8.8586328498693D-02 -1.9607068913934D-01
   185  1.8400000000000D+00 -1.0701083331238D-01 -1.8505908861888D-01
   186  1.8500000000000D+00 -1.2455533064587D-01 -1.7421474798508D-01
   187  1.8600000000000D+00 -1.4120725892189D-01 -1.6355533762824D-01
   188  1.8700000000000D+00 -1.5695634544378D-01 -1.5309756705412D-01
   189  1.8800000000000D+00 -1.7179463745361D-01 -1.4285715312753D-01
   190  1.8900000000000D+00 -1.8571652925699D-01 -1.3284879028623D-01
   191  1.9000000000000D+00 -1.9871878574393D-01 -1.2308612260715D-01
   192  1.9100000000000D+00 -2.1080056203742D-01 -1.1358171788923D-01
   193  1.9200000000000D+00 -2.2196341980219D-01 -1.0434704353274D-01
   194  1.9300000000000D+00 -2.3221133988977D-01 -9.5392444413011D-02
   195  1.9400000000000D+00 -2.4155073183002D-01 -8.6727122532165D-02
   196  1.9500000000000D+00 -2.4999044229220D-01 -7.8359117838266D-02
   197  1.9600000000000D+00 -2.5754175302116D-01 -7.0295293220275D-02
   198  1.9700000000000D+00 -2.6421837417716D-01 -6.2541321794052D-02
   199  1.9800000000000D+00 -2.7003651420536D-01 -5.5101650376278D-02
   200  1.9900000000000D+00 -2.7501466712622D-01 -4.7979555513590D-02
   201  2.0000000000000D+00 -2.7917377524493D-01 -4.1177077000119D-02
   202  2.0100000000000D+00 -2.8253748857913D-01 -3.4694925763895D-02
   203  2.0200000000000D+00 -2.8513179254980D-01 -2.8532591467990D-02
   204  2.0300000000000D+00 -2.8698439146244D-01 -2.2688528210101D-02
   205  2.0400000000000D+00 -2.8812424662993D-01 -1.7160291788033D-02
   206  2.0500000000000D+00 -2.8858120069325D-01 -1.1944667468910D-02
   207  2.0600000000000D+00 -2.8838509809562D-01 -7.0379531007377D-03
   208  2.0700000000000D+00 -2.8756591051111D-01 -2.4359260785691D-03
   209  2.0800000000000D+00 -2.8615378468362D-01  1.8661618607690D-03
   210  2.0900000000000D+00 -2.8417907197161D-01  5.8735830487792D-03
   211  2.1000000000000D+00 -2.8167211111290D-01  9.5920577551949D-03
   212  2.1100000000000D+00 -2.7866324515189D-01  1.3027748829838D-02
   213  2.1200000000000D+00 -2.7518274174947D-01  1.6187226305154D-02
   214  2.1300000000000D+00 -2.7126073707274D-01  1.9077438964768D-02
   215  2.1400000000000D+00 -2.6692718056434D-01  2.1705685855688D-02
   216  2.1500000000000D+00 -2.6221177997450D-01  2.4079587580793D-02
   217  2.1600000000000D+00 -2.5714394754707D-01  2.6207057650285D-02
   218  2.1700000000000D+00 -2.5175274798768D-01  2.8096274130012D-02
   219  2.1800000000000D+00 -2.4606684794896D-01  2.9755651507423D-02
   220  2.1900000000000D+00 -2.4011446717322D-01  3.1193812839861D-02
   221  2.2000000000000D+00 -2.3392333172251D-01  3.2419562351877D-02
   222  2.2100000000000D+00 -2.2752062883016D-01  3.3441858332836D-02
   223  2.2200000000000D+00 -2.2093296394852D-01  3.4269786551390D-02
   224  2.2300000000000D+00 -2.1418631989377D-01  3.4912534167327D-02
   225  2.2400000000000D+00 -2.0730601782496D-01  3.5379364065507D-02
   226  2.2500000000000D+00 -2.0031668081994D-01  3.5679589890504D-02
   227  2.2600000000000D+00 -1.9324219937683D-01  3.5822551566611D-02
   228  2.2700000000000D+00 -1.8610569919861D-01  3.5817591441715D-02
   229  2.2800000000000D+00 -1.7892951148697D-01  3.5674031147084D-02
   230  2.2900000000000D+00 -1.7173514523190D-01  3.5401149015912D-02
   231  2.3000000000000D+00 -1.6454326203688D-01  3.5008158257251D-02
   232  2.3100000000000D+00 -1.5737365329431D-01  3.4504185839015D-02
   233  2.3200000000000D+00 -1.5024521941704D-01  3.3898252000401D-02
   234  2.3300000000000D+00 -1.4317595172807D-01  3.3199250604693D-02
   235  2.3400000000000D+00 -1.3618291647538D-01  3.2415930176188D-02
   236  2.3500000000000D+00 -1.2928224104940D-01  3.1556875663725D-02
   237  2.3600000000000D+00 -1.2248910268298D-01  3.0630491030896D-02
   238  2.3700000000000D+00 -1.1581771921110D-01  2.9644982561607D-02
   239  2.3800000000000D+00 -1.0928134205320D-01  2.8608342944441D-02
   240  2.3900000000000D+00 -1.0289225142586D-01  2.7528336148219D-02
   241  2.4000000000000D+00 -9.6661753626738D-02  2.6412483071639D-02
   242  2.4100000000000D+00 -9.0600180412521D-02  2.5268047972816D-02
   243  2.4200000000000D+00 -8.4716890404015D-02  2.4102025675164D-02
   244  2.4300000000000D+00 -7.9020272596959D-02  2.2921129616169D-02
   245  2.4400000000000D+00 -7.3517751729841D-02  2.1731780640516D-02
   246  2.4500000000000D+00 -6.8215795567684D-02  2.0540096590549D-02
   247  2.4600000000000D+00 -6.3119924336258D-02  1.9351882813967D-02
   248  2.4700000000000D+00 -5.8234721730732D-02  1.8172623367188D-02
   249  2.4800000000000D+00 -5.3563847835708D-02  1.7007473077899D-02
   250  2.4900000000000D+00 -4.9110054224778D-02  1.5861250594467D-02
   251  2.5000000000000D+00 -4.4875200415623D-02  1.4738432110656D-02
   252  2.5100000000000D+00 -4.0860272311629D-02  1.3643146041605D-02
   253  2.5200000000000D+00 -3.7065402795449D-02  1.2579168734886D-02
   254  2.5300000000000D+00 -3.3489893664339D-02  1.1549920919263D-02
   255  2.5400000000000D+00 -3.0132239640243D-02  1.0558465201058D-02
   256  2.5500000000000D+00 -2.6990154395672D-02  9.6075046007320D-03
   257  2.5600000000000D+00 -2.4060598240462D-02  8.6993820223278D-03
   258  2.5700000000000D+00 -2.1339807906010D-02  7.8360808402185D-03
   259  2.5800000000000D+00 -1.8823328048469D-02  7.0192264658663D-03
   260  2.5900000000000D+00 -1.6506045096002D-02  6.2500891879132D-03
   261  2.6000000000000D+00 -1.4382223117684D-02  5.5295881597310D-03
   262  2.6100000000000D+00 -1.2445540928167D-02  4.8582962290289D-03
   263  2.6200000000000D+00 -1.0689132395653D-02  4.2364464521066D-03
   264  2.6300000000000D+00 -9.1056286933179D-03  3.6639397851031D-03
   265  2.6400000000000D+00 -7.6872011431023D-03  3.1403534100230D-03
   266  2.6500000000000D+00 -6.4256078013205D-03  2.6649510268745D-03
   267  2.6600000000000D+00 -5.3122421813057D-03  2.2366944644303D-03
   268  2.6700000000000D+00 -4.3381818449007D-03  1.8542556802854D-03
   269  2.6800000000000D+00 -3.4942402201669D-03  1.5160305750207D-03
   270  2.6900000000000D+00 -2.7710213778146D-03  1.2201545308754D-03
   271  2.7000000000000D+00 -2.1589739370719D-03  9.6451808320658D-04
   272  2.7100000000000D+00 -1.6484460849236D-03  7.4678357894521D-04
   273  2.7200000000000D+00 -1.2297463970231D-03  5.6440246937539D-04
   274  2.7300000000000D+00 -8.9320641159909D-04  4.1462773721440D-04
   275  2.7400000000000D+00 -6.2920510491754D-04  2.9457458489540D-04
   276  2.7500000000000D+00 -4.2826983421034D-04  2.0118885848549D-04
   277  2.7600000000000D+00 -2.8071324417649D-04  1.3114105556966D-04
   278  2.7700000000000D+00 -1.7815038857789D-04  8.1324301738529D-05
   279  2.7800000000000D+00 -1.1216259426109D-04  4.8427838487672D-05
   280  2.7900000000000D+00 -7.5590647674653D-05  2.9470976863215D-05
   281  2.8000000000000D+00 -5.8902139741487D-05  2.0390178743949D-05
   282  2.8100000000000D+00 -5.1489067145510D-05  1.6592511209010D-05
   283  2.8200000000000D+00 -4.4597796969579D-05  1.4169145953853D-05
   284  2.8300000000000D+00 -3.1282955798420D-05  9.9193929117325D-06
   285  2.8400000000000D+00 -1.6096277313618D-05  5.1471040965665D-06
   286  2.8500000000000D+00 -2.0873818914142D-06  6.7532657305243D-07
   287  2.8600000000000D+00  3.9630317616829D-06 -1.2100412735757D-06
   288  2.8700000000000D+00  4.5416946650270D-06 -1.3861058491917D-06
   289  2.8800000000000D+00  2.0523084985495D-06 -6.2666233583573D-07
   290  2.8900000000000D+00 -4.3086243288213D-07  1.2705229558399D-07
   291  2.9000000000000D+00 -9.8166675259443D-07  2.8829429948698D-07
   292  2.9100000000000D+00 -7.5846256653972D-07  2.2196432536161D-07
   293  2.9200000000000D+00 -4.9463103049965D-08  1.4431363771384D-08
   294  2.9300000000000D+00  1.0647062562979D-07 -3.3922309620565D-08
   295  2.9400000000000D+00  1.2899215613768D-07 -4.1097831756355D-08
   296  2.9500000000000D+00  6.1083336827504D-08 -1.9461591892254D-08
   297  2.9600000000000D+00  0.0000000000000D+00  0.0000000000000D+00
   298  2.9700000000000D+00  0.0000000000000D+00  0.0000000000000D+00
   299  2.9800000000000D+00  0.0000000000000D+00  0.0000000000000D+00
   300  2.9900000000000D+00  0.0000000000000D+00  0.0000000000000D+00
   301  3.0000000000000D+00  0.0000000000000D+00  0.0000000000000D+00
   302  3.0100000000000D+00  0.0000000000000D+00  0.0000000000000D+00
   303  3.0200000000000D+00  0.0000000000000D+00  0.0000000000000D+00
   304  3.0300000000000D+00  0.0000000000000D+00  0.0000000000000D+00
   305  3.0400000000000D+00  0.0000000000000D+00  0.0000000000000D+00
   306  3.0500000000000D+00  0.0000000000000D+00  0.0000000000000D+00
   307  3.0600000000000D+00  0.0000000000000D+00  0.0000000000000D+00
   308  3.0700000000000D+00  0.0000000000000D+00  0.0000000000000D+00
   309  3.0800000000000D+00  0.0000000000000D+00  0.0000000000000D+00
   310  3.0900000000000D+00  0.0000000000000D+00  0.0000000000000D+00
   311  3.1000000000000D+00  0.0000000000000D+00  0.0000000000000D+00
   312  3.1100000000000D+00  0.0000000000000D+00  0.0000000000000D+00
   313  3.1200000000000D+00  0.0000000000000D+00  0.0000000000000D+00
   314  3.1300000000000D+00  0.0000000000000D+00  0.0000000000000D+00
   315  3.1400000000000D+00  0.0000000000000D+00  0.0000000000000D+00
   316  3.1500000000000D+00  0.0000000000000D+00  0.0000000000000D+00
   317  3.1600000000000D+00  0.0000000000000D+00  0.0000000000000D+00
   318  3.1700000000000D+00  0.0000000000000D+00  0.0000000000000D+00
   319  3.1800000000000D+00  0.0000000000000D+00  0.0000000000000D+00
   320  3.1900000000000D+00  0.0000000000000D+00  0.0000000000000D+00
   321  3.2000000000000D+00  0.0000000000000D+00  0.0000000000000D+00
   322  3.2100000000000D+00  0.0000000000000D+00  0.0000000000000D+00
   323  3.2200000000000D+00  0.0000000000000D+00  0.0000000000000D+00
   324  3.2300000000000D+00  0.0000000000000D+00  0.0000000000000D+00
   325  3.2400000000000D+00  0.0000000000000D+00  0.0000000000000D+00
   326  3.2500000000000D+00  0.0000000000000D+00  0.0000000000000D+00
   327  3.2600000000000D+00  0.0000000000000D+00  0.0000000000000D+00
   328  3.2700000000000D+00  0.0000000000000D+00  0.0000000000000D+00
   329  3.2800000000000D+00  0.0000000000000D+00  0.0000000000000D+00
   330  3.2900000000000D+00  0.0000000000000D+00  0.0000000000000D+00
   331  3.3000000000000D+00  0.0000000000000D+00  0.0000000000000D+00
   332  3.3100000000000D+00  0.0000000000000D+00  0.0000000000000D+00
   333  3.3200000000000D+00  0.0000000000000D+00  0.0000000000000D+00
   334  3.3300000000000D+00  0.0000000000000D+00  0.0000000000000D+00
   335  3.3400000000000D+00  0.0000000000000D+00  0.0000000000000D+00
   336  3.3500000000000D+00  0.0000000000000D+00  0.0000000000000D+00
   337  3.3600000000000D+00  0.0000000000000D+00  0.0000000000000D+00
   338  3.3700000000000D+00  0.0000000000000D+00  0.0000000000000D+00
   339  3.3800000000000D+00  0.0000000000000D+00  0.0000000000000D+00
   340  3.3900000000000D+00  0.0000000000000D+00  0.0000000000000D+00
   341  3.4000000000000D+00  0.0000000000000D+00  0.0000000000000D+00
   342  3.4100000000000D+00  0.0000000000000D+00  0.0000000000000D+00
   343  3.4200000000000D+00  0.0000000000000D+00  0.0000000000000D+00
   344  3.4300000000000D+00  0.0000000000000D+00  0.0000000000000D+00
   345  3.4400000000000D+00  0.0000000000000D+00  0.0000000000000D+00
   346  3.4500000000000D+00  0.0000000000000D+00  0.0000000000000D+00
   347  3.4600000000000D+00  0.0000000000000D+00  0.0000000000000D+00
   348  3.4700000000000D+00  0.0000000000000D+00  0.0000000000000D+00
   349  3.4800000000000D+00  0.0000000000000D+00  0.0000000000000D+00
   350  3.4900000000000D+00  0.0000000000000D+00  0.0000000000000D+00
   351  3.5000000000000D+00  0.0000000000000D+00  0.0000000000000D+00
   352  3.5100000000000D+00  0.0000000000000D+00  0.0000000000000D+00
   353  3.5200000000000D+00  0.0000000000000D+00  0.0000000000000D+00
   354  3.5300000000000D+00  0.0000000000000D+00  0.0000000000000D+00
   355  3.5400000000000D+00  0.0000000000000D+00  0.0000000000000D+00
   356  3.5500000000000D+00  0.0000000000000D+00  0.0000000000000D+00
   357  3.5600000000000D+00  0.0000000000000D+00  0.0000000000000D+00
   358  3.5700000000000D+00  0.0000000000000D+00  0.0000000000000D+00
   359  3.5800000000000D+00  0.0000000000000D+00  0.0000000000000D+00
   360  3.5900000000000D+00  0.0000000000000D+00  0.0000000000000D+00
   361  3.6000000000000D+00  0.0000000000000D+00  0.0000000000000D+00
   362  3.6100000000000D+00  0.0000000000000D+00  0.0000000000000D+00
   363  3.6200000000000D+00  0.0000000000000D+00  0.0000000000000D+00
   364  3.6300000000000D+00  0.0000000000000D+00  0.0000000000000D+00
   365  3.6400000000000D+00  0.0000000000000D+00  0.0000000000000D+00
   366  3.6500000000000D+00  0.0000000000000D+00  0.0000000000000D+00
   367  3.6600000000000D+00  0.0000000000000D+00  0.0000000000000D+00
   368  3.6700000000000D+00  0.0000000000000D+00  0.0000000000000D+00
   369  3.6800000000000D+00  0.0000000000000D+00  0.0000000000000D+00
   370  3.6900000000000D+00  0.0000000000000D+00  0.0000000000000D+00
   371  3.7000000000000D+00  0.0000000000000D+00  0.0000000000000D+00
   372  3.7100000000000D+00  0.0000000000000D+00  0.0000000000000D+00
   373  3.7200000000000D+00  0.0000000000000D+00  0.0000000000000D+00
   374  3.7300000000000D+00  0.0000000000000D+00  0.0000000000000D+00
   375  3.7400000000000D+00  0.0000000000000D+00  0.0000000000000D+00
   376  3.7500000000000D+00  0.0000000000000D+00  0.0000000000000D+00
   377  3.7600000000000D+00  0.0000000000000D+00  0.0000000000000D+00
   378  3.7700000000000D+00  0.0000000000000D+00  0.0000000000000D+00
   379  3.7800000000000D+00  0.0000000000000D+00  0.0000000000000D+00
   380  3.7900000000000D+00  0.0000000000000D+00  0.0000000000000D+00
   381  3.8000000000000D+00  0.0000000000000D+00  0.0000000000000D+00
   382  3.8100000000000D+00  0.0000000000000D+00  0.0000000000000D+00
   383  3.8200000000000D+00  0.0000000000000D+00  0.0000000000000D+00
   384  3.8300000000000D+00  0.0000000000000D+00  0.0000000000000D+00
   385  3.8400000000000D+00  0.0000000000000D+00  0.0000000000000D+00
   386  3.8500000000000D+00  0.0000000000000D+00  0.0000000000000D+00
   387  3.8600000000000D+00  0.0000000000000D+00  0.0000000000000D+00
   388  3.8700000000000D+00  0.0000000000000D+00  0.0000000000000D+00
   389  3.8800000000000D+00  0.0000000000000D+00  0.0000000000000D+00
   390  3.8900000000000D+00  0.0000000000000D+00  0.0000000000000D+00
   391  3.9000000000000D+00  0.0000000000000D+00  0.0000000000000D+00
   392  3.9100000000000D+00  0.0000000000000D+00  0.0000000000000D+00
   393  3.9200000000000D+00  0.0000000000000D+00  0.0000000000000D+00
   394  3.9300000000000D+00  0.0000000000000D+00  0.0000000000000D+00
   395  3.9400000000000D+00  0.0000000000000D+00  0.0000000000000D+00
   396  3.9500000000000D+00  0.0000000000000D+00  0.0000000000000D+00
   397  3.9600000000000D+00  0.0000000000000D+00  0.0000000000000D+00
   398  3.9700000000000D+00  0.0000000000000D+00  0.0000000000000D+00
   399  3.9800000000000D+00  0.0000000000000D+00  0.0000000000000D+00
   400  3.9900000000000D+00  0.0000000000000D+00  0.0000000000000D+00
   401  4.0000000000000D+00  0.0000000000000D+00  0.0000000000000D+00
   402  4.0100000000000D+00  0.0000000000000D+00  0.0000000000000D+00
   403  4.0200000000000D+00  0.0000000000000D+00  0.0000000000000D+00
   404  4.0300000000000D+00  0.0000000000000D+00  0.0000000000000D+00
   405  4.0400000000000D+00  0.0000000000000D+00  0.0000000000000D+00
   406  4.0500000000000D+00  0.0000000000000D+00  0.0000000000000D+00
   407  4.0600000000000D+00  0.0000000000000D+00  0.0000000000000D+00
   408  4.0700000000000D+00  0.0000000000000D+00  0.0000000000000D+00
   409  4.0800000000000D+00  0.0000000000000D+00  0.0000000000000D+00
   410  4.0900000000000D+00  0.0000000000000D+00  0.0000000000000D+00
   411  4.1000000000000D+00  0.0000000000000D+00  0.0000000000000D+00
   412  4.1100000000000D+00  0.0000000000000D+00  0.0000000000000D+00
   413  4.1200000000000D+00  0.0000000000000D+00  0.0000000000000D+00
   414  4.1300000000000D+00  0.0000000000000D+00  0.0000000000000D+00
   415  4.1400000000000D+00  0.0000000000000D+00  0.0000000000000D+00
   416  4.1500000000000D+00  0.0000000000000D+00  0.0000000000000D+00
   417  4.1600000000000D+00  0.0000000000000D+00  0.0000000000000D+00
   418  4.1700000000000D+00  0.0000000000000D+00  0.0000000000000D+00
   419  4.1800000000000D+00  0.0000000000000D+00  0.0000000000000D+00
   420  4.1900000000000D+00  0.0000000000000D+00  0.0000000000000D+00
   421  4.2000000000000D+00  0.0000000000000D+00  0.0000000000000D+00
   422  4.2100000000000D+00  0.0000000000000D+00  0.0000000000000D+00