Ta    ONCVPSP-3.3.1  r_core=   2.25368   2.17446   2.04856   3.00072
     73.0000     27.0000      210905    zatom,zion,pspd
     8 -116133   3     4   600     0    pspcod,pspxc,lmax,lloc,mmax,r2well
  5.99000000  0.00000000  0.00000000    rchrg fchrg qchrg
     2     2     2     2     0    nproj
     1     1           extension_switch
   0                         4.2546210615943D+00 -1.2060283136168D-01
     1  0.0000000000000D+00 -5.6443738571943D-13  6.8497429950298D-12
     2  1.0000000000000D-02  5.6399924639443D-02  2.3995274998385D-02
     3  2.0000000000000D-02  1.1271277205027D-01  4.7930201917053D-02
     4  3.0000000000000D-02  1.6885162463377D-01  7.1744587602600D-02
     5  4.0000000000000D-02  2.2472988377543D-01  9.5378548593871D-02
     6  5.0000000000000D-02  2.8026142864799D-01  1.1877266556530D-01
     7  6.0000000000000D-02  3.3536077418804D-01  1.4186813728193D-01
     8  7.0000000000000D-02  3.8994322797127D-01  1.6460693389493D-01
     9  8.0000000000000D-02  4.4392504571213D-01  1.8693194939972D-01
    10  9.0000000000000D-02  4.9722358511411D-01  2.0878715306961D-01
    11  1.0000000000000D-01  5.4975745779806D-01  2.3011773966873D-01
    12  1.1000000000000D-01  6.0144667903682D-01  2.5087027823544D-01
    13  1.2000000000000D-01  6.5221281502577D-01  2.7099285921557D-01
    14  1.3000000000000D-01  7.0197912742044D-01  2.9043523971060D-01
    15  1.4000000000000D-01  7.5067071487408D-01  3.0914898659130D-01
    16  1.5000000000000D-01  7.9821465131023D-01  3.2708761721168D-01
    17  1.6000000000000D-01  8.4454012066744D-01  3.4420673744249D-01
    18  1.7000000000000D-01  8.8957854785643D-01  3.6046417672659D-01
    19  1.8000000000000D-01  9.3326372567268D-01  3.7582011984250D-01
    20  1.9000000000000D-01  9.7553193741102D-01  3.9023723504581D-01
    21  2.0000000000000D-01  1.0163220749329D+00  4.0368079824192D-01
    22  2.1000000000000D-01  1.0555757519413D+00  4.1611881282841D-01
    23  2.2000000000000D-01  1.0932374122225D+00  4.2752212483022D-01
    24  2.3000000000000D-01  1.1292544326211D+00  4.3786453293732D-01
    25  2.4000000000000D-01  1.1635772205178D+00  4.4712289304191D-01
    26  2.5000000000000D-01  1.1961593055895D+00  4.5527721686153D-01
    27  2.6000000000000D-01  1.2269574256348D+00  4.6231076422463D-01
    28  2.7000000000000D-01  1.2559316062587D+00  4.6821012858844D-01
    29  2.8000000000000D-01  1.2830452342170D+00  4.7296531535311D-01
    30  2.9000000000000D-01  1.3082651242311D+00  4.7656981253381D-01
    31  3.0000000000000D-01  1.3315615790923D+00  4.7902065335164D-01
    32  3.1000000000000D-01  1.3529084428871D+00  4.8031847030668D-01
    33  3.2000000000000D-01  1.3722831471842D+00  4.8046754030173D-01
    34  3.3000000000000D-01  1.3896667500381D+00  4.7947582039322D-01
    35  3.4000000000000D-01  1.4050439676745D+00  4.7735497375721D-01
    36  3.5000000000000D-01  1.4184031987375D+00  4.7412038547248D-01
    37  3.6000000000000D-01  1.4297365409929D+00  4.6979116774063D-01
    38  3.7000000000000D-01  1.4390398003962D+00  4.6439015418400D-01
    39  3.8000000000000D-01  1.4463124924483D+00  4.5794388288640D-01
    40  3.9000000000000D-01  1.4515578357807D+00  4.5048256786940D-01
    41  4.0000000000000D-01  1.4547827379273D+00  4.4204005872797D-01
    42  4.1000000000000D-01  1.4559977732548D+00  4.3265378818321D-01
    43  4.2000000000000D-01  1.4552171530487D+00  4.2236470734784D-01
    44  4.3000000000000D-01  1.4524586877610D+00  4.1121720854004D-01
    45  4.4000000000000D-01  1.4477437414538D+00  3.9925903552556D-01
    46  4.5000000000000D-01  1.4410971784858D+00  3.8654118111363D-01
    47  4.6000000000000D-01  1.4325473025118D+00  3.7311777208179D-01
    48  4.7000000000000D-01  1.4221257878857D+00  3.5904594145595D-01
    49  4.8000000000000D-01  1.4098676035750D+00  3.4438568822614D-01
    50  4.9000000000000D-01  1.3958109297199D+00  3.2919972463345D-01
    51  5.0000000000000D-01  1.3799970669860D+00  3.1355331122211D-01
    52  5.1000000000000D-01  1.3624703388850D+00  2.9751407990876D-01
    53  5.2000000000000D-01  1.3432779872549D+00  2.8115184538148D-01
    54  5.3000000000000D-01  1.3224700611141D+00  2.6453840520200D-01
    55  5.4000000000000D-01  1.3000992991241D+00  2.4774732904594D-01
    56  5.5000000000000D-01  1.2762210059140D+00  2.3085373757721D-01
    57  5.6000000000000D-01  1.2508929225429D+00  2.1393407151447D-01
    58  5.7000000000000D-01  1.2241750913926D+00  1.9706585150792D-01
    59  5.8000000000000D-01  1.1961297158043D+00  1.8032742950450D-01
    60  5.9000000000000D-01  1.1668210147896D+00  1.6379773233817D-01
    61  6.0000000000000D-01  1.1363150731651D+00  1.4755599833839D-01
    62  6.1000000000000D-01  1.1046796874762D+00  1.3168150780460D-01
    63  6.2000000000000D-01  1.0719842080900D+00  1.1625330824652D-01
    64  6.3000000000000D-01  1.0382993778554D+00  1.0134993533903D-01
    65  6.4000000000000D-01  1.0036971677395D+00  8.7049130586910D-02
    66  6.5000000000000D-01  9.6825060986381D-01  7.3427556736136D-02
    67  6.6000000000000D-01  9.3203362837395D-01  6.0560512007574D-02
    68  6.7000000000000D-01  8.9512086858887D-01  4.8521644262456D-02
    69  6.8000000000000D-01  8.5758752488237D-01  3.7382666238797D-02
    70  6.9000000000000D-01  8.1950916775878D-01  2.7213073022110D-02
    71  7.0000000000000D-01  7.8096157059000D-01  1.8079862933732D-02
    72  7.1000000000000D-01  7.4202053648596D-01  1.0047263033198D-02
    73  7.2000000000000D-01  7.0276172577339D-01  3.1764604404067D-03
    74  7.3000000000000D-01  6.6326048455935D-01 -2.4746593150675D-03
    75  7.4000000000000D-01  6.2359167485567D-01 -6.8517657130432D-03
    76  7.5000000000000D-01  5.8382950673845D-01 -9.9043272355967D-03
    77  7.6000000000000D-01  5.4404737301320D-01 -1.1585844755078D-02
    78  7.7000000000000D-01  5.0431768685117D-01 -1.1854073160539D-02
    79  7.8000000000000D-01  4.6471172285490D-01 -1.0671230094549D-02
    80  7.9000000000000D-01  4.2529946200290D-01 -8.0041907070335D-03
    81  8.0000000000000D-01  3.8614944091251D-01 -3.8246673736120D-03
    82  8.1000000000000D-01  3.4732860584818D-01  1.8906266260853D-03
    83  8.2000000000000D-01  3.0890217188870D-01  9.1598304226305D-03
    84  8.3000000000000D-01  2.7093348765143D-01  1.7995806755239D-02
    85  8.4000000000000D-01  2.3348390595488D-01  2.8406031882738D-02
    86  8.5000000000000D-01  1.9661266078246D-01  4.0392504963672D-02
    87  8.6000000000000D-01  1.6037675089049D-01  5.3951677587504D-02
    88  8.7000000000000D-01  1.2483083038207D-01  6.9074404057590D-02
    89  8.8000000000000D-01  9.0027106546176D-02  8.5745912941857D-02
    90  8.9000000000000D-01  5.6015245237278D-02  1.0394580031774D-01
    91  9.0000000000000D-01  2.2842284045851D-02  1.2364804504460D-01
    92  9.1000000000000D-01 -9.4474465157184D-03  1.4482104630073D-01
    93  9.2000000000000D-01 -4.0812393614493D-02  1.6742768352190D-01
    94  9.3000000000000D-01 -7.1213844316036D-02  1.9142539877734D-01
    95  9.4000000000000D-01 -1.0061597927999D-01  2.1676630151485D-01
    96  9.5000000000000D-01 -1.2898591782058D-01  2.4339729550155D-01
    97  9.6000000000000D-01 -1.5629375424975D-01  2.7126022768063D-01
    98  9.7000000000000D-01 -1.8251258545111D-01  3.0029205855834D-01
    99  9.8000000000000D-01 -2.0761852966295D-01  3.3042505362912D-01
   100  9.9000000000000D-01 -2.3159073647915D-01  3.6158699524188D-01
   101  1.0000000000000D+00 -2.5441138810741D-01  3.9370141420642D-01
   102  1.0100000000000D+00 -2.7606569195485D-01  4.2668784033576D-01
   103  1.0200000000000D+00 -2.9654186464017D-01  4.6046207102483D-01
   104  1.0300000000000D+00 -3.1583110756252D-01  4.9493645686552D-01
   105  1.0400000000000D+00 -3.3392757418577D-01  5.3002020320777D-01
   106  1.0500000000000D+00 -3.5082832922558D-01  5.6561968648871D-01
   107  1.0600000000000D+00 -3.6653329995442D-01  6.0163878406782D-01
   108  1.0700000000000D+00 -3.8104521986750D-01  6.3797921622704D-01
   109  1.0800000000000D+00 -3.9436956497571D-01  6.7454089892852D-01
   110  1.0900000000000D+00 -4.0651448302058D-01  7.1122230584786D-01
   111  1.1000000000000D+00 -4.1749071592627D-01  7.4792083814922D-01
   112  1.1100000000000D+00 -4.2731151582832D-01  7.8453320041275D-01
   113  1.1200000000000D+00 -4.3599255503738D-01  8.2095578108430D-01
   114  1.1300000000000D+00 -4.4355183031685D-01  8.5708503577780D-01
   115  1.1400000000000D+00 -4.5000956187116D-01  8.9281787173281D-01
   116  1.1500000000000D+00 -4.5538808745693D-01  9.2805203171203D-01
   117  1.1600000000000D+00 -4.5971175204247D-01  9.6268647561287D-01
   118  1.1700000000000D+00 -4.6300679345465D-01  9.9662175806124D-01
   119  1.1800000000000D+00 -4.6530122446282D-01  1.0297604002653D+00
   120  1.1900000000000D+00 -4.6662471175717D-01  1.0620072544283D+00
   121  1.2000000000000D+00 -4.6700845228494D-01  1.0932698590305D+00
   122  1.2100000000000D+00 -4.6648504741456D-01  1.1234587833354D+00
   123  1.2200000000000D+00 -4.6508837539867D-01  1.1524879595218D+00
   124  1.2300000000000D+00 -4.6285346260723D-01  1.1802750008849D+00
   125  1.2400000000000D+00 -4.5981635400312D-01  1.2067415046040D+00
   126  1.2500000000000D+00 -4.5601398332614D-01  1.2318133376702D+00
   127  1.2600000000000D+00 -4.5148404344611D-01  1.2554209046299D+00
   128  1.2700000000000D+00 -4.4626485734380D-01  1.2774993958492D+00
   129  1.2800000000000D+00 -4.4039525016116D-01  1.2979890151688D+00
   130  1.2900000000000D+00 -4.3391442275391D-01  1.3168351858803D+00
   131  1.3000000000000D+00 -4.2686182717635D-01  1.3339887340035D+00
   132  1.3100000000000D+00 -4.1927704449577D-01  1.3494060480848D+00
   133  1.3200000000000D+00 -4.1119966532985D-01  1.3630492147582D+00
   134  1.3300000000000D+00 -4.0266917349010D-01  1.3748861293980D+00
   135  1.3400000000000D+00 -3.9372483306810D-01  1.3848905814898D+00
   136  1.3500000000000D+00 -3.8440557931227D-01  1.3930423142691D+00
   137  1.3600000000000D+00 -3.7474991360935D-01  1.3993270584067D+00
   138  1.3700000000000D+00 -3.6479580283597D-01  1.4037365397793D+00
   139  1.3800000000000D+00 -3.5458058338368D-01  1.4062684611660D+00
   140  1.3900000000000D+00 -3.4414087006657D-01  1.4069264582384D+00
   141  1.4000000000000D+00 -3.3351247013180D-01  1.4057200301289D+00
   142  1.4100000000000D+00 -3.2273030259010D-01  1.4026644449082D+00
   143  1.4200000000000D+00 -3.1182832297670D-01  1.3977806208271D+00
   144  1.4300000000000D+00 -3.0083945373543D-01  1.3910949837698D+00
   145  1.4400000000000D+00 -2.8979552029444D-01  1.3826393019869D+00
   146  1.4500000000000D+00 -2.7872719291870D-01  1.3724504990557D+00
   147  1.4600000000000D+00 -2.6766393443152D-01  1.3605704460338D+00
   148  1.4700000000000D+00 -2.5663395375555D-01  1.3470457343428D+00
   149  1.4800000000000D+00 -2.4566416537031D-01  1.3319274303322D+00
   150  1.4900000000000D+00 -2.3478015456702D-01  1.3152708133446D+00
   151  1.5000000000000D+00 -2.2400614851305D-01  1.2971350985615D+00
   152  1.5100000000000D+00 -2.1336499302418D-01  1.2775831463874D+00
   153  1.5200000000000D+00 -2.0287813492503D-01  1.2566811601108D+00
   154  1.5300000000000D+00 -1.9256560993143D-01  1.2344983734956D+00
   155  1.5400000000000D+00 -1.8244603581249D-01  1.2111067303872D+00
   156  1.5500000000000D+00 -1.7253661078399D-01  1.1865805579749D+00
   157  1.5600000000000D+00 -1.6285311681698D-01  1.1609962359303D+00
   158  1.5700000000000D+00 -1.5340992777195D-01  1.1344318632008D+00
   159  1.5800000000000D+00 -1.4422002203701D-01  1.1069669246277D+00
   160  1.5900000000000D+00 -1.3529499950359D-01  1.0786819593167D+00
   161  1.6000000000000D+00 -1.2664510257388D-01  1.0496582328674D+00
   162  1.6100000000000D+00 -1.1827924096483D-01  1.0199774154187D+00
   163  1.6200000000000D+00 -1.1020502001380D-01  9.8972126760784D-01
   164  1.6300000000000D+00 -1.0242877220386D-01  9.5897133627886D-01
   165  1.6400000000000D+00 -9.4955591614346D-02  9.2780866209174D-01
   166  1.6500000000000D+00 -8.7789370992232D-02  8.9631350060670D-01
   167  1.6600000000000D+00 -8.0932841139477D-02  8.6456505909066D-01
   168  1.6700000000000D+00 -7.4387612313511D-02  8.3264125024709D-01
   169  1.6800000000000D+00 -6.8154217316521D-02  8.0061846522640D-01
   170  1.6900000000000D+00 -6.2232155992864D-02  7.6857136667070D-01
   171  1.7000000000000D+00 -5.6619940786366D-02  7.3657270423458D-01
   172  1.7100000000000D+00 -5.1315143113497D-02  7.0469315286814D-01
   173  1.7200000000000D+00 -4.6314440182374D-02  6.7300117630998D-01
   174  1.7300000000000D+00 -4.1613662056519D-02  6.4156291565543D-01
   175  1.7400000000000D+00 -3.7207838582368D-02  6.1044210531100D-01
   176  1.7500000000000D+00 -3.3091246017753D-02  5.7970001590579D-01
   177  1.7600000000000D+00 -2.9257452991260D-02  5.4939542611749D-01
   178  1.7700000000000D+00 -2.5699365650129D-02  5.1958462290311D-01
   179  1.7800000000000D+00 -2.2409271672194D-02  4.9032143144597D-01
   180  1.7900000000000D+00 -1.9378882987487D-02  4.6165727452614D-01
   181  1.8000000000000D+00 -1.6599376599771D-02  4.3364126849246D-01
   182  1.8100000000000D+00 -1.4061435102013D-02  4.0632032334535D-01
   183  1.8200000000000D+00 -1.1755283299431D-02  3.7973930798737D-01
   184  1.8300000000000D+00 -9.6707205384446D-03  3.5394128726455D-01
   185  1.8400000000000D+00 -7.7971753034117D-03  3.2896736186116D-01
   186  1.8500000000000D+00 -6.1237137018578D-03  3.0485726326385D-01
   187  1.8600000000000D+00 -4.6390037508267D-03  2.8165084554594D-01
   188  1.8700000000000D+00 -3.3315029874055D-03  2.5938542303715D-01
   189  1.8800000000000D+00 -2.1895673875922D-03  2.3809446725489D-01
   190  1.8900000000000D+00 -1.2015784869401D-03  2.1780631482527D-01
   191  1.9000000000000D+00 -3.5611967668852D-04  1.9854197566992D-01
   192  1.9100000000000D+00  3.5794786545179D-04  1.8031474542630D-01
   193  1.9200000000000D+00  9.5148986557639D-04  1.6313130324541D-01
   194  1.9300000000000D+00  1.4350780619697D-03  1.4699233520169D-01
   195  1.9400000000000D+00  1.8189341538097D-03  1.3189236217750D-01
   196  1.9500000000000D+00  2.1129151168534D-03  1.1782034773384D-01
   197  1.9600000000000D+00  2.3264851524692D-03  1.0475998819057D-01
   198  1.9700000000000D+00  2.4686962930292D-03  9.2690121819476D-02
   199  1.9800000000000D+00  2.5481713854854D-03  8.1585131083714D-02
   200  1.9900000000000D+00  2.5730900912935D-03  7.1415354181175D-02
   201  2.0000000000000D+00  2.5511777509504D-03  6.2147503657066D-02
   202  2.0100000000000D+00  2.4896971144948D-03  5.3745090280101D-02
   203  2.0200000000000D+00  2.3954424762197D-03  4.6168849581520D-02
   204  2.0300000000000D+00  2.2747363389376D-03  3.9377168647239D-02
   205  2.0400000000000D+00  2.1334281750590D-03  3.3326511568652D-02
   206  2.0500000000000D+00  1.9768952084648D-03  2.7971840469137D-02
   207  2.0600000000000D+00  1.8100450004324D-03  2.3267030204758D-02
   208  2.0700000000000D+00  1.6373196345443D-03  1.9165275594777D-02
   209  2.0800000000000D+00  1.4627012565038D-03  1.5619486342797D-02
   210  2.0900000000000D+00  1.2897188985260D-03  1.2582671576660D-02
   211  2.1000000000000D+00  1.1214562191858D-03  1.0008308087339D-02
   212  2.1100000000000D+00  9.6056008472109D-04  7.8506926012136D-03
   213  2.1200000000000D+00  8.0924987932762D-04  6.0652774245045D-03
   214  2.1300000000000D+00  6.6932704278787D-04  4.6089829735066D-03
   215  2.1400000000000D+00  5.4218517910044D-04  3.4404928291676D-03
   216  2.1500000000000D+00  4.2882006241679D-04  2.5205230661890D-03
   217  2.1600000000000D+00  3.2983964527958D-04  1.8120678500173D-03
   218  2.1700000000000D+00  2.4547415554585D-04  1.2806228328592D-03
   219  2.1800000000000D+00  1.7557939453139D-04  8.9461745268181D-04
   220  2.1900000000000D+00  1.1966608875760D-04  6.2479276002280D-04
   221  2.2000000000000D+00  7.6898779889720D-05  4.4472955393351D-04
   222  2.2100000000000D+00  4.5994812508558D-05  3.2922238709930D-04
   223  2.2200000000000D+00  2.5587578977439D-05  2.6492640963944D-04
   224  2.2300000000000D+00  1.4003362894058D-05  2.4044187106555D-04
   225  2.2400000000000D+00  8.9770979422403D-06  2.3911506138058D-04
   226  2.2500000000000D+00  7.0889533434823D-06  2.2558662832333D-04
   227  2.2600000000000D+00  5.1735301991816D-06  1.6877094130206D-04
   228  2.2700000000000D+00  2.5743084512007D-06  8.2792324071692D-05
   229  2.2800000000000D+00  1.4654854610771D-07  4.5654390384321D-06
   230  2.2900000000000D+00 -6.1058019976963D-07 -2.1718432809696D-05
   231  2.3000000000000D+00 -4.3636812640188D-07 -1.5538434308757D-05
   232  2.3100000000000D+00  3.5345506052502D-08  1.3416580000471D-06
   233  2.3200000000000D+00  1.3011230278029D-07  4.9917469924434D-06
   234  2.3300000000000D+00  7.2073680695620D-08  2.7894666064587D-06
   235  2.3400000000000D+00 -9.6564060582954D-09 -3.0989275606644D-07
   236  2.3500000000000D+00 -1.8708269460707D-08 -6.0038456848360D-07
   237  2.3600000000000D+00 -7.3707205062070D-09 -2.3654068377765D-07
   238  2.3700000000000D+00  0.0000000000000D+00  0.0000000000000D+00
   239  2.3800000000000D+00  0.0000000000000D+00  0.0000000000000D+00
   240  2.3900000000000D+00  0.0000000000000D+00  0.0000000000000D+00
   241  2.4000000000000D+00  0.0000000000000D+00  0.0000000000000D+00
   242  2.4100000000000D+00  0.0000000000000D+00  0.0000000000000D+00
   243  2.4200000000000D+00  0.0000000000000D+00  0.0000000000000D+00
   244  2.4300000000000D+00  0.0000000000000D+00  0.0000000000000D+00
   245  2.4400000000000D+00  0.0000000000000D+00  0.0000000000000D+00
   246  2.4500000000000D+00  0.0000000000000D+00  0.0000000000000D+00
   247  2.4600000000000D+00  0.0000000000000D+00  0.0000000000000D+00
   248  2.4700000000000D+00  0.0000000000000D+00  0.0000000000000D+00
   249  2.4800000000000D+00  0.0000000000000D+00  0.0000000000000D+00
   250  2.4900000000000D+00  0.0000000000000D+00  0.0000000000000D+00
   251  2.5000000000000D+00  0.0000000000000D+00  0.0000000000000D+00
   252  2.5100000000000D+00  0.0000000000000D+00  0.0000000000000D+00
   253  2.5200000000000D+00  0.0000000000000D+00  0.0000000000000D+00
   254  2.5300000000000D+00  0.0000000000000D+00  0.0000000000000D+00
   255  2.5400000000000D+00  0.0000000000000D+00  0.0000000000000D+00
   256  2.5500000000000D+00  0.0000000000000D+00  0.0000000000000D+00
   257  2.5600000000000D+00  0.0000000000000D+00  0.0000000000000D+00
   258  2.5700000000000D+00  0.0000000000000D+00  0.0000000000000D+00
   259  2.5800000000000D+00  0.0000000000000D+00  0.0000000000000D+00
   260  2.5900000000000D+00  0.0000000000000D+00  0.0000000000000D+00
   261  2.6000000000000D+00  0.0000000000000D+00  0.0000000000000D+00
   262  2.6100000000000D+00  0.0000000000000D+00  0.0000000000000D+00
   263  2.6200000000000D+00  0.0000000000000D+00  0.0000000000000D+00
   264  2.6300000000000D+00  0.0000000000000D+00  0.0000000000000D+00
   265  2.6400000000000D+00  0.0000000000000D+00  0.0000000000000D+00
   266  2.6500000000000D+00  0.0000000000000D+00  0.0000000000000D+00
   267  2.6600000000000D+00  0.0000000000000D+00  0.0000000000000D+00
   268  2.6700000000000D+00  0.0000000000000D+00  0.0000000000000D+00
   269  2.6800000000000D+00  0.0000000000000D+00  0.0000000000000D+00
   270  2.6900000000000D+00  0.0000000000000D+00  0.0000000000000D+00
   271  2.7000000000000D+00  0.0000000000000D+00  0.0000000000000D+00
   272  2.7100000000000D+00  0.0000000000000D+00  0.0000000000000D+00
   273  2.7200000000000D+00  0.0000000000000D+00  0.0000000000000D+00
   274  2.7300000000000D+00  0.0000000000000D+00  0.0000000000000D+00
   275  2.7400000000000D+00  0.0000000000000D+00  0.0000000000000D+00
   276  2.7500000000000D+00  0.0000000000000D+00  0.0000000000000D+00
   277  2.7600000000000D+00  0.0000000000000D+00  0.0000000000000D+00
   278  2.7700000000000D+00  0.0000000000000D+00  0.0000000000000D+00
   279  2.7800000000000D+00  0.0000000000000D+00  0.0000000000000D+00
   280  2.7900000000000D+00  0.0000000000000D+00  0.0000000000000D+00
   281  2.8000000000000D+00  0.0000000000000D+00  0.0000000000000D+00
   282  2.8100000000000D+00  0.0000000000000D+00  0.0000000000000D+00
   283  2.8200000000000D+00  0.0000000000000D+00  0.0000000000000D+00
   284  2.8300000000000D+00  0.0000000000000D+00  0.0000000000000D+00
   285  2.8400000000000D+00  0.0000000000000D+00  0.0000000000000D+00
   286  2.8500000000000D+00  0.0000000000000D+00  0.0000000000000D+00
   287  2.8600000000000D+00  0.0000000000000D+00  0.0000000000000D+00
   288  2.8700000000000D+00  0.0000000000000D+00  0.0000000000000D+00
   289  2.8800000000000D+00  0.0000000000000D+00  0.0000000000000D+00
   290  2.8900000000000D+00  0.0000000000000D+00  0.0000000000000D+00
   291  2.9000000000000D+00  0.0000000000000D+00  0.0000000000000D+00
   292  2.9100000000000D+00  0.0000000000000D+00  0.0000000000000D+00
   293  2.9200000000000D+00  0.0000000000000D+00  0.0000000000000D+00
   294  2.9300000000000D+00  0.0000000000000D+00  0.0000000000000D+00
   295  2.9400000000000D+00  0.0000000000000D+00  0.0000000000000D+00
   296  2.9500000000000D+00  0.0000000000000D+00  0.0000000000000D+00
   297  2.9600000000000D+00  0.0000000000000D+00  0.0000000000000D+00
   298  2.9700000000000D+00  0.0000000000000D+00  0.0000000000000D+00
   299  2.9800000000000D+00  0.0000000000000D+00  0.0000000000000D+00
   300  2.9900000000000D+00  0.0000000000000D+00  0.0000000000000D+00
   301  3.0000000000000D+00  0.0000000000000D+00  0.0000000000000D+00
   302  3.0100000000000D+00  0.0000000000000D+00  0.0000000000000D+00
   303  3.0200000000000D+00  0.0000000000000D+00  0.0000000000000D+00
   304  3.0300000000000D+00  0.0000000000000D+00  0.0000000000000D+00
   305  3.0400000000000D+00  0.0000000000000D+00  0.0000000000000D+00
   306  3.0500000000000D+00  0.0000000000000D+00  0.0000000000000D+00
   307  3.0600000000000D+00  0.0000000000000D+00  0.0000000000000D+00
   308  3.0700000000000D+00  0.0000000000000D+00  0.0000000000000D+00
   309  3.0800000000000D+00  0.0000000000000D+00  0.0000000000000D+00
   310  3.0900000000000D+00  0.0000000000000D+00  0.0000000000000D+00
   311  3.1000000000000D+00  0.0000000000000D+00  0.0000000000000D+00
   312  3.1100000000000D+00  0.0000000000000D+00  0.0000000000000D+00
   313  3.1200000000000D+00  0.0000000000000D+00  0.0000000000000D+00
   314  3.1300000000000D+00  0.0000000000000D+00  0.0000000000000D+00
   315  3.1400000000000D+00  0.0000000000000D+00  0.0000000000000D+00
   316  3.1500000000000D+00  0.0000000000000D+00  0.0000000000000D+00
   317  3.1600000000000D+00  0.0000000000000D+00  0.0000000000000D+00
   318  3.1700000000000D+00  0.0000000000000D+00  0.0000000000000D+00
   319  3.1800000000000D+00  0.0000000000000D+00  0.0000000000000D+00
   320  3.1900000000000D+00  0.0000000000000D+00  0.0000000000000D+00
   321  3.2000000000000D+00  0.0000000000000D+00  0.0000000000000D+00
   322  3.2100000000000D+00  0.0000000000000D+00  0.0000000000000D+00
   323  3.2200000000000D+00  0.0000000000000D+00  0.0000000000000D+00
   324  3.2300000000000D+00  0.0000000000000D+00  0.0000000000000D+00
   325  3.2400000000000D+00  0.0000000000000D+00  0.0000000000000D+00
   326  3.2500000000000D+00  0.0000000000000D+00  0.0000000000000D+00
   327  3.2600000000000D+00  0.0000000000000D+00  0.0000000000000D+00
   328  3.2700000000000D+00  0.0000000000000D+00  0.0000000000000D+00
   329  3.2800000000000D+00  0.0000000000000D+00  0.0000000000000D+00
   330  3.2900000000000D+00  0.0000000000000D+00  0.0000000000000D+00
   331  3.3000000000000D+00  0.0000000000000D+00  0.0000000000000D+00
   332  3.3100000000000D+00  0.0000000000000D+00  0.0000000000000D+00
   333  3.3200000000000D+00  0.0000000000000D+00  0.0000000000000D+00
   334  3.3300000000000D+00  0.0000000000000D+00  0.0000000000000D+00
   335  3.3400000000000D+00  0.0000000000000D+00  0.0000000000000D+00
   336  3.3500000000000D+00  0.0000000000000D+00  0.0000000000000D+00
   337  3.3600000000000D+00  0.0000000000000D+00  0.0000000000000D+00
   338  3.3700000000000D+00  0.0000000000000D+00  0.0000000000000D+00
   339  3.3800000000000D+00  0.0000000000000D+00  0.0000000000000D+00
   340  3.3900000000000D+00  0.0000000000000D+00  0.0000000000000D+00
   341  3.4000000000000D+00  0.0000000000000D+00  0.0000000000000D+00
   342  3.4100000000000D+00  0.0000000000000D+00  0.0000000000000D+00
   343  3.4200000000000D+00  0.0000000000000D+00  0.0000000000000D+00
   344  3.4300000000000D+00  0.0000000000000D+00  0.0000000000000D+00
   345  3.4400000000000D+00  0.0000000000000D+00  0.0000000000000D+00
   346  3.4500000000000D+00  0.0000000000000D+00  0.0000000000000D+00
   347  3.4600000000000D+00  0.0000000000000D+00  0.0000000000000D+00
   348  3.4700000000000D+00  0.0000000000000D+00  0.0000000000000D+00
   349  3.4800000000000D+00  0.0000000000000D+00  0.0000000000000D+00
   350  3.4900000000000D+00  0.0000000000000D+00  0.0000000000000D+00
   351  3.5000000000000D+00  0.0000000000000D+00  0.0000000000000D+00
   352  3.5100000000000D+00  0.0000000000000D+00  0.0000000000000D+00
   353  3.5200000000000D+00  0.0000000000000D+00  0.0000000000000D+00
   354  3.5300000000000D+00  0.0000000000000D+00  0.0000000000000D+00
   355  3.5400000000000D+00  0.0000000000000D+00  0.0000000000000D+00
   356  3.5500000000000D+00  0.0000000000000D+00  0.0000000000000D+00
   357  3.5600000000000D+00  0.0000000000000D+00  0.0000000000000D+00
   358  3.5700000000000D+00  0.0000000000000D+00  0.0000000000000D+00
   359  3.5800000000000D+00  0.0000000000000D+00  0.0000000000000D+00
   360  3.5900000000000D+00  0.0000000000000D+00  0.0000000000000D+00
   361  3.6000000000000D+00  0.0000000000000D+00  0.0000000000000D+00
   362  3.6100000000000D+00  0.0000000000000D+00  0.0000000000000D+00
   363  3.6200000000000D+00  0.0000000000000D+00  0.0000000000000D+00
   364  3.6300000000000D+00  0.0000000000000D+00  0.0000000000000D+00
   365  3.6400000000000D+00  0.0000000000000D+00  0.0000000000000D+00
   366  3.6500000000000D+00  0.0000000000000D+00  0.0000000000000D+00
   367  3.6600000000000D+00  0.0000000000000D+00  0.0000000000000D+00
   368  3.6700000000000D+00  0.0000000000000D+00  0.0000000000000D+00
   369  3.6800000000000D+00  0.0000000000000D+00  0.0000000000000D+00
   370  3.6900000000000D+00  0.0000000000000D+00  0.0000000000000D+00
   371  3.7000000000000D+00  0.0000000000000D+00  0.0000000000000D+00
   372  3.7100000000000D+00  0.0000000000000D+00  0.0000000000000D+00
   373  3.7200000000000D+00  0.0000000000000D+00  0.0000000000000D+00
   374  3.7300000000000D+00  0.0000000000000D+00  0.0000000000000D+00
   375  3.7400000000000D+00  0.0000000000000D+00  0.0000000000000D+00
   376  3.7500000000000D+00  0.0000000000000D+00  0.0000000000000D+00
   377  3.7600000000000D+00  0.0000000000000D+00  0.0000000000000D+00
   378  3.7700000000000D+00  0.0000000000000D+00  0.0000000000000D+00
   379  3.7800000000000D+00  0.0000000000000D+00  0.0000000000000D+00
   380  3.7900000000000D+00  0.0000000000000D+00  0.0000000000000D+00
   381  3.8000000000000D+00  0.0000000000000D+00  0.0000000000000D+00
   382  3.8100000000000D+00  0.0000000000000D+00  0.0000000000000D+00
   383  3.8200000000000D+00  0.0000000000000D+00  0.0000000000000D+00
   384  3.8300000000000D+00  0.0000000000000D+00  0.0000000000000D+00
   385  3.8400000000000D+00  0.0000000000000D+00  0.0000000000000D+00
   386  3.8500000000000D+00  0.0000000000000D+00  0.0000000000000D+00
   387  3.8600000000000D+00  0.0000000000000D+00  0.0000000000000D+00
   388  3.8700000000000D+00  0.0000000000000D+00  0.0000000000000D+00
   389  3.8800000000000D+00  0.0000000000000D+00  0.0000000000000D+00
   390  3.8900000000000D+00  0.0000000000000D+00  0.0000000000000D+00
   391  3.9000000000000D+00  0.0000000000000D+00  0.0000000000000D+00
   392  3.9100000000000D+00  0.0000000000000D+00  0.0000000000000D+00
   393  3.9200000000000D+00  0.0000000000000D+00  0.0000000000000D+00
   394  3.9300000000000D+00  0.0000000000000D+00  0.0000000000000D+00
   395  3.9400000000000D+00  0.0000000000000D+00  0.0000000000000D+00
   396  3.9500000000000D+00  0.0000000000000D+00  0.0000000000000D+00
   397  3.9600000000000D+00  0.0000000000000D+00  0.0000000000000D+00
   398  3.9700000000000D+00  0.0000000000000D+00  0.0000000000000D+00
   399  3.9800000000000D+00  0.0000000000000D+00  0.0000000000000D+00
   400  3.9900000000000D+00  0.0000000000000D+00  0.0000000000000D+00
   401  4.0000000000000D+00  0.0000000000000D+00  0.0000000000000D+00
   402  4.0100000000000D+00  0.0000000000000D+00  0.0000000000000D+00
   403  4.0200000000000D+00  0.0000000000000D+00  0.0000000000000D+00
   404  4.0300000000000D+00  0.0000000000000D+00  0.0000000000000D+00
   405  4.0400000000000D+00  0.0000000000000D+00  0.0000000000000D+00
   406  4.0500000000000D+00  0.0000000000000D+00  0.0000000000000D+00
   407  4.0600000000000D+00  0.0000000000000D+00  0.0000000000000D+00
   408  4.0700000000000D+00  0.0000000000000D+00  0.0000000000000D+00
   409  4.0800000000000D+00  0.0000000000000D+00  0.0000000000000D+00
   410  4.0900000000000D+00  0.0000000000000D+00  0.0000000000000D+00
   411  4.1000000000000D+00  0.0000000000000D+00  0.0000000000000D+00
   412  4.1100000000000D+00  0.0000000000000D+00  0.0000000000000D+00
   413  4.1200000000000D+00  0.0000000000000D+00  0.0000000000000D+00
   414  4.1300000000000D+00  0.0000000000000D+00  0.0000000000000D+00
   415  4.1400000000000D+00  0.0000000000000D+00  0.0000000000000D+00
   416  4.1500000000000D+00  0.0000000000000D+00  0.0000000000000D+00
   417  4.1600000000000D+00  0.0000000000000D+00  0.0000000000000D+00
   418  4.1700000000000D+00  0.0000000000000D+00  0.0000000000000D+00
   419  4.1800000000000D+00  0.0000000000000D+00  0.0000000000000D+00
   420  4.1900000000000D+00  0.0000000000000D+00  0.0000000000000D+00
   421  4.2000000000000D+00  0.0000000000000D+00  0.0000000000000D+00
   422  4.2100000000000D+00  0.0000000000000D+00  0.0000000000000D+00