Ta    ONCVPSP-3.3.1  r_core=   2.25368   2.17446   2.04856   3.00072
     73.0000     27.0000      210905    zatom,zion,pspd
     8 -116133   3     4   600     0    pspcod,pspxc,lmax,lloc,mmax,r2well
  5.99000000  0.00000000  0.00000000    rchrg fchrg qchrg
     2     4     4     2    nproj
     3     1           extension_switch
     4     4     4    nprojso
   0                        -1.1951932003218D-01  4.2662604834310D+00
     1  0.0000000000000D+00  7.0431716014951D-12 -5.4589666120819D-13
     2  1.0000000000000D-02  2.4336081981293D-02  5.6342225068090D-02
     3  2.0000000000000D-02  4.8610478454840D-02  1.1259761456747D-01
     4  3.0000000000000D-02  7.2761662050207D-02  1.6867949190018D-01
     5  4.0000000000000D-02  9.6728421507201D-02  2.2450149813574D-01
     6  5.0000000000000D-02  1.2045001931821D-01  2.7997775015985D-01
     7  6.0000000000000D-02  1.4386634887011D-01  3.3502299800149D-01
     8  7.0000000000000D-02  1.6691809091056D-01  3.8955278106509D-01
     9  8.0000000000000D-02  1.8954686915622D-01  4.4348358299506D-01
    10  9.0000000000000D-02  2.1169540485204D-01  4.9673298490051D-01
    11  1.0000000000000D-01  2.3330767008027D-01  5.4921981666922D-01
    12  1.1000000000000D-01  2.5432903960615D-01  6.0086430610047D-01
    13  1.2000000000000D-01  2.7470644103483D-01  6.5158822558800D-01
    14  1.3000000000000D-01  2.9438850303942D-01  7.0131503608568D-01
    15  1.4000000000000D-01  3.1332570140562D-01  7.4997002809028D-01
    16  1.5000000000000D-01  3.3147050262265D-01  7.9748045937772D-01
    17  1.6000000000000D-01  3.4877750473360D-01  8.4377568923149D-01
    18  1.7000000000000D-01  3.6520357514230D-01  8.8878730890474D-01
    19  1.8000000000000D-01  3.8070798505668D-01  9.3244926806039D-01
    20  1.9000000000000D-01  3.9525254023210D-01  9.7469799693726D-01
    21  2.0000000000000D-01  4.0880170766189D-01  1.0154725239938D+00
    22  2.1000000000000D-01  4.2132273784663D-01  1.0547145887860D+00
    23  2.2000000000000D-01  4.3278578225864D-01  1.0923687498392D+00
    24  2.3000000000000D-01  4.4316400560453D-01  1.1283824872820D+00
    25  2.4000000000000D-01  4.5243369247556D-01  1.1627063000128D+00
    26  2.5000000000000D-01  4.6057434796520D-01  1.1952937971776D+00
    27  2.6000000000000D-01  4.6756879182314D-01  1.2261017837465D+00
    28  2.7000000000000D-01  4.7340324570813D-01  1.2550903399802D+00
    29  2.8000000000000D-01  4.7806741309653D-01  1.2822228945898D+00
    30  2.9000000000000D-01  4.8155455140067D-01  1.3074662913999D+00
    31  3.0000000000000D-01  4.8386153585063D-01  1.3307908493362D+00
    32  3.1000000000000D-01  4.8498891469586D-01  1.3521704155679D+00
    33  3.2000000000000D-01  4.8494095528771D-01  1.3715824116481D+00
    34  3.3000000000000D-01  4.8372568061285D-01  1.3890078725047D+00
    35  3.4000000000000D-01  4.8135489585859D-01  1.4044314781500D+00
    36  3.5000000000000D-01  4.7784420460586D-01  1.4178415779876D+00
    37  3.6000000000000D-01  4.7321301426383D-01  1.4292302076113D+00
    38  3.7000000000000D-01  4.6748453038101D-01  1.4385930980043D+00
    39  3.8000000000000D-01  4.6068573949297D-01  1.4459296770629D+00
    40  3.9000000000000D-01  4.5284738019433D-01  1.4512430633844D+00
    41  4.0000000000000D-01  4.4400390215476D-01  1.4545400522760D+00
    42  4.1000000000000D-01  4.3419341283307D-01  1.4558310939603D+00
    43  4.2000000000000D-01  4.2345761168183D-01  1.4551302639665D+00
    44  4.3000000000000D-01  4.1184171167609D-01  1.4524552257202D+00
    45  4.4000000000000D-01  3.9939434804405D-01  1.4478271853609D+00
    46  4.5000000000000D-01  3.8616747412460D-01  1.4412708388340D+00
    47  4.6000000000000D-01  3.7221624432660D-01  1.4328143113283D+00
    48  4.7000000000000D-01  3.5759888421704D-01  1.4224890891456D+00
    49  4.8000000000000D-01  3.4237654781997D-01  1.4103299441123D+00
    50  4.9000000000000D-01  3.2661316226428D-01  1.3963748506620D+00
    51  5.0000000000000D-01  3.1037525997766D-01  1.3806648957395D+00
    52  5.1000000000000D-01  2.9373179868306D-01  1.3632441816969D+00
    53  5.2000000000000D-01  2.7675396951554D-01  1.3441597223728D+00
    54  5.3000000000000D-01  2.5951499363926D-01  1.3234613325675D+00
    55  5.4000000000000D-01  2.4208990780645D-01  1.3012015111473D+00
    56  5.5000000000000D-01  2.2455533936298D-01  1.2774353180284D+00
    57  5.6000000000000D-01  2.0698927126722D-01  1.2522202453155D+00
    58  5.7000000000000D-01  1.8947079775104D-01  1.2256160828857D+00
    59  5.8000000000000D-01  1.7207987131161D-01  1.1976847787285D+00
    60  5.9000000000000D-01  1.5489704178301D-01  1.1684902943714D+00
    61  6.0000000000000D-01  1.3800318829343D-01  1.1380984557371D+00
    62  6.1000000000000D-01  1.2147924496962D-01  1.1065767997957D+00
    63  6.2000000000000D-01  1.0540592130282D-01  1.0739944173918D+00
    64  6.3000000000000D-01  8.9863418140547D-02  1.0404217926392D+00
    65  6.4000000000000D-01  7.4931140315169D-02  1.0059306392919D+00
    66  6.5000000000000D-01  6.0687406963117D-02  9.7059373451245D-01
    67  6.6000000000000D-01  4.7209160627582D-02  9.3448475046916D-01
    68  6.7000000000000D-01  3.4571676272270D-02  8.9767808420457D-01
    69  6.8000000000000D-01  2.2848271363509D-02  8.6024868622760D-01
    70  6.9000000000000D-01  1.2110018203070D-02  8.2227188828742D-01
    71  7.0000000000000D-01  2.4254597138561D-03  7.8382323079478D-01
    72  7.1000000000000D-01 -6.1396701054703D-03  7.4497829036015D-01
    73  7.2000000000000D-01 -1.3522719831918D-02  7.0581250792171D-01
    74  7.3000000000000D-01 -1.9664387148439D-02  6.6640101793720D-01
    75  7.4000000000000D-01 -2.4508977029367D-02  6.2681847911370D-01
    76  7.5000000000000D-01 -2.8004650366659D-02  5.8713890714752D-01
    77  7.6000000000000D-01 -3.0103661839267D-02  5.4743550994279D-01
    78  7.7000000000000D-01 -3.0762585849962D-02  5.0778052577225D-01
    79  7.8000000000000D-01 -2.9942529382778D-02  4.6824506483657D-01
    80  7.9000000000000D-01 -2.7609330670089D-02  4.2889895467034D-01
    81  8.0000000000000D-01 -2.3733742599088D-02  3.8981058983212D-01
    82  8.1000000000000D-01 -1.8291599836247D-02  3.5104678630432D-01
    83  8.2000000000000D-01 -1.1263968701771D-02  3.1267264101499D-01
    84  8.3000000000000D-01 -2.6372788864638D-03  2.7475139687832D-01
    85  8.4000000000000D-01  7.5965638307305D-03  2.3734431373398D-01
    86  8.5000000000000D-01  1.9440084634744D-02  2.0051054554725D-01
    87  8.6000000000000D-01  3.2890167189789D-02  1.6430702421189D-01
    88  8.7000000000000D-01  4.7938002229591D-02  1.2878835027696D-01
    89  8.8000000000000D-01  6.4569057748047D-02  9.4006690896086D-02
    90  8.9000000000000D-01  8.2763071225104D-02  6.0011685274136D-02
    91  9.0000000000000D-01  1.0249406422798D-01  2.6850357861478D-02
    92  9.1000000000000D-01  1.2373037962989D-01 -5.4329604799070D-03
    93  9.2000000000000D-01  1.4643474158781D-01 -3.6796703141010D-02
    94  9.3000000000000D-01  1.7056433831695D-01 -6.7202130091284D-02
    95  9.4000000000000D-01  1.9607092759492D-01 -9.6613381723567D-02
    96  9.5000000000000D-01  2.2290096482093D-01 -1.2499752410619D-01
    97  9.6000000000000D-01  2.5099575334843D-01 -1.5232458555944D-01
    98  9.7000000000000D-01  2.8029161670130D-01 -1.7856758450351D-01
    99  9.8000000000000D-01  3.1072009217604D-01 -2.0370254855535D-01
   100  9.9000000000000D-01  3.4220814522542D-01 -2.2770852488198D-01
   101  1.0000000000000D+00  3.7467840391446D-01 -2.5056758184837D-01
   102  1.0100000000000D+00  4.0804941263365D-01 -2.7226480202858D-01
   103  1.0200000000000D+00  4.4223590415837D-01 -2.9278826667759D-01
   104  1.0300000000000D+00  4.7714908904095D-01 -3.1212903179228D-01
   105  1.0400000000000D+00  5.1269696123058D-01 -3.3028109591850D-01
   106  1.0500000000000D+00  5.4878461872664D-01 -3.4724135988945D-01
   107  1.0600000000000D+00  5.8531459798618D-01 -3.6300957870857D-01
   108  1.0700000000000D+00  6.2218722072580D-01 -3.7758830581752D-01
   109  1.0800000000000D+00  6.5930095169078D-01 -3.9098283001330D-01
   110  1.0900000000000D+00  6.9655276588837D-01 -4.0320110530683D-01
   111  1.1000000000000D+00  7.3383852372982D-01 -4.1425367403573D-01
   112  1.1100000000000D+00  7.7105335246893D-01 -4.2415358356845D-01
   113  1.1200000000000D+00  8.0809203228343D-01 -4.3291629695533D-01
   114  1.1300000000000D+00  8.4484938530565D-01 -4.4055959790288D-01
   115  1.1400000000000D+00  8.8122066588021D-01 -4.4710349046543D-01
   116  1.1500000000000D+00  9.1710195030844D-01 -4.5257009386358D-01
   117  1.1600000000000D+00  9.5239052432834D-01 -4.5698353285230D-01
   118  1.1700000000000D+00  9.8698526657258D-01 -4.6036982407485D-01
   119  1.1800000000000D+00  1.0207870262569D+00 -4.6275675884978D-01
   120  1.1900000000000D+00  1.0536989933724D+00 -4.6417378284544D-01
   121  1.2000000000000D+00  1.0856270596670D+00 -4.6465187310296D-01
   122  1.2100000000000D+00  1.1164801687454D+00 -4.6422341287520D-01
   123  1.2200000000000D+00  1.1461706536656D+00 -4.6292206474993D-01
   124  1.2300000000000D+00  1.1746145604517D+00 -4.6078264252631D-01
   125  1.2400000000000D+00  1.2017319559958D+00 -4.5784098231431D-01
   126  1.2500000000000D+00  1.2274472189229D+00 -4.5413381332117D-01
   127  1.2600000000000D+00  1.2516893120509D+00 -4.4969862878295D-01
   128  1.2700000000000D+00  1.2743920351323D+00 -4.4457355749825D-01
   129  1.2800000000000D+00  1.2954942567282D+00 -4.3879723640340D-01
   130  1.2900000000000D+00  1.3149401241275D+00 -4.3240868462054D-01
   131  1.3000000000000D+00  1.3326792502747D+00 -4.2544717940661D-01
   132  1.3100000000000D+00  1.3486668769131D+00 -4.1795213439931D-01
   133  1.3200000000000D+00  1.3628640131706D+00 -4.0996298055199D-01
   134  1.3300000000000D+00  1.3752375489055D+00 -4.0151905013926D-01
   135  1.3400000000000D+00  1.3857603424318D+00 -3.9265946416919D-01
   136  1.3500000000000D+00  1.3944112821628D+00 -3.8342302354888D-01
   137  1.3600000000000D+00  1.4011753219466D+00 -3.7384810431689D-01
   138  1.3700000000000D+00  1.4060434901314D+00 -3.6397255720752D-01
   139  1.3800000000000D+00  1.4090128721927D+00 -3.5383361184987D-01
   140  1.3900000000000D+00  1.4100865672965D+00 -3.4346778581062D-01
   141  1.4000000000000D+00  1.4092736190811D+00 -3.3291079870119D-01
   142  1.4100000000000D+00  1.4065889209919D+00 -3.2219749156612D-01
   143  1.4200000000000D+00  1.4020530970331D+00 -3.1136175166389D-01
   144  1.4300000000000D+00  1.3956923583878D+00 -3.0043644283332D-01
   145  1.4400000000000D+00  1.3875383369850D+00 -2.8945334151472D-01
   146  1.4500000000000D+00  1.3776278969743D+00 -2.7844307851209D-01
   147  1.4600000000000D+00  1.3660029250838D+00 -2.6743508658924D-01
   148  1.4700000000000D+00  1.3527101014169D+00 -2.5645755385218D-01
   149  1.4800000000000D+00  1.3378006516497D+00 -2.4553738301548D-01
   150  1.4900000000000D+00  1.3213300824726D+00 -2.3470015643553D-01
   151  1.5000000000000D+00  1.3033579015725D+00 -2.2397010692426D-01
   152  1.5100000000000D+00  1.2839473239337D+00 -2.1337009424351D-01
   153  1.5200000000000D+00  1.2631649662194D+00 -2.0292158716235D-01
   154  1.5300000000000D+00  1.2410805309098D+00 -1.9264465101285D-01
   155  1.5400000000000D+00  1.2177664823063D+00 -1.8255794050456D-01
   156  1.5500000000000D+00  1.1932977160655D+00 -1.7267869775124D-01
   157  1.5600000000000D+00  1.1677512245140D+00 -1.6302275519610D-01
   158  1.5700000000000D+00  1.1412057595429D+00 -1.5360454334821D-01
   159  1.5800000000000D+00  1.1137414952849D+00 -1.4443710301089D-01
   160  1.5900000000000D+00  1.0854396925237D+00 -1.3553210183813D-01
   161  1.6000000000000D+00  1.0563823669742D+00 -1.2689985491544D-01
   162  1.6100000000000D+00  1.0266519634146D+00 -1.1854934913270D-01
   163  1.6200000000000D+00  9.9633103779763D-01 -1.1048827105628D-01
   164  1.6300000000000D+00  9.6550194920244D-01 -1.0272303802114D-01
   165  1.6400000000000D+00  9.3424656380715D-01 -9.5258832150653D-02
   166  1.6500000000000D+00  9.0264597247925D-01 -8.8099637002213D-02
   167  1.6600000000000D+00  8.7078022426148D-01 -8.1248276536253D-02
   168  1.6700000000000D+00  8.3872807697225D-01 -7.4706456107661D-02
   169  1.6800000000000D+00  8.0656676730990D-01 -6.8474805158080D-02
   170  1.6900000000000D+00  7.7437180122690D-01 -6.2552921329719D-02
   171  1.7000000000000D+00  7.4221676704900D-01 -5.6939415655372D-02
   172  1.7100000000000D+00  7.1017317163180D-01 -5.1631958581443D-02
   173  1.7200000000000D+00  6.7831030203592D-01 -4.6627326456933D-02
   174  1.7300000000000D+00  6.4669511258695D-01 -4.1921448287646D-02
   175  1.7400000000000D+00  6.1539213966294D-01 -3.7509452377506D-02
   176  1.7500000000000D+00  5.8446344377708D-01 -3.3385712694223D-02
   177  1.7600000000000D+00  5.5396858094068D-01 -2.9543894591743D-02
   178  1.7700000000000D+00  5.2396460279182D-01 -2.5976999747094D-02
   179  1.7800000000000D+00  4.9450608682096D-01 -2.2677409988966D-02
   180  1.7900000000000D+00  4.6564519639835D-01 -1.9636929863809D-02
   181  1.8000000000000D+00  4.3743177788218D-01 -1.6846827336081D-02
   182  1.8100000000000D+00  4.0991346187166D-01 -1.4297874190922D-02
   183  1.8200000000000D+00  3.8313583051238D-01 -1.1980382602162D-02
   184  1.8300000000000D+00  3.5714265754638D-01 -9.8842374708576D-03
   185  1.8400000000000D+00  3.3197574564970D-01 -7.9989507194307D-03
   186  1.8500000000000D+00  3.0767552950294D-01 -6.3136700834719D-03
   187  1.8600000000000D+00  2.8428258782790D-01 -4.8171444327550D-03
   188  1.8700000000000D+00  2.6183494388752D-01 -3.4979090904452D-03
   189  1.8800000000000D+00  2.4036674410455D-01 -2.3443935648060D-03
   190  1.8900000000000D+00  2.1990694707360D-01 -1.3450474932933D-03
   191  1.9000000000000D+00  2.0047710036945D-01 -4.8851504599368D-04
   192  1.9100000000000D+00  1.8209094632473D-01  2.3628956477110D-04
   193  1.9200000000000D+00  1.6475553345871D-01  8.4018598341189D-04
   194  1.9300000000000D+00  1.4847184692069D-01  1.3337064005546D-03
   195  1.9400000000000D+00  1.3323463273674D-01  1.7270397123412D-03
   196  1.9500000000000D+00  1.1903301260373D-01  2.0300164056538D-03
   197  1.9600000000000D+00  1.0585077652335D-01  2.2520803176404D-03
   198  1.9700000000000D+00  9.3666796189225D-02  2.4022689446987D-03
   199  1.9800000000000D+00  8.2455431294391D-02  2.4891961212789D-03
   200  1.9900000000000D+00  7.2186945257959D-02  2.5210376954302D-03
   201  2.0000000000000D+00  6.2827928104034D-02  2.5055200512676D-03
   202  2.0100000000000D+00  5.4341724644316D-02  2.4499114798575D-03
   203  2.0200000000000D+00  4.6688865371320D-02  2.3610159428712D-03
   204  2.0300000000000D+00  3.9827497567882D-02  2.2451693520501D-03
   205  2.0400000000000D+00  3.3713815074280D-02  2.1082379383384D-03
   206  2.0500000000000D+00  2.8302483559023D-02  1.9556186348382D-03
   207  2.0600000000000D+00  2.3547059380771D-02  1.7922412599697D-03
   208  2.0700000000000D+00  1.9400400905555D-02  1.6225722991456D-03
   209  2.0800000000000D+00  1.5815067351128D-02  1.4506200428263D-03
   210  2.0900000000000D+00  1.2743707154022D-02  1.2799410132827D-03
   211  2.1000000000000D+00  1.0139429848569D-02  1.1136473147700D-03
   212  2.1100000000000D+00  7.9561618134294D-03  9.5441483477604D-04
   213  2.1200000000000D+00  6.1489852251840D-03  8.0449218566582D-04
   214  2.1300000000000D+00  4.6744536609217D-03  6.6570989168618D-04
   215  2.1400000000000D+00  3.4908900566003D-03  5.3949016054821D-04
   216  2.1500000000000D+00  2.5586586950298D-03  4.2685657558945D-04
   217  2.1600000000000D+00  1.8404132379113D-03  3.2844381190941D-04
   218  2.1700000000000D+00  1.3013223443056D-03  2.4450746122882D-04
   219  2.1800000000000D+00  9.0950725902565D-04  1.7492699888266D-04
   220  2.1900000000000D+00  6.3541036415840D-04  1.1923522143921D-04
   221  2.2000000000000D+00  4.5233018353365D-04  7.6616801234760D-05
   222  2.2100000000000D+00  3.3476789784800D-04  4.5807812551468D-05
   223  2.2200000000000D+00  2.6924055356394D-04  2.5454684760334D-05
   224  2.2300000000000D+00  2.4421279105524D-04  1.3894821394716D-05
   225  2.2400000000000D+00  2.4278472123945D-04  8.8752349524351D-06
   226  2.2500000000000D+00  2.2902845891370D-04  6.9945909038460D-06
   227  2.2600000000000D+00  1.7134505162306D-04  5.1031049221694D-06
   228  2.2700000000000D+00  8.4055791346870D-05  2.5396963775047D-06
   229  2.2800000000000D+00  4.6351981768089D-06  1.4463401711683D-07
   230  2.2900000000000D+00 -2.2048398810969D-05 -6.0155119392435D-07
   231  2.3000000000000D+00 -1.5774448663762D-05 -4.2990383285152D-07
   232  2.3100000000000D+00  1.3620307639283D-06  3.4793290920521D-08
   233  2.3200000000000D+00  5.0675236272173D-06  1.2805949189967D-07
   234  2.3300000000000D+00  2.8318018080078D-06  7.0927335396420D-08
   235  2.3400000000000D+00 -3.1462183717497D-07 -9.5269824857438D-09
   236  2.3500000000000D+00 -6.0954666493501D-07 -1.8457524923325D-08
   237  2.3600000000000D+00 -2.4015038441491D-07 -7.2719316841096D-09
   238  2.3700000000000D+00  0.0000000000000D+00  0.0000000000000D+00
   239  2.3800000000000D+00  0.0000000000000D+00  0.0000000000000D+00
   240  2.3900000000000D+00  0.0000000000000D+00  0.0000000000000D+00
   241  2.4000000000000D+00  0.0000000000000D+00  0.0000000000000D+00
   242  2.4100000000000D+00  0.0000000000000D+00  0.0000000000000D+00
   243  2.4200000000000D+00  0.0000000000000D+00  0.0000000000000D+00
   244  2.4300000000000D+00  0.0000000000000D+00  0.0000000000000D+00
   245  2.4400000000000D+00  0.0000000000000D+00  0.0000000000000D+00
   246  2.4500000000000D+00  0.0000000000000D+00  0.0000000000000D+00
   247  2.4600000000000D+00  0.0000000000000D+00  0.0000000000000D+00
   248  2.4700000000000D+00  0.0000000000000D+00  0.0000000000000D+00
   249  2.4800000000000D+00  0.0000000000000D+00  0.0000000000000D+00
   250  2.4900000000000D+00  0.0000000000000D+00  0.0000000000000D+00
   251  2.5000000000000D+00  0.0000000000000D+00  0.0000000000000D+00
   252  2.5100000000000D+00  0.0000000000000D+00  0.0000000000000D+00
   253  2.5200000000000D+00  0.0000000000000D+00  0.0000000000000D+00
   254  2.5300000000000D+00  0.0000000000000D+00  0.0000000000000D+00
   255  2.5400000000000D+00  0.0000000000000D+00  0.0000000000000D+00
   256  2.5500000000000D+00  0.0000000000000D+00  0.0000000000000D+00
   257  2.5600000000000D+00  0.0000000000000D+00  0.0000000000000D+00
   258  2.5700000000000D+00  0.0000000000000D+00  0.0000000000000D+00
   259  2.5800000000000D+00  0.0000000000000D+00  0.0000000000000D+00
   260  2.5900000000000D+00  0.0000000000000D+00  0.0000000000000D+00
   261  2.6000000000000D+00  0.0000000000000D+00  0.0000000000000D+00
   262  2.6100000000000D+00  0.0000000000000D+00  0.0000000000000D+00
   263  2.6200000000000D+00  0.0000000000000D+00  0.0000000000000D+00
   264  2.6300000000000D+00  0.0000000000000D+00  0.0000000000000D+00
   265  2.6400000000000D+00  0.0000000000000D+00  0.0000000000000D+00
   266  2.6500000000000D+00  0.0000000000000D+00  0.0000000000000D+00
   267  2.6600000000000D+00  0.0000000000000D+00  0.0000000000000D+00
   268  2.6700000000000D+00  0.0000000000000D+00  0.0000000000000D+00
   269  2.6800000000000D+00  0.0000000000000D+00  0.0000000000000D+00
   270  2.6900000000000D+00  0.0000000000000D+00  0.0000000000000D+00
   271  2.7000000000000D+00  0.0000000000000D+00  0.0000000000000D+00
   272  2.7100000000000D+00  0.0000000000000D+00  0.0000000000000D+00
   273  2.7200000000000D+00  0.0000000000000D+00  0.0000000000000D+00
   274  2.7300000000000D+00  0.0000000000000D+00  0.0000000000000D+00
   275  2.7400000000000D+00  0.0000000000000D+00  0.0000000000000D+00
   276  2.7500000000000D+00  0.0000000000000D+00  0.0000000000000D+00
   277  2.7600000000000D+00  0.0000000000000D+00  0.0000000000000D+00
   278  2.7700000000000D+00  0.0000000000000D+00  0.0000000000000D+00
   279  2.7800000000000D+00  0.0000000000000D+00  0.0000000000000D+00
   280  2.7900000000000D+00  0.0000000000000D+00  0.0000000000000D+00
   281  2.8000000000000D+00  0.0000000000000D+00  0.0000000000000D+00
   282  2.8100000000000D+00  0.0000000000000D+00  0.0000000000000D+00
   283  2.8200000000000D+00  0.0000000000000D+00  0.0000000000000D+00
   284  2.8300000000000D+00  0.0000000000000D+00  0.0000000000000D+00
   285  2.8400000000000D+00  0.0000000000000D+00  0.0000000000000D+00
   286  2.8500000000000D+00  0.0000000000000D+00  0.0000000000000D+00
   287  2.8600000000000D+00  0.0000000000000D+00  0.0000000000000D+00
   288  2.8700000000000D+00  0.0000000000000D+00  0.0000000000000D+00
   289  2.8800000000000D+00  0.0000000000000D+00  0.0000000000000D+00
   290  2.8900000000000D+00  0.0000000000000D+00  0.0000000000000D+00
   291  2.9000000000000D+00  0.0000000000000D+00  0.0000000000000D+00
   292  2.9100000000000D+00  0.0000000000000D+00  0.0000000000000D+00
   293  2.9200000000000D+00  0.0000000000000D+00  0.0000000000000D+00
   294  2.9300000000000D+00  0.0000000000000D+00  0.0000000000000D+00
   295  2.9400000000000D+00  0.0000000000000D+00  0.0000000000000D+00
   296  2.9500000000000D+00  0.0000000000000D+00  0.0000000000000D+00
   297  2.9600000000000D+00  0.0000000000000D+00  0.0000000000000D+00
   298  2.9700000000000D+00  0.0000000000000D+00  0.0000000000000D+00
   299  2.9800000000000D+00  0.0000000000000D+00  0.0000000000000D+00
   300  2.9900000000000D+00  0.0000000000000D+00  0.0000000000000D+00
   301  3.0000000000000D+00  0.0000000000000D+00  0.0000000000000D+00
   302  3.0100000000000D+00  0.0000000000000D+00  0.0000000000000D+00
   303  3.0200000000000D+00  0.0000000000000D+00  0.0000000000000D+00
   304  3.0300000000000D+00  0.0000000000000D+00  0.0000000000000D+00
   305  3.0400000000000D+00  0.0000000000000D+00  0.0000000000000D+00
   306  3.0500000000000D+00  0.0000000000000D+00  0.0000000000000D+00
   307  3.0600000000000D+00  0.0000000000000D+00  0.0000000000000D+00
   308  3.0700000000000D+00  0.0000000000000D+00  0.0000000000000D+00
   309  3.0800000000000D+00  0.0000000000000D+00  0.0000000000000D+00
   310  3.0900000000000D+00  0.0000000000000D+00  0.0000000000000D+00
   311  3.1000000000000D+00  0.0000000000000D+00  0.0000000000000D+00
   312  3.1100000000000D+00  0.0000000000000D+00  0.0000000000000D+00
   313  3.1200000000000D+00  0.0000000000000D+00  0.0000000000000D+00
   314  3.1300000000000D+00  0.0000000000000D+00  0.0000000000000D+00
   315  3.1400000000000D+00  0.0000000000000D+00  0.0000000000000D+00
   316  3.1500000000000D+00  0.0000000000000D+00  0.0000000000000D+00
   317  3.1600000000000D+00  0.0000000000000D+00  0.0000000000000D+00
   318  3.1700000000000D+00  0.0000000000000D+00  0.0000000000000D+00
   319  3.1800000000000D+00  0.0000000000000D+00  0.0000000000000D+00
   320  3.1900000000000D+00  0.0000000000000D+00  0.0000000000000D+00
   321  3.2000000000000D+00  0.0000000000000D+00  0.0000000000000D+00
   322  3.2100000000000D+00  0.0000000000000D+00  0.0000000000000D+00
   323  3.2200000000000D+00  0.0000000000000D+00  0.0000000000000D+00
   324  3.2300000000000D+00  0.0000000000000D+00  0.0000000000000D+00
   325  3.2400000000000D+00  0.0000000000000D+00  0.0000000000000D+00
   326  3.2500000000000D+00  0.0000000000000D+00  0.0000000000000D+00
   327  3.2600000000000D+00  0.0000000000000D+00  0.0000000000000D+00
   328  3.2700000000000D+00  0.0000000000000D+00  0.0000000000000D+00
   329  3.2800000000000D+00  0.0000000000000D+00  0.0000000000000D+00
   330  3.2900000000000D+00  0.0000000000000D+00  0.0000000000000D+00
   331  3.3000000000000D+00  0.0000000000000D+00  0.0000000000000D+00
   332  3.3100000000000D+00  0.0000000000000D+00  0.0000000000000D+00
   333  3.3200000000000D+00  0.0000000000000D+00  0.0000000000000D+00
   334  3.3300000000000D+00  0.0000000000000D+00  0.0000000000000D+00
   335  3.3400000000000D+00  0.0000000000000D+00  0.0000000000000D+00
   336  3.3500000000000D+00  0.0000000000000D+00  0.0000000000000D+00
   337  3.3600000000000D+00  0.0000000000000D+00  0.0000000000000D+00
   338  3.3700000000000D+00  0.0000000000000D+00  0.0000000000000D+00
   339  3.3800000000000D+00  0.0000000000000D+00  0.0000000000000D+00
   340  3.3900000000000D+00  0.0000000000000D+00  0.0000000000000D+00
   341  3.4000000000000D+00  0.0000000000000D+00  0.0000000000000D+00
   342  3.4100000000000D+00  0.0000000000000D+00  0.0000000000000D+00
   343  3.4200000000000D+00  0.0000000000000D+00  0.0000000000000D+00
   344  3.4300000000000D+00  0.0000000000000D+00  0.0000000000000D+00
   345  3.4400000000000D+00  0.0000000000000D+00  0.0000000000000D+00
   346  3.4500000000000D+00  0.0000000000000D+00  0.0000000000000D+00
   347  3.4600000000000D+00  0.0000000000000D+00  0.0000000000000D+00
   348  3.4700000000000D+00  0.0000000000000D+00  0.0000000000000D+00
   349  3.4800000000000D+00  0.0000000000000D+00  0.0000000000000D+00
   350  3.4900000000000D+00  0.0000000000000D+00  0.0000000000000D+00
   351  3.5000000000000D+00  0.0000000000000D+00  0.0000000000000D+00
   352  3.5100000000000D+00  0.0000000000000D+00  0.0000000000000D+00
   353  3.5200000000000D+00  0.0000000000000D+00  0.0000000000000D+00
   354  3.5300000000000D+00  0.0000000000000D+00  0.0000000000000D+00
   355  3.5400000000000D+00  0.0000000000000D+00  0.0000000000000D+00
   356  3.5500000000000D+00  0.0000000000000D+00  0.0000000000000D+00
   357  3.5600000000000D+00  0.0000000000000D+00  0.0000000000000D+00
   358  3.5700000000000D+00  0.0000000000000D+00  0.0000000000000D+00
   359  3.5800000000000D+00  0.0000000000000D+00  0.0000000000000D+00
   360  3.5900000000000D+00  0.0000000000000D+00  0.0000000000000D+00
   361  3.6000000000000D+00  0.0000000000000D+00  0.0000000000000D+00
   362  3.6100000000000D+00  0.0000000000000D+00  0.0000000000000D+00
   363  3.6200000000000D+00  0.0000000000000D+00  0.0000000000000D+00
   364  3.6300000000000D+00  0.0000000000000D+00  0.0000000000000D+00
   365  3.6400000000000D+00  0.0000000000000D+00  0.0000000000000D+00
   366  3.6500000000000D+00  0.0000000000000D+00  0.0000000000000D+00
   367  3.6600000000000D+00  0.0000000000000D+00  0.0000000000000D+00
   368  3.6700000000000D+00  0.0000000000000D+00  0.0000000000000D+00
   369  3.6800000000000D+00  0.0000000000000D+00  0.0000000000000D+00
   370  3.6900000000000D+00  0.0000000000000D+00  0.0000000000000D+00
   371  3.7000000000000D+00  0.0000000000000D+00  0.0000000000000D+00
   372  3.7100000000000D+00  0.0000000000000D+00  0.0000000000000D+00
   373  3.7200000000000D+00  0.0000000000000D+00  0.0000000000000D+00
   374  3.7300000000000D+00  0.0000000000000D+00  0.0000000000000D+00
   375  3.7400000000000D+00  0.0000000000000D+00  0.0000000000000D+00
   376  3.7500000000000D+00  0.0000000000000D+00  0.0000000000000D+00
   377  3.7600000000000D+00  0.0000000000000D+00  0.0000000000000D+00
   378  3.7700000000000D+00  0.0000000000000D+00  0.0000000000000D+00
   379  3.7800000000000D+00  0.0000000000000D+00  0.0000000000000D+00
   380  3.7900000000000D+00  0.0000000000000D+00  0.0000000000000D+00
   381  3.8000000000000D+00  0.0000000000000D+00  0.0000000000000D+00
   382  3.8100000000000D+00  0.0000000000000D+00  0.0000000000000D+00
   383  3.8200000000000D+00  0.0000000000000D+00  0.0000000000000D+00
   384  3.8300000000000D+00  0.0000000000000D+00  0.0000000000000D+00
   385  3.8400000000000D+00  0.0000000000000D+00  0.0000000000000D+00
   386  3.8500000000000D+00  0.0000000000000D+00  0.0000000000000D+00
   387  3.8600000000000D+00  0.0000000000000D+00  0.0000000000000D+00
   388  3.8700000000000D+00  0.0000000000000D+00  0.0000000000000D+00
   389  3.8800000000000D+00  0.0000000000000D+00  0.0000000000000D+00
   390  3.8900000000000D+00  0.0000000000000D+00  0.0000000000000D+00
   391  3.9000000000000D+00  0.0000000000000D+00  0.0000000000000D+00
   392  3.9100000000000D+00  0.0000000000000D+00  0.0000000000000D+00
   393  3.9200000000000D+00  0.0000000000000D+00  0.0000000000000D+00
   394  3.9300000000000D+00  0.0000000000000D+00  0.0000000000000D+00
   395  3.9400000000000D+00  0.0000000000000D+00  0.0000000000000D+00
   396  3.9500000000000D+00  0.0000000000000D+00  0.0000000000000D+00
   397  3.9600000000000D+00  0.0000000000000D+00  0.0000000000000D+00
   398  3.9700000000000D+00  0.0000000000000D+00  0.0000000000000D+00
   399  3.9800000000000D+00  0.0000000000000D+00  0.0000000000000D+00
   400  3.9900000000000D+00  0.0000000000000D+00  0.0000000000000D+00
   401  4.0000000000000D+00  0.0000000000000D+00  0.0000000000000D+00
   402  4.0100000000000D+00  0.0000000000000D+00  0.0000000000000D+00
   403  4.0200000000000D+00  0.0000000000000D+00  0.0000000000000D+00
   404  4.0300000000000D+00  0.0000000000000D+00  0.0000000000000D+00
   405  4.0400000000000D+00  0.0000000000000D+00  0.0000000000000D+00
   406  4.0500000000000D+00  0.0000000000000D+00  0.0000000000000D+00
   407  4.0600000000000D+00  0.0000000000000D+00  0.0000000000000D+00
   408  4.0700000000000D+00  0.0000000000000D+00  0.0000000000000D+00
   409  4.0800000000000D+00  0.0000000000000D+00  0.0000000000000D+00
   410  4.0900000000000D+00  0.0000000000000D+00  0.0000000000000D+00
   411  4.1000000000000D+00  0.0000000000000D+00  0.0000000000000D+00
   412  4.1100000000000D+00  0.0000000000000D+00  0.0000000000000D+00
   413  4.1200000000000D+00  0.0000000000000D+00  0.0000000000000D+00
   414  4.1300000000000D+00  0.0000000000000D+00  0.0000000000000D+00
   415  4.1400000000000D+00  0.0000000000000D+00  0.0000000000000D+00
   416  4.1500000000000D+00  0.0000000000000D+00  0.0000000000000D+00
   417  4.1600000000000D+00  0.0000000000000D+00  0.0000000000000D+00
   418  4.1700000000000D+00  0.0000000000000D+00  0.0000000000000D+00
   419  4.1800000000000D+00  0.0000000000000D+00  0.0000000000000D+00
   420  4.1900000000000D+00  0.0000000000000D+00  0.0000000000000D+00
   421  4.2000000000000D+00  0.0000000000000D+00  0.0000000000000D+00
   422  4.2100000000000D+00  0.0000000000000D+00  0.0000000000000D+00