Tc    ONCVPSP-3.3.1  r_core=   2.46076   2.58101   2.67505
     43.0000     15.0000      210905    zatom,zion,pspd
     8 -116133   2     4   600     0    pspcod,pspxc,lmax,lloc,mmax,r2well
  5.99000000  0.00000000  0.00000000    rchrg fchrg qchrg
     2     2     2     0     0    nproj
     1     1           extension_switch
   0                         4.4229597010699D+00  8.6329697504213D-01
     1  0.0000000000000D+00  2.2709056857195D-12 -8.2683304647446D-12
     2  1.0000000000000D-02  4.9808009278662D-02 -4.6112546181851D-03
     3  2.0000000000000D-02  9.9553763531481D-02 -9.2023636157685D-03
     4  3.0000000000000D-02  1.4917508046816D-01 -1.3753157964569D-02
     5  4.0000000000000D-02  1.9860992327603D-01 -1.8243422196759D-02
     6  5.0000000000000D-02  2.4779647337464D-01 -2.2652872121704D-02
     7  6.0000000000000D-02  2.9667320318763D-01 -2.6961133660982D-02
     8  7.0000000000000D-02  3.4517894893505D-01 -3.1147723164556D-02
     9  8.0000000000000D-02  3.9325298344685D-01 -3.5192029562843D-02
    10  9.0000000000000D-02  4.4083508899567D-01 -3.9073298699093D-02
    11  1.0000000000000D-01  4.8786563014340D-01 -4.2770620174266D-02
    12  1.1000000000000D-01  5.3428562659244D-01 -4.6262917022378D-02
    13  1.2000000000000D-01  5.8003682602794D-01 -4.9528938518251D-02
    14  1.3000000000000D-01  6.2506177693266D-01 -5.2547256401760D-02
    15  1.4000000000000D-01  6.6930390135056D-01 -5.5296264783057D-02
    16  1.5000000000000D-01  7.1270756756987D-01 -5.7754183972041D-02
    17  1.6000000000000D-01  7.5521816268979D-01 -5.9899068452505D-02
    18  1.7000000000000D-01  7.9678216502901D-01 -6.1708819197119D-02
    19  1.8000000000000D-01  8.3734721632702D-01 -6.3161200493774D-02
    20  1.9000000000000D-01  8.7686219368236D-01 -6.4233861426812D-02
    21  2.0000000000000D-01  9.1527728116442D-01 -6.4904362128655D-02
    22  2.1000000000000D-01  9.5254404102812D-01 -6.5150204888167D-02
    23  2.2000000000000D-01  9.8861548445268D-01 -6.4948870172067D-02
    24  2.3000000000000D-01  1.0234461417184D+00 -6.4277857584872D-02
    25  2.4000000000000D-01  1.0569921317267D+00 -6.3114731761417D-02
    26  2.5000000000000D-01  1.0892112307619D+00 -6.1437173153935D-02
    27  2.6000000000000D-01  1.1200629403836D+00 -5.9223033643477D-02
    28  2.7000000000000D-01  1.1495085543330D+00 -5.6450396872773D-02
    29  2.8000000000000D-01  1.1775112243257D+00 -5.3097643165072D-02
    30  2.9000000000000D-01  1.2040360245999D+00 -4.9143518861011D-02
    31  3.0000000000000D-01  1.2290500150778D+00 -4.4567209873289D-02
    32  3.1000000000000D-01  1.2525223029933D+00 -3.9348419226986D-02
    33  3.2000000000000D-01  1.2744241028319D+00 -3.3467448322240D-02
    34  3.3000000000000D-01  1.2947287944223D+00 -2.6905281625313D-02
    35  3.4000000000000D-01  1.3134119790134D+00 -1.9643674464558D-02
    36  3.5000000000000D-01  1.3304515331653D+00 -1.1665243579023D-02
    37  3.6000000000000D-01  1.3458276602773D+00 -2.9535600403509D-03
    38  3.7000000000000D-01  1.3595229395734D+00  6.5067558577124D-03
    39  3.8000000000000D-01  1.3715223723604D+00  1.6729938172051D-02
    40  3.9000000000000D-01  1.3818134253724D+00  2.7728977798025D-02
    41  4.0000000000000D-01  1.3903860710124D+00  3.9515524346070D-02
    42  4.1000000000000D-01  1.3972328243015D+00  5.2099787899893D-02
    43  4.2000000000000D-01  1.4023487763439D+00  6.5490441165804D-02
    44  4.3000000000000D-01  1.4057316241192D+00  7.9694522537592D-02
    45  4.4000000000000D-01  1.4073816964126D+00  9.4717340613486D-02
    46  4.5000000000000D-01  1.4073019756953D+00  1.1056238071181D-01
    47  4.6000000000000D-01  1.4054981157747D+00  1.2723121393903D-01
    48  4.7000000000000D-01  1.4019784550326D+00  1.4472340936875D-01
    49  4.8000000000000D-01  1.3967540250794D+00  1.6303644989193D-01
    50  4.9000000000000D-01  1.3898385546563D+00  1.8216565229790D-01
    51  5.0000000000000D-01  1.3812484686264D+00  2.0210409214184D-01
    52  5.1000000000000D-01  1.3710028819010D+00  2.2284253394771D-01
    53  5.2000000000000D-01  1.3591235881611D+00  2.4436936728626D-01
    54  5.3000000000000D-01  1.3456350432409D+00  2.6667054925477D-01
    55  5.4000000000000D-01  1.3305643430531D+00  2.8972955387003D-01
    56  5.5000000000000D-01  1.3139411959487D+00  3.1352732886733D-01
    57  5.6000000000000D-01  1.2957978894164D+00  3.3804226037687D-01
    58  5.7000000000000D-01  1.2761692510416D+00  3.6325014592476D-01
    59  5.8000000000000D-01  1.2550926036609D+00  3.8912417617854D-01
    60  5.9000000000000D-01  1.2326077146635D+00  4.1563492582737D-01
    61  6.0000000000000D-01  1.2087567394077D+00  4.4275035395428D-01
    62  6.1000000000000D-01  1.1835841587405D+00  4.7043581422296D-01
    63  6.2000000000000D-01  1.1571367106240D+00  4.9865407516377D-01
    64  6.3000000000000D-01  1.1294633158948D+00  5.2736535080375D-01
    65  6.4000000000000D-01  1.1006149981992D+00  5.5652734184364D-01
    66  6.5000000000000D-01  1.0706447981707D+00  5.8609528754021D-01
    67  6.6000000000000D-01  1.0396076819351D+00  6.1602202840687D-01
    68  6.7000000000000D-01  1.0075604440494D+00  6.4625807979777D-01
    69  6.8000000000000D-01  9.7456160500500D-01  6.7675171639124D-01
    70  6.9000000000000D-01  9.4067130344446D-01  7.0744906753883D-01
    71  7.0000000000000D-01  9.0595118326428D-01  7.3829422339440D-01
    72  7.1000000000000D-01  8.7046427579843D-01  7.6922935168607D-01
    73  7.2000000000000D-01  8.3427487729823D-01  8.0019482494122D-01
    74  7.3000000000000D-01  7.9744842194644D-01  8.3112935792179D-01
    75  7.4000000000000D-01  7.6005135066435D-01  8.6197015497449D-01
    76  7.5000000000000D-01  7.2215097599170D-01  8.9265306694827D-01
    77  7.6000000000000D-01  6.8381534333960D-01  9.2311275727861D-01
    78  7.7000000000000D-01  6.4511308893634D-01  9.5328287678782D-01
    79  7.8000000000000D-01  6.0611329480500D-01  9.8309624669977D-01
    80  7.9000000000000D-01  5.6688534113000D-01  1.0124850493191D+00
    81  8.0000000000000D-01  5.2749875638685D-01  1.0413810257772D+00
    82  8.1000000000000D-01  4.8802306562573D-01  1.0697156802026D+00
    83  8.2000000000000D-01  4.4852763731443D-01  1.0974204896298D+00
    84  8.3000000000000D-01  4.0908152916008D-01  1.1244271189191D+00
    85  8.4000000000000D-01  3.6975333334156D-01  1.1506676399236D+00
    86  8.5000000000000D-01  3.3061102159558D-01  1.1760747541028D+00
    87  8.6000000000000D-01  2.9172179060890D-01  1.2005820177494D+00
    88  8.7000000000000D-01  2.5315190817725D-01  1.2241240689696D+00
    89  8.8000000000000D-01  2.1496656059768D-01  1.2466368555290D+00
    90  8.9000000000000D-01  1.7722970176600D-01  1.2680578626564D+00
    91  9.0000000000000D-01  1.4000390445328D-01  1.2883263398793D+00
    92  9.1000000000000D-01  1.0335021423701D-01  1.3073835259513D+00
    93  9.2000000000000D-01  6.7328006561137D-02  1.3251728709218D+00
    94  9.3000000000000D-01  3.1994847396831D-02  1.3416402543930D+00
    95  9.4000000000000D-01 -2.5936420290964D-03  1.3567341990099D+00
    96  9.5000000000000D-01 -3.6383915977678D-02  1.3704060782286D+00
    97  9.6000000000000D-01 -6.9324629961304D-02  1.3826103174213D+00
    98  9.7000000000000D-01 -1.0136676108591D-01  1.3933045873837D+00
    99  9.8000000000000D-01 -1.3246372254292D-01  1.4024499893321D+00
   100  9.9000000000000D-01 -1.6257147183641D-01  1.4100112304949D+00
   101  1.0000000000000D+00 -1.9164861234670D-01  1.4159567894323D+00
   102  1.0100000000000D+00 -2.1965648785044D-01  1.4202590702452D+00
   103  1.0200000000000D+00 -2.4655926963610D-01  1.4228945448728D+00
   104  1.0300000000000D+00 -2.7232403587607D-01  1.4238438827117D+00
   105  1.0400000000000D+00 -2.9692084293890D-01  1.4230920668368D+00
   106  1.0500000000000D+00 -3.2032278835138D-01  1.4206284961494D+00
   107  1.0600000000000D+00 -3.4250606514338D-01  1.4164470728235D+00
   108  1.0700000000000D+00 -3.6345000733936D-01  1.4105462744830D+00
   109  1.0800000000000D+00 -3.8313712638680D-01  1.4029292105917D+00
   110  1.0900000000000D+00 -4.0155313834245D-01  1.3936036626021D+00
   111  1.1000000000000D+00 -4.1868698166947D-01  1.3825821074707D+00
   112  1.1100000000000D+00 -4.3453082552585D-01  1.3698817242070D+00
   113  1.1200000000000D+00 -4.4908006846323D-01  1.3555243831983D+00
   114  1.1300000000000D+00 -4.6233332748336D-01  1.3395366181140D+00
   115  1.1400000000000D+00 -4.7429241743823D-01  1.3219495802732D+00
   116  1.1500000000000D+00 -4.8496232078404D-01  1.3027989754077D+00
   117  1.1600000000000D+00 -4.9435114774544D-01  1.2821249828530D+00
   118  1.1700000000000D+00 -5.0247008697202D-01  1.2599721572515D+00
   119  1.1800000000000D+00 -5.0933334680856D-01  1.2363893129376D+00
   120  1.1900000000000D+00 -5.1495808732380D-01  1.2114293912239D+00
   121  1.2000000000000D+00 -5.1936434328962D-01  1.1851493109070D+00
   122  1.2100000000000D+00 -5.2257493832827D-01  1.1576098023695D+00
   123  1.2200000000000D+00 -5.2461539047045D-01  1.1288752257072D+00
   124  1.2300000000000D+00 -5.2551380940756D-01  1.0990133733987D+00
   125  1.2400000000000D+00 -5.2530078575015D-01  1.0680952580970D+00
   126  1.2500000000000D+00 -5.2400927262634D-01  1.0361948861696D+00
   127  1.2600000000000D+00 -5.2167445998203D-01  1.0033890176768D+00
   128  1.2700000000000D+00 -5.1833364198073D-01  9.6975691355282D-01
   129  1.2800000000000D+00 -5.1402607791175D-01  9.3538007078186D-01
   130  1.2900000000000D+00 -5.0879284703847D-01  9.0034194641038D-01
   131  1.3000000000000D+00 -5.0267669785238D-01  8.6472767131113D-01
   132  1.3100000000000D+00 -4.9572189219966D-01  8.2862375461728D-01
   133  1.3200000000000D+00 -4.8797404476957D-01  7.9211777979500D-01
   134  1.3300000000000D+00 -4.7947995845689D-01  7.5529809337278D-01
   135  1.3400000000000D+00 -4.7028745610492D-01  7.1825348733410D-01
   136  1.3500000000000D+00 -4.6044520916027D-01  6.8107287623377D-01
   137  1.3600000000000D+00 -4.5000256377213D-01  6.4384497010240D-01
   138  1.3700000000000D+00 -4.3900936486967D-01  6.0665794420522D-01
   139  1.3800000000000D+00 -4.2751577876372D-01  5.6959910674910D-01
   140  1.3900000000000D+00 -4.1557211480545D-01  5.3275456560215D-01
   141  1.4000000000000D+00 -4.0322864665035D-01  4.9620889512497D-01
   142  1.4100000000000D+00 -3.9053543364857D-01  4.6004480415157D-01
   143  1.4200000000000D+00 -3.7754214289892D-01  4.2434280619513D-01
   144  1.4300000000000D+00 -3.6429787248246D-01  3.8918089290507D-01
   145  1.4400000000000D+00 -3.5085097636610D-01  3.5463421174672D-01
   146  1.4500000000000D+00 -3.3724889150420D-01  3.2077474895682D-01
   147  1.4600000000000D+00 -3.2353796756371D-01  2.8767101860249D-01
   148  1.4700000000000D+00 -3.0976329978664D-01  2.5538775876521D-01
   149  1.4800000000000D+00 -2.9596856538738D-01  2.2398563561524D-01
   150  1.4900000000000D+00 -2.8219586391579D-01  1.9352095621532D-01
   151  1.5000000000000D+00 -2.6848556200834D-01  1.6404539087275D-01
   152  1.5100000000000D+00 -2.5487614282476D-01  1.3560570558472D-01
   153  1.5200000000000D+00 -2.4140406063014D-01  1.0824350547849D-01
   154  1.5300000000000D+00 -2.2810360001880D-01  8.1994987253467D-02
   155  1.5400000000000D+00 -2.1500674366957D-01  5.6890713026363D-02
   156  1.5500000000000D+00 -2.0214303665694D-01  3.2955366111243D-02
   157  1.5600000000000D+00 -1.8953948609965D-01  1.0207612899778D-02
   158  1.5700000000000D+00 -1.7722045349375D-01 -1.1340059966933D-02
   159  1.5800000000000D+00 -1.6520738795473D-01 -3.1682055593642D-02
   160  1.5900000000000D+00 -1.5351897720493D-01 -5.0818989409977D-02
   161  1.6000000000000D+00 -1.4217149533463D-01 -6.8756340360434D-02
   162  1.6100000000000D+00 -1.3117910944141D-01 -8.5503375106083D-02
   163  1.6200000000000D+00 -1.2055436351994D-01 -1.0107152800636D-01
   164  1.6300000000000D+00 -1.1030817556667D-01 -1.1547443215562D-01
   165  1.6400000000000D+00 -1.0044975652787D-01 -1.2872825700431D-01
   166  1.6500000000000D+00 -9.0986706867270D-02 -1.4085141813581D-01
   167  1.6600000000000D+00 -8.1925033202927D-02 -1.5186457514099D-01
   168  1.6700000000000D+00 -7.3269195469725D-02 -1.6179052879988D-01
   169  1.6800000000000D+00 -6.5022149943605D-02 -1.7065413718184D-01
   170  1.6900000000000D+00 -5.7185397316403D-02 -1.7848221905137D-01
   171  1.7000000000000D+00 -4.9759034226425D-02 -1.8530344965668D-01
   172  1.7100000000000D+00 -4.2741808109168D-02 -1.9114824929501D-01
   173  1.7200000000000D+00 -3.6131174936610D-02 -1.9604866569858D-01
   174  1.7300000000000D+00 -2.9923359752474D-02 -2.0003825044553D-01
   175  1.7400000000000D+00 -2.4113419587415D-02 -2.0315193039606D-01
   176  1.7500000000000D+00 -1.8695308603500D-02 -2.0542587450659D-01
   177  1.7600000000000D+00 -1.3661945088150D-02 -2.0689735692704D-01
   178  1.7700000000000D+00 -9.0052800815097D-03 -2.0760461689919D-01
   179  1.7800000000000D+00 -4.7163673065449D-03 -2.0758671623545D-01
   180  1.7900000000000D+00 -7.8543412343768D-04 -2.0688339505122D-01
   181  1.8000000000000D+00  2.7980467722086D-03 -2.0553492640380D-01
   182  1.8100000000000D+00  6.0452852304493D-03 -2.0358197061922D-01
   183  1.8200000000000D+00  8.9681013542810D-03 -2.0106542987789D-01
   184  1.8300000000000D+00  1.1578853362578D-02 -1.9802630384972D-01
   185  1.8400000000000D+00  1.3890365860953D-02 -1.9450554696756D-01
   186  1.8500000000000D+00  1.5915858794303D-02 -1.9054392798130D-01
   187  1.8600000000000D+00  1.7668877406130D-02 -1.8618189257141D-01
   188  1.8700000000000D+00  1.9163223339319D-02 -1.8145942930588D-01
   189  1.8800000000000D+00  2.0412887336031D-02 -1.7641594005384D-01
   190  1.8900000000000D+00  2.1431983437784D-02 -1.7109011453968D-01
   191  1.9000000000000D+00  2.2234685415509D-02 -1.6551981087055D-01
   192  1.9100000000000D+00  2.2835165163659D-02 -1.5974194129136D-01
   193  1.9200000000000D+00  2.3247533539886D-02 -1.5379236430665D-01
   194  1.9300000000000D+00  2.3485783640914D-02 -1.4770578311505D-01
   195  1.9400000000000D+00  2.3563736852917D-02 -1.4151565117538D-01
   196  1.9500000000000D+00  2.3494991902344D-02 -1.3525408542410D-01
   197  1.9600000000000D+00  2.3292876666112D-02 -1.2895178646044D-01
   198  1.9700000000000D+00  2.2970403579395D-02 -1.2263796780319D-01
   199  1.9800000000000D+00  2.2540228002971D-02 -1.1634029255537D-01
   200  1.9900000000000D+00  2.2014610029540D-02 -1.1008481854774D-01
   201  2.0000000000000D+00  2.1405379515178D-02 -1.0389595144706D-01
   202  2.0100000000000D+00  2.0723904702988D-02 -9.7796406710601D-02
   203  2.0200000000000D+00  1.9981064563838D-02 -9.1807180654851D-02
   204  2.0300000000000D+00  1.9187224293338D-02 -8.5947529153799D-02
   205  2.0400000000000D+00  1.8352214859836D-02 -8.0234956177781D-02
   206  2.0500000000000D+00  1.7485315691595D-02 -7.4685209851243D-02
   207  2.0600000000000D+00  1.6595241062736D-02 -6.9312287342773D-02
   208  2.0700000000000D+00  1.5690129855738D-02 -6.4128447757913D-02
   209  2.0800000000000D+00  1.4777538555937D-02 -5.9144232632319D-02
   210  2.0900000000000D+00  1.3864437953741D-02 -5.4368495164800D-02
   211  2.1000000000000D+00  1.2957212639571D-02 -4.9808435864427D-02
   212  2.1100000000000D+00  1.2061663925250D-02 -4.5469646122363D-02
   213  2.1200000000000D+00  1.1183015622536D-02 -4.1356158266338D-02
   214  2.1300000000000D+00  1.0325922576901D-02 -3.7470501796844D-02
   215  2.1400000000000D+00  9.4944821798115D-03 -3.3813766292121D-02
   216  2.1500000000000D+00  8.6922481109220D-03 -3.0385669118081D-02
   217  2.1600000000000D+00  7.9222466970664D-03 -2.7184628811962D-02
   218  2.1700000000000D+00  7.1869954078044D-03 -2.4207842933855D-02
   219  2.1800000000000D+00  6.4885232578348D-03 -2.1451369782628D-02
   220  2.1900000000000D+00  5.8283932360485D-03 -1.8910214175712D-02
   221  2.2000000000000D+00  5.2077261889310D-03 -1.6578415913177D-02
   222  2.2100000000000D+00  4.6272262003675D-03 -1.4449140921107D-02
   223  2.2200000000000D+00  4.0872071989906D-03 -1.2514774382608D-02
   224  2.2300000000000D+00  3.5876205288244D-03 -1.0767015234084D-02
   225  2.2400000000000D+00  3.1280833300167D-03 -9.1969714720703D-03
   226  2.2500000000000D+00  2.7079075099888D-03 -7.7952558287704D-03
   227  2.2600000000000D+00  2.3261290946715D-03 -6.5520812079076D-03
   228  2.2700000000000D+00  1.9815376464786D-03 -5.4573550115351D-03
   229  2.2800000000000D+00  1.6727058010063D-03 -4.5007726012264D-03
   230  2.2900000000000D+00  1.3980184089522D-03 -3.6719084505180D-03
   231  2.3000000000000D+00  1.1557011791883D-03 -2.9603047508944D-03
   232  2.3100000000000D+00  9.4384900418584D-04 -2.3555580114065D-03
   233  2.3200000000000D+00  7.6045300310535D-04 -1.8474010086842D-03
   234  2.3300000000000D+00  6.0342680486549D-04 -1.4257815656868D-03
   235  2.3400000000000D+00  4.7063186346138D-04 -1.0809376071842D-03
   236  2.3500000000000D+00  3.5990088829663D-04 -8.0346602490116D-04
   237  2.3600000000000D+00  2.6906030344600D-04 -5.8438785592313D-04
   238  2.3700000000000D+00  1.9595100643630D-04 -4.1520782142514D-04
   239  2.3800000000000D+00  1.3844933356221D-04 -2.8799953538924D-04
   240  2.3900000000000D+00  9.4476901587349D-05 -1.9535028528958D-04
   241  2.4000000000000D+00  6.2019371551869D-05 -1.3045317746800D-04
   242  2.4100000000000D+00  3.9077591199860D-05 -8.6934768246506D-05
   243  2.4200000000000D+00  2.3920299512724D-05 -5.9938421351214D-05
   244  2.4300000000000D+00  1.4887428877508D-05 -4.5216126392588D-05
   245  2.4400000000000D+00  1.0628699076212D-05 -3.9826262412185D-05
   246  2.4500000000000D+00  8.8943819620474D-06 -3.7713816597078D-05
   247  2.4600000000000D+00  7.8053613576258D-06 -3.4099074912054D-05
   248  2.4700000000000D+00  5.4591861928352D-06 -2.3923602758814D-05
   249  2.4800000000000D+00  2.6124780729716D-06 -1.1349295974094D-05
   250  2.4900000000000D+00  5.9915957824158D-08 -2.5704855234461D-07
   251  2.5000000000000D+00 -7.4944832482502D-07  3.3762950233548D-06
   252  2.5100000000000D+00 -6.0945369488009D-07  2.7440328664508D-06
   253  2.5200000000000D+00 -1.0753121084891D-08  4.8355594858936D-08
   254  2.5300000000000D+00  1.5275507051138D-07 -7.1045601428567D-07
   255  2.5400000000000D+00  1.3822248193291D-07 -6.4475570811264D-07
   256  2.5500000000000D+00  6.2652988181795D-09 -2.9297648176444D-08
   257  2.5600000000000D+00 -1.9214131647622D-08  8.3923612245215D-08
   258  2.5700000000000D+00 -1.9097354701774D-08  8.3413553122987D-08
   259  2.5800000000000D+00 -2.1373661738361D-09  9.3356022165726D-09
   260  2.5900000000000D+00  0.0000000000000D+00  0.0000000000000D+00
   261  2.6000000000000D+00  0.0000000000000D+00  0.0000000000000D+00
   262  2.6100000000000D+00  0.0000000000000D+00  0.0000000000000D+00
   263  2.6200000000000D+00  0.0000000000000D+00  0.0000000000000D+00
   264  2.6300000000000D+00  0.0000000000000D+00  0.0000000000000D+00
   265  2.6400000000000D+00  0.0000000000000D+00  0.0000000000000D+00
   266  2.6500000000000D+00  0.0000000000000D+00  0.0000000000000D+00
   267  2.6600000000000D+00  0.0000000000000D+00  0.0000000000000D+00
   268  2.6700000000000D+00  0.0000000000000D+00  0.0000000000000D+00
   269  2.6800000000000D+00  0.0000000000000D+00  0.0000000000000D+00
   270  2.6900000000000D+00  0.0000000000000D+00  0.0000000000000D+00
   271  2.7000000000000D+00  0.0000000000000D+00  0.0000000000000D+00
   272  2.7100000000000D+00  0.0000000000000D+00  0.0000000000000D+00
   273  2.7200000000000D+00  0.0000000000000D+00  0.0000000000000D+00
   274  2.7300000000000D+00  0.0000000000000D+00  0.0000000000000D+00
   275  2.7400000000000D+00  0.0000000000000D+00  0.0000000000000D+00
   276  2.7500000000000D+00  0.0000000000000D+00  0.0000000000000D+00
   277  2.7600000000000D+00  0.0000000000000D+00  0.0000000000000D+00
   278  2.7700000000000D+00  0.0000000000000D+00  0.0000000000000D+00
   279  2.7800000000000D+00  0.0000000000000D+00  0.0000000000000D+00
   280  2.7900000000000D+00  0.0000000000000D+00  0.0000000000000D+00
   281  2.8000000000000D+00  0.0000000000000D+00  0.0000000000000D+00
   282  2.8100000000000D+00  0.0000000000000D+00  0.0000000000000D+00
   283  2.8200000000000D+00  0.0000000000000D+00  0.0000000000000D+00
   284  2.8300000000000D+00  0.0000000000000D+00  0.0000000000000D+00
   285  2.8400000000000D+00  0.0000000000000D+00  0.0000000000000D+00
   286  2.8500000000000D+00  0.0000000000000D+00  0.0000000000000D+00
   287  2.8600000000000D+00  0.0000000000000D+00  0.0000000000000D+00
   288  2.8700000000000D+00  0.0000000000000D+00  0.0000000000000D+00
   289  2.8800000000000D+00  0.0000000000000D+00  0.0000000000000D+00
   290  2.8900000000000D+00  0.0000000000000D+00  0.0000000000000D+00
   291  2.9000000000000D+00  0.0000000000000D+00  0.0000000000000D+00
   292  2.9100000000000D+00  0.0000000000000D+00  0.0000000000000D+00
   293  2.9200000000000D+00  0.0000000000000D+00  0.0000000000000D+00
   294  2.9300000000000D+00  0.0000000000000D+00  0.0000000000000D+00
   295  2.9400000000000D+00  0.0000000000000D+00  0.0000000000000D+00
   296  2.9500000000000D+00  0.0000000000000D+00  0.0000000000000D+00
   297  2.9600000000000D+00  0.0000000000000D+00  0.0000000000000D+00
   298  2.9700000000000D+00  0.0000000000000D+00  0.0000000000000D+00
   299  2.9800000000000D+00  0.0000000000000D+00  0.0000000000000D+00
   300  2.9900000000000D+00  0.0000000000000D+00  0.0000000000000D+00
   301  3.0000000000000D+00  0.0000000000000D+00  0.0000000000000D+00
   302  3.0100000000000D+00  0.0000000000000D+00  0.0000000000000D+00
   303  3.0200000000000D+00  0.0000000000000D+00  0.0000000000000D+00
   304  3.0300000000000D+00  0.0000000000000D+00  0.0000000000000D+00
   305  3.0400000000000D+00  0.0000000000000D+00  0.0000000000000D+00
   306  3.0500000000000D+00  0.0000000000000D+00  0.0000000000000D+00
   307  3.0600000000000D+00  0.0000000000000D+00  0.0000000000000D+00
   308  3.0700000000000D+00  0.0000000000000D+00  0.0000000000000D+00
   309  3.0800000000000D+00  0.0000000000000D+00  0.0000000000000D+00
   310  3.0900000000000D+00  0.0000000000000D+00  0.0000000000000D+00
   311  3.1000000000000D+00  0.0000000000000D+00  0.0000000000000D+00
   312  3.1100000000000D+00  0.0000000000000D+00  0.0000000000000D+00
   313  3.1200000000000D+00  0.0000000000000D+00  0.0000000000000D+00
   314  3.1300000000000D+00  0.0000000000000D+00  0.0000000000000D+00
   315  3.1400000000000D+00  0.0000000000000D+00  0.0000000000000D+00
   316  3.1500000000000D+00  0.0000000000000D+00  0.0000000000000D+00
   317  3.1600000000000D+00  0.0000000000000D+00  0.0000000000000D+00
   318  3.1700000000000D+00  0.0000000000000D+00  0.0000000000000D+00
   319  3.1800000000000D+00  0.0000000000000D+00  0.0000000000000D+00
   320  3.1900000000000D+00  0.0000000000000D+00  0.0000000000000D+00
   321  3.2000000000000D+00  0.0000000000000D+00  0.0000000000000D+00
   322  3.2100000000000D+00  0.0000000000000D+00  0.0000000000000D+00
   323  3.2200000000000D+00  0.0000000000000D+00  0.0000000000000D+00
   324  3.2300000000000D+00  0.0000000000000D+00  0.0000000000000D+00
   325  3.2400000000000D+00  0.0000000000000D+00  0.0000000000000D+00
   326  3.2500000000000D+00  0.0000000000000D+00  0.0000000000000D+00
   327  3.2600000000000D+00  0.0000000000000D+00  0.0000000000000D+00
   328  3.2700000000000D+00  0.0000000000000D+00  0.0000000000000D+00
   329  3.2800000000000D+00  0.0000000000000D+00  0.0000000000000D+00
   330  3.2900000000000D+00  0.0000000000000D+00  0.0000000000000D+00
   331  3.3000000000000D+00  0.0000000000000D+00  0.0000000000000D+00
   332  3.3100000000000D+00  0.0000000000000D+00  0.0000000000000D+00
   333  3.3200000000000D+00  0.0000000000000D+00  0.0000000000000D+00
   334  3.3300000000000D+00  0.0000000000000D+00  0.0000000000000D+00
   335  3.3400000000000D+00  0.0000000000000D+00  0.0000000000000D+00
   336  3.3500000000000D+00  0.0000000000000D+00  0.0000000000000D+00
   337  3.3600000000000D+00  0.0000000000000D+00  0.0000000000000D+00
   338  3.3700000000000D+00  0.0000000000000D+00  0.0000000000000D+00
   339  3.3800000000000D+00  0.0000000000000D+00  0.0000000000000D+00
   340  3.3900000000000D+00  0.0000000000000D+00  0.0000000000000D+00
   341  3.4000000000000D+00  0.0000000000000D+00  0.0000000000000D+00
   342  3.4100000000000D+00  0.0000000000000D+00  0.0000000000000D+00
   343  3.4200000000000D+00  0.0000000000000D+00  0.0000000000000D+00
   344  3.4300000000000D+00  0.0000000000000D+00  0.0000000000000D+00
   345  3.4400000000000D+00  0.0000000000000D+00  0.0000000000000D+00
   346  3.4500000000000D+00  0.0000000000000D+00  0.0000000000000D+00
   347  3.4600000000000D+00  0.0000000000000D+00  0.0000000000000D+00
   348  3.4700000000000D+00  0.0000000000000D+00  0.0000000000000D+00
   349  3.4800000000000D+00  0.0000000000000D+00  0.0000000000000D+00
   350  3.4900000000000D+00  0.0000000000000D+00  0.0000000000000D+00
   351  3.5000000000000D+00  0.0000000000000D+00  0.0000000000000D+00
   352  3.5100000000000D+00  0.0000000000000D+00  0.0000000000000D+00
   353  3.5200000000000D+00  0.0000000000000D+00  0.0000000000000D+00
   354  3.5300000000000D+00  0.0000000000000D+00  0.0000000000000D+00
   355  3.5400000000000D+00  0.0000000000000D+00  0.0000000000000D+00
   356  3.5500000000000D+00  0.0000000000000D+00  0.0000000000000D+00
   357  3.5600000000000D+00  0.0000000000000D+00  0.0000000000000D+00
   358  3.5700000000000D+00  0.0000000000000D+00  0.0000000000000D+00
   359  3.5800000000000D+00  0.0000000000000D+00  0.0000000000000D+00
   360  3.5900000000000D+00  0.0000000000000D+00  0.0000000000000D+00
   361  3.6000000000000D+00  0.0000000000000D+00  0.0000000000000D+00
   362  3.6100000000000D+00  0.0000000000000D+00  0.0000000000000D+00
   363  3.6200000000000D+00  0.0000000000000D+00  0.0000000000000D+00
   364  3.6300000000000D+00  0.0000000000000D+00  0.0000000000000D+00
   365  3.6400000000000D+00  0.0000000000000D+00  0.0000000000000D+00
   366  3.6500000000000D+00  0.0000000000000D+00  0.0000000000000D+00
   367  3.6600000000000D+00  0.0000000000000D+00  0.0000000000000D+00
   368  3.6700000000000D+00  0.0000000000000D+00  0.0000000000000D+00
   369  3.6800000000000D+00  0.0000000000000D+00  0.0000000000000D+00
   370  3.6900000000000D+00  0.0000000000000D+00  0.0000000000000D+00
   371  3.7000000000000D+00  0.0000000000000D+00  0.0000000000000D+00
   372  3.7100000000000D+00  0.0000000000000D+00  0.0000000000000D+00
   373  3.7200000000000D+00  0.0000000000000D+00  0.0000000000000D+00
   374  3.7300000000000D+00  0.0000000000000D+00  0.0000000000000D+00
   375  3.7400000000000D+00  0.0000000000000D+00  0.0000000000000D+00
   376  3.7500000000000D+00  0.0000000000000D+00  0.0000000000000D+00
   377  3.7600000000000D+00  0.0000000000000D+00  0.0000000000000D+00
   378  3.7700000000000D+00  0.0000000000000D+00  0.0000000000000D+00
   379  3.7800000000000D+00  0.0000000000000D+00  0.0000000000000D+00
   380  3.7900000000000D+00  0.0000000000000D+00  0.0000000000000D+00
   381  3.8000000000000D+00  0.0000000000000D+00  0.0000000000000D+00
   382  3.8100000000000D+00  0.0000000000000D+00  0.0000000000000D+00
   383  3.8200000000000D+00  0.0000000000000D+00  0.0000000000000D+00
   384  3.8300000000000D+00  0.0000000000000D+00  0.0000000000000D+00
   385  3.8400000000000D+00  0.0000000000000D+00  0.0000000000000D+00
   386  3.8500000000000D+00  0.0000000000000D+00  0.0000000000000D+00
   387  3.8600000000000D+00  0.0000000000000D+00  0.0000000000000D+00
   388  3.8700000000000D+00  0.0000000000000D+00  0.0000000000000D+00
   389  3.8800000000000D+00  0.0000000000000D+00  0.0000000000000D+00
   390  3.8900000000000D+00  0.0000000000000D+00  0.0000000000000D+00
   391  3.9000000000000D+00  0.0000000000000D+00  0.0000000000000D+00
   392  3.9100000000000D+00  0.0000000000000D+00  0.0000000000000D+00
   393  3.9200000000000D+00  0.0000000000000D+00  0.0000000000000D+00
   394  3.9300000000000D+00  0.0000000000000D+00  0.0000000000000D+00
   395  3.9400000000000D+00  0.0000000000000D+00  0.0000000000000D+00
   396  3.9500000000000D+00  0.0000000000000D+00  0.0000000000000D+00
   397  3.9600000000000D+00  0.0000000000000D+00  0.0000000000000D+00
   398  3.9700000000000D+00  0.0000000000000D+00  0.0000000000000D+00
   399  3.9800000000000D+00  0.0000000000000D+00  0.0000000000000D+00
   400  3.9900000000000D+00  0.0000000000000D+00  0.0000000000000D+00
   401  4.0000000000000D+00  0.0000000000000D+00  0.0000000000000D+00
   402  4.0100000000000D+00  0.0000000000000D+00  0.0000000000000D+00
   403  4.0200000000000D+00  0.0000000000000D+00  0.0000000000000D+00
   404  4.0300000000000D+00  0.0000000000000D+00  0.0000000000000D+00
   405  4.0400000000000D+00  0.0000000000000D+00  0.0000000000000D+00
   406  4.0500000000000D+00  0.0000000000000D+00  0.0000000000000D+00
   407  4.0600000000000D+00  0.0000000000000D+00  0.0000000000000D+00
   408  4.0700000000000D+00  0.0000000000000D+00  0.0000000000000D+00
   409  4.0800000000000D+00  0.0000000000000D+00  0.0000000000000D+00
   410  4.0900000000000D+00  0.0000000000000D+00  0.0000000000000D+00
   411  4.1000000000000D+00  0.0000000000000D+00  0.0000000000000D+00
   412  4.1100000000000D+00  0.0000000000000D+00  0.0000000000000D+00
   413  4.1200000000000D+00  0.0000000000000D+00  0.0000000000000D+00
   414  4.1300000000000D+00  0.0000000000000D+00  0.0000000000000D+00
   415  4.1400000000000D+00  0.0000000000000D+00  0.0000000000000D+00
   416  4.1500000000000D+00  0.0000000000000D+00  0.0000000000000D+00
   417  4.1600000000000D+00  0.0000000000000D+00  0.0000000000000D+00
   418  4.1700000000000D+00  0.0000000000000D+00  0.0000000000000D+00
   419  4.1800000000000D+00  0.0000000000000D+00  0.0000000000000D+00
   420  4.1900000000000D+00  0.0000000000000D+00  0.0000000000000D+00
   421  4.2000000000000D+00  0.0000000000000D+00  0.0000000000000D+00
   422  4.2100000000000D+00  0.0000000000000D+00  0.0000000000000D+00