Te    ONCVPSP-3.3.1  r_core=   2.49231   3.16383   2.80807
     52.0000     16.0000      210905    zatom,zion,pspd
     8 -116133   2     4   600     0    pspcod,pspxc,lmax,lloc,mmax,r2well
  5.99000000  0.00000000  0.00000000    rchrg fchrg qchrg
     2     4     2     0    nproj
     3     1           extension_switch
     4     3     0    nprojso
   0                         1.3755053442527D+00  6.2702587769910D+00
     1  0.0000000000000D+00 -2.1816215500792D-11  3.7155695187252D-12
     2  1.0000000000000D-02  2.5081022472576D-02  1.1745235753342D-02
     3  2.0000000000000D-02  5.0049831402494D-02  2.3518798239603D-02
     4  3.0000000000000D-02  7.4794666358993D-02  3.5348896135824D-02
     5  4.0000000000000D-02  9.9204671472037D-02  4.7263502368018D-02
     6  5.0000000000000D-02  1.2317034356047D-01  5.9290237136516D-02
     7  6.0000000000000D-02  1.4658397529284D-01  7.1456252019766D-02
     8  7.0000000000000D-02  1.6934009175073D-01  8.3788115511716D-02
     9  8.0000000000000D-02  1.9133587878597D-01  9.6311700344226D-02
    10  9.0000000000000D-02  2.1247160159063D-01  1.0905207294134D-01
    11  1.0000000000000D-01  2.3265101193071D-01  1.2203338534668D-01
    12  1.1000000000000D-01  2.5178174253243D-01  1.3527876995889D-01
    13  1.2000000000000D-01  2.6977568715250D-01  1.4881023740254D-01
    14  1.3000000000000D-01  2.8654936491162D-01  1.6264857785400D-01
    15  1.4000000000000D-01  3.0202426752305D-01  1.7681326613238D-01
    16  1.5000000000000D-01  3.1612718810541D-01  1.9132237085599D-01
    17  1.6000000000000D-01  3.2879053033096D-01  2.0619246795391D-01
    18  1.7000000000000D-01  3.3995259672674D-01  2.2143855881065D-01
    19  1.8000000000000D-01  3.4955785501697D-01  2.3707399330959D-01
    20  1.9000000000000D-01  3.5755718146951D-01  2.5311039802769D-01
    21  2.0000000000000D-01  3.6390808028794D-01  2.6955760982013D-01
    22  2.1000000000000D-01  3.6857487817304D-01  2.8642361501885D-01
    23  2.2000000000000D-01  3.7152889326308D-01  3.0371449445366D-01
    24  2.3000000000000D-01  3.7274857775123D-01  3.2143437448862D-01
    25  2.4000000000000D-01  3.7221963357001D-01  3.3958538424986D-01
    26  2.5000000000000D-01  3.6993510062743D-01  3.5816761920348D-01
    27  2.6000000000000D-01  3.6589541717582D-01  3.7717911122484D-01
    28  2.7000000000000D-01  3.6010845199364D-01  3.9661580528180D-01
    29  2.8000000000000D-01  3.5258950816088D-01  4.1647154283594D-01
    30  2.9000000000000D-01  3.4336129831091D-01  4.3673805204647D-01
    31  3.0000000000000D-01  3.3245389134491D-01  4.5740494484174D-01
    32  3.1000000000000D-01  3.1990463069874D-01  4.7845972090368D-01
    33  3.2000000000000D-01  3.0575802435701D-01  4.9988777858964D-01
    34  3.3000000000000D-01  2.9006560691332D-01  5.2167243279597D-01
    35  3.4000000000000D-01  2.7288577408005D-01  5.4379493974686D-01
    36  3.5000000000000D-01  2.5428359015480D-01  5.6623452867087D-01
    37  3.6000000000000D-01  2.3433056905321D-01  5.8896844030686D-01
    38  3.7000000000000D-01  2.1310442961922D-01  6.1197197215989D-01
    39  3.8000000000000D-01  1.9068882602315D-01  6.3521853040666D-01
    40  3.9000000000000D-01  1.6717305415580D-01  6.5867968832935D-01
    41  4.0000000000000D-01  1.4265173502126D-01  6.8232525113582D-01
    42  4.1000000000000D-01  1.1722447622329D-01  7.0612332700383D-01
    43  4.2000000000000D-01  9.0995512728910D-02  7.3004040416648D-01
    44  4.3000000000000D-01  6.4073328177895D-02  7.5404143383653D-01
    45  4.4000000000000D-01  3.6570258087865D-02  7.7808991874759D-01
    46  4.5000000000000D-01  8.6020763815602D-03  8.0214800707137D-01
    47  4.6000000000000D-01 -1.9712433265073D-02  8.2617659145165D-01
    48  4.7000000000000D-01 -4.8251919688469D-02  8.5013541287799D-01
    49  4.8000000000000D-01 -7.6892918489439D-02  8.7398316910510D-01
    50  4.9000000000000D-01 -1.0551031658833D-01  8.9767762730730D-01
    51  5.0000000000000D-01 -1.3397782535010D-01  9.2117574064216D-01
    52  5.1000000000000D-01 -1.6216846050222D-01  9.4443376838260D-01
    53  5.2000000000000D-01 -1.8995502703115D-01  9.6740739926316D-01
    54  5.3000000000000D-01 -2.1721060721211D-01  9.9005187767330D-01
    55  5.4000000000000D-01 -2.4380904990391D-01  1.0123221323189D+00
    56  5.5000000000000D-01 -2.6962545922312D-01  1.0341729069627D+00
    57  5.6000000000000D-01 -2.9453668070347D-01  1.0555588928449D+00
    58  5.7000000000000D-01 -3.1842178304367D-01  1.0764348623770D+00
    59  5.8000000000000D-01 -3.4116253355293D-01  1.0967558036947D+00
    60  5.9000000000000D-01 -3.6264386541645D-01  1.1164770556504D+00
    61  6.0000000000000D-01 -3.8275433492384D-01  1.1355544428219D+00
    62  6.1000000000000D-01 -4.0138656683195D-01  1.1539444101088D+00
    63  6.2000000000000D-01 -4.1843768606938D-01  1.1716041564900D+00
    64  6.3000000000000D-01 -4.3380973403380D-01  1.1884917675118D+00
    65  6.4000000000000D-01 -4.4741006778374D-01  1.2045663460806D+00
    66  6.5000000000000D-01 -4.5915174048522D-01  1.2197881411341D+00
    67  6.6000000000000D-01 -4.6895386153871D-01  1.2341186737707D+00
    68  6.7000000000000D-01 -4.7674193488475D-01  1.2475208604227D+00
    69  6.8000000000000D-01 -4.8244817406524D-01  1.2599591326639D+00
    70  6.9000000000000D-01 -4.8601179270368D-01  1.2713995532531D+00
    71  7.0000000000000D-01 -4.8737926915905D-01  1.2818099280237D+00
    72  7.1000000000000D-01 -4.8650458420600D-01  1.2911599132397D+00
    73  7.2000000000000D-01 -4.8334943069720D-01  1.2994211180547D+00
    74  7.3000000000000D-01 -4.7788339427222D-01  1.3065672017205D+00
    75  7.4000000000000D-01 -4.7008410429031D-01  1.3125739652096D+00
    76  7.5000000000000D-01 -4.5993735428186D-01  1.3174194369324D+00
    77  7.6000000000000D-01 -4.4743719133427D-01  1.3210839522473D+00
    78  7.7000000000000D-01 -4.3258597395300D-01  1.3235502264807D+00
    79  7.8000000000000D-01 -4.1539439806519D-01  1.3248034211950D+00
    80  7.9000000000000D-01 -3.9588149096321D-01  1.3248312034628D+00
    81  8.0000000000000D-01 -3.7407457311647D-01  1.3236237979297D+00
    82  8.1000000000000D-01 -3.5000918791235D-01  1.3211740314671D+00
    83  8.2000000000000D-01 -3.2372899951987D-01  1.3174773702467D+00
    84  8.3000000000000D-01 -2.9528565920275D-01  1.3125319490856D+00
    85  8.4000000000000D-01 -2.6473864054054D-01  1.3063385929436D+00
    86  8.5000000000000D-01 -2.3215504414795D-01  1.2989008304743D+00
    87  8.6000000000000D-01 -1.9760937261106D-01  1.2902248995609D+00
    88  8.7000000000000D-01 -1.6118327648637D-01  1.2803197447951D+00
    89  8.8000000000000D-01 -1.2296527233231D-01  1.2691970068816D+00
    90  8.9000000000000D-01 -8.3050433862572D-02  1.2568710039807D+00
    91  9.0000000000000D-01 -4.1540057427032D-02  1.2433587050278D+00
    92  9.1000000000000D-01  1.4586968630392D-03  1.2286796950951D+00
    93  9.2000000000000D-01  4.5833186942884D-02  1.2128561328897D+00
    94  9.3000000000000D-01  9.1465692012553D-02  1.1959127005075D+00
    95  9.4000000000000D-01  1.3823383554905D-01  1.1778765455898D+00
    96  9.5000000000000D-01  1.8601102640886D-01  1.1587772160556D+00
    97  9.6000000000000D-01  2.3466691623775D-01  1.1386465876086D+00
    98  9.7000000000000D-01  2.8406787133239D-01  1.1175187842405D+00
    99  9.8000000000000D-01  3.3407745703407D-01  1.0954300919813D+00
   100  9.9000000000000D-01  3.8455693268022D-01  1.0724188661640D+00
   101  1.0000000000000D+00  4.3536575509067D-01  1.0485254325007D+00
   102  1.0100000000000D+00  4.8636208852863D-01  1.0237919822819D+00
   103  1.0200000000000D+00  5.3740331904707D-01  9.9826246203699D-01
   104  1.0300000000000D+00  5.8834657111139D-01  9.7198245800770D-01
   105  1.0400000000000D+00  6.3904922437948D-01  9.4499907580893D-01
   106  1.0500000000000D+00  6.8936942851946D-01  9.1736081566428D-01
   107  1.0600000000000D+00  7.3916661395362D-01  8.8911744362049D-01
   108  1.0700000000000D+00  7.8830199643677D-01  8.6031985915860D-01
   109  1.0800000000000D+00  8.3663907340413D-01  8.3101995963116D-01
   110  1.0900000000000D+00  8.8404411006321D-01  8.0127050196600D-01
   111  1.1000000000000D+00  9.3038661324890D-01  7.7112496208550D-01
   112  1.1100000000000D+00  9.7553979111525D-01  7.4063739249793D-01
   113  1.1200000000000D+00  1.0193809968068D+00  7.0986227852329D-01
   114  1.1300000000000D+00  1.0617921543215D+00  6.7885439361970D-01
   115  1.1400000000000D+00  1.1026601648647D+00  6.4766865427848D-01
   116  1.1500000000000D+00  1.1418772920647D+00  6.1635997495739D-01
   117  1.1600000000000D+00  1.1793415245418D+00  5.8498312351964D-01
   118  1.1700000000000D+00  1.2149569144128D+00  5.5359257764357D-01
   119  1.1800000000000D+00  1.2486338904232D+00  5.2224238266316D-01
   120  1.1900000000000D+00  1.2802895445042D+00  4.9098601129473D-01
   121  1.2000000000000D+00  1.3098478906963D+00  4.5987622569560D-01
   122  1.2100000000000D+00  1.3372400955091D+00  4.2896494228980D-01
   123  1.2200000000000D+00  1.3624046788586D+00  3.9830309979106D-01
   124  1.2300000000000D+00  1.3852876849325D+00  3.6794053083398D-01
   125  1.2400000000000D+00  1.4058428224482D+00  3.3792583761131D-01
   126  1.2500000000000D+00  1.4240315738573D+00  3.0830627190553D-01
   127  1.2600000000000D+00  1.4398232732418D+00  2.7912761988227D-01
   128  1.2700000000000D+00  1.4531951528034D+00  2.5043409199041D-01
   129  1.2800000000000D+00  1.4641323579150D+00  2.2226821830527D-01
   130  1.2900000000000D+00  1.4726279308853D+00  1.9467074962742D-01
   131  1.3000000000000D+00  1.4786827637788D+00  1.6768056461715D-01
   132  1.3100000000000D+00  1.4823055206495D+00  1.4133458324320D-01
   133  1.3200000000000D+00  1.4835125297582D+00  1.1566768679060D-01
   134  1.3300000000000D+00  1.4823276465284D+00  9.0712644634948D-02
   135  1.3400000000000D+00  1.4787820879406D+00  6.6500048002841D-02
   136  1.3500000000000D+00  1.4729142393693D+00  4.3058250879874D-02
   137  1.3600000000000D+00  1.4647694349463D+00  2.0413318202182D-02
   138  1.3700000000000D+00  1.4543997124724D+00 -1.4110185100723D-03
   139  1.3800000000000D+00  1.4418635442940D+00 -2.2393398017939D-02
   140  1.3900000000000D+00  1.4272255454090D+00 -4.2514858635214D-02
   141  1.4000000000000D+00  1.4105561602357D+00 -6.1758859848654D-02
   142  1.4100000000000D+00  1.3919313296711D+00 -8.0111296303807D-02
   143  1.4200000000000D+00  1.3714321398910D+00 -9.7560504106188D-02
   144  1.4300000000000D+00  1.3491444546841D+00 -1.1409725951135D-01
   145  1.4400000000000D+00  1.3251585329633D+00 -1.2971477003763D-01
   146  1.4500000000000D+00  1.2995686332243D+00 -1.4440865805848D-01
   147  1.4600000000000D+00  1.2724726067896D+00 -1.5817693702677D-01
   148  1.4700000000000D+00  1.2439714816021D+00 -1.7101998037623D-01
   149  1.4800000000000D+00  1.2141690384715D+00 -1.8294048331871D-01
   150  1.4900000000000D+00  1.1831713815751D+00 -1.9394341764522D-01
   151  1.5000000000000D+00  1.1510865051110D+00 -2.0403597973791D-01
   152  1.5100000000000D+00  1.1180238578688D+00 -2.1322753200302D-01
   153  1.5200000000000D+00  1.0840939076598D+00 -2.2152953790534D-01
   154  1.5300000000000D+00  1.0494077071957D+00 -2.2895549090485D-01
   155  1.5400000000000D+00  1.0140764634371D+00 -2.3552083746487D-01
   156  1.5500000000000D+00  9.7821111179811D-01 -2.4124289448120D-01
   157  1.5600000000000D+00  9.4192189716397D-01 -2.4614076133659D-01
   158  1.5700000000000D+00  9.0531796303643D-01 -2.5023522692672D-01
   159  1.5800000000000D+00  8.6850695050893D-01 -2.5354867191751D-01
   160  1.5900000000000D+00  8.3159460841258D-01 -2.5610496656720D-01
   161  1.6000000000000D+00  7.9468441594842D-01 -2.5792936441566D-01
   162  1.6100000000000D+00  7.5787721923162D-01 -2.5904839216804D-01
   163  1.6200000000000D+00  7.2127088258390D-01 -2.5948973609865D-01
   164  1.6300000000000D+00  6.8495995611357D-01 -2.5928212530521D-01
   165  1.6400000000000D+00  6.4903535988634D-01 -2.5845521214211D-01
   166  1.6500000000000D+00  6.1358408633935D-01 -2.5703945017547D-01
   167  1.6600000000000D+00  5.7868892069427D-01 -2.5506596997204D-01
   168  1.6700000000000D+00  5.4442818110440D-01 -2.5256645308494D-01
   169  1.6800000000000D+00  5.1087547777050D-01 -2.4957300451558D-01
   170  1.6900000000000D+00  4.7809949278283D-01 -2.4611802403892D-01
   171  1.7000000000000D+00  4.4616377946881D-01 -2.4223407662763D-01
   172  1.7100000000000D+00  4.1512658293811D-01 -2.3795376238575D-01
   173  1.7200000000000D+00  3.8504068025342D-01 -2.3330958617817D-01
   174  1.7300000000000D+00  3.5595324173899D-01 -2.2833382738385D-01
   175  1.7400000000000D+00  3.2790571164248D-01 -2.2305840991165D-01
   176  1.7500000000000D+00  3.0093370591666D-01 -2.1751477202466D-01
   177  1.7600000000000D+00  2.7506694704000D-01 -2.1173374169292D-01
   178  1.7700000000000D+00  2.5032915870806D-01 -2.0574539728113D-01
   179  1.7800000000000D+00  2.2673812521886D-01 -1.9957896996245D-01
   180  1.7900000000000D+00  2.0430562276722D-01 -1.9326270519864D-01
   181  1.8000000000000D+00  1.8303714785672D-01 -1.8682367385697D-01
   182  1.8100000000000D+00  1.6293222257939D-01 -1.8028772964365D-01
   183  1.8200000000000D+00  1.4398509680337D-01 -1.7367956076931D-01
   184  1.8300000000000D+00  1.2618530915705D-01 -1.6702272154821D-01
   185  1.8400000000000D+00  1.0951839736326D-01 -1.6033973033777D-01
   186  1.8500000000000D+00  9.3966663906510D-02 -1.5365217752825D-01
   187  1.8600000000000D+00  7.9509117002575D-02 -1.4698062961100D-01
   188  1.8700000000000D+00  6.6121550800034D-02 -1.4034457985550D-01
   189  1.8800000000000D+00  5.3776936556492D-02 -1.3376246596776D-01
   190  1.8900000000000D+00  4.2445593381860D-02 -1.2725164102393D-01
   191  1.9000000000000D+00  3.2095438302622D-02 -1.2082836514079D-01
   192  1.9100000000000D+00  2.2692229020286D-02 -1.1450779795835D-01
   193  1.9200000000000D+00  1.4199807031659D-02 -1.0830399420682D-01
   194  1.9300000000000D+00  6.5803433086088D-03 -1.0222990305433D-01
   195  1.9400000000000D+00 -2.0541591862496D-04 -9.6297370821911D-02
   196  1.9500000000000D+00 -6.1979047635603D-03 -9.0517147233643D-02
   197  1.9600000000000D+00 -1.1438495167021D-02 -8.4898894734763D-02
   198  1.9700000000000D+00 -1.5969258734703D-02 -7.9451201261015D-02
   199  1.9800000000000D+00 -1.9832732522182D-02 -7.4181595896932D-02
   200  1.9900000000000D+00 -2.3071691371575D-02 -6.9096567640041D-02
   201  2.0000000000000D+00 -2.5728926960635D-02 -6.4201586989918D-02
   202  2.0100000000000D+00 -2.7847034535437D-02 -5.9501130210311D-02
   203  2.0200000000000D+00 -2.9468209658238D-02 -5.4998706281194D-02
   204  2.0300000000000D+00 -3.0634053120694D-02 -5.0696886148310D-02
   205  2.0400000000000D+00 -3.1385388531194D-02 -4.6597334372237D-02
   206  2.0500000000000D+00 -3.1762089760811D-02 -4.2700842821615D-02
   207  2.0600000000000D+00 -3.1802921162419D-02 -3.9007366341408D-02
   208  2.0700000000000D+00 -3.1545391113051D-02 -3.5516060226348D-02
   209  2.0800000000000D+00 -3.1025616840808D-02 -3.2225319293462D-02
   210  2.0900000000000D+00 -3.0278205563093D-02 -2.9132818415179D-02
   211  2.1000000000000D+00 -2.9336147075035D-02 -2.6235554348716D-02
   212  2.1100000000000D+00 -2.8230721887537D-02 -2.3529888660633D-02
   213  2.1200000000000D+00 -2.6991423920033D-02 -2.1011591593678D-02
   214  2.1300000000000D+00 -2.5645895589113D-02 -1.8675886771572D-02
   215  2.1400000000000D+00 -2.4219880135656D-02 -1.6517496421326D-02
   216  2.1500000000000D+00 -2.2737185477748D-02 -1.4530687162605D-02
   217  2.1600000000000D+00 -2.1219663299513D-02 -1.2709316039212D-02
   218  2.1700000000000D+00 -1.9687202419927D-02 -1.1046876664928D-02
   219  2.1800000000000D+00 -1.8157733000952D-02 -9.5365455263751D-03
   220  2.1900000000000D+00 -1.6647246720149D-02 -8.1712279291153D-03
   221  2.2000000000000D+00 -1.5169826931000D-02 -6.9436038359218D-03
   222  2.2100000000000D+00 -1.3737690966866D-02 -5.8461732574672D-03
   223  2.2200000000000D+00 -1.2361244613823D-02 -4.8713009932304D-03
   224  2.2300000000000D+00 -1.1049144896457D-02 -4.0112609260584D-03
   225  2.2400000000000D+00 -9.8083740692833D-03 -3.2582793334901D-03
   226  2.2500000000000D+00 -8.6443217077585D-03 -2.6045773845746D-03
   227  2.2600000000000D+00 -7.5608738659593D-03 -2.0424127754555D-03
   228  2.2700000000000D+00 -6.5605104538515D-03 -1.5641200185389D-03
   229  2.2800000000000D+00 -5.6444075890502D-03 -1.1621497766887D-03
   230  2.2900000000000D+00 -4.8125451750977D-03 -8.2910686091120D-04
   231  2.3000000000000D+00 -4.0638186957854D-03 -5.5778675708216D-04
   232  2.3100000000000D+00 -3.3961539145451D-03 -3.4121096153208D-04
   233  2.3200000000000D+00 -2.8066234992283D-03 -1.7266061449829D-04
   234  2.3300000000000D+00 -2.2915645838066D-03 -4.5708588901152D-05
   235  2.3400000000000D+00 -1.8466972301556D-03  4.5749827278132D-05
   236  2.3500000000000D+00 -1.4672405629081D-03  1.0746824439318D-04
   237  2.3600000000000D+00 -1.1480279510034D-03  1.4482202412593D-04
   238  2.3700000000000D+00 -8.8362003630922D-04  1.6278284779331D-04
   239  2.3800000000000D+00 -6.6841205439628D-04  1.6589532830023D-04
   240  2.3900000000000D+00 -4.9673863191860D-04  1.5825527589819D-04
   241  2.4000000000000D+00 -3.6297297391641D-04  1.4348988123039D-04
   242  2.4100000000000D+00 -2.6168389398672D-04  1.2476846355677D-04
   243  2.4200000000000D+00 -1.8752392867968D-04  1.0470029799792D-04
   244  2.4300000000000D+00 -1.3537237536255D-04  8.5348695059067D-05
   245  2.4400000000000D+00 -1.0006750598399D-04  6.7954100587258D-05
   246  2.4500000000000D+00 -7.8331531067749D-05  5.4126319440934D-05
   247  2.4600000000000D+00 -6.7495285894422D-05  4.4997435644159D-05
   248  2.4700000000000D+00 -6.6216777588654D-05  4.1769018237807D-05
   249  2.4800000000000D+00 -6.7383158411944D-05  4.0907741845470D-05
   250  2.4900000000000D+00 -6.3886571607841D-05  3.8176187836896D-05
   251  2.5000000000000D+00 -4.7948935711376D-05  2.8435272479279D-05
   252  2.5100000000000D+00 -2.5270016526070D-05  1.4924960695441D-05
   253  2.5200000000000D+00 -3.8748467743574D-06  2.2851804126459D-06
   254  2.5300000000000D+00  5.7026301116237D-06 -3.3337773535816D-06
   255  2.5400000000000D+00  5.8836066141671D-06 -3.4315098257201D-06
   256  2.5500000000000D+00  1.3408379451491D-06 -7.8059359260160D-07
   257  2.5600000000000D+00 -1.1449079983047D-06  6.7487131422316D-07
   258  2.5700000000000D+00 -1.3834185708917D-06  8.1499541497204D-07
   259  2.5800000000000D+00 -4.1338951166957D-07  2.4341796329146D-07
   260  2.5900000000000D+00  1.2339385755187D-07 -7.3641421407127D-08
   261  2.6000000000000D+00  1.7118013234393D-07 -1.0216025750850D-07
   262  2.6100000000000D+00  6.6948210673636D-08 -3.9954674345096D-08
   263  2.6200000000000D+00  0.0000000000000D+00  0.0000000000000D+00
   264  2.6300000000000D+00  0.0000000000000D+00  0.0000000000000D+00
   265  2.6400000000000D+00  0.0000000000000D+00  0.0000000000000D+00
   266  2.6500000000000D+00  0.0000000000000D+00  0.0000000000000D+00
   267  2.6600000000000D+00  0.0000000000000D+00  0.0000000000000D+00
   268  2.6700000000000D+00  0.0000000000000D+00  0.0000000000000D+00
   269  2.6800000000000D+00  0.0000000000000D+00  0.0000000000000D+00
   270  2.6900000000000D+00  0.0000000000000D+00  0.0000000000000D+00
   271  2.7000000000000D+00  0.0000000000000D+00  0.0000000000000D+00
   272  2.7100000000000D+00  0.0000000000000D+00  0.0000000000000D+00
   273  2.7200000000000D+00  0.0000000000000D+00  0.0000000000000D+00
   274  2.7300000000000D+00  0.0000000000000D+00  0.0000000000000D+00
   275  2.7400000000000D+00  0.0000000000000D+00  0.0000000000000D+00
   276  2.7500000000000D+00  0.0000000000000D+00  0.0000000000000D+00
   277  2.7600000000000D+00  0.0000000000000D+00  0.0000000000000D+00
   278  2.7700000000000D+00  0.0000000000000D+00  0.0000000000000D+00
   279  2.7800000000000D+00  0.0000000000000D+00  0.0000000000000D+00
   280  2.7900000000000D+00  0.0000000000000D+00  0.0000000000000D+00
   281  2.8000000000000D+00  0.0000000000000D+00  0.0000000000000D+00
   282  2.8100000000000D+00  0.0000000000000D+00  0.0000000000000D+00
   283  2.8200000000000D+00  0.0000000000000D+00  0.0000000000000D+00
   284  2.8300000000000D+00  0.0000000000000D+00  0.0000000000000D+00
   285  2.8400000000000D+00  0.0000000000000D+00  0.0000000000000D+00
   286  2.8500000000000D+00  0.0000000000000D+00  0.0000000000000D+00
   287  2.8600000000000D+00  0.0000000000000D+00  0.0000000000000D+00
   288  2.8700000000000D+00  0.0000000000000D+00  0.0000000000000D+00
   289  2.8800000000000D+00  0.0000000000000D+00  0.0000000000000D+00
   290  2.8900000000000D+00  0.0000000000000D+00  0.0000000000000D+00
   291  2.9000000000000D+00  0.0000000000000D+00  0.0000000000000D+00
   292  2.9100000000000D+00  0.0000000000000D+00  0.0000000000000D+00
   293  2.9200000000000D+00  0.0000000000000D+00  0.0000000000000D+00
   294  2.9300000000000D+00  0.0000000000000D+00  0.0000000000000D+00
   295  2.9400000000000D+00  0.0000000000000D+00  0.0000000000000D+00
   296  2.9500000000000D+00  0.0000000000000D+00  0.0000000000000D+00
   297  2.9600000000000D+00  0.0000000000000D+00  0.0000000000000D+00
   298  2.9700000000000D+00  0.0000000000000D+00  0.0000000000000D+00
   299  2.9800000000000D+00  0.0000000000000D+00  0.0000000000000D+00
   300  2.9900000000000D+00  0.0000000000000D+00  0.0000000000000D+00
   301  3.0000000000000D+00  0.0000000000000D+00  0.0000000000000D+00
   302  3.0100000000000D+00  0.0000000000000D+00  0.0000000000000D+00
   303  3.0200000000000D+00  0.0000000000000D+00  0.0000000000000D+00
   304  3.0300000000000D+00  0.0000000000000D+00  0.0000000000000D+00
   305  3.0400000000000D+00  0.0000000000000D+00  0.0000000000000D+00
   306  3.0500000000000D+00  0.0000000000000D+00  0.0000000000000D+00
   307  3.0600000000000D+00  0.0000000000000D+00  0.0000000000000D+00
   308  3.0700000000000D+00  0.0000000000000D+00  0.0000000000000D+00
   309  3.0800000000000D+00  0.0000000000000D+00  0.0000000000000D+00
   310  3.0900000000000D+00  0.0000000000000D+00  0.0000000000000D+00
   311  3.1000000000000D+00  0.0000000000000D+00  0.0000000000000D+00
   312  3.1100000000000D+00  0.0000000000000D+00  0.0000000000000D+00
   313  3.1200000000000D+00  0.0000000000000D+00  0.0000000000000D+00
   314  3.1300000000000D+00  0.0000000000000D+00  0.0000000000000D+00
   315  3.1400000000000D+00  0.0000000000000D+00  0.0000000000000D+00
   316  3.1500000000000D+00  0.0000000000000D+00  0.0000000000000D+00
   317  3.1600000000000D+00  0.0000000000000D+00  0.0000000000000D+00
   318  3.1700000000000D+00  0.0000000000000D+00  0.0000000000000D+00
   319  3.1800000000000D+00  0.0000000000000D+00  0.0000000000000D+00
   320  3.1900000000000D+00  0.0000000000000D+00  0.0000000000000D+00
   321  3.2000000000000D+00  0.0000000000000D+00  0.0000000000000D+00
   322  3.2100000000000D+00  0.0000000000000D+00  0.0000000000000D+00
   323  3.2200000000000D+00  0.0000000000000D+00  0.0000000000000D+00
   324  3.2300000000000D+00  0.0000000000000D+00  0.0000000000000D+00
   325  3.2400000000000D+00  0.0000000000000D+00  0.0000000000000D+00
   326  3.2500000000000D+00  0.0000000000000D+00  0.0000000000000D+00
   327  3.2600000000000D+00  0.0000000000000D+00  0.0000000000000D+00
   328  3.2700000000000D+00  0.0000000000000D+00  0.0000000000000D+00
   329  3.2800000000000D+00  0.0000000000000D+00  0.0000000000000D+00
   330  3.2900000000000D+00  0.0000000000000D+00  0.0000000000000D+00
   331  3.3000000000000D+00  0.0000000000000D+00  0.0000000000000D+00
   332  3.3100000000000D+00  0.0000000000000D+00  0.0000000000000D+00
   333  3.3200000000000D+00  0.0000000000000D+00  0.0000000000000D+00
   334  3.3300000000000D+00  0.0000000000000D+00  0.0000000000000D+00
   335  3.3400000000000D+00  0.0000000000000D+00  0.0000000000000D+00
   336  3.3500000000000D+00  0.0000000000000D+00  0.0000000000000D+00
   337  3.3600000000000D+00  0.0000000000000D+00  0.0000000000000D+00
   338  3.3700000000000D+00  0.0000000000000D+00  0.0000000000000D+00
   339  3.3800000000000D+00  0.0000000000000D+00  0.0000000000000D+00
   340  3.3900000000000D+00  0.0000000000000D+00  0.0000000000000D+00
   341  3.4000000000000D+00  0.0000000000000D+00  0.0000000000000D+00
   342  3.4100000000000D+00  0.0000000000000D+00  0.0000000000000D+00
   343  3.4200000000000D+00  0.0000000000000D+00  0.0000000000000D+00
   344  3.4300000000000D+00  0.0000000000000D+00  0.0000000000000D+00
   345  3.4400000000000D+00  0.0000000000000D+00  0.0000000000000D+00
   346  3.4500000000000D+00  0.0000000000000D+00  0.0000000000000D+00
   347  3.4600000000000D+00  0.0000000000000D+00  0.0000000000000D+00
   348  3.4700000000000D+00  0.0000000000000D+00  0.0000000000000D+00
   349  3.4800000000000D+00  0.0000000000000D+00  0.0000000000000D+00
   350  3.4900000000000D+00  0.0000000000000D+00  0.0000000000000D+00
   351  3.5000000000000D+00  0.0000000000000D+00  0.0000000000000D+00
   352  3.5100000000000D+00  0.0000000000000D+00  0.0000000000000D+00
   353  3.5200000000000D+00  0.0000000000000D+00  0.0000000000000D+00
   354  3.5300000000000D+00  0.0000000000000D+00  0.0000000000000D+00
   355  3.5400000000000D+00  0.0000000000000D+00  0.0000000000000D+00
   356  3.5500000000000D+00  0.0000000000000D+00  0.0000000000000D+00
   357  3.5600000000000D+00  0.0000000000000D+00  0.0000000000000D+00
   358  3.5700000000000D+00  0.0000000000000D+00  0.0000000000000D+00
   359  3.5800000000000D+00  0.0000000000000D+00  0.0000000000000D+00
   360  3.5900000000000D+00  0.0000000000000D+00  0.0000000000000D+00
   361  3.6000000000000D+00  0.0000000000000D+00  0.0000000000000D+00
   362  3.6100000000000D+00  0.0000000000000D+00  0.0000000000000D+00
   363  3.6200000000000D+00  0.0000000000000D+00  0.0000000000000D+00
   364  3.6300000000000D+00  0.0000000000000D+00  0.0000000000000D+00
   365  3.6400000000000D+00  0.0000000000000D+00  0.0000000000000D+00
   366  3.6500000000000D+00  0.0000000000000D+00  0.0000000000000D+00
   367  3.6600000000000D+00  0.0000000000000D+00  0.0000000000000D+00
   368  3.6700000000000D+00  0.0000000000000D+00  0.0000000000000D+00
   369  3.6800000000000D+00  0.0000000000000D+00  0.0000000000000D+00
   370  3.6900000000000D+00  0.0000000000000D+00  0.0000000000000D+00
   371  3.7000000000000D+00  0.0000000000000D+00  0.0000000000000D+00
   372  3.7100000000000D+00  0.0000000000000D+00  0.0000000000000D+00
   373  3.7200000000000D+00  0.0000000000000D+00  0.0000000000000D+00
   374  3.7300000000000D+00  0.0000000000000D+00  0.0000000000000D+00
   375  3.7400000000000D+00  0.0000000000000D+00  0.0000000000000D+00
   376  3.7500000000000D+00  0.0000000000000D+00  0.0000000000000D+00
   377  3.7600000000000D+00  0.0000000000000D+00  0.0000000000000D+00
   378  3.7700000000000D+00  0.0000000000000D+00  0.0000000000000D+00
   379  3.7800000000000D+00  0.0000000000000D+00  0.0000000000000D+00
   380  3.7900000000000D+00  0.0000000000000D+00  0.0000000000000D+00
   381  3.8000000000000D+00  0.0000000000000D+00  0.0000000000000D+00
   382  3.8100000000000D+00  0.0000000000000D+00  0.0000000000000D+00
   383  3.8200000000000D+00  0.0000000000000D+00  0.0000000000000D+00
   384  3.8300000000000D+00  0.0000000000000D+00  0.0000000000000D+00
   385  3.8400000000000D+00  0.0000000000000D+00  0.0000000000000D+00
   386  3.8500000000000D+00  0.0000000000000D+00  0.0000000000000D+00
   387  3.8600000000000D+00  0.0000000000000D+00  0.0000000000000D+00
   388  3.8700000000000D+00  0.0000000000000D+00  0.0000000000000D+00
   389  3.8800000000000D+00  0.0000000000000D+00  0.0000000000000D+00
   390  3.8900000000000D+00  0.0000000000000D+00  0.0000000000000D+00
   391  3.9000000000000D+00  0.0000000000000D+00  0.0000000000000D+00
   392  3.9100000000000D+00  0.0000000000000D+00  0.0000000000000D+00
   393  3.9200000000000D+00  0.0000000000000D+00  0.0000000000000D+00
   394  3.9300000000000D+00  0.0000000000000D+00  0.0000000000000D+00
   395  3.9400000000000D+00  0.0000000000000D+00  0.0000000000000D+00
   396  3.9500000000000D+00  0.0000000000000D+00  0.0000000000000D+00
   397  3.9600000000000D+00  0.0000000000000D+00  0.0000000000000D+00
   398  3.9700000000000D+00  0.0000000000000D+00  0.0000000000000D+00
   399  3.9800000000000D+00  0.0000000000000D+00  0.0000000000000D+00
   400  3.9900000000000D+00  0.0000000000000D+00  0.0000000000000D+00
   401  4.0000000000000D+00  0.0000000000000D+00  0.0000000000000D+00
   402  4.0100000000000D+00  0.0000000000000D+00  0.0000000000000D+00
   403  4.0200000000000D+00  0.0000000000000D+00  0.0000000000000D+00
   404  4.0300000000000D+00  0.0000000000000D+00  0.0000000000000D+00
   405  4.0400000000000D+00  0.0000000000000D+00  0.0000000000000D+00
   406  4.0500000000000D+00  0.0000000000000D+00  0.0000000000000D+00
   407  4.0600000000000D+00  0.0000000000000D+00  0.0000000000000D+00
   408  4.0700000000000D+00  0.0000000000000D+00  0.0000000000000D+00
   409  4.0800000000000D+00  0.0000000000000D+00  0.0000000000000D+00
   410  4.0900000000000D+00  0.0000000000000D+00  0.0000000000000D+00
   411  4.1000000000000D+00  0.0000000000000D+00  0.0000000000000D+00
   412  4.1100000000000D+00  0.0000000000000D+00  0.0000000000000D+00
   413  4.1200000000000D+00  0.0000000000000D+00  0.0000000000000D+00
   414  4.1300000000000D+00  0.0000000000000D+00  0.0000000000000D+00
   415  4.1400000000000D+00  0.0000000000000D+00  0.0000000000000D+00
   416  4.1500000000000D+00  0.0000000000000D+00  0.0000000000000D+00
   417  4.1600000000000D+00  0.0000000000000D+00  0.0000000000000D+00
   418  4.1700000000000D+00  0.0000000000000D+00  0.0000000000000D+00
   419  4.1800000000000D+00  0.0000000000000D+00  0.0000000000000D+00
   420  4.1900000000000D+00  0.0000000000000D+00  0.0000000000000D+00
   421  4.2000000000000D+00  0.0000000000000D+00  0.0000000000000D+00
   422  4.2100000000000D+00  0.0000000000000D+00  0.0000000000000D+00