Ti    ONCVPSP-3.3.1  r_core=   2.46607   2.35117   2.29574
     22.0000     12.0000      210905    zatom,zion,pspd
     8 -116133   2     4   600     0    pspcod,pspxc,lmax,lloc,mmax,r2well
  5.99000000  0.00000000  0.00000000    rchrg fchrg qchrg
     2     2     2     0     0    nproj
     1     1           extension_switch
   0                         2.0974253685837D+00 -9.2416708724019D-02
     1  0.0000000000000D+00  4.6097015093949D-12 -1.7848555966538D-11
     2  1.0000000000000D-02  4.7336447572752D-02  3.1545375580465D-02
     3  2.0000000000000D-02  9.4618882349128D-02  6.3004084872368D-02
     4  3.0000000000000D-02  1.4179332610364D-01  9.4289780656935D-02
     5  4.0000000000000D-02  1.8880586991957D-01  1.2531675265825D-01
     6  5.0000000000000D-02  2.3560270925968D-01  1.5600024302741D-01
     7  6.0000000000000D-02  2.8213017953326D-01  1.8625675825452D-01
     8  7.0000000000000D-02  3.2833479231950D-01  2.1600437633901D-01
     9  8.0000000000000D-02  3.7416327240260D-01  2.4516304806622D-01
    10  9.0000000000000D-02  4.1956259576830D-01  2.7365489126103D-01
    11  1.0000000000000D-01  4.6448002870452D-01  3.0140447691536D-01
    12  1.1000000000000D-01  5.0886316814108D-01  3.2833910611736D-01
    13  1.2000000000000D-01  5.5265998335437D-01  3.5438907674478D-01
    14  1.3000000000000D-01  5.9581885915286D-01  3.7948793892384D-01
    15  1.4000000000000D-01  6.3828864064849D-01  4.0357273829717D-01
    16  1.5000000000000D-01  6.8001867970698D-01  4.2658424619094D-01
    17  1.6000000000000D-01  7.2095888315747D-01  4.4846717582048D-01
    18  1.7000000000000D-01  7.6105976282819D-01  4.6917038372694D-01
    19  1.8000000000000D-01  8.0027248746063D-01  4.8864705569324D-01
    20  1.9000000000000D-01  8.3854893653952D-01  5.0685487644676D-01
    21  2.0000000000000D-01  8.7584175606030D-01  5.2375618251729D-01
    22  2.1000000000000D-01  9.1210441623936D-01  5.3931809768330D-01
    23  2.2000000000000D-01  9.4729127115559D-01  5.5351265050507D-01
    24  2.3000000000000D-01  9.8135762029458D-01  5.6631687351198D-01
    25  2.4000000000000D-01  1.0142597719490D+00  5.7771288368048D-01
    26  2.5000000000000D-01  1.0459551084111D+00  5.8768794391093D-01
    27  2.6000000000000D-01  1.0764021528749D+00  5.9623450528342D-01
    28  2.7000000000000D-01  1.1055606379476D+00  6.0335022994635D-01
    29  2.8000000000000D-01  1.1333915756517D+00  6.0903799456500D-01
    30  2.9000000000000D-01  1.1598573287802D+00  6.1330587433181D-01
    31  3.0000000000000D-01  1.1849216834510D+00  6.1616710761401D-01
    32  3.1000000000000D-01  1.2085499226872D+00  6.1764004138827D-01
    33  3.2000000000000D-01  1.2307089008332D+00  6.1774805768552D-01
    34  3.3000000000000D-01  1.2513671186000D+00  6.1651948134152D-01
    35  3.4000000000000D-01  1.2704947985159D+00  6.1398746942013D-01
    36  3.5000000000000D-01  1.2880639605432D+00  6.1018988274660D-01
    37  3.6000000000000D-01  1.3040484976070D+00  6.0516914005615D-01
    38  3.7000000000000D-01  1.3184242507669D+00  5.9897205533004D-01
    39  3.8000000000000D-01  1.3311690837504D+00  5.9164965895483D-01
    40  3.9000000000000D-01  1.3422629565527D+00  5.8325700340323D-01
    41  4.0000000000000D-01  1.3516879977980D+00  5.7385295419324D-01
    42  4.1000000000000D-01  1.3594285755462D+00  5.6349996693852D-01
    43  4.2000000000000D-01  1.3654713662211D+00  5.5226385135627D-01
    44  4.3000000000000D-01  1.3698054213275D+00  5.4021352314759D-01
    45  4.4000000000000D-01  1.3724222316189D+00  5.2742074471215D-01
    46  4.5000000000000D-01  1.3733157883745D+00  5.1395985570006D-01
    47  4.6000000000000D-01  1.3724826414380D+00  4.9990749444301D-01
    48  4.7000000000000D-01  1.3699219536723D+00  4.8534231133963D-01
    49  4.8000000000000D-01  1.3656355514831D+00  4.7034467530067D-01
    50  4.9000000000000D-01  1.3596279710659D+00  4.5499637438419D-01
    51  5.0000000000000D-01  1.3519065000356D+00  4.3938031177200D-01
    52  5.1000000000000D-01  1.3424812141024D+00  4.2358019825471D-01
    53  5.2000000000000D-01  1.3313650084663D+00  4.0768024240398D-01
    54  5.3000000000000D-01  1.3185736236103D+00  3.9176483961746D-01
    55  5.4000000000000D-01  1.3041256651829D+00  3.7591826122367D-01
    56  5.5000000000000D-01  1.2880426176762D+00  3.6022434483104D-01
    57  5.6000000000000D-01  1.2703488516163D+00  3.4476618709787D-01
    58  5.7000000000000D-01  1.2510716240025D+00  3.2962584008726D-01
    59  5.8000000000000D-01  1.2302410717485D+00  3.1488401235385D-01
    60  5.9000000000000D-01  1.2078901978972D+00  3.0061977588739D-01
    61  6.0000000000000D-01  1.1840548504068D+00  2.8691028001153D-01
    62  6.1000000000000D-01  1.1587736933231D+00  2.7383047330553D-01
    63  6.2000000000000D-01  1.1320881701821D+00  2.6145283458091D-01
    64  6.3000000000000D-01  1.1040424595117D+00  2.4984711390588D-01
    65  6.4000000000000D-01  1.0746834223285D+00  2.3908008462658D-01
    66  6.5000000000000D-01  1.0440605415550D+00  2.2921530728690D-01
    67  6.6000000000000D-01  1.0122258533124D+00  2.2031290629757D-01
    68  6.7000000000000D-01  9.7923387007640D-01  2.1242936015051D-01
    69  6.8000000000000D-01  9.4514149571281D-01  2.0561730591701D-01
    70  6.9000000000000D-01  9.1000793244620D-01  1.9992535870725D-01
    71  7.0000000000000D-01  8.7389457984558D-01  1.9539794670564D-01
    72  7.1000000000000D-01  8.3686492594658D-01  1.9207516233059D-01
    73  7.2000000000000D-01  7.9898443066378D-01  1.8999262999888D-01
    74  7.3000000000000D-01  7.6032040168168D-01  1.8918139090618D-01
    75  7.4000000000000D-01  7.2094186304727D-01  1.8966780516253D-01
    76  7.5000000000000D-01  6.8091941672245D-01  1.9147347155045D-01
    77  7.6000000000000D-01  6.4032509738813D-01  1.9461516509894D-01
    78  7.7000000000000D-01  5.9923222082675D-01  1.9910479259366D-01
    79  7.8000000000000D-01  5.5771522624247D-01  2.0494936606851D-01
    80  7.9000000000000D-01  5.1584951291145D-01  2.1215099425040D-01
    81  8.0000000000000D-01  4.7371127158581D-01  2.2070689185571D-01
    82  8.1000000000000D-01  4.3137731110559D-01  2.3060940656317D-01
    83  8.2000000000000D-01  3.8892488070193D-01  2.4184606341740D-01
    84  8.3000000000000D-01  3.4643148850244D-01  2.5439962634656D-01
    85  8.4000000000000D-01  3.0397471677578D-01  2.6824817640912D-01
    86  8.5000000000000D-01  2.6163203447642D-01  2.8336520631887D-01
    87  8.6000000000000D-01  2.1948060767296D-01  2.9971973073310D-01
    88  8.7000000000000D-01  1.7759710846343D-01  3.1727641172762D-01
    89  8.8000000000000D-01  1.3605752299886D-01  3.3599569882453D-01
    90  8.9000000000000D-01  9.4936959251659D-02  3.5583398288325D-01
    91  9.0000000000000D-01  5.4309455178746D-02  3.7674376311416D-01
    92  9.1000000000000D-01  1.4247787939222D-02  3.9867382642646D-01
    93  9.2000000000000D-01 -2.5176715165612D-02  4.2156943827835D-01
    94  9.3000000000000D-01 -6.3894363357429D-02  4.4537254415788D-01
    95  9.4000000000000D-01 -1.0183728597679D-01  4.7002198078806D-01
    96  9.5000000000000D-01 -1.3893961233622D-01  4.9545369611887D-01
    97  9.6000000000000D-01 -1.7513764716089D-01  5.2160097714362D-01
    98  9.7000000000000D-01 -2.1037004095435D-01  5.4839468455508D-01
    99  9.8000000000000D-01 -2.4457795463644D-01  5.7576349324167D-01
   100  9.9000000000000D-01 -2.7770521781392D-01  6.0363413761214D-01
   101  1.0000000000000D+00 -3.0969848005990D-01  6.3193166073135D-01
   102  1.0100000000000D+00 -3.4050735459754D-01  6.6057966624862D-01
   103  1.0200000000000D+00 -3.7008455380511D-01  6.8950057210402D-01
   104  1.0300000000000D+00 -3.9838601598422D-01  7.1861586500700D-01
   105  1.0400000000000D+00 -4.2537102286174D-01  7.4784635469666D-01
   106  1.0500000000000D+00 -4.5100230732326D-01  7.7711242700951D-01
   107  1.0600000000000D+00 -4.7524615091248D-01  8.0633429480703D-01
   108  1.0700000000000D+00 -4.9807247066371D-01  8.3543224584209D-01
   109  1.0800000000000D+00 -5.1945489487261D-01  8.6432688667611D-01
   110  1.0900000000000D+00 -5.3937082745311D-01  8.9293938179963D-01
   111  1.1000000000000D+00 -5.5780150056269D-01  9.2119168714210D-01
   112  1.1100000000000D+00 -5.7473201523126D-01  9.4900677721223D-01
   113  1.1200000000000D+00 -5.9015136976689D-01  9.7630886515203D-01
   114  1.1300000000000D+00 -6.0405247576452D-01  1.0030236150468D+00
   115  1.1400000000000D+00 -6.1643216158321D-01  1.0290783458802D+00
   116  1.1500000000000D+00 -6.2729116321390D-01  1.0544022265890D+00
   117  1.1600000000000D+00 -6.3663410250621D-01  1.0789264617334D+00
   118  1.1700000000000D+00 -6.4446945277781D-01  1.1025844673650D+00
   119  1.1800000000000D+00 -6.5080949186602D-01  1.1253120367242D+00
   120  1.1900000000000D+00 -6.5567024274923D-01  1.1470474954870D+00
   121  1.2000000000000D+00 -6.5907140190787D-01  1.1677318463404D+00
   122  1.2100000000000D+00 -6.6103625564581D-01  1.1873089027370D+00
   123  1.2200000000000D+00 -6.6159158463272D-01  1.2057254117333D+00
   124  1.2300000000000D+00 -6.6076755699437D-01  1.2229311659162D+00
   125  1.2400000000000D+00 -6.5859761031988D-01  1.2388791044835D+00
   126  1.2500000000000D+00 -6.5511832297434D-01  1.2535254035743D+00
   127  1.2600000000000D+00 -6.5036927519069D-01  1.2668295560762D+00
   128  1.2700000000000D+00 -6.4439290043677D-01  1.2787544411771D+00
   129  1.2800000000000D+00 -6.3723432757326D-01  1.2892663839577D+00
   130  1.2900000000000D+00 -6.2894121439344D-01  1.2983352054478D+00
   131  1.3000000000000D+00 -6.1956357315539D-01  1.3059342636106D+00
   132  1.3100000000000D+00 -6.0915358872440D-01  1.3120404857259D+00
   133  1.3200000000000D+00 -5.9776543001743D-01  1.3166343927841D+00
   134  1.3300000000000D+00 -5.8545505544120D-01  1.3197001165118D+00
   135  1.3400000000000D+00 -5.7228001302696D-01  1.3212254096629D+00
   136  1.3500000000000D+00 -5.5829923602290D-01  1.3212016503445D+00
   137  1.3600000000000D+00 -5.4357283468402D-01  1.3196238411100D+00
   138  1.3700000000000D+00 -5.2816188503063D-01  1.3164906036095D+00
   139  1.3800000000000D+00 -5.1212821535703D-01  1.3118041696635D+00
   140  1.3900000000000D+00 -4.9553419126497D-01  1.3055703695786D+00
   141  1.4000000000000D+00 -4.7844250001660D-01  1.2977986186202D+00
   142  1.4100000000000D+00 -4.6091593497412D-01  1.2885019025345D+00
   143  1.4200000000000D+00 -4.4301718092554D-01  1.2776967630326D+00
   144  1.4300000000000D+00 -4.2480860103811D-01  1.2654032841778D+00
   145  1.4400000000000D+00 -4.0635202621541D-01  1.2516450805935D+00
   146  1.4500000000000D+00 -3.8770854759428D-01  1.2364492884415D+00
   147  1.4600000000000D+00 -3.6893831287120D-01  1.2198465600683D+00
   148  1.4700000000000D+00 -3.5010032722057D-01  1.2018710632835D+00
   149  1.4800000000000D+00 -3.3125225937361D-01  1.1825604861019D+00
   150  1.4900000000000D+00 -3.1245025361295D-01  1.1619560479122D+00
   151  1.5000000000000D+00 -2.9374874818656D-01  1.1401025178544D+00
   152  1.5100000000000D+00 -2.7520030077400D-01  1.1170482412737D+00
   153  1.5200000000000D+00 -2.5685542153819D-01  1.0928451750584D+00
   154  1.5300000000000D+00 -2.3876241418246D-01  1.0675489325324D+00
   155  1.5400000000000D+00 -2.2096722561811D-01  1.0412188387847D+00
   156  1.5500000000000D+00 -2.0351330441014D-01  1.0139179968456D+00
   157  1.5600000000000D+00 -1.8644146866891D-01  9.8571336566697D-01
   158  1.5700000000000D+00 -1.6978978335676D-01  9.5667585009138D-01
   159  1.5800000000000D+00 -1.5359344761109D-01  9.2688040370505D-01
   160  1.5900000000000D+00 -1.3788469144026D-01  8.9640615317821D-01
   161  1.6000000000000D+00 -1.2269268528016D-01  8.6533649762529D-01
   162  1.6100000000000D+00 -1.0804345160021D-01  8.3375934225423D-01
   163  1.6200000000000D+00 -9.3959809672368D-02  8.0176702485742D-01
   164  1.6300000000000D+00 -8.0461316997760D-02  7.6945641842149D-01
   165  1.6400000000000D+00 -6.7564127105340D-02  7.3693052551013D-01
   166  1.6500000000000D+00 -5.5281073518262D-02  7.0429679428500D-01
   167  1.6600000000000D+00 -4.3621886692018D-02  6.7166342284169D-01
   168  1.6700000000000D+00 -3.2593396293999D-02  6.3913664135787D-01
   169  1.6800000000000D+00 -2.2199847589082D-02  6.0681672629329D-01
   170  1.6900000000000D+00 -1.2443021183938D-02  5.7479720075742D-01
   171  1.7000000000000D+00 -3.3222415427358D-03  5.4316608353424D-01
   172  1.7100000000000D+00  5.1655178338395D-03  5.1200566232429D-01
   173  1.7200000000000D+00  1.3025530987593D-02  4.8139238580805D-01
   174  1.7300000000000D+00  2.0265221139254D-02  4.5139697719598D-01
   175  1.7400000000000D+00  2.6894050322064D-02  4.2208444876376D-01
   176  1.7500000000000D+00  3.2923406263176D-02  3.9351416874181D-01
   177  1.7600000000000D+00  3.8366483888938D-02  3.6573992758191D-01
   178  1.7700000000000D+00  4.3238162575604D-02  3.3881001325376D-01
   179  1.7800000000000D+00  4.7554879687362D-02  3.1276729541963D-01
   180  1.7900000000000D+00  5.1334501053788D-02  2.8764931835971D-01
   181  1.8000000000000D+00  5.4596188883466D-02  2.6348840239791D-01
   182  1.8100000000000D+00  5.7360267857718D-02  2.4031175389674D-01
   183  1.8200000000000D+00  5.9648089897065D-02  2.1814158344712D-01
   184  1.8300000000000D+00  6.1481898345288D-02  1.9699523253912D-01
   185  1.8400000000000D+00  6.2884692157265D-02  1.7688530828260D-01
   186  1.8500000000000D+00  6.3880090684970D-02  1.5781982648927D-01
   187  1.8600000000000D+00  6.4492199862279D-02  1.3980236288487D-01
   188  1.8700000000000D+00  6.4745480138897D-02  1.2283221245455D-01
   189  1.8800000000000D+00  6.4664617140895D-02  1.0690455713500D-01
   190  1.8900000000000D+00  6.4274395281535D-02  9.2010641424002D-02
   191  1.9000000000000D+00  6.3599575230390D-02  7.8137956340186D-02
   192  1.9100000000000D+00  6.2664775640279D-02  6.5270431355929D-02
   193  1.9200000000000D+00  6.1494359553648D-02  5.3388634051599D-02
   194  1.9300000000000D+00  6.0112326518799D-02  4.2469978295585D-02
   195  1.9400000000000D+00  5.8542209849866D-02  3.2488938607433D-02
   196  1.9500000000000D+00  5.6806980973405D-02  2.3417273657228D-02
   197  1.9600000000000D+00  5.4928959514792D-02  1.5224254592826D-02
   198  1.9700000000000D+00  5.2929731073933D-02  7.8769014050430D-03
   199  1.9800000000000D+00  5.0830071857025D-02  1.3402240372147D-03
   200  1.9900000000000D+00  4.8649880778165D-02 -4.4225316311912D-03
   201  2.0000000000000D+00  4.6408119840368D-02 -9.4496323452350D-03
   202  2.0100000000000D+00  4.4122761232275D-02 -1.3780605523817D-02
   203  2.0200000000000D+00  4.1810743758701D-02 -1.7455982259782D-02
   204  2.0300000000000D+00  3.9487935904929D-02 -2.0517042349305D-02
   205  2.0400000000000D+00  3.7169107625762D-02 -2.3005558577269D-02
   206  2.0500000000000D+00  3.4867909785015D-02 -2.4963543470073D-02
   207  2.0600000000000D+00  3.2596860718059D-02 -2.6433000700942D-02
   208  2.0700000000000D+00  3.0367341303532D-02 -2.7455681106608D-02
   209  2.0800000000000D+00  2.8189596035321D-02 -2.8072846423035D-02
   210  2.0900000000000D+00  2.6072741982979D-02 -2.8325042527187D-02
   211  2.1000000000000D+00  2.4024783883206D-02 -2.8251882914444D-02
   212  2.1100000000000D+00  2.2052635271336D-02 -2.7891844486091D-02
   213  2.1200000000000D+00  2.0162145946655D-02 -2.7282079811037D-02
   214  2.1300000000000D+00  1.8358134173886D-02 -2.6458240778419D-02
   215  2.1400000000000D+00  1.6644424200749D-02 -2.5454324524950D-02
   216  2.1500000000000D+00  1.5023888049253D-02 -2.4302534870172D-02
   217  2.1600000000000D+00  1.3498491213073D-02 -2.3033161580926D-02
   218  2.1700000000000D+00  1.2069341796012D-02 -2.1674486176565D-02
   219  2.1800000000000D+00  1.0736742787135D-02 -2.0252699818094D-02
   220  2.1900000000000D+00  9.5002465626693D-03 -1.8791849405728D-02
   221  2.2000000000000D+00  8.3587114513882D-03 -1.7313803349310D-02
   222  2.2100000000000D+00  7.3103602262327D-03 -1.5838232114015D-02
   223  2.2200000000000D+00  6.3528389882547D-03 -1.4382619276875D-02
   224  2.2300000000000D+00  5.4832774371079D-03 -1.2962283227814D-02
   225  2.2400000000000D+00  4.6983491558506D-03 -1.1590420194681D-02
   226  2.2500000000000D+00  3.9943314760809D-03 -1.0278167145976D-02
   227  2.2600000000000D+00  3.3671657233410D-03 -9.0346740927330D-03
   228  2.2700000000000D+00  2.8125158127193D-03 -7.8671955450847D-03
   229  2.2800000000000D+00  2.3258261112207D-03 -6.7811918128330D-03
   230  2.2900000000000D+00  1.9023783023031D-03 -5.7804396201843D-03
   231  2.3000000000000D+00  1.5373457639470D-03 -4.8671517884004D-03
   232  2.3100000000000D+00  1.2258467159701D-03 -4.0421031472720D-03
   233  2.3200000000000D+00  9.6299504661283D-04 -3.3047602665130D-03
   234  2.3300000000000D+00  7.4394839802765D-04 -2.6534112042060D-03
   235  2.3400000000000D+00  5.6395424016712D-04 -2.0853004557949D-03
   236  2.3500000000000D+00  4.1839271034172D-04 -1.5967577805336D-03
   237  2.3600000000000D+00  3.0281642268893D-04 -1.1833232634819D-03
   238  2.3700000000000D+00  2.1298766467320D-04 -8.3987585852411D-04
   239  2.3800000000000D+00  1.4491190819349D-04 -5.6072468912348D-04
   240  2.3900000000000D+00  9.4871151937429D-05 -3.3952649206738D-04
   241  2.4000000000000D+00  5.9432931075503D-05 -1.7038893679383D-04
   242  2.4100000000000D+00  3.5486132695979D-05 -4.7115143223329D-05
   243  2.4200000000000D+00  2.0260691761364D-05  3.6734269417541D-05
   244  2.4300000000000D+00  1.1423835734771D-05  9.1654259985342D-05
   245  2.4400000000000D+00  7.0055157251984D-06  1.2708258270378D-04
   246  2.4500000000000D+00  5.3034218891655D-06  1.4811682177986D-04
   247  2.4600000000000D+00  4.6694277547627D-06  1.4830966022967D-04
   248  2.4700000000000D+00  3.8602105816649D-06  1.2200789223541D-04
   249  2.4800000000000D+00  2.3882445724493D-06  7.3144368321223D-05
   250  2.4900000000000D+00  7.8154829033274D-07  2.3009756271931D-05
   251  2.5000000000000D+00 -2.6843416873927D-07 -8.5640961472812D-06
   252  2.5100000000000D+00 -4.5524627469126D-07 -1.4371731395410D-05
   253  2.5200000000000D+00 -2.1205141528818D-07 -6.6234874270830D-06
   254  2.5300000000000D+00  4.8761885178692D-08  1.7427100792327D-06
   255  2.5400000000000D+00  9.2827653790887D-08  3.3379744483570D-06
   256  2.5500000000000D+00  4.8455433123631D-08  1.7513304834552D-06
   257  2.5600000000000D+00 -5.6662825522464D-09 -1.7994688552492D-07
   258  2.5700000000000D+00 -1.2241433065040D-08 -3.8875713205343D-07
   259  2.5800000000000D+00 -7.2573304462483D-09 -2.3047456581738D-07
   260  2.5900000000000D+00  0.0000000000000D+00  0.0000000000000D+00
   261  2.6000000000000D+00  0.0000000000000D+00  0.0000000000000D+00
   262  2.6100000000000D+00  0.0000000000000D+00  0.0000000000000D+00
   263  2.6200000000000D+00  0.0000000000000D+00  0.0000000000000D+00
   264  2.6300000000000D+00  0.0000000000000D+00  0.0000000000000D+00
   265  2.6400000000000D+00  0.0000000000000D+00  0.0000000000000D+00
   266  2.6500000000000D+00  0.0000000000000D+00  0.0000000000000D+00
   267  2.6600000000000D+00  0.0000000000000D+00  0.0000000000000D+00
   268  2.6700000000000D+00  0.0000000000000D+00  0.0000000000000D+00
   269  2.6800000000000D+00  0.0000000000000D+00  0.0000000000000D+00
   270  2.6900000000000D+00  0.0000000000000D+00  0.0000000000000D+00
   271  2.7000000000000D+00  0.0000000000000D+00  0.0000000000000D+00
   272  2.7100000000000D+00  0.0000000000000D+00  0.0000000000000D+00
   273  2.7200000000000D+00  0.0000000000000D+00  0.0000000000000D+00
   274  2.7300000000000D+00  0.0000000000000D+00  0.0000000000000D+00
   275  2.7400000000000D+00  0.0000000000000D+00  0.0000000000000D+00
   276  2.7500000000000D+00  0.0000000000000D+00  0.0000000000000D+00
   277  2.7600000000000D+00  0.0000000000000D+00  0.0000000000000D+00
   278  2.7700000000000D+00  0.0000000000000D+00  0.0000000000000D+00
   279  2.7800000000000D+00  0.0000000000000D+00  0.0000000000000D+00
   280  2.7900000000000D+00  0.0000000000000D+00  0.0000000000000D+00
   281  2.8000000000000D+00  0.0000000000000D+00  0.0000000000000D+00
   282  2.8100000000000D+00  0.0000000000000D+00  0.0000000000000D+00
   283  2.8200000000000D+00  0.0000000000000D+00  0.0000000000000D+00
   284  2.8300000000000D+00  0.0000000000000D+00  0.0000000000000D+00
   285  2.8400000000000D+00  0.0000000000000D+00  0.0000000000000D+00
   286  2.8500000000000D+00  0.0000000000000D+00  0.0000000000000D+00
   287  2.8600000000000D+00  0.0000000000000D+00  0.0000000000000D+00
   288  2.8700000000000D+00  0.0000000000000D+00  0.0000000000000D+00
   289  2.8800000000000D+00  0.0000000000000D+00  0.0000000000000D+00
   290  2.8900000000000D+00  0.0000000000000D+00  0.0000000000000D+00
   291  2.9000000000000D+00  0.0000000000000D+00  0.0000000000000D+00
   292  2.9100000000000D+00  0.0000000000000D+00  0.0000000000000D+00
   293  2.9200000000000D+00  0.0000000000000D+00  0.0000000000000D+00
   294  2.9300000000000D+00  0.0000000000000D+00  0.0000000000000D+00
   295  2.9400000000000D+00  0.0000000000000D+00  0.0000000000000D+00
   296  2.9500000000000D+00  0.0000000000000D+00  0.0000000000000D+00
   297  2.9600000000000D+00  0.0000000000000D+00  0.0000000000000D+00
   298  2.9700000000000D+00  0.0000000000000D+00  0.0000000000000D+00
   299  2.9800000000000D+00  0.0000000000000D+00  0.0000000000000D+00
   300  2.9900000000000D+00  0.0000000000000D+00  0.0000000000000D+00
   301  3.0000000000000D+00  0.0000000000000D+00  0.0000000000000D+00
   302  3.0100000000000D+00  0.0000000000000D+00  0.0000000000000D+00
   303  3.0200000000000D+00  0.0000000000000D+00  0.0000000000000D+00
   304  3.0300000000000D+00  0.0000000000000D+00  0.0000000000000D+00
   305  3.0400000000000D+00  0.0000000000000D+00  0.0000000000000D+00
   306  3.0500000000000D+00  0.0000000000000D+00  0.0000000000000D+00
   307  3.0600000000000D+00  0.0000000000000D+00  0.0000000000000D+00
   308  3.0700000000000D+00  0.0000000000000D+00  0.0000000000000D+00
   309  3.0800000000000D+00  0.0000000000000D+00  0.0000000000000D+00
   310  3.0900000000000D+00  0.0000000000000D+00  0.0000000000000D+00
   311  3.1000000000000D+00  0.0000000000000D+00  0.0000000000000D+00
   312  3.1100000000000D+00  0.0000000000000D+00  0.0000000000000D+00
   313  3.1200000000000D+00  0.0000000000000D+00  0.0000000000000D+00
   314  3.1300000000000D+00  0.0000000000000D+00  0.0000000000000D+00
   315  3.1400000000000D+00  0.0000000000000D+00  0.0000000000000D+00
   316  3.1500000000000D+00  0.0000000000000D+00  0.0000000000000D+00
   317  3.1600000000000D+00  0.0000000000000D+00  0.0000000000000D+00
   318  3.1700000000000D+00  0.0000000000000D+00  0.0000000000000D+00
   319  3.1800000000000D+00  0.0000000000000D+00  0.0000000000000D+00
   320  3.1900000000000D+00  0.0000000000000D+00  0.0000000000000D+00
   321  3.2000000000000D+00  0.0000000000000D+00  0.0000000000000D+00
   322  3.2100000000000D+00  0.0000000000000D+00  0.0000000000000D+00
   323  3.2200000000000D+00  0.0000000000000D+00  0.0000000000000D+00
   324  3.2300000000000D+00  0.0000000000000D+00  0.0000000000000D+00
   325  3.2400000000000D+00  0.0000000000000D+00  0.0000000000000D+00
   326  3.2500000000000D+00  0.0000000000000D+00  0.0000000000000D+00
   327  3.2600000000000D+00  0.0000000000000D+00  0.0000000000000D+00
   328  3.2700000000000D+00  0.0000000000000D+00  0.0000000000000D+00
   329  3.2800000000000D+00  0.0000000000000D+00  0.0000000000000D+00
   330  3.2900000000000D+00  0.0000000000000D+00  0.0000000000000D+00
   331  3.3000000000000D+00  0.0000000000000D+00  0.0000000000000D+00
   332  3.3100000000000D+00  0.0000000000000D+00  0.0000000000000D+00
   333  3.3200000000000D+00  0.0000000000000D+00  0.0000000000000D+00
   334  3.3300000000000D+00  0.0000000000000D+00  0.0000000000000D+00
   335  3.3400000000000D+00  0.0000000000000D+00  0.0000000000000D+00
   336  3.3500000000000D+00  0.0000000000000D+00  0.0000000000000D+00
   337  3.3600000000000D+00  0.0000000000000D+00  0.0000000000000D+00
   338  3.3700000000000D+00  0.0000000000000D+00  0.0000000000000D+00
   339  3.3800000000000D+00  0.0000000000000D+00  0.0000000000000D+00
   340  3.3900000000000D+00  0.0000000000000D+00  0.0000000000000D+00
   341  3.4000000000000D+00  0.0000000000000D+00  0.0000000000000D+00
   342  3.4100000000000D+00  0.0000000000000D+00  0.0000000000000D+00
   343  3.4200000000000D+00  0.0000000000000D+00  0.0000000000000D+00
   344  3.4300000000000D+00  0.0000000000000D+00  0.0000000000000D+00
   345  3.4400000000000D+00  0.0000000000000D+00  0.0000000000000D+00
   346  3.4500000000000D+00  0.0000000000000D+00  0.0000000000000D+00
   347  3.4600000000000D+00  0.0000000000000D+00  0.0000000000000D+00
   348  3.4700000000000D+00  0.0000000000000D+00  0.0000000000000D+00
   349  3.4800000000000D+00  0.0000000000000D+00  0.0000000000000D+00
   350  3.4900000000000D+00  0.0000000000000D+00  0.0000000000000D+00
   351  3.5000000000000D+00  0.0000000000000D+00  0.0000000000000D+00
   352  3.5100000000000D+00  0.0000000000000D+00  0.0000000000000D+00
   353  3.5200000000000D+00  0.0000000000000D+00  0.0000000000000D+00
   354  3.5300000000000D+00  0.0000000000000D+00  0.0000000000000D+00
   355  3.5400000000000D+00  0.0000000000000D+00  0.0000000000000D+00
   356  3.5500000000000D+00  0.0000000000000D+00  0.0000000000000D+00
   357  3.5600000000000D+00  0.0000000000000D+00  0.0000000000000D+00
   358  3.5700000000000D+00  0.0000000000000D+00  0.0000000000000D+00
   359  3.5800000000000D+00  0.0000000000000D+00  0.0000000000000D+00
   360  3.5900000000000D+00  0.0000000000000D+00  0.0000000000000D+00
   361  3.6000000000000D+00  0.0000000000000D+00  0.0000000000000D+00
   362  3.6100000000000D+00  0.0000000000000D+00  0.0000000000000D+00
   363  3.6200000000000D+00  0.0000000000000D+00  0.0000000000000D+00
   364  3.6300000000000D+00  0.0000000000000D+00  0.0000000000000D+00
   365  3.6400000000000D+00  0.0000000000000D+00  0.0000000000000D+00
   366  3.6500000000000D+00  0.0000000000000D+00  0.0000000000000D+00
   367  3.6600000000000D+00  0.0000000000000D+00  0.0000000000000D+00
   368  3.6700000000000D+00  0.0000000000000D+00  0.0000000000000D+00
   369  3.6800000000000D+00  0.0000000000000D+00  0.0000000000000D+00
   370  3.6900000000000D+00  0.0000000000000D+00  0.0000000000000D+00
   371  3.7000000000000D+00  0.0000000000000D+00  0.0000000000000D+00
   372  3.7100000000000D+00  0.0000000000000D+00  0.0000000000000D+00
   373  3.7200000000000D+00  0.0000000000000D+00  0.0000000000000D+00
   374  3.7300000000000D+00  0.0000000000000D+00  0.0000000000000D+00
   375  3.7400000000000D+00  0.0000000000000D+00  0.0000000000000D+00
   376  3.7500000000000D+00  0.0000000000000D+00  0.0000000000000D+00
   377  3.7600000000000D+00  0.0000000000000D+00  0.0000000000000D+00
   378  3.7700000000000D+00  0.0000000000000D+00  0.0000000000000D+00
   379  3.7800000000000D+00  0.0000000000000D+00  0.0000000000000D+00
   380  3.7900000000000D+00  0.0000000000000D+00  0.0000000000000D+00
   381  3.8000000000000D+00  0.0000000000000D+00  0.0000000000000D+00
   382  3.8100000000000D+00  0.0000000000000D+00  0.0000000000000D+00
   383  3.8200000000000D+00  0.0000000000000D+00  0.0000000000000D+00
   384  3.8300000000000D+00  0.0000000000000D+00  0.0000000000000D+00
   385  3.8400000000000D+00  0.0000000000000D+00  0.0000000000000D+00
   386  3.8500000000000D+00  0.0000000000000D+00  0.0000000000000D+00
   387  3.8600000000000D+00  0.0000000000000D+00  0.0000000000000D+00
   388  3.8700000000000D+00  0.0000000000000D+00  0.0000000000000D+00
   389  3.8800000000000D+00  0.0000000000000D+00  0.0000000000000D+00
   390  3.8900000000000D+00  0.0000000000000D+00  0.0000000000000D+00
   391  3.9000000000000D+00  0.0000000000000D+00  0.0000000000000D+00
   392  3.9100000000000D+00  0.0000000000000D+00  0.0000000000000D+00
   393  3.9200000000000D+00  0.0000000000000D+00  0.0000000000000D+00
   394  3.9300000000000D+00  0.0000000000000D+00  0.0000000000000D+00
   395  3.9400000000000D+00  0.0000000000000D+00  0.0000000000000D+00
   396  3.9500000000000D+00  0.0000000000000D+00  0.0000000000000D+00
   397  3.9600000000000D+00  0.0000000000000D+00  0.0000000000000D+00
   398  3.9700000000000D+00  0.0000000000000D+00  0.0000000000000D+00
   399  3.9800000000000D+00  0.0000000000000D+00  0.0000000000000D+00
   400  3.9900000000000D+00  0.0000000000000D+00  0.0000000000000D+00
   401  4.0000000000000D+00  0.0000000000000D+00  0.0000000000000D+00
   402  4.0100000000000D+00  0.0000000000000D+00  0.0000000000000D+00
   403  4.0200000000000D+00  0.0000000000000D+00  0.0000000000000D+00
   404  4.0300000000000D+00  0.0000000000000D+00  0.0000000000000D+00
   405  4.0400000000000D+00  0.0000000000000D+00  0.0000000000000D+00
   406  4.0500000000000D+00  0.0000000000000D+00  0.0000000000000D+00
   407  4.0600000000000D+00  0.0000000000000D+00  0.0000000000000D+00
   408  4.0700000000000D+00  0.0000000000000D+00  0.0000000000000D+00
   409  4.0800000000000D+00  0.0000000000000D+00  0.0000000000000D+00
   410  4.0900000000000D+00  0.0000000000000D+00  0.0000000000000D+00
   411  4.1000000000000D+00  0.0000000000000D+00  0.0000000000000D+00
   412  4.1100000000000D+00  0.0000000000000D+00  0.0000000000000D+00
   413  4.1200000000000D+00  0.0000000000000D+00  0.0000000000000D+00
   414  4.1300000000000D+00  0.0000000000000D+00  0.0000000000000D+00
   415  4.1400000000000D+00  0.0000000000000D+00  0.0000000000000D+00
   416  4.1500000000000D+00  0.0000000000000D+00  0.0000000000000D+00
   417  4.1600000000000D+00  0.0000000000000D+00  0.0000000000000D+00
   418  4.1700000000000D+00  0.0000000000000D+00  0.0000000000000D+00
   419  4.1800000000000D+00  0.0000000000000D+00  0.0000000000000D+00
   420  4.1900000000000D+00  0.0000000000000D+00  0.0000000000000D+00
   421  4.2000000000000D+00  0.0000000000000D+00  0.0000000000000D+00
   422  4.2100000000000D+00  0.0000000000000D+00  0.0000000000000D+00