Tl    ONCVPSP-3.3.1  r_core=   3.35206   3.68771   3.15798   3.35206
     81.0000     13.0000      210905    zatom,zion,pspd
     8 -116133   3     4   600     0    pspcod,pspxc,lmax,lloc,mmax,r2well
  5.99000000  0.00000000  0.00000000    rchrg fchrg qchrg
     2     2     2     2     0    nproj
     1     1           extension_switch
   0                         2.9584145554604D+00  2.8998640528385D-01
     1  0.0000000000000D+00  5.9331706214749D-13 -2.6910140782377D-12
     2  1.0000000000000D-02  1.3176775387545D-02  3.6184207956062D-02
     3  2.0000000000000D-02  2.6360905516130D-02  7.2297988773369D-02
     4  3.0000000000000D-02  3.9559716055898D-02  1.0827106358533D-01
     5  4.0000000000000D-02  5.2780474603752D-02  1.4403344975407D-01
     6  5.0000000000000D-02  6.6030361818009D-02  1.7951560819654D-01
     7  6.0000000000000D-02  7.9316442758141D-02  2.1464858976642D-01
     8  7.0000000000000D-02  9.2645638497298D-02  2.4936418038046D-01
     9  8.0000000000000D-02  1.0602469807468D-01  2.8359504458024D-01
    10  9.0000000000000D-02  1.1946017085410D-01  3.1727486722385D-01
    11  1.0000000000000D-01  1.3295837935423D-01  3.5033849300582D-01
    12  1.1000000000000D-01  1.4652539261487D-01  3.8272206350854D-01
    13  1.2000000000000D-01  1.6016700016267D-01  4.1436315149331D-01
    14  1.3000000000000D-01  1.7388868663806D-01  4.4520089214529D-01
    15  1.4000000000000D-01  1.8769560714415D-01  4.7517611099310D-01
    16  1.5000000000000D-01  2.0159256337632D-01  5.0423144823080D-01
    17  1.6000000000000D-01  2.1558398058990D-01  5.3231147917770D-01
    18  1.7000000000000D-01  2.2967388546138D-01  5.5936283061981D-01
    19  1.8000000000000D-01  2.4386588489652D-01  5.8533429278528D-01
    20  1.9000000000000D-01  2.5816314583685D-01  6.1017692671584D-01
    21  2.0000000000000D-01  2.7256837611379D-01  6.3384416680568D-01
    22  2.1000000000000D-01  2.8708380639735D-01  6.5629191828993D-01
    23  2.2000000000000D-01  3.0171117328393D-01  6.7747864947540D-01
    24  2.3000000000000D-01  3.1645170356530D-01  6.9736547851767D-01
    25  2.4000000000000D-01  3.3130609971824D-01  7.1591625456013D-01
    26  2.5000000000000D-01  3.4627452665174D-01  7.3309763306275D-01
    27  2.6000000000000D-01  3.6135659974563D-01  7.4887914516076D-01
    28  2.7000000000000D-01  3.7655137421200D-01  7.6323326090621D-01
    29  2.8000000000000D-01  3.9185733580776D-01  7.7613544625837D-01
    30  2.9000000000000D-01  4.0727239292355D-01  7.8756421370262D-01
    31  3.0000000000000D-01  4.2279387007139D-01  7.9750116639075D-01
    32  3.1000000000000D-01  4.3841850279041D-01  8.0593103570982D-01
    33  3.2000000000000D-01  4.5414243398660D-01  8.1284171220063D-01
    34  3.3000000000000D-01  4.6996121171966D-01  8.1822426976128D-01
    35  3.4000000000000D-01  4.8586978844665D-01  8.2207298308552D-01
    36  3.5000000000000D-01  5.0186252172902D-01  8.2438533830039D-01
    37  3.6000000000000D-01  5.1793317640625D-01  8.2516203678211D-01
    38  3.7000000000000D-01  5.3407492823618D-01  8.2440699214376D-01
    39  3.8000000000000D-01  5.5028036899885D-01  8.2212732040334D-01
    40  3.9000000000000D-01  5.6654151305723D-01  8.1833332335510D-01
    41  4.0000000000000D-01  5.8284980536530D-01  8.1303846518191D-01
    42  4.1000000000000D-01  5.9919613091044D-01  8.0625934236097D-01
    43  4.2000000000000D-01  6.1557082557394D-01  7.9801564692954D-01
    44  4.3000000000000D-01  6.3196368839036D-01  7.8833012319187D-01
    45  4.4000000000000D-01  6.4836399518322D-01  7.7722851796246D-01
    46  4.5000000000000D-01  6.6476051355151D-01  7.6473952445501D-01
    47  4.6000000000000D-01  6.8114151917832D-01  7.5089471993989D-01
    48  4.7000000000000D-01  6.9749481343002D-01  7.3572849730660D-01
    49  4.8000000000000D-01  7.1380774221152D-01  7.1927799068088D-01
    50  4.9000000000000D-01  7.3006721604017D-01  7.0158299525892D-01
    51  5.0000000000000D-01  7.4625973129813D-01  6.8268588153371D-01
    52  5.1000000000000D-01  7.6237139262040D-01  6.6263150410067D-01
    53  5.2000000000000D-01  7.7838793637309D-01  6.4146710524164D-01
    54  5.3000000000000D-01  7.9429475517383D-01  6.1924221349714D-01
    55  5.4000000000000D-01  8.1007692340418D-01  5.9600853744847D-01
    56  5.5000000000000D-01  8.2571922366108D-01  5.7181985494076D-01
    57  5.6000000000000D-01  8.4120617409275D-01  5.4673189798858D-01
    58  5.7000000000000D-01  8.5652205656192D-01  5.2080223361493D-01
    59  5.8000000000000D-01  8.7165094557757D-01  4.9409014088297D-01
    60  5.9000000000000D-01  8.8657673793446D-01  4.6665648438864D-01
    61  6.0000000000000D-01  9.0128318299802D-01  4.3856358448948D-01
    62  6.1000000000000D-01  9.1575391357059D-01  4.0987508455235D-01
    63  6.2000000000000D-01  9.2997247727370D-01  3.8065581550905D-01
    64  6.3000000000000D-01  9.4392236837957D-01  3.5097165801483D-01
    65  6.4000000000000D-01  9.5758706002411D-01  3.2088940250967D-01
    66  6.5000000000000D-01  9.7095003673251D-01  2.9047660748705D-01
    67  6.6000000000000D-01  9.8399482718782D-01  2.5980145627844D-01
    68  6.7000000000000D-01  9.9670503717216D-01  2.2893261266520D-01
    69  6.8000000000000D-01  1.0090643826095D+00  1.9793907563191D-01
    70  6.9000000000000D-01  1.0210567226391D+00  1.6689003357677D-01
    71  7.0000000000000D-01  1.0326660926477D+00  1.3585471829612D-01
    72  7.1000000000000D-01  1.0438767371889D+00  1.0490225906021D-01
    73  7.2000000000000D-01  1.0546731427189D+00  7.4101537097127D-02
    74  7.3000000000000D-01  1.0650400700764D+00  4.3521040800722D-02
    75  7.4000000000000D-01  1.0749625866367D+00  1.3228721976684D-02
    76  7.5000000000000D-01  1.0844260980686D+00 -1.6708146561698D-02
    77  7.6000000000000D-01  1.0934163796266D+00 -4.6223111739539D-02
    78  7.7000000000000D-01  1.1019196069068D+00 -7.5250679003494D-02
    79  7.8000000000000D-01  1.1099223860018D+00 -1.0372644884191D-01
    80  7.9000000000000D-01  1.1174117829862D+00 -1.3158725074719D-01
    81  8.0000000000000D-01  1.1243753526684D+00 -1.5877127433111D-01
    82  8.1000000000000D-01  1.1308011665443D+00 -1.8521819731094D-01
    83  8.2000000000000D-01  1.1366778398922D+00 -2.1086931009060D-01
    84  8.3000000000000D-01  1.1419945579474D+00 -2.3566763666965D-01
    85  8.4000000000000D-01  1.1467411010982D+00 -2.5955805162074D-01
    86  8.5000000000000D-01  1.1509078690476D+00 -2.8248739288534D-01
    87  8.6000000000000D-01  1.1544859038864D+00 -3.0440457014724D-01
    88  8.7000000000000D-01  1.1574669120251D+00 -3.2526066855297D-01
    89  8.8000000000000D-01  1.1598432849358D+00 -3.4500904755957D-01
    90  8.9000000000000D-01  1.1616081186566D+00 -3.6360543470062D-01
    91  9.0000000000000D-01  1.1627552320149D+00 -3.8100801407327D-01
    92  9.1000000000000D-01  1.1632791835267D+00 -3.9717750936132D-01
    93  9.2000000000000D-01  1.1631752869341D+00 -4.1207726122134D-01
    94  9.3000000000000D-01  1.1624396253452D+00 -4.2567329887211D-01
    95  9.4000000000000D-01  1.1610690639421D+00 -4.3793440574070D-01
    96  9.5000000000000D-01  1.1590612612290D+00 -4.4883217903204D-01
    97  9.6000000000000D-01  1.1564146787919D+00 -4.5834108310276D-01
    98  9.7000000000000D-01  1.1531285895482D+00 -4.6643849653412D-01
    99  9.8000000000000D-01  1.1492030844642D+00 -4.7310475281335D-01
   100  9.9000000000000D-01  1.1446390777248D+00 -4.7832317454722D-01
   101  1.0000000000000D+00  1.1394383103413D+00 -4.8208010114626D-01
   102  1.0100000000000D+00  1.1336033521871D+00 -4.8436490993306D-01
   103  1.0200000000000D+00  1.1271376024549D+00 -4.8517003064322D-01
   104  1.0300000000000D+00  1.1200452885311D+00 -4.8449095330213D-01
   105  1.0400000000000D+00  1.1123314632891D+00 -4.8232622947625D-01
   106  1.0500000000000D+00  1.1040020008030D+00 -4.7867746691249D-01
   107  1.0600000000000D+00  1.0950635904904D+00 -4.7354931759419D-01
   108  1.0700000000000D+00  1.0855237296938D+00 -4.6694945925702D-01
   109  1.0800000000000D+00  1.0753907147142D+00 -4.5888857042352D-01
   110  1.0900000000000D+00  1.0646736303145D+00 -4.4938029902918D-01
   111  1.1000000000000D+00  1.0533823377136D+00 -4.3844122472800D-01
   112  1.1100000000000D+00  1.0415274610934D+00 -4.2609081497841D-01
   113  1.1200000000000D+00  1.0291203726472D+00 -4.1235137502628D-01
   114  1.1300000000000D+00  1.0161731761994D+00 -3.9724799191428D-01
   115  1.1400000000000D+00  1.0026986894286D+00 -3.8080847266125D-01
   116  1.1500000000000D+00  9.8871042473255D-01 -3.6306327676671D-01
   117  1.1600000000000D+00  9.7422256877147D-01 -3.4404544320973D-01
   118  1.1700000000000D+00  9.5924996073435D-01 -3.2379051212344D-01
   119  1.1800000000000D+00  9.4380806937171D-01 -3.0233644133893D-01
   120  1.1900000000000D+00  9.2791296884246D-01 -2.7972351800063D-01
   121  1.2000000000000D+00  9.1158131342519D-01 -2.5599426547012D-01
   122  1.2100000000000D+00  8.9483031114639D-01 -2.3119334574392D-01
   123  1.2200000000000D+00  8.7767769638036D-01 -2.0536745761992D-01
   124  1.2300000000000D+00  8.6014170147741D-01 -1.7856523085631D-01
   125  1.2400000000000D+00  8.4224102748011D-01 -1.5083711657760D-01
   126  1.2500000000000D+00  8.2399481398817D-01 -1.2223527418895D-01
   127  1.2600000000000D+00  8.0542260823443D-01 -9.2813455064603D-02
   128  1.2700000000000D+00  7.8654433343687D-01 -6.2626883288822D-02
   129  1.2800000000000D+00  7.6738025649235D-01 -3.1732133729786D-02
   130  1.2900000000000D+00  7.4795095507883D-01 -1.8700773062592D-04
   131  1.3000000000000D+00  7.2827728423506D-01  3.1949593287966D-02
   132  1.3100000000000D+00  7.0838034248687D-01  6.4617796019882D-02
   133  1.3200000000000D+00  6.8828143759001D-01  9.7756884963131D-02
   134  1.3300000000000D+00  6.6800205196099D-01  1.3130543330378D-01
   135  1.3400000000000D+00  6.4756380786698D-01  1.6520143469364D-01
   136  1.3500000000000D+00  6.2698843244677D-01  1.9938243561691D-01
   137  1.3600000000000D+00  6.0629772263475D-01  2.3378566804259D-01
   138  1.3700000000000D+00  5.8551351005985D-01  2.6834818205922D-01
   139  1.3800000000000D+00  5.6465762599180D-01  3.0300697818812D-01
   140  1.3900000000000D+00  5.4375186640533D-01  3.3769913907944D-01
   141  1.4000000000000D+00  5.2281795723481D-01  3.7236196028621D-01
   142  1.4100000000000D+00  5.0187751988863D-01  4.0693307982915D-01
   143  1.4200000000000D+00  4.8095203709332D-01  4.4135060625934D-01
   144  1.4300000000000D+00  4.6006281913735D-01  4.7555324492869D-01
   145  1.4400000000000D+00  4.3923097057927D-01  5.0948042220214D-01
   146  1.4500000000000D+00  4.1847735749095D-01  5.4307240731700D-01
   147  1.4600000000000D+00  3.9782257529630D-01  5.7627043164431D-01
   148  1.4700000000000D+00  3.7728691727201D-01  6.0901680507763D-01
   149  1.4800000000000D+00  3.5689034377140D-01  6.4125502930086D-01
   150  1.4900000000000D+00  3.3665245222854D-01  6.7292990770469D-01
   151  1.5000000000000D+00  3.1659244800663D-01  7.0398765168935D-01
   152  1.5100000000000D+00  2.9672911613700D-01  7.3437598317363D-01
   153  1.5200000000000D+00  2.7708079401365D-01  7.6404423304396D-01
   154  1.5300000000000D+00  2.5766534508299D-01  7.9294343539316D-01
   155  1.5400000000000D+00  2.3850013358677D-01  8.2102641731545D-01
   156  1.5500000000000D+00  2.1960200039864D-01  8.4824788410362D-01
   157  1.5600000000000D+00  2.0098723999894D-01  8.7456449967485D-01
   158  1.5700000000000D+00  1.8267157863212D-01  8.9993496205436D-01
   159  1.5800000000000D+00  1.6467015367569D-01  9.2432007381319D-01
   160  1.5900000000000D+00  1.4699749426980D-01  9.4768280726864D-01
   161  1.6000000000000D+00  1.2966750321981D-01  9.6998836441787D-01
   162  1.6100000000000D+00  1.1269344022551D-01  9.9120423139208D-01
   163  1.6200000000000D+00  9.6087906432788D-02  1.0113002274762D+00
   164  1.6300000000000D+00  7.9862830364428D-02  1.0302485484681D+00
   165  1.6400000000000D+00  6.4029455212946D-02  1.0480238044781D+00
   166  1.6500000000000D+00  4.8598327548514D-02  1.0646030519605D+00
   167  1.6600000000000D+00  3.3579287418412D-02  1.0799658201049D+00
   168  1.6700000000000D+00  1.8981459883566D-02  1.0940941314125D+00
   169  1.6800000000000D+00  4.8132479628316D-03  1.1069725166093D+00
   170  1.6900000000000D+00 -8.9176729760371D-03  1.1185880237530D+00
   171  1.7000000000000D+00 -2.2204359415380D-02  1.1289302217129D+00
   172  1.7100000000000D+00 -3.5040602442349D-02  1.1379911979027D+00
   173  1.7200000000000D+00 -4.7420929105354D-02  1.1457655504863D+00
   174  1.7300000000000D+00 -5.9340602340240D-02  1.1522503749432D+00
   175  1.7400000000000D+00 -7.0795619523967D-02  1.1574452452657D+00
   176  1.7500000000000D+00 -8.1782709623196D-02  1.1613521896728D+00
   177  1.7600000000000D+00 -9.2299329009691D-02  1.1639756611692D+00
   178  1.7700000000000D+00 -1.0234365590710D-01  1.1653225028267D+00
   179  1.7800000000000D+00 -1.1191458355535D-01  1.1654019081719D+00
   180  1.7900000000000D+00 -1.2101171205689D-01  1.1642253765607D+00
   181  1.8000000000000D+00 -1.2963533899716D-01  1.1618066639439D+00
   182  1.8100000000000D+00 -1.3778644881531D-01  1.1581617289563D+00
   183  1.8200000000000D+00 -1.4546670101006D-01  1.1533086747008D+00
   184  1.8300000000000D+00 -1.5267841717828D-01  1.1472676862498D+00
   185  1.8400000000000D+00 -1.5942456695662D-01  1.1400609641724D+00
   186  1.8500000000000D+00 -1.6570875288972D-01  1.1317126542167D+00
   187  1.8600000000000D+00 -1.7153519427630D-01  1.1222487733786D+00
   188  1.8700000000000D+00 -1.7690871004497D-01  1.1116971325966D+00
   189  1.8800000000000D+00 -1.8183470069053D-01  1.1000872562259D+00
   190  1.8900000000000D+00 -1.8631912934885D-01  1.0874502986263D+00
   191  1.9000000000000D+00 -1.9036850202511D-01  1.0738189579663D+00
   192  1.9100000000000D+00 -1.9398984706895D-01  1.0592273876197D+00
   193  1.9200000000000D+00 -1.9719069391122D-01  1.0437111052726D+00
   194  1.9300000000000D+00 -1.9997905114925D-01  1.0273069000795D+00
   195  1.9400000000000D+00 -2.0236338401643D-01  1.0100527380649D+00
   196  1.9500000000000D+00 -2.0435259130109D-01  9.9198766603604D-01
   197  1.9600000000000D+00 -2.0595598177357D-01  9.7315171426497D-01
   198  1.9700000000000D+00 -2.0718325017261D-01  9.5358579818595D-01
   199  1.9800000000000D+00 -2.0804445281667D-01  9.3333161934425D-01
   200  1.9900000000000D+00 -2.0854998289517D-01  9.1243156589990D-01
   201  2.0000000000000D+00 -2.0871054549553D-01  8.9092861285349D-01
   202  2.0100000000000D+00 -2.0853713243197D-01  8.6886622233300D-01
   203  2.0200000000000D+00 -2.0804099692671D-01  8.4628824412306D-01
   204  2.0300000000000D+00 -2.0723362820104D-01  8.2323881667399D-01
   205  2.0400000000000D+00 -2.0612672604853D-01  7.9976226893412D-01
   206  2.0500000000000D+00 -2.0473217541318D-01  7.7590302302071D-01
   207  2.0600000000000D+00 -2.0306202107550D-01  7.5170549824919D-01
   208  2.0700000000000D+00 -2.0112844245463D-01  7.2721401646538D-01
   209  2.0800000000000D+00 -1.9894372860602D-01  7.0247270904732D-01
   210  2.0900000000000D+00 -1.9652025347875D-01  6.7752542584889D-01
   211  2.1000000000000D+00 -1.9387045142392D-01  6.5241564596277D-01
   212  2.1100000000000D+00 -1.9100679310104D-01  6.2718639101798D-01
   213  2.1200000000000D+00 -1.8794176172860D-01  6.0188014065782D-01
   214  2.1300000000000D+00 -1.8468782978799D-01  5.7653875070351D-01
   215  2.1400000000000D+00 -1.8125743623151D-01  5.5120337420115D-01
   216  2.1500000000000D+00 -1.7766296415017D-01  5.2591438506797D-01
   217  2.1600000000000D+00 -1.7391671908571D-01  5.0071130520882D-01
   218  2.1700000000000D+00 -1.7003090788410D-01  4.7563273453258D-01
   219  2.1800000000000D+00 -1.6601761819740D-01  4.5071628434545D-01
   220  2.1900000000000D+00 -1.6188879870174D-01  4.2599851439865D-01
   221  2.2000000000000D+00 -1.5765623993493D-01  4.0151487307064D-01
   222  2.2100000000000D+00 -1.5333155595160D-01  3.7729964158866D-01
   223  2.2200000000000D+00 -1.4892616670001D-01  3.5338588177948D-01
   224  2.2300000000000D+00 -1.4445128114569D-01  3.2980538742174D-01
   225  2.2400000000000D+00 -1.3991788129353D-01  3.0658863986857D-01
   226  2.2500000000000D+00 -1.3533670693819D-01  2.8376476709312D-01
   227  2.2600000000000D+00 -1.3071824130494D-01  2.6136150686742D-01
   228  2.2700000000000D+00 -1.2607269757808D-01  2.3940517401398D-01
   229  2.2800000000000D+00 -1.2141000619381D-01  2.1792063111919D-01
   230  2.2900000000000D+00 -1.1673980313100D-01  1.9693126372890D-01
   231  2.3000000000000D+00 -1.1207141903101D-01  1.7645895921233D-01
   232  2.3100000000000D+00 -1.0741386915521D-01  1.5652408929272D-01
   233  2.3200000000000D+00 -1.0277584435381D-01  1.3714549697251D-01
   234  2.3300000000000D+00 -9.8165702820138D-02  1.1834048680581D-01
   235  2.3400000000000D+00 -9.3591462754555D-02  1.0012481902174D-01
   236  2.3500000000000D+00 -8.9060795976336D-02  8.2512707617763D-02
   237  2.3600000000000D+00 -8.4581022303440D-02  6.5516821602235D-02
   238  2.3700000000000D+00 -8.0159104870186D-02  4.9148290065818D-02
   239  2.3800000000000D+00 -7.5801646311561D-02  3.3416710730629D-02
   240  2.3900000000000D+00 -7.1514885687111D-02  1.8330161407763D-02
   241  2.4000000000000D+00 -6.7304696337461D-02  3.8952151040297D-03
   242  2.4100000000000D+00 -6.3176584515115D-02 -9.8830419184535D-03
   243  2.4200000000000D+00 -5.9135688714982D-02 -2.3000989461710D-02
   244  2.4300000000000D+00 -5.5186779899090D-02 -3.5456449393901D-02
   245  2.4400000000000D+00 -5.1334262390484D-02 -4.7248659254638D-02
   246  2.4500000000000D+00 -4.7582175438061D-02 -5.8378243491702D-02
   247  2.4600000000000D+00 -4.3934195572727D-02 -6.8847181969655D-02
   248  2.4700000000000D+00 -4.0393639556409D-02 -7.8658776510211D-02
   249  2.4800000000000D+00 -3.6963467942510D-02 -8.7817615444896D-02
   250  2.4900000000000D+00 -3.3646289309424D-02 -9.6329536079659D-02
   251  2.5000000000000D+00 -3.0444365011792D-02 -1.0420158560763D-01
   252  2.5100000000000D+00 -2.7359614462096D-02 -1.1144198049559D-01
   253  2.5200000000000D+00 -2.4393620962595D-02 -1.1806006443092D-01
   254  2.5300000000000D+00 -2.1547637975206D-02 -1.2406626514212D-01
   255  2.5400000000000D+00 -1.8822595828178D-02 -1.2947205018874D-01
   256  2.5500000000000D+00 -1.6219108846632D-02 -1.3428988196801D-01
   257  2.5600000000000D+00 -1.3737482838004D-02 -1.3853317202207D-01
   258  2.5700000000000D+00 -1.1377722917027D-02 -1.4221623479861D-01
   259  2.5800000000000D+00 -9.1395416233052D-03 -1.4535424129969D-01
   260  2.5900000000000D+00 -7.0223673089440D-03 -1.4796317245299D-01
   261  2.6000000000000D+00 -5.0253527755437D-03 -1.5005977235362D-01
   262  2.6100000000000D+00 -3.1473840648107D-03 -1.5166150209695D-01
   263  2.6200000000000D+00 -1.3870894338601D-03 -1.5278649374444D-01
   264  2.6300000000000D+00  2.5715149115144D-04 -1.5345350445119D-01
   265  2.6400000000000D+00  1.7871985597594D-03 -1.5368187194691D-01
   266  2.6500000000000D+00  3.2051427507499D-03 -1.5349147672188D-01
   267  2.6600000000000D+00  4.5132933799022D-03 -1.5290267520726D-01
   268  2.6700000000000D+00  5.7141724892099D-03 -1.5193628281670D-01
   269  2.6800000000000D+00  6.8105117880688D-03 -1.5061357427786D-01
   270  2.6900000000000D+00  7.8052208492158D-03 -1.4895609450330D-01
   271  2.7000000000000D+00  8.7013969446458D-03 -1.4698574622553D-01
   272  2.7100000000000D+00  9.5023073093055D-03 -1.4472469208015D-01
   273  2.7200000000000D+00  1.0211412932117D-02 -1.4219554665738D-01
   274  2.7300000000000D+00  1.0832340749799D-02 -1.3942121248990D-01
   275  2.7400000000000D+00  1.1368833152010D-02 -1.3642456385023D-01
   276  2.7500000000000D+00  1.1824728078887D-02 -1.3322833718808D-01
   277  2.7600000000000D+00  1.2203928770492D-02 -1.2985494720314D-01
   278  2.7700000000000D+00  1.2510373037656D-02 -1.2632633428581D-01
   279  2.7800000000000D+00  1.2748021897131D-02 -1.2266392131007D-01
   280  2.7900000000000D+00  1.2920760527085D-02 -1.1888798395036D-01
   281  2.8000000000000D+00  1.3032460083440D-02 -1.1501811175657D-01
   282  2.8100000000000D+00  1.3086941638936D-02 -1.1107300417334D-01
   283  2.8200000000000D+00  1.3087990881743D-02 -1.0707062285189D-01
   284  2.8300000000000D+00  1.3039336461205D-02 -1.0302808108798D-01
   285  2.8400000000000D+00  1.2944637544321D-02 -9.8961598811935D-02
   286  2.8500000000000D+00  1.2807480045832D-02 -9.4886519049205D-02
   287  2.8600000000000D+00  1.2631371083620D-02 -9.0817310612567D-02
   288  2.8700000000000D+00  1.2419730035850D-02 -8.6767545780563D-02
   289  2.8800000000000D+00  1.2175883372635D-02 -8.2749903678825D-02
   290  2.8900000000000D+00  1.1903058991194D-02 -7.8776169786090D-02
   291  2.9000000000000D+00  1.1604381581860D-02 -7.4857240731675D-02
   292  2.9100000000000D+00  1.1282868307048D-02 -7.1003130751052D-02
   293  2.9200000000000D+00  1.0941424956848D-02 -6.7222980631286D-02
   294  2.9300000000000D+00  1.0582842726531D-02 -6.3525069744555D-02
   295  2.9400000000000D+00  1.0209795607615D-02 -5.9916831083557D-02
   296  2.9500000000000D+00  9.8248382345439D-03 -5.6404868542345D-02
   297  2.9600000000000D+00  9.4304039889896D-03 -5.2994975439368D-02
   298  2.9700000000000D+00  9.0288040299862D-03 -4.9692157400629D-02
   299  2.9800000000000D+00  8.6222265490636D-03 -4.6500656245316D-02
   300  2.9900000000000D+00  8.2127364232702D-03 -4.3423975656519D-02
   301  3.0000000000000D+00  7.8022753742776D-03 -4.0464909090587D-02
   302  3.0100000000000D+00  7.3926626385345D-03 -3.7625569902702D-02
   303  3.0200000000000D+00  6.9855959245181D-03 -3.4907422548988D-02
   304  3.0300000000000D+00  6.5826526867052D-03 -3.2311315245576D-02
   305  3.0400000000000D+00  6.1852918624273D-03 -2.9837514117000D-02
   306  3.0500000000000D+00  5.7948558694896D-03 -2.7485738407372D-02
   307  3.0600000000000D+00  5.4125728841930D-03 -2.5255196608807D-02
   308  3.0700000000000D+00  5.0395593639235D-03 -2.3144623325366D-02
   309  3.0800000000000D+00  4.6768229278454D-03 -2.1152317229558D-02
   310  3.0900000000000D+00  4.3252653729461D-03 -1.9276179188951D-02
   311  3.1000000000000D+00  3.9856858968509D-03 -1.7513750948237D-02
   312  3.1100000000000D+00  3.6587844974164D-03 -1.5862253863948D-02
   313  3.1200000000000D+00  3.3451655136196D-03 -1.4318627689336D-02
   314  3.1300000000000D+00  3.0453412482917D-03 -1.2879569055218D-02
   315  3.1400000000000D+00  2.7597358221625D-03 -1.1541570718111D-02
   316  3.1500000000000D+00  2.4886888719603D-03 -1.0300958717569D-02
   317  3.1600000000000D+00  2.2324594044372D-03 -9.1539298431189D-03
   318  3.1700000000000D+00  1.9912296518615D-03 -8.0965882700660D-03
   319  3.1800000000000D+00  1.7651090157524D-03 -7.1249819843495D-03
   320  3.1900000000000D+00  1.5541377482017D-03 -6.2351366554985D-03
   321  3.2000000000000D+00  1.3582907037673D-03 -5.4230892374147D-03
   322  3.2100000000000D+00  1.1774810876645D-03 -4.6849207458165D-03
   323  3.2200000000000D+00  1.0115640775551D-03 -4.0167874728489D-03
   324  3.2300000000000D+00  8.6034012518251D-04 -3.4149494374186D-03
   325  3.2400000000000D+00  7.2365886030672D-04 -2.8762755168588D-03
   326  3.2500000000000D+00  6.0114378135290D-04 -2.3969481610023D-03
   327  3.2600000000000D+00  4.9230156019301D-04 -1.9729921069019D-03
   328  3.2700000000000D+00  3.9672141570423D-04 -1.6012294581318D-03
   329  3.2800000000000D+00  3.1330200765932D-04 -1.2758819889428D-03
   330  3.2900000000000D+00  2.4246244562178D-04 -9.9826750554713D-04
   331  3.3000000000000D+00  1.8461829150525D-04 -7.7012023417595D-04
   332  3.3100000000000D+00  1.3950695292398D-04 -5.9061933579435D-04
   333  3.3200000000000D+00  1.0828252415483D-04 -4.6514552391973D-04
   334  3.3300000000000D+00  8.7061933021501D-05 -3.7819237413798D-04
   335  3.3400000000000D+00  7.1918125376080D-05 -3.1417818857669D-04
   336  3.3500000000000D+00  5.9627317194352D-05 -2.6049070100941D-04
   337  3.3600000000000D+00  4.4749499276166D-05 -1.9530022833289D-04
   338  3.3700000000000D+00  2.9073567321769D-05 -1.2667192908755D-04
   339  3.3800000000000D+00  1.4416938348915D-05 -6.2668164328953D-05
   340  3.3900000000000D+00  2.2696536521024D-06 -9.8408326568817D-06
   341  3.4000000000000D+00 -3.6202062500228D-06  1.5863008153248D-05
   342  3.4100000000000D+00 -4.9965983280108D-06  2.1892863753433D-05
   343  3.4200000000000D+00 -3.6319599625220D-06  1.5911477999916D-05
   344  3.4300000000000D+00 -8.8268886953377D-07  3.8663176451318D-06
   345  3.4400000000000D+00  6.9475600096948D-07 -3.0582755199945D-06
   346  3.4500000000000D+00  1.1485182406437D-06 -5.0574855150209D-06
   347  3.4600000000000D+00  9.5935111633828D-07 -4.2257966520282D-06
   348  3.4700000000000D+00  3.2344409825930D-07 -1.4251132625739D-06
   349  3.4800000000000D+00 -7.7983002083788D-08  3.4048959870371D-07
   350  3.4900000000000D+00 -1.5533327724972D-07  6.7821658339418D-07
   351  3.5000000000000D+00 -1.4632545878141D-07  6.3888662156257D-07
   352  3.5100000000000D+00 -6.5530863681693D-08  2.8612103768092D-07
   353  3.5200000000000D+00  0.0000000000000D+00  0.0000000000000D+00
   354  3.5300000000000D+00  0.0000000000000D+00  0.0000000000000D+00
   355  3.5400000000000D+00  0.0000000000000D+00  0.0000000000000D+00
   356  3.5500000000000D+00  0.0000000000000D+00  0.0000000000000D+00
   357  3.5600000000000D+00  0.0000000000000D+00  0.0000000000000D+00
   358  3.5700000000000D+00  0.0000000000000D+00  0.0000000000000D+00
   359  3.5800000000000D+00  0.0000000000000D+00  0.0000000000000D+00
   360  3.5900000000000D+00  0.0000000000000D+00  0.0000000000000D+00
   361  3.6000000000000D+00  0.0000000000000D+00  0.0000000000000D+00
   362  3.6100000000000D+00  0.0000000000000D+00  0.0000000000000D+00
   363  3.6200000000000D+00  0.0000000000000D+00  0.0000000000000D+00
   364  3.6300000000000D+00  0.0000000000000D+00  0.0000000000000D+00
   365  3.6400000000000D+00  0.0000000000000D+00  0.0000000000000D+00
   366  3.6500000000000D+00  0.0000000000000D+00  0.0000000000000D+00
   367  3.6600000000000D+00  0.0000000000000D+00  0.0000000000000D+00
   368  3.6700000000000D+00  0.0000000000000D+00  0.0000000000000D+00
   369  3.6800000000000D+00  0.0000000000000D+00  0.0000000000000D+00
   370  3.6900000000000D+00  0.0000000000000D+00  0.0000000000000D+00
   371  3.7000000000000D+00  0.0000000000000D+00  0.0000000000000D+00
   372  3.7100000000000D+00  0.0000000000000D+00  0.0000000000000D+00
   373  3.7200000000000D+00  0.0000000000000D+00  0.0000000000000D+00
   374  3.7300000000000D+00  0.0000000000000D+00  0.0000000000000D+00
   375  3.7400000000000D+00  0.0000000000000D+00  0.0000000000000D+00
   376  3.7500000000000D+00  0.0000000000000D+00  0.0000000000000D+00
   377  3.7600000000000D+00  0.0000000000000D+00  0.0000000000000D+00
   378  3.7700000000000D+00  0.0000000000000D+00  0.0000000000000D+00
   379  3.7800000000000D+00  0.0000000000000D+00  0.0000000000000D+00
   380  3.7900000000000D+00  0.0000000000000D+00  0.0000000000000D+00
   381  3.8000000000000D+00  0.0000000000000D+00  0.0000000000000D+00
   382  3.8100000000000D+00  0.0000000000000D+00  0.0000000000000D+00
   383  3.8200000000000D+00  0.0000000000000D+00  0.0000000000000D+00
   384  3.8300000000000D+00  0.0000000000000D+00  0.0000000000000D+00
   385  3.8400000000000D+00  0.0000000000000D+00  0.0000000000000D+00
   386  3.8500000000000D+00  0.0000000000000D+00  0.0000000000000D+00
   387  3.8600000000000D+00  0.0000000000000D+00  0.0000000000000D+00
   388  3.8700000000000D+00  0.0000000000000D+00  0.0000000000000D+00
   389  3.8800000000000D+00  0.0000000000000D+00  0.0000000000000D+00
   390  3.8900000000000D+00  0.0000000000000D+00  0.0000000000000D+00
   391  3.9000000000000D+00  0.0000000000000D+00  0.0000000000000D+00
   392  3.9100000000000D+00  0.0000000000000D+00  0.0000000000000D+00
   393  3.9200000000000D+00  0.0000000000000D+00  0.0000000000000D+00
   394  3.9300000000000D+00  0.0000000000000D+00  0.0000000000000D+00
   395  3.9400000000000D+00  0.0000000000000D+00  0.0000000000000D+00
   396  3.9500000000000D+00  0.0000000000000D+00  0.0000000000000D+00
   397  3.9600000000000D+00  0.0000000000000D+00  0.0000000000000D+00
   398  3.9700000000000D+00  0.0000000000000D+00  0.0000000000000D+00
   399  3.9800000000000D+00  0.0000000000000D+00  0.0000000000000D+00
   400  3.9900000000000D+00  0.0000000000000D+00  0.0000000000000D+00
   401  4.0000000000000D+00  0.0000000000000D+00  0.0000000000000D+00
   402  4.0100000000000D+00  0.0000000000000D+00  0.0000000000000D+00
   403  4.0200000000000D+00  0.0000000000000D+00  0.0000000000000D+00
   404  4.0300000000000D+00  0.0000000000000D+00  0.0000000000000D+00
   405  4.0400000000000D+00  0.0000000000000D+00  0.0000000000000D+00
   406  4.0500000000000D+00  0.0000000000000D+00  0.0000000000000D+00
   407  4.0600000000000D+00  0.0000000000000D+00  0.0000000000000D+00
   408  4.0700000000000D+00  0.0000000000000D+00  0.0000000000000D+00
   409  4.0800000000000D+00  0.0000000000000D+00  0.0000000000000D+00
   410  4.0900000000000D+00  0.0000000000000D+00  0.0000000000000D+00
   411  4.1000000000000D+00  0.0000000000000D+00  0.0000000000000D+00
   412  4.1100000000000D+00  0.0000000000000D+00  0.0000000000000D+00
   413  4.1200000000000D+00  0.0000000000000D+00  0.0000000000000D+00
   414  4.1300000000000D+00  0.0000000000000D+00  0.0000000000000D+00
   415  4.1400000000000D+00  0.0000000000000D+00  0.0000000000000D+00
   416  4.1500000000000D+00  0.0000000000000D+00  0.0000000000000D+00
   417  4.1600000000000D+00  0.0000000000000D+00  0.0000000000000D+00
   418  4.1700000000000D+00  0.0000000000000D+00  0.0000000000000D+00
   419  4.1800000000000D+00  0.0000000000000D+00  0.0000000000000D+00
   420  4.1900000000000D+00  0.0000000000000D+00  0.0000000000000D+00
   421  4.2000000000000D+00  0.0000000000000D+00  0.0000000000000D+00
   422  4.2100000000000D+00  0.0000000000000D+00  0.0000000000000D+00