V     ONCVPSP-3.3.1  r_core=   1.72984   1.99606   2.02001
     23.0000     13.0000      210905    zatom,zion,pspd
     8 -116133   2     4   600     0    pspcod,pspxc,lmax,lloc,mmax,r2well
  5.99000000  0.00000000  0.00000000    rchrg fchrg qchrg
     2     2     2     0    nproj
     3     1           extension_switch
     4     3     0    nprojso
   0                        -5.0250386527950D-01  3.6068942231082D+00
     1  0.0000000000000D+00  7.0012548536447D-10  3.1718327964114D-10
     2  1.0000000000000D-02 -7.8058113950267D-03  5.8860366307775D-02
     3  2.0000000000000D-02 -1.5414985550922D-02  1.1767246049126D-01
     4  3.0000000000000D-02 -2.2632774361016D-02  1.7638741382611D-01
     5  4.0000000000000D-02 -2.9268189599988D-02  2.3495517245311D-01
     6  5.0000000000000D-02 -3.5135837084997D-02  2.9332392489298D-01
     7  6.0000000000000D-02 -4.0057696401787D-02  3.5143955343292D-01
     8  7.0000000000000D-02 -4.3864828879690D-02  4.0924511696723D-01
     9  8.0000000000000D-02 -4.6398997199525D-02  4.6668037255637D-01
    10  9.0000000000000D-02 -4.7514180880762D-02  5.2368134257871D-01
    11  1.0000000000000D-01 -4.7077972910450D-02  5.8017993388795D-01
    12  1.1000000000000D-01 -4.4972843936579D-02  6.3610361486314D-01
    13  1.2000000000000D-01 -4.1097261741355D-02  6.9137515565124D-01
    14  1.3000000000000D-01 -3.5366655122883D-02  7.4591243626012D-01
    15  1.4000000000000D-01 -2.7714212833137D-02  7.9962832646921D-01
    16  1.5000000000000D-01 -1.8091509831156D-02  8.5243064079151D-01
    17  1.6000000000000D-01 -6.4689547974567D-03  9.0422217095202D-01
    18  1.7000000000000D-01  7.1639453977379D-03  9.5490079755100D-01
    19  1.8000000000000D-01  2.2798506790685D-02  1.0043596817627D+00
    20  1.9000000000000D-01  4.0406975688567D-02  1.0524875370903D+00
    21  2.0000000000000D-01  5.9942821184262D-02  1.0991689803632D+00
    22  2.1000000000000D-01  8.1341209891995D-02  1.1442849603300D+00
    23  2.2000000000000D-01  1.0451965819077D-01  1.1877132613801D+00
    24  2.3000000000000D-01  1.2937885552449D-01  1.2293290791265D+00
    25  2.4000000000000D-01  1.5580365063161D-01  1.2690056638045D+00
    26  2.5000000000000D-01  1.8366419098049D-01  1.3066150267018D+00
    27  2.6000000000000D-01  2.1281720418359D-01  1.3420287041364D+00
    28  2.7000000000000D-01  2.4310740877063D-01  1.3751185728449D+00
    29  2.8000000000000D-01  2.7436904042987D-01  1.4057577100484D+00
    30  2.9000000000000D-01  3.0642747869173D-01  1.4338212909260D+00
    31  3.0000000000000D-01  3.3910095804011D-01  1.4591875157536D+00
    32  3.1000000000000D-01  3.7220234660449D-01  1.4817385585660D+00
    33  3.2000000000000D-01  4.0554097491839D-01  1.5013615288727D+00
    34  3.3000000000000D-01  4.3892449673305D-01  1.5179494377102D+00
    35  3.4000000000000D-01  4.7216076355539D-01  1.5314021591420D+00
    36  3.5000000000000D-01  5.0505969443877D-01  1.5416273782357D+00
    37  3.6000000000000D-01  5.3743512259578D-01  1.5485415165396D+00
    38  3.7000000000000D-01  5.6910660062386D-01  1.5520706261640D+00
    39  3.8000000000000D-01  5.9990114653517D-01  1.5521512437372D+00
    40  3.9000000000000D-01  6.2965491335811D-01  1.5487311957503D+00
    41  4.0000000000000D-01  6.5821476582308D-01  1.5417703471349D+00
    42  4.1000000000000D-01  6.8543974855351D-01  1.5312412853176D+00
    43  4.2000000000000D-01  7.1120243124521D-01  1.5171299324787D+00
    44  4.3000000000000D-01  7.3539011752257D-01  1.4994360792843D+00
    45  4.4000000000000D-01  7.5790590549800D-01  1.4781738339808D+00
    46  4.5000000000000D-01  7.7866958951750D-01  1.4533719814088D+00
    47  4.6000000000000D-01  7.9761839413658D-01  1.4250742472218D+00
    48  4.7000000000000D-01  8.1470753302192D-01  1.3933394633706D+00
    49  4.8000000000000D-01  8.2991058719836D-01  1.3582416317268D+00
    50  4.9000000000000D-01  8.4321969884180D-01  1.3198698835666D+00
    51  5.0000000000000D-01  8.5464557863894D-01  1.2783283335091D+00
    52  5.1000000000000D-01  8.6421732657577D-01  1.2337358273959D+00
    53  5.2000000000000D-01  8.7198206786160D-01  1.1862255844934D+00
    54  5.3000000000000D-01  8.7800440752397D-01  1.1359447353069D+00
    55  5.4000000000000D-01  8.8236570900752D-01  1.0830537571844D+00
    56  5.5000000000000D-01  8.8516320385402D-01  1.0277258107716D+00
    57  5.6000000000000D-01  8.8650894121834D-01  9.7014598123178D-01
    58  5.7000000000000D-01  8.8652858756902D-01  9.1051042897476D-01
    59  5.8000000000000D-01  8.8536008841107D-01  8.4902545542119D-01
    60  5.9000000000000D-01  8.8315220524915D-01  7.8590649007462D-01
    61  6.0000000000000D-01  8.8006294225167D-01  7.2137700585984D-01
    62  6.1000000000000D-01  8.7625787818640D-01  6.5566737031977D-01
    63  6.2000000000000D-01  8.7190842014696D-01  5.8901364082764D-01
    64  6.3000000000000D-01  8.6718999638173D-01  5.2165631246965D-01
    65  6.4000000000000D-01  8.6228020615575D-01  4.5383902767675D-01
    66  6.5000000000000D-01  8.5735694501790D-01  3.8580725702819D-01
    67  6.6000000000000D-01  8.5259652410808D-01  3.1780696091587D-01
    68  6.7000000000000D-01  8.4817180221438D-01  2.5008324193839D-01
    69  6.8000000000000D-01  8.4425034918291D-01  1.8287899799049D-01
    70  6.9000000000000D-01  8.4099265898900D-01  1.1643358602412D-01
    71  7.0000000000000D-01  8.3855043030393D-01  5.0981506382029D-02
    72  7.1000000000000D-01  8.3706493173765D-01 -1.3248882555890D-02
    73  7.2000000000000D-01  8.3666546811806D-01 -7.6036609916113D-02
    74  7.3000000000000D-01  8.3746796317726D-01 -1.3716928889340D-01
    75  7.4000000000000D-01  8.3957367287688D-01 -1.9644425556260D-01
    76  7.5000000000000D-01  8.4306804232260D-01 -2.5366964164908D-01
    77  7.6000000000000D-01  8.4801971780580D-01 -3.0866537351428D-01
    78  7.7000000000000D-01  8.5447972398149D-01 -3.6126409022548D-01
    79  7.8000000000000D-01  8.6248081456543D-01 -4.1131197424992D-01
    80  7.9000000000000D-01  8.7203700321963D-01 -4.5866948903791D-01
    81  8.0000000000000D-01  8.8314327951291D-01 -5.0321201853179D-01
    82  8.1000000000000D-01  8.9577551301558D-01 -5.4483040444626D-01
    83  8.2000000000000D-01  9.0989054672400D-01 -5.8343137800862D-01
    84  8.3000000000000D-01  9.2542647913630D-01 -6.1893788371309D-01
    85  8.4000000000000D-01  9.4230313243089D-01 -6.5128929352631D-01
    86  8.5000000000000D-01  9.6042270235492D-01 -6.8044151087152D-01
    87  8.6000000000000D-01  9.7967058362796D-01 -7.0636696461003D-01
    88  8.7000000000000D-01  9.9991636292494D-01 -7.2905449412162D-01
    89  8.8000000000000D-01  1.0210149698406D+00 -7.4850912745300D-01
    90  8.9000000000000D-01  1.0428079746705D+00 -7.6475175534739D-01
    91  9.0000000000000D-01  1.0651250203864D+00 -7.7781870478133D-01
    92  9.1000000000000D-01  1.0877853748564D+00 -7.8776121641007D-01
    93  9.2000000000000D-01  1.1105995881658D+00 -7.9464483105266D-01
    94  9.3000000000000D-01  1.1333712388569D+00 -7.9854869102771D-01
    95  9.4000000000000D-01  1.1558987520272D+00 -7.9956476277294D-01
    96  9.5000000000000D-01  1.1779772715186D+00 -7.9779698774266D-01
    97  9.6000000000000D-01  1.1994005679028D+00 -7.9336036906731D-01
    98  9.7000000000000D-01  1.2199629636160D+00 -7.8638000188973D-01
    99  9.8000000000000D-01  1.2394612564438D+00 -7.7699005563602D-01
   100  9.9000000000000D-01  1.2576966225830D+00 -7.6533271675500D-01
   101  1.0000000000000D+00  1.2744764807265D+00 -7.5155710065543D-01
   102  1.0100000000000D+00  1.2896162990149D+00 -7.3581814168716D-01
   103  1.0200000000000D+00  1.3029413273083D+00 -7.1827547004656D-01
   104  1.0300000000000D+00  1.3142882379541D+00 -6.9909228444947D-01
   105  1.0400000000000D+00  1.3235066591858D+00 -6.7843422929577D-01
   106  1.0500000000000D+00  1.3304605863769D+00 -6.5646828485202D-01
   107  1.0600000000000D+00  1.3350296575958D+00 -6.3336167871614D-01
   108  1.0700000000000D+00  1.3371102813005D+00 -6.0928082648727D-01
   109  1.0800000000000D+00  1.3366166055226D+00 -5.8439030915544D-01
   110  1.0900000000000D+00  1.3334813193675D+00 -5.5885189430388D-01
   111  1.1000000000000D+00  1.3276562795502D+00 -5.3282360763696D-01
   112  1.1100000000000D+00  1.3191129562678D+00 -5.0645886083499D-01
   113  1.1200000000000D+00  1.3078426947307D+00 -4.7990564105451D-01
   114  1.1300000000000D+00  1.2938567901802D+00 -4.5330576687087D-01
   115  1.1400000000000D+00  1.2771863764737D+00 -4.2679421464507D-01
   116  1.1500000000000D+00  1.2578821299512D+00 -4.0049851867609D-01
   117  1.1600000000000D+00  1.2360137923737D+00 -3.7453824768644D-01
   118  1.1700000000000D+00  1.2116695180333D+00 -3.4902455966804D-01
   119  1.1800000000000D+00  1.1849550524960D+00 -3.2405983613738D-01
   120  1.1900000000000D+00  1.1559927517696D+00 -2.9973739625135D-01
   121  1.2000000000000D+00  1.1249204523634D+00 -2.7614129047461D-01
   122  1.2100000000000D+00  1.0918902038878D+00 -2.5334617295449D-01
   123  1.2200000000000D+00  1.0570668777390D+00 -2.3141725081094D-01
   124  1.2300000000000D+00  1.0206266662836D+00 -2.1041030803289D-01
   125  1.2400000000000D+00  9.8275548771457D-01 -1.9037180130098D-01
   126  1.2500000000000D+00  9.4364731331984D-01 -1.7133902409866D-01
   127  1.2600000000000D+00  9.0350243416263D-01 -1.5334033515119D-01
   128  1.2700000000000D+00  8.6252568465545D-01 -1.3639544693471D-01
   129  1.2800000000000D+00  8.2092464127214D-01 -1.2051576929916D-01
   130  1.2900000000000D+00  7.7890781438801D-01 -1.0570480300863D-01
   131  1.3000000000000D+00  7.3668285145226D-01 -9.1958577883086D-02
   132  1.3100000000000D+00  6.9445476963168D-01 -7.9266129718481D-02
   133  1.3200000000000D+00  6.5242423498023D-01 -6.7610010187499D-02
   134  1.3300000000000D+00  6.1078590578205D-01 -5.6966823811958D-02
   135  1.3400000000000D+00  5.6972685603123D-01 -4.7307785921336D-02
   136  1.3500000000000D+00  5.2942509373267D-01 -3.8599295808531D-02
   137  1.3600000000000D+00  4.9004818983749D-01 -3.0803518983850D-02
   138  1.3700000000000D+00  4.5175202919227D-01 -2.3878972999680D-02
   139  1.3800000000000D+00  4.1467969592558D-01 -1.7781111280503D-02
   140  1.3900000000000D+00  3.7896050439779D-01 -1.2462899427420D-02
   141  1.4000000000000D+00  3.4470918188581D-01 -7.8753795662585D-03
   142  1.4100000000000D+00  3.1202521329066D-01 -3.9682173943233D-03
   143  1.4200000000000D+00  2.8099235054712D-01 -6.9022820100036D-04
   144  1.4300000000000D+00  2.5167829082798D-01  2.0101220455870D-03
   145  1.4400000000000D+00  2.2413452729310D-01  4.1842445439872D-03
   146  1.4500000000000D+00  1.9839636797362D-01  5.8829862192360D-03
   147  1.4600000000000D+00  1.7448312635993D-01  7.1562229516645D-03
   148  1.4700000000000D+00  1.5239847501084D-01  8.0524881115039D-03
   149  1.4800000000000D+00  1.3213095980395D-01  8.6186386921694D-03
   150  1.4900000000000D+00  1.1365466734766D-01  8.8995600275600D-03
   151  1.5000000000000D+00  9.6930034613074D-02  8.9379088185502D-03
   152  1.5100000000000D+00  8.1904795050808D-02  8.7738960301918D-03
   153  1.5200000000000D+00  6.8515043873440D-02  8.4451072796888D-03
   154  1.5300000000000D+00  5.6686415751448D-02  7.9863620077564D-03
   155  1.5400000000000D+00  4.6335355679321D-02  7.4296082977612D-03
   156  1.5500000000000D+00  3.7370472179582D-02  6.8038532045869D-03
   157  1.5600000000000D+00  2.9693954546823D-02  6.1351257432453D-03
   158  1.5700000000000D+00  2.3203039468373D-02  5.4464707730434D-03
   159  1.5800000000000D+00  1.7791509278294D-02  4.7579712291044D-03
   160  1.5900000000000D+00  1.3351205883206D-02  4.0867958757047D-03
   161  1.6000000000000D+00  9.7735417953068D-03  3.4472700082240D-03
   162  1.6100000000000D+00  6.9509939498955D-03  2.8509659583543D-03
   163  1.6200000000000D+00  4.7785594678657D-03  2.3068104118788D-03
   164  1.6300000000000D+00  3.1551634842294D-03  1.8212058367197D-03
   165  1.6400000000000D+00  1.9849949029844D-03  1.3981622791993D-03
   166  1.6500000000000D+00  1.1787667848358D-03  1.0394380992300D-03
   167  1.6600000000000D+00  6.5487501508201D-04  7.4468555592067D-04
   168  1.6700000000000D+00  3.4047557396449D-04  5.1160461050920D-04
   169  1.6800000000000D+00  1.7250945764082D-04  3.3613761803150D-04
   170  1.6900000000000D+00  9.7468585153412D-05  2.1208929469748D-04
   171  1.7000000000000D+00  7.3425152379778D-05  1.3165831556568D-04
   172  1.7100000000000D+00  7.4902094700608D-05  8.9829631196601D-05
   173  1.7200000000000D+00  8.4688438586658D-05  7.7791101279307D-05
   174  1.7300000000000D+00  7.8067388174550D-05  6.7029527863118D-05
   175  1.7400000000000D+00  4.0994911024339D-05  3.4641120612727D-05
   176  1.7500000000000D+00  1.8406780654685D-06  1.5598950715798D-06
   177  1.7600000000000D+00 -8.5064802780726D-06 -6.9499895262201D-06
   178  1.7700000000000D+00 -1.6068694863073D-06 -1.3077214132673D-06
   179  1.7800000000000D+00  1.8519414011466D-06  1.5150478327921D-06
   180  1.7900000000000D+00  6.9977654379820D-07  5.7085356833638D-07
   181  1.8000000000000D+00 -2.0136370796409D-07 -1.7298933867070D-07
   182  1.8100000000000D+00 -1.2576267113563D-07 -1.0804132248644D-07
   183  1.8200000000000D+00  0.0000000000000D+00  0.0000000000000D+00
   184  1.8300000000000D+00  0.0000000000000D+00  0.0000000000000D+00
   185  1.8400000000000D+00  0.0000000000000D+00  0.0000000000000D+00
   186  1.8500000000000D+00  0.0000000000000D+00  0.0000000000000D+00
   187  1.8600000000000D+00  0.0000000000000D+00  0.0000000000000D+00
   188  1.8700000000000D+00  0.0000000000000D+00  0.0000000000000D+00
   189  1.8800000000000D+00  0.0000000000000D+00  0.0000000000000D+00
   190  1.8900000000000D+00  0.0000000000000D+00  0.0000000000000D+00
   191  1.9000000000000D+00  0.0000000000000D+00  0.0000000000000D+00
   192  1.9100000000000D+00  0.0000000000000D+00  0.0000000000000D+00
   193  1.9200000000000D+00  0.0000000000000D+00  0.0000000000000D+00
   194  1.9300000000000D+00  0.0000000000000D+00  0.0000000000000D+00
   195  1.9400000000000D+00  0.0000000000000D+00  0.0000000000000D+00
   196  1.9500000000000D+00  0.0000000000000D+00  0.0000000000000D+00
   197  1.9600000000000D+00  0.0000000000000D+00  0.0000000000000D+00
   198  1.9700000000000D+00  0.0000000000000D+00  0.0000000000000D+00
   199  1.9800000000000D+00  0.0000000000000D+00  0.0000000000000D+00
   200  1.9900000000000D+00  0.0000000000000D+00  0.0000000000000D+00
   201  2.0000000000000D+00  0.0000000000000D+00  0.0000000000000D+00
   202  2.0100000000000D+00  0.0000000000000D+00  0.0000000000000D+00
   203  2.0200000000000D+00  0.0000000000000D+00  0.0000000000000D+00
   204  2.0300000000000D+00  0.0000000000000D+00  0.0000000000000D+00
   205  2.0400000000000D+00  0.0000000000000D+00  0.0000000000000D+00
   206  2.0500000000000D+00  0.0000000000000D+00  0.0000000000000D+00
   207  2.0600000000000D+00  0.0000000000000D+00  0.0000000000000D+00
   208  2.0700000000000D+00  0.0000000000000D+00  0.0000000000000D+00
   209  2.0800000000000D+00  0.0000000000000D+00  0.0000000000000D+00
   210  2.0900000000000D+00  0.0000000000000D+00  0.0000000000000D+00
   211  2.1000000000000D+00  0.0000000000000D+00  0.0000000000000D+00
   212  2.1100000000000D+00  0.0000000000000D+00  0.0000000000000D+00
   213  2.1200000000000D+00  0.0000000000000D+00  0.0000000000000D+00
   214  2.1300000000000D+00  0.0000000000000D+00  0.0000000000000D+00
   215  2.1400000000000D+00  0.0000000000000D+00  0.0000000000000D+00
   216  2.1500000000000D+00  0.0000000000000D+00  0.0000000000000D+00
   217  2.1600000000000D+00  0.0000000000000D+00  0.0000000000000D+00
   218  2.1700000000000D+00  0.0000000000000D+00  0.0000000000000D+00
   219  2.1800000000000D+00  0.0000000000000D+00  0.0000000000000D+00
   220  2.1900000000000D+00  0.0000000000000D+00  0.0000000000000D+00
   221  2.2000000000000D+00  0.0000000000000D+00  0.0000000000000D+00
   222  2.2100000000000D+00  0.0000000000000D+00  0.0000000000000D+00
   223  2.2200000000000D+00  0.0000000000000D+00  0.0000000000000D+00
   224  2.2300000000000D+00  0.0000000000000D+00  0.0000000000000D+00
   225  2.2400000000000D+00  0.0000000000000D+00  0.0000000000000D+00
   226  2.2500000000000D+00  0.0000000000000D+00  0.0000000000000D+00
   227  2.2600000000000D+00  0.0000000000000D+00  0.0000000000000D+00
   228  2.2700000000000D+00  0.0000000000000D+00  0.0000000000000D+00
   229  2.2800000000000D+00  0.0000000000000D+00  0.0000000000000D+00
   230  2.2900000000000D+00  0.0000000000000D+00  0.0000000000000D+00
   231  2.3000000000000D+00  0.0000000000000D+00  0.0000000000000D+00
   232  2.3100000000000D+00  0.0000000000000D+00  0.0000000000000D+00
   233  2.3200000000000D+00  0.0000000000000D+00  0.0000000000000D+00
   234  2.3300000000000D+00  0.0000000000000D+00  0.0000000000000D+00
   235  2.3400000000000D+00  0.0000000000000D+00  0.0000000000000D+00
   236  2.3500000000000D+00  0.0000000000000D+00  0.0000000000000D+00
   237  2.3600000000000D+00  0.0000000000000D+00  0.0000000000000D+00
   238  2.3700000000000D+00  0.0000000000000D+00  0.0000000000000D+00
   239  2.3800000000000D+00  0.0000000000000D+00  0.0000000000000D+00
   240  2.3900000000000D+00  0.0000000000000D+00  0.0000000000000D+00
   241  2.4000000000000D+00  0.0000000000000D+00  0.0000000000000D+00
   242  2.4100000000000D+00  0.0000000000000D+00  0.0000000000000D+00
   243  2.4200000000000D+00  0.0000000000000D+00  0.0000000000000D+00
   244  2.4300000000000D+00  0.0000000000000D+00  0.0000000000000D+00
   245  2.4400000000000D+00  0.0000000000000D+00  0.0000000000000D+00
   246  2.4500000000000D+00  0.0000000000000D+00  0.0000000000000D+00
   247  2.4600000000000D+00  0.0000000000000D+00  0.0000000000000D+00
   248  2.4700000000000D+00  0.0000000000000D+00  0.0000000000000D+00
   249  2.4800000000000D+00  0.0000000000000D+00  0.0000000000000D+00
   250  2.4900000000000D+00  0.0000000000000D+00  0.0000000000000D+00
   251  2.5000000000000D+00  0.0000000000000D+00  0.0000000000000D+00
   252  2.5100000000000D+00  0.0000000000000D+00  0.0000000000000D+00
   253  2.5200000000000D+00  0.0000000000000D+00  0.0000000000000D+00
   254  2.5300000000000D+00  0.0000000000000D+00  0.0000000000000D+00
   255  2.5400000000000D+00  0.0000000000000D+00  0.0000000000000D+00
   256  2.5500000000000D+00  0.0000000000000D+00  0.0000000000000D+00
   257  2.5600000000000D+00  0.0000000000000D+00  0.0000000000000D+00
   258  2.5700000000000D+00  0.0000000000000D+00  0.0000000000000D+00
   259  2.5800000000000D+00  0.0000000000000D+00  0.0000000000000D+00
   260  2.5900000000000D+00  0.0000000000000D+00  0.0000000000000D+00
   261  2.6000000000000D+00  0.0000000000000D+00  0.0000000000000D+00
   262  2.6100000000000D+00  0.0000000000000D+00  0.0000000000000D+00
   263  2.6200000000000D+00  0.0000000000000D+00  0.0000000000000D+00
   264  2.6300000000000D+00  0.0000000000000D+00  0.0000000000000D+00
   265  2.6400000000000D+00  0.0000000000000D+00  0.0000000000000D+00
   266  2.6500000000000D+00  0.0000000000000D+00  0.0000000000000D+00
   267  2.6600000000000D+00  0.0000000000000D+00  0.0000000000000D+00
   268  2.6700000000000D+00  0.0000000000000D+00  0.0000000000000D+00
   269  2.6800000000000D+00  0.0000000000000D+00  0.0000000000000D+00
   270  2.6900000000000D+00  0.0000000000000D+00  0.0000000000000D+00
   271  2.7000000000000D+00  0.0000000000000D+00  0.0000000000000D+00
   272  2.7100000000000D+00  0.0000000000000D+00  0.0000000000000D+00
   273  2.7200000000000D+00  0.0000000000000D+00  0.0000000000000D+00
   274  2.7300000000000D+00  0.0000000000000D+00  0.0000000000000D+00
   275  2.7400000000000D+00  0.0000000000000D+00  0.0000000000000D+00
   276  2.7500000000000D+00  0.0000000000000D+00  0.0000000000000D+00
   277  2.7600000000000D+00  0.0000000000000D+00  0.0000000000000D+00
   278  2.7700000000000D+00  0.0000000000000D+00  0.0000000000000D+00
   279  2.7800000000000D+00  0.0000000000000D+00  0.0000000000000D+00
   280  2.7900000000000D+00  0.0000000000000D+00  0.0000000000000D+00
   281  2.8000000000000D+00  0.0000000000000D+00  0.0000000000000D+00
   282  2.8100000000000D+00  0.0000000000000D+00  0.0000000000000D+00
   283  2.8200000000000D+00  0.0000000000000D+00  0.0000000000000D+00
   284  2.8300000000000D+00  0.0000000000000D+00  0.0000000000000D+00
   285  2.8400000000000D+00  0.0000000000000D+00  0.0000000000000D+00
   286  2.8500000000000D+00  0.0000000000000D+00  0.0000000000000D+00
   287  2.8600000000000D+00  0.0000000000000D+00  0.0000000000000D+00
   288  2.8700000000000D+00  0.0000000000000D+00  0.0000000000000D+00
   289  2.8800000000000D+00  0.0000000000000D+00  0.0000000000000D+00
   290  2.8900000000000D+00  0.0000000000000D+00  0.0000000000000D+00
   291  2.9000000000000D+00  0.0000000000000D+00  0.0000000000000D+00
   292  2.9100000000000D+00  0.0000000000000D+00  0.0000000000000D+00
   293  2.9200000000000D+00  0.0000000000000D+00  0.0000000000000D+00
   294  2.9300000000000D+00  0.0000000000000D+00  0.0000000000000D+00
   295  2.9400000000000D+00  0.0000000000000D+00  0.0000000000000D+00
   296  2.9500000000000D+00  0.0000000000000D+00  0.0000000000000D+00
   297  2.9600000000000D+00  0.0000000000000D+00  0.0000000000000D+00
   298  2.9700000000000D+00  0.0000000000000D+00  0.0000000000000D+00
   299  2.9800000000000D+00  0.0000000000000D+00  0.0000000000000D+00
   300  2.9900000000000D+00  0.0000000000000D+00  0.0000000000000D+00
   301  3.0000000000000D+00  0.0000000000000D+00  0.0000000000000D+00
   302  3.0100000000000D+00  0.0000000000000D+00  0.0000000000000D+00
   303  3.0200000000000D+00  0.0000000000000D+00  0.0000000000000D+00
   304  3.0300000000000D+00  0.0000000000000D+00  0.0000000000000D+00
   305  3.0400000000000D+00  0.0000000000000D+00  0.0000000000000D+00
   306  3.0500000000000D+00  0.0000000000000D+00  0.0000000000000D+00
   307  3.0600000000000D+00  0.0000000000000D+00  0.0000000000000D+00
   308  3.0700000000000D+00  0.0000000000000D+00  0.0000000000000D+00
   309  3.0800000000000D+00  0.0000000000000D+00  0.0000000000000D+00
   310  3.0900000000000D+00  0.0000000000000D+00  0.0000000000000D+00
   311  3.1000000000000D+00  0.0000000000000D+00  0.0000000000000D+00
   312  3.1100000000000D+00  0.0000000000000D+00  0.0000000000000D+00
   313  3.1200000000000D+00  0.0000000000000D+00  0.0000000000000D+00
   314  3.1300000000000D+00  0.0000000000000D+00  0.0000000000000D+00
   315  3.1400000000000D+00  0.0000000000000D+00  0.0000000000000D+00
   316  3.1500000000000D+00  0.0000000000000D+00  0.0000000000000D+00
   317  3.1600000000000D+00  0.0000000000000D+00  0.0000000000000D+00
   318  3.1700000000000D+00  0.0000000000000D+00  0.0000000000000D+00
   319  3.1800000000000D+00  0.0000000000000D+00  0.0000000000000D+00
   320  3.1900000000000D+00  0.0000000000000D+00  0.0000000000000D+00
   321  3.2000000000000D+00  0.0000000000000D+00  0.0000000000000D+00
   322  3.2100000000000D+00  0.0000000000000D+00  0.0000000000000D+00
   323  3.2200000000000D+00  0.0000000000000D+00  0.0000000000000D+00
   324  3.2300000000000D+00  0.0000000000000D+00  0.0000000000000D+00
   325  3.2400000000000D+00  0.0000000000000D+00  0.0000000000000D+00
   326  3.2500000000000D+00  0.0000000000000D+00  0.0000000000000D+00
   327  3.2600000000000D+00  0.0000000000000D+00  0.0000000000000D+00
   328  3.2700000000000D+00  0.0000000000000D+00  0.0000000000000D+00
   329  3.2800000000000D+00  0.0000000000000D+00  0.0000000000000D+00
   330  3.2900000000000D+00  0.0000000000000D+00  0.0000000000000D+00
   331  3.3000000000000D+00  0.0000000000000D+00  0.0000000000000D+00
   332  3.3100000000000D+00  0.0000000000000D+00  0.0000000000000D+00
   333  3.3200000000000D+00  0.0000000000000D+00  0.0000000000000D+00
   334  3.3300000000000D+00  0.0000000000000D+00  0.0000000000000D+00
   335  3.3400000000000D+00  0.0000000000000D+00  0.0000000000000D+00
   336  3.3500000000000D+00  0.0000000000000D+00  0.0000000000000D+00
   337  3.3600000000000D+00  0.0000000000000D+00  0.0000000000000D+00
   338  3.3700000000000D+00  0.0000000000000D+00  0.0000000000000D+00
   339  3.3800000000000D+00  0.0000000000000D+00  0.0000000000000D+00
   340  3.3900000000000D+00  0.0000000000000D+00  0.0000000000000D+00
   341  3.4000000000000D+00  0.0000000000000D+00  0.0000000000000D+00
   342  3.4100000000000D+00  0.0000000000000D+00  0.0000000000000D+00
   343  3.4200000000000D+00  0.0000000000000D+00  0.0000000000000D+00
   344  3.4300000000000D+00  0.0000000000000D+00  0.0000000000000D+00
   345  3.4400000000000D+00  0.0000000000000D+00  0.0000000000000D+00
   346  3.4500000000000D+00  0.0000000000000D+00  0.0000000000000D+00
   347  3.4600000000000D+00  0.0000000000000D+00  0.0000000000000D+00
   348  3.4700000000000D+00  0.0000000000000D+00  0.0000000000000D+00
   349  3.4800000000000D+00  0.0000000000000D+00  0.0000000000000D+00
   350  3.4900000000000D+00  0.0000000000000D+00  0.0000000000000D+00
   351  3.5000000000000D+00  0.0000000000000D+00  0.0000000000000D+00
   352  3.5100000000000D+00  0.0000000000000D+00  0.0000000000000D+00
   353  3.5200000000000D+00  0.0000000000000D+00  0.0000000000000D+00
   354  3.5300000000000D+00  0.0000000000000D+00  0.0000000000000D+00
   355  3.5400000000000D+00  0.0000000000000D+00  0.0000000000000D+00
   356  3.5500000000000D+00  0.0000000000000D+00  0.0000000000000D+00
   357  3.5600000000000D+00  0.0000000000000D+00  0.0000000000000D+00
   358  3.5700000000000D+00  0.0000000000000D+00  0.0000000000000D+00
   359  3.5800000000000D+00  0.0000000000000D+00  0.0000000000000D+00
   360  3.5900000000000D+00  0.0000000000000D+00  0.0000000000000D+00
   361  3.6000000000000D+00  0.0000000000000D+00  0.0000000000000D+00
   362  3.6100000000000D+00  0.0000000000000D+00  0.0000000000000D+00
   363  3.6200000000000D+00  0.0000000000000D+00  0.0000000000000D+00
   364  3.6300000000000D+00  0.0000000000000D+00  0.0000000000000D+00
   365  3.6400000000000D+00  0.0000000000000D+00  0.0000000000000D+00
   366  3.6500000000000D+00  0.0000000000000D+00  0.0000000000000D+00
   367  3.6600000000000D+00  0.0000000000000D+00  0.0000000000000D+00
   368  3.6700000000000D+00  0.0000000000000D+00  0.0000000000000D+00
   369  3.6800000000000D+00  0.0000000000000D+00  0.0000000000000D+00
   370  3.6900000000000D+00  0.0000000000000D+00  0.0000000000000D+00
   371  3.7000000000000D+00  0.0000000000000D+00  0.0000000000000D+00
   372  3.7100000000000D+00  0.0000000000000D+00  0.0000000000000D+00
   373  3.7200000000000D+00  0.0000000000000D+00  0.0000000000000D+00
   374  3.7300000000000D+00  0.0000000000000D+00  0.0000000000000D+00
   375  3.7400000000000D+00  0.0000000000000D+00  0.0000000000000D+00
   376  3.7500000000000D+00  0.0000000000000D+00  0.0000000000000D+00
   377  3.7600000000000D+00  0.0000000000000D+00  0.0000000000000D+00
   378  3.7700000000000D+00  0.0000000000000D+00  0.0000000000000D+00
   379  3.7800000000000D+00  0.0000000000000D+00  0.0000000000000D+00
   380  3.7900000000000D+00  0.0000000000000D+00  0.0000000000000D+00
   381  3.8000000000000D+00  0.0000000000000D+00  0.0000000000000D+00
   382  3.8100000000000D+00  0.0000000000000D+00  0.0000000000000D+00
   383  3.8200000000000D+00  0.0000000000000D+00  0.0000000000000D+00
   384  3.8300000000000D+00  0.0000000000000D+00  0.0000000000000D+00
   385  3.8400000000000D+00  0.0000000000000D+00  0.0000000000000D+00
   386  3.8500000000000D+00  0.0000000000000D+00  0.0000000000000D+00
   387  3.8600000000000D+00  0.0000000000000D+00  0.0000000000000D+00
   388  3.8700000000000D+00  0.0000000000000D+00  0.0000000000000D+00
   389  3.8800000000000D+00  0.0000000000000D+00  0.0000000000000D+00
   390  3.8900000000000D+00  0.0000000000000D+00  0.0000000000000D+00
   391  3.9000000000000D+00  0.0000000000000D+00  0.0000000000000D+00
   392  3.9100000000000D+00  0.0000000000000D+00  0.0000000000000D+00
   393  3.9200000000000D+00  0.0000000000000D+00  0.0000000000000D+00
   394  3.9300000000000D+00  0.0000000000000D+00  0.0000000000000D+00
   395  3.9400000000000D+00  0.0000000000000D+00  0.0000000000000D+00
   396  3.9500000000000D+00  0.0000000000000D+00  0.0000000000000D+00
   397  3.9600000000000D+00  0.0000000000000D+00  0.0000000000000D+00
   398  3.9700000000000D+00  0.0000000000000D+00  0.0000000000000D+00
   399  3.9800000000000D+00  0.0000000000000D+00  0.0000000000000D+00
   400  3.9900000000000D+00  0.0000000000000D+00  0.0000000000000D+00
   401  4.0000000000000D+00  0.0000000000000D+00  0.0000000000000D+00
   402  4.0100000000000D+00  0.0000000000000D+00  0.0000000000000D+00
   403  4.0200000000000D+00  0.0000000000000D+00  0.0000000000000D+00
   404  4.0300000000000D+00  0.0000000000000D+00  0.0000000000000D+00
   405  4.0400000000000D+00  0.0000000000000D+00  0.0000000000000D+00
   406  4.0500000000000D+00  0.0000000000000D+00  0.0000000000000D+00
   407  4.0600000000000D+00  0.0000000000000D+00  0.0000000000000D+00
   408  4.0700000000000D+00  0.0000000000000D+00  0.0000000000000D+00
   409  4.0800000000000D+00  0.0000000000000D+00  0.0000000000000D+00
   410  4.0900000000000D+00  0.0000000000000D+00  0.0000000000000D+00
   411  4.1000000000000D+00  0.0000000000000D+00  0.0000000000000D+00
   412  4.1100000000000D+00  0.0000000000000D+00  0.0000000000000D+00
   413  4.1200000000000D+00  0.0000000000000D+00  0.0000000000000D+00
   414  4.1300000000000D+00  0.0000000000000D+00  0.0000000000000D+00
   415  4.1400000000000D+00  0.0000000000000D+00  0.0000000000000D+00
   416  4.1500000000000D+00  0.0000000000000D+00  0.0000000000000D+00
   417  4.1600000000000D+00  0.0000000000000D+00  0.0000000000000D+00
   418  4.1700000000000D+00  0.0000000000000D+00  0.0000000000000D+00
   419  4.1800000000000D+00  0.0000000000000D+00  0.0000000000000D+00
   420  4.1900000000000D+00  0.0000000000000D+00  0.0000000000000D+00
   421  4.2000000000000D+00  0.0000000000000D+00  0.0000000000000D+00
   422  4.2100000000000D+00  0.0000000000000D+00  0.0000000000000D+00