W     ONCVPSP-3.3.1  r_core=   2.17082   2.22323   1.90387   3.06802
     74.0000     28.0000      210905    zatom,zion,pspd
     8 -116133   3     4   600     0    pspcod,pspxc,lmax,lloc,mmax,r2well
  5.99000000  0.00000000  0.00000000    rchrg fchrg qchrg
     2     4     4     3    nproj
     3     1           extension_switch
     4     4     3    nprojso
   0                         9.2663802340216D-01  7.8163602895604D+00
     1  0.0000000000000D+00 -2.0036181047622D-11  9.5917163100978D-12
     2  1.0000000000000D-02 -1.5643073942021D-02  6.0936701578288D-02
     3  2.0000000000000D-02 -3.1213473932179D-02  1.2177316843738D-01
     4  3.0000000000000D-02 -4.6638661548579D-02  1.8240932888283D-01
     5  4.0000000000000D-02 -6.1846369661106D-02  2.4274543724678D-01
     6  5.0000000000000D-02 -7.6764738651794D-02  3.0268223684132D-01
     7  6.0000000000000D-02 -9.1322453310270D-02  3.6212112283325D-01
     8  7.0000000000000D-02 -1.0544888060562D-01  4.2096430500251D-01
     9  8.0000000000000D-02 -1.1907420851596D-01  4.7911497033721D-01
    10  9.0000000000000D-02 -1.3212958607239D-01  5.3647744540629D-01
    11  1.0000000000000D-01 -1.4454726474468D-01  5.9295735843695D-01
    12  1.1000000000000D-01 -1.5626074126301D-01  6.4846180100800D-01
    13  1.2000000000000D-01 -1.6720490193264D-01  7.0289948925284D-01
    14  1.3000000000000D-01 -1.7731616845777D-01  7.5618092444620D-01
    15  1.4000000000000D-01 -1.8653264524704D-01  8.0821855282795D-01
    16  1.5000000000000D-01 -1.9479426812642D-01  8.5892692449562D-01
    17  1.6000000000000D-01 -2.0204295433624D-01  9.0822285117358D-01
    18  1.7000000000000D-01 -2.0822275363850D-01  9.5602556264371D-01
    19  1.8000000000000D-01 -2.1328000030823D-01  1.0022568615974D+00
    20  1.9000000000000D-01 -2.1716346572975D-01  1.0468412766441D+00
    21  2.0000000000000D-01 -2.1982451126503D-01  1.0897062131875D+00
    22  2.1000000000000D-01 -2.2121724100853D-01  1.1307821018556D+00
    23  2.2000000000000D-01 -2.2129865398967D-01  1.1700025441452D+00
    24  2.3000000000000D-01 -2.2002879533322D-01  1.2073044549231D+00
    25  2.4000000000000D-01 -2.1737090583791D-01  1.2426282013967D+00
    26  2.5000000000000D-01 -2.1329156938626D-01  1.2759177381537D+00
    27  2.6000000000000D-01 -2.0776085755392D-01  1.3071207378452D+00
    28  2.7000000000000D-01 -2.0075247074536D-01  1.3361887170715D+00
    29  2.8000000000000D-01 -1.9224387514511D-01  1.3630771570156D+00
    30  2.9000000000000D-01 -1.8221643473993D-01  1.3877456183539D+00
    31  3.0000000000000D-01 -1.7065553763882D-01  1.4101578499635D+00
    32  3.1000000000000D-01 -1.5755071589323D-01  1.4302818909400D+00
    33  3.2000000000000D-01 -1.4289575800145D-01  1.4480901654297D+00
    34  3.3000000000000D-01 -1.2668881326837D-01  1.4635595697846D+00
    35  3.4000000000000D-01 -1.0893248718415D-01  1.4766715515422D+00
    36  3.5000000000000D-01 -8.9633926985241D-02  1.4874121797442D+00
    37  3.6000000000000D-01 -6.8804896565958D-02  1.4957722061100D+00
    38  3.7000000000000D-01 -4.6461839921496D-02  1.5017471165956D+00
    39  3.8000000000000D-01 -2.2625932321349D-02  1.5053371728831D+00
    40  3.9000000000000D-01  2.6768815618400D-03  1.5065474433618D+00
    41  4.0000000000000D-01  2.9415863311745D-02  1.5053878231896D+00
    42  4.1000000000000D-01  5.7555470920526D-02  1.5018730430412D+00
    43  4.2000000000000D-01  8.7055364093004D-02  1.4960226661865D+00
    44  4.3000000000000D-01  1.1787042531102D-01  1.4878610735693D+00
    45  4.4000000000000D-01  1.4995079720749D-01  1.4774174365952D+00
    46  4.5000000000000D-01  1.8324193673670D-01  1.4647256773759D+00
    47  4.6000000000000D-01  2.1768468655750D-01  1.4498244162174D+00
    48  4.7000000000000D-01  2.5321536397153D-01  1.4327569061879D+00
    49  4.8000000000000D-01  2.8976586767909D-01  1.4135709546454D+00
    50  4.9000000000000D-01  3.2726380253085D-01  1.3923188316551D+00
    51  5.0000000000000D-01  3.6563262236602D-01  1.3690571652816D+00
    52  5.1000000000000D-01  4.0479179093537D-01  1.3438468237910D+00
    53  5.2000000000000D-01  4.4465696081364D-01  1.3167527848555D+00
    54  5.3000000000000D-01  4.8514017010817D-01  1.2878439919100D+00
    55  5.4000000000000D-01  5.2615005667251D-01  1.2571931978667D+00
    56  5.5000000000000D-01  5.6759208943365D-01  1.2248767964530D+00
    57  5.6000000000000D-01  6.0936881634064D-01  1.1909746414970D+00
    58  5.7000000000000D-01  6.5138012834300D-01  1.1555698545422D+00
    59  5.8000000000000D-01  6.9352353870680D-01  1.1187486212329D+00
    60  5.9000000000000D-01  7.3569447687897D-01  1.0805999769677D+00
    61  6.0000000000000D-01  7.7778659601405D-01  1.0412155823774D+00
    62  6.1000000000000D-01  8.1969209318459D-01  1.0006894892347D+00
    63  6.2000000000000D-01  8.6130204120666D-01  9.5911789746078D-01
    64  6.3000000000000D-01  9.0250673092631D-01  9.1659890394197D-01
    65  6.4000000000000D-01  9.4319602273200D-01  8.7323224391802D-01
    66  6.5000000000000D-01  9.8325970598218D-01  8.2911902575167D-01
    67  6.6000000000000D-01  1.0225878649677D+00  7.8436145992927D-01
    68  6.7000000000000D-01  1.0610712499654D+00  7.3906258318275D-01
    69  6.8000000000000D-01  1.0986016518827D+00  6.9332597865813D-01
    70  6.9000000000000D-01  1.1350722789442D+00  6.4725549308734D-01
    71  7.0000000000000D-01  1.1703781338305D+00  6.0095495194731D-01
    72  7.1000000000000D-01  1.2044163896459D+00  5.5452787361309D-01
    73  7.2000000000000D-01  1.2370867630671D+00  5.0807718352968D-01
    74  7.3000000000000D-01  1.2682918830115D+00  4.6170492944092D-01
    75  7.4000000000000D-01  1.2979376531542D+00  4.1551199872181D-01
    76  7.5000000000000D-01  1.3259336066274D+00  3.6959783886394D-01
    77  7.6000000000000D-01  1.3521932512485D+00  3.2406018216226D-01
    78  7.7000000000000D-01  1.3766344036422D+00  2.7899477564370D-01
    79  7.8000000000000D-01  1.3991795106565D+00  2.3449511726645D-01
    80  7.9000000000000D-01  1.4197559565081D+00  1.9065219940090D-01
    81  8.0000000000000D-01  1.4382963541456D+00  1.4755426058065D-01
    82  8.1000000000000D-01  1.4547388193770D+00  1.0528654648417D-01
    83  8.2000000000000D-01  1.4690272263719D+00  6.3931081075048D-02
    84  8.3000000000000D-01  1.4811114432285D+00  2.3566448790933D-02
    85  8.4000000000000D-01  1.4909475463755D+00 -1.5732411370824D-02
    86  8.5000000000000D-01  1.4984980126738D+00 -5.3894399069921D-02
    87  8.6000000000000D-01  1.5037318881771D+00 -9.0852432392246D-02
    88  8.7000000000000D-01  1.5066249326196D+00 -1.2654361347667D-01
    89  8.8000000000000D-01  1.5071597388077D+00 -1.6090937936370D-01
    90  8.9000000000000D-01  1.5053258262103D+00 -1.9389563749233D-01
    91  9.0000000000000D-01  1.5011197081626D+00 -2.2545288533733D-01
    92  9.1000000000000D-01  1.4945449322259D+00 -2.5553631374704D-01
    93  9.2000000000000D-01  1.4856120933736D+00 -2.8410589361284D-01
    94  9.3000000000000D-01  1.4743388198044D+00 -3.1112644557392D-01
    95  9.4000000000000D-01  1.4607497313200D+00 -3.3656769253572D-01
    96  9.5000000000000D-01  1.4448763703364D+00 -3.6040429485576D-01
    97  9.6000000000000D-01  1.4267571057349D+00 -3.8261586812701D-01
    98  9.7000000000000D-01  1.4064370098923D+00 -4.0318698356659D-01
    99  9.8000000000000D-01  1.3839677093640D+00 -4.2210715109350D-01
   100  9.9000000000000D-01  1.3594072098231D+00 -4.3937078525650D-01
   101  1.0000000000000D+00  1.3328196959893D+00 -4.5497715424803D-01
   102  1.0100000000000D+00  1.3042753074028D+00 -4.6893031231497D-01
   103  1.0200000000000D+00  1.2738498910219D+00 -4.8123901595073D-01
   104  1.0300000000000D+00  1.2416247317336D+00 -4.9191662431991D-01
   105  1.0400000000000D+00  1.2076862619784D+00 -5.0098098443997D-01
   106  1.0500000000000D+00  1.1721257517931D+00 -5.0845430170595D-01
   107  1.0600000000000D+00  1.1350389806663D+00 -5.1436299640746D-01
   108  1.0700000000000D+00  1.0965258926955D+00 -5.1873754694601D-01
   109  1.0800000000000D+00  1.0566902366042D+00 -5.2161232051379D-01
   110  1.0900000000000D+00  1.0156391922543D+00 -5.2302539204572D-01
   111  1.1000000000000D+00  9.7348298534770D-01 -5.2301835230407D-01
   112  1.1100000000000D+00  9.3033449206072D-01 -5.2163610599357D-01
   113  1.1200000000000D+00  8.8630883539570D-01 -5.1892666084392D-01
   114  1.1300000000000D+00  8.4152297506300D-01 -5.1494090862164D-01
   115  1.1400000000000D+00  7.9609529273068D-01 -5.0973239906730D-01
   116  1.1500000000000D+00  7.5014517448418D-01 -5.0335710776794D-01
   117  1.1600000000000D+00  7.0379259233355D-01 -4.9587319899128D-01
   118  1.1700000000000D+00  6.5715768660313D-01 -4.8734078451672D-01
   119  1.1800000000000D+00  6.1036035100581D-01 -4.7782167950392D-01
   120  1.1900000000000D+00  5.6351982217186D-01 -4.6737915643418D-01
   121  1.2000000000000D+00  5.1675427535701D-01 -4.5607769815259D-01
   122  1.2100000000000D+00  4.7018042801330D-01 -4.4398275103087D-01
   123  1.2200000000000D+00  4.2391315282291D-01 -4.3116047924594D-01
   124  1.2300000000000D+00  3.7806510171141D-01 -4.1767752113993D-01
   125  1.2400000000000D+00  3.3274634233539D-01 -4.0360074862203D-01
   126  1.2500000000000D+00  2.8806400837206D-01 -3.8899703051126D-01
   127  1.2600000000000D+00  2.4412196485817D-01 -3.7393300068423D-01
   128  1.2700000000000D+00  2.0102048978425D-01 -3.5847483187804D-01
   129  1.2800000000000D+00  1.5885597295516D-01 -3.4268801591795D-01
   130  1.2900000000000D+00  1.1772063300664D-01 -3.2663715108387D-01
   131  1.3000000000000D+00  7.7702253457986D-02 -3.1038573732814D-01
   132  1.3100000000000D+00  3.8883938423192D-02 -2.9399597994255D-01
   133  1.3200000000000D+00  1.3438884690865D-03 -2.7752860220695D-01
   134  1.3300000000000D+00 -3.4844802837120D-02 -2.6104266758090D-01
   135  1.3400000000000D+00 -6.9614331547574D-02 -2.4459541181059D-01
   136  1.3500000000000D+00 -1.0290234497830D-01 -2.2824208531847D-01
   137  1.3600000000000D+00 -1.3465208226564D-01 -2.1203580623394D-01
   138  1.3700000000000D+00 -1.6481249415349D-01 -1.9602742420602D-01
   139  1.3800000000000D+00 -1.9333834216457D-01 -1.8026539522004D-01
   140  1.3900000000000D+00 -2.2019027756561D-01 -1.6479566751521D-01
   141  1.4000000000000D+00 -2.4533490082046D-01 -1.4966157854257D-01
   142  1.4100000000000D+00 -2.6874480194440D-01 -1.3490376305829D-01
   143  1.4200000000000D+00 -2.9039858279268D-01 -1.2056007211098D-01
   144  1.4300000000000D+00 -3.1028086205568D-01 -1.0666550281779D-01
   145  1.4400000000000D+00 -3.2838226394021D-01 -9.3252138720154D-02
   146  1.4500000000000D+00 -3.4469939183438D-01 -8.0349100308698D-02
   147  1.4600000000000D+00 -3.5923478788310D-01 -6.7982505541325D-02
   148  1.4700000000000D+00 -3.7199688005259D-01 -5.6175439771264D-02
   149  1.4800000000000D+00 -3.8299991784420D-01 -4.4947934760116D-02
   150  1.4900000000000D+00 -3.9226389819821D-01 -3.4316956217609D-02
   151  1.5000000000000D+00 -3.9981448307598D-01 -2.4296399309473D-02
   152  1.5100000000000D+00 -4.0568291020283D-01 -1.4897091627291D-02
   153  1.5200000000000D+00 -4.0990589865052D-01 -6.1268028847872D-03
   154  1.5300000000000D+00 -4.1252555076667D-01  2.0097391650403D-03
   155  1.5400000000000D+00 -4.1358925215565D-01  9.5108273937296D-03
   156  1.5500000000000D+00 -4.1314957129287D-01  1.6377749128063D-02
   157  1.5600000000000D+00 -4.1126416042852D-01  2.2614755924658D-02
   158  1.5700000000000D+00 -4.0799565935303D-01  2.8229029954196D-02
   159  1.5800000000000D+00 -4.0341160368355D-01  3.3230647754557D-02
   160  1.5900000000000D+00 -3.9758433907496D-01  3.7632542030454D-02
   161  1.6000000000000D+00 -3.9059095438567D-01  4.1450465838921D-02
   162  1.6100000000000D+00 -3.8251315835894D-01  4.4702935626361D-02
   163  1.6200000000000D+00 -3.7343739627875D-01  4.7411247293730D-02
   164  1.6300000000000D+00 -3.6345434475819D-01  4.9599290932584D-02
   165  1.6400000000000D+00 -3.5265928479120D-01  5.1293645775890D-02
   166  1.6500000000000D+00 -3.4115312836618D-01  5.2523871725538D-02
   167  1.6600000000000D+00 -3.2903923336194D-01  5.3321474494095D-02
   168  1.6700000000000D+00 -3.1642095210125D-01  5.3719102992559D-02
   169  1.6800000000000D+00 -3.0339930167123D-01  5.3749742234354D-02
   170  1.6900000000000D+00 -2.9006952282731D-01  5.3445558513030D-02
   171  1.7000000000000D+00 -2.7652185920208D-01  5.2838070012530D-02
   172  1.7100000000000D+00 -2.6284198573041D-01  5.1958197834510D-02
   173  1.7200000000000D+00 -2.4911029811966D-01  5.0835971453334D-02
   174  1.7300000000000D+00 -2.3540204684263D-01  4.9500495607564D-02
   175  1.7400000000000D+00 -2.2178719169125D-01  4.7979832602218D-02
   176  1.7500000000000D+00 -2.0833036716876D-01  4.6300920911465D-02
   177  1.7600000000000D+00 -1.9509086045866D-01  4.4489499999784D-02
   178  1.7700000000000D+00 -1.8212261302258D-01  4.2570044607469D-02
   179  1.7800000000000D+00 -1.6947424781486D-01  4.0565709591943D-02
   180  1.7900000000000D+00 -1.5718911939237D-01  3.8498284276920D-02
   181  1.8000000000000D+00 -1.4530538804766D-01  3.6388157046581D-02
   182  1.8100000000000D+00 -1.3385611561102D-01  3.4254289288459D-02
   183  1.8200000000000D+00 -1.2286938312152D-01  3.2114199003956D-02
   184  1.8300000000000D+00 -1.1236842860629D-01  2.9983953457441D-02
   185  1.8400000000000D+00 -1.0237180409461D-01  2.7878170678077D-02
   186  1.8500000000000D+00 -9.2893550831279D-02  2.5810029533726D-02
   187  1.8600000000000D+00 -8.3943390745097D-02  2.3791287657951D-02
   188  1.8700000000000D+00 -7.5526933812949D-02  2.1832307305780D-02
   189  1.8800000000000D+00 -6.7645898539971D-02  1.9942087957520D-02
   190  1.8900000000000D+00 -6.0298345519480D-02  1.8128305967243D-02
   191  1.9000000000000D+00 -5.3478921112967D-02  1.6397359907247D-02
   192  1.9100000000000D+00 -4.7179110762087D-02  1.4754421736283D-02
   193  1.9200000000000D+00 -4.1387499603181D-02  1.3203492717136D-02
   194  1.9300000000000D+00 -3.6090039009640D-02  1.1747463742085D-02
   195  1.9400000000000D+00 -3.1270317405743D-02  1.0388179391226D-02
   196  1.9500000000000D+00 -2.6909833601502D-02  9.1265050469679D-03
   197  1.9600000000000D+00 -2.2988270839917D-02  7.9623964966940D-03
   198  1.9700000000000D+00 -1.9483770541316D-02  6.8949714495292D-03
   199  1.9800000000000D+00 -1.6373202888088D-02  5.9225821081878D-03
   200  1.9900000000000D+00 -1.3632434269820D-02  5.0428885714111D-03
   201  2.0000000000000D+00 -1.1236588454710D-02  4.2529320200177D-03
   202  2.0100000000000D+00 -9.1603010057776D-03  3.5492074087047D-03
   203  2.0200000000000D+00 -7.3779655364041D-03  2.9277350987130D-03
   204  2.0300000000000D+00 -5.8639689030341D-03  2.3841303721450D-03
   205  2.0400000000000D+00 -4.5929171046595D-03  1.9136713633466D-03
   206  2.0500000000000D+00 -3.5398465299639D-03  1.5113634474479D-03
   207  2.0600000000000D+00 -2.6804233497533D-03  1.1720010342993D-03
   208  2.0700000000000D+00 -1.9911276485048D-03  8.9022547287763D-04
   209  2.0800000000000D+00 -1.4494209742903D-03  6.6057852838393D-04
   210  2.0900000000000D+00 -1.0338999810954D-03  4.7755239429211D-04
   211  2.1000000000000D+00 -7.2458481716032D-04  3.3566981235573D-04
   212  2.1100000000000D+00 -5.0251445280215D-04  2.2940242085824D-04
   213  2.1200000000000D+00 -3.5002456438495D-04  1.5324065235828D-04
   214  2.1300000000000D+00 -2.4990986093003D-04  1.0139944855818D-04
   215  2.1400000000000D+00 -1.9298121053017D-04  7.0126365303984D-05
   216  2.1500000000000D+00 -1.7124701200428D-04  5.5753310977506D-05
   217  2.1600000000000D+00 -1.6591065859109D-04  5.0872909542009D-05
   218  2.1700000000000D+00 -1.5003061435122D-04  4.5346639709774D-05
   219  2.1800000000000D+00 -9.8461822688284D-05  2.9706995730473D-05
   220  2.1900000000000D+00 -3.6078772592801D-05  1.0915703654178D-05
   221  2.2000000000000D+00  7.7789213343872D-06 -2.3251002932555D-06
   222  2.2100000000000D+00  1.5120591194271D-05 -4.5177689081517D-06
   223  2.2200000000000D+00  4.6584706356991D-06 -1.3919427147564D-06
   224  2.2300000000000D+00 -2.7495781562912D-06  8.1545976511992D-07
   225  2.2400000000000D+00 -3.0083655356681D-06  8.9131239529741D-07
   226  2.2500000000000D+00  5.4979752874807D-09 -1.6617450343734D-09
   227  2.2600000000000D+00  3.9924800006024D-07 -1.2067140117823D-07
   228  2.2700000000000D+00  2.8680986733478D-07 -8.6687343600491D-08
   229  2.2800000000000D+00  0.0000000000000D+00  0.0000000000000D+00
   230  2.2900000000000D+00  0.0000000000000D+00  0.0000000000000D+00
   231  2.3000000000000D+00  0.0000000000000D+00  0.0000000000000D+00
   232  2.3100000000000D+00  0.0000000000000D+00  0.0000000000000D+00
   233  2.3200000000000D+00  0.0000000000000D+00  0.0000000000000D+00
   234  2.3300000000000D+00  0.0000000000000D+00  0.0000000000000D+00
   235  2.3400000000000D+00  0.0000000000000D+00  0.0000000000000D+00
   236  2.3500000000000D+00  0.0000000000000D+00  0.0000000000000D+00
   237  2.3600000000000D+00  0.0000000000000D+00  0.0000000000000D+00
   238  2.3700000000000D+00  0.0000000000000D+00  0.0000000000000D+00
   239  2.3800000000000D+00  0.0000000000000D+00  0.0000000000000D+00
   240  2.3900000000000D+00  0.0000000000000D+00  0.0000000000000D+00
   241  2.4000000000000D+00  0.0000000000000D+00  0.0000000000000D+00
   242  2.4100000000000D+00  0.0000000000000D+00  0.0000000000000D+00
   243  2.4200000000000D+00  0.0000000000000D+00  0.0000000000000D+00
   244  2.4300000000000D+00  0.0000000000000D+00  0.0000000000000D+00
   245  2.4400000000000D+00  0.0000000000000D+00  0.0000000000000D+00
   246  2.4500000000000D+00  0.0000000000000D+00  0.0000000000000D+00
   247  2.4600000000000D+00  0.0000000000000D+00  0.0000000000000D+00
   248  2.4700000000000D+00  0.0000000000000D+00  0.0000000000000D+00
   249  2.4800000000000D+00  0.0000000000000D+00  0.0000000000000D+00
   250  2.4900000000000D+00  0.0000000000000D+00  0.0000000000000D+00
   251  2.5000000000000D+00  0.0000000000000D+00  0.0000000000000D+00
   252  2.5100000000000D+00  0.0000000000000D+00  0.0000000000000D+00
   253  2.5200000000000D+00  0.0000000000000D+00  0.0000000000000D+00
   254  2.5300000000000D+00  0.0000000000000D+00  0.0000000000000D+00
   255  2.5400000000000D+00  0.0000000000000D+00  0.0000000000000D+00
   256  2.5500000000000D+00  0.0000000000000D+00  0.0000000000000D+00
   257  2.5600000000000D+00  0.0000000000000D+00  0.0000000000000D+00
   258  2.5700000000000D+00  0.0000000000000D+00  0.0000000000000D+00
   259  2.5800000000000D+00  0.0000000000000D+00  0.0000000000000D+00
   260  2.5900000000000D+00  0.0000000000000D+00  0.0000000000000D+00
   261  2.6000000000000D+00  0.0000000000000D+00  0.0000000000000D+00
   262  2.6100000000000D+00  0.0000000000000D+00  0.0000000000000D+00
   263  2.6200000000000D+00  0.0000000000000D+00  0.0000000000000D+00
   264  2.6300000000000D+00  0.0000000000000D+00  0.0000000000000D+00
   265  2.6400000000000D+00  0.0000000000000D+00  0.0000000000000D+00
   266  2.6500000000000D+00  0.0000000000000D+00  0.0000000000000D+00
   267  2.6600000000000D+00  0.0000000000000D+00  0.0000000000000D+00
   268  2.6700000000000D+00  0.0000000000000D+00  0.0000000000000D+00
   269  2.6800000000000D+00  0.0000000000000D+00  0.0000000000000D+00
   270  2.6900000000000D+00  0.0000000000000D+00  0.0000000000000D+00
   271  2.7000000000000D+00  0.0000000000000D+00  0.0000000000000D+00
   272  2.7100000000000D+00  0.0000000000000D+00  0.0000000000000D+00
   273  2.7200000000000D+00  0.0000000000000D+00  0.0000000000000D+00
   274  2.7300000000000D+00  0.0000000000000D+00  0.0000000000000D+00
   275  2.7400000000000D+00  0.0000000000000D+00  0.0000000000000D+00
   276  2.7500000000000D+00  0.0000000000000D+00  0.0000000000000D+00
   277  2.7600000000000D+00  0.0000000000000D+00  0.0000000000000D+00
   278  2.7700000000000D+00  0.0000000000000D+00  0.0000000000000D+00
   279  2.7800000000000D+00  0.0000000000000D+00  0.0000000000000D+00
   280  2.7900000000000D+00  0.0000000000000D+00  0.0000000000000D+00
   281  2.8000000000000D+00  0.0000000000000D+00  0.0000000000000D+00
   282  2.8100000000000D+00  0.0000000000000D+00  0.0000000000000D+00
   283  2.8200000000000D+00  0.0000000000000D+00  0.0000000000000D+00
   284  2.8300000000000D+00  0.0000000000000D+00  0.0000000000000D+00
   285  2.8400000000000D+00  0.0000000000000D+00  0.0000000000000D+00
   286  2.8500000000000D+00  0.0000000000000D+00  0.0000000000000D+00
   287  2.8600000000000D+00  0.0000000000000D+00  0.0000000000000D+00
   288  2.8700000000000D+00  0.0000000000000D+00  0.0000000000000D+00
   289  2.8800000000000D+00  0.0000000000000D+00  0.0000000000000D+00
   290  2.8900000000000D+00  0.0000000000000D+00  0.0000000000000D+00
   291  2.9000000000000D+00  0.0000000000000D+00  0.0000000000000D+00
   292  2.9100000000000D+00  0.0000000000000D+00  0.0000000000000D+00
   293  2.9200000000000D+00  0.0000000000000D+00  0.0000000000000D+00
   294  2.9300000000000D+00  0.0000000000000D+00  0.0000000000000D+00
   295  2.9400000000000D+00  0.0000000000000D+00  0.0000000000000D+00
   296  2.9500000000000D+00  0.0000000000000D+00  0.0000000000000D+00
   297  2.9600000000000D+00  0.0000000000000D+00  0.0000000000000D+00
   298  2.9700000000000D+00  0.0000000000000D+00  0.0000000000000D+00
   299  2.9800000000000D+00  0.0000000000000D+00  0.0000000000000D+00
   300  2.9900000000000D+00  0.0000000000000D+00  0.0000000000000D+00
   301  3.0000000000000D+00  0.0000000000000D+00  0.0000000000000D+00
   302  3.0100000000000D+00  0.0000000000000D+00  0.0000000000000D+00
   303  3.0200000000000D+00  0.0000000000000D+00  0.0000000000000D+00
   304  3.0300000000000D+00  0.0000000000000D+00  0.0000000000000D+00
   305  3.0400000000000D+00  0.0000000000000D+00  0.0000000000000D+00
   306  3.0500000000000D+00  0.0000000000000D+00  0.0000000000000D+00
   307  3.0600000000000D+00  0.0000000000000D+00  0.0000000000000D+00
   308  3.0700000000000D+00  0.0000000000000D+00  0.0000000000000D+00
   309  3.0800000000000D+00  0.0000000000000D+00  0.0000000000000D+00
   310  3.0900000000000D+00  0.0000000000000D+00  0.0000000000000D+00
   311  3.1000000000000D+00  0.0000000000000D+00  0.0000000000000D+00
   312  3.1100000000000D+00  0.0000000000000D+00  0.0000000000000D+00
   313  3.1200000000000D+00  0.0000000000000D+00  0.0000000000000D+00
   314  3.1300000000000D+00  0.0000000000000D+00  0.0000000000000D+00
   315  3.1400000000000D+00  0.0000000000000D+00  0.0000000000000D+00
   316  3.1500000000000D+00  0.0000000000000D+00  0.0000000000000D+00
   317  3.1600000000000D+00  0.0000000000000D+00  0.0000000000000D+00
   318  3.1700000000000D+00  0.0000000000000D+00  0.0000000000000D+00
   319  3.1800000000000D+00  0.0000000000000D+00  0.0000000000000D+00
   320  3.1900000000000D+00  0.0000000000000D+00  0.0000000000000D+00
   321  3.2000000000000D+00  0.0000000000000D+00  0.0000000000000D+00
   322  3.2100000000000D+00  0.0000000000000D+00  0.0000000000000D+00
   323  3.2200000000000D+00  0.0000000000000D+00  0.0000000000000D+00
   324  3.2300000000000D+00  0.0000000000000D+00  0.0000000000000D+00
   325  3.2400000000000D+00  0.0000000000000D+00  0.0000000000000D+00
   326  3.2500000000000D+00  0.0000000000000D+00  0.0000000000000D+00
   327  3.2600000000000D+00  0.0000000000000D+00  0.0000000000000D+00
   328  3.2700000000000D+00  0.0000000000000D+00  0.0000000000000D+00
   329  3.2800000000000D+00  0.0000000000000D+00  0.0000000000000D+00
   330  3.2900000000000D+00  0.0000000000000D+00  0.0000000000000D+00
   331  3.3000000000000D+00  0.0000000000000D+00  0.0000000000000D+00
   332  3.3100000000000D+00  0.0000000000000D+00  0.0000000000000D+00
   333  3.3200000000000D+00  0.0000000000000D+00  0.0000000000000D+00
   334  3.3300000000000D+00  0.0000000000000D+00  0.0000000000000D+00
   335  3.3400000000000D+00  0.0000000000000D+00  0.0000000000000D+00
   336  3.3500000000000D+00  0.0000000000000D+00  0.0000000000000D+00
   337  3.3600000000000D+00  0.0000000000000D+00  0.0000000000000D+00
   338  3.3700000000000D+00  0.0000000000000D+00  0.0000000000000D+00
   339  3.3800000000000D+00  0.0000000000000D+00  0.0000000000000D+00
   340  3.3900000000000D+00  0.0000000000000D+00  0.0000000000000D+00
   341  3.4000000000000D+00  0.0000000000000D+00  0.0000000000000D+00
   342  3.4100000000000D+00  0.0000000000000D+00  0.0000000000000D+00
   343  3.4200000000000D+00  0.0000000000000D+00  0.0000000000000D+00
   344  3.4300000000000D+00  0.0000000000000D+00  0.0000000000000D+00
   345  3.4400000000000D+00  0.0000000000000D+00  0.0000000000000D+00
   346  3.4500000000000D+00  0.0000000000000D+00  0.0000000000000D+00
   347  3.4600000000000D+00  0.0000000000000D+00  0.0000000000000D+00
   348  3.4700000000000D+00  0.0000000000000D+00  0.0000000000000D+00
   349  3.4800000000000D+00  0.0000000000000D+00  0.0000000000000D+00
   350  3.4900000000000D+00  0.0000000000000D+00  0.0000000000000D+00
   351  3.5000000000000D+00  0.0000000000000D+00  0.0000000000000D+00
   352  3.5100000000000D+00  0.0000000000000D+00  0.0000000000000D+00
   353  3.5200000000000D+00  0.0000000000000D+00  0.0000000000000D+00
   354  3.5300000000000D+00  0.0000000000000D+00  0.0000000000000D+00
   355  3.5400000000000D+00  0.0000000000000D+00  0.0000000000000D+00
   356  3.5500000000000D+00  0.0000000000000D+00  0.0000000000000D+00
   357  3.5600000000000D+00  0.0000000000000D+00  0.0000000000000D+00
   358  3.5700000000000D+00  0.0000000000000D+00  0.0000000000000D+00
   359  3.5800000000000D+00  0.0000000000000D+00  0.0000000000000D+00
   360  3.5900000000000D+00  0.0000000000000D+00  0.0000000000000D+00
   361  3.6000000000000D+00  0.0000000000000D+00  0.0000000000000D+00
   362  3.6100000000000D+00  0.0000000000000D+00  0.0000000000000D+00
   363  3.6200000000000D+00  0.0000000000000D+00  0.0000000000000D+00
   364  3.6300000000000D+00  0.0000000000000D+00  0.0000000000000D+00
   365  3.6400000000000D+00  0.0000000000000D+00  0.0000000000000D+00
   366  3.6500000000000D+00  0.0000000000000D+00  0.0000000000000D+00
   367  3.6600000000000D+00  0.0000000000000D+00  0.0000000000000D+00
   368  3.6700000000000D+00  0.0000000000000D+00  0.0000000000000D+00
   369  3.6800000000000D+00  0.0000000000000D+00  0.0000000000000D+00
   370  3.6900000000000D+00  0.0000000000000D+00  0.0000000000000D+00
   371  3.7000000000000D+00  0.0000000000000D+00  0.0000000000000D+00
   372  3.7100000000000D+00  0.0000000000000D+00  0.0000000000000D+00
   373  3.7200000000000D+00  0.0000000000000D+00  0.0000000000000D+00
   374  3.7300000000000D+00  0.0000000000000D+00  0.0000000000000D+00
   375  3.7400000000000D+00  0.0000000000000D+00  0.0000000000000D+00
   376  3.7500000000000D+00  0.0000000000000D+00  0.0000000000000D+00
   377  3.7600000000000D+00  0.0000000000000D+00  0.0000000000000D+00
   378  3.7700000000000D+00  0.0000000000000D+00  0.0000000000000D+00
   379  3.7800000000000D+00  0.0000000000000D+00  0.0000000000000D+00
   380  3.7900000000000D+00  0.0000000000000D+00  0.0000000000000D+00
   381  3.8000000000000D+00  0.0000000000000D+00  0.0000000000000D+00
   382  3.8100000000000D+00  0.0000000000000D+00  0.0000000000000D+00
   383  3.8200000000000D+00  0.0000000000000D+00  0.0000000000000D+00
   384  3.8300000000000D+00  0.0000000000000D+00  0.0000000000000D+00
   385  3.8400000000000D+00  0.0000000000000D+00  0.0000000000000D+00
   386  3.8500000000000D+00  0.0000000000000D+00  0.0000000000000D+00
   387  3.8600000000000D+00  0.0000000000000D+00  0.0000000000000D+00
   388  3.8700000000000D+00  0.0000000000000D+00  0.0000000000000D+00
   389  3.8800000000000D+00  0.0000000000000D+00  0.0000000000000D+00
   390  3.8900000000000D+00  0.0000000000000D+00  0.0000000000000D+00
   391  3.9000000000000D+00  0.0000000000000D+00  0.0000000000000D+00
   392  3.9100000000000D+00  0.0000000000000D+00  0.0000000000000D+00
   393  3.9200000000000D+00  0.0000000000000D+00  0.0000000000000D+00
   394  3.9300000000000D+00  0.0000000000000D+00  0.0000000000000D+00
   395  3.9400000000000D+00  0.0000000000000D+00  0.0000000000000D+00
   396  3.9500000000000D+00  0.0000000000000D+00  0.0000000000000D+00
   397  3.9600000000000D+00  0.0000000000000D+00  0.0000000000000D+00
   398  3.9700000000000D+00  0.0000000000000D+00  0.0000000000000D+00
   399  3.9800000000000D+00  0.0000000000000D+00  0.0000000000000D+00
   400  3.9900000000000D+00  0.0000000000000D+00  0.0000000000000D+00
   401  4.0000000000000D+00  0.0000000000000D+00  0.0000000000000D+00
   402  4.0100000000000D+00  0.0000000000000D+00  0.0000000000000D+00
   403  4.0200000000000D+00  0.0000000000000D+00  0.0000000000000D+00
   404  4.0300000000000D+00  0.0000000000000D+00  0.0000000000000D+00
   405  4.0400000000000D+00  0.0000000000000D+00  0.0000000000000D+00
   406  4.0500000000000D+00  0.0000000000000D+00  0.0000000000000D+00
   407  4.0600000000000D+00  0.0000000000000D+00  0.0000000000000D+00
   408  4.0700000000000D+00  0.0000000000000D+00  0.0000000000000D+00
   409  4.0800000000000D+00  0.0000000000000D+00  0.0000000000000D+00
   410  4.0900000000000D+00  0.0000000000000D+00  0.0000000000000D+00
   411  4.1000000000000D+00  0.0000000000000D+00  0.0000000000000D+00
   412  4.1100000000000D+00  0.0000000000000D+00  0.0000000000000D+00
   413  4.1200000000000D+00  0.0000000000000D+00  0.0000000000000D+00
   414  4.1300000000000D+00  0.0000000000000D+00  0.0000000000000D+00
   415  4.1400000000000D+00  0.0000000000000D+00  0.0000000000000D+00
   416  4.1500000000000D+00  0.0000000000000D+00  0.0000000000000D+00
   417  4.1600000000000D+00  0.0000000000000D+00  0.0000000000000D+00
   418  4.1700000000000D+00  0.0000000000000D+00  0.0000000000000D+00
   419  4.1800000000000D+00  0.0000000000000D+00  0.0000000000000D+00
   420  4.1900000000000D+00  0.0000000000000D+00  0.0000000000000D+00
   421  4.2000000000000D+00  0.0000000000000D+00  0.0000000000000D+00
   422  4.2100000000000D+00  0.0000000000000D+00  0.0000000000000D+00