Xe    ONCVPSP-3.3.1  r_core=   3.01052   3.01052   2.70406
     54.0000     18.0000      210905    zatom,zion,pspd
     8 -116133   2     4   600     0    pspcod,pspxc,lmax,lloc,mmax,r2well
  5.99000000  0.00000000  0.00000000    rchrg fchrg qchrg
     2     2     2     0     0    nproj
     1     1           extension_switch
   0                         4.5261881487349D+00  4.8921459531045D-01
     1  0.0000000000000D+00  3.5860203695393D-13 -7.6828821082842D-13
     2  1.0000000000000D-02  3.2034567723946D-02 -1.5740206040599D-02
     3  2.0000000000000D-02  6.4047672223968D-02 -3.1455600731486D-02
     4  3.0000000000000D-02  9.6017863279891D-02 -4.7121393761552D-02
     5  4.0000000000000D-02  1.2792371668867D-01 -6.2712836914219D-02
     6  5.0000000000000D-02  1.5974384729699D-01 -7.8205245157870D-02
     7  6.0000000000000D-02  1.9145692206243D-01 -9.3574017787524D-02
     8  7.0000000000000D-02  2.2304167315235D-01 -1.0879465963404D-01
     9  8.0000000000000D-02  2.5447691108923D-01 -1.2384280235626D-01
    10  9.0000000000000D-02  2.8574153795086D-01 -1.3869422583080D-01
    11  1.0000000000000D-01  3.1681456063314D-01 -1.5332487965289D-01
    12  1.1000000000000D-01  3.4767510418283D-01 -1.6771090476053D-01
    13  1.2000000000000D-01  3.7830242520662D-01 -1.8182865519289D-01
    14  1.3000000000000D-01  4.0867592536267D-01 -1.9565471999213D-01
    15  1.4000000000000D-01  4.3877516493919D-01 -2.0916594525626D-01
    16  1.5000000000000D-01  4.6857987652459D-01 -2.2233945634863D-01
    17  1.6000000000000D-01  4.9806997877205D-01 -2.3515268026796D-01
    18  1.7000000000000D-01  5.2722559026088D-01 -2.4758336818025D-01
    19  1.8000000000000D-01  5.5602704345550D-01 -2.5960961811203D-01
    20  1.9000000000000D-01  5.8445489876235D-01 -2.7120989780203D-01
    21  2.0000000000000D-01  6.1248995868309D-01 -2.8236306770567D-01
    22  2.1000000000000D-01  6.4011328206205D-01 -2.9304840414459D-01
    23  2.2000000000000D-01  6.6730619842399D-01 -3.0324562259062D-01
    24  2.3000000000000D-01  6.9405032239731D-01 -3.1293490107095D-01
    25  2.4000000000000D-01  7.2032756821643D-01 -3.2209690367878D-01
    26  2.5000000000000D-01  7.4612016429572D-01 -3.3071280417065D-01
    27  2.6000000000000D-01  7.7141066786603D-01 -3.3876430962928D-01
    28  2.7000000000000D-01  7.9618197966343D-01 -3.4623368416759D-01
    29  2.8000000000000D-01  8.2041735865865D-01 -3.5310377264721D-01
    30  2.9000000000000D-01  8.4410043681400D-01 -3.5935802438167D-01
    31  3.0000000000000D-01  8.6721523385343D-01 -3.6498051679208D-01
    32  3.1000000000000D-01  8.8974617203002D-01 -3.6995597898013D-01
    33  3.2000000000000D-01  9.1167809087385D-01 -3.7426981518091D-01
    34  3.3000000000000D-01  9.3299626190175D-01 -3.7790812805528D-01
    35  3.4000000000000D-01  9.5368640326948D-01 -3.8085774177921D-01
    36  3.5000000000000D-01  9.7373469434540D-01 -3.8310622488509D-01
    37  3.6000000000000D-01  9.9312779018355D-01 -3.8464191280764D-01
    38  3.7000000000000D-01  1.0118528358730D+00 -3.8545393008520D-01
    39  3.8000000000000D-01  1.0298974807391D+00 -3.8553221216488D-01
    40  3.9000000000000D-01  1.0472498923719D+00 -3.8486752675828D-01
    41  4.0000000000000D-01  1.0638987704539D+00 -3.8345149469292D-01
    42  4.1000000000000D-01  1.0798333603626D+00 -3.8127661020280D-01
    43  4.2000000000000D-01  1.0950434665169D+00 -3.7833626060019D-01
    44  4.3000000000000D-01  1.1095194654410D+00 -3.7462474526968D-01
    45  4.4000000000000D-01  1.1232523185154D+00 -3.7013729392436D-01
    46  4.5000000000000D-01  1.1362335843846D+00 -3.6487008406337D-01
    47  4.6000000000000D-01  1.1484554309922D+00 -3.5882025756937D-01
    48  4.7000000000000D-01  1.1599106472120D+00 -3.5198593638427D-01
    49  4.8000000000000D-01  1.1705926540434D+00 -3.4436623720114D-01
    50  4.9000000000000D-01  1.1804955153413D+00 -3.3596128511075D-01
    51  5.0000000000000D-01  1.1896139480472D+00 -3.2677222614109D-01
    52  5.1000000000000D-01  1.1979433318917D+00 -3.1680123862898D-01
    53  5.2000000000000D-01  1.2054797185366D+00 -3.0605154336372D-01
    54  5.3000000000000D-01  1.2122198401249D+00 -2.9452741244373D-01
    55  5.4000000000000D-01  1.2181611172091D+00 -2.8223417678825D-01
    56  5.5000000000000D-01  1.2233016660270D+00 -2.6917823224805D-01
    57  5.6000000000000D-01  1.2276403050946D+00 -2.5536704426043D-01
    58  5.7000000000000D-01  1.2311765610888D+00 -2.4080915099626D-01
    59  5.8000000000000D-01  1.2339106739894D+00 -2.2551416494854D-01
    60  5.9000000000000D-01  1.2358436014551D+00 -2.0949277291504D-01
    61  6.0000000000000D-01  1.2369770224056D+00 -1.9275673432964D-01
    62  6.1000000000000D-01  1.2373133397846D+00 -1.7531887790047D-01
    63  6.2000000000000D-01  1.2368556824812D+00 -1.5719309651573D-01
    64  6.3000000000000D-01  1.2356079063839D+00 -1.3839434038168D-01
    65  6.4000000000000D-01  1.2335745945487D+00 -1.1893860836063D-01
    66  6.5000000000000D-01  1.2307610564593D+00 -9.8842937480679D-02
    67  6.6000000000000D-01  1.2271733263623D+00 -7.8125390592918D-02
    68  6.7000000000000D-01  1.2228181606593D+00 -5.6805042155679D-02
    69  6.8000000000000D-01  1.2177030343428D+00 -3.4901962130058D-02
    70  6.9000000000000D-01  1.2118361364604D+00 -1.2437197975058D-02
    71  7.0000000000000D-01  1.2052263645981D+00  1.0567245264543D-02
    72  7.1000000000000D-01  1.1978833183729D+00  3.4088426779897D-02
    73  7.2000000000000D-01  1.1898172919259D+00  5.8102493726739D-02
    74  7.3000000000000D-01  1.1810392654133D+00  8.2584706853608D-02
    75  7.4000000000000D-01  1.1715608954905D+00  1.0750946801710D-01
    76  7.5000000000000D-01  1.1613945047887D+00  1.3285034956664D-01
    77  7.6000000000000D-01  1.1505530703861D+00  1.5858012557616D-01
    78  7.7000000000000D-01  1.1390502112773D+00  1.8467080489486D-01
    79  7.8000000000000D-01  1.1269001748458D+00  2.1109366598406D-01
    80  7.9000000000000D-01  1.1141178223493D+00  2.3781929350203D-01
    81  8.0000000000000D-01  1.1007186134280D+00  2.6481761659341D-01
    82  8.1000000000000D-01  1.0867185896487D+00  2.9205794883488D-01
    83  8.2000000000000D-01  1.0721343570996D+00  3.1950902978330D-01
    84  8.3000000000000D-01  1.0569830680548D+00  3.4713906806809D-01
    85  8.4000000000000D-01  1.0412824017275D+00  3.7491578596397D-01
    86  8.5000000000000D-01  1.0250505441340D+00  4.0280646537589D-01
    87  8.6000000000000D-01  1.0083061670942D+00  4.3077799516298D-01
    88  8.7000000000000D-01  9.9106840639423D-01  4.5879691972385D-01
    89  8.8000000000000D-01  9.7335683914103D-01  4.8682948876092D-01
    90  8.9000000000000D-01  9.5519146033970D-01  5.1484170813761D-01
    91  9.0000000000000D-01  9.3659265872701D-01  5.4279939173743D-01
    92  9.1000000000000D-01  9.1758119189640D-01  5.7066821423078D-01
    93  9.2000000000000D-01  8.9817816075166D-01  5.9841376465115D-01
    94  9.3000000000000D-01  8.7840498332864D-01  6.2600160067894D-01
    95  9.4000000000000D-01  8.5828336802577D-01  6.5339730352812D-01
    96  9.5000000000000D-01  8.3783528628630D-01  6.8056653332762D-01
    97  9.6000000000000D-01  8.1708294477651D-01  7.0747508488693D-01
    98  9.7000000000000D-01  7.9604875710576D-01  7.3408894373261D-01
    99  9.8000000000000D-01  7.7475531513581D-01  7.6037434230052D-01
   100  9.9000000000000D-01  7.5322535992797D-01  7.8629781616653D-01
   101  1.0000000000000D+00  7.3148175237804D-01  8.1182626019682D-01
   102  1.0100000000000D+00  7.0954744358984D-01  8.3692698449793D-01
   103  1.0200000000000D+00  6.8744544503951D-01  8.6156777004540D-01
   104  1.0300000000000D+00  6.6519879858318D-01  8.8571692386938D-01
   105  1.0400000000000D+00  6.4283054636166D-01  9.0934333367547D-01
   106  1.0500000000000D+00  6.2036370065626D-01  9.3241652177868D-01
   107  1.0600000000000D+00  5.9782121375026D-01  9.5490669822923D-01
   108  1.0700000000000D+00  5.7522594785108D-01  9.7678481300936D-01
   109  1.0800000000000D+00  5.5260064512816D-01  9.9802260718138D-01
   110  1.0900000000000D+00  5.2996789792186D-01  1.0185926628688D+00
   111  1.1000000000000D+00  5.0735011917834D-01  1.0384684519540D+00
   112  1.1100000000000D+00  4.8476951316543D-01  1.0576243833777D+00
   113  1.1200000000000D+00  4.6224804652400D-01  1.0760358489287D+00
   114  1.1300000000000D+00  4.3980741970885D-01  1.0936792674142D+00
   115  1.1400000000000D+00  4.1746903887256D-01  1.1105321271042D+00
   116  1.1500000000000D+00  3.9525398824485D-01  1.1265730263487D+00
   117  1.1600000000000D+00  3.7318300305949D-01  1.1417817122658D+00
   118  1.1700000000000D+00  3.5127644307917D-01  1.1561391174085D+00
   119  1.1800000000000D+00  3.2955426676796D-01  1.1696273943178D+00
   120  1.1900000000000D+00  3.0803600615982D-01  1.1822299478758D+00
   121  1.2000000000000D+00  2.8674074246991D-01  1.1939314653779D+00
   122  1.2100000000000D+00  2.6568708249400D-01  1.2047179442480D+00
   123  1.2200000000000D+00  2.4489313583958D-01  1.2145767173253D+00
   124  1.2300000000000D+00  2.2437649303113D-01  1.2234964756567D+00
   125  1.2400000000000D+00  2.0415420452903D-01  1.2314672887366D+00
   126  1.2500000000000D+00  1.8424276070023D-01  1.2384806221408D+00
   127  1.2600000000000D+00  1.6465807277756D-01  1.2445293525038D+00
   128  1.2700000000000D+00  1.4541545484074D-01  1.2496077798018D+00
   129  1.2800000000000D+00  1.2652960685062D-01  1.2537116369075D+00
   130  1.2900000000000D+00  1.0801459876731D-01  1.2568380963831D+00
   131  1.3000000000000D+00  8.9883855777982D-02  1.2589857744959D+00
   132  1.3100000000000D+00  7.2150144658580D-02  1.2601547324414D+00
   133  1.3200000000000D+00  5.4825561293488D-02  1.2603464747610D+00
   134  1.3300000000000D+00  3.7921519370335D-02  1.2595639449594D+00
   135  1.3400000000000D+00  2.1448740267634D-02  1.2578115183269D+00
   136  1.3500000000000D+00  5.4172441508955D-03  1.2550949919738D+00
   137  1.3600000000000D+00 -1.0163657714037D-02  1.2514215721068D+00
   138  1.3700000000000D+00 -2.5285369418983D-02  1.2467998585657D+00
   139  1.3800000000000D+00 -3.9940015636988D-02  1.2412398266557D+00
   140  1.3900000000000D+00 -5.4120445610788D-02  1.2347528063234D+00
   141  1.4000000000000D+00 -6.7820235900008D-02  1.2273514587092D+00
   142  1.4100000000000D+00 -8.1033691894580D-02  1.2190497501446D+00
   143  1.4200000000000D+00 -9.3755848095941D-02  1.2098629236448D+00
   144  1.4300000000000D+00 -1.0598246717239D-01  1.1998074679636D+00
   145  1.4400000000000D+00 -1.1771003780343D-01  1.1889010842910D+00
   146  1.4500000000000D+00 -1.2893577131794D-01  1.1771626506578D+00
   147  1.4600000000000D+00 -1.3965759714909D-01  1.1646121841442D+00
   148  1.4700000000000D+00 -1.4987415711798D-01  1.1512708009735D+00
   149  1.4800000000000D+00 -1.5958479856777D-01  1.1371606745866D+00
   150  1.4900000000000D+00 -1.6878956637302D-01  1.1223049918007D+00
   151  1.5000000000000D+00 -1.7748919384267D-01  1.1067279071463D+00
   152  1.5100000000000D+00 -1.8568509255251D-01  1.0904544955044D+00
   153  1.5200000000000D+00 -1.9337934112594D-01  1.0735107031402D+00
   154  1.5300000000000D+00 -2.0057467300358D-01  1.0559232972630D+00
   155  1.5400000000000D+00 -2.0727446322741D-01  1.0377198142204D+00
   156  1.5500000000000D+00 -2.1348271427862D-01  1.0189285064565D+00
   157  1.5600000000000D+00 -2.1920404100438D-01  9.9957828835346D-01
   158  1.5700000000000D+00 -2.2444365467040D-01  9.7969868108499D-01
   159  1.5800000000000D+00 -2.2920734618266D-01  9.5931975661234D-01
   160  1.5900000000000D+00 -2.3350146851389D-01  9.3847208094854D-01
   161  1.6000000000000D+00 -2.3733291838434D-01  9.1718665682660D-01
   162  1.6100000000000D+00 -2.4070911723209D-01  8.9549486590097D-01
   163  1.6200000000000D+00 -2.4363799152655D-01  8.7342841061448D-01
   164  1.6300000000000D+00 -2.4612795246160D-01  8.5101925586634D-01
   165  1.6400000000000D+00 -2.4818787508304D-01  8.2829957060632D-01
   166  1.6500000000000D+00 -2.4982707689020D-01  8.0530166949621D-01
   167  1.6600000000000D+00 -2.5105529596478D-01  7.8205795475484D-01
   168  1.6700000000000D+00 -2.5188266867063D-01  7.5860085833175D-01
   169  1.6800000000000D+00 -2.5231970697534D-01  7.3496278451527D-01
   170  1.6900000000000D+00 -2.5237727544040D-01  7.1117605312315D-01
   171  1.7000000000000D+00 -2.5206656792827D-01  6.8727284336830D-01
   172  1.7100000000000D+00 -2.5139908407580D-01  6.6328513855139D-01
   173  1.7200000000000D+00 -2.5038660557876D-01  6.3924467165529D-01
   174  1.7300000000000D+00 -2.4904117233990D-01  6.1518287199945D-01
   175  1.7400000000000D+00 -2.4737505852013D-01  5.9113081300493D-01
   176  1.7500000000000D+00 -2.4540074854922D-01  5.6711916123983D-01
   177  1.7600000000000D+00 -2.4313091312798D-01  5.4317812676260D-01
   178  1.7700000000000D+00 -2.4057838528429D-01  5.1933741495242D-01
   179  1.7800000000000D+00 -2.3775613650425D-01  4.9562617980064D-01
   180  1.7900000000000D+00 -2.3467725300791D-01  4.7207297887527D-01
   181  1.8000000000000D+00 -2.3135491218107D-01  4.4870572989673D-01
   182  1.8100000000000D+00 -2.2780235923439D-01  4.2555166913422D-01
   183  1.8200000000000D+00 -2.2403288409811D-01  4.0263731155651D-01
   184  1.8300000000000D+00 -2.2005979861794D-01  3.7998841291337D-01
   185  1.8400000000000D+00 -2.1589641406367D-01  3.5762993370198D-01
   186  1.8500000000000D+00 -2.1155601900295D-01  3.3558600513562D-01
   187  1.8600000000000D+00 -2.0705185756272D-01  3.1387989711633D-01
   188  1.8700000000000D+00 -2.0239710810848D-01  2.9253398824036D-01
   189  1.8800000000000D+00 -1.9760486238403D-01  2.7156973791466D-01
   190  1.8900000000000D+00 -1.9268810511000D-01  2.5100766049725D-01
   191  1.9000000000000D+00 -1.8765969411141D-01  2.3086730163518D-01
   192  1.9100000000000D+00 -1.8253234093815D-01  2.1116721659807D-01
   193  1.9200000000000D+00 -1.7731859206760D-01  1.9192495083764D-01
   194  1.9300000000000D+00 -1.7203081064336D-01  1.7315702254732D-01
   195  1.9400000000000D+00 -1.6668115881936D-01  1.5487890737653D-01
   196  1.9500000000000D+00 -1.6128158069467D-01  1.3710502518362D-01
   197  1.9600000000000D+00 -1.5584378585614D-01  1.1984872881092D-01
   198  1.9700000000000D+00 -1.5037923356651D-01  1.0312229492978D-01
   199  1.9800000000000D+00 -1.4489911755115D-01  8.6936916747281D-02
   200  1.9900000000000D+00 -1.3941435147002D-01  7.1302698761722D-02
   201  2.0000000000000D+00 -1.3393555499649D-01  5.6228653275145D-02
   202  2.0100000000000D+00 -1.2847304057539D-01  4.1722698799367D-02
   203  2.0200000000000D+00 -1.2303680082373D-01  2.7791660190119D-02
   204  2.0300000000000D+00 -1.1763649657502D-01  1.4441270445367D-02
   205  2.0400000000000D+00 -1.1228144560301D-01  1.6761741928942D-03
   206  2.0500000000000D+00 -1.0698061195293D-01 -1.0500067374462D-02
   207  2.0600000000000D+00 -1.0174259595758D-01 -2.2084970002078D-02
   208  2.0700000000000D+00 -9.6575624860723D-02 -3.3077118556368D-02
   209  2.0800000000000D+00 -9.1487544076749D-02 -4.3476157893342D-02
   210  2.0900000000000D+00 -8.6485809084180D-02 -5.3282782489008D-02
   211  2.1000000000000D+00 -8.1577477893562D-02 -6.2498725007777D-02
   212  2.1100000000000D+00 -7.6769204151519D-02 -7.1126743783407D-02
   213  2.1200000000000D+00 -7.2067230796826D-02 -7.9170609409908D-02
   214  2.1300000000000D+00 -6.7477384295536D-02 -8.6635090486464D-02
   215  2.1400000000000D+00 -6.3005069438156D-02 -9.3525938620055D-02
   216  2.1500000000000D+00 -5.8655264649748D-02 -9.9849872793409D-02
   217  2.1600000000000D+00 -5.4432517846587D-02 -1.0561456320001D-01
   218  2.1700000000000D+00 -5.0340942776570D-02 -1.1082861462242D-01
   219  2.1800000000000D+00 -4.6384215846702D-02 -1.1550154947178D-01
   220  2.1900000000000D+00 -4.2565573421581D-02 -1.1964379060491D-01
   221  2.2000000000000D+00 -3.8887809558330D-02 -1.2326664392556D-01
   222  2.2100000000000D+00 -3.5353274173220D-02 -1.2638228100703D-01
   223  2.2200000000000D+00 -3.1963871612748D-02 -1.2900372170586D-01
   224  2.2300000000000D+00 -2.8721059612312D-02 -1.3114481686116D-01
   225  2.2400000000000D+00 -2.5625848616690D-02 -1.3282023131687D-01
   226  2.2500000000000D+00 -2.2678801456809D-02 -1.3404542710019D-01
   227  2.2600000000000D+00 -1.9880033347319D-02 -1.3483664705366D-01
   228  2.2700000000000D+00 -1.7229210702552D-02 -1.3521090445128D-01
   229  2.2800000000000D+00 -1.4725557599907D-02 -1.3518594583786D-01
   230  2.2900000000000D+00 -1.2367847269808D-02 -1.3478027071839D-01
   231  2.3000000000000D+00 -1.0154402864116D-02 -1.3401311868837D-01
   232  2.3100000000000D+00 -8.0831328527494D-03 -1.3290433256470D-01
   233  2.3200000000000D+00 -6.1514964190147D-03 -1.3147447454883D-01
   234  2.3300000000000D+00 -4.3564719115131D-03 -1.2974494054821D-01
   235  2.3400000000000D+00 -2.6945666957616D-03 -1.2773792087389D-01
   236  2.3500000000000D+00 -1.1619456168941D-03 -1.2547592380855D-01
   237  2.3600000000000D+00  2.4551963070524D-04 -1.2298158253365D-01
   238  2.3700000000000D+00  1.5321726274634D-03 -1.2027738479637D-01
   239  2.3800000000000D+00  2.7025274572945D-03 -1.1738552949033D-01
   240  2.3900000000000D+00  3.7610846892809D-03 -1.1432726616647D-01
   241  2.4000000000000D+00  4.7123984379125D-03 -1.1112316739334D-01
   242  2.4100000000000D+00  5.5610437999705D-03 -1.0779303330738D-01
   243  2.4200000000000D+00  6.3116633741935D-03 -1.0435610241118D-01
   244  2.4300000000000D+00  6.9688958190066D-03 -1.0083080605609D-01
   245  2.4400000000000D+00  7.5373772403579D-03 -9.7234804820515D-02
   246  2.4500000000000D+00  8.0217357043307D-03 -9.3584998249728D-02
   247  2.4600000000000D+00  8.4265728140252D-03 -8.9897486233743D-02
   248  2.4700000000000D+00  8.7564540446683D-03 -8.6187563926075D-02
   249  2.4800000000000D+00  9.0158979039921D-03 -8.2469712634832D-02
   250  2.4900000000000D+00  9.2093657956688D-03 -7.8757593685973D-02
   251  2.5000000000000D+00  9.3412523731129D-03 -7.5064044455925D-02
   252  2.5100000000000D+00  9.4158764592402D-03 -7.1401076791056D-02
   253  2.5200000000000D+00  9.4374726892195D-03 -6.7779878306204D-02
   254  2.5300000000000D+00  9.4101836360949D-03 -6.4210815679869D-02
   255  2.5400000000000D+00  9.3380525089127D-03 -6.0703440207613D-02
   256  2.5500000000000D+00  9.2250165589925D-03 -5.7266496015827D-02
   257  2.5600000000000D+00  9.0749009637111D-03 -5.3907930110824D-02
   258  2.5700000000000D+00  8.8914132586411D-03 -5.0634904453162D-02
   259  2.5800000000000D+00  8.6781384557993D-03 -4.7453810448272D-02
   260  2.5900000000000D+00  8.4385346204590D-03 -4.4370285065108D-02
   261  2.6000000000000D+00  8.1759289498657D-03 -4.1389228678732D-02
   262  2.6100000000000D+00  7.8935145048872D-03 -3.8514825043307D-02
   263  2.6200000000000D+00  7.5943473710405D-03 -3.5750562652508D-02
   264  2.6300000000000D+00  7.2813442569285D-03 -3.3099257475818D-02
   265  2.6400000000000D+00  6.9572807034426D-03 -3.0563077501239D-02
   266  2.6500000000000D+00  6.6247896734928D-03 -2.8143568363357D-02
   267  2.6600000000000D+00  6.2863605370600D-03 -2.5841680088964D-02
   268  2.6700000000000D+00  5.9443385632786D-03 -2.3657795114124D-02
   269  2.6800000000000D+00  5.6009247731770D-03 -2.1591757196409D-02
   270  2.6900000000000D+00  5.2581760803237D-03 -1.9642900948472D-02
   271  2.7000000000000D+00  4.9180059174604D-03 -1.7810082438034D-02
   272  2.7100000000000D+00  4.5821851222785D-03 -1.6091710185847D-02
   273  2.7200000000000D+00  4.2523431699733D-03 -1.4485776861261D-02
   274  2.7300000000000D+00  3.9299696250011D-03 -1.2989891050694D-02
   275  2.7400000000000D+00  3.6164158354753D-03 -1.1601309190790D-02
   276  2.7500000000000D+00  3.3128968729724D-03 -1.0316967737828D-02
   277  2.7600000000000D+00  3.0204936643569D-03 -9.1335152787517D-03
   278  2.7700000000000D+00  2.7401553498678D-03 -8.0473445465387D-03
   279  2.7800000000000D+00  2.4727017763122D-03 -7.0546241804558D-03
   280  2.7900000000000D+00  2.2188260606824D-03 -6.1513300546259D-03
   281  2.8000000000000D+00  1.9790973922854D-03 -5.3332762740087D-03
   282  2.8100000000000D+00  1.7539637759603D-03 -4.5961452438873D-03
   283  2.8200000000000D+00  1.5437551228081D-03 -3.9355181155494D-03
   284  2.8300000000000D+00  1.3486859944901D-03 -3.3469029286803D-03
   285  2.8400000000000D+00  1.1688584734380D-03 -2.8257622564453D-03
   286  2.8500000000000D+00  1.0042650633470D-03 -2.3675400629437D-03
   287  2.8600000000000D+00  8.5479154347989D-04 -1.9676873815716D-03
   288  2.8700000000000D+00  7.2021980906376D-04 -1.6216867420689D-03
   289  2.8800000000000D+00  6.0023060123455D-04 -1.3250752579833D-03
   290  2.8900000000000D+00  4.9440629997522D-04 -1.0734671084708D-03
   291  2.9000000000000D+00  4.0223340437343D-04 -8.6257341362977D-04
   292  2.9100000000000D+00  3.2314390574050D-04 -6.8835038743824D-04
   293  2.9200000000000D+00  2.5641100368134D-04 -5.4666279744573D-04
   294  2.9300000000000D+00  2.0117649878793D-04 -4.3338339738174D-04
   295  2.9400000000000D+00  1.5652972296715D-04 -3.4467960303488D-04
   296  2.9500000000000D+00  1.2099866468579D-04 -2.7560065461824D-04
   297  2.9600000000000D+00  9.4615418203124D-05 -2.2579455255962D-04
   298  2.9700000000000D+00  7.6562305302034D-05 -1.9298862705866D-04
   299  2.9800000000000D+00  6.6730167977324D-05 -1.7712028588814D-04
   300  2.9900000000000D+00  6.2477502196280D-05 -1.7173966889235D-04
   301  3.0000000000000D+00  5.9146431253029D-05 -1.6529884505541D-04
   302  3.0100000000000D+00  5.3578469154714D-05 -1.5033637600946D-04
   303  3.0200000000000D+00  4.0312769520934D-05 -1.1329533365448D-04
   304  3.0300000000000D+00  2.4273108445895D-05 -6.8185147098767D-05
   305  3.0400000000000D+00  8.6255027313804D-06 -2.4193702536356D-05
   306  3.0500000000000D+00 -2.2166023417593D-06  6.2725473849154D-06
   307  3.0600000000000D+00 -5.4034050725323D-06  1.5297776536356D-05
   308  3.0700000000000D+00 -4.4365982982387D-06  1.2563819869702D-05
   309  3.0800000000000D+00 -1.1791550972820D-06  3.3395948614144D-06
   310  3.0900000000000D+00  7.7424637477266D-07 -2.1989002863480D-06
   311  3.1000000000000D+00  1.2222426589094D-06 -3.4729768314618D-06
   312  3.1100000000000D+00  8.6061822424114D-07 -2.4464856824582D-06
   313  3.1200000000000D+00  1.8829515508973D-08 -5.3546922796945D-08
   314  3.1300000000000D+00 -1.1887120328000D-07  3.3353694819282D-07
   315  3.1400000000000D+00 -1.4844012648533D-07  4.1650345425253D-07
   316  3.1500000000000D+00 -8.5395889377603D-08  2.3960962407461D-07
   317  3.1600000000000D+00  0.0000000000000D+00  0.0000000000000D+00
   318  3.1700000000000D+00  0.0000000000000D+00  0.0000000000000D+00
   319  3.1800000000000D+00  0.0000000000000D+00  0.0000000000000D+00
   320  3.1900000000000D+00  0.0000000000000D+00  0.0000000000000D+00
   321  3.2000000000000D+00  0.0000000000000D+00  0.0000000000000D+00
   322  3.2100000000000D+00  0.0000000000000D+00  0.0000000000000D+00
   323  3.2200000000000D+00  0.0000000000000D+00  0.0000000000000D+00
   324  3.2300000000000D+00  0.0000000000000D+00  0.0000000000000D+00
   325  3.2400000000000D+00  0.0000000000000D+00  0.0000000000000D+00
   326  3.2500000000000D+00  0.0000000000000D+00  0.0000000000000D+00
   327  3.2600000000000D+00  0.0000000000000D+00  0.0000000000000D+00
   328  3.2700000000000D+00  0.0000000000000D+00  0.0000000000000D+00
   329  3.2800000000000D+00  0.0000000000000D+00  0.0000000000000D+00
   330  3.2900000000000D+00  0.0000000000000D+00  0.0000000000000D+00
   331  3.3000000000000D+00  0.0000000000000D+00  0.0000000000000D+00
   332  3.3100000000000D+00  0.0000000000000D+00  0.0000000000000D+00
   333  3.3200000000000D+00  0.0000000000000D+00  0.0000000000000D+00
   334  3.3300000000000D+00  0.0000000000000D+00  0.0000000000000D+00
   335  3.3400000000000D+00  0.0000000000000D+00  0.0000000000000D+00
   336  3.3500000000000D+00  0.0000000000000D+00  0.0000000000000D+00
   337  3.3600000000000D+00  0.0000000000000D+00  0.0000000000000D+00
   338  3.3700000000000D+00  0.0000000000000D+00  0.0000000000000D+00
   339  3.3800000000000D+00  0.0000000000000D+00  0.0000000000000D+00
   340  3.3900000000000D+00  0.0000000000000D+00  0.0000000000000D+00
   341  3.4000000000000D+00  0.0000000000000D+00  0.0000000000000D+00
   342  3.4100000000000D+00  0.0000000000000D+00  0.0000000000000D+00
   343  3.4200000000000D+00  0.0000000000000D+00  0.0000000000000D+00
   344  3.4300000000000D+00  0.0000000000000D+00  0.0000000000000D+00
   345  3.4400000000000D+00  0.0000000000000D+00  0.0000000000000D+00
   346  3.4500000000000D+00  0.0000000000000D+00  0.0000000000000D+00
   347  3.4600000000000D+00  0.0000000000000D+00  0.0000000000000D+00
   348  3.4700000000000D+00  0.0000000000000D+00  0.0000000000000D+00
   349  3.4800000000000D+00  0.0000000000000D+00  0.0000000000000D+00
   350  3.4900000000000D+00  0.0000000000000D+00  0.0000000000000D+00
   351  3.5000000000000D+00  0.0000000000000D+00  0.0000000000000D+00
   352  3.5100000000000D+00  0.0000000000000D+00  0.0000000000000D+00
   353  3.5200000000000D+00  0.0000000000000D+00  0.0000000000000D+00
   354  3.5300000000000D+00  0.0000000000000D+00  0.0000000000000D+00
   355  3.5400000000000D+00  0.0000000000000D+00  0.0000000000000D+00
   356  3.5500000000000D+00  0.0000000000000D+00  0.0000000000000D+00
   357  3.5600000000000D+00  0.0000000000000D+00  0.0000000000000D+00
   358  3.5700000000000D+00  0.0000000000000D+00  0.0000000000000D+00
   359  3.5800000000000D+00  0.0000000000000D+00  0.0000000000000D+00
   360  3.5900000000000D+00  0.0000000000000D+00  0.0000000000000D+00
   361  3.6000000000000D+00  0.0000000000000D+00  0.0000000000000D+00
   362  3.6100000000000D+00  0.0000000000000D+00  0.0000000000000D+00
   363  3.6200000000000D+00  0.0000000000000D+00  0.0000000000000D+00
   364  3.6300000000000D+00  0.0000000000000D+00  0.0000000000000D+00
   365  3.6400000000000D+00  0.0000000000000D+00  0.0000000000000D+00
   366  3.6500000000000D+00  0.0000000000000D+00  0.0000000000000D+00
   367  3.6600000000000D+00  0.0000000000000D+00  0.0000000000000D+00
   368  3.6700000000000D+00  0.0000000000000D+00  0.0000000000000D+00
   369  3.6800000000000D+00  0.0000000000000D+00  0.0000000000000D+00
   370  3.6900000000000D+00  0.0000000000000D+00  0.0000000000000D+00
   371  3.7000000000000D+00  0.0000000000000D+00  0.0000000000000D+00
   372  3.7100000000000D+00  0.0000000000000D+00  0.0000000000000D+00
   373  3.7200000000000D+00  0.0000000000000D+00  0.0000000000000D+00
   374  3.7300000000000D+00  0.0000000000000D+00  0.0000000000000D+00
   375  3.7400000000000D+00  0.0000000000000D+00  0.0000000000000D+00
   376  3.7500000000000D+00  0.0000000000000D+00  0.0000000000000D+00
   377  3.7600000000000D+00  0.0000000000000D+00  0.0000000000000D+00
   378  3.7700000000000D+00  0.0000000000000D+00  0.0000000000000D+00
   379  3.7800000000000D+00  0.0000000000000D+00  0.0000000000000D+00
   380  3.7900000000000D+00  0.0000000000000D+00  0.0000000000000D+00
   381  3.8000000000000D+00  0.0000000000000D+00  0.0000000000000D+00
   382  3.8100000000000D+00  0.0000000000000D+00  0.0000000000000D+00
   383  3.8200000000000D+00  0.0000000000000D+00  0.0000000000000D+00
   384  3.8300000000000D+00  0.0000000000000D+00  0.0000000000000D+00
   385  3.8400000000000D+00  0.0000000000000D+00  0.0000000000000D+00
   386  3.8500000000000D+00  0.0000000000000D+00  0.0000000000000D+00
   387  3.8600000000000D+00  0.0000000000000D+00  0.0000000000000D+00
   388  3.8700000000000D+00  0.0000000000000D+00  0.0000000000000D+00
   389  3.8800000000000D+00  0.0000000000000D+00  0.0000000000000D+00
   390  3.8900000000000D+00  0.0000000000000D+00  0.0000000000000D+00
   391  3.9000000000000D+00  0.0000000000000D+00  0.0000000000000D+00
   392  3.9100000000000D+00  0.0000000000000D+00  0.0000000000000D+00
   393  3.9200000000000D+00  0.0000000000000D+00  0.0000000000000D+00
   394  3.9300000000000D+00  0.0000000000000D+00  0.0000000000000D+00
   395  3.9400000000000D+00  0.0000000000000D+00  0.0000000000000D+00
   396  3.9500000000000D+00  0.0000000000000D+00  0.0000000000000D+00
   397  3.9600000000000D+00  0.0000000000000D+00  0.0000000000000D+00
   398  3.9700000000000D+00  0.0000000000000D+00  0.0000000000000D+00
   399  3.9800000000000D+00  0.0000000000000D+00  0.0000000000000D+00
   400  3.9900000000000D+00  0.0000000000000D+00  0.0000000000000D+00
   401  4.0000000000000D+00  0.0000000000000D+00  0.0000000000000D+00
   402  4.0100000000000D+00  0.0000000000000D+00  0.0000000000000D+00
   403  4.0200000000000D+00  0.0000000000000D+00  0.0000000000000D+00
   404  4.0300000000000D+00  0.0000000000000D+00  0.0000000000000D+00
   405  4.0400000000000D+00  0.0000000000000D+00  0.0000000000000D+00
   406  4.0500000000000D+00  0.0000000000000D+00  0.0000000000000D+00
   407  4.0600000000000D+00  0.0000000000000D+00  0.0000000000000D+00
   408  4.0700000000000D+00  0.0000000000000D+00  0.0000000000000D+00
   409  4.0800000000000D+00  0.0000000000000D+00  0.0000000000000D+00
   410  4.0900000000000D+00  0.0000000000000D+00  0.0000000000000D+00
   411  4.1000000000000D+00  0.0000000000000D+00  0.0000000000000D+00
   412  4.1100000000000D+00  0.0000000000000D+00  0.0000000000000D+00
   413  4.1200000000000D+00  0.0000000000000D+00  0.0000000000000D+00
   414  4.1300000000000D+00  0.0000000000000D+00  0.0000000000000D+00
   415  4.1400000000000D+00  0.0000000000000D+00  0.0000000000000D+00
   416  4.1500000000000D+00  0.0000000000000D+00  0.0000000000000D+00
   417  4.1600000000000D+00  0.0000000000000D+00  0.0000000000000D+00
   418  4.1700000000000D+00  0.0000000000000D+00  0.0000000000000D+00
   419  4.1800000000000D+00  0.0000000000000D+00  0.0000000000000D+00
   420  4.1900000000000D+00  0.0000000000000D+00  0.0000000000000D+00
   421  4.2000000000000D+00  0.0000000000000D+00  0.0000000000000D+00
   422  4.2100000000000D+00  0.0000000000000D+00  0.0000000000000D+00