Xe    ONCVPSP-3.3.1  r_core=   3.01052   3.01052   2.70406
     54.0000     18.0000      210905    zatom,zion,pspd
     8 -116133   2     4   600     0    pspcod,pspxc,lmax,lloc,mmax,r2well
  5.99000000  0.00000000  0.00000000    rchrg fchrg qchrg
     2     4     2     0    nproj
     3     1           extension_switch
     4     3     0    nprojso
   0                         4.8891929223136D-01  4.5299916341576D+00
     1  0.0000000000000D+00 -7.3671624356564D-13  3.4583447217074D-13
     2  1.0000000000000D-02 -1.5754955672843D-02  3.2019928883562D-02
     3  2.0000000000000D-02 -3.1485099286126D-02  6.4018419687773D-02
     4  3.0000000000000D-02 -4.7165639807730D-02  9.5974047305314D-02
     5  4.0000000000000D-02 -6.2771828277778D-02  1.2786541258261D-01
     6  5.0000000000000D-02 -7.8278978887967D-02  1.5967115532078D-01
     7  6.0000000000000D-02 -9.3662490112235D-02  1.9136996730531D-01
     8  7.0000000000000D-02 -1.0889786590501D-01  2.2294060537352D-01
     9  8.0000000000000D-02 -1.2396073698258D-01  2.5436190452867D-01
    10  9.0000000000000D-02 -1.3882688220216D-01  2.8561279110904D-01
    11  1.0000000000000D-01 -1.5347225005220D-01  3.1667229601998D-01
    12  1.1000000000000D-01 -1.6787298026625D-01  3.4751956803596D-01
    13  1.2000000000000D-01 -1.8200542557119D-01  3.7813388717944D-01
    14  1.3000000000000D-01 -1.9584617357908D-01  4.0849467818230D-01
    15  1.4000000000000D-01 -2.0937206883041D-01  4.3858152403485D-01
    16  1.5000000000000D-01 -2.2256023499413D-01  4.6837417962665D-01
    17  1.6000000000000D-01 -2.3538809722852D-01  4.9785258548221D-01
    18  1.7000000000000D-01 -2.4783340470430D-01  5.2699688159386D-01
    19  1.8000000000000D-01 -2.5987425328931D-01  5.5578742135287D-01
    20  1.9000000000000D-01 -2.7148910839203D-01  5.8420478557871D-01
    21  2.0000000000000D-01 -2.8265682795820D-01  6.1222979664544D-01
    22  2.1000000000000D-01 -2.9335668561289D-01  6.3984353270266D-01
    23  2.2000000000000D-01 -3.0356839393737D-01  6.6702734198751D-01
    24  2.3000000000000D-01 -3.1327212786764D-01  6.9376285722268D-01
    25  2.4000000000000D-01 -3.2244854819872D-01  7.2003201009421D-01
    26  2.5000000000000D-01 -3.3107882517622D-01  7.4581704580161D-01
    27  2.6000000000000D-01 -3.3914466215368D-01  7.7110053767115D-01
    28  2.7000000000000D-01 -3.4662831929172D-01  7.9586540182226D-01
    29  2.8000000000000D-01 -3.5351263727200D-01  8.2009491187528D-01
    30  2.9000000000000D-01 -3.5978106099641D-01  8.4377271368746D-01
    31  3.0000000000000D-01 -3.6541766323919D-01  8.6688284010308D-01
    32  3.1000000000000D-01 -3.7040716821693D-01  8.8940972570170D-01
    33  3.2000000000000D-01 -3.7473497503878D-01  9.1133822152768D-01
    34  3.3000000000000D-01 -3.7838718099688D-01  9.3265360978261D-01
    35  3.4000000000000D-01 -3.8135060465411D-01  9.5334161846098D-01
    36  3.5000000000000D-01 -3.8361280868440D-01  9.7338843590835D-01
    37  3.6000000000000D-01 -3.8516212241827D-01  9.9278072527987D-01
    38  3.7000000000000D-01 -3.8598766404411D-01  1.0115056388762D+00
    39  3.8000000000000D-01 -3.8607936241394D-01  1.0295508323322D+00
    40  3.9000000000000D-01 -3.8542797840035D-01  1.0469044786338D+00
    41  4.0000000000000D-01 -3.8402512574957D-01  1.0635552819361D+00
    42  4.1000000000000D-01 -3.8186329137432D-01  1.0794924911556D+00
    43  4.2000000000000D-01 -3.7893585502840D-01  1.0947059133093D+00
    44  4.3000000000000D-01 -3.7523710830407D-01  1.1091859265715D+00
    45  4.4000000000000D-01 -3.7076227289219D-01  1.1229234930189D+00
    46  4.5000000000000D-01 -3.6550751804420D-01  1.1359101710336D+00
    47  4.6000000000000D-01 -3.5946997717468D-01  1.1481381273352D+00
    48  4.7000000000000D-01 -3.5264776354255D-01  1.1596001486091D+00
    49  4.8000000000000D-01 -3.4503998494925D-01  1.1702896527019D+00
    50  4.9000000000000D-01 -3.3664675739190D-01  1.1802006993503D+00
    51  5.0000000000000D-01 -3.2746921761007D-01  1.1893280004151D+00
    52  5.1000000000000D-01 -3.1750953446518D-01  1.1976669295859D+00
    53  5.2000000000000D-01 -3.0677091909256D-01  1.2052135315270D+00
    54  5.3000000000000D-01 -2.9525763376690D-01  1.2119645304339D+00
    55  5.4000000000000D-01 -2.8297499942343D-01  1.2179173379672D+00
    56  5.5000000000000D-01 -2.6992940177860D-01  1.2230700605369D+00
    57  5.6000000000000D-01 -2.5612829599555D-01  1.2274215059051D+00
    58  5.7000000000000D-01 -2.4158020984220D-01  1.2309711890785D+00
    59  5.8000000000000D-01 -2.2629474529144D-01  1.2337193374630D+00
    60  5.9000000000000D-01 -2.1028257851572D-01  1.2356668952530D+00
    61  6.0000000000000D-01 -1.9355545823105D-01  1.2368155270275D+00
    62  6.1000000000000D-01 -1.7612620234824D-01  1.2371676205301D+00
    63  6.2000000000000D-01 -1.5800869289230D-01  1.2367262886063D+00
    64  6.3000000000000D-01 -1.3921786915446D-01  1.2354953702770D+00
    65  6.4000000000000D-01 -1.1976971904478D-01  1.2334794309260D+00
    66  6.5000000000000D-01 -9.9681268616922D-02  1.2306837615815D+00
    67  6.6000000000000D-01 -7.8970569740786D-02  1.2271143772729D+00
    68  6.7000000000000D-01 -5.7656685902756D-02  1.2227780144475D+00
    69  6.8000000000000D-01 -3.5759676117586D-02  1.2176821274301D+00
    70  6.9000000000000D-01 -1.3300576940348D-02  1.2118348839138D+00
    71  7.0000000000000D-01  9.6986174284899D-03  1.2052451594706D+00
    72  7.1000000000000D-01  3.3214976947125D-02  1.1979225310712D+00
    73  7.2000000000000D-01  5.7224659443093D-02  1.1898772696087D+00
    74  7.3000000000000D-01  8.1702936223116D-02  1.1811203314193D+00
    75  7.4000000000000D-01  1.0662421956961D-01  1.1716633487979D+00
    76  7.5000000000000D-01  1.3196209210645D-01  1.1615186195076D+00
    77  7.6000000000000D-01  1.5768933801125D-01  1.1506990952845D+00
    78  7.7000000000000D-01  1.8377797604649D-01  1.1392183693407D+00
    79  7.8000000000000D-01  2.1019929437643D-01  1.1270906628727D+00
    80  7.9000000000000D-01  2.3692388713178D-01  1.1143308105832D+00
    81  8.0000000000000D-01  2.6392169267873D-01  1.1009542452258D+00
    82  8.1000000000000D-01  2.9116203354400D-01  1.0869769811867D+00
    83  8.2000000000000D-01  3.1861365794231D-01  1.0724155971186D+00
    84  8.3000000000000D-01  3.4624478284778D-01  1.0572872176437D+00
    85  8.4000000000000D-01  3.7402313854568D-01  1.0416094941469D+00
    86  8.5000000000000D-01  4.0191601459632D-01  1.0254005846799D+00
    87  8.6000000000000D-01  4.2989030713786D-01  1.0086791330022D+00
    88  8.7000000000000D-01  4.5791256745044D-01  9.9146424678519D-01
    89  8.8000000000000D-01  4.8594905169949D-01  9.7377547500776D-01
    90  8.9000000000000D-01  5.1396577177173D-01  9.5563278457578D-01
    91  9.0000000000000D-01  5.4192854711347D-01  9.3705653619732D-01
    92  9.1000000000000D-01  5.6980305747654D-01  9.1806745954986D-01
    93  9.2000000000000D-01  5.9755489647387D-01  8.9868662777618D-01
    94  9.3000000000000D-01  6.2514962584299D-01  8.7893543134822D-01
    95  9.4000000000000D-01  6.5255283031247D-01  8.5883555133981D-01
    96  9.5000000000000D-01  6.7973017296367D-01  8.3840893215093D-01
    97  9.6000000000000D-01  7.0664745097679D-01  8.1767775372771D-01
    98  9.7000000000000D-01  7.3327065164844D-01  7.9666440332411D-01
    99  9.8000000000000D-01  7.5956600856534D-01  7.7539144685234D-01
   100  9.9000000000000D-01  7.8550005781697D-01  7.5388159987087D-01
   101  1.0000000000000D+00  8.1103969412843D-01  7.3215769825954D-01
   102  1.0100000000000D+00  8.3615222679368D-01  7.1024266863288D-01
   103  1.0200000000000D+00  8.6080543528800D-01  6.8815949854335D-01
   104  1.0300000000000D+00  8.8496762443818D-01  6.6593120652741D-01
   105  1.0400000000000D+00  9.0860767902866D-01  6.4358081204765D-01
   106  1.0500000000000D+00  9.3169511772177D-01  6.2113130538521D-01
   107  1.0600000000000D+00  9.5420014617053D-01  5.9860561753699D-01
   108  1.0700000000000D+00  9.7609370920352D-01  5.7602659017240D-01
   109  1.0800000000000D+00  9.9734754196196D-01  5.5341694570480D-01
   110  1.0900000000000D+00  1.0179342198709D+00  5.3079925753279D-01
   111  1.1000000000000D+00  1.0378272073280D+00  5.0819592050618D-01
   112  1.1100000000000D+00  1.0570009049957D+00  4.8562912167174D-01
   113  1.1200000000000D+00  1.0754306955841D+00  4.6312081135296D-01
   114  1.1300000000000D+00  1.0930929880162D+00  4.4069267461801D-01
   115  1.1400000000000D+00  1.1099652598689D+00  4.1836610318905D-01
   116  1.1500000000000D+00  1.1260260979870D+00  3.9616216784563D-01
   117  1.1600000000000D+00  1.1412552371708D+00  3.7410159137384D-01
   118  1.1700000000000D+00  1.1556335968431D+00  3.5220472211192D-01
   119  1.1800000000000D+00  1.1691433156042D+00  3.3049150814164D-01
   120  1.1900000000000D+00  1.1817677835885D+00  3.0898147217400D-01
   121  1.2000000000000D+00  1.1934916725419D+00  2.8769368717590D-01
   122  1.2100000000000D+00  1.2043009635430D+00  2.6664675278301D-01
   123  1.2200000000000D+00  1.2141829722988D+00  2.4585877254258D-01
   124  1.2300000000000D+00  1.2231263719472D+00  2.2534733202828D-01
   125  1.2400000000000D+00  1.2311212133080D+00  2.0512947786688D-01
   126  1.2500000000000D+00  1.2381589425303D+00  1.8522169771463D-01
   127  1.2600000000000D+00  1.2442324160854D+00  1.6563990122026D-01
   128  1.2700000000000D+00  1.2493359130663D+00  1.4639940200769D-01
   129  1.2800000000000D+00  1.2534651447613D+00  1.2751490070984D-01
   130  1.2900000000000D+00  1.2566172614678D+00  1.0900046908441D-01
   131  1.3000000000000D+00  1.2587908565300D+00  9.0869535237074D-02
   132  1.3100000000000D+00  1.2599859675860D+00  7.3134869976710D-02
   133  1.3200000000000D+00  1.2602040750111D+00  5.5808574326386D-02
   134  1.3300000000000D+00  1.2594480975639D+00  3.8902068207496D-02
   135  1.3400000000000D+00  1.2577223852365D+00  2.2426080314639D-02
   136  1.3500000000000D+00  1.2550327093215D+00  6.3906391969834D-03
   137  1.3600000000000D+00  1.2513862497202D+00 -9.1949344451779D-03
   138  1.3700000000000D+00  1.2467915795139D+00 -2.4322034237183D-02
   139  1.3800000000000D+00  1.2412586468328D+00 -3.8982773374274D-02
   140  1.3900000000000D+00  1.2347987540697D+00 -5.3169988632684D-02
   141  1.4000000000000D+00  1.2274245344712D+00 -6.6877243141343D-02
   142  1.4100000000000D+00  1.2191499261761D+00 -8.0098827921632D-02
   143  1.4200000000000D+00  1.2099901437502D+00 -9.2829762196699D-02
   144  1.4300000000000D+00  1.1999616472846D+00 -1.0506579247666D-01
   145  1.4400000000000D+00  1.1890821091388D+00 -1.1680339043449D-01
   146  1.4500000000000D+00  1.1773703783902D+00 -1.2803974957732D-01
   147  1.4600000000000D+00  1.1648464430912D+00 -1.3877278073599D-01
   148  1.4700000000000D+00  1.1515313904107D+00 -1.4900110638491D-01
   149  1.4800000000000D+00  1.1374473647574D+00 -1.5872405381374D-01
   150  1.4900000000000D+00  1.1226175239895D+00 -1.6794164717558D-01
   151  1.5000000000000D+00  1.1070659938020D+00 -1.7665459843011D-01
   152  1.5100000000000D+00  1.0908178204161D+00 -1.8486429721733D-01
   153  1.5200000000000D+00  1.0738989216644D+00 -1.9257279968070D-01
   154  1.5300000000000D+00  1.0563360366036D+00 -1.9978281628009D-01
   155  1.5400000000000D+00  1.0381566737622D+00 -2.0649769862013D-01
   156  1.5500000000000D+00  1.0193890581509D+00 -2.1272142533315D-01
   157  1.5600000000000D+00  1.0000620771582D+00 -2.1845858705159D-01
   158  1.5700000000000D+00  9.8020522545684D-01 -2.2371437050691D-01
   159  1.5800000000000D+00  9.5984854905249D-01 -2.2849454179818D-01
   160  1.5900000000000D+00  9.3902258860121D-01 -2.3280542886569D-01
   161  1.6000000000000D+00  9.1775832212968D-01 -2.3665390321922D-01
   162  1.6100000000000D+00  8.9608710728842D-01 -2.4004736095609D-01
   163  1.6200000000000D+00  8.7404062326973D-01 -2.4299370312228D-01
   164  1.6300000000000D+00  8.5165081252591D-01 -2.4550131545338D-01
   165  1.6400000000000D+00  8.2894982241250D-01 -2.4757904754952D-01
   166  1.6500000000000D+00  8.0596994689789D-01 -2.4923619152436D-01
   167  1.6600000000000D+00  7.8274356845503D-01 -2.5048246018085D-01
   168  1.6700000000000D+00  7.5930310028050D-01 -2.5132796475751D-01
   169  1.6800000000000D+00  7.3568092894639D-01 -2.5178319229594D-01
   170  1.6900000000000D+00  7.1190935763306D-01 -2.5185898267627D-01
   171  1.7000000000000D+00  6.8802055003519D-01 -2.5156650536865D-01
   172  1.7100000000000D+00  6.6404647509276D-01 -2.5091723595034D-01
   173  1.7200000000000D+00  6.4001885262173D-01 -2.4992293243280D-01
   174  1.7300000000000D+00  6.1596910000248D-01 -2.4859561145136D-01
   175  1.7400000000000D+00  5.9192827997656D-01 -2.4694752435673D-01
   176  1.7500000000000D+00  5.6792704972146D-01 -2.4499113326488D-01
   177  1.7600000000000D+00  5.4399561122049D-01 -2.4273908709701D-01
   178  1.7700000000000D+00  5.2016366311728D-01 -2.4020419767184D-01
   179  1.7800000000000D+00  4.9646035402838D-01 -2.3739941587172D-01
   180  1.7900000000000D+00  4.7291423752608D-01 -2.3433780795152D-01
   181  1.8000000000000D+00  4.4955322872950D-01 -2.3103253200204D-01
   182  1.8100000000000D+00  4.2640456271325D-01 -2.2749681463900D-01
   183  1.8200000000000D+00  4.0349475466729D-01 -2.2374392792573D-01
   184  1.8300000000000D+00  3.8084956198420D-01 -2.1978716659534D-01
   185  1.8400000000000D+00  3.5849394822821D-01 -2.1563982558353D-01
   186  1.8500000000000D+00  3.3645204910306D-01 -2.1131517792474D-01
   187  1.8600000000000D+00  3.1474714042037D-01 -2.0682645303385D-01
   188  1.8700000000000D+00  2.9340160809752D-01 -2.0218681540367D-01
   189  1.8800000000000D+00  2.7243692026281D-01 -1.9740934376090D-01
   190  1.8900000000000D+00  2.5187360138124D-01 -1.9250701067865D-01
   191  1.9000000000000D+00  2.3173120857403D-01 -1.8749266271594D-01
   192  1.9100000000000D+00  2.1202830993048D-01 -1.8237900104791D-01
   193  1.9200000000000D+00  1.9278246504196D-01 -1.7717856267599D-01
   194  1.9300000000000D+00  1.7401020753266D-01 -1.7190370217209D-01
   195  1.9400000000000D+00  1.5572702974122D-01 -1.6656657402587D-01
   196  1.9500000000000D+00  1.3794736943777D-01 -1.6117911558058D-01
   197  1.9600000000000D+00  1.2068459855936D-01 -1.5575303057463D-01
   198  1.9700000000000D+00  1.0395101401206D-01 -1.5029977332639D-01
   199  1.9800000000000D+00  8.7757830331370D-02 -1.4483053351552D-01
   200  1.9900000000000D+00  7.2115174387899D-02 -1.3935622164744D-01
   201  2.0000000000000D+00  5.7032081847062D-02 -1.3388745512258D-01
   202  2.0100000000000D+00  4.2516495518919D-02 -1.2843454498279D-01
   203  2.0200000000000D+00  2.8575265433107D-02 -1.2300748329850D-01
   204  2.0300000000000D+00  1.5214150574990D-02 -1.1761593119753D-01
   205  2.0400000000000D+00  2.4378223080600D-03 -1.1226920757131D-01
   206  2.0500000000000D+00 -9.7501307585992D-03 -1.0697627838697D-01
   207  2.0600000000000D+00 -2.1347196344196D-02 -1.0174574668237D-01
   208  2.0700000000000D+00 -3.2351930752054D-02 -9.6585843166756D-02
   209  2.0800000000000D+00 -4.2763949813589D-02 -9.1504417456125D-02
   210  2.0900000000000D+00 -5.2583918596459D-02 -8.6508929940777D-02
   211  2.1000000000000D+00 -6.1813540052614D-02 -8.1606444225891D-02
   212  2.1100000000000D+00 -7.0455542581048D-02 -7.6803620206759D-02
   213  2.1200000000000D+00 -7.8513666702095D-02 -7.2106707694831D-02
   214  2.1300000000000D+00 -8.5992650887404D-02 -6.7521540621546D-02
   215  2.1400000000000D+00 -9.2898216649096D-02 -6.3053531803082D-02
   216  2.1500000000000D+00 -9.9237052995340D-02 -5.8707668217060D-02
   217  2.1600000000000D+00 -1.0501680035421D-01 -5.4488506824798D-02
   218  2.1700000000000D+00 -1.1024603404160D-01 -5.0400170876532D-02
   219  2.1800000000000D+00 -1.1493424739106D-01 -4.6446346702977D-02
   220  2.1900000000000D+00 -1.1909183466167D-01 -4.2630280977230D-02
   221  2.2000000000000D+00 -1.2273007373035D-01 -3.8954778412630D-02
   222  2.2100000000000D+00 -1.2586110880563D-01 -3.5422199891855D-02
   223  2.2200000000000D+00 -1.2849793313240D-01 -3.2034461000169D-02
   224  2.2300000000000D+00 -1.3065437178186D-01 -2.8793030946043D-02
   225  2.2400000000000D+00 -1.3234506476402D-01 -2.5698931843490D-02
   226  2.2500000000000D+00 -1.3358545029550D-01 -2.2752738350651D-02
   227  2.2600000000000D+00 -1.3439174852017D-01 -1.9954577629308D-02
   228  2.2700000000000D+00 -1.3478095121891D-01 -1.7304128122861D-02
   229  2.2800000000000D+00 -1.3477078470992D-01 -1.4800625982640D-02
   230  2.2900000000000D+00 -1.3437972966288D-01 -1.2442856519724D-02
   231  2.3000000000000D+00 -1.3362700831358D-01 -1.0229154936652D-02
   232  2.3100000000000D+00 -1.3253244752747D-01 -8.1574416927863D-03
   233  2.3200000000000D+00 -1.3111659519922D-01 -6.2251878579128D-03
   234  2.3300000000000D+00 -1.2940083479576D-01 -4.4293835273839D-03
   235  2.3400000000000D+00 -1.2740734609390D-01 -2.7665476411345D-03
   236  2.3500000000000D+00 -1.2515862827146D-01 -1.2328564269880D-03
   237  2.3600000000000D+00 -1.2267730669632D-01  1.7580726078164D-04
   238  2.3700000000000D+00 -1.1998586233321D-01  1.4637760806480D-03
   239  2.3800000000000D+00 -1.1710648820318D-01  2.6355534478388D-03
   240  2.3900000000000D+00 -1.1406042817333D-01  3.6956295194258D-03
   241  2.4000000000000D+00 -1.1086824966823D-01  4.6485482771470D-03
   242  2.4100000000000D+00 -1.0754974814079D-01  5.4988749769443D-03
   243  2.4200000000000D+00 -1.0412415813120D-01  6.2512426821403D-03
   244  2.4300000000000D+00 -1.0060990749394D-01  6.9102808308880D-03
   245  2.4400000000000D+00 -9.7024653833832D-02  7.4806166346225D-03
   246  2.4500000000000D+00 -9.3385294266487D-02  7.9668695992019D-03
   247  2.4600000000000D+00 -8.9707926766133D-02  8.3736331107067D-03
   248  2.4700000000000D+00 -8.6007845084144D-02  8.7054647775983D-03
   249  2.4800000000000D+00 -8.2299529634059D-02  8.9668755976588D-03
   250  2.4900000000000D+00 -7.8596641344161D-02  9.1623198257217D-03
   251  2.5000000000000D+00 -7.4912017680827D-02  9.2961853314194D-03
   252  2.5100000000000D+00 -7.1257671057295D-02  9.3727845216777D-03
   253  2.5200000000000D+00 -6.7644790120548D-02  9.3963459849289D-03
   254  2.5300000000000D+00 -6.4083743034067D-02  9.3710066172864D-03
   255  2.5400000000000D+00 -6.0584083018075D-02  9.3008043202249D-03
   256  2.5500000000000D+00 -5.7154556548947D-02  9.1896714051045D-03
   257  2.5600000000000D+00 -5.3803113393275D-02  9.0414284743626D-03
   258  2.5700000000000D+00 -5.0536918665705D-02  8.8597788498987D-03
   259  2.5800000000000D+00 -4.7362367303593D-02  8.6483036868195D-03
   260  2.5900000000000D+00 -4.4285100168391D-02  8.4104575447720D-03
   261  2.6000000000000D+00 -4.1310021881415D-02  8.1495644635899D-03
   262  2.6100000000000D+00 -3.8441320763949D-02  7.8688146833989D-03
   263  2.6200000000000D+00 -3.5682490189276D-02  7.5712618007414D-03
   264  2.6300000000000D+00 -3.3036351247460D-02  7.2598203430655D-03
   265  2.6400000000000D+00 -3.0505077336023D-02  6.9372639882435D-03
   266  2.6500000000000D+00 -2.8090219741108D-02  6.6062241364213D-03
   267  2.6600000000000D+00 -2.5792734453244D-02  6.2691889107274D-03
   268  2.6700000000000D+00 -2.3613010077916D-02  5.9285026131441D-03
   269  2.6800000000000D+00 -2.1550896712681D-02  5.5863655609970D-03
   270  2.6900000000000D+00 -1.9605735524917D-02  5.2448342354919D-03
   271  2.7000000000000D+00 -1.7776389248664D-02  4.9058218707504D-03
   272  2.7100000000000D+00 -1.6061273216150D-02  4.5710993428021D-03
   273  2.7200000000000D+00 -1.4458386792782D-02  4.2422963175181D-03
   274  2.7300000000000D+00 -1.2965345240495D-02  3.9209027232820D-03
   275  2.7400000000000D+00 -1.1579411783246D-02  3.6082704774388D-03
   276  2.7500000000000D+00 -1.0297529851786D-02  3.3056154404700D-03
   277  2.7600000000000D+00 -9.1163553457408D-03  3.0140195844702D-03
   278  2.7700000000000D+00 -8.0322883751338D-03  2.7344332630633D-03
   279  2.7800000000000D+00 -7.0415049929114D-03  2.4676776876229D-03
   280  2.7900000000000D+00 -6.1399887527121D-03  2.2144475542671D-03
   281  2.8000000000000D+00 -5.3235613042728D-03  1.9753137152343D-03
   282  2.8100000000000D+00 -4.5879126398195D-03  1.7507259678387D-03
   283  2.8200000000000D+00 -3.9286308228771D-03  1.5410159216195D-03
   284  2.8300000000000D+00 -3.3412305903152D-03  1.3463998728906D-03
   285  2.8400000000000D+00 -2.8211810921071D-03  1.1669816959196D-03
   286  2.8500000000000D+00 -2.3639328716460D-03  1.0027557721207D-03
   287  2.8600000000000D+00 -1.9649437288233D-03  8.5360989195338D-04
   288  2.8700000000000D+00 -1.6197029162415D-03  7.1932802066048D-04
   289  2.8800000000000D+00 -1.3237542126613D-03  5.9959301632204D-04
   290  2.8900000000000D+00 -1.0727187899537D-03  4.9398953491551D-04
   291  2.9000000000000D+00 -8.6231465499813D-04  4.0200637155303D-04
   292  2.9100000000000D+00 -6.8850620486087D-04  3.2307826352813D-04
   293  2.9200000000000D+00 -5.4716385933528D-04  2.5648041259194D-04
   294  2.9300000000000D+00 -4.3416433322586D-04  2.0135613371806D-04
   295  2.9400000000000D+00 -3.4568029827977D-04  1.5679670862629D-04
   296  2.9500000000000D+00 -2.7675415559764D-04  1.2132835077983D-04
   297  2.9600000000000D+00 -2.2706822120151D-04  9.4994176874268D-05
   298  2.9700000000000D+00 -1.9436439552791D-04  7.6981423381171D-05
   299  2.9800000000000D+00 -1.7861265732524D-04  6.7191460921943D-05
   300  2.9900000000000D+00 -1.7333506030861D-04  6.2974480614666D-05
   301  3.0000000000000D+00 -1.6690639515947D-04  5.9649025616575D-05
   302  3.0100000000000D+00 -1.5182219686407D-04  5.4043679241091D-05
   303  3.0200000000000D+00 -1.1442238944118D-04  4.0665894473545D-05
   304  3.0300000000000D+00 -6.8864231332115D-05  2.4485934553847D-05
   305  3.0400000000000D+00 -2.4434308422724D-05  8.7009130635388D-06
   306  3.0500000000000D+00  6.3358218259652D-06 -2.2364499441703D-06
   307  3.0600000000000D+00  1.5452245784436D-05 -5.4518646559040D-06
   308  3.0700000000000D+00  1.2690744159949D-05 -4.4764201290701D-06
   309  3.0800000000000D+00  3.3733382403565D-06 -1.1897425439322D-06
   310  3.0900000000000D+00 -2.2212979992299D-06  7.8127412105723D-07
   311  3.1000000000000D+00 -3.5083949447130D-06  1.2333567578669D-06
   312  3.1100000000000D+00 -2.4714613816242D-06  8.6845608891819D-07
   313  3.1200000000000D+00 -5.4094066701215D-08  1.9001230732815D-08
   314  3.1300000000000D+00  3.3683451539101D-07 -1.1990371032820D-07
   315  3.1400000000000D+00  4.2062128328502D-07 -1.4972946715492D-07
   316  3.1500000000000D+00  2.4197856353094D-07 -8.6137632165063D-08
   317  3.1600000000000D+00  0.0000000000000D+00  0.0000000000000D+00
   318  3.1700000000000D+00  0.0000000000000D+00  0.0000000000000D+00
   319  3.1800000000000D+00  0.0000000000000D+00  0.0000000000000D+00
   320  3.1900000000000D+00  0.0000000000000D+00  0.0000000000000D+00
   321  3.2000000000000D+00  0.0000000000000D+00  0.0000000000000D+00
   322  3.2100000000000D+00  0.0000000000000D+00  0.0000000000000D+00
   323  3.2200000000000D+00  0.0000000000000D+00  0.0000000000000D+00
   324  3.2300000000000D+00  0.0000000000000D+00  0.0000000000000D+00
   325  3.2400000000000D+00  0.0000000000000D+00  0.0000000000000D+00
   326  3.2500000000000D+00  0.0000000000000D+00  0.0000000000000D+00
   327  3.2600000000000D+00  0.0000000000000D+00  0.0000000000000D+00
   328  3.2700000000000D+00  0.0000000000000D+00  0.0000000000000D+00
   329  3.2800000000000D+00  0.0000000000000D+00  0.0000000000000D+00
   330  3.2900000000000D+00  0.0000000000000D+00  0.0000000000000D+00
   331  3.3000000000000D+00  0.0000000000000D+00  0.0000000000000D+00
   332  3.3100000000000D+00  0.0000000000000D+00  0.0000000000000D+00
   333  3.3200000000000D+00  0.0000000000000D+00  0.0000000000000D+00
   334  3.3300000000000D+00  0.0000000000000D+00  0.0000000000000D+00
   335  3.3400000000000D+00  0.0000000000000D+00  0.0000000000000D+00
   336  3.3500000000000D+00  0.0000000000000D+00  0.0000000000000D+00
   337  3.3600000000000D+00  0.0000000000000D+00  0.0000000000000D+00
   338  3.3700000000000D+00  0.0000000000000D+00  0.0000000000000D+00
   339  3.3800000000000D+00  0.0000000000000D+00  0.0000000000000D+00
   340  3.3900000000000D+00  0.0000000000000D+00  0.0000000000000D+00
   341  3.4000000000000D+00  0.0000000000000D+00  0.0000000000000D+00
   342  3.4100000000000D+00  0.0000000000000D+00  0.0000000000000D+00
   343  3.4200000000000D+00  0.0000000000000D+00  0.0000000000000D+00
   344  3.4300000000000D+00  0.0000000000000D+00  0.0000000000000D+00
   345  3.4400000000000D+00  0.0000000000000D+00  0.0000000000000D+00
   346  3.4500000000000D+00  0.0000000000000D+00  0.0000000000000D+00
   347  3.4600000000000D+00  0.0000000000000D+00  0.0000000000000D+00
   348  3.4700000000000D+00  0.0000000000000D+00  0.0000000000000D+00
   349  3.4800000000000D+00  0.0000000000000D+00  0.0000000000000D+00
   350  3.4900000000000D+00  0.0000000000000D+00  0.0000000000000D+00
   351  3.5000000000000D+00  0.0000000000000D+00  0.0000000000000D+00
   352  3.5100000000000D+00  0.0000000000000D+00  0.0000000000000D+00
   353  3.5200000000000D+00  0.0000000000000D+00  0.0000000000000D+00
   354  3.5300000000000D+00  0.0000000000000D+00  0.0000000000000D+00
   355  3.5400000000000D+00  0.0000000000000D+00  0.0000000000000D+00
   356  3.5500000000000D+00  0.0000000000000D+00  0.0000000000000D+00
   357  3.5600000000000D+00  0.0000000000000D+00  0.0000000000000D+00
   358  3.5700000000000D+00  0.0000000000000D+00  0.0000000000000D+00
   359  3.5800000000000D+00  0.0000000000000D+00  0.0000000000000D+00
   360  3.5900000000000D+00  0.0000000000000D+00  0.0000000000000D+00
   361  3.6000000000000D+00  0.0000000000000D+00  0.0000000000000D+00
   362  3.6100000000000D+00  0.0000000000000D+00  0.0000000000000D+00
   363  3.6200000000000D+00  0.0000000000000D+00  0.0000000000000D+00
   364  3.6300000000000D+00  0.0000000000000D+00  0.0000000000000D+00
   365  3.6400000000000D+00  0.0000000000000D+00  0.0000000000000D+00
   366  3.6500000000000D+00  0.0000000000000D+00  0.0000000000000D+00
   367  3.6600000000000D+00  0.0000000000000D+00  0.0000000000000D+00
   368  3.6700000000000D+00  0.0000000000000D+00  0.0000000000000D+00
   369  3.6800000000000D+00  0.0000000000000D+00  0.0000000000000D+00
   370  3.6900000000000D+00  0.0000000000000D+00  0.0000000000000D+00
   371  3.7000000000000D+00  0.0000000000000D+00  0.0000000000000D+00
   372  3.7100000000000D+00  0.0000000000000D+00  0.0000000000000D+00
   373  3.7200000000000D+00  0.0000000000000D+00  0.0000000000000D+00
   374  3.7300000000000D+00  0.0000000000000D+00  0.0000000000000D+00
   375  3.7400000000000D+00  0.0000000000000D+00  0.0000000000000D+00
   376  3.7500000000000D+00  0.0000000000000D+00  0.0000000000000D+00
   377  3.7600000000000D+00  0.0000000000000D+00  0.0000000000000D+00
   378  3.7700000000000D+00  0.0000000000000D+00  0.0000000000000D+00
   379  3.7800000000000D+00  0.0000000000000D+00  0.0000000000000D+00
   380  3.7900000000000D+00  0.0000000000000D+00  0.0000000000000D+00
   381  3.8000000000000D+00  0.0000000000000D+00  0.0000000000000D+00
   382  3.8100000000000D+00  0.0000000000000D+00  0.0000000000000D+00
   383  3.8200000000000D+00  0.0000000000000D+00  0.0000000000000D+00
   384  3.8300000000000D+00  0.0000000000000D+00  0.0000000000000D+00
   385  3.8400000000000D+00  0.0000000000000D+00  0.0000000000000D+00
   386  3.8500000000000D+00  0.0000000000000D+00  0.0000000000000D+00
   387  3.8600000000000D+00  0.0000000000000D+00  0.0000000000000D+00
   388  3.8700000000000D+00  0.0000000000000D+00  0.0000000000000D+00
   389  3.8800000000000D+00  0.0000000000000D+00  0.0000000000000D+00
   390  3.8900000000000D+00  0.0000000000000D+00  0.0000000000000D+00
   391  3.9000000000000D+00  0.0000000000000D+00  0.0000000000000D+00
   392  3.9100000000000D+00  0.0000000000000D+00  0.0000000000000D+00
   393  3.9200000000000D+00  0.0000000000000D+00  0.0000000000000D+00
   394  3.9300000000000D+00  0.0000000000000D+00  0.0000000000000D+00
   395  3.9400000000000D+00  0.0000000000000D+00  0.0000000000000D+00
   396  3.9500000000000D+00  0.0000000000000D+00  0.0000000000000D+00
   397  3.9600000000000D+00  0.0000000000000D+00  0.0000000000000D+00
   398  3.9700000000000D+00  0.0000000000000D+00  0.0000000000000D+00
   399  3.9800000000000D+00  0.0000000000000D+00  0.0000000000000D+00
   400  3.9900000000000D+00  0.0000000000000D+00  0.0000000000000D+00
   401  4.0000000000000D+00  0.0000000000000D+00  0.0000000000000D+00
   402  4.0100000000000D+00  0.0000000000000D+00  0.0000000000000D+00
   403  4.0200000000000D+00  0.0000000000000D+00  0.0000000000000D+00
   404  4.0300000000000D+00  0.0000000000000D+00  0.0000000000000D+00
   405  4.0400000000000D+00  0.0000000000000D+00  0.0000000000000D+00
   406  4.0500000000000D+00  0.0000000000000D+00  0.0000000000000D+00
   407  4.0600000000000D+00  0.0000000000000D+00  0.0000000000000D+00
   408  4.0700000000000D+00  0.0000000000000D+00  0.0000000000000D+00
   409  4.0800000000000D+00  0.0000000000000D+00  0.0000000000000D+00
   410  4.0900000000000D+00  0.0000000000000D+00  0.0000000000000D+00
   411  4.1000000000000D+00  0.0000000000000D+00  0.0000000000000D+00
   412  4.1100000000000D+00  0.0000000000000D+00  0.0000000000000D+00
   413  4.1200000000000D+00  0.0000000000000D+00  0.0000000000000D+00
   414  4.1300000000000D+00  0.0000000000000D+00  0.0000000000000D+00
   415  4.1400000000000D+00  0.0000000000000D+00  0.0000000000000D+00
   416  4.1500000000000D+00  0.0000000000000D+00  0.0000000000000D+00
   417  4.1600000000000D+00  0.0000000000000D+00  0.0000000000000D+00
   418  4.1700000000000D+00  0.0000000000000D+00  0.0000000000000D+00
   419  4.1800000000000D+00  0.0000000000000D+00  0.0000000000000D+00
   420  4.1900000000000D+00  0.0000000000000D+00  0.0000000000000D+00
   421  4.2000000000000D+00  0.0000000000000D+00  0.0000000000000D+00
   422  4.2100000000000D+00  0.0000000000000D+00  0.0000000000000D+00