Y     ONCVPSP-3.3.1  r_core=   2.32341   2.11194   1.85223
     39.0000     11.0000      210905    zatom,zion,pspd
     8 -116133   2     4   600     0    pspcod,pspxc,lmax,lloc,mmax,r2well
  5.99000000  0.00000000  0.00000000    rchrg fchrg qchrg
     2     2     2     0     0    nproj
     1     1           extension_switch
   0                         5.2278787267588D+00  8.3473056209968D-01
     1  0.0000000000000D+00  1.0345335699213D-11 -2.7180306616525D-11
     2  1.0000000000000D-02  4.2044145714085D-02 -3.8459024023721D-03
     3  2.0000000000000D-02  8.4056505253221D-02 -7.6999581727052D-03
     4  3.0000000000000D-02  1.2600525180224D-01 -1.1570125076452D-02
     5  4.0000000000000D-02  1.6785847773589D-01 -1.5463970975088D-02
     6  5.0000000000000D-02  2.0958415538707D-01 -1.9388482119849D-02
     7  6.0000000000000D-02  2.5115009921568D-01 -2.3349875321134D-02
     8  7.0000000000000D-02  2.9252392983283D-01 -2.7353415253536D-02
     9  8.0000000000000D-02  3.3367304032480D-01 -3.1403238129297D-02
    10  9.0000000000000D-02  3.7456456530833D-01 -3.5502182939257D-02
    11  1.0000000000000D-01  4.1516535313348D-01 -3.9651631420218D-02
    12  1.1000000000000D-01  4.5544194163285D-01 -4.3851357861314D-02
    13  1.2000000000000D-01  4.9536053779581D-01 -4.8099389809621D-02
    14  1.3000000000000D-01  5.3488700172443D-01 -5.2391880677083D-02
    15  1.4000000000000D-01  5.7398683520353D-01 -5.6722995187330D-02
    16  1.5000000000000D-01  6.1262517519124D-01 -6.1084808532014D-02
    17  1.6000000000000D-01  6.5076679250812D-01 -6.5467220032777D-02
    18  1.7000000000000D-01  6.8837609597354D-01 -6.9857882026625D-02
    19  1.8000000000000D-01  7.2541714220640D-01 -7.4242144610228D-02
    20  1.9000000000000D-01  7.6185365127453D-01 -7.8603016792497D-02
    21  2.0000000000000D-01  7.9764902834320D-01 -8.2921144515280D-02
    22  2.1000000000000D-01  8.3276639143789D-01 -8.7174805909641D-02
    23  2.2000000000000D-01  8.6716860540034D-01 -9.1339924060297D-02
    24  2.3000000000000D-01  9.0081832208002D-01 -9.5390097453763D-02
    25  2.4000000000000D-01  9.3367802676583D-01 -9.9296648187392D-02
    26  2.5000000000000D-01  9.6571009082460D-01 -1.0302868791678D-01
    27  2.6000000000000D-01  9.9687683047512D-01 -1.0655320141900D-01
    28  2.7000000000000D-01  1.0271405715882D+00 -1.0983514754878D-01
    29  2.8000000000000D-01  1.0564637203652D+00 -1.1283757726491D-01
    30  2.9000000000000D-01  1.0848088397097D+00 -1.1552176830539D-01
    31  3.0000000000000D-01  1.1121387310699D+00 -1.1784737599198D-01
    32  3.1000000000000D-01  1.1384165214933D+00 -1.1977259954989D-01
    33  3.2000000000000D-01  1.1636057555996D+00 -1.2125436323427D-01
    34  3.3000000000000D-01  1.1876704921414D+00 -1.2224851146594D-01
    35  3.4000000000000D-01  1.2105754047939D+00 -1.2271001709102D-01
    36  3.5000000000000D-01  1.2322858867776D+00 -1.2259320179671D-01
    37  3.6000000000000D-01  1.2527681588918D+00 -1.2185196763667D-01
    38  3.7000000000000D-01  1.2719893805072D+00 -1.2044003854512D-01
    39  3.8000000000000D-01  1.2899177630393D+00 -1.1831121065066D-01
    40  3.9000000000000D-01  1.3065226854014D+00 -1.1541961013688D-01
    41  4.0000000000000D-01  1.3217748109121D+00 -1.1171995734027D-01
    42  4.1000000000000D-01  1.3356462051161D+00 -1.0716783572421D-01
    43  4.2000000000000D-01  1.3481104539552D+00 -1.0171996432416D-01
    44  4.3000000000000D-01  1.3591427817183D+00 -9.5334472221166D-02
    45  4.4000000000000D-01  1.3687201681813D+00 -8.7971173570769D-02
    46  4.5000000000000D-01  1.3768214643443D+00 -7.9591841691451D-02
    47  4.6000000000000D-01  1.3834275061640D+00 -7.0160480701376D-02
    48  4.7000000000000D-01  1.3885212256789D+00 -5.9643593184658D-02
    49  4.8000000000000D-01  1.3920877589234D+00 -4.8010442368803D-02
    50  4.9000000000000D-01  1.3941145500305D+00 -3.5233307302909D-02
    51  5.0000000000000D-01  1.3945914509302D+00 -2.1287729542921D-02
    52  5.1000000000000D-01  1.3935108160580D+00 -6.1527498740740D-03
    53  5.2000000000000D-01  1.3908675915024D+00  1.0188866366865D-02
    54  5.3000000000000D-01  1.3866593980346D+00  2.7750416766962D-02
    55  5.4000000000000D-01  1.3808866074826D+00  4.6541063459572D-02
    56  5.5000000000000D-01  1.3735524119326D+00  6.6565650187989D-02
    57  5.6000000000000D-01  1.3646628852665D+00  8.7824536041373D-02
    58  5.7000000000000D-01  1.3542270365696D+00  1.1031344702420D-01
    59  5.8000000000000D-01  1.3422568549736D+00  1.3402334654352D-01
    60  5.9000000000000D-01  1.3287673455327D+00  1.5894032581483D-01
    61  6.0000000000000D-01  1.3137765557633D+00  1.8504551509781D-01
    62  6.1000000000000D-01  1.2973055925183D+00  2.1231501657777D-01
    63  6.2000000000000D-01  1.2793786289030D+00  2.4071985960800D-01
    64  6.3000000000000D-01  1.2600229009839D+00  2.7022597892218D-01
    65  6.4000000000000D-01  1.2392686940813D+00  3.0079421631665D-01
    66  6.5000000000000D-01  1.2171493184843D+00  3.3238034618795D-01
    67  6.6000000000000D-01  1.1937010744723D+00  3.6493512519384D-01
    68  6.7000000000000D-01  1.1689632065720D+00  3.9840436618672D-01
    69  6.8000000000000D-01  1.1429778470297D+00  4.3272903644554D-01
    70  6.9000000000000D-01  1.1157899485269D+00  4.6784538010943D-01
    71  7.0000000000000D-01  1.0874472062151D+00  5.0368506459147D-01
    72  7.1000000000000D-01  1.0579999691981D+00  5.4017535062689D-01
    73  7.2000000000000D-01  1.0275011416357D+00  5.7723928548537D-01
    74  7.3000000000000D-01  9.9600607369693D-01  6.1479591875424D-01
    75  7.4000000000000D-01  9.6357244263482D-01  6.5276053997850D-01
    76  7.5000000000000D-01  9.3026012430698D-01  6.9104493732382D-01
    77  7.6000000000000D-01  8.9613105551003D-01  7.2955767631418D-01
    78  7.7000000000000D-01  8.6124908754387D-01  7.6820439758258D-01
    79  7.8000000000000D-01  8.2567983146523D-01  8.0688813246648D-01
    80  7.9000000000000D-01  7.8949049553236D-01  8.4550963517647D-01
    81  8.0000000000000D-01  7.5274971538377D-01  8.8396773016987D-01
    82  8.1000000000000D-01  7.1552737753198D-01  9.2215967327003D-01
    83  8.2000000000000D-01  6.7789443678933D-01  9.5998152498775D-01
    84  8.3000000000000D-01  6.3992272827633D-01  9.9732853442446D-01
    85  8.4000000000000D-01  6.0168477469368D-01  1.0340955320675D+00
    86  8.5000000000000D-01  5.6325358956627D-01  1.0701773297264D+00
    87  8.6000000000000D-01  5.2470247719259D-01  1.1054691258077D+00
    88  8.7000000000000D-01  4.8610483005356D-01  1.1398669140798D+00
    89  8.8000000000000D-01  4.4753392445267D-01  1.1732678940481D+00
    90  8.9000000000000D-01  4.0906271517382D-01  1.2055708810329D+00
    91  9.0000000000000D-01  3.7076362995315D-01  1.2366767140295D+00
    92  9.1000000000000D-01  3.3270836456865D-01  1.2664886594228D+00
    93  9.2000000000000D-01  2.9496767935373D-01  1.2949128086351D+00
    94  9.3000000000000D-01  2.5761119794061D-01  1.3218584677995D+00
    95  9.4000000000000D-01  2.2070720903432D-01  1.3472385375757D+00
    96  9.5000000000000D-01  1.8432247200996D-01  1.3709698812615D+00
    97  9.6000000000000D-01  1.4852202711318D-01  1.3929736793960D+00
    98  9.7000000000000D-01  1.1336901102772D-01  1.4131757691059D+00
    99  9.8000000000000D-01  7.8924478554449D-02  1.4315069665103D+00
   100  9.9000000000000D-01  4.5247231122069D-02  1.4479033705715D+00
   101  1.0000000000000D+00  1.2393652823129D-02  1.4623066468628D+00
   102  1.0100000000000D+00 -1.9582445361754D-02  1.4746642898123D+00
   103  1.0200000000000D+00 -5.0629972522285D-02  1.4849298620836D+00
   104  1.0300000000000D+00 -8.0700695367059D-02  1.4930632098559D+00
   105  1.0400000000000D+00 -1.0974936581123D-01  1.4990306528859D+00
   106  1.0500000000000D+00 -1.3773383809097D-01  1.5028051483420D+00
   107  1.0600000000000D+00 -1.6461517494254D-01  1.5043664275398D+00
   108  1.0700000000000D+00 -1.9035774242786D-01  1.5037011048290D+00
   109  1.0800000000000D+00 -2.1492929303859D-01  1.5008027580185D+00
   110  1.0900000000000D+00 -2.3830103676593D-01  1.4956719798760D+00
   111  1.1000000000000D+00 -2.6044769986653D-01  1.4883164003519D+00
   112  1.1100000000000D+00 -2.8134757112169D-01  1.4787506793568D+00
   113  1.1200000000000D+00 -3.0098253543267D-01  1.4669964700404D+00
   114  1.1300000000000D+00 -3.1933809465859D-01  1.4530823526852D+00
   115  1.1400000000000D+00 -3.3640337564988D-01  1.4370437394492D+00
   116  1.1500000000000D+00 -3.5217112549598D-01  1.4189227503606D+00
   117  1.1600000000000D+00 -3.6663769405833D-01  1.3987680610984D+00
   118  1.1700000000000D+00 -3.7980300392133D-01  1.3766347232478D+00
   119  1.1800000000000D+00 -3.9167050793266D-01  1.3525839578170D+00
   120  1.1900000000000D+00 -4.0224713457927D-01  1.3266829229819D+00
   121  1.2000000000000D+00 -4.1154322148749D-01  1.2990044571327D+00
   122  1.2100000000000D+00 -4.1957243738841D-01  1.2696267984144D+00
   123  1.2200000000000D+00 -4.2635169293118D-01  1.2386332820570D+00
   124  1.2300000000000D+00 -4.3190104079104D-01  1.2061120169362D+00
   125  1.2400000000000D+00 -4.3624356555718D-01  1.1721555428904D+00
   126  1.2500000000000D+00 -4.3940526390622D-01  1.1368604703652D+00
   127  1.2600000000000D+00 -4.4141491564341D-01  1.1003271041243D+00
   128  1.2700000000000D+00 -4.4230394620964D-01  1.0626590527882D+00
   129  1.2800000000000D+00 -4.4210628127150D-01  1.0239628260073D+00
   130  1.2900000000000D+00 -4.4085819407243D-01  9.8434742119077D-01
   131  1.3000000000000D+00 -4.3859814623188D-01  9.4392390171202D-01
   132  1.3100000000000D+00 -4.3536662268917D-01  9.0280496854124D-01
   133  1.3200000000000D+00 -4.3120596153730D-01  8.6110452731737D-01
   134  1.3300000000000D+00 -4.2616017948207D-01  8.1893725283105D-01
   135  1.3400000000000D+00 -4.2027479367834D-01  7.7641815293767D-01
   136  1.3500000000000D+00 -4.1359664071172D-01  7.3366213387375D-01
   137  1.3600000000000D+00 -4.0617369347905D-01  6.9078356892819D-01
   138  1.3700000000000D+00 -3.9805487674155D-01  6.4789587244353D-01
   139  1.3800000000000D+00 -3.8928988209216D-01  6.0511108095604D-01
   140  1.3900000000000D+00 -3.7992898309720D-01  5.6253944338055D-01
   141  1.4000000000000D+00 -3.7002285134509D-01  5.2028902197908D-01
   142  1.4100000000000D+00 -3.5962237409698D-01  4.7846530573146D-01
   143  1.4200000000000D+00 -3.4877847428258D-01  4.3717083788720D-01
   144  1.4300000000000D+00 -3.3754193345315D-01  3.9650485898481D-01
   145  1.4400000000000D+00 -3.2596321838839D-01  3.5656296694626D-01
   146  1.4500000000000D+00 -3.1409231195135D-01  3.1743679546475D-01
   147  1.4600000000000D+00 -3.0197854874094D-01  2.7921371178094D-01
   148  1.4700000000000D+00 -2.8967045617507D-01  2.4197653519418D-01
   149  1.4800000000000D+00 -2.7721560137280D-01  2.0580327680442D-01
   150  1.4900000000000D+00 -2.6466044445915D-01  1.7076690179744D-01
   151  1.5000000000000D+00 -2.5205019857017D-01  1.3693511448119D-01
   152  1.5100000000000D+00 -2.3942869702617D-01  1.0437016689428D-01
   153  1.5200000000000D+00 -2.2683826798579D-01  7.3128691304570D-02
   154  1.5300000000000D+00 -2.1431961679586D-01  4.3261556650258D-02
   155  1.5400000000000D+00 -2.0191171642759D-01  1.4813749468993D-02
   156  1.5500000000000D+00 -1.8965170593979D-01 -1.2175721431789D-02
   157  1.5600000000000D+00 -1.7757479741862D-01 -3.7673895859728D-02
   158  1.5700000000000D+00 -1.6571419113173D-01 -6.1653909991394D-02
   159  1.5800000000000D+00 -1.5410099927467D-01 -8.4095020510035D-02
   160  1.5900000000000D+00 -1.4276417799311D-01 -1.0498260657371D-01
   161  1.6000000000000D+00 -1.3173046787375D-01 -1.2430814965406D-01
   162  1.6100000000000D+00 -1.2102434260265D-01 -1.4206919263359D-01
   163  1.6200000000000D+00 -1.1066796577751D-01 -1.5826927876074D-01
   164  1.6300000000000D+00 -1.0068115559396D-01 -1.7291787178574D-01
   165  1.6400000000000D+00 -9.1081357205711D-02 -1.8603025835244D-01
   166  1.6500000000000D+00 -8.1883622486565D-02 -1.9762743395137D-01
   167  1.6600000000000D+00 -7.3100596842659D-02 -2.0773597386344D-01
   168  1.6700000000000D+00 -6.4742512789001D-02 -2.1638789044548D-01
   169  1.6800000000000D+00 -5.6817189831508D-02 -2.2362047840354D-01
   170  1.6900000000000D+00 -4.9330038899255D-02 -2.2947615405436D-01
   171  1.7000000000000D+00 -4.2284079673787D-02 -2.3400226216832D-01
   172  1.7100000000000D+00 -3.5679938921454D-02 -2.3725095108622D-01
   173  1.7200000000000D+00 -2.9515914033891D-02 -2.3927885444663D-01
   174  1.7300000000000D+00 -2.3787983718985D-02 -2.4014694074564D-01
   175  1.7400000000000D+00 -1.8489700667111D-02 -2.3992075476576D-01
   176  1.7500000000000D+00 -1.3612399864981D-02 -2.3866966634183D-01
   177  1.7600000000000D+00 -9.1455798532958D-03 -2.3646556401100D-01
   178  1.7700000000000D+00 -5.0772210918435D-03 -2.3338181009721D-01
   179  1.7800000000000D+00 -1.3942188770467D-03 -2.2949189012602D-01
   180  1.7900000000000D+00  1.9173142164063D-03 -2.2486848129975D-01
   181  1.8000000000000D+00  4.8720651369333D-03 -2.1958356203659D-01
   182  1.8100000000000D+00  7.4854391749485D-03 -2.1370822501500D-01
   183  1.8200000000000D+00  9.7733938676421D-03 -2.0731220686900D-01
   184  1.8300000000000D+00  1.1752356593533D-02 -2.0046370384872D-01
   185  1.8400000000000D+00  1.3439110750157D-02 -1.9322909037130D-01
   186  1.8500000000000D+00  1.4850695702780D-02 -1.8567268838095D-01
   187  1.8600000000000D+00  1.6004308178626D-02 -1.7785654734945D-01
   188  1.8700000000000D+00  1.6917207187085D-02 -1.6984024097248D-01
   189  1.8800000000000D+00  1.7606623795512D-02 -1.6168068466598D-01
   190  1.8900000000000D+00  1.8089675103651D-02 -1.5343197127657D-01
   191  1.9000000000000D+00  1.8383283287072D-02 -1.4514522743732D-01
   192  1.9100000000000D+00  1.8504099831822D-02 -1.3686849056466D-01
   193  1.9200000000000D+00  1.8468434816507D-02 -1.2864660564450D-01
   194  1.9300000000000D+00  1.8292191941273D-02 -1.2052114372943D-01
   195  1.9400000000000D+00  1.7990808502829D-02 -1.1253033909464D-01
   196  1.9500000000000D+00  1.7579201963063D-02 -1.0470904993769D-01
   197  1.9600000000000D+00  1.7071721468070D-02 -9.7088737003897D-02
   198  1.9700000000000D+00  1.6482105619906D-02 -8.9697463866979D-02
   199  1.9800000000000D+00  1.5823445715467D-02 -8.2559915993287D-02
   200  1.9900000000000D+00  1.5108154586597D-02 -7.5697438603345D-02
   201  2.0000000000000D+00  1.4347941373458D-02 -6.9128093962442D-02
   202  2.0100000000000D+00  1.3553791090007D-02 -6.2866734192805D-02
   203  2.0200000000000D+00  1.2735950207623D-02 -5.6925092923177D-02
   204  2.0300000000000D+00  1.1903916689740D-02 -5.1311890648546D-02
   205  2.0400000000000D+00  1.1066435250277D-02 -4.6032955669849D-02
   206  2.0500000000000D+00  1.0231497189233D-02 -4.1091358293458D-02
   207  2.0600000000000D+00  9.4063443536764D-03 -3.6487556548224D-02
   208  2.0700000000000D+00  8.5974775646483D-03 -3.2219553895654D-02
   209  2.0800000000000D+00  7.8106684013813D-03 -2.8283065460590D-02
   210  2.0900000000000D+00  7.0509747193085D-03 -2.4671693192559D-02
   211  2.1000000000000D+00  6.3227591710369D-03 -2.1377107631198D-02
   212  2.1100000000000D+00  5.6297104504691D-03 -1.8389235003867D-02
   213  2.1200000000000D+00  4.9748670504042D-03 -1.5696448395908D-02
   214  2.1300000000000D+00  4.3606430393838D-03 -1.3285761688418D-02
   215  2.1400000000000D+00  3.7888555039680D-03 -1.1143024172882D-02
   216  2.1500000000000D+00  3.2607533898834D-03 -9.2531152157586D-03
   217  2.1600000000000D+00  2.7770473915755D-03 -7.6001375281425D-03
   218  2.1700000000000D+00  2.3379402568136D-03 -6.1676063195722D-03
   219  2.1800000000000D+00  1.9431577869513D-03 -4.9386357963627D-03
   220  2.1900000000000D+00  1.5919794636631D-03 -3.8961185494918D-03
   221  2.2000000000000D+00  1.2832688009305D-03 -3.0228983532135D-03
   222  2.2100000000000D+00  1.0155035099977D-03 -2.3019367607318D-03
   223  2.2200000000000D+00  7.8680395962816D-04 -1.7164674919941D-03
   224  2.2300000000000D+00  5.9496122541652D-04 -1.2501437608747D-03
   225  2.2400000000000D+00  4.3746345111629D-04 -8.8717354631953D-04
   226  2.2500000000000D+00  3.1153997981866D-04 -6.1253455608892D-04
   227  2.2600000000000D+00  2.1410877145230D-04 -4.1172981501394D-04
   228  2.2700000000000D+00  1.4181098123077D-04 -2.7109282982523D-04
   229  2.2800000000000D+00  9.0944627637619D-05 -1.7769186668448D-04
   230  2.2900000000000D+00  5.8621666682287D-05 -1.2220936040639D-04
   231  2.3000000000000D+00  4.1773169770167D-05 -9.6256596984434D-05
   232  2.3100000000000D+00  3.5326052195477D-05 -8.8139914215884D-05
   233  2.3200000000000D+00  3.1653723107902D-05 -8.1370700719357D-05
   234  2.3300000000000D+00  2.3636488239330D-05 -6.1140480460692D-05
   235  2.3400000000000D+00  1.1994840613115D-05 -3.1024449407186D-05
   236  2.3500000000000D+00  1.1410368943652D-06 -2.9408550133085D-06
   237  2.3600000000000D+00 -2.8854765242358D-06  7.5932191819339D-06
   238  2.3700000000000D+00 -2.3687996104977D-06  6.2406184049201D-06
   239  2.3800000000000D+00  4.7500958239062D-08 -1.2552959539638D-07
   240  2.3900000000000D+00  6.4484308271073D-07 -1.7068018107334D-06
   241  2.4000000000000D+00  4.8055126832339D-07 -1.2735949267948D-06
   242  2.4100000000000D+00 -2.0977515824887D-08  5.4019969566166D-08
   243  2.4200000000000D+00 -8.3705928732719D-08  2.1555420386263D-07
   244  2.4300000000000D+00 -5.5504174899094D-08  1.4293083432153D-07
   245  2.4400000000000D+00  0.0000000000000D+00  0.0000000000000D+00
   246  2.4500000000000D+00  0.0000000000000D+00  0.0000000000000D+00
   247  2.4600000000000D+00  0.0000000000000D+00  0.0000000000000D+00
   248  2.4700000000000D+00  0.0000000000000D+00  0.0000000000000D+00
   249  2.4800000000000D+00  0.0000000000000D+00  0.0000000000000D+00
   250  2.4900000000000D+00  0.0000000000000D+00  0.0000000000000D+00
   251  2.5000000000000D+00  0.0000000000000D+00  0.0000000000000D+00
   252  2.5100000000000D+00  0.0000000000000D+00  0.0000000000000D+00
   253  2.5200000000000D+00  0.0000000000000D+00  0.0000000000000D+00
   254  2.5300000000000D+00  0.0000000000000D+00  0.0000000000000D+00
   255  2.5400000000000D+00  0.0000000000000D+00  0.0000000000000D+00
   256  2.5500000000000D+00  0.0000000000000D+00  0.0000000000000D+00
   257  2.5600000000000D+00  0.0000000000000D+00  0.0000000000000D+00
   258  2.5700000000000D+00  0.0000000000000D+00  0.0000000000000D+00
   259  2.5800000000000D+00  0.0000000000000D+00  0.0000000000000D+00
   260  2.5900000000000D+00  0.0000000000000D+00  0.0000000000000D+00
   261  2.6000000000000D+00  0.0000000000000D+00  0.0000000000000D+00
   262  2.6100000000000D+00  0.0000000000000D+00  0.0000000000000D+00
   263  2.6200000000000D+00  0.0000000000000D+00  0.0000000000000D+00
   264  2.6300000000000D+00  0.0000000000000D+00  0.0000000000000D+00
   265  2.6400000000000D+00  0.0000000000000D+00  0.0000000000000D+00
   266  2.6500000000000D+00  0.0000000000000D+00  0.0000000000000D+00
   267  2.6600000000000D+00  0.0000000000000D+00  0.0000000000000D+00
   268  2.6700000000000D+00  0.0000000000000D+00  0.0000000000000D+00
   269  2.6800000000000D+00  0.0000000000000D+00  0.0000000000000D+00
   270  2.6900000000000D+00  0.0000000000000D+00  0.0000000000000D+00
   271  2.7000000000000D+00  0.0000000000000D+00  0.0000000000000D+00
   272  2.7100000000000D+00  0.0000000000000D+00  0.0000000000000D+00
   273  2.7200000000000D+00  0.0000000000000D+00  0.0000000000000D+00
   274  2.7300000000000D+00  0.0000000000000D+00  0.0000000000000D+00
   275  2.7400000000000D+00  0.0000000000000D+00  0.0000000000000D+00
   276  2.7500000000000D+00  0.0000000000000D+00  0.0000000000000D+00
   277  2.7600000000000D+00  0.0000000000000D+00  0.0000000000000D+00
   278  2.7700000000000D+00  0.0000000000000D+00  0.0000000000000D+00
   279  2.7800000000000D+00  0.0000000000000D+00  0.0000000000000D+00
   280  2.7900000000000D+00  0.0000000000000D+00  0.0000000000000D+00
   281  2.8000000000000D+00  0.0000000000000D+00  0.0000000000000D+00
   282  2.8100000000000D+00  0.0000000000000D+00  0.0000000000000D+00
   283  2.8200000000000D+00  0.0000000000000D+00  0.0000000000000D+00
   284  2.8300000000000D+00  0.0000000000000D+00  0.0000000000000D+00
   285  2.8400000000000D+00  0.0000000000000D+00  0.0000000000000D+00
   286  2.8500000000000D+00  0.0000000000000D+00  0.0000000000000D+00
   287  2.8600000000000D+00  0.0000000000000D+00  0.0000000000000D+00
   288  2.8700000000000D+00  0.0000000000000D+00  0.0000000000000D+00
   289  2.8800000000000D+00  0.0000000000000D+00  0.0000000000000D+00
   290  2.8900000000000D+00  0.0000000000000D+00  0.0000000000000D+00
   291  2.9000000000000D+00  0.0000000000000D+00  0.0000000000000D+00
   292  2.9100000000000D+00  0.0000000000000D+00  0.0000000000000D+00
   293  2.9200000000000D+00  0.0000000000000D+00  0.0000000000000D+00
   294  2.9300000000000D+00  0.0000000000000D+00  0.0000000000000D+00
   295  2.9400000000000D+00  0.0000000000000D+00  0.0000000000000D+00
   296  2.9500000000000D+00  0.0000000000000D+00  0.0000000000000D+00
   297  2.9600000000000D+00  0.0000000000000D+00  0.0000000000000D+00
   298  2.9700000000000D+00  0.0000000000000D+00  0.0000000000000D+00
   299  2.9800000000000D+00  0.0000000000000D+00  0.0000000000000D+00
   300  2.9900000000000D+00  0.0000000000000D+00  0.0000000000000D+00
   301  3.0000000000000D+00  0.0000000000000D+00  0.0000000000000D+00
   302  3.0100000000000D+00  0.0000000000000D+00  0.0000000000000D+00
   303  3.0200000000000D+00  0.0000000000000D+00  0.0000000000000D+00
   304  3.0300000000000D+00  0.0000000000000D+00  0.0000000000000D+00
   305  3.0400000000000D+00  0.0000000000000D+00  0.0000000000000D+00
   306  3.0500000000000D+00  0.0000000000000D+00  0.0000000000000D+00
   307  3.0600000000000D+00  0.0000000000000D+00  0.0000000000000D+00
   308  3.0700000000000D+00  0.0000000000000D+00  0.0000000000000D+00
   309  3.0800000000000D+00  0.0000000000000D+00  0.0000000000000D+00
   310  3.0900000000000D+00  0.0000000000000D+00  0.0000000000000D+00
   311  3.1000000000000D+00  0.0000000000000D+00  0.0000000000000D+00
   312  3.1100000000000D+00  0.0000000000000D+00  0.0000000000000D+00
   313  3.1200000000000D+00  0.0000000000000D+00  0.0000000000000D+00
   314  3.1300000000000D+00  0.0000000000000D+00  0.0000000000000D+00
   315  3.1400000000000D+00  0.0000000000000D+00  0.0000000000000D+00
   316  3.1500000000000D+00  0.0000000000000D+00  0.0000000000000D+00
   317  3.1600000000000D+00  0.0000000000000D+00  0.0000000000000D+00
   318  3.1700000000000D+00  0.0000000000000D+00  0.0000000000000D+00
   319  3.1800000000000D+00  0.0000000000000D+00  0.0000000000000D+00
   320  3.1900000000000D+00  0.0000000000000D+00  0.0000000000000D+00
   321  3.2000000000000D+00  0.0000000000000D+00  0.0000000000000D+00
   322  3.2100000000000D+00  0.0000000000000D+00  0.0000000000000D+00
   323  3.2200000000000D+00  0.0000000000000D+00  0.0000000000000D+00
   324  3.2300000000000D+00  0.0000000000000D+00  0.0000000000000D+00
   325  3.2400000000000D+00  0.0000000000000D+00  0.0000000000000D+00
   326  3.2500000000000D+00  0.0000000000000D+00  0.0000000000000D+00
   327  3.2600000000000D+00  0.0000000000000D+00  0.0000000000000D+00
   328  3.2700000000000D+00  0.0000000000000D+00  0.0000000000000D+00
   329  3.2800000000000D+00  0.0000000000000D+00  0.0000000000000D+00
   330  3.2900000000000D+00  0.0000000000000D+00  0.0000000000000D+00
   331  3.3000000000000D+00  0.0000000000000D+00  0.0000000000000D+00
   332  3.3100000000000D+00  0.0000000000000D+00  0.0000000000000D+00
   333  3.3200000000000D+00  0.0000000000000D+00  0.0000000000000D+00
   334  3.3300000000000D+00  0.0000000000000D+00  0.0000000000000D+00
   335  3.3400000000000D+00  0.0000000000000D+00  0.0000000000000D+00
   336  3.3500000000000D+00  0.0000000000000D+00  0.0000000000000D+00
   337  3.3600000000000D+00  0.0000000000000D+00  0.0000000000000D+00
   338  3.3700000000000D+00  0.0000000000000D+00  0.0000000000000D+00
   339  3.3800000000000D+00  0.0000000000000D+00  0.0000000000000D+00
   340  3.3900000000000D+00  0.0000000000000D+00  0.0000000000000D+00
   341  3.4000000000000D+00  0.0000000000000D+00  0.0000000000000D+00
   342  3.4100000000000D+00  0.0000000000000D+00  0.0000000000000D+00
   343  3.4200000000000D+00  0.0000000000000D+00  0.0000000000000D+00
   344  3.4300000000000D+00  0.0000000000000D+00  0.0000000000000D+00
   345  3.4400000000000D+00  0.0000000000000D+00  0.0000000000000D+00
   346  3.4500000000000D+00  0.0000000000000D+00  0.0000000000000D+00
   347  3.4600000000000D+00  0.0000000000000D+00  0.0000000000000D+00
   348  3.4700000000000D+00  0.0000000000000D+00  0.0000000000000D+00
   349  3.4800000000000D+00  0.0000000000000D+00  0.0000000000000D+00
   350  3.4900000000000D+00  0.0000000000000D+00  0.0000000000000D+00
   351  3.5000000000000D+00  0.0000000000000D+00  0.0000000000000D+00
   352  3.5100000000000D+00  0.0000000000000D+00  0.0000000000000D+00
   353  3.5200000000000D+00  0.0000000000000D+00  0.0000000000000D+00
   354  3.5300000000000D+00  0.0000000000000D+00  0.0000000000000D+00
   355  3.5400000000000D+00  0.0000000000000D+00  0.0000000000000D+00
   356  3.5500000000000D+00  0.0000000000000D+00  0.0000000000000D+00
   357  3.5600000000000D+00  0.0000000000000D+00  0.0000000000000D+00
   358  3.5700000000000D+00  0.0000000000000D+00  0.0000000000000D+00
   359  3.5800000000000D+00  0.0000000000000D+00  0.0000000000000D+00
   360  3.5900000000000D+00  0.0000000000000D+00  0.0000000000000D+00
   361  3.6000000000000D+00  0.0000000000000D+00  0.0000000000000D+00
   362  3.6100000000000D+00  0.0000000000000D+00  0.0000000000000D+00
   363  3.6200000000000D+00  0.0000000000000D+00  0.0000000000000D+00
   364  3.6300000000000D+00  0.0000000000000D+00  0.0000000000000D+00
   365  3.6400000000000D+00  0.0000000000000D+00  0.0000000000000D+00
   366  3.6500000000000D+00  0.0000000000000D+00  0.0000000000000D+00
   367  3.6600000000000D+00  0.0000000000000D+00  0.0000000000000D+00
   368  3.6700000000000D+00  0.0000000000000D+00  0.0000000000000D+00
   369  3.6800000000000D+00  0.0000000000000D+00  0.0000000000000D+00
   370  3.6900000000000D+00  0.0000000000000D+00  0.0000000000000D+00
   371  3.7000000000000D+00  0.0000000000000D+00  0.0000000000000D+00
   372  3.7100000000000D+00  0.0000000000000D+00  0.0000000000000D+00
   373  3.7200000000000D+00  0.0000000000000D+00  0.0000000000000D+00
   374  3.7300000000000D+00  0.0000000000000D+00  0.0000000000000D+00
   375  3.7400000000000D+00  0.0000000000000D+00  0.0000000000000D+00
   376  3.7500000000000D+00  0.0000000000000D+00  0.0000000000000D+00
   377  3.7600000000000D+00  0.0000000000000D+00  0.0000000000000D+00
   378  3.7700000000000D+00  0.0000000000000D+00  0.0000000000000D+00
   379  3.7800000000000D+00  0.0000000000000D+00  0.0000000000000D+00
   380  3.7900000000000D+00  0.0000000000000D+00  0.0000000000000D+00
   381  3.8000000000000D+00  0.0000000000000D+00  0.0000000000000D+00
   382  3.8100000000000D+00  0.0000000000000D+00  0.0000000000000D+00
   383  3.8200000000000D+00  0.0000000000000D+00  0.0000000000000D+00
   384  3.8300000000000D+00  0.0000000000000D+00  0.0000000000000D+00
   385  3.8400000000000D+00  0.0000000000000D+00  0.0000000000000D+00
   386  3.8500000000000D+00  0.0000000000000D+00  0.0000000000000D+00
   387  3.8600000000000D+00  0.0000000000000D+00  0.0000000000000D+00
   388  3.8700000000000D+00  0.0000000000000D+00  0.0000000000000D+00
   389  3.8800000000000D+00  0.0000000000000D+00  0.0000000000000D+00
   390  3.8900000000000D+00  0.0000000000000D+00  0.0000000000000D+00
   391  3.9000000000000D+00  0.0000000000000D+00  0.0000000000000D+00
   392  3.9100000000000D+00  0.0000000000000D+00  0.0000000000000D+00
   393  3.9200000000000D+00  0.0000000000000D+00  0.0000000000000D+00
   394  3.9300000000000D+00  0.0000000000000D+00  0.0000000000000D+00
   395  3.9400000000000D+00  0.0000000000000D+00  0.0000000000000D+00
   396  3.9500000000000D+00  0.0000000000000D+00  0.0000000000000D+00
   397  3.9600000000000D+00  0.0000000000000D+00  0.0000000000000D+00
   398  3.9700000000000D+00  0.0000000000000D+00  0.0000000000000D+00
   399  3.9800000000000D+00  0.0000000000000D+00  0.0000000000000D+00
   400  3.9900000000000D+00  0.0000000000000D+00  0.0000000000000D+00
   401  4.0000000000000D+00  0.0000000000000D+00  0.0000000000000D+00
   402  4.0100000000000D+00  0.0000000000000D+00  0.0000000000000D+00
   403  4.0200000000000D+00  0.0000000000000D+00  0.0000000000000D+00
   404  4.0300000000000D+00  0.0000000000000D+00  0.0000000000000D+00
   405  4.0400000000000D+00  0.0000000000000D+00  0.0000000000000D+00
   406  4.0500000000000D+00  0.0000000000000D+00  0.0000000000000D+00
   407  4.0600000000000D+00  0.0000000000000D+00  0.0000000000000D+00
   408  4.0700000000000D+00  0.0000000000000D+00  0.0000000000000D+00
   409  4.0800000000000D+00  0.0000000000000D+00  0.0000000000000D+00
   410  4.0900000000000D+00  0.0000000000000D+00  0.0000000000000D+00
   411  4.1000000000000D+00  0.0000000000000D+00  0.0000000000000D+00
   412  4.1100000000000D+00  0.0000000000000D+00  0.0000000000000D+00
   413  4.1200000000000D+00  0.0000000000000D+00  0.0000000000000D+00
   414  4.1300000000000D+00  0.0000000000000D+00  0.0000000000000D+00
   415  4.1400000000000D+00  0.0000000000000D+00  0.0000000000000D+00
   416  4.1500000000000D+00  0.0000000000000D+00  0.0000000000000D+00
   417  4.1600000000000D+00  0.0000000000000D+00  0.0000000000000D+00
   418  4.1700000000000D+00  0.0000000000000D+00  0.0000000000000D+00
   419  4.1800000000000D+00  0.0000000000000D+00  0.0000000000000D+00
   420  4.1900000000000D+00  0.0000000000000D+00  0.0000000000000D+00
   421  4.2000000000000D+00  0.0000000000000D+00  0.0000000000000D+00
   422  4.2100000000000D+00  0.0000000000000D+00  0.0000000000000D+00