Zn    ONCVPSP-3.3.1  r_core=   1.96594   2.08676   2.08676
     30.0000     20.0000      210905    zatom,zion,pspd
     8 -116133   2     4   600     0    pspcod,pspxc,lmax,lloc,mmax,r2well
  5.99000000  0.00000000  0.00000000    rchrg fchrg qchrg
     2     2     2     0    nproj
     3     1           extension_switch
     3     3     0    nprojso
   0                        -3.7928693720310D+00 -2.8866196665119D-01
     1  0.0000000000000D+00 -7.4948380834883D-12 -1.9203911377774D-10
     2  1.0000000000000D-02  4.2237785052101D-02 -5.6031892146374D-03
     3  2.0000000000000D-02  8.4430490113011D-02 -1.1299537817566D-02
     4  3.0000000000000D-02  1.2653311200442D-01 -1.7181262832865D-02
     5  4.0000000000000D-02  1.6850080089925D-01 -2.3338703549025D-02
     6  5.0000000000000D-02  2.1028893631276D-01 -2.9859400084326D-02
     7  6.0000000000000D-02  2.5185320227761D-01 -3.6827192735521D-02
     8  7.0000000000000D-02  2.9314966143980D-01 -4.4321348810938D-02
     9  8.0000000000000D-02  3.3413482781956D-01 -5.2415723457101D-02
    10  9.0000000000000D-02  3.7476573799103D-01 -6.1177960750007D-02
    11  1.0000000000000D-01  4.1500002044493D-01 -7.0668741040721D-02
    12  1.1000000000000D-01  4.5479596291145D-01 -8.0941080221208D-02
    13  1.2000000000000D-01  4.9411257743412D-01 -9.2039686212921D-02
    14  1.3000000000000D-01  5.3290966300103D-01 -1.0400037758014D-01
    15  1.4000000000000D-01  5.7114786555642D-01 -1.1684956873483D-01
    16  1.5000000000000D-01  6.0878873523309D-01 -1.3060382573327D-01
    17  1.6000000000000D-01  6.4579478066497D-01 -1.4526949616989D-01
    18  1.7000000000000D-01  6.8212952025865D-01 -1.6084241615397D-01
    19  1.8000000000000D-01  7.1775753032246D-01 -1.7730769681405D-01
    20  1.9000000000000D-01  7.5264448997268D-01 -1.9463959221636D-01
    21  2.0000000000000D-01  7.8675722275702D-01 -2.1280145001141D-01
    22  2.1000000000000D-01  8.2006373495663D-01 -2.3174574554132D-01
    23  2.2000000000000D-01  8.5253325054865D-01 -2.5141419955264D-01
    24  2.3000000000000D-01  8.8413624283245D-01 -2.7173797907060D-01
    25  2.4000000000000D-01  9.1484446274246D-01 -2.9263798040390D-01
    26  2.5000000000000D-01  9.4463096389072D-01 -3.1402519266935D-01
    27  2.6000000000000D-01  9.7347012440102D-01 -3.3580113965570D-01
    28  2.7000000000000D-01  1.0013376656147D+00 -3.5785839729152D-01
    29  2.8000000000000D-01  1.0282106677655D+00 -3.8008118344498D-01
    30  2.9000000000000D-01  1.0540675827358D+00 -4.0234601626902D-01
    31  3.0000000000000D-01  1.0788882440232D+00 -4.2452243681650D-01
    32  3.1000000000000D-01  1.1026538740566D+00 -4.4647379119048D-01
    33  3.2000000000000D-01  1.1253470890154D+00 -4.6805806706663D-01
    34  3.3000000000000D-01  1.1469519013136D+00 -4.8912877903354D-01
    35  3.4000000000000D-01  1.1674537199193D+00 -5.0953589684197D-01
    36  3.5000000000000D-01  1.1868393486861D+00 -5.2912681034056D-01
    37  3.6000000000000D-01  1.2050969828787D+00 -5.4774732460491D-01
    38  3.7000000000000D-01  1.2222162040765D+00 -5.6524267854045D-01
    39  3.8000000000000D-01  1.2381879736390D+00 -5.8145858005955D-01
    40  3.9000000000000D-01  1.2530046249184D+00 -5.9624225080071D-01
    41  4.0000000000000D-01  1.2666598543991D+00 -6.0944347327401D-01
    42  4.1000000000000D-01  1.2791487119397D+00 -6.2091563328123D-01
    43  4.2000000000000D-01  1.2904675902871D+00 -6.3051675047427D-01
    44  4.3000000000000D-01  1.3006142140228D+00 -6.3811048997828D-01
    45  4.4000000000000D-01  1.3095876280918D+00 -6.4356714811896D-01
    46  4.5000000000000D-01  1.3173881860534D+00 -6.4676460545375D-01
    47  4.6000000000000D-01  1.3240175381782D+00 -6.4758924051405D-01
    48  4.7000000000000D-01  1.3294786195031D+00 -6.4593679791903D-01
    49  4.8000000000000D-01  1.3337756379395D+00 -6.4171320481831D-01
    50  4.9000000000000D-01  1.3369140625127D+00 -6.3483532995942D-01
    51  5.0000000000000D-01  1.3389006117927D+00 -6.2523168005443D-01
    52  5.1000000000000D-01  1.3397432425600D+00 -6.1284302853481D-01
    53  5.2000000000000D-01  1.3394511387290D+00 -5.9762297223244D-01
    54  5.3000000000000D-01  1.3380347005321D+00 -5.7953841200499D-01
    55  5.4000000000000D-01  1.3355055339512D+00 -5.5856995383004D-01
    56  5.5000000000000D-01  1.3318764403592D+00 -5.3471222742484D-01
    57  5.6000000000000D-01  1.3271614063187D+00 -5.0797411999839D-01
    58  5.7000000000000D-01  1.3213755934652D+00 -4.7837892331202D-01
    59  5.8000000000000D-01  1.3145353283819D+00 -4.4596439280334D-01
    60  5.9000000000000D-01  1.3066580923594D+00 -4.1078271811843D-01
    61  6.0000000000000D-01  1.2977625109135D+00 -3.7290040498865D-01
    62  6.1000000000000D-01  1.2878683429221D+00 -3.3239806898329D-01
    63  6.2000000000000D-01  1.2769964692258D+00 -2.8937014225624D-01
    64  6.3000000000000D-01  1.2651688805264D+00 -2.4392449498812D-01
    65  6.4000000000000D-01  1.2524086644056D+00 -1.9618197379231D-01
    66  6.5000000000000D-01  1.2387399912777D+00 -1.4627585990695D-01
    67  6.6000000000000D-01  1.2241880990821D+00 -9.4351250528350D-02
    68  6.7000000000000D-01  1.2087792765188D+00 -4.0564367148765D-02
    69  6.8000000000000D-01  1.1925408446247D+00  1.4918204754855D-02
    70  6.9000000000000D-01  1.1755011364887D+00  7.1920339883837D-02
    71  7.0000000000000D-01  1.1576894749066D+00  1.3025725591680D-01
    72  7.1000000000000D-01  1.1391361477779D+00  1.8973644934911D-01
    73  7.2000000000000D-01  1.1198723810566D+00  2.5015867843254D-01
    74  7.3000000000000D-01  1.0999303090723D+00  3.1131898697604D-01
    75  7.4000000000000D-01  1.0793429420532D+00  3.7300776251025D-01
    76  7.5000000000000D-01  1.0581441306927D+00  4.3501182210607D-01
    77  7.6000000000000D-01  1.0363685276170D+00  4.9711551897254D-01
    78  7.7000000000000D-01  1.0140515456311D+00  5.5910186284033D-01
    79  7.8000000000000D-01  9.9122931263642D-01  6.2075364706786D-01
    80  7.9000000000000D-01  9.6793862313716D-01  6.8185457538577D-01
    81  8.0000000000000D-01  9.4421688627545D-01  7.4219038122285D-01
    82  8.1000000000000D-01  9.2010207035881D-01  8.0154993263241D-01
    83  8.2000000000000D-01  8.9563264387096D-01  8.5972631596136D-01
    84  8.3000000000000D-01  8.7084751298367D-01  9.1651789157437D-01
    85  8.4000000000000D-01  8.4578595561616D-01  9.7172931516028D-01
    86  8.5000000000000D-01  8.2048755211755D-01  1.0251725184072D+00
    87  8.6000000000000D-01  7.9499211267771D-01  1.0766676431323D+00
    88  8.7000000000000D-01  7.6933960160235D-01  1.1260439232916D+00
    89  8.8000000000000D-01  7.4357005861792D-01  1.1731405096718D+00
    90  8.9000000000000D-01  7.1772351740254D-01  1.2178072324752D+00
    91  9.0000000000000D-01  6.9183992156844D-01  1.2599052974491D+00
    92  9.1000000000000D-01  6.6595903835083D-01  1.2993079116797D+00
    93  9.2000000000000D-01  6.4012037028584D-01  1.3359008356611D+00
    94  9.3000000000000D-01  6.1436306518752D-01  1.3695828587644D+00
    95  9.4000000000000D-01  5.8872582475897D-01  1.4002661957568D+00
    96  9.5000000000000D-01  5.6324681219703D-01  1.4278768025656D+00
    97  9.6000000000000D-01  5.3796355917134D-01  1.4523546100295D+00
    98  9.7000000000000D-01  5.1291287257907D-01  1.4736536749390D+00
    99  9.8000000000000D-01  4.8813074149340D-01  1.4917422482129D+00
   100  9.9000000000000D-01  4.6365224473931D-01  1.5066027606205D+00
   101  1.0000000000000D+00  4.3951145954255D-01  1.5182317270016D+00
   102  1.0100000000000D+00  4.1574137170660D-01  1.5266395704652D+00
   103  1.0200000000000D+00  3.9237378777923D-01  1.5318503685728D+00
   104  1.0300000000000D+00  3.6943924967366D-01  1.5339015240070D+00
   105  1.0400000000000D+00  3.4696695220858D-01  1.5328433627193D+00
   106  1.0500000000000D+00  3.2498466402936D-01  1.5287386629672D+00
   107  1.0600000000000D+00  3.0351865236508D-01  1.5216621191268D+00
   108  1.0700000000000D+00  2.8259361206672D-01  1.5116997445202D+00
   109  1.0800000000000D+00  2.6223259935853D-01  1.4989482178738D+00
   110  1.0900000000000D+00  2.4245697071667D-01  1.4835141783548D+00
   111  1.1000000000000D+00  2.2328632727290D-01  1.4655134743805D+00
   112  1.1100000000000D+00  2.0473846511379D-01  1.4450703716991D+00
   113  1.1200000000000D+00  1.8682933182295D-01  1.4223167263975D+00
   114  1.1300000000000D+00  1.6957298958136D-01  1.3973911286770D+00
   115  1.1400000000000D+00  1.5298158511437D-01  1.3704380233399D+00
   116  1.1500000000000D+00  1.3706532673513D-01  1.3416068130257D+00
   117  1.1600000000000D+00  1.2183246869884D-01  1.3110509502566D+00
   118  1.1700000000000D+00  1.0728930303934D-01  1.2789270243243D+00
   119  1.1800000000000D+00  9.3440159030673D-02  1.2453938490307D+00
   120  1.1900000000000D+00  8.0287410359918D-02  1.2106115571750D+00
   121  1.2000000000000D+00  6.7831490059397D-02  1.1747407075388D+00
   122  1.2100000000000D+00  5.6070913200486D-02  1.1379414099354D+00
   123  1.2200000000000D+00  4.5002307315475D-02  1.1003724737518D+00
   124  1.2300000000000D+00  3.4620450450016D-02  1.0621905850614D+00
   125  1.2400000000000D+00  2.4918316705868D-02  1.0235495170774D+00
   126  1.2500000000000D+00  1.5887129115822D-02  9.8459937864974D-01
   127  1.2600000000000D+00  7.5164196046598D-03  9.4548590485534D-01
   128  1.2700000000000D+00 -2.0590423593507D-04  9.0634979344596D-01
   129  1.2800000000000D+00 -7.2934858499390D-03  8.6732609080972D-01
   130  1.2900000000000D+00 -1.3761440271310D-02  8.2854363032134D-01
   131  1.3000000000000D+00 -1.9626268929979D-02  7.9012452557858D-01
   132  1.3100000000000D+00 -2.4905769114954D-02  7.5218372105436D-01
   133  1.3200000000000D+00 -2.9618938588138D-02  7.1482860162066D-01
   134  1.3300000000000D+00 -3.3785875846026D-02  6.7815866218269D-01
   135  1.3400000000000D+00 -3.7427676536474D-02  6.4226523870238D-01
   136  1.3500000000000D+00 -4.0566326615378D-02  6.0723130053446D-01
   137  1.3600000000000D+00 -4.3224592802803D-02  5.7313130427764D-01
   138  1.3700000000000D+00 -4.5425910936029D-02  5.4003110888381D-01
   139  1.3800000000000D+00 -4.7194272842969D-02  5.0798795066926D-01
   140  1.3900000000000D+00 -4.8554112342873D-02  4.7705047751990D-01
   141  1.4000000000000D+00 -4.9530191019452D-02  4.4725884033414D-01
   142  1.4100000000000D+00 -5.0147484383597D-02  4.1864483960575D-01
   143  1.4200000000000D+00 -5.0431069074385D-02  3.9123212530893D-01
   144  1.4300000000000D+00 -5.0406011704127D-02  3.6503644676924D-01
   145  1.4400000000000D+00 -5.0097259977468D-02  3.4006595018977D-01
   146  1.4500000000000D+00 -4.9529536687611D-02  3.1632152031289D-01
   147  1.4600000000000D+00 -4.8727237140613D-02  2.9379716284883D-01
   148  1.4700000000000D+00 -4.7714330636895D-02  2.7248042431467D-01
   149  1.4800000000000D+00 -4.6514266442223D-02  2.5235284515258D-01
   150  1.4900000000000D+00 -4.5149884870021D-02  2.3339044266544D-01
   151  1.5000000000000D+00 -4.3643333841037D-02  2.1556421946360D-01
   152  1.5100000000000D+00 -4.2015991416335D-02  1.9884069366228D-01
   153  1.5200000000000D+00 -4.0288394699865D-02  1.8318244657944D-01
   154  1.5300000000000D+00 -3.8480175382834D-02  1.6854868415491D-01
   155  1.5400000000000D+00 -3.6610002401994D-02  1.5489580771652D-01
   156  1.5500000000000D+00 -3.4695531717277D-02  1.4217799078389D-01
   157  1.5600000000000D+00 -3.2753363746013D-02  1.3034775725323D-01
   158  1.5700000000000D+00 -3.0799008250912D-02  1.1935655830879D-01
   159  1.5800000000000D+00 -2.8846857145465D-02  1.0915534343876D-01
   160  1.5900000000000D+00 -2.6910164955510D-02  9.9695123275105D-02
   161  1.6000000000000D+00 -2.5001037202830D-02  9.0927520180496D-02
   162  1.6100000000000D+00 -2.3130426460426D-02  8.2805304410578D-02
   163  1.6200000000000D+00 -2.1308136116015D-02  7.5282912667238D-02
   164  1.6300000000000D+00 -1.9542831728659D-02  6.8316952818576D-02
   165  1.6400000000000D+00 -1.7842059090818D-02  6.1866656177152D-02
   166  1.6500000000000D+00 -1.6212271296929D-02  5.5894404341419D-02
   167  1.6600000000000D+00 -1.4658857423645D-02  5.0365974714361D-02
   168  1.6700000000000D+00 -1.3186182506282D-02  4.5250994272535D-02
   169  1.6800000000000D+00 -1.1797645800214D-02  4.0524017614106D-02
   170  1.6900000000000D+00 -1.0495709470871D-02  3.6163751916487D-02
   171  1.7000000000000D+00 -9.2819200123472D-03  3.2151586917307D-02
   172  1.7100000000000D+00 -8.1569404132518D-03  2.8470527759080D-02
   173  1.7200000000000D+00 -7.1205731581168D-03  2.5103468136923D-02
   174  1.7300000000000D+00 -6.1718161942768D-03  2.2032942965255D-02
   175  1.7400000000000D+00 -5.3089408299469D-03  1.9241862436862D-02
   176  1.7500000000000D+00 -4.5295596965308D-03  1.6713548255963D-02
   177  1.7600000000000D+00 -3.8306962823136D-03  1.4431706152393D-02
   178  1.7700000000000D+00 -3.2088590987930D-03  1.2380551006774D-02
   179  1.7800000000000D+00 -2.6601152597532D-03  1.0544829589166D-02
   180  1.7900000000000D+00 -2.1801649158003D-03  8.9098566868595D-03
   181  1.8000000000000D+00 -1.7644152465976D-03  7.4615285407933D-03
   182  1.8100000000000D+00 -1.4080535892701D-03  6.1863224984150D-03
   183  1.8200000000000D+00 -1.1061189444656D-03  5.0712836854837D-03
   184  1.8300000000000D+00 -8.5357161552983D-04  4.1040010526000D-03
   185  1.8400000000000D+00 -6.4535991010695D-04  3.2725742837704D-03
   186  1.8500000000000D+00 -4.7648414189583D-04  2.5655728949624D-03
   187  1.8600000000000D+00 -3.4205648263557D-04  1.9719903291077D-03
   188  1.8700000000000D+00 -2.3735727694505D-04  1.4811929614002D-03
   189  1.8800000000000D+00 -1.5788636981721D-04  1.0828676864290D-03
   190  1.8900000000000D+00 -9.9409948286789D-05  7.6696749128219D-04
   191  1.9000000000000D+00 -5.7997129917199D-05  5.2367776792987D-04
   192  1.9100000000000D+00 -3.0067755290808D-05  3.4331595803392D-04
   193  1.9200000000000D+00 -1.2441081844913D-05  2.1618955682769D-04
   194  1.9300000000000D+00 -2.3657193180641D-06  1.3227775982255D-04
   195  1.9400000000000D+00  2.7950053874750D-06  8.3920216395255D-05
   196  1.9500000000000D+00  5.2021701594542D-06  6.3691143445943D-05
   197  1.9600000000000D+00  5.6958886365753D-06  5.5636611706402D-05
   198  1.9700000000000D+00  4.4230115309716D-06  4.2502172987814D-05
   199  1.9800000000000D+00  2.0109543881395D-06  1.9751101474308D-05
   200  1.9900000000000D+00 -5.2432313046939D-08 -4.8990771745354D-07
   201  2.0000000000000D+00 -5.4603422817603D-07 -5.1249109892870D-06
   202  2.0100000000000D+00 -1.8961460566820D-07 -1.7906949082481D-06
   203  2.0200000000000D+00  1.0759861947935D-07  9.4041749833985D-07
   204  2.0300000000000D+00  1.0062235832753D-07  8.7470810323001D-07
   205  2.0400000000000D+00 -5.2604059112087D-09 -5.0617626940903D-08
   206  2.0500000000000D+00 -1.4687202677210D-08 -1.4132585174394D-07
   207  2.0600000000000D+00 -3.5673638058940D-09 -3.4326531704420D-08
   208  2.0700000000000D+00  0.0000000000000D+00  0.0000000000000D+00
   209  2.0800000000000D+00  0.0000000000000D+00  0.0000000000000D+00
   210  2.0900000000000D+00  0.0000000000000D+00  0.0000000000000D+00
   211  2.1000000000000D+00  0.0000000000000D+00  0.0000000000000D+00
   212  2.1100000000000D+00  0.0000000000000D+00  0.0000000000000D+00
   213  2.1200000000000D+00  0.0000000000000D+00  0.0000000000000D+00
   214  2.1300000000000D+00  0.0000000000000D+00  0.0000000000000D+00
   215  2.1400000000000D+00  0.0000000000000D+00  0.0000000000000D+00
   216  2.1500000000000D+00  0.0000000000000D+00  0.0000000000000D+00
   217  2.1600000000000D+00  0.0000000000000D+00  0.0000000000000D+00
   218  2.1700000000000D+00  0.0000000000000D+00  0.0000000000000D+00
   219  2.1800000000000D+00  0.0000000000000D+00  0.0000000000000D+00
   220  2.1900000000000D+00  0.0000000000000D+00  0.0000000000000D+00
   221  2.2000000000000D+00  0.0000000000000D+00  0.0000000000000D+00
   222  2.2100000000000D+00  0.0000000000000D+00  0.0000000000000D+00
   223  2.2200000000000D+00  0.0000000000000D+00  0.0000000000000D+00
   224  2.2300000000000D+00  0.0000000000000D+00  0.0000000000000D+00
   225  2.2400000000000D+00  0.0000000000000D+00  0.0000000000000D+00
   226  2.2500000000000D+00  0.0000000000000D+00  0.0000000000000D+00
   227  2.2600000000000D+00  0.0000000000000D+00  0.0000000000000D+00
   228  2.2700000000000D+00  0.0000000000000D+00  0.0000000000000D+00
   229  2.2800000000000D+00  0.0000000000000D+00  0.0000000000000D+00
   230  2.2900000000000D+00  0.0000000000000D+00  0.0000000000000D+00
   231  2.3000000000000D+00  0.0000000000000D+00  0.0000000000000D+00
   232  2.3100000000000D+00  0.0000000000000D+00  0.0000000000000D+00
   233  2.3200000000000D+00  0.0000000000000D+00  0.0000000000000D+00
   234  2.3300000000000D+00  0.0000000000000D+00  0.0000000000000D+00
   235  2.3400000000000D+00  0.0000000000000D+00  0.0000000000000D+00
   236  2.3500000000000D+00  0.0000000000000D+00  0.0000000000000D+00
   237  2.3600000000000D+00  0.0000000000000D+00  0.0000000000000D+00
   238  2.3700000000000D+00  0.0000000000000D+00  0.0000000000000D+00
   239  2.3800000000000D+00  0.0000000000000D+00  0.0000000000000D+00
   240  2.3900000000000D+00  0.0000000000000D+00  0.0000000000000D+00
   241  2.4000000000000D+00  0.0000000000000D+00  0.0000000000000D+00
   242  2.4100000000000D+00  0.0000000000000D+00  0.0000000000000D+00
   243  2.4200000000000D+00  0.0000000000000D+00  0.0000000000000D+00
   244  2.4300000000000D+00  0.0000000000000D+00  0.0000000000000D+00
   245  2.4400000000000D+00  0.0000000000000D+00  0.0000000000000D+00
   246  2.4500000000000D+00  0.0000000000000D+00  0.0000000000000D+00
   247  2.4600000000000D+00  0.0000000000000D+00  0.0000000000000D+00
   248  2.4700000000000D+00  0.0000000000000D+00  0.0000000000000D+00
   249  2.4800000000000D+00  0.0000000000000D+00  0.0000000000000D+00
   250  2.4900000000000D+00  0.0000000000000D+00  0.0000000000000D+00
   251  2.5000000000000D+00  0.0000000000000D+00  0.0000000000000D+00
   252  2.5100000000000D+00  0.0000000000000D+00  0.0000000000000D+00
   253  2.5200000000000D+00  0.0000000000000D+00  0.0000000000000D+00
   254  2.5300000000000D+00  0.0000000000000D+00  0.0000000000000D+00
   255  2.5400000000000D+00  0.0000000000000D+00  0.0000000000000D+00
   256  2.5500000000000D+00  0.0000000000000D+00  0.0000000000000D+00
   257  2.5600000000000D+00  0.0000000000000D+00  0.0000000000000D+00
   258  2.5700000000000D+00  0.0000000000000D+00  0.0000000000000D+00
   259  2.5800000000000D+00  0.0000000000000D+00  0.0000000000000D+00
   260  2.5900000000000D+00  0.0000000000000D+00  0.0000000000000D+00
   261  2.6000000000000D+00  0.0000000000000D+00  0.0000000000000D+00
   262  2.6100000000000D+00  0.0000000000000D+00  0.0000000000000D+00
   263  2.6200000000000D+00  0.0000000000000D+00  0.0000000000000D+00
   264  2.6300000000000D+00  0.0000000000000D+00  0.0000000000000D+00
   265  2.6400000000000D+00  0.0000000000000D+00  0.0000000000000D+00
   266  2.6500000000000D+00  0.0000000000000D+00  0.0000000000000D+00
   267  2.6600000000000D+00  0.0000000000000D+00  0.0000000000000D+00
   268  2.6700000000000D+00  0.0000000000000D+00  0.0000000000000D+00
   269  2.6800000000000D+00  0.0000000000000D+00  0.0000000000000D+00
   270  2.6900000000000D+00  0.0000000000000D+00  0.0000000000000D+00
   271  2.7000000000000D+00  0.0000000000000D+00  0.0000000000000D+00
   272  2.7100000000000D+00  0.0000000000000D+00  0.0000000000000D+00
   273  2.7200000000000D+00  0.0000000000000D+00  0.0000000000000D+00
   274  2.7300000000000D+00  0.0000000000000D+00  0.0000000000000D+00
   275  2.7400000000000D+00  0.0000000000000D+00  0.0000000000000D+00
   276  2.7500000000000D+00  0.0000000000000D+00  0.0000000000000D+00
   277  2.7600000000000D+00  0.0000000000000D+00  0.0000000000000D+00
   278  2.7700000000000D+00  0.0000000000000D+00  0.0000000000000D+00
   279  2.7800000000000D+00  0.0000000000000D+00  0.0000000000000D+00
   280  2.7900000000000D+00  0.0000000000000D+00  0.0000000000000D+00
   281  2.8000000000000D+00  0.0000000000000D+00  0.0000000000000D+00
   282  2.8100000000000D+00  0.0000000000000D+00  0.0000000000000D+00
   283  2.8200000000000D+00  0.0000000000000D+00  0.0000000000000D+00
   284  2.8300000000000D+00  0.0000000000000D+00  0.0000000000000D+00
   285  2.8400000000000D+00  0.0000000000000D+00  0.0000000000000D+00
   286  2.8500000000000D+00  0.0000000000000D+00  0.0000000000000D+00
   287  2.8600000000000D+00  0.0000000000000D+00  0.0000000000000D+00
   288  2.8700000000000D+00  0.0000000000000D+00  0.0000000000000D+00
   289  2.8800000000000D+00  0.0000000000000D+00  0.0000000000000D+00
   290  2.8900000000000D+00  0.0000000000000D+00  0.0000000000000D+00
   291  2.9000000000000D+00  0.0000000000000D+00  0.0000000000000D+00
   292  2.9100000000000D+00  0.0000000000000D+00  0.0000000000000D+00
   293  2.9200000000000D+00  0.0000000000000D+00  0.0000000000000D+00
   294  2.9300000000000D+00  0.0000000000000D+00  0.0000000000000D+00
   295  2.9400000000000D+00  0.0000000000000D+00  0.0000000000000D+00
   296  2.9500000000000D+00  0.0000000000000D+00  0.0000000000000D+00
   297  2.9600000000000D+00  0.0000000000000D+00  0.0000000000000D+00
   298  2.9700000000000D+00  0.0000000000000D+00  0.0000000000000D+00
   299  2.9800000000000D+00  0.0000000000000D+00  0.0000000000000D+00
   300  2.9900000000000D+00  0.0000000000000D+00  0.0000000000000D+00
   301  3.0000000000000D+00  0.0000000000000D+00  0.0000000000000D+00
   302  3.0100000000000D+00  0.0000000000000D+00  0.0000000000000D+00
   303  3.0200000000000D+00  0.0000000000000D+00  0.0000000000000D+00
   304  3.0300000000000D+00  0.0000000000000D+00  0.0000000000000D+00
   305  3.0400000000000D+00  0.0000000000000D+00  0.0000000000000D+00
   306  3.0500000000000D+00  0.0000000000000D+00  0.0000000000000D+00
   307  3.0600000000000D+00  0.0000000000000D+00  0.0000000000000D+00
   308  3.0700000000000D+00  0.0000000000000D+00  0.0000000000000D+00
   309  3.0800000000000D+00  0.0000000000000D+00  0.0000000000000D+00
   310  3.0900000000000D+00  0.0000000000000D+00  0.0000000000000D+00
   311  3.1000000000000D+00  0.0000000000000D+00  0.0000000000000D+00
   312  3.1100000000000D+00  0.0000000000000D+00  0.0000000000000D+00
   313  3.1200000000000D+00  0.0000000000000D+00  0.0000000000000D+00
   314  3.1300000000000D+00  0.0000000000000D+00  0.0000000000000D+00
   315  3.1400000000000D+00  0.0000000000000D+00  0.0000000000000D+00
   316  3.1500000000000D+00  0.0000000000000D+00  0.0000000000000D+00
   317  3.1600000000000D+00  0.0000000000000D+00  0.0000000000000D+00
   318  3.1700000000000D+00  0.0000000000000D+00  0.0000000000000D+00
   319  3.1800000000000D+00  0.0000000000000D+00  0.0000000000000D+00
   320  3.1900000000000D+00  0.0000000000000D+00  0.0000000000000D+00
   321  3.2000000000000D+00  0.0000000000000D+00  0.0000000000000D+00
   322  3.2100000000000D+00  0.0000000000000D+00  0.0000000000000D+00
   323  3.2200000000000D+00  0.0000000000000D+00  0.0000000000000D+00
   324  3.2300000000000D+00  0.0000000000000D+00  0.0000000000000D+00
   325  3.2400000000000D+00  0.0000000000000D+00  0.0000000000000D+00
   326  3.2500000000000D+00  0.0000000000000D+00  0.0000000000000D+00
   327  3.2600000000000D+00  0.0000000000000D+00  0.0000000000000D+00
   328  3.2700000000000D+00  0.0000000000000D+00  0.0000000000000D+00
   329  3.2800000000000D+00  0.0000000000000D+00  0.0000000000000D+00
   330  3.2900000000000D+00  0.0000000000000D+00  0.0000000000000D+00
   331  3.3000000000000D+00  0.0000000000000D+00  0.0000000000000D+00
   332  3.3100000000000D+00  0.0000000000000D+00  0.0000000000000D+00
   333  3.3200000000000D+00  0.0000000000000D+00  0.0000000000000D+00
   334  3.3300000000000D+00  0.0000000000000D+00  0.0000000000000D+00
   335  3.3400000000000D+00  0.0000000000000D+00  0.0000000000000D+00
   336  3.3500000000000D+00  0.0000000000000D+00  0.0000000000000D+00
   337  3.3600000000000D+00  0.0000000000000D+00  0.0000000000000D+00
   338  3.3700000000000D+00  0.0000000000000D+00  0.0000000000000D+00
   339  3.3800000000000D+00  0.0000000000000D+00  0.0000000000000D+00
   340  3.3900000000000D+00  0.0000000000000D+00  0.0000000000000D+00
   341  3.4000000000000D+00  0.0000000000000D+00  0.0000000000000D+00
   342  3.4100000000000D+00  0.0000000000000D+00  0.0000000000000D+00
   343  3.4200000000000D+00  0.0000000000000D+00  0.0000000000000D+00
   344  3.4300000000000D+00  0.0000000000000D+00  0.0000000000000D+00
   345  3.4400000000000D+00  0.0000000000000D+00  0.0000000000000D+00
   346  3.4500000000000D+00  0.0000000000000D+00  0.0000000000000D+00
   347  3.4600000000000D+00  0.0000000000000D+00  0.0000000000000D+00
   348  3.4700000000000D+00  0.0000000000000D+00  0.0000000000000D+00
   349  3.4800000000000D+00  0.0000000000000D+00  0.0000000000000D+00
   350  3.4900000000000D+00  0.0000000000000D+00  0.0000000000000D+00
   351  3.5000000000000D+00  0.0000000000000D+00  0.0000000000000D+00
   352  3.5100000000000D+00  0.0000000000000D+00  0.0000000000000D+00
   353  3.5200000000000D+00  0.0000000000000D+00  0.0000000000000D+00
   354  3.5300000000000D+00  0.0000000000000D+00  0.0000000000000D+00
   355  3.5400000000000D+00  0.0000000000000D+00  0.0000000000000D+00
   356  3.5500000000000D+00  0.0000000000000D+00  0.0000000000000D+00
   357  3.5600000000000D+00  0.0000000000000D+00  0.0000000000000D+00
   358  3.5700000000000D+00  0.0000000000000D+00  0.0000000000000D+00
   359  3.5800000000000D+00  0.0000000000000D+00  0.0000000000000D+00
   360  3.5900000000000D+00  0.0000000000000D+00  0.0000000000000D+00
   361  3.6000000000000D+00  0.0000000000000D+00  0.0000000000000D+00
   362  3.6100000000000D+00  0.0000000000000D+00  0.0000000000000D+00
   363  3.6200000000000D+00  0.0000000000000D+00  0.0000000000000D+00
   364  3.6300000000000D+00  0.0000000000000D+00  0.0000000000000D+00
   365  3.6400000000000D+00  0.0000000000000D+00  0.0000000000000D+00
   366  3.6500000000000D+00  0.0000000000000D+00  0.0000000000000D+00
   367  3.6600000000000D+00  0.0000000000000D+00  0.0000000000000D+00
   368  3.6700000000000D+00  0.0000000000000D+00  0.0000000000000D+00
   369  3.6800000000000D+00  0.0000000000000D+00  0.0000000000000D+00
   370  3.6900000000000D+00  0.0000000000000D+00  0.0000000000000D+00
   371  3.7000000000000D+00  0.0000000000000D+00  0.0000000000000D+00
   372  3.7100000000000D+00  0.0000000000000D+00  0.0000000000000D+00
   373  3.7200000000000D+00  0.0000000000000D+00  0.0000000000000D+00
   374  3.7300000000000D+00  0.0000000000000D+00  0.0000000000000D+00
   375  3.7400000000000D+00  0.0000000000000D+00  0.0000000000000D+00
   376  3.7500000000000D+00  0.0000000000000D+00  0.0000000000000D+00
   377  3.7600000000000D+00  0.0000000000000D+00  0.0000000000000D+00
   378  3.7700000000000D+00  0.0000000000000D+00  0.0000000000000D+00
   379  3.7800000000000D+00  0.0000000000000D+00  0.0000000000000D+00
   380  3.7900000000000D+00  0.0000000000000D+00  0.0000000000000D+00
   381  3.8000000000000D+00  0.0000000000000D+00  0.0000000000000D+00
   382  3.8100000000000D+00  0.0000000000000D+00  0.0000000000000D+00
   383  3.8200000000000D+00  0.0000000000000D+00  0.0000000000000D+00
   384  3.8300000000000D+00  0.0000000000000D+00  0.0000000000000D+00
   385  3.8400000000000D+00  0.0000000000000D+00  0.0000000000000D+00
   386  3.8500000000000D+00  0.0000000000000D+00  0.0000000000000D+00
   387  3.8600000000000D+00  0.0000000000000D+00  0.0000000000000D+00
   388  3.8700000000000D+00  0.0000000000000D+00  0.0000000000000D+00
   389  3.8800000000000D+00  0.0000000000000D+00  0.0000000000000D+00
   390  3.8900000000000D+00  0.0000000000000D+00  0.0000000000000D+00
   391  3.9000000000000D+00  0.0000000000000D+00  0.0000000000000D+00
   392  3.9100000000000D+00  0.0000000000000D+00  0.0000000000000D+00
   393  3.9200000000000D+00  0.0000000000000D+00  0.0000000000000D+00
   394  3.9300000000000D+00  0.0000000000000D+00  0.0000000000000D+00
   395  3.9400000000000D+00  0.0000000000000D+00  0.0000000000000D+00
   396  3.9500000000000D+00  0.0000000000000D+00  0.0000000000000D+00
   397  3.9600000000000D+00  0.0000000000000D+00  0.0000000000000D+00
   398  3.9700000000000D+00  0.0000000000000D+00  0.0000000000000D+00
   399  3.9800000000000D+00  0.0000000000000D+00  0.0000000000000D+00
   400  3.9900000000000D+00  0.0000000000000D+00  0.0000000000000D+00
   401  4.0000000000000D+00  0.0000000000000D+00  0.0000000000000D+00
   402  4.0100000000000D+00  0.0000000000000D+00  0.0000000000000D+00
   403  4.0200000000000D+00  0.0000000000000D+00  0.0000000000000D+00
   404  4.0300000000000D+00  0.0000000000000D+00  0.0000000000000D+00
   405  4.0400000000000D+00  0.0000000000000D+00  0.0000000000000D+00
   406  4.0500000000000D+00  0.0000000000000D+00  0.0000000000000D+00
   407  4.0600000000000D+00  0.0000000000000D+00  0.0000000000000D+00
   408  4.0700000000000D+00  0.0000000000000D+00  0.0000000000000D+00
   409  4.0800000000000D+00  0.0000000000000D+00  0.0000000000000D+00
   410  4.0900000000000D+00  0.0000000000000D+00  0.0000000000000D+00
   411  4.1000000000000D+00  0.0000000000000D+00  0.0000000000000D+00
   412  4.1100000000000D+00  0.0000000000000D+00  0.0000000000000D+00
   413  4.1200000000000D+00  0.0000000000000D+00  0.0000000000000D+00
   414  4.1300000000000D+00  0.0000000000000D+00  0.0000000000000D+00
   415  4.1400000000000D+00  0.0000000000000D+00  0.0000000000000D+00
   416  4.1500000000000D+00  0.0000000000000D+00  0.0000000000000D+00
   417  4.1600000000000D+00  0.0000000000000D+00  0.0000000000000D+00
   418  4.1700000000000D+00  0.0000000000000D+00  0.0000000000000D+00
   419  4.1800000000000D+00  0.0000000000000D+00  0.0000000000000D+00
   420  4.1900000000000D+00  0.0000000000000D+00  0.0000000000000D+00
   421  4.2000000000000D+00  0.0000000000000D+00  0.0000000000000D+00
   422  4.2100000000000D+00  0.0000000000000D+00  0.0000000000000D+00