Zr    ONCVPSP-3.3.1  r_core=   2.49215   1.91692   2.18569
     40.0000     12.0000      210905    zatom,zion,pspd
     8 -116133   2     4   600     0    pspcod,pspxc,lmax,lloc,mmax,r2well
  5.99000000  0.00000000  0.00000000    rchrg fchrg qchrg
     2     3     4     0    nproj
     3     1           extension_switch
     4     4     0    nprojso
   0                         1.0551562100402D+00  5.4947444745863D+00
     1  0.0000000000000D+00 -8.4597467919778D-12  3.3659186549073D-12
     2  1.0000000000000D-02 -7.9776639726485D-03  4.3040882090334D-02
     3  2.0000000000000D-02 -1.5942450090246D-02  8.6042013886897D-02
     4  3.0000000000000D-02 -2.3881418765523D-02  1.2896365898890D-01
     5  4.0000000000000D-02 -3.1781507429484D-02  1.7176610893225D-01
     6  5.0000000000000D-02 -3.9629470245166D-02  2.1440969753396D-01
     7  6.0000000000000D-02 -4.7411819260988D-02  2.5685481568537D-01
     8  7.0000000000000D-02 -5.5114767473594D-02  2.9906192673987D-01
     9  8.0000000000000D-02 -6.2724174261657D-02  3.4099158263749D-01
    10  9.0000000000000D-02 -7.0225493641498D-02  3.8260444090424D-01
    11  1.0000000000000D-01 -7.7603725782809D-02  4.2386128265950D-01
    12  1.1000000000000D-01 -8.4843372208121D-02  4.6472303175856D-01
    13  1.2000000000000D-01 -9.1928395083052D-02  5.0515077519103D-01
    14  1.3000000000000D-01 -9.8842180985860D-02  5.4510578484850D-01
    15  1.4000000000000D-01 -1.0556750952440D-01  5.8454954076668D-01
    16  1.5000000000000D-01 -1.1208652714640D-01  6.2344375593861D-01
    17  1.6000000000000D-01 -1.1838072646488D-01  6.6175040278586D-01
    18  1.7000000000000D-01 -1.2443093139513D-01  6.9943174136498D-01
    19  1.8000000000000D-01 -1.3021728837201D-01  7.3645034937522D-01
    20  1.9000000000000D-01 -1.3571926388798D-01  7.7276915402282D-01
    21  2.0000000000000D-01 -1.4091564856174D-01  8.0835146578503D-01
    22  2.1000000000000D-01 -1.4578456791595D-01  8.4316101410496D-01
    23  2.2000000000000D-01 -1.5030350000969D-01  8.7716198503557D-01
    24  2.3000000000000D-01 -1.5444930003746D-01  9.1031906083812D-01
    25  2.4000000000000D-01 -1.5819823197152D-01  9.4259746152681D-01
    26  2.5000000000000D-01 -1.6152600728879D-01  9.7396298833784D-01
    27  2.6000000000000D-01 -1.6440783078668D-01  1.0043820690871D+00
    28  2.7000000000000D-01 -1.6681845345541D-01  1.0338218053664D+00
    29  2.8000000000000D-01 -1.6873223233652D-01  1.0622500215143D+00
    30  2.9000000000000D-01 -1.7012319725939D-01  1.0896353152833D+00
    31  3.0000000000000D-01 -1.7096512430943D-01  1.1159471101099D+00
    32  3.1000000000000D-01 -1.7123161584349D-01  1.1411557088816D+00
    33  3.2000000000000D-01 -1.7089618682989D-01  1.1652323490797D+00
    34  3.3000000000000D-01 -1.6993235725288D-01  1.1881492591625D+00
    35  3.4000000000000D-01 -1.6831375028402D-01  1.2098797160413D+00
    36  3.5000000000000D-01 -1.6601419588625D-01  1.2303981034870D+00
    37  3.6000000000000D-01 -1.6300783948084D-01  1.2496799712940D+00
    38  3.7000000000000D-01 -1.5926925527239D-01  1.2677020950124D+00
    39  3.8000000000000D-01 -1.5477356379338D-01  1.2844425360532D+00
    40  3.9000000000000D-01 -1.4949655319772D-01  1.2998807019537D+00
    41  4.0000000000000D-01 -1.4341480380144D-01  1.3139974065841D+00
    42  4.1000000000000D-01 -1.3650581534022D-01  1.3267749300666D+00
    43  4.2000000000000D-01 -1.2874813638541D-01  1.3381970781655D+00
    44  4.3000000000000D-01 -1.2012149533564D-01  1.3482492409033D+00
    45  4.4000000000000D-01 -1.1060693237765D-01  1.3569184501478D+00
    46  4.5000000000000D-01 -1.0018693178932D-01  1.3641934359103D+00
    47  4.6000000000000D-01 -8.8845553939910D-02  1.3700646810893D+00
    48  4.7000000000000D-01 -7.6568566326484D-02  1.3745244743903D+00
    49  4.8000000000000D-01 -6.3343572973261D-02  1.3775669611498D+00
    50  4.9000000000000D-01 -4.9160141510260D-02  1.3791881917892D+00
    51  5.0000000000000D-01 -3.4009927241012D-02  1.3793861676246D+00
    52  5.1000000000000D-01 -1.7886793505288D-02  1.3781608837588D+00
    53  5.2000000000000D-01 -7.8692764230805D-04  1.3755143687847D+00
    54  5.3000000000000D-01  1.7291048137379D-02  1.3714507210314D+00
    55  5.4000000000000D-01  3.6345971656945D-02  1.3659761410899D+00
    56  5.5000000000000D-01  5.6374042131254D-02  1.3590989603629D+00
    57  5.6000000000000D-01  7.7368728640860D-02  1.3508296653866D+00
    58  5.7000000000000D-01  9.9320686368411D-02  1.3411809176870D+00
    59  5.8000000000000D-01  1.2221768122396D-01  1.3301675689371D+00
    60  5.9000000000000D-01  1.4604452346227D-01  1.3178066711984D+00
    61  6.0000000000000D-01  1.7078301086814D-01  1.3041174820402D+00
    62  6.1000000000000D-01  1.9641188205546D-01  1.2891214643439D+00
    63  6.2000000000000D-01  2.2290678039242D-01  1.2728422806171D+00
    64  6.3000000000000D-01  2.5024022902780D-01  1.2553057816569D+00
    65  6.4000000000000D-01  2.7838161745394D-01  1.2365399894209D+00
    66  6.5000000000000D-01  3.0729719999853D-01  1.2165750739831D+00
    67  6.6000000000000D-01  3.3695010659150D-01  1.1954433244709D+00
    68  6.7000000000000D-01  3.6730036610503D-01  1.1731791139022D+00
    69  6.8000000000000D-01  3.9830494251320D-01  1.1498188578619D+00
    70  6.9000000000000D-01  4.2991778406434D-01  1.1254009669805D+00
    71  7.0000000000000D-01  4.6208988560400D-01  1.0999657932019D+00
    72  7.1000000000000D-01  4.9476936412830D-01  1.0735555698498D+00
    73  7.2000000000000D-01  5.2790154758880D-01  1.0462143455277D+00
    74  7.3000000000000D-01  5.6142907690921D-01  1.0179879119143D+00
    75  7.4000000000000D-01  5.9529202111253D-01  9.8892372553827D-01
    76  7.5000000000000D-01  6.2942800539494D-01  9.5907082364567D-01
    77  7.6000000000000D-01  6.6377235191938D-01  9.2847973429640D-01
    78  7.7000000000000D-01  6.9825823303844D-01  8.9720238085395D-01
    79  7.8000000000000D-01  7.3281683659316D-01  8.6529198105735D-01
    80  7.9000000000000D-01  7.6737754287080D-01  8.3280294089041D-01
    81  8.0000000000000D-01  8.0186811274317D-01  7.9979074348812D-01
    82  8.1000000000000D-01  8.3621488644507D-01  7.6631183334525D-01
    83  8.2000000000000D-01  8.7034299239306D-01  7.3242349611586D-01
    84  8.3000000000000D-01  9.0417656538623D-01  6.9818373431616D-01
    85  8.4000000000000D-01  9.3763897347433D-01  6.6365113926552D-01
    86  8.5000000000000D-01  9.7065305272472D-01  6.2888475962189D-01
    87  8.6000000000000D-01  1.0031413490682D+00  5.9394396688864D-01
    88  8.7000000000000D-01  1.0350263663551D+00  5.5888831828867D-01
    89  8.8000000000000D-01  1.0662308197081D+00  5.2377741741990D-01
    90  8.9000000000000D-01  1.0966778932156D+00  4.8867077312251D-01
    91  9.0000000000000D-01  1.1262915009722D+00  4.5362765700335D-01
    92  9.1000000000000D-01  1.1549965504388D+00  4.1870696007621D-01
    93  9.2000000000000D-01  1.1827192070633D+00  3.8396704898841D-01
    94  9.3000000000000D-01  1.2093871590804D+00  3.4946562231367D-01
    95  9.4000000000000D-01  1.2349298813840D+00  3.1525956739957D-01
    96  9.5000000000000D-01  1.2592788973549D+00  2.8140481826360D-01
    97  9.6000000000000D-01  1.2823680375099D+00  2.4795621503603D-01
    98  9.7000000000000D-01  1.3041336938365D+00  2.1496736544973D-01
    99  9.8000000000000D-01  1.3245150686753D+00  1.8249050887701D-01
   100  9.9000000000000D-01  1.3434544170152D+00  1.5057638341135D-01
   101  1.0000000000000D+00  1.3608972810781D+00  1.1927409648778D-01
   102  1.0100000000000D+00  1.3767927160847D+00  8.8630999528819D-02
   103  1.0200000000000D+00  1.3910935061111D+00  5.8692567094963D-02
   104  1.0300000000000D+00  1.4037563689752D+00  2.9502281007447D-02
   105  1.0400000000000D+00  1.4147421491185D+00  1.1015198986562D-03
   106  1.0500000000000D+00  1.4240159974890D+00 -2.6470545369441D-02
   107  1.0600000000000D+00  1.4315475374675D+00 -5.3177049994531D-02
   108  1.0700000000000D+00  1.4373110159284D+00 -7.8983526826421D-02
   109  1.0800000000000D+00  1.4412854385756D+00 -1.0385799087773D-01
   110  1.0900000000000D+00  1.4434546887486D+00 -1.2777101639122D-01
   111  1.1000000000000D+00  1.4438076289529D+00 -1.5069580612531D-01
   112  1.1100000000000D+00  1.4423381844297D+00 -1.7260825254444D-01
   113  1.1200000000000D+00  1.4390454081506D+00 -1.9348699063009D-01
   114  1.1300000000000D+00  1.4339335266897D+00 -2.1331344205508D-01
   115  1.1400000000000D+00  1.4270119665028D+00 -2.3207185049544D-01
   116  1.1500000000000D+00  1.4182953602050D+00 -2.4974930787966D-01
   117  1.1600000000000D+00  1.4078035325369D+00 -2.6633577141467D-01
   118  1.1700000000000D+00  1.3955614657757D+00 -2.8182407125641D-01
   119  1.1800000000000D+00  1.3815992444315D+00 -2.9620990872605D-01
   120  1.1900000000000D+00  1.3659519791449D+00 -3.0949184500471D-01
   121  1.2000000000000D+00  1.3486597098001D+00 -3.2167128027972D-01
   122  1.2100000000000D+00  1.3297672879504D+00 -3.3275242335043D-01
   123  1.2200000000000D+00  1.3093242387038D+00 -3.4274225172087D-01
   124  1.2300000000000D+00  1.2873846023431D+00 -3.5165046226180D-01
   125  1.2400000000000D+00  1.2640067560233D+00 -3.5948941255062D-01
   126  1.2500000000000D+00  1.2392532159429D+00 -3.6627405302247D-01
   127  1.2600000000000D+00  1.2131904204919D+00 -3.7202185010899D-01
   128  1.2700000000000D+00  1.1858884949651D+00 -3.7675270057843D-01
   129  1.2800000000000D+00  1.1574209984636D+00 -3.8048883730529D-01
   130  1.2900000000000D+00  1.1278646537007D+00 -3.8325472673777D-01
   131  1.3000000000000D+00  1.0972990605222D+00 -3.8507695837129D-01
   132  1.3100000000000D+00  1.0658063939526D+00 -3.8598412653919D-01
   133  1.3200000000000D+00  1.0334710876853D+00 -3.8600670487500D-01
   134  1.3300000000000D+00  1.0003795039974D+00 -3.8517691383346D-01
   135  1.3400000000000D+00  9.6661959105920D-01 -3.8352858164897D-01
   136  1.3500000000000D+00  9.3228052872232D-01 -3.8109699916412D-01
   137  1.3600000000000D+00  8.9745236388662D-01 -3.7791876897058D-01
   138  1.3700000000000D+00  8.6222563653871D-01 -3.7403164929821D-01
   139  1.3800000000000D+00  8.2669099766604D-01 -3.6947439314601D-01
   140  1.3900000000000D+00  7.9093882019612D-01 -3.6428658312294D-01
   141  1.4000000000000D+00  7.5505880417324D-01 -3.5850846249516D-01
   142  1.4100000000000D+00  7.1913957738237D-01 -3.5218076294745D-01
   143  1.4200000000000D+00  6.8326829263238D-01 -3.4534452955686D-01
   144  1.4300000000000D+00  6.4753022292279D-01 -3.3804094349980D-01
   145  1.4400000000000D+00  6.1200835568374D-01 -3.3031114299561D-01
   146  1.4500000000000D+00  5.7678298732847D-01 -3.2219604301082D-01
   147  1.4600000000000D+00  5.4193131922395D-01 -3.1373615421304D-01
   148  1.4700000000000D+00  5.0752705633408D-01 -3.0497140170345D-01
   149  1.4800000000000D+00  4.7364000649320D-01 -2.9594094328394D-01
   150  1.4900000000000D+00  4.4033570125835D-01 -2.8668299235482D-01
   151  1.5000000000000D+00  4.0767496222288D-01 -2.7723462766337D-01
   152  1.5100000000000D+00  3.7571365725321D-01 -2.6763164926067D-01
   153  1.5200000000000D+00  3.4450219829225D-01 -2.5790836959438D-01
   154  1.5300000000000D+00  3.1408481402050D-01 -2.4809736047877D-01
   155  1.5400000000000D+00  2.8450061041383D-01 -2.3822960734711D-01
   156  1.5500000000000D+00  2.5578437564725D-01 -2.2833461667170D-01
   157  1.5600000000000D+00  2.2796771023773D-01 -2.1844064135254D-01
   158  1.5700000000000D+00  2.0107978515382D-01 -2.0857482203283D-01
   159  1.5800000000000D+00  1.7514683932368D-01 -1.9876305081012D-01
   160  1.5900000000000D+00  1.5019212367567D-01 -1.8902993887496D-01
   161  1.6000000000000D+00  1.2623593674643D-01 -1.7939880306765D-01
   162  1.6100000000000D+00  1.0329556651653D-01 -1.6989163538745D-01
   163  1.6200000000000D+00  8.1385283135391D-02 -1.6052908544325D-01
   164  1.6300000000000D+00  6.0516331230867D-02 -1.5133044486985D-01
   165  1.6400000000000D+00  4.0696936652288D-02 -1.4231363695053D-01
   166  1.6500000000000D+00  2.1932325145288D-02 -1.3349521093379D-01
   167  1.6600000000000D+00  4.2247523207017D-03 -1.2489034083784D-01
   168  1.6700000000000D+00 -1.2426454923190D-02 -1.1651282881809D-01
   169  1.6800000000000D+00 -2.8024846417752D-02 -1.0837511280480D-01
   170  1.6900000000000D+00 -4.2576785701622D-02 -1.0048827857387D-01
   171  1.7000000000000D+00 -5.6091377010925D-02 -9.2862075899931D-02
   172  1.7100000000000D+00 -6.8580382807842D-02 -8.5504938678700D-02
   173  1.7200000000000D+00 -8.0058132257905D-02 -7.8424008836602D-02
   174  1.7300000000000D+00 -9.0541420737417D-02 -7.1625164016187D-02
   175  1.7400000000000D+00 -1.0004940161696D-01 -6.5113048629581D-02
   176  1.7500000000000D+00 -1.0860346972855D-01 -5.8891108456807D-02
   177  1.7600000000000D+00 -1.1622713784543D-01 -5.2961628347593D-02
   178  1.7700000000000D+00 -1.2294590719619D-01 -4.7325772742967D-02
   179  1.7800000000000D+00 -1.2878713235715D-01 -4.1983628856916D-02
   180  1.7900000000000D+00 -1.3377988096009D-01 -3.6934252373900D-02
   181  1.8000000000000D+00 -1.3795478913574D-01 -3.2175715351534D-02
   182  1.8100000000000D+00 -1.4134391313432D-01 -2.7705156175156D-02
   183  1.8200000000000D+00 -1.4398057777961D-01 -2.3518831333590D-02
   184  1.8300000000000D+00 -1.4589922274201D-01 -1.9612168689809D-02
   185  1.8400000000000D+00 -1.4713524730506D-01 -1.5979822021183D-02
   186  1.8500000000000D+00 -1.4772485416642D-01 -1.2615726616337D-02
   187  1.8600000000000D+00 -1.4770489306670D-01 -9.5131556760377D-03
   188  1.8700000000000D+00 -1.4711270480219D-01 -6.6647772921113D-03
   189  1.8800000000000D+00 -1.4598596661744D-01 -4.0627116952763D-03
   190  1.8900000000000D+00 -1.4436253918989D-01 -1.6985886448872D-03
   191  1.9000000000000D+00 -1.4228031637997D-01  4.3639540856749D-04
   192  1.9100000000000D+00 -1.3977707788303D-01  2.3514204828233D-03
   193  1.9200000000000D+00 -1.3689034579262D-01  4.0559868797213D-03
   194  1.9300000000000D+00 -1.3365724547919D-01  5.5598598206591D-03
   195  1.9400000000000D+00 -1.3011437123011D-01  6.8730150783865D-03
   196  1.9500000000000D+00 -1.2629765772345D-01  8.0055859631850D-03
   197  1.9600000000000D+00 -1.2224225682912D-01  8.9678115559575D-03
   198  1.9700000000000D+00 -1.1798242162371D-01  9.7699867946953D-03
   199  1.9800000000000D+00 -1.1355139653555D-01  1.0422414126753D-02
   200  1.9900000000000D+00 -1.0898131529812D-01  1.0935357277433D-02
   201  2.0000000000000D+00 -1.0430310634096D-01  1.1318997058546D-02
   202  2.0100000000000D+00 -9.9546405944493D-02  1.1583389355628D-02
   203  2.0200000000000D+00 -9.4739480294008D-02  1.1738425684054D-02
   204  2.0300000000000D+00 -8.9909154998652D-02  1.1793795899733D-02
   205  2.0400000000000D+00 -8.5080754464850D-02  1.1758953854845D-02
   206  2.0500000000000D+00 -8.0278049191823D-02  1.1643085419953D-02
   207  2.0600000000000D+00 -7.5523212413639D-02  1.1455079362663D-02
   208  2.0700000000000D+00 -7.0836786046162D-02  1.1203501104554D-02
   209  2.0800000000000D+00 -6.6237654716017D-02  1.0896568994765D-02
   210  2.0900000000000D+00 -6.1743030143846D-02  1.0542133875535D-02
   211  2.1000000000000D+00 -5.7368443213685D-02  1.0147661100317D-02
   212  2.1100000000000D+00 -5.3127745572684D-02  9.7202156475531D-03
   213  2.1200000000000D+00 -4.9033119958498D-02  9.2664500996884D-03
   214  2.1300000000000D+00 -4.5095098076688D-02  8.7925951281417D-03
   215  2.1400000000000D+00 -4.1322588036922D-02  8.3044531987175D-03
   216  2.1500000000000D+00 -3.7722908437183D-02  7.8073945460870D-03
   217  2.1600000000000D+00 -3.4301830640705D-02  7.3063559838698D-03
   218  2.1700000000000D+00 -3.1063628482782D-02  6.8058423278040D-03
   219  2.1800000000000D+00 -2.8011133704164D-02  6.3099298740435D-03
   220  2.1900000000000D+00 -2.5145799098615D-02  5.8222726801892D-03
   221  2.2000000000000D+00 -2.2467766510147D-02  5.3461106692659D-03
   222  2.2100000000000D+00 -1.9975940406458D-02  4.8842798643129D-03
   223  2.2200000000000D+00 -1.7668066714425D-02  4.4392246923741D-03
   224  2.2300000000000D+00 -1.5540815145214D-02  4.0130117368181D-03
   225  2.2400000000000D+00 -1.3589865829867D-02  3.6073453246867D-03
   226  2.2500000000000D+00 -1.1809998793765D-02  3.2235844267799D-03
   227  2.2600000000000D+00 -1.0195185709606D-02  2.8627606999368D-03
   228  2.2700000000000D+00 -8.7386837672592D-03  2.5255977277966D-03
   229  2.2800000000000D+00 -7.4331306004832D-03  2.2125310186755D-03
   230  2.2900000000000D+00 -6.2706397722864D-03  1.9237286896904D-03
   231  2.3000000000000D+00 -5.2428960567861D-03  1.6591126154834D-03
   232  2.3100000000000D+00 -4.3412504567437D-03  1.4183799483418D-03
   233  2.3200000000000D+00 -3.5568133542040D-03  1.2010246156389D-03
   234  2.3300000000000D+00 -2.8805457153204D-03  1.0063587204333D-03
   235  2.3400000000000D+00 -2.3033488026824D-03  8.3353395379148D-04
   236  2.3500000000000D+00 -1.8161491195111D-03  6.8156210299918D-04
   237  2.3600000000000D+00 -1.4099807892381D-03  5.4933524428536D-04
   238  2.3700000000000D+00 -1.0760642451663D-03  4.3564530058387D-04
   239  2.3800000000000D+00 -8.0587846715156D-04  3.3920214070847D-04
   240  2.3900000000000D+00 -5.9122986290250D-04  2.5865112306402D-04
   241  2.4000000000000D+00 -4.2431530849517D-04  1.9258934127158D-04
   242  2.4100000000000D+00 -2.9781232768493D-04  1.3958510045616D-04
   243  2.4200000000000D+00 -2.0482486598442D-04  9.8176334558428D-05
   244  2.4300000000000D+00 -1.3896797697656D-04  6.6888327358051D-05
   245  2.4400000000000D+00 -9.4201695025120D-05  4.4163829904573D-05
   246  2.4500000000000D+00 -6.5910430458263D-05  2.8693743054153D-05
   247  2.4600000000000D+00 -5.0144842744831D-05  1.9191394453017D-05
   248  2.4700000000000D+00 -4.4136997606036D-05  1.4617911234464D-05
   249  2.4800000000000D+00 -4.2087837659344D-05  1.2737305913868D-05
   250  2.4900000000000D+00 -3.8716183572139D-05  1.1398917395393D-05
   251  2.5000000000000D+00 -2.8615122406976D-05  8.3803221176311D-06
   252  2.5100000000000D+00 -1.4913515505701D-05  4.3777823049278D-06
   253  2.5200000000000D+00 -2.1422260707336D-06  6.3264063312327D-07
   254  2.5300000000000D+00  3.4303406201152D-06 -9.8364233319809D-07
   255  2.5400000000000D+00  3.4705889352678D-06 -9.9431965243240D-07
   256  2.5500000000000D+00  7.4446042807000D-07 -2.1323755749104D-07
   257  2.5600000000000D+00 -6.8603313960925D-07  1.9425439281859D-07
   258  2.5700000000000D+00 -8.1167288794290D-07  2.2940623497662D-07
   259  2.5800000000000D+00 -2.3101637145743D-07  6.5191841466050D-08
   260  2.5900000000000D+00  7.5996142190798D-08 -2.2363868078463D-08
   261  2.6000000000000D+00  1.0320257972692D-07 -3.0370079478182D-08
   262  2.6100000000000D+00  3.8944402414263D-08 -1.1460416974858D-08
   263  2.6200000000000D+00  0.0000000000000D+00  0.0000000000000D+00
   264  2.6300000000000D+00  0.0000000000000D+00  0.0000000000000D+00
   265  2.6400000000000D+00  0.0000000000000D+00  0.0000000000000D+00
   266  2.6500000000000D+00  0.0000000000000D+00  0.0000000000000D+00
   267  2.6600000000000D+00  0.0000000000000D+00  0.0000000000000D+00
   268  2.6700000000000D+00  0.0000000000000D+00  0.0000000000000D+00
   269  2.6800000000000D+00  0.0000000000000D+00  0.0000000000000D+00
   270  2.6900000000000D+00  0.0000000000000D+00  0.0000000000000D+00
   271  2.7000000000000D+00  0.0000000000000D+00  0.0000000000000D+00
   272  2.7100000000000D+00  0.0000000000000D+00  0.0000000000000D+00
   273  2.7200000000000D+00  0.0000000000000D+00  0.0000000000000D+00
   274  2.7300000000000D+00  0.0000000000000D+00  0.0000000000000D+00
   275  2.7400000000000D+00  0.0000000000000D+00  0.0000000000000D+00
   276  2.7500000000000D+00  0.0000000000000D+00  0.0000000000000D+00
   277  2.7600000000000D+00  0.0000000000000D+00  0.0000000000000D+00
   278  2.7700000000000D+00  0.0000000000000D+00  0.0000000000000D+00
   279  2.7800000000000D+00  0.0000000000000D+00  0.0000000000000D+00
   280  2.7900000000000D+00  0.0000000000000D+00  0.0000000000000D+00
   281  2.8000000000000D+00  0.0000000000000D+00  0.0000000000000D+00
   282  2.8100000000000D+00  0.0000000000000D+00  0.0000000000000D+00
   283  2.8200000000000D+00  0.0000000000000D+00  0.0000000000000D+00
   284  2.8300000000000D+00  0.0000000000000D+00  0.0000000000000D+00
   285  2.8400000000000D+00  0.0000000000000D+00  0.0000000000000D+00
   286  2.8500000000000D+00  0.0000000000000D+00  0.0000000000000D+00
   287  2.8600000000000D+00  0.0000000000000D+00  0.0000000000000D+00
   288  2.8700000000000D+00  0.0000000000000D+00  0.0000000000000D+00
   289  2.8800000000000D+00  0.0000000000000D+00  0.0000000000000D+00
   290  2.8900000000000D+00  0.0000000000000D+00  0.0000000000000D+00
   291  2.9000000000000D+00  0.0000000000000D+00  0.0000000000000D+00
   292  2.9100000000000D+00  0.0000000000000D+00  0.0000000000000D+00
   293  2.9200000000000D+00  0.0000000000000D+00  0.0000000000000D+00
   294  2.9300000000000D+00  0.0000000000000D+00  0.0000000000000D+00
   295  2.9400000000000D+00  0.0000000000000D+00  0.0000000000000D+00
   296  2.9500000000000D+00  0.0000000000000D+00  0.0000000000000D+00
   297  2.9600000000000D+00  0.0000000000000D+00  0.0000000000000D+00
   298  2.9700000000000D+00  0.0000000000000D+00  0.0000000000000D+00
   299  2.9800000000000D+00  0.0000000000000D+00  0.0000000000000D+00
   300  2.9900000000000D+00  0.0000000000000D+00  0.0000000000000D+00
   301  3.0000000000000D+00  0.0000000000000D+00  0.0000000000000D+00
   302  3.0100000000000D+00  0.0000000000000D+00  0.0000000000000D+00
   303  3.0200000000000D+00  0.0000000000000D+00  0.0000000000000D+00
   304  3.0300000000000D+00  0.0000000000000D+00  0.0000000000000D+00
   305  3.0400000000000D+00  0.0000000000000D+00  0.0000000000000D+00
   306  3.0500000000000D+00  0.0000000000000D+00  0.0000000000000D+00
   307  3.0600000000000D+00  0.0000000000000D+00  0.0000000000000D+00
   308  3.0700000000000D+00  0.0000000000000D+00  0.0000000000000D+00
   309  3.0800000000000D+00  0.0000000000000D+00  0.0000000000000D+00
   310  3.0900000000000D+00  0.0000000000000D+00  0.0000000000000D+00
   311  3.1000000000000D+00  0.0000000000000D+00  0.0000000000000D+00
   312  3.1100000000000D+00  0.0000000000000D+00  0.0000000000000D+00
   313  3.1200000000000D+00  0.0000000000000D+00  0.0000000000000D+00
   314  3.1300000000000D+00  0.0000000000000D+00  0.0000000000000D+00
   315  3.1400000000000D+00  0.0000000000000D+00  0.0000000000000D+00
   316  3.1500000000000D+00  0.0000000000000D+00  0.0000000000000D+00
   317  3.1600000000000D+00  0.0000000000000D+00  0.0000000000000D+00
   318  3.1700000000000D+00  0.0000000000000D+00  0.0000000000000D+00
   319  3.1800000000000D+00  0.0000000000000D+00  0.0000000000000D+00
   320  3.1900000000000D+00  0.0000000000000D+00  0.0000000000000D+00
   321  3.2000000000000D+00  0.0000000000000D+00  0.0000000000000D+00
   322  3.2100000000000D+00  0.0000000000000D+00  0.0000000000000D+00
   323  3.2200000000000D+00  0.0000000000000D+00  0.0000000000000D+00
   324  3.2300000000000D+00  0.0000000000000D+00  0.0000000000000D+00
   325  3.2400000000000D+00  0.0000000000000D+00  0.0000000000000D+00
   326  3.2500000000000D+00  0.0000000000000D+00  0.0000000000000D+00
   327  3.2600000000000D+00  0.0000000000000D+00  0.0000000000000D+00
   328  3.2700000000000D+00  0.0000000000000D+00  0.0000000000000D+00
   329  3.2800000000000D+00  0.0000000000000D+00  0.0000000000000D+00
   330  3.2900000000000D+00  0.0000000000000D+00  0.0000000000000D+00
   331  3.3000000000000D+00  0.0000000000000D+00  0.0000000000000D+00
   332  3.3100000000000D+00  0.0000000000000D+00  0.0000000000000D+00
   333  3.3200000000000D+00  0.0000000000000D+00  0.0000000000000D+00
   334  3.3300000000000D+00  0.0000000000000D+00  0.0000000000000D+00
   335  3.3400000000000D+00  0.0000000000000D+00  0.0000000000000D+00
   336  3.3500000000000D+00  0.0000000000000D+00  0.0000000000000D+00
   337  3.3600000000000D+00  0.0000000000000D+00  0.0000000000000D+00
   338  3.3700000000000D+00  0.0000000000000D+00  0.0000000000000D+00
   339  3.3800000000000D+00  0.0000000000000D+00  0.0000000000000D+00
   340  3.3900000000000D+00  0.0000000000000D+00  0.0000000000000D+00
   341  3.4000000000000D+00  0.0000000000000D+00  0.0000000000000D+00
   342  3.4100000000000D+00  0.0000000000000D+00  0.0000000000000D+00
   343  3.4200000000000D+00  0.0000000000000D+00  0.0000000000000D+00
   344  3.4300000000000D+00  0.0000000000000D+00  0.0000000000000D+00
   345  3.4400000000000D+00  0.0000000000000D+00  0.0000000000000D+00
   346  3.4500000000000D+00  0.0000000000000D+00  0.0000000000000D+00
   347  3.4600000000000D+00  0.0000000000000D+00  0.0000000000000D+00
   348  3.4700000000000D+00  0.0000000000000D+00  0.0000000000000D+00
   349  3.4800000000000D+00  0.0000000000000D+00  0.0000000000000D+00
   350  3.4900000000000D+00  0.0000000000000D+00  0.0000000000000D+00
   351  3.5000000000000D+00  0.0000000000000D+00  0.0000000000000D+00
   352  3.5100000000000D+00  0.0000000000000D+00  0.0000000000000D+00
   353  3.5200000000000D+00  0.0000000000000D+00  0.0000000000000D+00
   354  3.5300000000000D+00  0.0000000000000D+00  0.0000000000000D+00
   355  3.5400000000000D+00  0.0000000000000D+00  0.0000000000000D+00
   356  3.5500000000000D+00  0.0000000000000D+00  0.0000000000000D+00
   357  3.5600000000000D+00  0.0000000000000D+00  0.0000000000000D+00
   358  3.5700000000000D+00  0.0000000000000D+00  0.0000000000000D+00
   359  3.5800000000000D+00  0.0000000000000D+00  0.0000000000000D+00
   360  3.5900000000000D+00  0.0000000000000D+00  0.0000000000000D+00
   361  3.6000000000000D+00  0.0000000000000D+00  0.0000000000000D+00
   362  3.6100000000000D+00  0.0000000000000D+00  0.0000000000000D+00
   363  3.6200000000000D+00  0.0000000000000D+00  0.0000000000000D+00
   364  3.6300000000000D+00  0.0000000000000D+00  0.0000000000000D+00
   365  3.6400000000000D+00  0.0000000000000D+00  0.0000000000000D+00
   366  3.6500000000000D+00  0.0000000000000D+00  0.0000000000000D+00
   367  3.6600000000000D+00  0.0000000000000D+00  0.0000000000000D+00
   368  3.6700000000000D+00  0.0000000000000D+00  0.0000000000000D+00
   369  3.6800000000000D+00  0.0000000000000D+00  0.0000000000000D+00
   370  3.6900000000000D+00  0.0000000000000D+00  0.0000000000000D+00
   371  3.7000000000000D+00  0.0000000000000D+00  0.0000000000000D+00
   372  3.7100000000000D+00  0.0000000000000D+00  0.0000000000000D+00
   373  3.7200000000000D+00  0.0000000000000D+00  0.0000000000000D+00
   374  3.7300000000000D+00  0.0000000000000D+00  0.0000000000000D+00
   375  3.7400000000000D+00  0.0000000000000D+00  0.0000000000000D+00
   376  3.7500000000000D+00  0.0000000000000D+00  0.0000000000000D+00
   377  3.7600000000000D+00  0.0000000000000D+00  0.0000000000000D+00
   378  3.7700000000000D+00  0.0000000000000D+00  0.0000000000000D+00
   379  3.7800000000000D+00  0.0000000000000D+00  0.0000000000000D+00
   380  3.7900000000000D+00  0.0000000000000D+00  0.0000000000000D+00
   381  3.8000000000000D+00  0.0000000000000D+00  0.0000000000000D+00
   382  3.8100000000000D+00  0.0000000000000D+00  0.0000000000000D+00
   383  3.8200000000000D+00  0.0000000000000D+00  0.0000000000000D+00
   384  3.8300000000000D+00  0.0000000000000D+00  0.0000000000000D+00
   385  3.8400000000000D+00  0.0000000000000D+00  0.0000000000000D+00
   386  3.8500000000000D+00  0.0000000000000D+00  0.0000000000000D+00
   387  3.8600000000000D+00  0.0000000000000D+00  0.0000000000000D+00
   388  3.8700000000000D+00  0.0000000000000D+00  0.0000000000000D+00
   389  3.8800000000000D+00  0.0000000000000D+00  0.0000000000000D+00
   390  3.8900000000000D+00  0.0000000000000D+00  0.0000000000000D+00
   391  3.9000000000000D+00  0.0000000000000D+00  0.0000000000000D+00
   392  3.9100000000000D+00  0.0000000000000D+00  0.0000000000000D+00
   393  3.9200000000000D+00  0.0000000000000D+00  0.0000000000000D+00
   394  3.9300000000000D+00  0.0000000000000D+00  0.0000000000000D+00
   395  3.9400000000000D+00  0.0000000000000D+00  0.0000000000000D+00
   396  3.9500000000000D+00  0.0000000000000D+00  0.0000000000000D+00
   397  3.9600000000000D+00  0.0000000000000D+00  0.0000000000000D+00
   398  3.9700000000000D+00  0.0000000000000D+00  0.0000000000000D+00
   399  3.9800000000000D+00  0.0000000000000D+00  0.0000000000000D+00
   400  3.9900000000000D+00  0.0000000000000D+00  0.0000000000000D+00
   401  4.0000000000000D+00  0.0000000000000D+00  0.0000000000000D+00
   402  4.0100000000000D+00  0.0000000000000D+00  0.0000000000000D+00
   403  4.0200000000000D+00  0.0000000000000D+00  0.0000000000000D+00
   404  4.0300000000000D+00  0.0000000000000D+00  0.0000000000000D+00
   405  4.0400000000000D+00  0.0000000000000D+00  0.0000000000000D+00
   406  4.0500000000000D+00  0.0000000000000D+00  0.0000000000000D+00
   407  4.0600000000000D+00  0.0000000000000D+00  0.0000000000000D+00
   408  4.0700000000000D+00  0.0000000000000D+00  0.0000000000000D+00
   409  4.0800000000000D+00  0.0000000000000D+00  0.0000000000000D+00
   410  4.0900000000000D+00  0.0000000000000D+00  0.0000000000000D+00
   411  4.1000000000000D+00  0.0000000000000D+00  0.0000000000000D+00
   412  4.1100000000000D+00  0.0000000000000D+00  0.0000000000000D+00
   413  4.1200000000000D+00  0.0000000000000D+00  0.0000000000000D+00
   414  4.1300000000000D+00  0.0000000000000D+00  0.0000000000000D+00
   415  4.1400000000000D+00  0.0000000000000D+00  0.0000000000000D+00
   416  4.1500000000000D+00  0.0000000000000D+00  0.0000000000000D+00
   417  4.1600000000000D+00  0.0000000000000D+00  0.0000000000000D+00
   418  4.1700000000000D+00  0.0000000000000D+00  0.0000000000000D+00
   419  4.1800000000000D+00  0.0000000000000D+00  0.0000000000000D+00
   420  4.1900000000000D+00  0.0000000000000D+00  0.0000000000000D+00
   421  4.2000000000000D+00  0.0000000000000D+00  0.0000000000000D+00
   422  4.2100000000000D+00  0.0000000000000D+00  0.0000000000000D+00