<UPF version="2.0.1">
  <PP_INFO>

 This pseudopotential file has been produced using the code
 ONCVPSP  (Optimized Norm-Conservinng Vanderbilt PSeudopotential)
 fully-relativistic version 3.3.1 12/12/2017 by D. R. Hamann
 The code is available through a link at URL www.mat-simresearch.com.
 Documentation with the package provides a full discription of the
 input data below.


 While it is not required under the terms of the GNU GPL, it is
 suggested that you cite D. R. Hamann, Phys. Rev. B 88, 085117 (2013)
 in any publication using these pseudopotentials.

    <PP_INPUTFILE>
# ATOM AND REFERENCE CONFIGURATION
# atsym  z   nc   nv     iexc    psfile
  Ar 18.00    3    2       3      upf
#
#   n    l    f        energy (Ha)
    1    0    2.00
    2    0    2.00
    2    1    6.00
    3    0    2.00
    3    1    6.00
#
# PSEUDOPOTENTIAL AND OPTIMIZATION
# lmax
    1
#
#   l,   rc,     ep,   ncon, nbas, qcut
    0   2.67516  -0.89159    5    8   7.97831
    1   1.78325  -0.37948    5    8   7.45116
#
# LOCAL POTENTIAL
# lloc, lpopt,  rc(5),   dvloc0
    4    5   1.40476      0.00000
#
# VANDERBILT-KLEINMAN-BYLANDER PROJECTORs
# l, nproj, debl
    0    2   0.88169
    1    2   3.20519
#
# MODEL CORE CHARGE
# icmod, fcfact, rcfact
    0   0.00000   0.00000
#
# LOG DERIVATIVE ANALYSIS
# epsh1, epsh2, depsh
   -5.00    3.00    0.02
#
# OUTPUT GRID
# rlmax, drl
    6.00    0.01
#
# TEST CONFIGURATIONS
# ncnf
    0
# nvcnf
#   n    l    f
    </PP_INPUTFILE>
  </PP_INFO>
  <!--                               -->
  <!-- END OF HUMAN READABLE SECTION -->
  <!--                               -->
    <PP_HEADER
       generated="Generated using ONCVPSP code by D. R. Hamann"
       author="anonymous"
       date="210904"
       comment=""
       element="Ar"
       pseudo_type="NC"
       relativistic="full"
       is_ultrasoft="F"
       is_paw="F"
       is_coulomb="F"
       has_so="T"
       has_wfc="F"
       has_gipaw="F"
       core_correction="F"
       functional="PZ"
       z_valence="    8.00"
       total_psenergy="  -4.21962114656E+01"
       rho_cutoff="   9.37000000000E+00"
       l_max="1"
       l_local="-1"
       mesh_size="   938"
       number_of_wfc="3"
       number_of_proj="6"/>
 <PP_MESH>
   <PP_R type="real"  size=" 938" columns="8">
    0.0000    0.0100    0.0200    0.0300    0.0400    0.0500    0.0600    0.0700
    0.0800    0.0900    0.1000    0.1100    0.1200    0.1300    0.1400    0.1500
    0.1600    0.1700    0.1800    0.1900    0.2000    0.2100    0.2200    0.2300
    0.2400    0.2500    0.2600    0.2700    0.2800    0.2900    0.3000    0.3100
    0.3200    0.3300    0.3400    0.3500    0.3600    0.3700    0.3800    0.3900
    0.4000    0.4100    0.4200    0.4300    0.4400    0.4500    0.4600    0.4700
    0.4800    0.4900    0.5000    0.5100    0.5200    0.5300    0.5400    0.5500
    0.5600    0.5700    0.5800    0.5900    0.6000    0.6100    0.6200    0.6300
    0.6400    0.6500    0.6600    0.6700    0.6800    0.6900    0.7000    0.7100
    0.7200    0.7300    0.7400    0.7500    0.7600    0.7700    0.7800    0.7900
    0.8000    0.8100    0.8200    0.8300    0.8400    0.8500    0.8600    0.8700
    0.8800    0.8900    0.9000    0.9100    0.9200    0.9300    0.9400    0.9500
    0.9600    0.9700    0.9800    0.9900    1.0000    1.0100    1.0200    1.0300
    1.0400    1.0500    1.0600    1.0700    1.0800    1.0900    1.1000    1.1100
    1.1200    1.1300    1.1400    1.1500    1.1600    1.1700    1.1800    1.1900
    1.2000    1.2100    1.2200    1.2300    1.2400    1.2500    1.2600    1.2700
    1.2800    1.2900    1.3000    1.3100    1.3200    1.3300    1.3400    1.3500
    1.3600    1.3700    1.3800    1.3900    1.4000    1.4100    1.4200    1.4300
    1.4400    1.4500    1.4600    1.4700    1.4800    1.4900    1.5000    1.5100
    1.5200    1.5300    1.5400    1.5500    1.5600    1.5700    1.5800    1.5900
    1.6000    1.6100    1.6200    1.6300    1.6400    1.6500    1.6600    1.6700
    1.6800    1.6900    1.7000    1.7100    1.7200    1.7300    1.7400    1.7500
    1.7600    1.7700    1.7800    1.7900    1.8000    1.8100    1.8200    1.8300
    1.8400    1.8500    1.8600    1.8700    1.8800    1.8900    1.9000    1.9100
    1.9200    1.9300    1.9400    1.9500    1.9600    1.9700    1.9800    1.9900
    2.0000    2.0100    2.0200    2.0300    2.0400    2.0500    2.0600    2.0700
    2.0800    2.0900    2.1000    2.1100    2.1200    2.1300    2.1400    2.1500
    2.1600    2.1700    2.1800    2.1900    2.2000    2.2100    2.2200    2.2300
    2.2400    2.2500    2.2600    2.2700    2.2800    2.2900    2.3000    2.3100
    2.3200    2.3300    2.3400    2.3500    2.3600    2.3700    2.3800    2.3900
    2.4000    2.4100    2.4200    2.4300    2.4400    2.4500    2.4600    2.4700
    2.4800    2.4900    2.5000    2.5100    2.5200    2.5300    2.5400    2.5500
    2.5600    2.5700    2.5800    2.5900    2.6000    2.6100    2.6200    2.6300
    2.6400    2.6500    2.6600    2.6700    2.6800    2.6900    2.7000    2.7100
    2.7200    2.7300    2.7400    2.7500    2.7600    2.7700    2.7800    2.7900
    2.8000    2.8100    2.8200    2.8300    2.8400    2.8500    2.8600    2.8700
    2.8800    2.8900    2.9000    2.9100    2.9200    2.9300    2.9400    2.9500
    2.9600    2.9700    2.9800    2.9900    3.0000    3.0100    3.0200    3.0300
    3.0400    3.0500    3.0600    3.0700    3.0800    3.0900    3.1000    3.1100
    3.1200    3.1300    3.1400    3.1500    3.1600    3.1700    3.1800    3.1900
    3.2000    3.2100    3.2200    3.2300    3.2400    3.2500    3.2600    3.2700
    3.2800    3.2900    3.3000    3.3100    3.3200    3.3300    3.3400    3.3500
    3.3600    3.3700    3.3800    3.3900    3.4000    3.4100    3.4200    3.4300
    3.4400    3.4500    3.4600    3.4700    3.4800    3.4900    3.5000    3.5100
    3.5200    3.5300    3.5400    3.5500    3.5600    3.5700    3.5800    3.5900
    3.6000    3.6100    3.6200    3.6300    3.6400    3.6500    3.6600    3.6700
    3.6800    3.6900    3.7000    3.7100    3.7200    3.7300    3.7400    3.7500
    3.7600    3.7700    3.7800    3.7900    3.8000    3.8100    3.8200    3.8300
    3.8400    3.8500    3.8600    3.8700    3.8800    3.8900    3.9000    3.9100
    3.9200    3.9300    3.9400    3.9500    3.9600    3.9700    3.9800    3.9900
    4.0000    4.0100    4.0200    4.0300    4.0400    4.0500    4.0600    4.0700
    4.0800    4.0900    4.1000    4.1100    4.1200    4.1300    4.1400    4.1500
    4.1600    4.1700    4.1800    4.1900    4.2000    4.2100    4.2200    4.2300
    4.2400    4.2500    4.2600    4.2700    4.2800    4.2900    4.3000    4.3100
    4.3200    4.3300    4.3400    4.3500    4.3600    4.3700    4.3800    4.3900
    4.4000    4.4100    4.4200    4.4300    4.4400    4.4500    4.4600    4.4700
    4.4800    4.4900    4.5000    4.5100    4.5200    4.5300    4.5400    4.5500
    4.5600    4.5700    4.5800    4.5900    4.6000    4.6100    4.6200    4.6300
    4.6400    4.6500    4.6600    4.6700    4.6800    4.6900    4.7000    4.7100
    4.7200    4.7300    4.7400    4.7500    4.7600    4.7700    4.7800    4.7900
    4.8000    4.8100    4.8200    4.8300    4.8400    4.8500    4.8600    4.8700
    4.8800    4.8900    4.9000    4.9100    4.9200    4.9300    4.9400    4.9500
    4.9600    4.9700    4.9800    4.9900    5.0000    5.0100    5.0200    5.0300
    5.0400    5.0500    5.0600    5.0700    5.0800    5.0900    5.1000    5.1100
    5.1200    5.1300    5.1400    5.1500    5.1600    5.1700    5.1800    5.1900
    5.2000    5.2100    5.2200    5.2300    5.2400    5.2500    5.2600    5.2700
    5.2800    5.2900    5.3000    5.3100    5.3200    5.3300    5.3400    5.3500
    5.3600    5.3700    5.3800    5.3900    5.4000    5.4100    5.4200    5.4300
    5.4400    5.4500    5.4600    5.4700    5.4800    5.4900    5.5000    5.5100
    5.5200    5.5300    5.5400    5.5500    5.5600    5.5700    5.5800    5.5900
    5.6000    5.6100    5.6200    5.6300    5.6400    5.6500    5.6600    5.6700
    5.6800    5.6900    5.7000    5.7100    5.7200    5.7300    5.7400    5.7500
    5.7600    5.7700    5.7800    5.7900    5.8000    5.8100    5.8200    5.8300
    5.8400    5.8500    5.8600    5.8700    5.8800    5.8900    5.9000    5.9100
    5.9200    5.9300    5.9400    5.9500    5.9600    5.9700    5.9800    5.9900
    6.0000    6.0100    6.0200    6.0300    6.0400    6.0500    6.0600    6.0700
    6.0800    6.0900    6.1000    6.1100    6.1200    6.1300    6.1400    6.1500
    6.1600    6.1700    6.1800    6.1900    6.2000    6.2100    6.2200    6.2300
    6.2400    6.2500    6.2600    6.2700    6.2800    6.2900    6.3000    6.3100
    6.3200    6.3300    6.3400    6.3500    6.3600    6.3700    6.3800    6.3900
    6.4000    6.4100    6.4200    6.4300    6.4400    6.4500    6.4600    6.4700
    6.4800    6.4900    6.5000    6.5100    6.5200    6.5300    6.5400    6.5500
    6.5600    6.5700    6.5800    6.5900    6.6000    6.6100    6.6200    6.6300
    6.6400    6.6500    6.6600    6.6700    6.6800    6.6900    6.7000    6.7100
    6.7200    6.7300    6.7400    6.7500    6.7600    6.7700    6.7800    6.7900
    6.8000    6.8100    6.8200    6.8300    6.8400    6.8500    6.8600    6.8700
    6.8800    6.8900    6.9000    6.9100    6.9200    6.9300    6.9400    6.9500
    6.9600    6.9700    6.9800    6.9900    7.0000    7.0100    7.0200    7.0300
    7.0400    7.0500    7.0600    7.0700    7.0800    7.0900    7.1000    7.1100
    7.1200    7.1300    7.1400    7.1500    7.1600    7.1700    7.1800    7.1900
    7.2000    7.2100    7.2200    7.2300    7.2400    7.2500    7.2600    7.2700
    7.2800    7.2900    7.3000    7.3100    7.3200    7.3300    7.3400    7.3500
    7.3600    7.3700    7.3800    7.3900    7.4000    7.4100    7.4200    7.4300
    7.4400    7.4500    7.4600    7.4700    7.4800    7.4900    7.5000    7.5100
    7.5200    7.5300    7.5400    7.5500    7.5600    7.5700    7.5800    7.5900
    7.6000    7.6100    7.6200    7.6300    7.6400    7.6500    7.6600    7.6700
    7.6800    7.6900    7.7000    7.7100    7.7200    7.7300    7.7400    7.7500
    7.7600    7.7700    7.7800    7.7900    7.8000    7.8100    7.8200    7.8300
    7.8400    7.8500    7.8600    7.8700    7.8800    7.8900    7.9000    7.9100
    7.9200    7.9300    7.9400    7.9500    7.9600    7.9700    7.9800    7.9900
    8.0000    8.0100    8.0200    8.0300    8.0400    8.0500    8.0600    8.0700
    8.0800    8.0900    8.1000    8.1100    8.1200    8.1300    8.1400    8.1500
    8.1600    8.1700    8.1800    8.1900    8.2000    8.2100    8.2200    8.2300
    8.2400    8.2500    8.2600    8.2700    8.2800    8.2900    8.3000    8.3100
    8.3200    8.3300    8.3400    8.3500    8.3600    8.3700    8.3800    8.3900
    8.4000    8.4100    8.4200    8.4300    8.4400    8.4500    8.4600    8.4700
    8.4800    8.4900    8.5000    8.5100    8.5200    8.5300    8.5400    8.5500
    8.5600    8.5700    8.5800    8.5900    8.6000    8.6100    8.6200    8.6300
    8.6400    8.6500    8.6600    8.6700    8.6800    8.6900    8.7000    8.7100
    8.7200    8.7300    8.7400    8.7500    8.7600    8.7700    8.7800    8.7900
    8.8000    8.8100    8.8200    8.8300    8.8400    8.8500    8.8600    8.8700
    8.8800    8.8900    8.9000    8.9100    8.9200    8.9300    8.9400    8.9500
    8.9600    8.9700    8.9800    8.9900    9.0000    9.0100    9.0200    9.0300
    9.0400    9.0500    9.0600    9.0700    9.0800    9.0900    9.1000    9.1100
    9.1200    9.1300    9.1400    9.1500    9.1600    9.1700    9.1800    9.1900
    9.2000    9.2100    9.2200    9.2300    9.2400    9.2500    9.2600    9.2700
    9.2800    9.2900    9.3000    9.3100    9.3200    9.3300    9.3400    9.3500
    9.3600    9.3700
   </PP_R>
   <PP_RAB type="real"  size=" 938" columns="8">
    0.0100    0.0100    0.0100    0.0100    0.0100    0.0100    0.0100    0.0100
    0.0100    0.0100    0.0100    0.0100    0.0100    0.0100    0.0100    0.0100
    0.0100    0.0100    0.0100    0.0100    0.0100    0.0100    0.0100    0.0100
    0.0100    0.0100    0.0100    0.0100    0.0100    0.0100    0.0100    0.0100
    0.0100    0.0100    0.0100    0.0100    0.0100    0.0100    0.0100    0.0100
    0.0100    0.0100    0.0100    0.0100    0.0100    0.0100    0.0100    0.0100
    0.0100    0.0100    0.0100    0.0100    0.0100    0.0100    0.0100    0.0100
    0.0100    0.0100    0.0100    0.0100    0.0100    0.0100    0.0100    0.0100
    0.0100    0.0100    0.0100    0.0100    0.0100    0.0100    0.0100    0.0100
    0.0100    0.0100    0.0100    0.0100    0.0100    0.0100    0.0100    0.0100
    0.0100    0.0100    0.0100    0.0100    0.0100    0.0100    0.0100    0.0100
    0.0100    0.0100    0.0100    0.0100    0.0100    0.0100    0.0100    0.0100
    0.0100    0.0100    0.0100    0.0100    0.0100    0.0100    0.0100    0.0100
    0.0100    0.0100    0.0100    0.0100    0.0100    0.0100    0.0100    0.0100
    0.0100    0.0100    0.0100    0.0100    0.0100    0.0100    0.0100    0.0100
    0.0100    0.0100    0.0100    0.0100    0.0100    0.0100    0.0100    0.0100
    0.0100    0.0100    0.0100    0.0100    0.0100    0.0100    0.0100    0.0100
    0.0100    0.0100    0.0100    0.0100    0.0100    0.0100    0.0100    0.0100
    0.0100    0.0100    0.0100    0.0100    0.0100    0.0100    0.0100    0.0100
    0.0100    0.0100    0.0100    0.0100    0.0100    0.0100    0.0100    0.0100
    0.0100    0.0100    0.0100    0.0100    0.0100    0.0100    0.0100    0.0100
    0.0100    0.0100    0.0100    0.0100    0.0100    0.0100    0.0100    0.0100
    0.0100    0.0100    0.0100    0.0100    0.0100    0.0100    0.0100    0.0100
    0.0100    0.0100    0.0100    0.0100    0.0100    0.0100    0.0100    0.0100
    0.0100    0.0100    0.0100    0.0100    0.0100    0.0100    0.0100    0.0100
    0.0100    0.0100    0.0100    0.0100    0.0100    0.0100    0.0100    0.0100
    0.0100    0.0100    0.0100    0.0100    0.0100    0.0100    0.0100    0.0100
    0.0100    0.0100    0.0100    0.0100    0.0100    0.0100    0.0100    0.0100
    0.0100    0.0100    0.0100    0.0100    0.0100    0.0100    0.0100    0.0100
    0.0100    0.0100    0.0100    0.0100    0.0100    0.0100    0.0100    0.0100
    0.0100    0.0100    0.0100    0.0100    0.0100    0.0100    0.0100    0.0100
    0.0100    0.0100    0.0100    0.0100    0.0100    0.0100    0.0100    0.0100
    0.0100    0.0100    0.0100    0.0100    0.0100    0.0100    0.0100    0.0100
    0.0100    0.0100    0.0100    0.0100    0.0100    0.0100    0.0100    0.0100
    0.0100    0.0100    0.0100    0.0100    0.0100    0.0100    0.0100    0.0100
    0.0100    0.0100    0.0100    0.0100    0.0100    0.0100    0.0100    0.0100
    0.0100    0.0100    0.0100    0.0100    0.0100    0.0100    0.0100    0.0100
    0.0100    0.0100    0.0100    0.0100    0.0100    0.0100    0.0100    0.0100
    0.0100    0.0100    0.0100    0.0100    0.0100    0.0100    0.0100    0.0100
    0.0100    0.0100    0.0100    0.0100    0.0100    0.0100    0.0100    0.0100
    0.0100    0.0100    0.0100    0.0100    0.0100    0.0100    0.0100    0.0100
    0.0100    0.0100    0.0100    0.0100    0.0100    0.0100    0.0100    0.0100
    0.0100    0.0100    0.0100    0.0100    0.0100    0.0100    0.0100    0.0100
    0.0100    0.0100    0.0100    0.0100    0.0100    0.0100    0.0100    0.0100
    0.0100    0.0100    0.0100    0.0100    0.0100    0.0100    0.0100    0.0100
    0.0100    0.0100    0.0100    0.0100    0.0100    0.0100    0.0100    0.0100
    0.0100    0.0100    0.0100    0.0100    0.0100    0.0100    0.0100    0.0100
    0.0100    0.0100    0.0100    0.0100    0.0100    0.0100    0.0100    0.0100
    0.0100    0.0100    0.0100    0.0100    0.0100    0.0100    0.0100    0.0100
    0.0100    0.0100    0.0100    0.0100    0.0100    0.0100    0.0100    0.0100
    0.0100    0.0100    0.0100    0.0100    0.0100    0.0100    0.0100    0.0100
    0.0100    0.0100    0.0100    0.0100    0.0100    0.0100    0.0100    0.0100
    0.0100    0.0100    0.0100    0.0100    0.0100    0.0100    0.0100    0.0100
    0.0100    0.0100    0.0100    0.0100    0.0100    0.0100    0.0100    0.0100
    0.0100    0.0100    0.0100    0.0100    0.0100    0.0100    0.0100    0.0100
    0.0100    0.0100    0.0100    0.0100    0.0100    0.0100    0.0100    0.0100
    0.0100    0.0100    0.0100    0.0100    0.0100    0.0100    0.0100    0.0100
    0.0100    0.0100    0.0100    0.0100    0.0100    0.0100    0.0100    0.0100
    0.0100    0.0100    0.0100    0.0100    0.0100    0.0100    0.0100    0.0100
    0.0100    0.0100    0.0100    0.0100    0.0100    0.0100    0.0100    0.0100
    0.0100    0.0100    0.0100    0.0100    0.0100    0.0100    0.0100    0.0100
    0.0100    0.0100    0.0100    0.0100    0.0100    0.0100    0.0100    0.0100
    0.0100    0.0100    0.0100    0.0100    0.0100    0.0100    0.0100    0.0100
    0.0100    0.0100    0.0100    0.0100    0.0100    0.0100    0.0100    0.0100
    0.0100    0.0100    0.0100    0.0100    0.0100    0.0100    0.0100    0.0100
    0.0100    0.0100    0.0100    0.0100    0.0100    0.0100    0.0100    0.0100
    0.0100    0.0100    0.0100    0.0100    0.0100    0.0100    0.0100    0.0100
    0.0100    0.0100    0.0100    0.0100    0.0100    0.0100    0.0100    0.0100
    0.0100    0.0100    0.0100    0.0100    0.0100    0.0100    0.0100    0.0100
    0.0100    0.0100    0.0100    0.0100    0.0100    0.0100    0.0100    0.0100
    0.0100    0.0100    0.0100    0.0100    0.0100    0.0100    0.0100    0.0100
    0.0100    0.0100    0.0100    0.0100    0.0100    0.0100    0.0100    0.0100
    0.0100    0.0100    0.0100    0.0100    0.0100    0.0100    0.0100    0.0100
    0.0100    0.0100    0.0100    0.0100    0.0100    0.0100    0.0100    0.0100
    0.0100    0.0100    0.0100    0.0100    0.0100    0.0100    0.0100    0.0100
    0.0100    0.0100    0.0100    0.0100    0.0100    0.0100    0.0100    0.0100
    0.0100    0.0100    0.0100    0.0100    0.0100    0.0100    0.0100    0.0100
    0.0100    0.0100    0.0100    0.0100    0.0100    0.0100    0.0100    0.0100
    0.0100    0.0100    0.0100    0.0100    0.0100    0.0100    0.0100    0.0100
    0.0100    0.0100    0.0100    0.0100    0.0100    0.0100    0.0100    0.0100
    0.0100    0.0100    0.0100    0.0100    0.0100    0.0100    0.0100    0.0100
    0.0100    0.0100    0.0100    0.0100    0.0100    0.0100    0.0100    0.0100
    0.0100    0.0100    0.0100    0.0100    0.0100    0.0100    0.0100    0.0100
    0.0100    0.0100    0.0100    0.0100    0.0100    0.0100    0.0100    0.0100
    0.0100    0.0100    0.0100    0.0100    0.0100    0.0100    0.0100    0.0100
    0.0100    0.0100    0.0100    0.0100    0.0100    0.0100    0.0100    0.0100
    0.0100    0.0100    0.0100    0.0100    0.0100    0.0100    0.0100    0.0100
    0.0100    0.0100    0.0100    0.0100    0.0100    0.0100    0.0100    0.0100
    0.0100    0.0100    0.0100    0.0100    0.0100    0.0100    0.0100    0.0100
    0.0100    0.0100    0.0100    0.0100    0.0100    0.0100    0.0100    0.0100
    0.0100    0.0100    0.0100    0.0100    0.0100    0.0100    0.0100    0.0100
    0.0100    0.0100    0.0100    0.0100    0.0100    0.0100    0.0100    0.0100
    0.0100    0.0100    0.0100    0.0100    0.0100    0.0100    0.0100    0.0100
    0.0100    0.0100    0.0100    0.0100    0.0100    0.0100    0.0100    0.0100
    0.0100    0.0100    0.0100    0.0100    0.0100    0.0100    0.0100    0.0100
    0.0100    0.0100    0.0100    0.0100    0.0100    0.0100    0.0100    0.0100
    0.0100    0.0100    0.0100    0.0100    0.0100    0.0100    0.0100    0.0100
    0.0100    0.0100    0.0100    0.0100    0.0100    0.0100    0.0100    0.0100
    0.0100    0.0100    0.0100    0.0100    0.0100    0.0100    0.0100    0.0100
    0.0100    0.0100    0.0100    0.0100    0.0100    0.0100    0.0100    0.0100
    0.0100    0.0100    0.0100    0.0100    0.0100    0.0100    0.0100    0.0100
    0.0100    0.0100    0.0100    0.0100    0.0100    0.0100    0.0100    0.0100
    0.0100    0.0100    0.0100    0.0100    0.0100    0.0100    0.0100    0.0100
    0.0100    0.0100    0.0100    0.0100    0.0100    0.0100    0.0100    0.0100
    0.0100    0.0100    0.0100    0.0100    0.0100    0.0100    0.0100    0.0100
    0.0100    0.0100    0.0100    0.0100    0.0100    0.0100    0.0100    0.0100
    0.0100    0.0100    0.0100    0.0100    0.0100    0.0100    0.0100    0.0100
    0.0100    0.0100    0.0100    0.0100    0.0100    0.0100    0.0100    0.0100
    0.0100    0.0100    0.0100    0.0100    0.0100    0.0100    0.0100    0.0100
    0.0100    0.0100    0.0100    0.0100    0.0100    0.0100    0.0100    0.0100
    0.0100    0.0100    0.0100    0.0100    0.0100    0.0100    0.0100    0.0100
    0.0100    0.0100    0.0100    0.0100    0.0100    0.0100    0.0100    0.0100
    0.0100    0.0100    0.0100    0.0100    0.0100    0.0100    0.0100    0.0100
    0.0100    0.0100    0.0100    0.0100    0.0100    0.0100    0.0100    0.0100
    0.0100    0.0100    0.0100    0.0100    0.0100    0.0100    0.0100    0.0100
    0.0100    0.0100    0.0100    0.0100    0.0100    0.0100    0.0100    0.0100
    0.0100    0.0100    0.0100    0.0100    0.0100    0.0100    0.0100    0.0100
    0.0100    0.0100
   </PP_RAB>
 </PP_MESH>
  <PP_LOCAL type="real"  size=" 938" columns="4">
   -2.5271834258E+01   -2.5270212500E+01   -2.5265351699E+01   -2.5257265195E+01
   -2.5245974781E+01   -2.5231510090E+01   -2.5213907782E+01   -2.5193210609E+01
   -2.5169466386E+01   -2.5142726945E+01   -2.5113047105E+01   -2.5080483704E+01
   -2.5045094732E+01   -2.5006938563E+01   -2.4966073318E+01   -2.4922556343E+01
   -2.4876443808E+01   -2.4827790409E+01   -2.4776649173E+01   -2.4723071334E+01
   -2.4667106283E+01   -2.4608801572E+01   -2.4548202954E+01   -2.4485354465E+01
   -2.4420298520E+01   -2.4353076027E+01   -2.4283726512E+01   -2.4212288244E+01
   -2.4138798366E+01   -2.4063293018E+01   -2.3985807462E+01   -2.3906376194E+01
   -2.3825033057E+01   -2.3741811338E+01   -2.3656743871E+01   -2.3569863118E+01
   -2.3481201251E+01   -2.3390790227E+01   -2.3298661854E+01   -2.3204847855E+01
   -2.3109379917E+01   -2.3012289746E+01   -2.2913609110E+01   -2.2813369882E+01
   -2.2711604069E+01   -2.2608343855E+01   -2.2503622546E+01   -2.2397479890E+01
   -2.2289949453E+01   -2.2180998593E+01   -2.2070718142E+01   -2.1959141953E+01
   -2.1846303959E+01   -2.1732238566E+01   -2.1616980512E+01   -2.1500564874E+01
   -2.1383027074E+01   -2.1264402883E+01   -2.1144728423E+01   -2.1024040171E+01
   -2.0902374957E+01   -2.0779769966E+01   -2.0656262732E+01   -2.0531891136E+01
   -2.0406693403E+01   -2.0280708093E+01   -2.0153974095E+01   -2.0026530621E+01
   -1.9898417192E+01   -1.9769673632E+01   -1.9640340053E+01   -1.9510456843E+01
   -1.9380064652E+01   -1.9249204376E+01   -1.9117917143E+01   -1.8986244293E+01
   -1.8854227358E+01   -1.8721908047E+01   -1.8589328221E+01   -1.8456529871E+01
   -1.8323555099E+01   -1.8190446086E+01   -1.8057245076E+01   -1.7923994343E+01
   -1.7790736164E+01   -1.7657512795E+01   -1.7524366435E+01   -1.7391339202E+01
   -1.7258473098E+01   -1.7125809976E+01   -1.6993391509E+01   -1.6861259155E+01
   -1.6729454123E+01   -1.6598017335E+01   -1.6466989391E+01   -1.6336410534E+01
   -1.6206320608E+01   -1.6076759022E+01   -1.5947764711E+01   -1.5819376098E+01
   -1.5691631048E+01   -1.5564566834E+01   -1.5438220093E+01   -1.5312626785E+01
   -1.5187822151E+01   -1.5063840672E+01   -1.4940716024E+01   -1.4818481040E+01
   -1.4697167664E+01   -1.4576806906E+01   -1.4457428806E+01   -1.4339062384E+01
   -1.4221735598E+01   -1.4105475305E+01   -1.3990307214E+01   -1.3876255841E+01
   -1.3763344470E+01   -1.3651595107E+01   -1.3541028438E+01   -1.3431663785E+01
   -1.3323519062E+01   -1.3216610732E+01   -1.3110953767E+01   -1.3006561601E+01
   -1.2903446089E+01   -1.2801617462E+01   -1.2701084286E+01   -1.2601853421E+01
   -1.2503929971E+01   -1.2407317248E+01   -1.2312016846E+01   -1.2218027607E+01
   -1.2125347987E+01   -1.2033978686E+01   -1.1943897858E+01   -1.1855079559E+01
   -1.1767538221E+01   -1.1681274235E+01   -1.1596262589E+01   -1.1512485497E+01
   -1.1429925339E+01   -1.1348559393E+01   -1.1268362701E+01   -1.1189309008E+01
   -1.1111373291E+01   -1.1034531538E+01   -1.0958760203E+01   -1.0884036462E+01
   -1.0810338136E+01   -1.0737643678E+01   -1.0665932150E+01   -1.0595183203E+01
   -1.0525377060E+01   -1.0456494495E+01   -1.0388516817E+01   -1.0321425852E+01
   -1.0255203925E+01   -1.0189833844E+01   -1.0125298885E+01   -1.0061582776E+01
   -9.9986696803E+00   -9.9365441827E+00   -9.8751912753E+00   -9.8145963431E+00
   -9.7547451506E+00   -9.6956238289E+00   -9.6372188625E+00   -9.5795170772E+00
   -9.5225056290E+00   -9.4661719917E+00   -9.4105039470E+00   -9.3554895736E+00
   -9.3011172379E+00   -9.2473755841E+00   -9.1942535259E+00   -9.1417402380E+00
   -9.0898251484E+00   -9.0384979313E+00   -8.9877485002E+00   -8.9375670021E+00
   -8.8879438114E+00   -8.8388695242E+00   -8.7903349522E+00   -8.7423311167E+00
   -8.6948492421E+00   -8.6478807503E+00   -8.6014172554E+00   -8.5554505587E+00
   -8.5099726435E+00   -8.4649756695E+00   -8.4204519686E+00   -8.3763940397E+00
   -8.3327945443E+00   -8.2896463022E+00   -8.2469422871E+00   -8.2046756222E+00
   -8.1628395765E+00   -8.1214275608E+00   -8.0804331237E+00   -8.0398499480E+00
   -7.9996718472E+00   -7.9598927620E+00   -7.9205067568E+00   -7.8815080164E+00
   -7.8428908431E+00   -7.8046496535E+00   -7.7667789752E+00   -7.7292734443E+00
   -7.6921278026E+00   -7.6553368946E+00   -7.6188956649E+00   -7.5827991558E+00
   -7.5470425049E+00   -7.5116209422E+00   -7.4765297883E+00   -7.4417644521E+00
   -7.4073204280E+00   -7.3731932947E+00   -7.3393787122E+00   -7.3058724206E+00
   -7.2726702376E+00   -7.2397680569E+00   -7.2071618463E+00   -7.1748476460E+00
   -7.1428215668E+00   -7.1110797884E+00   -7.0796185579E+00   -7.0484341884E+00
   -7.0175230570E+00   -6.9868816038E+00   -6.9565063303E+00   -6.9263937981E+00
   -6.8965406272E+00   -6.8669434955E+00   -6.8375991366E+00   -6.8085043392E+00
   -6.7796559457E+00   -6.7510508511E+00   -6.7226860020E+00   -6.6945583952E+00
   -6.6666650770E+00   -6.6390031417E+00   -6.6115697314E+00   -6.5843620342E+00
   -6.5573772837E+00   -6.5306127580E+00   -6.5040657789E+00   -6.4777337109E+00
   -6.4516139604E+00   -6.4257039748E+00   -6.4000012420E+00   -6.3745032892E+00
   -6.3492076826E+00   -6.3241120261E+00   -6.2992139611E+00   -6.2745111657E+00
   -6.2500013537E+00   -6.2256822742E+00   -6.2015517109E+00   -6.1776074815E+00
   -6.1538474370E+00   -6.1302694611E+00   -6.1068714695E+00   -6.0836514096E+00
   -6.0606072597E+00   -6.0377370286E+00   -6.0150387549E+00   -5.9925105063E+00
   -5.9701503797E+00   -5.9479565001E+00   -5.9259270201E+00   -5.9040601198E+00
   -5.8823540061E+00   -5.8608069120E+00   -5.8394170964E+00   -5.8181828436E+00
   -5.7971024626E+00   -5.7761742869E+00   -5.7553966740E+00   -5.7347680049E+00
   -5.7142866838E+00   -5.6939511375E+00   -5.6737598153E+00   -5.6537111882E+00
   -5.6338037489E+00   -5.6140360112E+00   -5.5944065097E+00   -5.5749137994E+00
   -5.5555564554E+00   -5.5363330724E+00   -5.5172422647E+00   -5.4982826655E+00
   -5.4794529268E+00   -5.4607517189E+00   -5.4421777302E+00   -5.4237296671E+00
   -5.4054062532E+00   -5.3872062295E+00   -5.3691283537E+00   -5.3511714003E+00
   -5.3333341601E+00   -5.3156154398E+00   -5.2980140623E+00   -5.2805288655E+00
   -5.2631587031E+00   -5.2459024434E+00   -5.2287589699E+00   -5.2117271804E+00
   -5.1948059870E+00   -5.1779943160E+00   -5.1612911075E+00   -5.1446953152E+00
   -5.1282059063E+00   -5.1118218611E+00   -5.0955421729E+00   -5.0793658480E+00
   -5.0632919049E+00   -5.0473193748E+00   -5.0314473009E+00   -5.0156747385E+00
   -5.0000007547E+00   -4.9844244282E+00   -4.9689448491E+00   -4.9535611189E+00
   -4.9382723501E+00   -4.9230776660E+00   -4.9079762009E+00   -4.8929670995E+00
   -4.8780495172E+00   -4.8632226192E+00   -4.8484855813E+00   -4.8338375890E+00
   -4.8192778377E+00   -4.8048055323E+00   -4.7904198876E+00   -4.7761201273E+00
   -4.7619054846E+00   -4.7477752019E+00   -4.7337285304E+00   -4.7197647302E+00
   -4.7058830699E+00   -4.6920828271E+00   -4.6783632875E+00   -4.6647237452E+00
   -4.6511635026E+00   -4.6376818702E+00   -4.6242781663E+00   -4.6109517172E+00
   -4.5977018569E+00   -4.5845279271E+00   -4.5714292769E+00   -4.5584052629E+00
   -4.5454552491E+00   -4.5325786064E+00   -4.5197747131E+00   -4.5070429545E+00
   -4.4943827226E+00   -4.4817934165E+00   -4.4692744416E+00   -4.4568252104E+00
   -4.4444451416E+00   -4.4321336604E+00   -4.4198901985E+00   -4.4077141937E+00
   -4.3956050901E+00   -4.3835623377E+00   -4.3715853927E+00   -4.3596737172E+00
   -4.3478267790E+00   -4.3360440520E+00   -4.3243250153E+00   -4.3126691541E+00
   -4.3010759588E+00   -4.2895449254E+00   -4.2780755553E+00   -4.2666673552E+00
   -4.2553198370E+00   -4.2440325179E+00   -4.2328049200E+00   -4.2216365707E+00
   -4.2105270021E+00   -4.1994757516E+00   -4.1884823609E+00   -4.1775463771E+00
   -4.1666673514E+00   -4.1558448402E+00   -4.1450784042E+00   -4.1343676087E+00
   -4.1237120235E+00   -4.1131112228E+00   -4.1025647852E+00   -4.0920722935E+00
   -4.0816333350E+00   -4.0712475009E+00   -4.0609143869E+00   -4.0506335923E+00
   -4.0404047210E+00   -4.0302273806E+00   -4.0201011825E+00   -4.0100257423E+00
   -4.0000006794E+00   -3.9900256167E+00   -3.9801001812E+00   -3.9702240035E+00
   -3.9603967177E+00   -3.9506179618E+00   -3.9408873770E+00   -3.9312046084E+00
   -3.9215693043E+00   -3.9119811167E+00   -3.9024397006E+00   -3.8929447149E+00
   -3.8834958213E+00   -3.8740926850E+00   -3.8647349745E+00   -3.8554223614E+00
   -3.8461545205E+00   -3.8369311297E+00   -3.8277518699E+00   -3.8186164252E+00