<UPF version="2.0.1">
  <PP_INFO>

 This pseudopotential file has been produced using the code
 ONCVPSP  (Optimized Norm-Conservinng Vanderbilt PSeudopotential)
 fully-relativistic version 3.3.1 12/12/2017 by D. R. Hamann
 The code is available through a link at URL www.mat-simresearch.com.
 Documentation with the package provides a full discription of the
 input data below.


 While it is not required under the terms of the GNU GPL, it is
 suggested that you cite D. R. Hamann, Phys. Rev. B 88, 085117 (2013)
 in any publication using these pseudopotentials.

    <PP_INPUTFILE>
# ATOM AND REFERENCE CONFIGURATION
# atsym  z   nc   nv     iexc    psfile
  F  9.00    1    2       3      upf
#
#   n    l    f        energy (Ha)
    1    0    2.00
    2    0    2.00
    2    1    5.00
#
# PSEUDOPOTENTIAL AND OPTIMIZATION
# lmax
    1
#
#   l,   rc,     ep,   ncon, nbas, qcut
    0   1.58478  -1.08946    5    8   8.73495
    1   1.66223  -0.41425    5    8   8.69707
#
# LOCAL POTENTIAL
# lloc, lpopt,  rc(5),   dvloc0
    4    5   0.97178      0.00000
#
# VANDERBILT-KLEINMAN-BYLANDER PROJECTORs
# l, nproj, debl
    0    2   1.51125
    1    2   1.53089
#
# MODEL CORE CHARGE
# icmod, fcfact, rcfact
    0   0.00000   0.00000
#
# LOG DERIVATIVE ANALYSIS
# epsh1, epsh2, depsh
   -5.00    3.00    0.02
#
# OUTPUT GRID
# rlmax, drl
    6.00    0.01
#
# TEST CONFIGURATIONS
# ncnf
    0
# nvcnf
#   n    l    f
    </PP_INPUTFILE>
  </PP_INFO>
  <!--                               -->
  <!-- END OF HUMAN READABLE SECTION -->
  <!--                               -->
    <PP_HEADER
       generated="Generated using ONCVPSP code by D. R. Hamann"
       author="anonymous"
       date="210904"
       comment=""
       element="F "
       pseudo_type="NC"
       relativistic="full"
       is_ultrasoft="F"
       is_paw="F"
       is_coulomb="F"
       has_so="T"
       has_wfc="F"
       has_gipaw="F"
       core_correction="F"
       functional="PZ"
       z_valence="    7.00"
       total_psenergy="  -4.73144324823E+01"
       rho_cutoff="   8.23000000000E+00"
       l_max="1"
       l_local="-1"
       mesh_size="   824"
       number_of_wfc="3"
       number_of_proj="6"/>
 <PP_MESH>
   <PP_R type="real"  size=" 824" columns="8">
    0.0000    0.0100    0.0200    0.0300    0.0400    0.0500    0.0600    0.0700
    0.0800    0.0900    0.1000    0.1100    0.1200    0.1300    0.1400    0.1500
    0.1600    0.1700    0.1800    0.1900    0.2000    0.2100    0.2200    0.2300
    0.2400    0.2500    0.2600    0.2700    0.2800    0.2900    0.3000    0.3100
    0.3200    0.3300    0.3400    0.3500    0.3600    0.3700    0.3800    0.3900
    0.4000    0.4100    0.4200    0.4300    0.4400    0.4500    0.4600    0.4700
    0.4800    0.4900    0.5000    0.5100    0.5200    0.5300    0.5400    0.5500
    0.5600    0.5700    0.5800    0.5900    0.6000    0.6100    0.6200    0.6300
    0.6400    0.6500    0.6600    0.6700    0.6800    0.6900    0.7000    0.7100
    0.7200    0.7300    0.7400    0.7500    0.7600    0.7700    0.7800    0.7900
    0.8000    0.8100    0.8200    0.8300    0.8400    0.8500    0.8600    0.8700
    0.8800    0.8900    0.9000    0.9100    0.9200    0.9300    0.9400    0.9500
    0.9600    0.9700    0.9800    0.9900    1.0000    1.0100    1.0200    1.0300
    1.0400    1.0500    1.0600    1.0700    1.0800    1.0900    1.1000    1.1100
    1.1200    1.1300    1.1400    1.1500    1.1600    1.1700    1.1800    1.1900
    1.2000    1.2100    1.2200    1.2300    1.2400    1.2500    1.2600    1.2700
    1.2800    1.2900    1.3000    1.3100    1.3200    1.3300    1.3400    1.3500
    1.3600    1.3700    1.3800    1.3900    1.4000    1.4100    1.4200    1.4300
    1.4400    1.4500    1.4600    1.4700    1.4800    1.4900    1.5000    1.5100
    1.5200    1.5300    1.5400    1.5500    1.5600    1.5700    1.5800    1.5900
    1.6000    1.6100    1.6200    1.6300    1.6400    1.6500    1.6600    1.6700
    1.6800    1.6900    1.7000    1.7100    1.7200    1.7300    1.7400    1.7500
    1.7600    1.7700    1.7800    1.7900    1.8000    1.8100    1.8200    1.8300
    1.8400    1.8500    1.8600    1.8700    1.8800    1.8900    1.9000    1.9100
    1.9200    1.9300    1.9400    1.9500    1.9600    1.9700    1.9800    1.9900
    2.0000    2.0100    2.0200    2.0300    2.0400    2.0500    2.0600    2.0700
    2.0800    2.0900    2.1000    2.1100    2.1200    2.1300    2.1400    2.1500
    2.1600    2.1700    2.1800    2.1900    2.2000    2.2100    2.2200    2.2300
    2.2400    2.2500    2.2600    2.2700    2.2800    2.2900    2.3000    2.3100
    2.3200    2.3300    2.3400    2.3500    2.3600    2.3700    2.3800    2.3900
    2.4000    2.4100    2.4200    2.4300    2.4400    2.4500    2.4600    2.4700
    2.4800    2.4900    2.5000    2.5100    2.5200    2.5300    2.5400    2.5500
    2.5600    2.5700    2.5800    2.5900    2.6000    2.6100    2.6200    2.6300
    2.6400    2.6500    2.6600    2.6700    2.6800    2.6900    2.7000    2.7100
    2.7200    2.7300    2.7400    2.7500    2.7600    2.7700    2.7800    2.7900
    2.8000    2.8100    2.8200    2.8300    2.8400    2.8500    2.8600    2.8700
    2.8800    2.8900    2.9000    2.9100    2.9200    2.9300    2.9400    2.9500
    2.9600    2.9700    2.9800    2.9900    3.0000    3.0100    3.0200    3.0300
    3.0400    3.0500    3.0600    3.0700    3.0800    3.0900    3.1000    3.1100
    3.1200    3.1300    3.1400    3.1500    3.1600    3.1700    3.1800    3.1900
    3.2000    3.2100    3.2200    3.2300    3.2400    3.2500    3.2600    3.2700
    3.2800    3.2900    3.3000    3.3100    3.3200    3.3300    3.3400    3.3500
    3.3600    3.3700    3.3800    3.3900    3.4000    3.4100    3.4200    3.4300
    3.4400    3.4500    3.4600    3.4700    3.4800    3.4900    3.5000    3.5100
    3.5200    3.5300    3.5400    3.5500    3.5600    3.5700    3.5800    3.5900
    3.6000    3.6100    3.6200    3.6300    3.6400    3.6500    3.6600    3.6700
    3.6800    3.6900    3.7000    3.7100    3.7200    3.7300    3.7400    3.7500
    3.7600    3.7700    3.7800    3.7900    3.8000    3.8100    3.8200    3.8300
    3.8400    3.8500    3.8600    3.8700    3.8800    3.8900    3.9000    3.9100
    3.9200    3.9300    3.9400    3.9500    3.9600    3.9700    3.9800    3.9900
    4.0000    4.0100    4.0200    4.0300    4.0400    4.0500    4.0600    4.0700
    4.0800    4.0900    4.1000    4.1100    4.1200    4.1300    4.1400    4.1500
    4.1600    4.1700    4.1800    4.1900    4.2000    4.2100    4.2200    4.2300
    4.2400    4.2500    4.2600    4.2700    4.2800    4.2900    4.3000    4.3100
    4.3200    4.3300    4.3400    4.3500    4.3600    4.3700    4.3800    4.3900
    4.4000    4.4100    4.4200    4.4300    4.4400    4.4500    4.4600    4.4700
    4.4800    4.4900    4.5000    4.5100    4.5200    4.5300    4.5400    4.5500
    4.5600    4.5700    4.5800    4.5900    4.6000    4.6100    4.6200    4.6300
    4.6400    4.6500    4.6600    4.6700    4.6800    4.6900    4.7000    4.7100
    4.7200    4.7300    4.7400    4.7500    4.7600    4.7700    4.7800    4.7900
    4.8000    4.8100    4.8200    4.8300    4.8400    4.8500    4.8600    4.8700
    4.8800    4.8900    4.9000    4.9100    4.9200    4.9300    4.9400    4.9500
    4.9600    4.9700    4.9800    4.9900    5.0000    5.0100    5.0200    5.0300
    5.0400    5.0500    5.0600    5.0700    5.0800    5.0900    5.1000    5.1100
    5.1200    5.1300    5.1400    5.1500    5.1600    5.1700    5.1800    5.1900
    5.2000    5.2100    5.2200    5.2300    5.2400    5.2500    5.2600    5.2700
    5.2800    5.2900    5.3000    5.3100    5.3200    5.3300    5.3400    5.3500
    5.3600    5.3700    5.3800    5.3900    5.4000    5.4100    5.4200    5.4300
    5.4400    5.4500    5.4600    5.4700    5.4800    5.4900    5.5000    5.5100
    5.5200    5.5300    5.5400    5.5500    5.5600    5.5700    5.5800    5.5900
    5.6000    5.6100    5.6200    5.6300    5.6400    5.6500    5.6600    5.6700
    5.6800    5.6900    5.7000    5.7100    5.7200    5.7300    5.7400    5.7500
    5.7600    5.7700    5.7800    5.7900    5.8000    5.8100    5.8200    5.8300
    5.8400    5.8500    5.8600    5.8700    5.8800    5.8900    5.9000    5.9100
    5.9200    5.9300    5.9400    5.9500    5.9600    5.9700    5.9800    5.9900
    6.0000    6.0100    6.0200    6.0300    6.0400    6.0500    6.0600    6.0700
    6.0800    6.0900    6.1000    6.1100    6.1200    6.1300    6.1400    6.1500
    6.1600    6.1700    6.1800    6.1900    6.2000    6.2100    6.2200    6.2300
    6.2400    6.2500    6.2600    6.2700    6.2800    6.2900    6.3000    6.3100
    6.3200    6.3300    6.3400    6.3500    6.3600    6.3700    6.3800    6.3900
    6.4000    6.4100    6.4200    6.4300    6.4400    6.4500    6.4600    6.4700
    6.4800    6.4900    6.5000    6.5100    6.5200    6.5300    6.5400    6.5500
    6.5600    6.5700    6.5800    6.5900    6.6000    6.6100    6.6200    6.6300
    6.6400    6.6500    6.6600    6.6700    6.6800    6.6900    6.7000    6.7100
    6.7200    6.7300    6.7400    6.7500    6.7600    6.7700    6.7800    6.7900
    6.8000    6.8100    6.8200    6.8300    6.8400    6.8500    6.8600    6.8700
    6.8800    6.8900    6.9000    6.9100    6.9200    6.9300    6.9400    6.9500
    6.9600    6.9700    6.9800    6.9900    7.0000    7.0100    7.0200    7.0300
    7.0400    7.0500    7.0600    7.0700    7.0800    7.0900    7.1000    7.1100
    7.1200    7.1300    7.1400    7.1500    7.1600    7.1700    7.1800    7.1900
    7.2000    7.2100    7.2200    7.2300    7.2400    7.2500    7.2600    7.2700
    7.2800    7.2900    7.3000    7.3100    7.3200    7.3300    7.3400    7.3500
    7.3600    7.3700    7.3800    7.3900    7.4000    7.4100    7.4200    7.4300
    7.4400    7.4500    7.4600    7.4700    7.4800    7.4900    7.5000    7.5100
    7.5200    7.5300    7.5400    7.5500    7.5600    7.5700    7.5800    7.5900
    7.6000    7.6100    7.6200    7.6300    7.6400    7.6500    7.6600    7.6700
    7.6800    7.6900    7.7000    7.7100    7.7200    7.7300    7.7400    7.7500
    7.7600    7.7700    7.7800    7.7900    7.8000    7.8100    7.8200    7.8300
    7.8400    7.8500    7.8600    7.8700    7.8800    7.8900    7.9000    7.9100
    7.9200    7.9300    7.9400    7.9500    7.9600    7.9700    7.9800    7.9900
    8.0000    8.0100    8.0200    8.0300    8.0400    8.0500    8.0600    8.0700
    8.0800    8.0900    8.1000    8.1100    8.1200    8.1300    8.1400    8.1500
    8.1600    8.1700    8.1800    8.1900    8.2000    8.2100    8.2200    8.2300
   </PP_R>
   <PP_RAB type="real"  size=" 824" columns="8">
    0.0100    0.0100    0.0100    0.0100    0.0100    0.0100    0.0100    0.0100
    0.0100    0.0100    0.0100    0.0100    0.0100    0.0100    0.0100    0.0100
    0.0100    0.0100    0.0100    0.0100    0.0100    0.0100    0.0100    0.0100
    0.0100    0.0100    0.0100    0.0100    0.0100    0.0100    0.0100    0.0100
    0.0100    0.0100    0.0100    0.0100    0.0100    0.0100    0.0100    0.0100
    0.0100    0.0100    0.0100    0.0100    0.0100    0.0100    0.0100    0.0100
    0.0100    0.0100    0.0100    0.0100    0.0100    0.0100    0.0100    0.0100
    0.0100    0.0100    0.0100    0.0100    0.0100    0.0100    0.0100    0.0100
    0.0100    0.0100    0.0100    0.0100    0.0100    0.0100    0.0100    0.0100
    0.0100    0.0100    0.0100    0.0100    0.0100    0.0100    0.0100    0.0100
    0.0100    0.0100    0.0100    0.0100    0.0100    0.0100    0.0100    0.0100
    0.0100    0.0100    0.0100    0.0100    0.0100    0.0100    0.0100    0.0100
    0.0100    0.0100    0.0100    0.0100    0.0100    0.0100    0.0100    0.0100
    0.0100    0.0100    0.0100    0.0100    0.0100    0.0100    0.0100    0.0100
    0.0100    0.0100    0.0100    0.0100    0.0100    0.0100    0.0100    0.0100
    0.0100    0.0100    0.0100    0.0100    0.0100    0.0100    0.0100    0.0100
    0.0100    0.0100    0.0100    0.0100    0.0100    0.0100    0.0100    0.0100
    0.0100    0.0100    0.0100    0.0100    0.0100    0.0100    0.0100    0.0100
    0.0100    0.0100    0.0100    0.0100    0.0100    0.0100    0.0100    0.0100
    0.0100    0.0100    0.0100    0.0100    0.0100    0.0100    0.0100    0.0100
    0.0100    0.0100    0.0100    0.0100    0.0100    0.0100    0.0100    0.0100
    0.0100    0.0100    0.0100    0.0100    0.0100    0.0100    0.0100    0.0100
    0.0100    0.0100    0.0100    0.0100    0.0100    0.0100    0.0100    0.0100
    0.0100    0.0100    0.0100    0.0100    0.0100    0.0100    0.0100    0.0100
    0.0100    0.0100    0.0100    0.0100    0.0100    0.0100    0.0100    0.0100
    0.0100    0.0100    0.0100    0.0100    0.0100    0.0100    0.0100    0.0100
    0.0100    0.0100    0.0100    0.0100    0.0100    0.0100    0.0100    0.0100
    0.0100    0.0100    0.0100    0.0100    0.0100    0.0100    0.0100    0.0100
    0.0100    0.0100    0.0100    0.0100    0.0100    0.0100    0.0100    0.0100
    0.0100    0.0100    0.0100    0.0100    0.0100    0.0100    0.0100    0.0100
    0.0100    0.0100    0.0100    0.0100    0.0100    0.0100    0.0100    0.0100
    0.0100    0.0100    0.0100    0.0100    0.0100    0.0100    0.0100    0.0100
    0.0100    0.0100    0.0100    0.0100    0.0100    0.0100    0.0100    0.0100
    0.0100    0.0100    0.0100    0.0100    0.0100    0.0100    0.0100    0.0100
    0.0100    0.0100    0.0100    0.0100    0.0100    0.0100    0.0100    0.0100
    0.0100    0.0100    0.0100    0.0100    0.0100    0.0100    0.0100    0.0100
    0.0100    0.0100    0.0100    0.0100    0.0100    0.0100    0.0100    0.0100
    0.0100    0.0100    0.0100    0.0100    0.0100    0.0100    0.0100    0.0100
    0.0100    0.0100    0.0100    0.0100    0.0100    0.0100    0.0100    0.0100
    0.0100    0.0100    0.0100    0.0100    0.0100    0.0100    0.0100    0.0100
    0.0100    0.0100    0.0100    0.0100    0.0100    0.0100    0.0100    0.0100
    0.0100    0.0100    0.0100    0.0100    0.0100    0.0100    0.0100    0.0100
    0.0100    0.0100    0.0100    0.0100    0.0100    0.0100    0.0100    0.0100
    0.0100    0.0100    0.0100    0.0100    0.0100    0.0100    0.0100    0.0100
    0.0100    0.0100    0.0100    0.0100    0.0100    0.0100    0.0100    0.0100
    0.0100    0.0100    0.0100    0.0100    0.0100    0.0100    0.0100    0.0100
    0.0100    0.0100    0.0100    0.0100    0.0100    0.0100    0.0100    0.0100
    0.0100    0.0100    0.0100    0.0100    0.0100    0.0100    0.0100    0.0100
    0.0100    0.0100    0.0100    0.0100    0.0100    0.0100    0.0100    0.0100
    0.0100    0.0100    0.0100    0.0100    0.0100    0.0100    0.0100    0.0100
    0.0100    0.0100    0.0100    0.0100    0.0100    0.0100    0.0100    0.0100
    0.0100    0.0100    0.0100    0.0100    0.0100    0.0100    0.0100    0.0100
    0.0100    0.0100    0.0100    0.0100    0.0100    0.0100    0.0100    0.0100
    0.0100    0.0100    0.0100    0.0100    0.0100    0.0100    0.0100    0.0100
    0.0100    0.0100    0.0100    0.0100    0.0100    0.0100    0.0100    0.0100
    0.0100    0.0100    0.0100    0.0100    0.0100    0.0100    0.0100    0.0100
    0.0100    0.0100    0.0100    0.0100    0.0100    0.0100    0.0100    0.0100
    0.0100    0.0100    0.0100    0.0100    0.0100    0.0100    0.0100    0.0100
    0.0100    0.0100    0.0100    0.0100    0.0100    0.0100    0.0100    0.0100
    0.0100    0.0100    0.0100    0.0100    0.0100    0.0100    0.0100    0.0100
    0.0100    0.0100    0.0100    0.0100    0.0100    0.0100    0.0100    0.0100
    0.0100    0.0100    0.0100    0.0100    0.0100    0.0100    0.0100    0.0100
    0.0100    0.0100    0.0100    0.0100    0.0100    0.0100    0.0100    0.0100
    0.0100    0.0100    0.0100    0.0100    0.0100    0.0100    0.0100    0.0100
    0.0100    0.0100    0.0100    0.0100    0.0100    0.0100    0.0100    0.0100
    0.0100    0.0100    0.0100    0.0100    0.0100    0.0100    0.0100    0.0100
    0.0100    0.0100    0.0100    0.0100    0.0100    0.0100    0.0100    0.0100
    0.0100    0.0100    0.0100    0.0100    0.0100    0.0100    0.0100    0.0100
    0.0100    0.0100    0.0100    0.0100    0.0100    0.0100    0.0100    0.0100
    0.0100    0.0100    0.0100    0.0100    0.0100    0.0100    0.0100    0.0100
    0.0100    0.0100    0.0100    0.0100    0.0100    0.0100    0.0100    0.0100
    0.0100    0.0100    0.0100    0.0100    0.0100    0.0100    0.0100    0.0100
    0.0100    0.0100    0.0100    0.0100    0.0100    0.0100    0.0100    0.0100
    0.0100    0.0100    0.0100    0.0100    0.0100    0.0100    0.0100    0.0100
    0.0100    0.0100    0.0100    0.0100    0.0100    0.0100    0.0100    0.0100
    0.0100    0.0100    0.0100    0.0100    0.0100    0.0100    0.0100    0.0100
    0.0100    0.0100    0.0100    0.0100    0.0100    0.0100    0.0100    0.0100
    0.0100    0.0100    0.0100    0.0100    0.0100    0.0100    0.0100    0.0100
    0.0100    0.0100    0.0100    0.0100    0.0100    0.0100    0.0100    0.0100
    0.0100    0.0100    0.0100    0.0100    0.0100    0.0100    0.0100    0.0100
    0.0100    0.0100    0.0100    0.0100    0.0100    0.0100    0.0100    0.0100
    0.0100    0.0100    0.0100    0.0100    0.0100    0.0100    0.0100    0.0100
    0.0100    0.0100    0.0100    0.0100    0.0100    0.0100    0.0100    0.0100
    0.0100    0.0100    0.0100    0.0100    0.0100    0.0100    0.0100    0.0100
    0.0100    0.0100    0.0100    0.0100    0.0100    0.0100    0.0100    0.0100
    0.0100    0.0100    0.0100    0.0100    0.0100    0.0100    0.0100    0.0100
    0.0100    0.0100    0.0100    0.0100    0.0100    0.0100    0.0100    0.0100
    0.0100    0.0100    0.0100    0.0100    0.0100    0.0100    0.0100    0.0100
    0.0100    0.0100    0.0100    0.0100    0.0100    0.0100    0.0100    0.0100
    0.0100    0.0100    0.0100    0.0100    0.0100    0.0100    0.0100    0.0100
    0.0100    0.0100    0.0100    0.0100    0.0100    0.0100    0.0100    0.0100
    0.0100    0.0100    0.0100    0.0100    0.0100    0.0100    0.0100    0.0100
    0.0100    0.0100    0.0100    0.0100    0.0100    0.0100    0.0100    0.0100
    0.0100    0.0100    0.0100    0.0100    0.0100    0.0100    0.0100    0.0100
    0.0100    0.0100    0.0100    0.0100    0.0100    0.0100    0.0100    0.0100
    0.0100    0.0100    0.0100    0.0100    0.0100    0.0100    0.0100    0.0100
    0.0100    0.0100    0.0100    0.0100    0.0100    0.0100    0.0100    0.0100
    0.0100    0.0100    0.0100    0.0100    0.0100    0.0100    0.0100    0.0100
    0.0100    0.0100    0.0100    0.0100    0.0100    0.0100    0.0100    0.0100
    0.0100    0.0100    0.0100    0.0100    0.0100    0.0100    0.0100    0.0100
    0.0100    0.0100    0.0100    0.0100    0.0100    0.0100    0.0100    0.0100
    0.0100    0.0100    0.0100    0.0100    0.0100    0.0100    0.0100    0.0100
    0.0100    0.0100    0.0100    0.0100    0.0100    0.0100    0.0100    0.0100
   </PP_RAB>
 </PP_MESH>
  <PP_LOCAL type="real"  size=" 824" columns="4">
   -3.0995592195E+01   -3.0991833771E+01   -3.0980570867E+01   -3.0961840313E+01
   -3.0935702197E+01   -3.0902238064E+01   -3.0861548577E+01   -3.0813750790E+01
   -3.0758975233E+01   -3.0697362944E+01   -3.0629062624E+01   -3.0554227993E+01
   -3.0473015463E+01   -3.0385582149E+01   -3.0292084251E+01   -3.0192675803E+01
   -3.0087507747E+01   -2.9976727328E+01   -2.9860477736E+01   -2.9738897984E+01
   -2.9612122952E+01   -2.9480283578E+01   -2.9343507155E+01   -2.9201917695E+01
   -2.9055636353E+01   -2.8904781879E+01   -2.8749471073E+01   -2.8589819254E+01
   -2.8425940710E+01   -2.8257949130E+01   -2.8085958016E+01   -2.7910081065E+01
   -2.7730432522E+01   -2.7547127503E+01   -2.7360282275E+01   -2.7170014520E+01
   -2.6976443551E+01   -2.6779690500E+01   -2.6579878478E+01   -2.6377132700E+01
   -2.6171580579E+01   -2.5963351792E+01   -2.5752578322E+01   -2.5539394465E+01
   -2.5323936822E+01   -2.5106344254E+01   -2.4886757828E+01   -2.4665320726E+01
   -2.4442178149E+01   -2.4217477189E+01   -2.3991366686E+01   -2.3763997076E+01
   -2.3535520211E+01   -2.3306089171E+01   -2.3075858064E+01   -2.2844981809E+01
   -2.2613615908E+01   -2.2381916216E+01   -2.2150038688E+01   -2.1918139129E+01
   -2.1686372935E+01   -2.1454894820E+01   -2.1223858550E+01   -2.0993416661E+01
   -2.0763720179E+01   -2.0534918338E+01   -2.0307158291E+01   -2.0080584823E+01
   -1.9855340061E+01   -1.9631563184E+01   -1.9409390135E+01   -1.9188953326E+01
   -1.8970381354E+01   -1.8753798708E+01   -1.8539325484E+01   -1.8327077097E+01
   -1.8117163999E+01   -1.7909691391E+01   -1.7704758947E+01   -1.7502460529E+01
   -1.7302883912E+01   -1.7106110505E+01   -1.6912215077E+01   -1.6721265481E+01
   -1.6533322380E+01   -1.6348438980E+01   -1.6166660751E+01   -1.5988025160E+01
   -1.5812561402E+01   -1.5640290122E+01   -1.5471223152E+01   -1.5305363231E+01
   -1.5142703739E+01   -1.4983228418E+01   -1.4826911099E+01   -1.4673715422E+01
   -1.4523594562E+01   -1.4376490932E+01   -1.4232336008E+01   -1.4091049677E+01
   -1.3952545353E+01   -1.3816737196E+01   -1.3683543317E+01   -1.3552884990E+01
   -1.3424686661E+01   -1.3298875802E+01   -1.3175382773E+01   -1.3054140704E+01
   -1.2935085369E+01   -1.2818155080E+01   -1.2703290575E+01   -1.2590434918E+01
   -1.2479533400E+01   -1.2370533332E+01   -1.2263385544E+01   -1.2158036431E+01
   -1.2054443658E+01   -1.1952601187E+01   -1.1852412844E+01   -1.1753806898E+01
   -1.1656800077E+01   -1.1561346511E+01   -1.1467400598E+01   -1.1374930263E+01
   -1.1283900650E+01   -1.1194278505E+01   -1.1106031842E+01   -1.1019129772E+01
   -1.0933542468E+01   -1.0849241113E+01   -1.0766197850E+01   -1.0684385733E+01
   -1.0603778678E+01   -1.0524351418E+01   -1.0446079460E+01   -1.0368939045E+01
   -1.0292907108E+01   -1.0217961239E+01   -1.0144079653E+01   -1.0071241152E+01
   -9.9994250974E+00   -9.9286113819E+00   -9.8587804005E+00   -9.7899130273E+00
   -9.7219905928E+00   -9.6549948632E+00   -9.5889080211E+00   -9.5237126488E+00
   -9.4593917128E+00   -9.3959285498E+00   -9.3333068545E+00   -9.2715106687E+00
   -9.2105243715E+00   -9.1503326714E+00   -9.0909205982E+00   -9.0322734970E+00
   -8.9743770228E+00   -8.9172171354E+00   -8.8607800952E+00   -8.8050524593E+00
   -8.7500210784E+00   -8.6956730933E+00   -8.6419959321E+00   -8.5889773069E+00
   -8.5366052099E+00   -8.4848679100E+00   -8.4337539479E+00   -8.3832521321E+00
   -8.3333515333E+00   -8.2840414793E+00   -8.2353115487E+00   -8.1871515643E+00
   -8.1395515852E+00   -8.0925019008E+00   -8.0459930231E+00   -8.0000156808E+00
   -7.9545608135E+00   -7.9096195657E+00   -7.8651832806E+00   -7.8212434951E+00
   -7.7777919340E+00   -7.7348205051E+00   -7.6923212941E+00   -7.6502865595E+00
   -7.6087087283E+00   -7.5675803910E+00   -7.5268942978E+00   -7.4866433536E+00
   -7.4468206146E+00   -7.4074192837E+00   -7.3684327070E+00   -7.3298543700E+00
   -7.2916778938E+00   -7.2538970319E+00   -7.2165056664E+00   -7.1794978049E+00
   -7.1428675775E+00   -7.1066092334E+00   -7.0707171377E+00   -7.0351857693E+00
   -7.0000097170E+00   -6.9651836776E+00   -6.9307024528E+00   -6.8965609468E+00
   -6.8627541637E+00   -6.8292772050E+00   -6.7961252674E+00   -6.7632936404E+00
   -6.7307777042E+00   -6.6985729271E+00   -6.6666748641E+00   -6.6350791542E+00
   -6.6037815188E+00   -6.5727777597E+00   -6.5420637570E+00   -6.5116354675E+00
   -6.4814889231E+00   -6.4516202285E+00   -6.4220255601E+00   -6.3927011642E+00
   -6.3636433550E+00   -6.3348485139E+00   -6.3063130871E+00   -6.2780335847E+00
   -6.2500065791E+00   -6.2222287037E+00   -6.1946966514E+00   -6.1674071734E+00
   -6.1403570780E+00   -6.1135432291E+00   -6.0869625451E+00   -6.0606119980E+00
   -6.0344886118E+00   -6.0085894617E+00   -5.9829116728E+00   -5.9574524192E+00
   -5.9322089230E+00   -5.9071784529E+00   -5.8823583238E+00   -5.8577458954E+00
   -5.8333385714E+00   -5.8091337986E+00   -5.7851290661E+00   -5.7613219042E+00
   -5.7377098836E+00   -5.7142906151E+00   -5.6910617477E+00   -5.6680209691E+00
   -5.6451660039E+00   -5.6224946134E+00   -5.6000045947E+00   -5.5776937800E+00
   -5.5555600358E+00   -5.5336012625E+00   -5.5118153936E+00   -5.4902003948E+00
   -5.4687542638E+00   -5.4474750292E+00   -5.4263607506E+00   -5.4054095170E+00
   -5.3846194473E+00   -5.3639886890E+00   -5.3435154179E+00   -5.3231978376E+00
   -5.3030341787E+00   -5.2830226989E+00   -5.2631616818E+00   -5.2434494368E+00
   -5.2238842986E+00   -5.2044646264E+00   -5.1851888041E+00   -5.1660552392E+00
   -5.1470623627E+00   -5.1282086285E+00   -5.1094925131E+00   -5.0909125153E+00
   -5.0724671556E+00   -5.0541549757E+00   -5.0359745384E+00   -5.0179244272E+00
   -5.0000032457E+00   -4.9822096174E+00   -4.9645421854E+00   -4.9469996118E+00
   -4.9295805778E+00   -4.9122837829E+00   -4.8951079449E+00   -4.8780517995E+00
   -4.8611140998E+00   -4.8442936162E+00   -4.8275891363E+00   -4.8109994640E+00
   -4.7945234199E+00   -4.7781598405E+00   -4.7619075782E+00   -4.7457655010E+00
   -4.7297324921E+00   -4.7138074498E+00   -4.6979892873E+00   -4.6822769320E+00
   -4.6666693260E+00   -4.6511654253E+00   -4.6357641995E+00   -4.6204646323E+00
   -4.6052657203E+00   -4.5901664734E+00   -4.5751659147E+00   -4.5602630796E+00
   -4.5454570164E+00   -4.5307467855E+00   -4.5161314595E+00   -4.5016101229E+00
   -4.4871818719E+00   -4.4728458144E+00   -4.4586010696E+00   -4.4444467677E+00
   -4.4303820502E+00   -4.4164060692E+00   -4.4025179876E+00   -4.3887169788E+00
   -4.3750022264E+00   -4.3613729243E+00   -4.3478282764E+00   -4.3343674965E+00
   -4.3209898079E+00   -4.3076944437E+00   -4.2944806462E+00   -4.2813476672E+00
   -4.2682947675E+00   -4.2553212169E+00   -4.2424262939E+00   -4.2296092860E+00
   -4.2168694891E+00   -4.2042062076E+00   -4.1916187543E+00   -4.1791064500E+00
   -4.1666686239E+00   -4.1543046128E+00   -4.1420137617E+00   -4.1297954230E+00
   -4.1176489571E+00   -4.1055737315E+00   -4.0935691214E+00   -4.0816345091E+00
   -4.0697692841E+00   -4.0579728432E+00   -4.0462445898E+00   -4.0345839346E+00
   -4.0229902947E+00   -4.0114630941E+00   -4.0000017633E+00   -3.9886057393E+00
   -3.9772744655E+00   -3.9660073916E+00   -3.9548039736E+00   -3.9436636735E+00
   -3.9325859595E+00   -3.9215703055E+00   -3.9106161916E+00   -3.8997231034E+00
   -3.8888905325E+00   -3.8781179759E+00   -3.8674049362E+00   -3.8567509217E+00
   -3.8461554457E+00   -3.8356180272E+00   -3.8251381902E+00   -3.8147154642E+00
   -3.8043493835E+00   -3.7940394875E+00   -3.7837853208E+00   -3.7735864327E+00
   -3.7634423773E+00   -3.7533527137E+00   -3.7433170056E+00   -3.7333348213E+00
   -3.7234057338E+00   -3.7135293206E+00   -3.7037051635E+00   -3.6939328490E+00
   -3.6842119678E+00   -3.6745421149E+00   -3.6649228896E+00   -3.6553538952E+00
   -3.6458347394E+00   -3.6363650338E+00   -3.6269443940E+00   -3.6175724398E+00
   -3.6082487947E+00   -3.5989730861E+00   -3.5897449452E+00   -3.5805640072E+00
   -3.5714299107E+00   -3.5623422983E+00   -3.5533008158E+00   -3.5443051131E+00
   -3.5353548432E+00   -3.5264496629E+00   -3.5175892323E+00   -3.5087732149E+00
   -3.5000012776E+00   -3.4912730907E+00   -3.4825883276E+00   -3.4739466651E+00
   -3.4653477832E+00   -3.4567913649E+00   -3.4482770964E+00   -3.4398046672E+00
   -3.4313737695E+00   -3.4229840987E+00   -3.4146353532E+00   -3.4063272342E+00
   -3.3980594458E+00   -3.3898316953E+00   -3.3816436923E+00   -3.3734951497E+00
   -3.3653857827E+00   -3.3573153096E+00   -3.3492834513E+00   -3.3412899312E+00
   -3.3333344754E+00   -3.3254168129E+00   -3.3175366749E+00   -3.3096937952E+00
   -3.3018879102E+00   -3.2941187589E+00   -3.2863860824E+00   -3.2786896246E+00
   -3.2710291316E+00   -3.2634043518E+00   -3.2558150362E+00   -3.2482609378E+00
   -3.2407418122E+00   -3.2332574169E+00   -3.2258075119E+00   -3.2183918594E+00
   -3.2110102237E+00   -3.2036623712E+00   -3.1963480705E+00   -3.1890670925E+00
   -3.1818192098E+00   -3.1746041973E+00   -3.1674218320E+00   -3.1602718927E+00
   -3.1531541604E+00   -3.1460684179E+00   -3.1390144500E+00   -3.1319920435E+00
   -3.1250009871E+00   -3.1180410713E+00   -3.1111120884E+00   -3.1042138327E+00
   -3.0973461003E+00   -3.0905086891E+00   -3.0837013986E+00   -3.0769240302E+00
   -3.0701763872E+00   -3.0634582744E+00   -3.0567694983E+00   -3.0501098672E+00
   -3.0434791910E+00   -3.0368772814E+00   -3.0303039515E+00   -3.0237590160E+00
   -3.0172422916E+00   -3.0107535960E+00   -3.0042927490E+00   -2.9978595715E+00
   -2.9914538863E+00   -2.9850755174E+00   -2.9787242905E+00   -2.9724000328E+00
   -2.9661025728E+00   -2.9598317405E+00   -2.9535873674E+00   -2.9473692864E+00
   -2.9411773319E+00   -2.9350113394E+00   -2.9288711461E+00   -2.9227565903E+00
   -2.9166675119E+00   -2.9106037518E+00   -2.9045651526E+00   -2.8985515580E+00
   -2.8925628130E+00   -2.8865987638E+00   -2.8806592580E+00   -2.8747441445E+00
   -2.8688532732E+00   -2.8629864955E+00   -2.8571436638E+00   -2.8513246319E+00
   -2.8455292545E+00   -2.8397573879E+00   -2.8340088891E+00   -2.8282836166E+00
   -2.8225814298E+00   -2.8169021895E+00   -2.8112457574E+00   -2.8056119964E+00
   -2.8000007704E+00   -2.7944119446E+00   -2.7888453850E+00   -2.7833009588E+00
   -2.7777785343E+00   -2.7722779808E+00   -2.7667991687E+00   -2.7613419692E+00
   -2.7559062548E+00   -2.7504918987E+00   -2.7450987755E+00   -2.7397267604E+00
   -2.7343757297E+00   -2.7290455607E+00   -2.7237361317E+00   -2.7184473218E+00
   -2.7131790113E+00   -2.7079310810E+00   -2.7027034130E+00   -2.6974958902E+00
   -2.6923083963E+00   -2.6871408160E+00   -2.6819930349E+00   -2.6768649394E+00
   -2.6717564168E+00   -2.6666673552E+00   -2.6615976437E+00   -2.6565471720E+00
   -2.6515158309E+00   -2.6465035120E+00   -2.6415101074E+00   -2.6365355104E+00
   -2.6315796149E+00   -2.6266423156E+00   -2.6217235081E+00   -2.6168230887E+00