<UPF version="2.0.1">
  <PP_INFO>

 This pseudopotential file has been produced using the code
 ONCVPSP  (Optimized Norm-Conservinng Vanderbilt PSeudopotential)
 fully-relativistic version 3.3.1 12/12/2017 by D. R. Hamann
 The code is available through a link at URL www.mat-simresearch.com.
 Documentation with the package provides a full discription of the
 input data below.


 While it is not required under the terms of the GNU GPL, it is
 suggested that you cite D. R. Hamann, Phys. Rev. B 88, 085117 (2013)
 in any publication using these pseudopotentials.

    <PP_INPUTFILE>
# ATOM AND REFERENCE CONFIGURATION
# atsym  z   nc   nv     iexc    psfile
  Ne 10.00    1    2       3      upf
#
#   n    l    f        energy (Ha)
    1    0    2.00
    2    0    2.00
    2    1    6.00
#
# PSEUDOPOTENTIAL AND OPTIMIZATION
# lmax
    1
#
#   l,   rc,     ep,   ncon, nbas, qcut
    0   2.62070  -1.32703    5    8   7.96858
    1   2.65215  -0.49597    5    8   6.60628
#
# LOCAL POTENTIAL
# lloc, lpopt,  rc(5),   dvloc0
    4    5   2.62070      0.00000
#
# VANDERBILT-KLEINMAN-BYLANDER PROJECTORs
# l, nproj, debl
    0    2   1.54861
    1    2   1.10873
#
# MODEL CORE CHARGE
# icmod, fcfact, rcfact
    0   0.00000   0.00000
#
# LOG DERIVATIVE ANALYSIS
# epsh1, epsh2, depsh
   -5.00    3.00    0.02
#
# OUTPUT GRID
# rlmax, drl
    6.00    0.01
#
# TEST CONFIGURATIONS
# ncnf
    0
# nvcnf
#   n    l    f
    </PP_INPUTFILE>
  </PP_INFO>
  <!--                               -->
  <!-- END OF HUMAN READABLE SECTION -->
  <!--                               -->
    <PP_HEADER
       generated="Generated using ONCVPSP code by D. R. Hamann"
       author="anonymous"
       date="210904"
       comment=""
       element="Ne"
       pseudo_type="NC"
       relativistic="full"
       is_ultrasoft="F"
       is_paw="F"
       is_coulomb="F"
       has_so="T"
       has_wfc="F"
       has_gipaw="F"
       core_correction="F"
       functional="PZ"
       z_valence="    8.00"
       total_psenergy="  -6.06864351186E+01"
       rho_cutoff="   7.49000000000E+00"
       l_max="1"
       l_local="-1"
       mesh_size="   750"
       number_of_wfc="3"
       number_of_proj="6"/>
 <PP_MESH>
   <PP_R type="real"  size=" 750" columns="8">
    0.0000    0.0100    0.0200    0.0300    0.0400    0.0500    0.0600    0.0700
    0.0800    0.0900    0.1000    0.1100    0.1200    0.1300    0.1400    0.1500
    0.1600    0.1700    0.1800    0.1900    0.2000    0.2100    0.2200    0.2300
    0.2400    0.2500    0.2600    0.2700    0.2800    0.2900    0.3000    0.3100
    0.3200    0.3300    0.3400    0.3500    0.3600    0.3700    0.3800    0.3900
    0.4000    0.4100    0.4200    0.4300    0.4400    0.4500    0.4600    0.4700
    0.4800    0.4900    0.5000    0.5100    0.5200    0.5300    0.5400    0.5500
    0.5600    0.5700    0.5800    0.5900    0.6000    0.6100    0.6200    0.6300
    0.6400    0.6500    0.6600    0.6700    0.6800    0.6900    0.7000    0.7100
    0.7200    0.7300    0.7400    0.7500    0.7600    0.7700    0.7800    0.7900
    0.8000    0.8100    0.8200    0.8300    0.8400    0.8500    0.8600    0.8700
    0.8800    0.8900    0.9000    0.9100    0.9200    0.9300    0.9400    0.9500
    0.9600    0.9700    0.9800    0.9900    1.0000    1.0100    1.0200    1.0300
    1.0400    1.0500    1.0600    1.0700    1.0800    1.0900    1.1000    1.1100
    1.1200    1.1300    1.1400    1.1500    1.1600    1.1700    1.1800    1.1900
    1.2000    1.2100    1.2200    1.2300    1.2400    1.2500    1.2600    1.2700
    1.2800    1.2900    1.3000    1.3100    1.3200    1.3300    1.3400    1.3500
    1.3600    1.3700    1.3800    1.3900    1.4000    1.4100    1.4200    1.4300
    1.4400    1.4500    1.4600    1.4700    1.4800    1.4900    1.5000    1.5100
    1.5200    1.5300    1.5400    1.5500    1.5600    1.5700    1.5800    1.5900
    1.6000    1.6100    1.6200    1.6300    1.6400    1.6500    1.6600    1.6700
    1.6800    1.6900    1.7000    1.7100    1.7200    1.7300    1.7400    1.7500
    1.7600    1.7700    1.7800    1.7900    1.8000    1.8100    1.8200    1.8300
    1.8400    1.8500    1.8600    1.8700    1.8800    1.8900    1.9000    1.9100
    1.9200    1.9300    1.9400    1.9500    1.9600    1.9700    1.9800    1.9900
    2.0000    2.0100    2.0200    2.0300    2.0400    2.0500    2.0600    2.0700
    2.0800    2.0900    2.1000    2.1100    2.1200    2.1300    2.1400    2.1500
    2.1600    2.1700    2.1800    2.1900    2.2000    2.2100    2.2200    2.2300
    2.2400    2.2500    2.2600    2.2700    2.2800    2.2900    2.3000    2.3100
    2.3200    2.3300    2.3400    2.3500    2.3600    2.3700    2.3800    2.3900
    2.4000    2.4100    2.4200    2.4300    2.4400    2.4500    2.4600    2.4700
    2.4800    2.4900    2.5000    2.5100    2.5200    2.5300    2.5400    2.5500
    2.5600    2.5700    2.5800    2.5900    2.6000    2.6100    2.6200    2.6300
    2.6400    2.6500    2.6600    2.6700    2.6800    2.6900    2.7000    2.7100
    2.7200    2.7300    2.7400    2.7500    2.7600    2.7700    2.7800    2.7900
    2.8000    2.8100    2.8200    2.8300    2.8400    2.8500    2.8600    2.8700
    2.8800    2.8900    2.9000    2.9100    2.9200    2.9300    2.9400    2.9500
    2.9600    2.9700    2.9800    2.9900    3.0000    3.0100    3.0200    3.0300
    3.0400    3.0500    3.0600    3.0700    3.0800    3.0900    3.1000    3.1100
    3.1200    3.1300    3.1400    3.1500    3.1600    3.1700    3.1800    3.1900
    3.2000    3.2100    3.2200    3.2300    3.2400    3.2500    3.2600    3.2700
    3.2800    3.2900    3.3000    3.3100    3.3200    3.3300    3.3400    3.3500
    3.3600    3.3700    3.3800    3.3900    3.4000    3.4100    3.4200    3.4300
    3.4400    3.4500    3.4600    3.4700    3.4800    3.4900    3.5000    3.5100
    3.5200    3.5300    3.5400    3.5500    3.5600    3.5700    3.5800    3.5900
    3.6000    3.6100    3.6200    3.6300    3.6400    3.6500    3.6600    3.6700
    3.6800    3.6900    3.7000    3.7100    3.7200    3.7300    3.7400    3.7500
    3.7600    3.7700    3.7800    3.7900    3.8000    3.8100    3.8200    3.8300
    3.8400    3.8500    3.8600    3.8700    3.8800    3.8900    3.9000    3.9100
    3.9200    3.9300    3.9400    3.9500    3.9600    3.9700    3.9800    3.9900
    4.0000    4.0100    4.0200    4.0300    4.0400    4.0500    4.0600    4.0700
    4.0800    4.0900    4.1000    4.1100    4.1200    4.1300    4.1400    4.1500
    4.1600    4.1700    4.1800    4.1900    4.2000    4.2100    4.2200    4.2300
    4.2400    4.2500    4.2600    4.2700    4.2800    4.2900    4.3000    4.3100
    4.3200    4.3300    4.3400    4.3500    4.3600    4.3700    4.3800    4.3900
    4.4000    4.4100    4.4200    4.4300    4.4400    4.4500    4.4600    4.4700
    4.4800    4.4900    4.5000    4.5100    4.5200    4.5300    4.5400    4.5500
    4.5600    4.5700    4.5800    4.5900    4.6000    4.6100    4.6200    4.6300
    4.6400    4.6500    4.6600    4.6700    4.6800    4.6900    4.7000    4.7100
    4.7200    4.7300    4.7400    4.7500    4.7600    4.7700    4.7800    4.7900
    4.8000    4.8100    4.8200    4.8300    4.8400    4.8500    4.8600    4.8700
    4.8800    4.8900    4.9000    4.9100    4.9200    4.9300    4.9400    4.9500
    4.9600    4.9700    4.9800    4.9900    5.0000    5.0100    5.0200    5.0300
    5.0400    5.0500    5.0600    5.0700    5.0800    5.0900    5.1000    5.1100
    5.1200    5.1300    5.1400    5.1500    5.1600    5.1700    5.1800    5.1900
    5.2000    5.2100    5.2200    5.2300    5.2400    5.2500    5.2600    5.2700
    5.2800    5.2900    5.3000    5.3100    5.3200    5.3300    5.3400    5.3500
    5.3600    5.3700    5.3800    5.3900    5.4000    5.4100    5.4200    5.4300
    5.4400    5.4500    5.4600    5.4700    5.4800    5.4900    5.5000    5.5100
    5.5200    5.5300    5.5400    5.5500    5.5600    5.5700    5.5800    5.5900
    5.6000    5.6100    5.6200    5.6300    5.6400    5.6500    5.6600    5.6700
    5.6800    5.6900    5.7000    5.7100    5.7200    5.7300    5.7400    5.7500
    5.7600    5.7700    5.7800    5.7900    5.8000    5.8100    5.8200    5.8300
    5.8400    5.8500    5.8600    5.8700    5.8800    5.8900    5.9000    5.9100
    5.9200    5.9300    5.9400    5.9500    5.9600    5.9700    5.9800    5.9900
    6.0000    6.0100    6.0200    6.0300    6.0400    6.0500    6.0600    6.0700
    6.0800    6.0900    6.1000    6.1100    6.1200    6.1300    6.1400    6.1500
    6.1600    6.1700    6.1800    6.1900    6.2000    6.2100    6.2200    6.2300
    6.2400    6.2500    6.2600    6.2700    6.2800    6.2900    6.3000    6.3100
    6.3200    6.3300    6.3400    6.3500    6.3600    6.3700    6.3800    6.3900
    6.4000    6.4100    6.4200    6.4300    6.4400    6.4500    6.4600    6.4700
    6.4800    6.4900    6.5000    6.5100    6.5200    6.5300    6.5400    6.5500
    6.5600    6.5700    6.5800    6.5900    6.6000    6.6100    6.6200    6.6300
    6.6400    6.6500    6.6600    6.6700    6.6800    6.6900    6.7000    6.7100
    6.7200    6.7300    6.7400    6.7500    6.7600    6.7700    6.7800    6.7900
    6.8000    6.8100    6.8200    6.8300    6.8400    6.8500    6.8600    6.8700
    6.8800    6.8900    6.9000    6.9100    6.9200    6.9300    6.9400    6.9500
    6.9600    6.9700    6.9800    6.9900    7.0000    7.0100    7.0200    7.0300
    7.0400    7.0500    7.0600    7.0700    7.0800    7.0900    7.1000    7.1100
    7.1200    7.1300    7.1400    7.1500    7.1600    7.1700    7.1800    7.1900
    7.2000    7.2100    7.2200    7.2300    7.2400    7.2500    7.2600    7.2700
    7.2800    7.2900    7.3000    7.3100    7.3200    7.3300    7.3400    7.3500
    7.3600    7.3700    7.3800    7.3900    7.4000    7.4100    7.4200    7.4300
    7.4400    7.4500    7.4600    7.4700    7.4800    7.4900
   </PP_R>
   <PP_RAB type="real"  size=" 750" columns="8">
    0.0100    0.0100    0.0100    0.0100    0.0100    0.0100    0.0100    0.0100
    0.0100    0.0100    0.0100    0.0100    0.0100    0.0100    0.0100    0.0100
    0.0100    0.0100    0.0100    0.0100    0.0100    0.0100    0.0100    0.0100
    0.0100    0.0100    0.0100    0.0100    0.0100    0.0100    0.0100    0.0100
    0.0100    0.0100    0.0100    0.0100    0.0100    0.0100    0.0100    0.0100
    0.0100    0.0100    0.0100    0.0100    0.0100    0.0100    0.0100    0.0100
    0.0100    0.0100    0.0100    0.0100    0.0100    0.0100    0.0100    0.0100
    0.0100    0.0100    0.0100    0.0100    0.0100    0.0100    0.0100    0.0100
    0.0100    0.0100    0.0100    0.0100    0.0100    0.0100    0.0100    0.0100
    0.0100    0.0100    0.0100    0.0100    0.0100    0.0100    0.0100    0.0100
    0.0100    0.0100    0.0100    0.0100    0.0100    0.0100    0.0100    0.0100
    0.0100    0.0100    0.0100    0.0100    0.0100    0.0100    0.0100    0.0100
    0.0100    0.0100    0.0100    0.0100    0.0100    0.0100    0.0100    0.0100
    0.0100    0.0100    0.0100    0.0100    0.0100    0.0100    0.0100    0.0100
    0.0100    0.0100    0.0100    0.0100    0.0100    0.0100    0.0100    0.0100
    0.0100    0.0100    0.0100    0.0100    0.0100    0.0100    0.0100    0.0100
    0.0100    0.0100    0.0100    0.0100    0.0100    0.0100    0.0100    0.0100
    0.0100    0.0100    0.0100    0.0100    0.0100    0.0100    0.0100    0.0100
    0.0100    0.0100    0.0100    0.0100    0.0100    0.0100    0.0100    0.0100
    0.0100    0.0100    0.0100    0.0100    0.0100    0.0100    0.0100    0.0100
    0.0100    0.0100    0.0100    0.0100    0.0100    0.0100    0.0100    0.0100
    0.0100    0.0100    0.0100    0.0100    0.0100    0.0100    0.0100    0.0100
    0.0100    0.0100    0.0100    0.0100    0.0100    0.0100    0.0100    0.0100
    0.0100    0.0100    0.0100    0.0100    0.0100    0.0100    0.0100    0.0100
    0.0100    0.0100    0.0100    0.0100    0.0100    0.0100    0.0100    0.0100
    0.0100    0.0100    0.0100    0.0100    0.0100    0.0100    0.0100    0.0100
    0.0100    0.0100    0.0100    0.0100    0.0100    0.0100    0.0100    0.0100
    0.0100    0.0100    0.0100    0.0100    0.0100    0.0100    0.0100    0.0100
    0.0100    0.0100    0.0100    0.0100    0.0100    0.0100    0.0100    0.0100
    0.0100    0.0100    0.0100    0.0100    0.0100    0.0100    0.0100    0.0100
    0.0100    0.0100    0.0100    0.0100    0.0100    0.0100    0.0100    0.0100
    0.0100    0.0100    0.0100    0.0100    0.0100    0.0100    0.0100    0.0100
    0.0100    0.0100    0.0100    0.0100    0.0100    0.0100    0.0100    0.0100
    0.0100    0.0100    0.0100    0.0100    0.0100    0.0100    0.0100    0.0100
    0.0100    0.0100    0.0100    0.0100    0.0100    0.0100    0.0100    0.0100
    0.0100    0.0100    0.0100    0.0100    0.0100    0.0100    0.0100    0.0100
    0.0100    0.0100    0.0100    0.0100    0.0100    0.0100    0.0100    0.0100
    0.0100    0.0100    0.0100    0.0100    0.0100    0.0100    0.0100    0.0100
    0.0100    0.0100    0.0100    0.0100    0.0100    0.0100    0.0100    0.0100
    0.0100    0.0100    0.0100    0.0100    0.0100    0.0100    0.0100    0.0100
    0.0100    0.0100    0.0100    0.0100    0.0100    0.0100    0.0100    0.0100
    0.0100    0.0100    0.0100    0.0100    0.0100    0.0100    0.0100    0.0100
    0.0100    0.0100    0.0100    0.0100    0.0100    0.0100    0.0100    0.0100
    0.0100    0.0100    0.0100    0.0100    0.0100    0.0100    0.0100    0.0100
    0.0100    0.0100    0.0100    0.0100    0.0100    0.0100    0.0100    0.0100
    0.0100    0.0100    0.0100    0.0100    0.0100    0.0100    0.0100    0.0100
    0.0100    0.0100    0.0100    0.0100    0.0100    0.0100    0.0100    0.0100
    0.0100    0.0100    0.0100    0.0100    0.0100    0.0100    0.0100    0.0100
    0.0100    0.0100    0.0100    0.0100    0.0100    0.0100    0.0100    0.0100
    0.0100    0.0100    0.0100    0.0100    0.0100    0.0100    0.0100    0.0100
    0.0100    0.0100    0.0100    0.0100    0.0100    0.0100    0.0100    0.0100
    0.0100    0.0100    0.0100    0.0100    0.0100    0.0100    0.0100    0.0100
    0.0100    0.0100    0.0100    0.0100    0.0100    0.0100    0.0100    0.0100
    0.0100    0.0100    0.0100    0.0100    0.0100    0.0100    0.0100    0.0100
    0.0100    0.0100    0.0100    0.0100    0.0100    0.0100    0.0100    0.0100
    0.0100    0.0100    0.0100    0.0100    0.0100    0.0100    0.0100    0.0100
    0.0100    0.0100    0.0100    0.0100    0.0100    0.0100    0.0100    0.0100
    0.0100    0.0100    0.0100    0.0100    0.0100    0.0100    0.0100    0.0100
    0.0100    0.0100    0.0100    0.0100    0.0100    0.0100    0.0100    0.0100
    0.0100    0.0100    0.0100    0.0100    0.0100    0.0100    0.0100    0.0100
    0.0100    0.0100    0.0100    0.0100    0.0100    0.0100    0.0100    0.0100
    0.0100    0.0100    0.0100    0.0100    0.0100    0.0100    0.0100    0.0100
    0.0100    0.0100    0.0100    0.0100    0.0100    0.0100    0.0100    0.0100
    0.0100    0.0100    0.0100    0.0100    0.0100    0.0100    0.0100    0.0100
    0.0100    0.0100    0.0100    0.0100    0.0100    0.0100    0.0100    0.0100
    0.0100    0.0100    0.0100    0.0100    0.0100    0.0100    0.0100    0.0100
    0.0100    0.0100    0.0100    0.0100    0.0100    0.0100    0.0100    0.0100
    0.0100    0.0100    0.0100    0.0100    0.0100    0.0100    0.0100    0.0100
    0.0100    0.0100    0.0100    0.0100    0.0100    0.0100    0.0100    0.0100
    0.0100    0.0100    0.0100    0.0100    0.0100    0.0100    0.0100    0.0100
    0.0100    0.0100    0.0100    0.0100    0.0100    0.0100    0.0100    0.0100
    0.0100    0.0100    0.0100    0.0100    0.0100    0.0100    0.0100    0.0100
    0.0100    0.0100    0.0100    0.0100    0.0100    0.0100    0.0100    0.0100
    0.0100    0.0100    0.0100    0.0100    0.0100    0.0100    0.0100    0.0100
    0.0100    0.0100    0.0100    0.0100    0.0100    0.0100    0.0100    0.0100
    0.0100    0.0100    0.0100    0.0100    0.0100    0.0100    0.0100    0.0100
    0.0100    0.0100    0.0100    0.0100    0.0100    0.0100    0.0100    0.0100
    0.0100    0.0100    0.0100    0.0100    0.0100    0.0100    0.0100    0.0100
    0.0100    0.0100    0.0100    0.0100    0.0100    0.0100    0.0100    0.0100
    0.0100    0.0100    0.0100    0.0100    0.0100    0.0100    0.0100    0.0100
    0.0100    0.0100    0.0100    0.0100    0.0100    0.0100    0.0100    0.0100
    0.0100    0.0100    0.0100    0.0100    0.0100    0.0100    0.0100    0.0100
    0.0100    0.0100    0.0100    0.0100    0.0100    0.0100    0.0100    0.0100
    0.0100    0.0100    0.0100    0.0100    0.0100    0.0100    0.0100    0.0100
    0.0100    0.0100    0.0100    0.0100    0.0100    0.0100    0.0100    0.0100
    0.0100    0.0100    0.0100    0.0100    0.0100    0.0100    0.0100    0.0100
    0.0100    0.0100    0.0100    0.0100    0.0100    0.0100    0.0100    0.0100
    0.0100    0.0100    0.0100    0.0100    0.0100    0.0100    0.0100    0.0100
    0.0100    0.0100    0.0100    0.0100    0.0100    0.0100    0.0100    0.0100
    0.0100    0.0100    0.0100    0.0100    0.0100    0.0100    0.0100    0.0100
    0.0100    0.0100    0.0100    0.0100    0.0100    0.0100    0.0100    0.0100
    0.0100    0.0100    0.0100    0.0100    0.0100    0.0100    0.0100    0.0100
    0.0100    0.0100    0.0100    0.0100    0.0100    0.0100    0.0100    0.0100
    0.0100    0.0100    0.0100    0.0100    0.0100    0.0100
   </PP_RAB>
 </PP_MESH>
  <PP_LOCAL type="real"  size=" 750" columns="4">
   -1.7455717723E+01   -1.7455049745E+01   -1.7453047863E+01   -1.7449717971E+01
   -1.7445069781E+01   -1.7439116630E+01   -1.7431875226E+01   -1.7423365341E+01
   -1.7413609452E+01   -1.7402632359E+01   -1.7390460774E+01   -1.7377122898E+01
   -1.7362648011E+01   -1.7347066056E+01   -1.7330407260E+01   -1.7312701768E+01
   -1.7293979315E+01   -1.7274268940E+01   -1.7253598722E+01   -1.7231995573E+01
   -1.7209485056E+01   -1.7186091249E+01   -1.7161836642E+01   -1.7136742062E+01
   -1.7110826640E+01   -1.7084107789E+01   -1.7056601225E+01   -1.7028320991E+01
   -1.6999279510E+01   -1.6969487652E+01   -1.6938954808E+01   -1.6907688979E+01
   -1.6875696871E+01   -1.6842983998E+01   -1.6809554782E+01   -1.6775412669E+01
   -1.6740560232E+01   -1.6704999282E+01   -1.6668730975E+01   -1.6631755924E+01
   -1.6594074297E+01   -1.6555685920E+01   -1.6516590379E+01   -1.6476787110E+01
   -1.6436275487E+01   -1.6395054914E+01   -1.6353124901E+01   -1.6310485139E+01
   -1.6267135575E+01   -1.6223076477E+01   -1.6178308492E+01   -1.6132832709E+01
   -1.6086650700E+01   -1.6039764578E+01   -1.5992177030E+01   -1.5943891355E+01
   -1.5894911501E+01   -1.5845242084E+01   -1.5794888419E+01   -1.5743856532E+01
   -1.5692153178E+01   -1.5639785848E+01   -1.5586762777E+01   -1.5533092946E+01
   -1.5478786080E+01   -1.5423852641E+01   -1.5368303823E+01   -1.5312151539E+01
   -1.5255408404E+01   -1.5198087721E+01   -1.5140203458E+01   -1.5081770228E+01
   -1.5022803261E+01   -1.4963318380E+01   -1.4903331970E+01   -1.4842860947E+01
   -1.4781922728E+01   -1.4720535194E+01   -1.4658716659E+01   -1.4596485829E+01
   -1.4533861770E+01   -1.4470863868E+01   -1.4407511792E+01   -1.4343825453E+01
   -1.4279824970E+01   -1.4215530626E+01   -1.4150962835E+01   -1.4086142098E+01
   -1.4021088969E+01   -1.3955824016E+01   -1.3890367784E+01   -1.3824740758E+01
   -1.3758963331E+01   -1.3693055765E+01   -1.3627038160E+01   -1.3560930425E+01
   -1.3494752238E+01   -1.3428523026E+01   -1.3362261930E+01   -1.3295987782E+01
   -1.3229719076E+01   -1.3163473946E+01   -1.3097270143E+01   -1.3031125013E+01
   -1.2965055480E+01   -1.2899078025E+01   -1.2833208672E+01   -1.2767462971E+01
   -1.2701855987E+01   -1.2636402289E+01   -1.2571115938E+01   -1.2506010479E+01
   -1.2441098936E+01   -1.2376393803E+01   -1.2311907045E+01   -1.2247650093E+01
   -1.2183633842E+01   -1.2119868651E+01   -1.2056364350E+01   -1.1993130235E+01
   -1.1930175078E+01   -1.1867507128E+01   -1.1805134123E+01   -1.1743063290E+01
   -1.1681301360E+01   -1.1619854571E+01   -1.1558728683E+01   -1.1497929142E+01
   -1.1437460379E+01   -1.1377325231E+01   -1.1317537545E+01   -1.1258086881E+01
   -1.1198932373E+01   -1.1140103730E+01   -1.1081642979E+01   -1.1023539652E+01
   -1.0965789840E+01   -1.0908398414E+01   -1.0851365990E+01   -1.0794693239E+01
   -1.0738380664E+01   -1.0682428469E+01   -1.0626836603E+01   -1.0571604772E+01
   -1.0516732459E+01   -1.0462218936E+01   -1.0408063281E+01   -1.0354264390E+01
   -1.0300820993E+01   -1.0247731667E+01   -1.0194994853E+01   -1.0142608861E+01
   -1.0090571894E+01   -1.0038882052E+01   -9.9875373459E+00   -9.9365357116E+00
   -9.8858750189E+00   -9.8355530827E+00   -9.7855676732E+00   -9.7359165257E+00
   -9.6865973494E+00   -9.6376078364E+00   -9.5889456698E+00   -9.5406085312E+00
   -9.4925941080E+00   -9.4449000998E+00   -9.3975242249E+00   -9.3504642255E+00
   -9.3037178729E+00   -9.2572829725E+00   -9.2111573673E+00   -9.1653389422E+00
   -9.1198256267E+00   -9.0746153979E+00   -9.0297062830E+00   -8.9850963606E+00
   -8.9407837629E+00   -8.8967666762E+00   -8.8530433421E+00   -8.8096120575E+00
   -8.7664711746E+00   -8.7236191009E+00   -8.6810542984E+00   -8.6387752825E+00
   -8.5967806213E+00   -8.5550689335E+00   -8.5136388876E+00   -8.4724891992E+00
   -8.4316186294E+00   -8.3910259828E+00   -8.3507101045E+00   -8.3106698780E+00
   -8.2709042227E+00   -8.2314120909E+00   -8.1921924650E+00   -8.1532443551E+00
   -8.1145667956E+00   -8.0761588425E+00   -8.0380195706E+00   -8.0001480705E+00
   -7.9625434455E+00   -7.9252048092E+00   -7.8881312823E+00   -7.8513219899E+00
   -7.8147760592E+00   -7.7784926161E+00   -7.7424707838E+00   -7.7067096792E+00
   -7.6712084116E+00   -7.6359660798E+00   -7.6009817703E+00   -7.5662545555E+00
   -7.5317834913E+00   -7.4975676161E+00   -7.4636059487E+00   -7.4298974870E+00
   -7.3964412066E+00   -7.3632360601E+00   -7.3302809751E+00   -7.2975748542E+00
   -7.2651165736E+00   -7.2329049829E+00   -7.2009389041E+00   -7.1692171313E+00
   -7.1377384308E+00   -7.1065015401E+00   -7.0755051688E+00   -7.0447479976E+00
   -7.0142286792E+00   -6.9839458381E+00   -6.9538980710E+00   -6.9240839472E+00
   -6.8945020090E+00   -6.8651507723E+00   -6.8360287270E+00   -6.8071343380E+00
   -6.7784660454E+00   -6.7500222658E+00   -6.7218013926E+00   -6.6938017971E+00
   -6.6660218293E+00   -6.6384598188E+00   -6.6111140756E+00   -6.5839828910E+00
   -6.5570645386E+00   -6.5303572751E+00   -6.5038593415E+00   -6.4775689634E+00
   -6.4514843526E+00   -6.4256037074E+00   -6.3999252137E+00   -6.3744470458E+00
   -6.3491673669E+00   -6.3240843304E+00   -6.2991960799E+00   -6.2745007505E+00
   -6.2499964688E+00   -6.2256813537E+00   -6.2015535176E+00   -6.1776110656E+00
   -6.1538520944E+00   -6.1302747001E+00   -6.1068769695E+00   -6.0836569877E+00
   -6.0606128196E+00   -6.0377425317E+00   -6.0150441945E+00   -5.9925158897E+00
   -5.9701557151E+00   -5.9479617865E+00   -5.9259322538E+00   -5.9040652988E+00
   -5.8823591304E+00   -5.8608119834E+00   -5.8394221150E+00   -5.8181878096E+00
   -5.7971073769E+00   -5.7761791500E+00   -5.7554014865E+00   -5.7347727673E+00
   -5.7142913966E+00   -5.6939558013E+00   -5.6737644305E+00   -5.6537157553E+00
   -5.6338082685E+00   -5.6140404838E+00   -5.5944109358E+00   -5.5749181795E+00
   -5.5555607900E+00   -5.5363373621E+00   -5.5172465100E+00   -5.4982868668E+00
   -5.4794570846E+00   -5.4607558338E+00   -5.4421818027E+00   -5.4237336976E+00
   -5.4054102422E+00   -5.3872101774E+00   -5.3691322611E+00   -5.3511752676E+00
   -5.3333379878E+00   -5.3156192284E+00   -5.2980178121E+00   -5.2805325770E+00
   -5.2631623768E+00   -5.2459060797E+00   -5.2287625692E+00   -5.2117307432E+00
   -5.1948095136E+00   -5.1779978069E+00   -5.1612945631E+00   -5.1446987359E+00
   -5.1282092924E+00   -5.1118252131E+00   -5.0955454912E+00   -5.0793691329E+00
   -5.0632951568E+00   -5.0473225941E+00   -5.0314504880E+00   -5.0156778937E+00
   -5.0000038784E+00   -4.9844275207E+00   -4.9689479108E+00   -4.9535641501E+00
   -4.9382753511E+00   -4.9230806372E+00   -4.9079791426E+00   -4.8929700121E+00
   -4.8780524008E+00   -4.8632254743E+00   -4.8484884082E+00   -4.8338403880E+00
   -4.8192806090E+00   -4.8048082764E+00   -4.7904226045E+00   -4.7761228175E+00
   -4.7619081484E+00   -4.7477778395E+00   -4.7337311421E+00   -4.7197673162E+00
   -4.7058856307E+00   -4.6920853628E+00   -4.6783657983E+00   -4.6647262315E+00
   -4.6511659646E+00   -4.6376843081E+00   -4.6242805804E+00   -4.6109541078E+00
   -4.5977042242E+00   -4.5845302713E+00   -4.5714315983E+00   -4.5584075617E+00
   -4.5454575254E+00   -4.5325808606E+00   -4.5197769454E+00   -4.5070451651E+00
   -4.4943849118E+00   -4.4817955843E+00   -4.4692765885E+00   -4.4568273364E+00
   -4.4444472470E+00   -4.4321357454E+00   -4.4198922633E+00   -4.4077162384E+00
   -4.3956071150E+00   -4.3835643430E+00   -4.3715873786E+00   -4.3596756838E+00
   -4.3478287266E+00   -4.3360459807E+00   -4.3243269254E+00   -4.3126710456E+00
   -4.3010778320E+00   -4.2895467805E+00   -4.2780773924E+00   -4.2666691745E+00
   -4.2553216387E+00   -4.2440343021E+00   -4.2328066870E+00   -4.2216383205E+00
   -4.2105287350E+00   -4.1994774677E+00   -4.1884840604E+00   -4.1775480601E+00
   -4.1666690181E+00   -4.1558464908E+00   -4.1450800388E+00   -4.1343692274E+00
   -4.1237136265E+00   -4.1131128102E+00   -4.1025663572E+00   -4.0920738502E+00
   -4.0816348766E+00   -4.0712490275E+00   -4.0609158986E+00   -4.0506350894E+00
   -4.0404062035E+00   -4.0302288486E+00   -4.0201026362E+00   -4.0100271819E+00
   -4.0000021049E+00   -3.9900270283E+00   -3.9801015790E+00   -3.9702253877E+00
   -3.9603980884E+00   -3.9506193190E+00   -3.9408887209E+00   -3.9312059392E+00
   -3.9215706221E+00   -3.9119824215E+00   -3.9024409927E+00   -3.8929459942E+00
   -3.8834970880E+00   -3.8740939393E+00   -3.8647362164E+00   -3.8554235911E+00
   -3.8461557381E+00   -3.8369323352E+00   -3.8277530635E+00   -3.8186176070E+00
   -3.8095256527E+00   -3.8004768907E+00   -3.7914710138E+00   -3.7825077179E+00
   -3.7735867018E+00   -3.7647076669E+00   -3.7558703178E+00   -3.7470743613E+00
   -3.7383195076E+00   -3.7296054690E+00   -3.7209319609E+00   -3.7122987012E+00
   -3.7037054102E+00   -3.6951518112E+00   -3.6866376298E+00   -3.6781625940E+00
   -3.6697264346E+00   -3.6613288846E+00   -3.6529696797E+00   -3.6446485577E+00
   -3.6363652590E+00   -3.6281195264E+00   -3.6199111048E+00   -3.6117397416E+00
   -3.6036051863E+00   -3.5955071909E+00   -3.5874455094E+00   -3.5794198981E+00
   -3.5714301154E+00   -3.5634759220E+00   -3.5555570807E+00   -3.5476733561E+00
   -3.5398245153E+00   -3.5320103273E+00   -3.5242305631E+00   -3.5164849956E+00
   -3.5087734000E+00   -3.5010955531E+00   -3.4934512340E+00   -3.4858402236E+00
   -3.4782623044E+00   -3.4707172614E+00   -3.4632048809E+00   -3.4557249513E+00
   -3.4482772628E+00   -3.4408616073E+00   -3.4334777788E+00   -3.4261255727E+00
   -3.4188047863E+00   -3.4115152186E+00   -3.4042566704E+00   -3.3970289441E+00
   -3.3898318438E+00   -3.3826651752E+00   -3.3755287457E+00   -3.3684223644E+00
   -3.3613458419E+00   -3.3542989903E+00   -3.3472816235E+00   -3.3402935568E+00
   -3.3333346070E+00   -3.3264045927E+00   -3.3195033336E+00   -3.3126306511E+00
   -3.3057863682E+00   -3.2989703092E+00   -3.2921822998E+00   -3.2854221673E+00
   -3.2786897402E+00   -3.2719848487E+00   -3.2653073241E+00   -3.2586569992E+00
   -3.2520337082E+00   -3.2454372865E+00   -3.2388675710E+00   -3.2323243998E+00
   -3.2258076125E+00   -3.2193170496E+00   -3.2128525533E+00   -3.2064139668E+00
   -3.2000011346E+00   -3.1936139026E+00   -3.1872521178E+00   -3.1809156284E+00
   -3.1746042837E+00   -3.1683179346E+00   -3.1620564326E+00   -3.1558196309E+00
   -3.1496073836E+00   -3.1434195459E+00   -3.1372559742E+00   -3.1311165261E+00
   -3.1250010603E+00   -3.1189094365E+00   -3.1128415155E+00   -3.1067971592E+00
   -3.1007762307E+00   -3.0947785940E+00   -3.0888041143E+00   -3.0828526576E+00
   -3.0769240911E+00   -3.0710182831E+00   -3.0651351027E+00   -3.0592744202E+00
   -3.0534361066E+00   -3.0476200343E+00   -3.0418260764E+00   -3.0360541069E+00
   -3.0303040010E+00   -3.0245756346E+00   -3.0188688847E+00   -3.0131836292E+00
   -3.0075197469E+00   -3.0018771174E+00   -2.9962556213E+00   -2.9906551402E+00
   -2.9850755565E+00   -2.9795167534E+00   -2.9739786149E+00   -2.9684610262E+00
   -2.9629638730E+00   -2.9574870420E+00   -2.9520304207E+00   -2.9465938975E+00
   -2.9411773615E+00   -2.9357807028E+00   -2.9304038120E+00   -2.9250465808E+00
   -2.9197089016E+00   -2.9143906675E+00   -2.9090917725E+00   -2.9038121112E+00
   -2.8985515791E+00   -2.8933100725E+00   -2.8880874883E+00   -2.8828837242E+00
   -2.8776986788E+00   -2.8725322511E+00   -2.8673843411E+00   -2.8622548494E+00
   -2.8571436773E+00   -2.8520507269E+00   -2.8469759009E+00   -2.8419191027E+00
   -2.8368802364E+00   -2.8318592069E+00   -2.8268559195E+00   -2.8218702804E+00
   -2.8169021964E+00   -2.8119515749E+00   -2.8070183241E+00   -2.8021023526E+00
   -2.7972035698E+00   -2.7923218858E+00   -2.7874572111E+00   -2.7826094571E+00
   -2.7777785356E+00   -2.7729643590E+00   -2.7681668405E+00   -2.7633858938E+00
   -2.7586214331E+00   -2.7538733733E+00   -2.7491416299E+00   -2.7444261190E+00
   -2.7397267570E+00   -2.7350434613E+00   -2.7303761495E+00   -2.7257247400E+00
   -2.7210891516E+00   -2.7164693038E+00   -2.7118651165E+00   -2.7072765103E+00
   -2.7027034061E+00   -2.6981457255E+00   -2.6936033907E+00   -2.6890763243E+00
   -2.6845644494E+00   -2.6800676896E+00   -2.6755859693E+00   -2.6711192129E+00
   -2.6666673457E+00   -2.6622302935E+00   -2.6578079823E+00   -2.6534003388E+00
   -2.6490072902E+00   -2.6446287640E+00   -2.6402646885E+00   -2.6359149922E+00
   -2.6315796041E+00   -2.6272584537E+00   -2.6229514711E+00   -2.6186585866E+00