<UPF version="2.0.1">
  <PP_INFO>

 This pseudopotential file has been produced using the code
 ONCVPSP  (Optimized Norm-Conservinng Vanderbilt PSeudopotential)
 scalar-relativistic version 3.3.1 12/12/2017 by D. R. Hamann
 The code is available through a link at URL www.mat-simresearch.com.
 Documentation with the package provides a full discription of the
 input data below.


 While it is not required under the terms of the GNU GPL, it is
 suggested that you cite D. R. Hamann, Phys. Rev. B 88, 085117 (2013)
 in any publication using these pseudopotentials.

    <PP_INPUTFILE>
# ATOM AND REFERENCE CONFIGURATION
# atsym  z   nc   nv     iexc    psfile
  Ne 10.00    1    2       3      upf
#
#   n    l    f        energy (Ha)
    1    0    2.00
    2    0    2.00
    2    1    6.00
#
# PSEUDOPOTENTIAL AND OPTIMIZATION
# lmax
    1
#
#   l,   rc,      ep,       ncon, nbas, qcut
    0   2.62070  -1.32709    5    8   7.96858
    1   2.65215  -0.49729    5    8   6.60628
#
# LOCAL POTENTIAL
# lloc, lpopt,  rc(5),   dvloc0
    4    5   2.62070      0.00000
#
# VANDERBILT-KLEINMAN-BYLANDER PROJECTORs
# l, nproj, debl
    0    2   1.54861
    1    2   1.11000
#
# MODEL CORE CHARGE
# icmod, fcfact, rcfact
    0   0.00000   0.00000
#
# LOG DERIVATIVE ANALYSIS
# epsh1, epsh2, depsh
   -5.00    3.00    0.02
#
# OUTPUT GRID
# rlmax, drl
    6.00    0.01
#
# TEST CONFIGURATIONS
# ncnf
    0
# nvcnf
#   n    l    f
    </PP_INPUTFILE>
  </PP_INFO>
  <!--                               -->
  <!-- END OF HUMAN READABLE SECTION -->
  <!--                               -->
    <PP_HEADER
       generated="Generated using ONCVPSP code by D. R. Hamann"
       author="anonymous"
       date="210904"
       comment=""
       element="Ne"
       pseudo_type="NC"
       relativistic="scalar"
       is_ultrasoft="F"
       is_paw="F"
       is_coulomb="F"
       has_so="F"
       has_wfc="F"
       has_gipaw="F"
       core_correction="F"
       functional="PZ"
       z_valence="    8.00"
       total_psenergy="  -6.06888537900E+01"
       rho_cutoff="   7.49000000000E+00"
       l_max="1"
       l_local="-1"
       mesh_size="   750"
       number_of_wfc="2"
       number_of_proj="4"/>
 <PP_MESH>
   <PP_R type="real"  size=" 750" columns="8">
    0.0000    0.0100    0.0200    0.0300    0.0400    0.0500    0.0600    0.0700
    0.0800    0.0900    0.1000    0.1100    0.1200    0.1300    0.1400    0.1500
    0.1600    0.1700    0.1800    0.1900    0.2000    0.2100    0.2200    0.2300
    0.2400    0.2500    0.2600    0.2700    0.2800    0.2900    0.3000    0.3100
    0.3200    0.3300    0.3400    0.3500    0.3600    0.3700    0.3800    0.3900
    0.4000    0.4100    0.4200    0.4300    0.4400    0.4500    0.4600    0.4700
    0.4800    0.4900    0.5000    0.5100    0.5200    0.5300    0.5400    0.5500
    0.5600    0.5700    0.5800    0.5900    0.6000    0.6100    0.6200    0.6300
    0.6400    0.6500    0.6600    0.6700    0.6800    0.6900    0.7000    0.7100
    0.7200    0.7300    0.7400    0.7500    0.7600    0.7700    0.7800    0.7900
    0.8000    0.8100    0.8200    0.8300    0.8400    0.8500    0.8600    0.8700
    0.8800    0.8900    0.9000    0.9100    0.9200    0.9300    0.9400    0.9500
    0.9600    0.9700    0.9800    0.9900    1.0000    1.0100    1.0200    1.0300
    1.0400    1.0500    1.0600    1.0700    1.0800    1.0900    1.1000    1.1100
    1.1200    1.1300    1.1400    1.1500    1.1600    1.1700    1.1800    1.1900
    1.2000    1.2100    1.2200    1.2300    1.2400    1.2500    1.2600    1.2700
    1.2800    1.2900    1.3000    1.3100    1.3200    1.3300    1.3400    1.3500
    1.3600    1.3700    1.3800    1.3900    1.4000    1.4100    1.4200    1.4300
    1.4400    1.4500    1.4600    1.4700    1.4800    1.4900    1.5000    1.5100
    1.5200    1.5300    1.5400    1.5500    1.5600    1.5700    1.5800    1.5900
    1.6000    1.6100    1.6200    1.6300    1.6400    1.6500    1.6600    1.6700
    1.6800    1.6900    1.7000    1.7100    1.7200    1.7300    1.7400    1.7500
    1.7600    1.7700    1.7800    1.7900    1.8000    1.8100    1.8200    1.8300
    1.8400    1.8500    1.8600    1.8700    1.8800    1.8900    1.9000    1.9100
    1.9200    1.9300    1.9400    1.9500    1.9600    1.9700    1.9800    1.9900
    2.0000    2.0100    2.0200    2.0300    2.0400    2.0500    2.0600    2.0700
    2.0800    2.0900    2.1000    2.1100    2.1200    2.1300    2.1400    2.1500
    2.1600    2.1700    2.1800    2.1900    2.2000    2.2100    2.2200    2.2300
    2.2400    2.2500    2.2600    2.2700    2.2800    2.2900    2.3000    2.3100
    2.3200    2.3300    2.3400    2.3500    2.3600    2.3700    2.3800    2.3900
    2.4000    2.4100    2.4200    2.4300    2.4400    2.4500    2.4600    2.4700
    2.4800    2.4900    2.5000    2.5100    2.5200    2.5300    2.5400    2.5500
    2.5600    2.5700    2.5800    2.5900    2.6000    2.6100    2.6200    2.6300
    2.6400    2.6500    2.6600    2.6700    2.6800    2.6900    2.7000    2.7100
    2.7200    2.7300    2.7400    2.7500    2.7600    2.7700    2.7800    2.7900
    2.8000    2.8100    2.8200    2.8300    2.8400    2.8500    2.8600    2.8700
    2.8800    2.8900    2.9000    2.9100    2.9200    2.9300    2.9400    2.9500
    2.9600    2.9700    2.9800    2.9900    3.0000    3.0100    3.0200    3.0300
    3.0400    3.0500    3.0600    3.0700    3.0800    3.0900    3.1000    3.1100
    3.1200    3.1300    3.1400    3.1500    3.1600    3.1700    3.1800    3.1900
    3.2000    3.2100    3.2200    3.2300    3.2400    3.2500    3.2600    3.2700
    3.2800    3.2900    3.3000    3.3100    3.3200    3.3300    3.3400    3.3500
    3.3600    3.3700    3.3800    3.3900    3.4000    3.4100    3.4200    3.4300
    3.4400    3.4500    3.4600    3.4700    3.4800    3.4900    3.5000    3.5100
    3.5200    3.5300    3.5400    3.5500    3.5600    3.5700    3.5800    3.5900
    3.6000    3.6100    3.6200    3.6300    3.6400    3.6500    3.6600    3.6700
    3.6800    3.6900    3.7000    3.7100    3.7200    3.7300    3.7400    3.7500
    3.7600    3.7700    3.7800    3.7900    3.8000    3.8100    3.8200    3.8300
    3.8400    3.8500    3.8600    3.8700    3.8800    3.8900    3.9000    3.9100
    3.9200    3.9300    3.9400    3.9500    3.9600    3.9700    3.9800    3.9900
    4.0000    4.0100    4.0200    4.0300    4.0400    4.0500    4.0600    4.0700
    4.0800    4.0900    4.1000    4.1100    4.1200    4.1300    4.1400    4.1500
    4.1600    4.1700    4.1800    4.1900    4.2000    4.2100    4.2200    4.2300
    4.2400    4.2500    4.2600    4.2700    4.2800    4.2900    4.3000    4.3100
    4.3200    4.3300    4.3400    4.3500    4.3600    4.3700    4.3800    4.3900
    4.4000    4.4100    4.4200    4.4300    4.4400    4.4500    4.4600    4.4700
    4.4800    4.4900    4.5000    4.5100    4.5200    4.5300    4.5400    4.5500
    4.5600    4.5700    4.5800    4.5900    4.6000    4.6100    4.6200    4.6300
    4.6400    4.6500    4.6600    4.6700    4.6800    4.6900    4.7000    4.7100
    4.7200    4.7300    4.7400    4.7500    4.7600    4.7700    4.7800    4.7900
    4.8000    4.8100    4.8200    4.8300    4.8400    4.8500    4.8600    4.8700
    4.8800    4.8900    4.9000    4.9100    4.9200    4.9300    4.9400    4.9500
    4.9600    4.9700    4.9800    4.9900    5.0000    5.0100    5.0200    5.0300
    5.0400    5.0500    5.0600    5.0700    5.0800    5.0900    5.1000    5.1100
    5.1200    5.1300    5.1400    5.1500    5.1600    5.1700    5.1800    5.1900
    5.2000    5.2100    5.2200    5.2300    5.2400    5.2500    5.2600    5.2700
    5.2800    5.2900    5.3000    5.3100    5.3200    5.3300    5.3400    5.3500
    5.3600    5.3700    5.3800    5.3900    5.4000    5.4100    5.4200    5.4300
    5.4400    5.4500    5.4600    5.4700    5.4800    5.4900    5.5000    5.5100
    5.5200    5.5300    5.5400    5.5500    5.5600    5.5700    5.5800    5.5900
    5.6000    5.6100    5.6200    5.6300    5.6400    5.6500    5.6600    5.6700
    5.6800    5.6900    5.7000    5.7100    5.7200    5.7300    5.7400    5.7500
    5.7600    5.7700    5.7800    5.7900    5.8000    5.8100    5.8200    5.8300
    5.8400    5.8500    5.8600    5.8700    5.8800    5.8900    5.9000    5.9100
    5.9200    5.9300    5.9400    5.9500    5.9600    5.9700    5.9800    5.9900
    6.0000    6.0100    6.0200    6.0300    6.0400    6.0500    6.0600    6.0700
    6.0800    6.0900    6.1000    6.1100    6.1200    6.1300    6.1400    6.1500
    6.1600    6.1700    6.1800    6.1900    6.2000    6.2100    6.2200    6.2300
    6.2400    6.2500    6.2600    6.2700    6.2800    6.2900    6.3000    6.3100
    6.3200    6.3300    6.3400    6.3500    6.3600    6.3700    6.3800    6.3900
    6.4000    6.4100    6.4200    6.4300    6.4400    6.4500    6.4600    6.4700
    6.4800    6.4900    6.5000    6.5100    6.5200    6.5300    6.5400    6.5500
    6.5600    6.5700    6.5800    6.5900    6.6000    6.6100    6.6200    6.6300
    6.6400    6.6500    6.6600    6.6700    6.6800    6.6900    6.7000    6.7100
    6.7200    6.7300    6.7400    6.7500    6.7600    6.7700    6.7800    6.7900
    6.8000    6.8100    6.8200    6.8300    6.8400    6.8500    6.8600    6.8700
    6.8800    6.8900    6.9000    6.9100    6.9200    6.9300    6.9400    6.9500
    6.9600    6.9700    6.9800    6.9900    7.0000    7.0100    7.0200    7.0300
    7.0400    7.0500    7.0600    7.0700    7.0800    7.0900    7.1000    7.1100
    7.1200    7.1300    7.1400    7.1500    7.1600    7.1700    7.1800    7.1900
    7.2000    7.2100    7.2200    7.2300    7.2400    7.2500    7.2600    7.2700
    7.2800    7.2900    7.3000    7.3100    7.3200    7.3300    7.3400    7.3500
    7.3600    7.3700    7.3800    7.3900    7.4000    7.4100    7.4200    7.4300
    7.4400    7.4500    7.4600    7.4700    7.4800    7.4900
   </PP_R>
   <PP_RAB type="real"  size=" 750" columns="8">
    0.0100    0.0100    0.0100    0.0100    0.0100    0.0100    0.0100    0.0100
    0.0100    0.0100    0.0100    0.0100    0.0100    0.0100    0.0100    0.0100
    0.0100    0.0100    0.0100    0.0100    0.0100    0.0100    0.0100    0.0100
    0.0100    0.0100    0.0100    0.0100    0.0100    0.0100    0.0100    0.0100
    0.0100    0.0100    0.0100    0.0100    0.0100    0.0100    0.0100    0.0100
    0.0100    0.0100    0.0100    0.0100    0.0100    0.0100    0.0100    0.0100
    0.0100    0.0100    0.0100    0.0100    0.0100    0.0100    0.0100    0.0100
    0.0100    0.0100    0.0100    0.0100    0.0100    0.0100    0.0100    0.0100
    0.0100    0.0100    0.0100    0.0100    0.0100    0.0100    0.0100    0.0100
    0.0100    0.0100    0.0100    0.0100    0.0100    0.0100    0.0100    0.0100
    0.0100    0.0100    0.0100    0.0100    0.0100    0.0100    0.0100    0.0100
    0.0100    0.0100    0.0100    0.0100    0.0100    0.0100    0.0100    0.0100
    0.0100    0.0100    0.0100    0.0100    0.0100    0.0100    0.0100    0.0100
    0.0100    0.0100    0.0100    0.0100    0.0100    0.0100    0.0100    0.0100
    0.0100    0.0100    0.0100    0.0100    0.0100    0.0100    0.0100    0.0100
    0.0100    0.0100    0.0100    0.0100    0.0100    0.0100    0.0100    0.0100
    0.0100    0.0100    0.0100    0.0100    0.0100    0.0100    0.0100    0.0100
    0.0100    0.0100    0.0100    0.0100    0.0100    0.0100    0.0100    0.0100
    0.0100    0.0100    0.0100    0.0100    0.0100    0.0100    0.0100    0.0100
    0.0100    0.0100    0.0100    0.0100    0.0100    0.0100    0.0100    0.0100
    0.0100    0.0100    0.0100    0.0100    0.0100    0.0100    0.0100    0.0100
    0.0100    0.0100    0.0100    0.0100    0.0100    0.0100    0.0100    0.0100
    0.0100    0.0100    0.0100    0.0100    0.0100    0.0100    0.0100    0.0100
    0.0100    0.0100    0.0100    0.0100    0.0100    0.0100    0.0100    0.0100
    0.0100    0.0100    0.0100    0.0100    0.0100    0.0100    0.0100    0.0100
    0.0100    0.0100    0.0100    0.0100    0.0100    0.0100    0.0100    0.0100
    0.0100    0.0100    0.0100    0.0100    0.0100    0.0100    0.0100    0.0100
    0.0100    0.0100    0.0100    0.0100    0.0100    0.0100    0.0100    0.0100
    0.0100    0.0100    0.0100    0.0100    0.0100    0.0100    0.0100    0.0100
    0.0100    0.0100    0.0100    0.0100    0.0100    0.0100    0.0100    0.0100
    0.0100    0.0100    0.0100    0.0100    0.0100    0.0100    0.0100    0.0100
    0.0100    0.0100    0.0100    0.0100    0.0100    0.0100    0.0100    0.0100
    0.0100    0.0100    0.0100    0.0100    0.0100    0.0100    0.0100    0.0100
    0.0100    0.0100    0.0100    0.0100    0.0100    0.0100    0.0100    0.0100
    0.0100    0.0100    0.0100    0.0100    0.0100    0.0100    0.0100    0.0100
    0.0100    0.0100    0.0100    0.0100    0.0100    0.0100    0.0100    0.0100
    0.0100    0.0100    0.0100    0.0100    0.0100    0.0100    0.0100    0.0100
    0.0100    0.0100    0.0100    0.0100    0.0100    0.0100    0.0100    0.0100
    0.0100    0.0100    0.0100    0.0100    0.0100    0.0100    0.0100    0.0100
    0.0100    0.0100    0.0100    0.0100    0.0100    0.0100    0.0100    0.0100
    0.0100    0.0100    0.0100    0.0100    0.0100    0.0100    0.0100    0.0100
    0.0100    0.0100    0.0100    0.0100    0.0100    0.0100    0.0100    0.0100
    0.0100    0.0100    0.0100    0.0100    0.0100    0.0100    0.0100    0.0100
    0.0100    0.0100    0.0100    0.0100    0.0100    0.0100    0.0100    0.0100
    0.0100    0.0100    0.0100    0.0100    0.0100    0.0100    0.0100    0.0100
    0.0100    0.0100    0.0100    0.0100    0.0100    0.0100    0.0100    0.0100
    0.0100    0.0100    0.0100    0.0100    0.0100    0.0100    0.0100    0.0100
    0.0100    0.0100    0.0100    0.0100    0.0100    0.0100    0.0100    0.0100
    0.0100    0.0100    0.0100    0.0100    0.0100    0.0100    0.0100    0.0100
    0.0100    0.0100    0.0100    0.0100    0.0100    0.0100    0.0100    0.0100
    0.0100    0.0100    0.0100    0.0100    0.0100    0.0100    0.0100    0.0100
    0.0100    0.0100    0.0100    0.0100    0.0100    0.0100    0.0100    0.0100
    0.0100    0.0100    0.0100    0.0100    0.0100    0.0100    0.0100    0.0100
    0.0100    0.0100    0.0100    0.0100    0.0100    0.0100    0.0100    0.0100
    0.0100    0.0100    0.0100    0.0100    0.0100    0.0100    0.0100    0.0100
    0.0100    0.0100    0.0100    0.0100    0.0100    0.0100    0.0100    0.0100
    0.0100    0.0100    0.0100    0.0100    0.0100    0.0100    0.0100    0.0100
    0.0100    0.0100    0.0100    0.0100    0.0100    0.0100    0.0100    0.0100
    0.0100    0.0100    0.0100    0.0100    0.0100    0.0100    0.0100    0.0100
    0.0100    0.0100    0.0100    0.0100    0.0100    0.0100    0.0100    0.0100
    0.0100    0.0100    0.0100    0.0100    0.0100    0.0100    0.0100    0.0100
    0.0100    0.0100    0.0100    0.0100    0.0100    0.0100    0.0100    0.0100
    0.0100    0.0100    0.0100    0.0100    0.0100    0.0100    0.0100    0.0100
    0.0100    0.0100    0.0100    0.0100    0.0100    0.0100    0.0100    0.0100
    0.0100    0.0100    0.0100    0.0100    0.0100    0.0100    0.0100    0.0100
    0.0100    0.0100    0.0100    0.0100    0.0100    0.0100    0.0100    0.0100
    0.0100    0.0100    0.0100    0.0100    0.0100    0.0100    0.0100    0.0100
    0.0100    0.0100    0.0100    0.0100    0.0100    0.0100    0.0100    0.0100
    0.0100    0.0100    0.0100    0.0100    0.0100    0.0100    0.0100    0.0100
    0.0100    0.0100    0.0100    0.0100    0.0100    0.0100    0.0100    0.0100
    0.0100    0.0100    0.0100    0.0100    0.0100    0.0100    0.0100    0.0100
    0.0100    0.0100    0.0100    0.0100    0.0100    0.0100    0.0100    0.0100
    0.0100    0.0100    0.0100    0.0100    0.0100    0.0100    0.0100    0.0100
    0.0100    0.0100    0.0100    0.0100    0.0100    0.0100    0.0100    0.0100
    0.0100    0.0100    0.0100    0.0100    0.0100    0.0100    0.0100    0.0100
    0.0100    0.0100    0.0100    0.0100    0.0100    0.0100    0.0100    0.0100
    0.0100    0.0100    0.0100    0.0100    0.0100    0.0100    0.0100    0.0100
    0.0100    0.0100    0.0100    0.0100    0.0100    0.0100    0.0100    0.0100
    0.0100    0.0100    0.0100    0.0100    0.0100    0.0100    0.0100    0.0100
    0.0100    0.0100    0.0100    0.0100    0.0100    0.0100    0.0100    0.0100
    0.0100    0.0100    0.0100    0.0100    0.0100    0.0100    0.0100    0.0100
    0.0100    0.0100    0.0100    0.0100    0.0100    0.0100    0.0100    0.0100
    0.0100    0.0100    0.0100    0.0100    0.0100    0.0100    0.0100    0.0100
    0.0100    0.0100    0.0100    0.0100    0.0100    0.0100    0.0100    0.0100
    0.0100    0.0100    0.0100    0.0100    0.0100    0.0100    0.0100    0.0100
    0.0100    0.0100    0.0100    0.0100    0.0100    0.0100    0.0100    0.0100
    0.0100    0.0100    0.0100    0.0100    0.0100    0.0100    0.0100    0.0100
    0.0100    0.0100    0.0100    0.0100    0.0100    0.0100    0.0100    0.0100
    0.0100    0.0100    0.0100    0.0100    0.0100    0.0100    0.0100    0.0100
    0.0100    0.0100    0.0100    0.0100    0.0100    0.0100    0.0100    0.0100
    0.0100    0.0100    0.0100    0.0100    0.0100    0.0100    0.0100    0.0100
    0.0100    0.0100    0.0100    0.0100    0.0100    0.0100    0.0100    0.0100
    0.0100    0.0100    0.0100    0.0100    0.0100    0.0100    0.0100    0.0100
    0.0100    0.0100    0.0100    0.0100    0.0100    0.0100
   </PP_RAB>
 </PP_MESH>
  <PP_LOCAL type="real"  size=" 750" columns="4">
   -1.7456126253E+01   -1.7455458229E+01   -1.7453456209E+01   -1.7450126087E+01
   -1.7445477577E+01   -1.7439524018E+01   -1.7432282120E+01   -1.7423771656E+01
   -1.7414015107E+01   -1.7403037277E+01   -1.7390864878E+01   -1.7377526118E+01
   -1.7363050278E+01   -1.7347467305E+01   -1.7330807429E+01   -1.7313100797E+01
   -1.7294377149E+01   -1.7274665524E+01   -1.7253994005E+01   -1.7232389505E+01
   -1.7209877591E+01   -1.7186482341E+01   -1.7162226246E+01   -1.7137130136E+01
   -1.7111213140E+01   -1.7084492675E+01   -1.7056984454E+01   -1.7028702523E+01
   -1.6999659304E+01   -1.6969865666E+01   -1.6939331001E+01   -1.6908063308E+01
   -1.6876069295E+01   -1.6843354472E+01   -1.6809923265E+01   -1.6775779115E+01
   -1.6740924597E+01   -1.6705361519E+01   -1.6669091038E+01   -1.6632113766E+01
   -1.6594429870E+01   -1.6556039176E+01   -1.6516941269E+01   -1.6477135583E+01
   -1.6436621494E+01   -1.6395398405E+01   -1.6353465824E+01   -1.6310823445E+01
   -1.6267471212E+01   -1.6223409395E+01   -1.6178638640E+01   -1.6133160036E+01
   -1.6086975158E+01   -1.6040086116E+01   -1.5992495599E+01   -1.5944206908E+01
   -1.5895223990E+01   -1.5845551464E+01   -1.5795194644E+01   -1.5744159558E+01
   -1.5692452963E+01   -1.5640082350E+01   -1.5587055958E+01   -1.5533382768E+01
   -1.5479072506E+01   -1.5424135638E+01   -1.5368583358E+01   -1.5312427582E+01
   -1.5255680926E+01   -1.5198356696E+01   -1.5140468863E+01   -1.5082032040E+01
   -1.5023061462E+01   -1.4963572953E+01   -1.4903582900E+01   -1.4843108222E+01
   -1.4782166337E+01   -1.4720775131E+01   -1.4658952919E+01   -1.4596718409E+01
   -1.4534090671E+01   -1.4471089091E+01   -1.4407733343E+01   -1.4344043339E+01
   -1.4280039200E+01   -1.4215741213E+01   -1.4151169793E+01   -1.4086345443E+01
   -1.4021288720E+01   -1.3956020193E+01   -1.3890560410E+01   -1.3824929859E+01
   -1.3759148932E+01   -1.3693237896E+01   -1.3627216852E+01   -1.3561105708E+01
   -1.3494924148E+01   -1.3428691597E+01   -1.3362427199E+01   -1.3296149788E+01
   -1.3229877857E+01   -1.3163629544E+01   -1.3097422599E+01   -1.3031274371E+01
   -1.2965201784E+01   -1.2899221319E+01   -1.2833349001E+01   -1.2767600382E+01
   -1.2701990527E+01   -1.2636534005E+01   -1.2571244878E+01   -1.2506136691E+01
   -1.2441222468E+01   -1.2376514705E+01   -1.2312025365E+01   -1.2247765880E+01
   -1.2183747144E+01   -1.2119979519E+01   -1.2056472831E+01   -1.1993236377E+01
   -1.1930278930E+01   -1.1867608739E+01   -1.1805233540E+01   -1.1743160560E+01
   -1.1681396529E+01   -1.1619947685E+01   -1.1558819789E+01   -1.1498018285E+01
   -1.1437547603E+01   -1.1377410579E+01   -1.1317621064E+01   -1.1258168611E+01
   -1.1199012329E+01   -1.1140181952E+01   -1.1081719533E+01   -1.1023614583E+01
   -1.0965863180E+01   -1.0908470203E+01   -1.0851436266E+01   -1.0794762037E+01
   -1.0738448022E+01   -1.0682494421E+01   -1.0626901182E+01   -1.0571668012E+01
   -1.0516794393E+01   -1.0462279595E+01   -1.0408122696E+01   -1.0354322591E+01
   -1.0300878009E+01   -1.0247787528E+01   -1.0195049585E+01   -1.0142662493E+01
   -1.0090624451E+01   -1.0038933560E+01   -9.9875878295E+00   -9.9365851954E+00
   -9.8859235265E+00   -9.8356006372E+00   -9.7856142969E+00   -9.7359622404E+00
   -9.6866421761E+00   -9.6376517958E+00   -9.5889887819E+00   -9.5406508155E+00
   -9.4926355834E+00   -9.4449407849E+00   -9.3975641376E+00   -9.3505033832E+00
   -9.3037562929E+00   -9.2573206712E+00   -9.2111943610E+00   -9.1653752466E+00
   -9.1198612573E+00   -9.0746503697E+00   -9.0297406106E+00   -8.9851300584E+00
   -8.9408168448E+00   -8.8967991560E+00   -8.8530752331E+00   -8.8096433727E+00
   -8.7665019268E+00   -8.7236493026E+00   -8.6810839618E+00   -8.6388044196E+00
   -8.5968092437E+00   -8.5550970527E+00   -8.5136665149E+00   -8.4725163455E+00
   -8.4316453056E+00   -8.3910521994E+00   -8.3507358719E+00   -8.3106952063E+00
   -8.2709291219E+00   -8.2314365706E+00   -8.1922165350E+00   -8.1532680246E+00
   -8.1145900738E+00   -8.0761817385E+00   -8.0380420931E+00   -8.0001702282E+00
   -7.9625652469E+00   -7.9252262626E+00   -7.8881523958E+00   -7.8513427715E+00
   -7.8147965165E+00   -7.7785127569E+00   -7.7424906155E+00   -7.7067292091E+00
   -7.6712276468E+00   -7.6359850272E+00   -7.6010004368E+00   -7.5662729477E+00
   -7.5318016157E+00   -7.4975854790E+00   -7.4636235562E+00   -7.4299148451E+00
   -7.3964583213E+00   -7.3632529369E+00   -7.3302976197E+00   -7.2975912720E+00
   -7.2651327699E+00   -7.2329209627E+00   -7.2009546723E+00   -7.1692326929E+00
   -7.1377537903E+00   -7.1065167023E+00   -7.0755201379E+00   -7.0447627779E+00
   -7.0142432749E+00   -6.9839602532E+00   -6.9539123094E+00   -6.9240980126E+00
   -6.8945159052E+00   -6.8651645027E+00   -6.8360422952E+00   -6.8071477471E+00
   -6.7784792988E+00   -6.7500353665E+00   -6.7218143436E+00   -6.6938146013E+00
   -6.6660344896E+00   -6.6384723379E+00   -6.6111264560E+00   -6.5839951353E+00
   -6.5570766493E+00   -6.5303692546E+00   -6.5038711921E+00   -6.4775806873E+00
   -6.4514959520E+00   -6.4256151844E+00   -6.3999365703E+00   -6.3744582839E+00
   -6.3491784885E+00   -6.3240953373E+00   -6.2992069740E+00   -6.2745115334E+00
   -6.2500071423E+00   -6.2256919194E+00   -6.2015639771E+00   -6.1776214205E+00
   -6.1538623462E+00   -6.1302848503E+00   -6.1068870196E+00   -6.0836669391E+00
   -6.0606226735E+00   -6.0377522896E+00   -6.0150538578E+00   -5.9925254597E+00
   -5.9701651930E+00   -5.9479711735E+00   -5.9259415511E+00   -5.9040745077E+00
   -5.8823682521E+00   -5.8608210191E+00   -5.8394310657E+00   -5.8181966764E+00
   -5.7971161610E+00   -5.7761878525E+00   -5.7554101084E+00   -5.7347813096E+00
   -5.7142998603E+00   -5.6939641874E+00   -5.6737727400E+00   -5.6537239892E+00
   -5.6338164277E+00   -5.6140485693E+00   -5.5944189484E+00   -5.5749261201E+00
   -5.5555686595E+00   -5.5363451614E+00   -5.5172542398E+00   -5.4982945281E+00
   -5.4794646782E+00   -5.4607633604E+00   -5.4421892632E+00   -5.4237410927E+00
   -5.4054175727E+00   -5.3872174441E+00   -5.3691394646E+00   -5.3511824088E+00
   -5.3333450672E+00   -5.3156262469E+00   -5.2980247703E+00   -5.2805394756E+00
   -5.2631692164E+00   -5.2459128611E+00   -5.2287692930E+00   -5.2117374099E+00
   -5.1948161240E+00   -5.1780043615E+00   -5.1613010625E+00   -5.1447051808E+00
   -5.1282156833E+00   -5.1118315506E+00   -5.0955517759E+00   -5.0793753654E+00
   -5.0633013376E+00   -5.0473287237E+00   -5.0314565670E+00   -5.0156839226E+00
   -5.0000098577E+00   -4.9844334510E+00   -4.9689537925E+00   -4.9535699838E+00
   -4.9382811372E+00   -4.9230863762E+00   -4.9079848350E+00   -4.8929756584E+00
   -4.8780580015E+00   -4.8632310298E+00   -4.8484939189E+00   -4.8338458544E+00
   -4.8192860315E+00   -4.8048136554E+00   -4.7904279406E+00   -4.7761281110E+00
   -4.7619133997E+00   -4.7477830491E+00   -4.7337363103E+00   -4.7197724434E+00
   -4.7058907173E+00   -4.6920904092E+00   -4.6783708049E+00   -4.6647311987E+00
   -4.6511708928E+00   -4.6376891976E+00   -4.6242854316E+00   -4.6109589210E+00
   -4.5977089998E+00   -4.5845350096E+00   -4.5714362997E+00   -4.5584122265E+00
   -4.5454621540E+00   -4.5325854533E+00   -4.5197815026E+00   -4.5070496870E+00
   -4.4943893987E+00   -4.4818000367E+00   -4.4692810065E+00   -4.4568317204E+00
   -4.4444515973E+00   -4.4321400624E+00   -4.4198965471E+00   -4.4077204895E+00
   -4.3956113336E+00   -4.3835685293E+00   -4.3715915330E+00   -4.3596798066E+00
   -4.3478328180E+00   -4.3360500410E+00   -4.3243309548E+00   -4.3126750445E+00
   -4.3010818006E+00   -4.2895507191E+00   -4.2780813012E+00   -4.2666730538E+00
   -4.2553254887E+00   -4.2440381231E+00   -4.2328104792E+00   -4.2216420843E+00
   -4.2105324705E+00   -4.1994811751E+00   -4.1884877400E+00   -4.1775517121E+00
   -4.1666726428E+00   -4.1558500884E+00   -4.1450836095E+00   -4.1343727714E+00
   -4.1237171441E+00   -4.1131163016E+00   -4.1025698225E+00   -4.0920772898E+00
   -4.0816382906E+00   -4.0712524162E+00   -4.0609192621E+00   -4.0506384279E+00
   -4.0404095173E+00   -4.0302321379E+00   -4.0201059012E+00   -4.0100304227E+00
   -4.0000053217E+00   -3.9900302214E+00   -3.9801047486E+00   -3.9702285338E+00
   -3.9604012113E+00   -3.9506224190E+00   -3.9408917981E+00   -3.9312089937E+00
   -3.9215736541E+00   -3.9119854313E+00   -3.9024439804E+00   -3.8929489600E+00
   -3.8835000320E+00   -3.8740968617E+00   -3.8647391175E+00   -3.8554264709E+00
   -3.8461585968E+00   -3.8369351731E+00   -3.8277558806E+00   -3.8186204035E+00
   -3.8095284288E+00   -3.8004796465E+00   -3.7914737495E+00   -3.7825104337E+00
   -3.7735893978E+00   -3.7647103433E+00   -3.7558729746E+00   -3.7470769989E+00
   -3.7383221259E+00   -3.7296080684E+00   -3.7209345414E+00   -3.7123012628E+00
   -3.7037079533E+00   -3.6951543358E+00   -3.6866401360E+00   -3.6781650821E+00
   -3.6697289046E+00   -3.6613313368E+00   -3.6529721140E+00   -3.6446509744E+00
   -3.6363676583E+00   -3.6281219083E+00   -3.6199134694E+00   -3.6117420891E+00
   -3.6036075168E+00   -3.5955095046E+00   -3.5874478063E+00   -3.5794221784E+00
   -3.5714323793E+00   -3.5634781695E+00   -3.5555593119E+00   -3.5476755713E+00
   -3.5398267145E+00   -3.5320125106E+00   -3.5242327306E+00   -3.5164871475E+00
   -3.5087755363E+00   -3.5010976741E+00   -3.4934533397E+00   -3.4858423140E+00
   -3.4782643798E+00   -3.4707193218E+00   -3.4632069264E+00   -3.4557269820E+00
   -3.4482792789E+00   -3.4408636090E+00   -3.4334797660E+00   -3.4261275456E+00
   -3.4188067450E+00   -3.4115171632E+00   -3.4042586009E+00   -3.3970308607E+00
   -3.3898337466E+00   -3.3826670643E+00   -3.3755306212E+00   -3.3684242264E+00
   -3.3613476904E+00   -3.3543008255E+00   -3.3472834455E+00   -3.3402953656E+00
   -3.3333364028E+00   -3.3264063755E+00   -3.3195051036E+00   -3.3126324083E+00
   -3.3057881128E+00   -3.2989720412E+00   -3.2921840193E+00   -3.2854238743E+00
   -3.2786914350E+00   -3.2719865312E+00   -3.2653089945E+00   -3.2586586575E+00
   -3.2520353545E+00   -3.2454389209E+00   -3.2388691936E+00   -3.2323260107E+00
   -3.2258092117E+00   -3.2193186373E+00   -3.2128541295E+00   -3.2064155316E+00
   -3.2000026881E+00   -3.1936154449E+00   -3.1872536489E+00   -3.1809171483E+00
   -3.1746057927E+00   -3.1683194326E+00   -3.1620579198E+00   -3.1558211073E+00
   -3.1496088492E+00   -3.1434210009E+00   -3.1372574186E+00   -3.1311179601E+00
   -3.1250024838E+00   -3.1189108496E+00   -3.1128429183E+00   -3.1067985518E+00
   -3.1007776132E+00   -3.0947799664E+00   -3.0888054767E+00   -3.0828540100E+00
   -3.0769254337E+00   -3.0710196158E+00   -3.0651364257E+00   -3.0592757335E+00
   -3.0534374103E+00   -3.0476213285E+00   -3.0418273610E+00   -3.0360553821E+00
   -3.0303052668E+00   -3.0245768911E+00   -3.0188701320E+00   -3.0131848673E+00
   -3.0075209758E+00   -3.0018783373E+00   -2.9962568322E+00   -2.9906563422E+00
   -2.9850767496E+00   -2.9795179376E+00   -2.9739797903E+00   -2.9684621929E+00
   -2.9629650310E+00   -2.9574881914E+00   -2.9520315616E+00   -2.9465950299E+00
   -2.9411784854E+00   -2.9357818183E+00   -2.9304049192E+00   -2.9250476797E+00
   -2.9197099923E+00   -2.9143917500E+00   -2.9090928468E+00   -2.9038131774E+00
   -2.8985526373E+00   -2.8933111227E+00   -2.8880885306E+00   -2.8828847587E+00
   -2.8776997054E+00   -2.8725332699E+00   -2.8673853521E+00   -2.8622558527E+00
   -2.8571446730E+00   -2.8520517150E+00   -2.8469768814E+00   -2.8419200757E+00
   -2.8368812020E+00   -2.8318601650E+00   -2.8268568702E+00   -2.8218712238E+00
   -2.8169031325E+00   -2.8119525038E+00   -2.8070192457E+00   -2.8021032670E+00
   -2.7972044771E+00   -2.7923227860E+00   -2.7874581043E+00   -2.7826103433E+00
   -2.7777794148E+00   -2.7729652313E+00   -2.7681677059E+00   -2.7633867523E+00
   -2.7586222848E+00   -2.7538742182E+00   -2.7491424681E+00   -2.7444269504E+00
   -2.7397275818E+00   -2.7350442794E+00   -2.7303769610E+00   -2.7257255450E+00
   -2.7210899501E+00   -2.7164700958E+00   -2.7118659020E+00   -2.7072772893E+00
   -2.7027041787E+00   -2.6981464918E+00   -2.6936041507E+00   -2.6890770779E+00
   -2.6845651968E+00   -2.6800684308E+00   -2.6755867042E+00   -2.6711199416E+00
   -2.6666680683E+00   -2.6622310100E+00   -2.6578086927E+00   -2.6534010431E+00
   -2.6490079884E+00   -2.6446294563E+00   -2.6402653748E+00   -2.6359156725E+00
   -2.6315802785E+00   -2.6272591222E+00   -2.6229521337E+00   -2.6186592434E+00