<UPF version="2.0.1">
  <PP_INFO>

 This pseudopotential file has been produced using the code
 ONCVPSP  (Optimized Norm-Conservinng Vanderbilt PSeudopotential)
 fully-relativistic version 3.3.1 12/12/2017 by D. R. Hamann
 The code is available through a link at URL www.mat-simresearch.com.
 Documentation with the package provides a full discription of the
 input data below.


 While it is not required under the terms of the GNU GPL, it is
 suggested that you cite D. R. Hamann, Phys. Rev. B 88, 085117 (2013)
 in any publication using these pseudopotentials.

    <PP_INPUTFILE>
# ATOM AND REFERENCE CONFIGURATION
# atsym  z   nc   nv     iexc    psfile
  O  8.00    1    2       3      upf
#
#   n    l    f        energy (Ha)
    1    0    2.00
    2    0    2.00
    2    1    4.00
#
# PSEUDOPOTENTIAL AND OPTIMIZATION
# lmax
    1
#
#   l,   rc,     ep,   ncon, nbas, qcut
    0   1.29195  -0.87289    5    8   8.98916
    1   1.47310  -0.33757    5    8   9.14990
#
# LOCAL POTENTIAL
# lloc, lpopt,  rc(5),   dvloc0
    4    5   0.90330      0.00000
#
# VANDERBILT-KLEINMAN-BYLANDER PROJECTORs
# l, nproj, debl
    0    2   1.51851
    1    2   1.53586
#
# MODEL CORE CHARGE
# icmod, fcfact, rcfact
    0   0.00000   0.00000
#
# LOG DERIVATIVE ANALYSIS
# epsh1, epsh2, depsh
   -5.00    3.00    0.02
#
# OUTPUT GRID
# rlmax, drl
    6.00    0.01
#
# TEST CONFIGURATIONS
# ncnf
    0
# nvcnf
#   n    l    f
    </PP_INPUTFILE>
  </PP_INFO>
  <!--                               -->
  <!-- END OF HUMAN READABLE SECTION -->
  <!--                               -->
    <PP_HEADER
       generated="Generated using ONCVPSP code by D. R. Hamann"
       author="anonymous"
       date="210904"
       comment=""
       element="O "
       pseudo_type="NC"
       relativistic="full"
       is_ultrasoft="F"
       is_paw="F"
       is_coulomb="F"
       has_so="T"
       has_wfc="F"
       has_gipaw="F"
       core_correction="F"
       functional="PZ"
       z_valence="    6.00"
       total_psenergy="  -3.13525127441E+01"
       rho_cutoff="   9.25000000000E+00"
       l_max="1"
       l_local="-1"
       mesh_size="   926"
       number_of_wfc="3"
       number_of_proj="6"/>
 <PP_MESH>
   <PP_R type="real"  size=" 926" columns="8">
    0.0000    0.0100    0.0200    0.0300    0.0400    0.0500    0.0600    0.0700
    0.0800    0.0900    0.1000    0.1100    0.1200    0.1300    0.1400    0.1500
    0.1600    0.1700    0.1800    0.1900    0.2000    0.2100    0.2200    0.2300
    0.2400    0.2500    0.2600    0.2700    0.2800    0.2900    0.3000    0.3100
    0.3200    0.3300    0.3400    0.3500    0.3600    0.3700    0.3800    0.3900
    0.4000    0.4100    0.4200    0.4300    0.4400    0.4500    0.4600    0.4700
    0.4800    0.4900    0.5000    0.5100    0.5200    0.5300    0.5400    0.5500
    0.5600    0.5700    0.5800    0.5900    0.6000    0.6100    0.6200    0.6300
    0.6400    0.6500    0.6600    0.6700    0.6800    0.6900    0.7000    0.7100
    0.7200    0.7300    0.7400    0.7500    0.7600    0.7700    0.7800    0.7900
    0.8000    0.8100    0.8200    0.8300    0.8400    0.8500    0.8600    0.8700
    0.8800    0.8900    0.9000    0.9100    0.9200    0.9300    0.9400    0.9500
    0.9600    0.9700    0.9800    0.9900    1.0000    1.0100    1.0200    1.0300
    1.0400    1.0500    1.0600    1.0700    1.0800    1.0900    1.1000    1.1100
    1.1200    1.1300    1.1400    1.1500    1.1600    1.1700    1.1800    1.1900
    1.2000    1.2100    1.2200    1.2300    1.2400    1.2500    1.2600    1.2700
    1.2800    1.2900    1.3000    1.3100    1.3200    1.3300    1.3400    1.3500
    1.3600    1.3700    1.3800    1.3900    1.4000    1.4100    1.4200    1.4300
    1.4400    1.4500    1.4600    1.4700    1.4800    1.4900    1.5000    1.5100
    1.5200    1.5300    1.5400    1.5500    1.5600    1.5700    1.5800    1.5900
    1.6000    1.6100    1.6200    1.6300    1.6400    1.6500    1.6600    1.6700
    1.6800    1.6900    1.7000    1.7100    1.7200    1.7300    1.7400    1.7500
    1.7600    1.7700    1.7800    1.7900    1.8000    1.8100    1.8200    1.8300
    1.8400    1.8500    1.8600    1.8700    1.8800    1.8900    1.9000    1.9100
    1.9200    1.9300    1.9400    1.9500    1.9600    1.9700    1.9800    1.9900
    2.0000    2.0100    2.0200    2.0300    2.0400    2.0500    2.0600    2.0700
    2.0800    2.0900    2.1000    2.1100    2.1200    2.1300    2.1400    2.1500
    2.1600    2.1700    2.1800    2.1900    2.2000    2.2100    2.2200    2.2300
    2.2400    2.2500    2.2600    2.2700    2.2800    2.2900    2.3000    2.3100
    2.3200    2.3300    2.3400    2.3500    2.3600    2.3700    2.3800    2.3900
    2.4000    2.4100    2.4200    2.4300    2.4400    2.4500    2.4600    2.4700
    2.4800    2.4900    2.5000    2.5100    2.5200    2.5300    2.5400    2.5500
    2.5600    2.5700    2.5800    2.5900    2.6000    2.6100    2.6200    2.6300
    2.6400    2.6500    2.6600    2.6700    2.6800    2.6900    2.7000    2.7100
    2.7200    2.7300    2.7400    2.7500    2.7600    2.7700    2.7800    2.7900
    2.8000    2.8100    2.8200    2.8300    2.8400    2.8500    2.8600    2.8700
    2.8800    2.8900    2.9000    2.9100    2.9200    2.9300    2.9400    2.9500
    2.9600    2.9700    2.9800    2.9900    3.0000    3.0100    3.0200    3.0300
    3.0400    3.0500    3.0600    3.0700    3.0800    3.0900    3.1000    3.1100
    3.1200    3.1300    3.1400    3.1500    3.1600    3.1700    3.1800    3.1900
    3.2000    3.2100    3.2200    3.2300    3.2400    3.2500    3.2600    3.2700
    3.2800    3.2900    3.3000    3.3100    3.3200    3.3300    3.3400    3.3500
    3.3600    3.3700    3.3800    3.3900    3.4000    3.4100    3.4200    3.4300
    3.4400    3.4500    3.4600    3.4700    3.4800    3.4900    3.5000    3.5100
    3.5200    3.5300    3.5400    3.5500    3.5600    3.5700    3.5800    3.5900
    3.6000    3.6100    3.6200    3.6300    3.6400    3.6500    3.6600    3.6700
    3.6800    3.6900    3.7000    3.7100    3.7200    3.7300    3.7400    3.7500
    3.7600    3.7700    3.7800    3.7900    3.8000    3.8100    3.8200    3.8300
    3.8400    3.8500    3.8600    3.8700    3.8800    3.8900    3.9000    3.9100
    3.9200    3.9300    3.9400    3.9500    3.9600    3.9700    3.9800    3.9900
    4.0000    4.0100    4.0200    4.0300    4.0400    4.0500    4.0600    4.0700
    4.0800    4.0900    4.1000    4.1100    4.1200    4.1300    4.1400    4.1500
    4.1600    4.1700    4.1800    4.1900    4.2000    4.2100    4.2200    4.2300
    4.2400    4.2500    4.2600    4.2700    4.2800    4.2900    4.3000    4.3100
    4.3200    4.3300    4.3400    4.3500    4.3600    4.3700    4.3800    4.3900
    4.4000    4.4100    4.4200    4.4300    4.4400    4.4500    4.4600    4.4700
    4.4800    4.4900    4.5000    4.5100    4.5200    4.5300    4.5400    4.5500
    4.5600    4.5700    4.5800    4.5900    4.6000    4.6100    4.6200    4.6300
    4.6400    4.6500    4.6600    4.6700    4.6800    4.6900    4.7000    4.7100
    4.7200    4.7300    4.7400    4.7500    4.7600    4.7700    4.7800    4.7900
    4.8000    4.8100    4.8200    4.8300    4.8400    4.8500    4.8600    4.8700
    4.8800    4.8900    4.9000    4.9100    4.9200    4.9300    4.9400    4.9500
    4.9600    4.9700    4.9800    4.9900    5.0000    5.0100    5.0200    5.0300
    5.0400    5.0500    5.0600    5.0700    5.0800    5.0900    5.1000    5.1100
    5.1200    5.1300    5.1400    5.1500    5.1600    5.1700    5.1800    5.1900
    5.2000    5.2100    5.2200    5.2300    5.2400    5.2500    5.2600    5.2700
    5.2800    5.2900    5.3000    5.3100    5.3200    5.3300    5.3400    5.3500
    5.3600    5.3700    5.3800    5.3900    5.4000    5.4100    5.4200    5.4300
    5.4400    5.4500    5.4600    5.4700    5.4800    5.4900    5.5000    5.5100
    5.5200    5.5300    5.5400    5.5500    5.5600    5.5700    5.5800    5.5900
    5.6000    5.6100    5.6200    5.6300    5.6400    5.6500    5.6600    5.6700
    5.6800    5.6900    5.7000    5.7100    5.7200    5.7300    5.7400    5.7500
    5.7600    5.7700    5.7800    5.7900    5.8000    5.8100    5.8200    5.8300
    5.8400    5.8500    5.8600    5.8700    5.8800    5.8900    5.9000    5.9100
    5.9200    5.9300    5.9400    5.9500    5.9600    5.9700    5.9800    5.9900
    6.0000    6.0100    6.0200    6.0300    6.0400    6.0500    6.0600    6.0700
    6.0800    6.0900    6.1000    6.1100    6.1200    6.1300    6.1400    6.1500
    6.1600    6.1700    6.1800    6.1900    6.2000    6.2100    6.2200    6.2300
    6.2400    6.2500    6.2600    6.2700    6.2800    6.2900    6.3000    6.3100
    6.3200    6.3300    6.3400    6.3500    6.3600    6.3700    6.3800    6.3900
    6.4000    6.4100    6.4200    6.4300    6.4400    6.4500    6.4600    6.4700
    6.4800    6.4900    6.5000    6.5100    6.5200    6.5300    6.5400    6.5500
    6.5600    6.5700    6.5800    6.5900    6.6000    6.6100    6.6200    6.6300
    6.6400    6.6500    6.6600    6.6700    6.6800    6.6900    6.7000    6.7100
    6.7200    6.7300    6.7400    6.7500    6.7600    6.7700    6.7800    6.7900
    6.8000    6.8100    6.8200    6.8300    6.8400    6.8500    6.8600    6.8700
    6.8800    6.8900    6.9000    6.9100    6.9200    6.9300    6.9400    6.9500
    6.9600    6.9700    6.9800    6.9900    7.0000    7.0100    7.0200    7.0300
    7.0400    7.0500    7.0600    7.0700    7.0800    7.0900    7.1000    7.1100
    7.1200    7.1300    7.1400    7.1500    7.1600    7.1700    7.1800    7.1900
    7.2000    7.2100    7.2200    7.2300    7.2400    7.2500    7.2600    7.2700
    7.2800    7.2900    7.3000    7.3100    7.3200    7.3300    7.3400    7.3500
    7.3600    7.3700    7.3800    7.3900    7.4000    7.4100    7.4200    7.4300
    7.4400    7.4500    7.4600    7.4700    7.4800    7.4900    7.5000    7.5100
    7.5200    7.5300    7.5400    7.5500    7.5600    7.5700    7.5800    7.5900
    7.6000    7.6100    7.6200    7.6300    7.6400    7.6500    7.6600    7.6700
    7.6800    7.6900    7.7000    7.7100    7.7200    7.7300    7.7400    7.7500
    7.7600    7.7700    7.7800    7.7900    7.8000    7.8100    7.8200    7.8300
    7.8400    7.8500    7.8600    7.8700    7.8800    7.8900    7.9000    7.9100
    7.9200    7.9300    7.9400    7.9500    7.9600    7.9700    7.9800    7.9900
    8.0000    8.0100    8.0200    8.0300    8.0400    8.0500    8.0600    8.0700
    8.0800    8.0900    8.1000    8.1100    8.1200    8.1300    8.1400    8.1500
    8.1600    8.1700    8.1800    8.1900    8.2000    8.2100    8.2200    8.2300
    8.2400    8.2500    8.2600    8.2700    8.2800    8.2900    8.3000    8.3100
    8.3200    8.3300    8.3400    8.3500    8.3600    8.3700    8.3800    8.3900
    8.4000    8.4100    8.4200    8.4300    8.4400    8.4500    8.4600    8.4700
    8.4800    8.4900    8.5000    8.5100    8.5200    8.5300    8.5400    8.5500
    8.5600    8.5700    8.5800    8.5900    8.6000    8.6100    8.6200    8.6300
    8.6400    8.6500    8.6600    8.6700    8.6800    8.6900    8.7000    8.7100
    8.7200    8.7300    8.7400    8.7500    8.7600    8.7700    8.7800    8.7900
    8.8000    8.8100    8.8200    8.8300    8.8400    8.8500    8.8600    8.8700
    8.8800    8.8900    8.9000    8.9100    8.9200    8.9300    8.9400    8.9500
    8.9600    8.9700    8.9800    8.9900    9.0000    9.0100    9.0200    9.0300
    9.0400    9.0500    9.0600    9.0700    9.0800    9.0900    9.1000    9.1100
    9.1200    9.1300    9.1400    9.1500    9.1600    9.1700    9.1800    9.1900
    9.2000    9.2100    9.2200    9.2300    9.2400    9.2500
   </PP_R>
   <PP_RAB type="real"  size=" 926" columns="8">
    0.0100    0.0100    0.0100    0.0100    0.0100    0.0100    0.0100    0.0100
    0.0100    0.0100    0.0100    0.0100    0.0100    0.0100    0.0100    0.0100
    0.0100    0.0100    0.0100    0.0100    0.0100    0.0100    0.0100    0.0100
    0.0100    0.0100    0.0100    0.0100    0.0100    0.0100    0.0100    0.0100
    0.0100    0.0100    0.0100    0.0100    0.0100    0.0100    0.0100    0.0100
    0.0100    0.0100    0.0100    0.0100    0.0100    0.0100    0.0100    0.0100
    0.0100    0.0100    0.0100    0.0100    0.0100    0.0100    0.0100    0.0100
    0.0100    0.0100    0.0100    0.0100    0.0100    0.0100    0.0100    0.0100
    0.0100    0.0100    0.0100    0.0100    0.0100    0.0100    0.0100    0.0100
    0.0100    0.0100    0.0100    0.0100    0.0100    0.0100    0.0100    0.0100
    0.0100    0.0100    0.0100    0.0100    0.0100    0.0100    0.0100    0.0100
    0.0100    0.0100    0.0100    0.0100    0.0100    0.0100    0.0100    0.0100
    0.0100    0.0100    0.0100    0.0100    0.0100    0.0100    0.0100    0.0100
    0.0100    0.0100    0.0100    0.0100    0.0100    0.0100    0.0100    0.0100
    0.0100    0.0100    0.0100    0.0100    0.0100    0.0100    0.0100    0.0100
    0.0100    0.0100    0.0100    0.0100    0.0100    0.0100    0.0100    0.0100
    0.0100    0.0100    0.0100    0.0100    0.0100    0.0100    0.0100    0.0100
    0.0100    0.0100    0.0100    0.0100    0.0100    0.0100    0.0100    0.0100
    0.0100    0.0100    0.0100    0.0100    0.0100    0.0100    0.0100    0.0100
    0.0100    0.0100    0.0100    0.0100    0.0100    0.0100    0.0100    0.0100
    0.0100    0.0100    0.0100    0.0100    0.0100    0.0100    0.0100    0.0100
    0.0100    0.0100    0.0100    0.0100    0.0100    0.0100    0.0100    0.0100
    0.0100    0.0100    0.0100    0.0100    0.0100    0.0100    0.0100    0.0100
    0.0100    0.0100    0.0100    0.0100    0.0100    0.0100    0.0100    0.0100
    0.0100    0.0100    0.0100    0.0100    0.0100    0.0100    0.0100    0.0100
    0.0100    0.0100    0.0100    0.0100    0.0100    0.0100    0.0100    0.0100
    0.0100    0.0100    0.0100    0.0100    0.0100    0.0100    0.0100    0.0100
    0.0100    0.0100    0.0100    0.0100    0.0100    0.0100    0.0100    0.0100
    0.0100    0.0100    0.0100    0.0100    0.0100    0.0100    0.0100    0.0100
    0.0100    0.0100    0.0100    0.0100    0.0100    0.0100    0.0100    0.0100
    0.0100    0.0100    0.0100    0.0100    0.0100    0.0100    0.0100    0.0100
    0.0100    0.0100    0.0100    0.0100    0.0100    0.0100    0.0100    0.0100
    0.0100    0.0100    0.0100    0.0100    0.0100    0.0100    0.0100    0.0100
    0.0100    0.0100    0.0100    0.0100    0.0100    0.0100    0.0100    0.0100
    0.0100    0.0100    0.0100    0.0100    0.0100    0.0100    0.0100    0.0100
    0.0100    0.0100    0.0100    0.0100    0.0100    0.0100    0.0100    0.0100
    0.0100    0.0100    0.0100    0.0100    0.0100    0.0100    0.0100    0.0100
    0.0100    0.0100    0.0100    0.0100    0.0100    0.0100    0.0100    0.0100
    0.0100    0.0100    0.0100    0.0100    0.0100    0.0100    0.0100    0.0100
    0.0100    0.0100    0.0100    0.0100    0.0100    0.0100    0.0100    0.0100
    0.0100    0.0100    0.0100    0.0100    0.0100    0.0100    0.0100    0.0100
    0.0100    0.0100    0.0100    0.0100    0.0100    0.0100    0.0100    0.0100
    0.0100    0.0100    0.0100    0.0100    0.0100    0.0100    0.0100    0.0100
    0.0100    0.0100    0.0100    0.0100    0.0100    0.0100    0.0100    0.0100
    0.0100    0.0100    0.0100    0.0100    0.0100    0.0100    0.0100    0.0100
    0.0100    0.0100    0.0100    0.0100    0.0100    0.0100    0.0100    0.0100
    0.0100    0.0100    0.0100    0.0100    0.0100    0.0100    0.0100    0.0100
    0.0100    0.0100    0.0100    0.0100    0.0100    0.0100    0.0100    0.0100
    0.0100    0.0100    0.0100    0.0100    0.0100    0.0100    0.0100    0.0100
    0.0100    0.0100    0.0100    0.0100    0.0100    0.0100    0.0100    0.0100
    0.0100    0.0100    0.0100    0.0100    0.0100    0.0100    0.0100    0.0100
    0.0100    0.0100    0.0100    0.0100    0.0100    0.0100    0.0100    0.0100
    0.0100    0.0100    0.0100    0.0100    0.0100    0.0100    0.0100    0.0100
    0.0100    0.0100    0.0100    0.0100    0.0100    0.0100    0.0100    0.0100
    0.0100    0.0100    0.0100    0.0100    0.0100    0.0100    0.0100    0.0100
    0.0100    0.0100    0.0100    0.0100    0.0100    0.0100    0.0100    0.0100
    0.0100    0.0100    0.0100    0.0100    0.0100    0.0100    0.0100    0.0100
    0.0100    0.0100    0.0100    0.0100    0.0100    0.0100    0.0100    0.0100
    0.0100    0.0100    0.0100    0.0100    0.0100    0.0100    0.0100    0.0100
    0.0100    0.0100    0.0100    0.0100    0.0100    0.0100    0.0100    0.0100
    0.0100    0.0100    0.0100    0.0100    0.0100    0.0100    0.0100    0.0100
    0.0100    0.0100    0.0100    0.0100    0.0100    0.0100    0.0100    0.0100
    0.0100    0.0100    0.0100    0.0100    0.0100    0.0100    0.0100    0.0100
    0.0100    0.0100    0.0100    0.0100    0.0100    0.0100    0.0100    0.0100
    0.0100    0.0100    0.0100    0.0100    0.0100    0.0100    0.0100    0.0100
    0.0100    0.0100    0.0100    0.0100    0.0100    0.0100    0.0100    0.0100
    0.0100    0.0100    0.0100    0.0100    0.0100    0.0100    0.0100    0.0100
    0.0100    0.0100    0.0100    0.0100    0.0100    0.0100    0.0100    0.0100
    0.0100    0.0100    0.0100    0.0100    0.0100    0.0100    0.0100    0.0100
    0.0100    0.0100    0.0100    0.0100    0.0100    0.0100    0.0100    0.0100
    0.0100    0.0100    0.0100    0.0100    0.0100    0.0100    0.0100    0.0100
    0.0100    0.0100    0.0100    0.0100    0.0100    0.0100    0.0100    0.0100
    0.0100    0.0100    0.0100    0.0100    0.0100    0.0100    0.0100    0.0100
    0.0100    0.0100    0.0100    0.0100    0.0100    0.0100    0.0100    0.0100
    0.0100    0.0100    0.0100    0.0100    0.0100    0.0100    0.0100    0.0100
    0.0100    0.0100    0.0100    0.0100    0.0100    0.0100    0.0100    0.0100
    0.0100    0.0100    0.0100    0.0100    0.0100    0.0100    0.0100    0.0100
    0.0100    0.0100    0.0100    0.0100    0.0100    0.0100    0.0100    0.0100
    0.0100    0.0100    0.0100    0.0100    0.0100    0.0100    0.0100    0.0100
    0.0100    0.0100    0.0100    0.0100    0.0100    0.0100    0.0100    0.0100
    0.0100    0.0100    0.0100    0.0100    0.0100    0.0100    0.0100    0.0100
    0.0100    0.0100    0.0100    0.0100    0.0100    0.0100    0.0100    0.0100
    0.0100    0.0100    0.0100    0.0100    0.0100    0.0100    0.0100    0.0100
    0.0100    0.0100    0.0100    0.0100    0.0100    0.0100    0.0100    0.0100
    0.0100    0.0100    0.0100    0.0100    0.0100    0.0100    0.0100    0.0100
    0.0100    0.0100    0.0100    0.0100    0.0100    0.0100    0.0100    0.0100
    0.0100    0.0100    0.0100    0.0100    0.0100    0.0100    0.0100    0.0100
    0.0100    0.0100    0.0100    0.0100    0.0100    0.0100    0.0100    0.0100
    0.0100    0.0100    0.0100    0.0100    0.0100    0.0100    0.0100    0.0100
    0.0100    0.0100    0.0100    0.0100    0.0100    0.0100    0.0100    0.0100
    0.0100    0.0100    0.0100    0.0100    0.0100    0.0100    0.0100    0.0100
    0.0100    0.0100    0.0100    0.0100    0.0100    0.0100    0.0100    0.0100
    0.0100    0.0100    0.0100    0.0100    0.0100    0.0100    0.0100    0.0100
    0.0100    0.0100    0.0100    0.0100    0.0100    0.0100    0.0100    0.0100
    0.0100    0.0100    0.0100    0.0100    0.0100    0.0100    0.0100    0.0100
    0.0100    0.0100    0.0100    0.0100    0.0100    0.0100    0.0100    0.0100
    0.0100    0.0100    0.0100    0.0100    0.0100    0.0100    0.0100    0.0100
    0.0100    0.0100    0.0100    0.0100    0.0100    0.0100    0.0100    0.0100
    0.0100    0.0100    0.0100    0.0100    0.0100    0.0100    0.0100    0.0100
    0.0100    0.0100    0.0100    0.0100    0.0100    0.0100    0.0100    0.0100
    0.0100    0.0100    0.0100    0.0100    0.0100    0.0100    0.0100    0.0100
    0.0100    0.0100    0.0100    0.0100    0.0100    0.0100    0.0100    0.0100
    0.0100    0.0100    0.0100    0.0100    0.0100    0.0100    0.0100    0.0100
    0.0100    0.0100    0.0100    0.0100    0.0100    0.0100    0.0100    0.0100
    0.0100    0.0100    0.0100    0.0100    0.0100    0.0100    0.0100    0.0100
    0.0100    0.0100    0.0100    0.0100    0.0100    0.0100    0.0100    0.0100
    0.0100    0.0100    0.0100    0.0100    0.0100    0.0100    0.0100    0.0100
    0.0100    0.0100    0.0100    0.0100    0.0100    0.0100    0.0100    0.0100
    0.0100    0.0100    0.0100    0.0100    0.0100    0.0100    0.0100    0.0100
    0.0100    0.0100    0.0100    0.0100    0.0100    0.0100    0.0100    0.0100
    0.0100    0.0100    0.0100    0.0100    0.0100    0.0100    0.0100    0.0100
    0.0100    0.0100    0.0100    0.0100    0.0100    0.0100    0.0100    0.0100
    0.0100    0.0100    0.0100    0.0100    0.0100    0.0100    0.0100    0.0100
    0.0100    0.0100    0.0100    0.0100    0.0100    0.0100    0.0100    0.0100
    0.0100    0.0100    0.0100    0.0100    0.0100    0.0100    0.0100    0.0100
    0.0100    0.0100    0.0100    0.0100    0.0100    0.0100
   </PP_RAB>
 </PP_MESH>
  <PP_LOCAL type="real"  size=" 926" columns="4">
   -2.9162697836E+01   -2.9157926289E+01   -2.9143583359E+01   -2.9119803014E+01
   -2.9086763100E+01   -2.9044696092E+01   -2.8993875597E+01   -2.8934602411E+01
   -2.8867213964E+01   -2.8791898901E+01   -2.8709069506E+01   -2.8619027907E+01
   -2.8522060822E+01   -2.8418437472E+01   -2.8308408934E+01   -2.8192208528E+01
   -2.8070052882E+01   -2.7942143425E+01   -2.7808668081E+01   -2.7669803029E+01
   -2.7525714434E+01   -2.7376560090E+01   -2.7222490927E+01   -2.7063652387E+01
   -2.6900185652E+01   -2.6732228727E+01   -2.6559917398E+01   -2.6383386060E+01
   -2.6202768438E+01   -2.6018198202E+01   -2.5829809498E+01   -2.5637737392E+01
   -2.5442118249E+01   -2.5243090037E+01   -2.5040792583E+01   -2.4835367772E+01
   -2.4626959695E+01   -2.4415714762E+01   -2.4201781773E+01   -2.3985311947E+01
   -2.3766458927E+01   -2.3545378751E+01   -2.3322229793E+01   -2.3097172680E+01
   -2.2870370185E+01   -2.2641987094E+01   -2.2412190056E+01   -2.2181147414E+01
   -2.1949029007E+01   -2.1716005970E+01   -2.1482250505E+01   -2.1247935643E+01
   -2.1013234989E+01   -2.0778322459E+01   -2.0543371994E+01   -2.0308557274E+01
   -2.0074051416E+01   -1.9840026659E+01   -1.9606654047E+01   -1.9374103096E+01
   -1.9142541463E+01   -1.8912134597E+01   -1.8683045392E+01   -1.8455433828E+01
   -1.8229456615E+01   -1.8005266824E+01   -1.7783013516E+01   -1.7562841374E+01
   -1.7344890320E+01   -1.7129295140E+01   -1.6916185099E+01   -1.6705683560E+01
   -1.6497907593E+01   -1.6292967592E+01   -1.6090966879E+01   -1.5892001318E+01
   -1.5696158923E+01   -1.5503519456E+01   -1.5314154043E+01   -1.5128124767E+01
   -1.4945484275E+01   -1.4766275380E+01   -1.4590530654E+01   -1.4418272030E+01
   -1.4249510392E+01   -1.4084245173E+01   -1.3922463939E+01   -1.3764141981E+01
   -1.3609241896E+01   -1.3457713164E+01   -1.3309491727E+01   -1.3164499674E+01
   -1.3022644360E+01   -1.2883823981E+01   -1.2747937387E+01   -1.2614888354E+01
   -1.2484584771E+01   -1.2356938577E+01   -1.2231865567E+01   -1.2109285210E+01
   -1.1989120474E+01   -1.1871297666E+01   -1.1755746272E+01   -1.1642398815E+01
   -1.1531190704E+01   -1.1422060105E+01   -1.1314947801E+01   -1.1209797071E+01
   -1.1106553563E+01   -1.1005165176E+01   -1.0905581945E+01   -1.0807755921E+01
   -1.0711641112E+01   -1.0617193341E+01   -1.0524369415E+01   -1.0433131299E+01
   -1.0343439615E+01   -1.0255250205E+01   -1.0168529436E+01   -1.0083244026E+01
   -9.9993589491E+00   -9.9168413709E+00   -9.8356594034E+00   -9.7557821287E+00
   -9.6771795829E+00   -9.5998226945E+00   -9.5236832368E+00   -9.4487337846E+00
   -9.3749476756E+00   -9.3022989758E+00   -9.2307624490E+00   -9.1603135307E+00
   -9.0909283037E+00   -9.0225834752E+00   -8.9552563563E+00   -8.8889248442E+00
   -8.8235674069E+00   -8.7591630678E+00   -8.6956913919E+00   -8.6331324736E+00
   -8.5714669248E+00   -8.5106758640E+00   -8.4507409055E+00   -8.3916441489E+00
   -8.3333681687E+00   -8.2758960038E+00   -8.2192111467E+00   -8.1632975325E+00
   -8.1081395276E+00   -8.0537219176E+00   -8.0000298945E+00   -7.9470490414E+00
   -7.8947653211E+00   -7.8431650633E+00   -7.7922349531E+00   -7.7419620191E+00
   -7.6923336226E+00   -7.6433374471E+00   -7.5949614877E+00   -7.5471940418E+00
   -7.5000236992E+00   -7.4534393333E+00   -7.4074300924E+00   -7.3619853909E+00
   -7.3170949015E+00   -7.2727485474E+00   -7.2289364944E+00   -7.1856491440E+00
   -7.1428771264E+00   -7.1006112932E+00   -7.0588427117E+00   -7.0175626579E+00
   -6.9767626108E+00   -6.9364342463E+00   -6.8965694319E+00   -6.8571602207E+00
   -6.8181988467E+00   -6.7796777192E+00   -6.7415894183E+00   -6.7039266896E+00
   -6.6666824403E+00   -6.6298497340E+00   -6.5934217870E+00   -6.5573919637E+00
   -6.5217537729E+00   -6.4865008637E+00   -6.4516270218E+00   -6.4171261658E+00
   -6.3829923437E+00   -6.3492197294E+00   -6.3158026197E+00   -6.2827354305E+00
   -6.2500126944E+00   -6.2176290569E+00   -6.1855792744E+00   -6.1538582104E+00
   -6.1224608335E+00   -6.0913822144E+00   -6.0606175233E+00   -6.0301620277E+00
   -6.0000110895E+00   -5.9701601630E+00   -5.9406047926E+00   -5.9113406104E+00
   -5.8823633341E+00   -5.8536687651E+00   -5.8252527863E+00   -5.7971113600E+00
   -5.7692405263E+00   -5.7416364011E+00   -5.7142951742E+00   -5.6872131077E+00
   -5.6603865342E+00   -5.6338118551E+00   -5.6074855391E+00   -5.5814041208E+00
   -5.5555641987E+00   -5.5299624341E+00   -5.5045955496E+00   -5.4794603276E+00
   -5.4545536090E+00   -5.4298722921E+00   -5.4054133307E+00   -5.3811737335E+00
   -5.3571505627E+00   -5.3333409323E+00   -5.3097420079E+00   -5.2863510048E+00
   -5.2631651870E+00   -5.2401818666E+00   -5.2173984023E+00   -5.1948121986E+00
   -5.1724207045E+00   -5.1502214131E+00   -5.1282118603E+00   -5.1063896238E+00
   -5.0847523225E+00   -5.0632976153E+00   -5.0420232008E+00   -5.0209268157E+00
   -5.0000062347E+00   -4.9792592693E+00   -4.9586837673E+00   -4.9382776117E+00
   -4.9180387206E+00   -4.8979650456E+00   -4.8780545720E+00   -4.8583053176E+00
   -4.8387153320E+00   -4.8192826965E+00   -4.8000055227E+00   -4.7808819525E+00
   -4.7619101574E+00   -4.7430883376E+00   -4.7244147217E+00   -4.7058875661E+00
   -4.6875051546E+00   -4.6692657974E+00   -4.6511678311E+00   -4.6332096181E+00
   -4.6153895457E+00   -4.5977060260E+00   -4.5801574956E+00   -4.5627424147E+00
   -4.5454592666E+00   -4.5283065579E+00   -4.5112828174E+00   -4.4943865960E+00
   -4.4776164662E+00   -4.4609710219E+00   -4.4444488776E+00   -4.4280486684E+00
   -4.4117690494E+00   -4.3956086953E+00   -4.3795663005E+00   -4.3636405780E+00
   -4.3478302597E+00   -4.3321340956E+00   -4.3165508540E+00   -4.3010793206E+00
   -4.2857182984E+00   -4.2704666077E+00   -4.2553230854E+00   -4.2402865847E+00
   -4.2253559752E+00   -4.2105301423E+00   -4.1958079868E+00   -4.1811884250E+00
   -4.1666703882E+00   -4.1522528226E+00   -4.1379346887E+00   -4.1237149615E+00
   -4.1095926300E+00   -4.0955666969E+00   -4.0816361786E+00   -4.0678001048E+00
   -4.0540575181E+00   -4.0404074744E+00   -4.0268490419E+00   -4.0133813016E+00
   -4.0000033464E+00   -3.9867142815E+00   -3.9735132238E+00   -3.9603993021E+00
   -3.9473716564E+00   -3.9344294380E+00   -3.9215718096E+00   -3.9087979443E+00
   -3.8961070265E+00   -3.8834982507E+00   -3.8709708220E+00   -3.8585239558E+00
   -3.8461568773E+00   -3.8338688219E+00   -3.8216590345E+00   -3.8095267698E+00
   -3.7974712917E+00   -3.7854918735E+00   -3.7735877978E+00   -3.7617583559E+00
   -3.7500028482E+00   -3.7383205837E+00   -3.7267108800E+00   -3.7151730631E+00
   -3.7037064675E+00   -3.6923104357E+00   -3.6809843183E+00   -3.6697274739E+00
   -3.6585392690E+00   -3.6474190776E+00   -3.6363662814E+00   -3.6253802696E+00
   -3.6144604387E+00   -3.6036061925E+00   -3.5928169419E+00   -3.5820921049E+00
   -3.5714311063E+00   -3.5608333778E+00   -3.5502983579E+00   -3.5398254916E+00
   -3.5294142305E+00   -3.5190640326E+00   -3.5087743623E+00   -3.4985446902E+00
   -3.4883744930E+00   -3.4782632536E+00   -3.4682104607E+00   -3.4582156091E+00
   -3.4482781992E+00   -3.4383977374E+00   -3.4285737354E+00   -3.4188057107E+00
   -3.4090931863E+00   -3.3994356904E+00   -3.3898327567E+00   -3.3802839241E+00
   -3.3707887367E+00   -3.3613467437E+00   -3.3519574994E+00   -3.3426205629E+00
   -3.3333354983E+00   -3.3241018746E+00   -3.3149192655E+00   -3.3057872494E+00
   -3.2967054092E+00   -3.2876733326E+00   -3.2786906116E+00   -3.2697568429E+00
   -3.2608716274E+00   -3.2520345702E+00   -3.2432452810E+00   -3.2345033734E+00
   -3.2258084655E+00   -3.2171601790E+00   -3.2085581402E+00   -3.2000019789E+00
   -3.1914913292E+00   -3.1830258289E+00   -3.1746051196E+00   -3.1662288469E+00
   -3.1578966598E+00   -3.1496082114E+00   -3.1413631579E+00   -3.1331611597E+00
   -3.1250018802E+00   -3.1168849866E+00   -3.1088101496E+00   -3.1007770430E+00
   -3.0927853442E+00   -3.0848347338E+00   -3.0769248959E+00   -3.0690555176E+00
   -3.0612262891E+00   -3.0534369042E+00   -3.0456870593E+00   -3.0379764541E+00
   -3.0303047914E+00   -3.0226717770E+00   -3.0150771194E+00   -3.0075205304E+00
   -3.0000017243E+00   -2.9925204185E+00   -2.9850763332E+00   -2.9776691913E+00
   -2.9702987184E+00   -2.9629646430E+00   -2.9556666960E+00   -2.9484046112E+00
   -2.9411781249E+00   -2.9339869760E+00   -2.9268309059E+00   -2.9197096585E+00
   -2.9126229804E+00   -2.9055706203E+00   -2.8985523296E+00   -2.8915678620E+00
   -2.8846169736E+00   -2.8776994229E+00   -2.8708149705E+00   -2.8639633795E+00
   -2.8571444151E+00   -2.8503578449E+00   -2.8436034385E+00   -2.8368809679E+00
   -2.8301902071E+00   -2.8235309322E+00   -2.8169029216E+00   -2.8103059555E+00
   -2.8037398164E+00   -2.7972042887E+00   -2.7906991588E+00   -2.7842242152E+00
   -2.7777792482E+00   -2.7713640501E+00   -2.7649784151E+00   -2.7586221394E+00