<UPF version="2.0.1">
  <PP_INFO>

 This pseudopotential file has been produced using the code
 ONCVPSP  (Optimized Norm-Conservinng Vanderbilt PSeudopotential)
 fully-relativistic version 3.3.1 12/12/2017 by D. R. Hamann
 The code is available through a link at URL www.mat-simresearch.com.
 Documentation with the package provides a full discription of the
 input data below.


 While it is not required under the terms of the GNU GPL, it is
 suggested that you cite D. R. Hamann, Phys. Rev. B 88, 085117 (2013)
 in any publication using these pseudopotentials.

    <PP_INPUTFILE>
# ATOM AND REFERENCE CONFIGURATION
# atsym  z   nc   nv     iexc    psfile
  F  9.00    1    2       4      upf
#
#   n    l    f        energy (Ha)
    1    0    2.00
    2    0    2.00
    2    1    5.00
#
# PSEUDOPOTENTIAL AND OPTIMIZATION
# lmax
    1
#
#   l,   rc,     ep,   ncon, nbas, qcut
    0   1.58478  -1.09875    5    8   8.73495
    1   1.66223  -0.40753    5    8   8.69707
#
# LOCAL POTENTIAL
# lloc, lpopt,  rc(5),   dvloc0
    4    5   0.97178      0.00000
#
# VANDERBILT-KLEINMAN-BYLANDER PROJECTORs
# l, nproj, debl
    0    2   1.51125
    1    2   1.53089
#
# MODEL CORE CHARGE
# icmod, fcfact, rcfact
    0   0.00000   0.00000
#
# LOG DERIVATIVE ANALYSIS
# epsh1, epsh2, depsh
   -5.00    3.00    0.02
#
# OUTPUT GRID
# rlmax, drl
    6.00    0.01
#
# TEST CONFIGURATIONS
# ncnf
    0
# nvcnf
#   n    l    f
    </PP_INPUTFILE>
  </PP_INFO>
  <!--                               -->
  <!-- END OF HUMAN READABLE SECTION -->
  <!--                               -->
    <PP_HEADER
       generated="Generated using ONCVPSP code by D. R. Hamann"
       author="anonymous"
       date="200721"
       comment=""
       element="F "
       pseudo_type="NC"
       relativistic="full"
       is_ultrasoft="F"
       is_paw="F"
       is_coulomb="F"
       has_so="T"
       has_wfc="F"
       has_gipaw="F"
       core_correction="F"
       functional="PBE"
       z_valence="    7.00"
       total_psenergy="  -4.74380882238E+01"
       rho_cutoff="   8.31000000000E+00"
       l_max="1"
       l_local="-1"
       mesh_size="   832"
       number_of_wfc="3"
       number_of_proj="6"/>
 <PP_MESH>
   <PP_R type="real"  size=" 832" columns="8">
    0.0000    0.0100    0.0200    0.0300    0.0400    0.0500    0.0600    0.0700
    0.0800    0.0900    0.1000    0.1100    0.1200    0.1300    0.1400    0.1500
    0.1600    0.1700    0.1800    0.1900    0.2000    0.2100    0.2200    0.2300
    0.2400    0.2500    0.2600    0.2700    0.2800    0.2900    0.3000    0.3100
    0.3200    0.3300    0.3400    0.3500    0.3600    0.3700    0.3800    0.3900
    0.4000    0.4100    0.4200    0.4300    0.4400    0.4500    0.4600    0.4700
    0.4800    0.4900    0.5000    0.5100    0.5200    0.5300    0.5400    0.5500
    0.5600    0.5700    0.5800    0.5900    0.6000    0.6100    0.6200    0.6300
    0.6400    0.6500    0.6600    0.6700    0.6800    0.6900    0.7000    0.7100
    0.7200    0.7300    0.7400    0.7500    0.7600    0.7700    0.7800    0.7900
    0.8000    0.8100    0.8200    0.8300    0.8400    0.8500    0.8600    0.8700
    0.8800    0.8900    0.9000    0.9100    0.9200    0.9300    0.9400    0.9500
    0.9600    0.9700    0.9800    0.9900    1.0000    1.0100    1.0200    1.0300
    1.0400    1.0500    1.0600    1.0700    1.0800    1.0900    1.1000    1.1100
    1.1200    1.1300    1.1400    1.1500    1.1600    1.1700    1.1800    1.1900
    1.2000    1.2100    1.2200    1.2300    1.2400    1.2500    1.2600    1.2700
    1.2800    1.2900    1.3000    1.3100    1.3200    1.3300    1.3400    1.3500
    1.3600    1.3700    1.3800    1.3900    1.4000    1.4100    1.4200    1.4300
    1.4400    1.4500    1.4600    1.4700    1.4800    1.4900    1.5000    1.5100
    1.5200    1.5300    1.5400    1.5500    1.5600    1.5700    1.5800    1.5900
    1.6000    1.6100    1.6200    1.6300    1.6400    1.6500    1.6600    1.6700
    1.6800    1.6900    1.7000    1.7100    1.7200    1.7300    1.7400    1.7500
    1.7600    1.7700    1.7800    1.7900    1.8000    1.8100    1.8200    1.8300
    1.8400    1.8500    1.8600    1.8700    1.8800    1.8900    1.9000    1.9100
    1.9200    1.9300    1.9400    1.9500    1.9600    1.9700    1.9800    1.9900
    2.0000    2.0100    2.0200    2.0300    2.0400    2.0500    2.0600    2.0700
    2.0800    2.0900    2.1000    2.1100    2.1200    2.1300    2.1400    2.1500
    2.1600    2.1700    2.1800    2.1900    2.2000    2.2100    2.2200    2.2300
    2.2400    2.2500    2.2600    2.2700    2.2800    2.2900    2.3000    2.3100
    2.3200    2.3300    2.3400    2.3500    2.3600    2.3700    2.3800    2.3900
    2.4000    2.4100    2.4200    2.4300    2.4400    2.4500    2.4600    2.4700
    2.4800    2.4900    2.5000    2.5100    2.5200    2.5300    2.5400    2.5500
    2.5600    2.5700    2.5800    2.5900    2.6000    2.6100    2.6200    2.6300
    2.6400    2.6500    2.6600    2.6700    2.6800    2.6900    2.7000    2.7100
    2.7200    2.7300    2.7400    2.7500    2.7600    2.7700    2.7800    2.7900
    2.8000    2.8100    2.8200    2.8300    2.8400    2.8500    2.8600    2.8700
    2.8800    2.8900    2.9000    2.9100    2.9200    2.9300    2.9400    2.9500
    2.9600    2.9700    2.9800    2.9900    3.0000    3.0100    3.0200    3.0300
    3.0400    3.0500    3.0600    3.0700    3.0800    3.0900    3.1000    3.1100
    3.1200    3.1300    3.1400    3.1500    3.1600    3.1700    3.1800    3.1900
    3.2000    3.2100    3.2200    3.2300    3.2400    3.2500    3.2600    3.2700
    3.2800    3.2900    3.3000    3.3100    3.3200    3.3300    3.3400    3.3500
    3.3600    3.3700    3.3800    3.3900    3.4000    3.4100    3.4200    3.4300
    3.4400    3.4500    3.4600    3.4700    3.4800    3.4900    3.5000    3.5100
    3.5200    3.5300    3.5400    3.5500    3.5600    3.5700    3.5800    3.5900
    3.6000    3.6100    3.6200    3.6300    3.6400    3.6500    3.6600    3.6700
    3.6800    3.6900    3.7000    3.7100    3.7200    3.7300    3.7400    3.7500
    3.7600    3.7700    3.7800    3.7900    3.8000    3.8100    3.8200    3.8300
    3.8400    3.8500    3.8600    3.8700    3.8800    3.8900    3.9000    3.9100
    3.9200    3.9300    3.9400    3.9500    3.9600    3.9700    3.9800    3.9900
    4.0000    4.0100    4.0200    4.0300    4.0400    4.0500    4.0600    4.0700
    4.0800    4.0900    4.1000    4.1100    4.1200    4.1300    4.1400    4.1500
    4.1600    4.1700    4.1800    4.1900    4.2000    4.2100    4.2200    4.2300
    4.2400    4.2500    4.2600    4.2700    4.2800    4.2900    4.3000    4.3100
    4.3200    4.3300    4.3400    4.3500    4.3600    4.3700    4.3800    4.3900
    4.4000    4.4100    4.4200    4.4300    4.4400    4.4500    4.4600    4.4700
    4.4800    4.4900    4.5000    4.5100    4.5200    4.5300    4.5400    4.5500
    4.5600    4.5700    4.5800    4.5900    4.6000    4.6100    4.6200    4.6300
    4.6400    4.6500    4.6600    4.6700    4.6800    4.6900    4.7000    4.7100
    4.7200    4.7300    4.7400    4.7500    4.7600    4.7700    4.7800    4.7900
    4.8000    4.8100    4.8200    4.8300    4.8400    4.8500    4.8600    4.8700
    4.8800    4.8900    4.9000    4.9100    4.9200    4.9300    4.9400    4.9500
    4.9600    4.9700    4.9800    4.9900    5.0000    5.0100    5.0200    5.0300
    5.0400    5.0500    5.0600    5.0700    5.0800    5.0900    5.1000    5.1100
    5.1200    5.1300    5.1400    5.1500    5.1600    5.1700    5.1800    5.1900
    5.2000    5.2100    5.2200    5.2300    5.2400    5.2500    5.2600    5.2700
    5.2800    5.2900    5.3000    5.3100    5.3200    5.3300    5.3400    5.3500
    5.3600    5.3700    5.3800    5.3900    5.4000    5.4100    5.4200    5.4300
    5.4400    5.4500    5.4600    5.4700    5.4800    5.4900    5.5000    5.5100
    5.5200    5.5300    5.5400    5.5500    5.5600    5.5700    5.5800    5.5900
    5.6000    5.6100    5.6200    5.6300    5.6400    5.6500    5.6600    5.6700
    5.6800    5.6900    5.7000    5.7100    5.7200    5.7300    5.7400    5.7500
    5.7600    5.7700    5.7800    5.7900    5.8000    5.8100    5.8200    5.8300
    5.8400    5.8500    5.8600    5.8700    5.8800    5.8900    5.9000    5.9100
    5.9200    5.9300    5.9400    5.9500    5.9600    5.9700    5.9800    5.9900
    6.0000    6.0100    6.0200    6.0300    6.0400    6.0500    6.0600    6.0700
    6.0800    6.0900    6.1000    6.1100    6.1200    6.1300    6.1400    6.1500
    6.1600    6.1700    6.1800    6.1900    6.2000    6.2100    6.2200    6.2300
    6.2400    6.2500    6.2600    6.2700    6.2800    6.2900    6.3000    6.3100
    6.3200    6.3300    6.3400    6.3500    6.3600    6.3700    6.3800    6.3900
    6.4000    6.4100    6.4200    6.4300    6.4400    6.4500    6.4600    6.4700
    6.4800    6.4900    6.5000    6.5100    6.5200    6.5300    6.5400    6.5500
    6.5600    6.5700    6.5800    6.5900    6.6000    6.6100    6.6200    6.6300
    6.6400    6.6500    6.6600    6.6700    6.6800    6.6900    6.7000    6.7100
    6.7200    6.7300    6.7400    6.7500    6.7600    6.7700    6.7800    6.7900
    6.8000    6.8100    6.8200    6.8300    6.8400    6.8500    6.8600    6.8700
    6.8800    6.8900    6.9000    6.9100    6.9200    6.9300    6.9400    6.9500
    6.9600    6.9700    6.9800    6.9900    7.0000    7.0100    7.0200    7.0300
    7.0400    7.0500    7.0600    7.0700    7.0800    7.0900    7.1000    7.1100
    7.1200    7.1300    7.1400    7.1500    7.1600    7.1700    7.1800    7.1900
    7.2000    7.2100    7.2200    7.2300    7.2400    7.2500    7.2600    7.2700
    7.2800    7.2900    7.3000    7.3100    7.3200    7.3300    7.3400    7.3500
    7.3600    7.3700    7.3800    7.3900    7.4000    7.4100    7.4200    7.4300
    7.4400    7.4500    7.4600    7.4700    7.4800    7.4900    7.5000    7.5100
    7.5200    7.5300    7.5400    7.5500    7.5600    7.5700    7.5800    7.5900
    7.6000    7.6100    7.6200    7.6300    7.6400    7.6500    7.6600    7.6700
    7.6800    7.6900    7.7000    7.7100    7.7200    7.7300    7.7400    7.7500
    7.7600    7.7700    7.7800    7.7900    7.8000    7.8100    7.8200    7.8300
    7.8400    7.8500    7.8600    7.8700    7.8800    7.8900    7.9000    7.9100
    7.9200    7.9300    7.9400    7.9500    7.9600    7.9700    7.9800    7.9900
    8.0000    8.0100    8.0200    8.0300    8.0400    8.0500    8.0600    8.0700
    8.0800    8.0900    8.1000    8.1100    8.1200    8.1300    8.1400    8.1500
    8.1600    8.1700    8.1800    8.1900    8.2000    8.2100    8.2200    8.2300
    8.2400    8.2500    8.2600    8.2700    8.2800    8.2900    8.3000    8.3100
   </PP_R>
   <PP_RAB type="real"  size=" 832" columns="8">
    0.0100    0.0100    0.0100    0.0100    0.0100    0.0100    0.0100    0.0100
    0.0100    0.0100    0.0100    0.0100    0.0100    0.0100    0.0100    0.0100
    0.0100    0.0100    0.0100    0.0100    0.0100    0.0100    0.0100    0.0100
    0.0100    0.0100    0.0100    0.0100    0.0100    0.0100    0.0100    0.0100
    0.0100    0.0100    0.0100    0.0100    0.0100    0.0100    0.0100    0.0100
    0.0100    0.0100    0.0100    0.0100    0.0100    0.0100    0.0100    0.0100
    0.0100    0.0100    0.0100    0.0100    0.0100    0.0100    0.0100    0.0100
    0.0100    0.0100    0.0100    0.0100    0.0100    0.0100    0.0100    0.0100
    0.0100    0.0100    0.0100    0.0100    0.0100    0.0100    0.0100    0.0100
    0.0100    0.0100    0.0100    0.0100    0.0100    0.0100    0.0100    0.0100
    0.0100    0.0100    0.0100    0.0100    0.0100    0.0100    0.0100    0.0100
    0.0100    0.0100    0.0100    0.0100    0.0100    0.0100    0.0100    0.0100
    0.0100    0.0100    0.0100    0.0100    0.0100    0.0100    0.0100    0.0100
    0.0100    0.0100    0.0100    0.0100    0.0100    0.0100    0.0100    0.0100
    0.0100    0.0100    0.0100    0.0100    0.0100    0.0100    0.0100    0.0100
    0.0100    0.0100    0.0100    0.0100    0.0100    0.0100    0.0100    0.0100
    0.0100    0.0100    0.0100    0.0100    0.0100    0.0100    0.0100    0.0100
    0.0100    0.0100    0.0100    0.0100    0.0100    0.0100    0.0100    0.0100
    0.0100    0.0100    0.0100    0.0100    0.0100    0.0100    0.0100    0.0100
    0.0100    0.0100    0.0100    0.0100    0.0100    0.0100    0.0100    0.0100
    0.0100    0.0100    0.0100    0.0100    0.0100    0.0100    0.0100    0.0100
    0.0100    0.0100    0.0100    0.0100    0.0100    0.0100    0.0100    0.0100
    0.0100    0.0100    0.0100    0.0100    0.0100    0.0100    0.0100    0.0100
    0.0100    0.0100    0.0100    0.0100    0.0100    0.0100    0.0100    0.0100
    0.0100    0.0100    0.0100    0.0100    0.0100    0.0100    0.0100    0.0100
    0.0100    0.0100    0.0100    0.0100    0.0100    0.0100    0.0100    0.0100
    0.0100    0.0100    0.0100    0.0100    0.0100    0.0100    0.0100    0.0100
    0.0100    0.0100    0.0100    0.0100    0.0100    0.0100    0.0100    0.0100
    0.0100    0.0100    0.0100    0.0100    0.0100    0.0100    0.0100    0.0100
    0.0100    0.0100    0.0100    0.0100    0.0100    0.0100    0.0100    0.0100
    0.0100    0.0100    0.0100    0.0100    0.0100    0.0100    0.0100    0.0100
    0.0100    0.0100    0.0100    0.0100    0.0100    0.0100    0.0100    0.0100
    0.0100    0.0100    0.0100    0.0100    0.0100    0.0100    0.0100    0.0100
    0.0100    0.0100    0.0100    0.0100    0.0100    0.0100    0.0100    0.0100
    0.0100    0.0100    0.0100    0.0100    0.0100    0.0100    0.0100    0.0100
    0.0100    0.0100    0.0100    0.0100    0.0100    0.0100    0.0100    0.0100
    0.0100    0.0100    0.0100    0.0100    0.0100    0.0100    0.0100    0.0100
    0.0100    0.0100    0.0100    0.0100    0.0100    0.0100    0.0100    0.0100
    0.0100    0.0100    0.0100    0.0100    0.0100    0.0100    0.0100    0.0100
    0.0100    0.0100    0.0100    0.0100    0.0100    0.0100    0.0100    0.0100
    0.0100    0.0100    0.0100    0.0100    0.0100    0.0100    0.0100    0.0100
    0.0100    0.0100    0.0100    0.0100    0.0100    0.0100    0.0100    0.0100
    0.0100    0.0100    0.0100    0.0100    0.0100    0.0100    0.0100    0.0100
    0.0100    0.0100    0.0100    0.0100    0.0100    0.0100    0.0100    0.0100
    0.0100    0.0100    0.0100    0.0100    0.0100    0.0100    0.0100    0.0100
    0.0100    0.0100    0.0100    0.0100    0.0100    0.0100    0.0100    0.0100
    0.0100    0.0100    0.0100    0.0100    0.0100    0.0100    0.0100    0.0100
    0.0100    0.0100    0.0100    0.0100    0.0100    0.0100    0.0100    0.0100
    0.0100    0.0100    0.0100    0.0100    0.0100    0.0100    0.0100    0.0100
    0.0100    0.0100    0.0100    0.0100    0.0100    0.0100    0.0100    0.0100
    0.0100    0.0100    0.0100    0.0100    0.0100    0.0100    0.0100    0.0100
    0.0100    0.0100    0.0100    0.0100    0.0100    0.0100    0.0100    0.0100
    0.0100    0.0100    0.0100    0.0100    0.0100    0.0100    0.0100    0.0100
    0.0100    0.0100    0.0100    0.0100    0.0100    0.0100    0.0100    0.0100
    0.0100    0.0100    0.0100    0.0100    0.0100    0.0100    0.0100    0.0100
    0.0100    0.0100    0.0100    0.0100    0.0100    0.0100    0.0100    0.0100
    0.0100    0.0100    0.0100    0.0100    0.0100    0.0100    0.0100    0.0100
    0.0100    0.0100    0.0100    0.0100    0.0100    0.0100    0.0100    0.0100
    0.0100    0.0100    0.0100    0.0100    0.0100    0.0100    0.0100    0.0100
    0.0100    0.0100    0.0100    0.0100    0.0100    0.0100    0.0100    0.0100
    0.0100    0.0100    0.0100    0.0100    0.0100    0.0100    0.0100    0.0100
    0.0100    0.0100    0.0100    0.0100    0.0100    0.0100    0.0100    0.0100
    0.0100    0.0100    0.0100    0.0100    0.0100    0.0100    0.0100    0.0100
    0.0100    0.0100    0.0100    0.0100    0.0100    0.0100    0.0100    0.0100
    0.0100    0.0100    0.0100    0.0100    0.0100    0.0100    0.0100    0.0100
    0.0100    0.0100    0.0100    0.0100    0.0100    0.0100    0.0100    0.0100
    0.0100    0.0100    0.0100    0.0100    0.0100    0.0100    0.0100    0.0100
    0.0100    0.0100    0.0100    0.0100    0.0100    0.0100    0.0100    0.0100
    0.0100    0.0100    0.0100    0.0100    0.0100    0.0100    0.0100    0.0100
    0.0100    0.0100    0.0100    0.0100    0.0100    0.0100    0.0100    0.0100
    0.0100    0.0100    0.0100    0.0100    0.0100    0.0100    0.0100    0.0100
    0.0100    0.0100    0.0100    0.0100    0.0100    0.0100    0.0100    0.0100
    0.0100    0.0100    0.0100    0.0100    0.0100    0.0100    0.0100    0.0100
    0.0100    0.0100    0.0100    0.0100    0.0100    0.0100    0.0100    0.0100
    0.0100    0.0100    0.0100    0.0100    0.0100    0.0100    0.0100    0.0100
    0.0100    0.0100    0.0100    0.0100    0.0100    0.0100    0.0100    0.0100
    0.0100    0.0100    0.0100    0.0100    0.0100    0.0100    0.0100    0.0100
    0.0100    0.0100    0.0100    0.0100    0.0100    0.0100    0.0100    0.0100
    0.0100    0.0100    0.0100    0.0100    0.0100    0.0100    0.0100    0.0100
    0.0100    0.0100    0.0100    0.0100    0.0100    0.0100    0.0100    0.0100
    0.0100    0.0100    0.0100    0.0100    0.0100    0.0100    0.0100    0.0100
    0.0100    0.0100    0.0100    0.0100    0.0100    0.0100    0.0100    0.0100
    0.0100    0.0100    0.0100    0.0100    0.0100    0.0100    0.0100    0.0100
    0.0100    0.0100    0.0100    0.0100    0.0100    0.0100    0.0100    0.0100
    0.0100    0.0100    0.0100    0.0100    0.0100    0.0100    0.0100    0.0100
    0.0100    0.0100    0.0100    0.0100    0.0100    0.0100    0.0100    0.0100
    0.0100    0.0100    0.0100    0.0100    0.0100    0.0100    0.0100    0.0100
    0.0100    0.0100    0.0100    0.0100    0.0100    0.0100    0.0100    0.0100
    0.0100    0.0100    0.0100    0.0100    0.0100    0.0100    0.0100    0.0100
    0.0100    0.0100    0.0100    0.0100    0.0100    0.0100    0.0100    0.0100
    0.0100    0.0100    0.0100    0.0100    0.0100    0.0100    0.0100    0.0100
    0.0100    0.0100    0.0100    0.0100    0.0100    0.0100    0.0100    0.0100
    0.0100    0.0100    0.0100    0.0100    0.0100    0.0100    0.0100    0.0100
    0.0100    0.0100    0.0100    0.0100    0.0100    0.0100    0.0100    0.0100
    0.0100    0.0100    0.0100    0.0100    0.0100    0.0100    0.0100    0.0100
    0.0100    0.0100    0.0100    0.0100    0.0100    0.0100    0.0100    0.0100
    0.0100    0.0100    0.0100    0.0100    0.0100    0.0100    0.0100    0.0100
    0.0100    0.0100    0.0100    0.0100    0.0100    0.0100    0.0100    0.0100
    0.0100    0.0100    0.0100    0.0100    0.0100    0.0100    0.0100    0.0100
    0.0100    0.0100    0.0100    0.0100    0.0100    0.0100    0.0100    0.0100
    0.0100    0.0100    0.0100    0.0100    0.0100    0.0100    0.0100    0.0100
    0.0100    0.0100    0.0100    0.0100    0.0100    0.0100    0.0100    0.0100
    0.0100    0.0100    0.0100    0.0100    0.0100    0.0100    0.0100    0.0100
    0.0100    0.0100    0.0100    0.0100    0.0100    0.0100    0.0100    0.0100
   </PP_RAB>
 </PP_MESH>
  <PP_LOCAL type="real"  size=" 832" columns="4">
   -3.1153072736E+01   -3.1200831577E+01   -3.1328482124E+01   -3.1482047848E+01
   -3.1613613635E+01   -3.1696870927E+01   -3.1726039067E+01   -3.1707043243E+01
   -3.1649829374E+01   -3.1564123499E+01   -3.1457809724E+01   -3.1336686694E+01
   -3.1204777313E+01   -3.1064774564E+01   -3.0918450290E+01   -3.0766973787E+01
   -3.0611138395E+01   -3.0451512338E+01   -3.0288533466E+01   -3.0122565235E+01
   -2.9953927428E+01   -2.9782911244E+01   -2.9609785315E+01   -2.9434796833E+01
   -2.9258170279E+01   -2.9080105144E+01   -2.8900773313E+01   -2.8720316368E+01
   -2.8538842888E+01   -2.8356425734E+01   -2.8173099396E+01   -2.7988857536E+01
   -2.7803651003E+01   -2.7617386697E+01   -2.7429927759E+01   -2.7241095589E+01
   -2.7050674130E+01   -2.6858416752E+01   -2.6664055807E+01   -2.6467314652E+01
   -2.6267921584E+01   -2.6065624799E+01   -2.5860207279E+01   -2.5651500331E+01
   -2.5439394629E+01   -2.5223847770E+01   -2.5004887767E+01   -2.4782612310E+01
   -2.4557184123E+01   -2.4328823062E+01   -2.4097795932E+01   -2.3864405049E+01
   -2.3628976573E+01   -2.3391849466E+01   -2.3153365741E+01   -2.2913862380E+01
   -2.2673665100E+01   -2.2433083943E+01   -2.2192410518E+01   -2.1951916644E+01
   -2.1711854114E+01   -2.1472455273E+01   -2.1233934167E+01   -2.0996488017E+01
   -2.0760298844E+01   -2.0525535121E+01   -2.0292353330E+01   -2.0060899395E+01
   -1.9831309926E+01   -1.9603713278E+01   -1.9378230419E+01   -1.9154975618E+01
   -1.8934056967E+01   -1.8715576755E+01   -1.8499631721E+01   -1.8286313189E+01
   -1.8075707128E+01   -1.7867894122E+01   -1.7662949297E+01   -1.7460942190E+01
   -1.7261936590E+01   -1.7065990346E+01   -1.6873155159E+01   -1.6683476358E+01
   -1.6496992668E+01   -1.6313735966E+01   -1.6133731043E+01   -1.5956995352E+01
   -1.5783538761E+01   -1.5613363309E+01   -1.5446462949E+01   -1.5282823305E+01
   -1.5122421414E+01   -1.4965225475E+01   -1.4811194592E+01   -1.4660278508E+01
   -1.4512417349E+01   -1.4367541336E+01   -1.4225570616E+01   -1.4086414612E+01
   -1.3949977142E+01   -1.3816163621E+01   -1.3684884274E+01   -1.3556053338E+01
   -1.3429589063E+01   -1.3305413552E+01   -1.3183452603E+01   -1.3063635567E+01
   -1.2945895206E+01   -1.2830167548E+01   -1.2716391757E+01   -1.2604510001E+01
   -1.2494467323E+01   -1.2386211519E+01   -1.2279693022E+01   -1.2174864787E+01
   -1.2071682181E+01   -1.1970102881E+01   -1.1870086769E+01   -1.1771595837E+01
   -1.1674594092E+01   -1.1579047458E+01   -1.1484923693E+01   -1.1392192292E+01
   -1.1300824396E+01   -1.1210792707E+01   -1.1122071388E+01   -1.1034635976E+01
   -1.0948463280E+01   -1.0863531286E+01   -1.0779819059E+01   -1.0697306633E+01
   -1.0615974915E+01   -1.0535805573E+01   -1.0456780935E+01   -1.0378883881E+01
   -1.0302097743E+01   -1.0226406199E+01   -1.0151793182E+01   -1.0078242787E+01
   -1.0005739189E+01   -9.9342665663E+00   -9.8638090338E+00   -9.7943505902E+00
   -9.7258750728E+00   -9.6583661258E+00   -9.5918071805E+00   -9.5261814489E+00
   -9.4614719287E+00   -9.3976614202E+00   -9.3347325551E+00   -9.2726678339E+00
   -9.2114496730E+00   -9.1510604587E+00   -9.0914826070E+00   -9.0326986269E+00
   -8.9746911864E+00   -8.9174431795E+00   -8.8609377872E+00   -8.8051585429E+00
   -8.7500893864E+00   -8.6957147308E+00   -8.6420195597E+00   -8.5889894551E+00
   -8.5366105905E+00   -8.4848697294E+00   -8.4337541953E+00   -8.3832518718E+00
   -8.3333511929E+00   -8.2840411082E+00   -8.2353110933E+00   -8.1871510245E+00
   -8.1395509966E+00   -8.0925013100E+00   -8.0459924622E+00   -8.0000151462E+00
   -7.9545602918E+00   -7.9096190547E+00   -7.8651827825E+00   -7.8212430095E+00
   -7.7777914596E+00   -7.7348200412E+00   -7.6923208400E+00   -7.6502861144E+00
   -7.6087082916E+00   -7.5675799620E+00   -7.5268938759E+00   -7.4866429381E+00
   -7.4468202049E+00   -7.4074188792E+00   -7.3684323072E+00   -7.3298539742E+00
   -7.2916775016E+00   -7.2538966426E+00   -7.2165052795E+00   -7.1794974201E+00
   -7.1428671941E+00   -7.1066088510E+00   -7.0707167559E+00   -7.0351853875E+00
   -7.0000093349E+00   -6.9651832948E+00   -6.9307020689E+00   -6.8965605615E+00
   -6.8627537765E+00   -6.8292768157E+00   -6.7961248756E+00   -6.7632932459E+00
   -6.7307773065E+00   -6.6985725261E+00   -6.6666744595E+00   -6.6350787457E+00
   -6.6037811063E+00   -6.5727773428E+00   -6.5420633356E+00   -6.5116350415E+00
   -6.4814884922E+00   -6.4516197927E+00   -6.4220251192E+00   -6.3927007180E+00
   -6.3636429036E+00   -6.3348480570E+00   -6.3063126247E+00   -6.2780331168E+00
   -6.2500061056E+00   -6.2222282246E+00   -6.1946961666E+00   -6.1674066829E+00
   -6.1403565817E+00   -6.1135427270E+00   -6.0869620375E+00   -6.0606114850E+00
   -6.0344880934E+00   -6.0085889378E+00   -5.9829111433E+00   -5.9574518842E+00
   -5.9322083827E+00   -5.9071779074E+00   -5.8823577733E+00   -5.8577453399E+00
   -5.8333380110E+00   -5.8091332335E+00   -5.7851284964E+00   -5.7613213299E+00
   -5.7377093051E+00   -5.7142900323E+00   -5.6910611610E+00   -5.6680203785E+00
   -5.6451654096E+00   -5.6224940155E+00   -5.6000039934E+00   -5.5776931754E+00
   -5.5555594283E+00   -5.5336006522E+00   -5.5118147806E+00   -5.4901997793E+00
   -5.4687536460E+00   -5.4474744093E+00   -5.4263601287E+00   -5.4054088935E+00
   -5.3846188223E+00   -5.3639880627E+00   -5.3435147904E+00   -5.3231972091E+00
   -5.3030335496E+00   -5.2830220692E+00   -5.2631610518E+00   -5.2434488066E+00
   -5.2238836684E+00   -5.2044639965E+00   -5.1851881746E+00   -5.1660546103E+00
   -5.1470617346E+00   -5.1282080014E+00   -5.1094918872E+00   -5.0909118908E+00
   -5.0724665326E+00   -5.0541543544E+00   -5.0359739191E+00   -5.0179238099E+00
   -5.0000026307E+00   -4.9822090048E+00   -4.9645415753E+00   -4.9469990045E+00
   -4.9295799734E+00   -4.9122831816E+00   -4.8951073468E+00   -4.8780512048E+00
   -4.8611135086E+00   -4.8442930287E+00   -4.8275885526E+00   -4.8109988843E+00
   -4.7945228442E+00   -4.7781592690E+00   -4.7619070111E+00   -4.7457649383E+00
   -4.7297319340E+00   -4.7138068964E+00   -4.6979887387E+00   -4.6822763883E+00
   -4.6666687874E+00   -4.6511648917E+00   -4.6357636712E+00   -4.6204641093E+00
   -4.6052652027E+00   -4.5901659614E+00   -4.5751654082E+00   -4.5602625788E+00
   -4.5454565214E+00   -4.5307462963E+00   -4.5161309761E+00   -4.5016096455E+00
   -4.4871814005E+00   -4.4728453491E+00   -4.4586006104E+00   -4.4444463147E+00
   -4.4303816034E+00   -4.4164056287E+00   -4.4025175535E+00   -4.3887165510E+00
   -4.3750018050E+00   -4.3613725094E+00   -4.3478278680E+00   -4.3343670945E+00
   -4.3209894125E+00   -4.3076940548E+00   -4.2944802639E+00   -4.2813472915E+00
   -4.2682943984E+00   -4.2553208543E+00   -4.2424259380E+00   -4.2296089367E+00
   -4.2168691464E+00   -4.2042058715E+00   -4.1916184248E+00   -4.1791061271E+00
   -4.1666683076E+00   -4.1543043031E+00   -4.1420134585E+00   -4.1297951265E+00
   -4.1176486671E+00   -4.1055734480E+00   -4.0935688444E+00   -4.0816342386E+00
   -4.0697690201E+00   -4.0579725856E+00   -4.0462443386E+00   -4.0345836898E+00
   -4.0229900562E+00   -4.0114628619E+00   -4.0000015374E+00   -3.9886055196E+00
   -3.9772742520E+00   -3.9660071843E+00   -3.9548037724E+00   -3.9436634784E+00
   -3.9325857704E+00   -3.9215701224E+00   -3.9106160145E+00   -3.8997229322E+00
   -3.8888903671E+00   -3.8781178163E+00   -3.8674047824E+00   -3.8567507735E+00
   -3.8461553032E+00   -3.8356178903E+00   -3.8251380589E+00   -3.8147153383E+00
   -3.8043492630E+00   -3.7940393725E+00   -3.7837852111E+00   -3.7735863282E+00
   -3.7634422780E+00   -3.7533526196E+00   -3.7433169165E+00   -3.7333347373E+00
   -3.7234056547E+00   -3.7135292464E+00   -3.7037050942E+00   -3.6939327845E+00
   -3.6842119080E+00   -3.6745420598E+00   -3.6649228390E+00   -3.6553538492E+00
   -3.6458346979E+00   -3.6363649967E+00   -3.6269443613E+00   -3.6175724114E+00
   -3.6082487705E+00   -3.5989730660E+00   -3.5897449293E+00   -3.5805639953E+00
   -3.5714299029E+00   -3.5623422943E+00   -3.5533008157E+00   -3.5443051168E+00
   -3.5353548507E+00   -3.5264496741E+00   -3.5175892471E+00   -3.5087732332E+00
   -3.5000012994E+00   -3.4912731159E+00   -3.4825883562E+00   -3.4739466971E+00
   -3.4653478184E+00   -3.4567914033E+00   -3.4482771380E+00   -3.4398047118E+00
   -3.4313738171E+00   -3.4229841493E+00   -3.4146354067E+00   -3.4063272905E+00
   -3.3980595050E+00   -3.3898317572E+00   -3.3816437569E+00   -3.3734952169E+00
   -3.3653858525E+00   -3.3573153819E+00   -3.3492835260E+00   -3.3412900083E+00
   -3.3333345550E+00   -3.3254168948E+00   -3.3175367590E+00   -3.3096938815E+00
   -3.3018879987E+00   -3.2941188495E+00   -3.2863861751E+00   -3.2786897193E+00
   -3.2710292282E+00   -3.2634044504E+00   -3.2558151366E+00   -3.2482610400E+00
   -3.2407419161E+00   -3.2332575226E+00   -3.2258076193E+00   -3.2183919684E+00
   -3.2110103343E+00   -3.2036624833E+00   -3.1963481842E+00   -3.1890672076E+00
   -3.1818193263E+00   -3.1746043152E+00   -3.1674219513E+00   -3.1602720133E+00
   -3.1531542822E+00   -3.1460685409E+00   -3.1390145742E+00   -3.1319921689E+00
   -3.1250011136E+00   -3.1180411988E+00   -3.1111122169E+00   -3.1042139623E+00
   -3.0973462308E+00   -3.0905088205E+00   -3.0837015309E+00   -3.0769241634E+00
   -3.0701765212E+00   -3.0634584092E+00   -3.0567696338E+00   -3.0501100035E+00
   -3.0434793280E+00   -3.0368774190E+00   -3.0303040897E+00   -3.0237591549E+00
   -3.0172424310E+00   -3.0107537360E+00   -3.0042928895E+00   -2.9978597125E+00
   -2.9914540277E+00   -2.9850756593E+00   -2.9787244328E+00   -2.9724001755E+00
   -2.9661027158E+00   -2.9598318839E+00   -2.9535875111E+00   -2.9473694304E+00
   -2.9411774761E+00   -2.9350114839E+00   -2.9288712908E+00   -2.9227567352E+00
   -2.9166676569E+00   -2.9106038970E+00   -2.9045652980E+00   -2.8985517035E+00
   -2.8925629585E+00   -2.8865989094E+00   -2.8806594037E+00   -2.8747442901E+00
   -2.8688534189E+00   -2.8629866412E+00   -2.8571438095E+00   -2.8513247775E+00
   -2.8455294001E+00   -2.8397575333E+00   -2.8340090345E+00   -2.8282837618E+00
   -2.8225815750E+00   -2.8169023345E+00   -2.8112459023E+00   -2.8056121411E+00
   -2.8000009149E+00   -2.7944120889E+00   -2.7888455290E+00   -2.7833011027E+00
   -2.7777786779E+00   -2.7722781242E+00   -2.7667993118E+00   -2.7613421120E+00
   -2.7559063973E+00   -2.7504920410E+00   -2.7450989174E+00   -2.7397269020E+00
   -2.7343758710E+00   -2.7290457017E+00   -2.7237362723E+00   -2.7184474621E+00
   -2.7131791511E+00   -2.7079312205E+00   -2.7027035521E+00   -2.6974960289E+00
   -2.6923085346E+00   -2.6871409539E+00   -2.6819931724E+00   -2.6768650764E+00
   -2.6717565534E+00   -2.6666674913E+00   -2.6615977793E+00   -2.6565473072E+00