<UPF version="2.0.1">
  <PP_INFO>

 This pseudopotential file has been produced using the code
 ONCVPSP  (Optimized Norm-Conservinng Vanderbilt PSeudopotential)
 fully-relativistic version 3.3.1 12/12/2017 by D. R. Hamann
 The code is available through a link at URL www.mat-simresearch.com.
 Documentation with the package provides a full discription of the
 input data below.


 While it is not required under the terms of the GNU GPL, it is
 suggested that you cite D. R. Hamann, Phys. Rev. B 88, 085117 (2013)
 in any publication using these pseudopotentials.

    <PP_INPUTFILE>
# ATOM AND REFERENCE CONFIGURATION
# atsym  z   nc   nv     iexc    psfile
  Ne 10.00    1    2       4      upf
#
#   n    l    f        energy (Ha)
    1    0    2.00
    2    0    2.00
    2    1    6.00
#
# PSEUDOPOTENTIAL AND OPTIMIZATION
# lmax
    1
#
#   l,   rc,     ep,   ncon, nbas, qcut
    0   2.62070  -1.33781    5    8   7.96858
    1   2.65215  -0.48870    5    8   6.60628
#
# LOCAL POTENTIAL
# lloc, lpopt,  rc(5),   dvloc0
    4    5   2.62070      0.00000
#
# VANDERBILT-KLEINMAN-BYLANDER PROJECTORs
# l, nproj, debl
    0    2   1.54861
    1    2   1.10873
#
# MODEL CORE CHARGE
# icmod, fcfact, rcfact
    0   0.00000   0.00000
#
# LOG DERIVATIVE ANALYSIS
# epsh1, epsh2, depsh
   -5.00    3.00    0.02
#
# OUTPUT GRID
# rlmax, drl
    6.00    0.01
#
# TEST CONFIGURATIONS
# ncnf
    0
# nvcnf
#   n    l    f
    </PP_INPUTFILE>
  </PP_INFO>
  <!--                               -->
  <!-- END OF HUMAN READABLE SECTION -->
  <!--                               -->
    <PP_HEADER
       generated="Generated using ONCVPSP code by D. R. Hamann"
       author="anonymous"
       date="200721"
       comment=""
       element="Ne"
       pseudo_type="NC"
       relativistic="full"
       is_ultrasoft="F"
       is_paw="F"
       is_coulomb="F"
       has_so="T"
       has_wfc="F"
       has_gipaw="F"
       core_correction="F"
       functional="PBE"
       z_valence="    8.00"
       total_psenergy="  -6.08127034840E+01"
       rho_cutoff="   7.57000000000E+00"
       l_max="1"
       l_local="-1"
       mesh_size="   758"
       number_of_wfc="3"
       number_of_proj="6"/>
 <PP_MESH>
   <PP_R type="real"  size=" 758" columns="8">
    0.0000    0.0100    0.0200    0.0300    0.0400    0.0500    0.0600    0.0700
    0.0800    0.0900    0.1000    0.1100    0.1200    0.1300    0.1400    0.1500
    0.1600    0.1700    0.1800    0.1900    0.2000    0.2100    0.2200    0.2300
    0.2400    0.2500    0.2600    0.2700    0.2800    0.2900    0.3000    0.3100
    0.3200    0.3300    0.3400    0.3500    0.3600    0.3700    0.3800    0.3900
    0.4000    0.4100    0.4200    0.4300    0.4400    0.4500    0.4600    0.4700
    0.4800    0.4900    0.5000    0.5100    0.5200    0.5300    0.5400    0.5500
    0.5600    0.5700    0.5800    0.5900    0.6000    0.6100    0.6200    0.6300
    0.6400    0.6500    0.6600    0.6700    0.6800    0.6900    0.7000    0.7100
    0.7200    0.7300    0.7400    0.7500    0.7600    0.7700    0.7800    0.7900
    0.8000    0.8100    0.8200    0.8300    0.8400    0.8500    0.8600    0.8700
    0.8800    0.8900    0.9000    0.9100    0.9200    0.9300    0.9400    0.9500
    0.9600    0.9700    0.9800    0.9900    1.0000    1.0100    1.0200    1.0300
    1.0400    1.0500    1.0600    1.0700    1.0800    1.0900    1.1000    1.1100
    1.1200    1.1300    1.1400    1.1500    1.1600    1.1700    1.1800    1.1900
    1.2000    1.2100    1.2200    1.2300    1.2400    1.2500    1.2600    1.2700
    1.2800    1.2900    1.3000    1.3100    1.3200    1.3300    1.3400    1.3500
    1.3600    1.3700    1.3800    1.3900    1.4000    1.4100    1.4200    1.4300
    1.4400    1.4500    1.4600    1.4700    1.4800    1.4900    1.5000    1.5100
    1.5200    1.5300    1.5400    1.5500    1.5600    1.5700    1.5800    1.5900
    1.6000    1.6100    1.6200    1.6300    1.6400    1.6500    1.6600    1.6700
    1.6800    1.6900    1.7000    1.7100    1.7200    1.7300    1.7400    1.7500
    1.7600    1.7700    1.7800    1.7900    1.8000    1.8100    1.8200    1.8300
    1.8400    1.8500    1.8600    1.8700    1.8800    1.8900    1.9000    1.9100
    1.9200    1.9300    1.9400    1.9500    1.9600    1.9700    1.9800    1.9900
    2.0000    2.0100    2.0200    2.0300    2.0400    2.0500    2.0600    2.0700
    2.0800    2.0900    2.1000    2.1100    2.1200    2.1300    2.1400    2.1500
    2.1600    2.1700    2.1800    2.1900    2.2000    2.2100    2.2200    2.2300
    2.2400    2.2500    2.2600    2.2700    2.2800    2.2900    2.3000    2.3100
    2.3200    2.3300    2.3400    2.3500    2.3600    2.3700    2.3800    2.3900
    2.4000    2.4100    2.4200    2.4300    2.4400    2.4500    2.4600    2.4700
    2.4800    2.4900    2.5000    2.5100    2.5200    2.5300    2.5400    2.5500
    2.5600    2.5700    2.5800    2.5900    2.6000    2.6100    2.6200    2.6300
    2.6400    2.6500    2.6600    2.6700    2.6800    2.6900    2.7000    2.7100
    2.7200    2.7300    2.7400    2.7500    2.7600    2.7700    2.7800    2.7900
    2.8000    2.8100    2.8200    2.8300    2.8400    2.8500    2.8600    2.8700
    2.8800    2.8900    2.9000    2.9100    2.9200    2.9300    2.9400    2.9500
    2.9600    2.9700    2.9800    2.9900    3.0000    3.0100    3.0200    3.0300
    3.0400    3.0500    3.0600    3.0700    3.0800    3.0900    3.1000    3.1100
    3.1200    3.1300    3.1400    3.1500    3.1600    3.1700    3.1800    3.1900
    3.2000    3.2100    3.2200    3.2300    3.2400    3.2500    3.2600    3.2700
    3.2800    3.2900    3.3000    3.3100    3.3200    3.3300    3.3400    3.3500
    3.3600    3.3700    3.3800    3.3900    3.4000    3.4100    3.4200    3.4300
    3.4400    3.4500    3.4600    3.4700    3.4800    3.4900    3.5000    3.5100
    3.5200    3.5300    3.5400    3.5500    3.5600    3.5700    3.5800    3.5900
    3.6000    3.6100    3.6200    3.6300    3.6400    3.6500    3.6600    3.6700
    3.6800    3.6900    3.7000    3.7100    3.7200    3.7300    3.7400    3.7500
    3.7600    3.7700    3.7800    3.7900    3.8000    3.8100    3.8200    3.8300
    3.8400    3.8500    3.8600    3.8700    3.8800    3.8900    3.9000    3.9100
    3.9200    3.9300    3.9400    3.9500    3.9600    3.9700    3.9800    3.9900
    4.0000    4.0100    4.0200    4.0300    4.0400    4.0500    4.0600    4.0700
    4.0800    4.0900    4.1000    4.1100    4.1200    4.1300    4.1400    4.1500
    4.1600    4.1700    4.1800    4.1900    4.2000    4.2100    4.2200    4.2300
    4.2400    4.2500    4.2600    4.2700    4.2800    4.2900    4.3000    4.3100
    4.3200    4.3300    4.3400    4.3500    4.3600    4.3700    4.3800    4.3900
    4.4000    4.4100    4.4200    4.4300    4.4400    4.4500    4.4600    4.4700
    4.4800    4.4900    4.5000    4.5100    4.5200    4.5300    4.5400    4.5500
    4.5600    4.5700    4.5800    4.5900    4.6000    4.6100    4.6200    4.6300
    4.6400    4.6500    4.6600    4.6700    4.6800    4.6900    4.7000    4.7100
    4.7200    4.7300    4.7400    4.7500    4.7600    4.7700    4.7800    4.7900
    4.8000    4.8100    4.8200    4.8300    4.8400    4.8500    4.8600    4.8700
    4.8800    4.8900    4.9000    4.9100    4.9200    4.9300    4.9400    4.9500
    4.9600    4.9700    4.9800    4.9900    5.0000    5.0100    5.0200    5.0300
    5.0400    5.0500    5.0600    5.0700    5.0800    5.0900    5.1000    5.1100
    5.1200    5.1300    5.1400    5.1500    5.1600    5.1700    5.1800    5.1900
    5.2000    5.2100    5.2200    5.2300    5.2400    5.2500    5.2600    5.2700
    5.2800    5.2900    5.3000    5.3100    5.3200    5.3300    5.3400    5.3500
    5.3600    5.3700    5.3800    5.3900    5.4000    5.4100    5.4200    5.4300
    5.4400    5.4500    5.4600    5.4700    5.4800    5.4900    5.5000    5.5100
    5.5200    5.5300    5.5400    5.5500    5.5600    5.5700    5.5800    5.5900
    5.6000    5.6100    5.6200    5.6300    5.6400    5.6500    5.6600    5.6700
    5.6800    5.6900    5.7000    5.7100    5.7200    5.7300    5.7400    5.7500
    5.7600    5.7700    5.7800    5.7900    5.8000    5.8100    5.8200    5.8300
    5.8400    5.8500    5.8600    5.8700    5.8800    5.8900    5.9000    5.9100
    5.9200    5.9300    5.9400    5.9500    5.9600    5.9700    5.9800    5.9900
    6.0000    6.0100    6.0200    6.0300    6.0400    6.0500    6.0600    6.0700
    6.0800    6.0900    6.1000    6.1100    6.1200    6.1300    6.1400    6.1500
    6.1600    6.1700    6.1800    6.1900    6.2000    6.2100    6.2200    6.2300
    6.2400    6.2500    6.2600    6.2700    6.2800    6.2900    6.3000    6.3100
    6.3200    6.3300    6.3400    6.3500    6.3600    6.3700    6.3800    6.3900
    6.4000    6.4100    6.4200    6.4300    6.4400    6.4500    6.4600    6.4700
    6.4800    6.4900    6.5000    6.5100    6.5200    6.5300    6.5400    6.5500
    6.5600    6.5700    6.5800    6.5900    6.6000    6.6100    6.6200    6.6300
    6.6400    6.6500    6.6600    6.6700    6.6800    6.6900    6.7000    6.7100
    6.7200    6.7300    6.7400    6.7500    6.7600    6.7700    6.7800    6.7900
    6.8000    6.8100    6.8200    6.8300    6.8400    6.8500    6.8600    6.8700
    6.8800    6.8900    6.9000    6.9100    6.9200    6.9300    6.9400    6.9500
    6.9600    6.9700    6.9800    6.9900    7.0000    7.0100    7.0200    7.0300
    7.0400    7.0500    7.0600    7.0700    7.0800    7.0900    7.1000    7.1100
    7.1200    7.1300    7.1400    7.1500    7.1600    7.1700    7.1800    7.1900
    7.2000    7.2100    7.2200    7.2300    7.2400    7.2500    7.2600    7.2700
    7.2800    7.2900    7.3000    7.3100    7.3200    7.3300    7.3400    7.3500
    7.3600    7.3700    7.3800    7.3900    7.4000    7.4100    7.4200    7.4300
    7.4400    7.4500    7.4600    7.4700    7.4800    7.4900    7.5000    7.5100
    7.5200    7.5300    7.5400    7.5500    7.5600    7.5700
   </PP_R>
   <PP_RAB type="real"  size=" 758" columns="8">
    0.0100    0.0100    0.0100    0.0100    0.0100    0.0100    0.0100    0.0100
    0.0100    0.0100    0.0100    0.0100    0.0100    0.0100    0.0100    0.0100
    0.0100    0.0100    0.0100    0.0100    0.0100    0.0100    0.0100    0.0100
    0.0100    0.0100    0.0100    0.0100    0.0100    0.0100    0.0100    0.0100
    0.0100    0.0100    0.0100    0.0100    0.0100    0.0100    0.0100    0.0100
    0.0100    0.0100    0.0100    0.0100    0.0100    0.0100    0.0100    0.0100
    0.0100    0.0100    0.0100    0.0100    0.0100    0.0100    0.0100    0.0100
    0.0100    0.0100    0.0100    0.0100    0.0100    0.0100    0.0100    0.0100
    0.0100    0.0100    0.0100    0.0100    0.0100    0.0100    0.0100    0.0100
    0.0100    0.0100    0.0100    0.0100    0.0100    0.0100    0.0100    0.0100
    0.0100    0.0100    0.0100    0.0100    0.0100    0.0100    0.0100    0.0100
    0.0100    0.0100    0.0100    0.0100    0.0100    0.0100    0.0100    0.0100
    0.0100    0.0100    0.0100    0.0100    0.0100    0.0100    0.0100    0.0100
    0.0100    0.0100    0.0100    0.0100    0.0100    0.0100    0.0100    0.0100
    0.0100    0.0100    0.0100    0.0100    0.0100    0.0100    0.0100    0.0100
    0.0100    0.0100    0.0100    0.0100    0.0100    0.0100    0.0100    0.0100
    0.0100    0.0100    0.0100    0.0100    0.0100    0.0100    0.0100    0.0100
    0.0100    0.0100    0.0100    0.0100    0.0100    0.0100    0.0100    0.0100
    0.0100    0.0100    0.0100    0.0100    0.0100    0.0100    0.0100    0.0100
    0.0100    0.0100    0.0100    0.0100    0.0100    0.0100    0.0100    0.0100
    0.0100    0.0100    0.0100    0.0100    0.0100    0.0100    0.0100    0.0100
    0.0100    0.0100    0.0100    0.0100    0.0100    0.0100    0.0100    0.0100
    0.0100    0.0100    0.0100    0.0100    0.0100    0.0100    0.0100    0.0100
    0.0100    0.0100    0.0100    0.0100    0.0100    0.0100    0.0100    0.0100
    0.0100    0.0100    0.0100    0.0100    0.0100    0.0100    0.0100    0.0100
    0.0100    0.0100    0.0100    0.0100    0.0100    0.0100    0.0100    0.0100
    0.0100    0.0100    0.0100    0.0100    0.0100    0.0100    0.0100    0.0100
    0.0100    0.0100    0.0100    0.0100    0.0100    0.0100    0.0100    0.0100
    0.0100    0.0100    0.0100    0.0100    0.0100    0.0100    0.0100    0.0100
    0.0100    0.0100    0.0100    0.0100    0.0100    0.0100    0.0100    0.0100
    0.0100    0.0100    0.0100    0.0100    0.0100    0.0100    0.0100    0.0100
    0.0100    0.0100    0.0100    0.0100    0.0100    0.0100    0.0100    0.0100
    0.0100    0.0100    0.0100    0.0100    0.0100    0.0100    0.0100    0.0100
    0.0100    0.0100    0.0100    0.0100    0.0100    0.0100    0.0100    0.0100
    0.0100    0.0100    0.0100    0.0100    0.0100    0.0100    0.0100    0.0100
    0.0100    0.0100    0.0100    0.0100    0.0100    0.0100    0.0100    0.0100
    0.0100    0.0100    0.0100    0.0100    0.0100    0.0100    0.0100    0.0100
    0.0100    0.0100    0.0100    0.0100    0.0100    0.0100    0.0100    0.0100
    0.0100    0.0100    0.0100    0.0100    0.0100    0.0100    0.0100    0.0100
    0.0100    0.0100    0.0100    0.0100    0.0100    0.0100    0.0100    0.0100
    0.0100    0.0100    0.0100    0.0100    0.0100    0.0100    0.0100    0.0100
    0.0100    0.0100    0.0100    0.0100    0.0100    0.0100    0.0100    0.0100
    0.0100    0.0100    0.0100    0.0100    0.0100    0.0100    0.0100    0.0100
    0.0100    0.0100    0.0100    0.0100    0.0100    0.0100    0.0100    0.0100
    0.0100    0.0100    0.0100    0.0100    0.0100    0.0100    0.0100    0.0100
    0.0100    0.0100    0.0100    0.0100    0.0100    0.0100    0.0100    0.0100
    0.0100    0.0100    0.0100    0.0100    0.0100    0.0100    0.0100    0.0100
    0.0100    0.0100    0.0100    0.0100    0.0100    0.0100    0.0100    0.0100
    0.0100    0.0100    0.0100    0.0100    0.0100    0.0100    0.0100    0.0100
    0.0100    0.0100    0.0100    0.0100    0.0100    0.0100    0.0100    0.0100
    0.0100    0.0100    0.0100    0.0100    0.0100    0.0100    0.0100    0.0100
    0.0100    0.0100    0.0100    0.0100    0.0100    0.0100    0.0100    0.0100
    0.0100    0.0100    0.0100    0.0100    0.0100    0.0100    0.0100    0.0100
    0.0100    0.0100    0.0100    0.0100    0.0100    0.0100    0.0100    0.0100
    0.0100    0.0100    0.0100    0.0100    0.0100    0.0100    0.0100    0.0100
    0.0100    0.0100    0.0100    0.0100    0.0100    0.0100    0.0100    0.0100
    0.0100    0.0100    0.0100    0.0100    0.0100    0.0100    0.0100    0.0100
    0.0100    0.0100    0.0100    0.0100    0.0100    0.0100    0.0100    0.0100
    0.0100    0.0100    0.0100    0.0100    0.0100    0.0100    0.0100    0.0100
    0.0100    0.0100    0.0100    0.0100    0.0100    0.0100    0.0100    0.0100
    0.0100    0.0100    0.0100    0.0100    0.0100    0.0100    0.0100    0.0100
    0.0100    0.0100    0.0100    0.0100    0.0100    0.0100    0.0100    0.0100
    0.0100    0.0100    0.0100    0.0100    0.0100    0.0100    0.0100    0.0100
    0.0100    0.0100    0.0100    0.0100    0.0100    0.0100    0.0100    0.0100
    0.0100    0.0100    0.0100    0.0100    0.0100    0.0100    0.0100    0.0100
    0.0100    0.0100    0.0100    0.0100    0.0100    0.0100    0.0100    0.0100
    0.0100    0.0100    0.0100    0.0100    0.0100    0.0100    0.0100    0.0100
    0.0100    0.0100    0.0100    0.0100    0.0100    0.0100    0.0100    0.0100
    0.0100    0.0100    0.0100    0.0100    0.0100    0.0100    0.0100    0.0100
    0.0100    0.0100    0.0100    0.0100    0.0100    0.0100    0.0100    0.0100
    0.0100    0.0100    0.0100    0.0100    0.0100    0.0100    0.0100    0.0100
    0.0100    0.0100    0.0100    0.0100    0.0100    0.0100    0.0100    0.0100
    0.0100    0.0100    0.0100    0.0100    0.0100    0.0100    0.0100    0.0100
    0.0100    0.0100    0.0100    0.0100    0.0100    0.0100    0.0100    0.0100
    0.0100    0.0100    0.0100    0.0100    0.0100    0.0100    0.0100    0.0100
    0.0100    0.0100    0.0100    0.0100    0.0100    0.0100    0.0100    0.0100
    0.0100    0.0100    0.0100    0.0100    0.0100    0.0100    0.0100    0.0100
    0.0100    0.0100    0.0100    0.0100    0.0100    0.0100    0.0100    0.0100
    0.0100    0.0100    0.0100    0.0100    0.0100    0.0100    0.0100    0.0100
    0.0100    0.0100    0.0100    0.0100    0.0100    0.0100    0.0100    0.0100
    0.0100    0.0100    0.0100    0.0100    0.0100    0.0100    0.0100    0.0100
    0.0100    0.0100    0.0100    0.0100    0.0100    0.0100    0.0100    0.0100
    0.0100    0.0100    0.0100    0.0100    0.0100    0.0100    0.0100    0.0100
    0.0100    0.0100    0.0100    0.0100    0.0100    0.0100    0.0100    0.0100
    0.0100    0.0100    0.0100    0.0100    0.0100    0.0100    0.0100    0.0100
    0.0100    0.0100    0.0100    0.0100    0.0100    0.0100    0.0100    0.0100
    0.0100    0.0100    0.0100    0.0100    0.0100    0.0100    0.0100    0.0100
    0.0100    0.0100    0.0100    0.0100    0.0100    0.0100    0.0100    0.0100
    0.0100    0.0100    0.0100    0.0100    0.0100    0.0100    0.0100    0.0100
    0.0100    0.0100    0.0100    0.0100    0.0100    0.0100    0.0100    0.0100
    0.0100    0.0100    0.0100    0.0100    0.0100    0.0100    0.0100    0.0100
    0.0100    0.0100    0.0100    0.0100    0.0100    0.0100    0.0100    0.0100
    0.0100    0.0100    0.0100    0.0100    0.0100    0.0100    0.0100    0.0100
    0.0100    0.0100    0.0100    0.0100    0.0100    0.0100    0.0100    0.0100
    0.0100    0.0100    0.0100    0.0100    0.0100    0.0100
   </PP_RAB>
 </PP_MESH>
  <PP_LOCAL type="real"  size=" 758" columns="4">
   -1.7346971280E+01   -1.7351892292E+01   -1.7365644808E+01   -1.7386276759E+01
   -1.7410912218E+01   -1.7436426999E+01   -1.7459970136E+01   -1.7479305019E+01
   -1.7492943954E+01   -1.7500117086E+01   -1.7500643470E+01   -1.7494766848E+01
   -1.7482998735E+01   -1.7465990326E+01   -1.7444439284E+01   -1.7419028585E+01
   -1.7390390850E+01   -1.7359091029E+01   -1.7325621187E+01   -1.7290402589E+01
   -1.7253791668E+01   -1.7216087643E+01   -1.7177540404E+01   -1.7138357885E+01
   -1.7098712591E+01   -1.7058747131E+01   -1.7018578793E+01   -1.6978303267E+01
   -1.6937997630E+01   -1.6897722723E+01   -1.6857525048E+01   -1.6817438283E+01
   -1.6777484508E+01   -1.6737675197E+01   -1.6698012063E+01   -1.6658487767E+01
   -1.6619086559E+01   -1.6579784857E+01   -1.6540551806E+01   -1.6501349829E+01
   -1.6462135191E+01   -1.6422858587E+01   -1.6383465772E+01   -1.6343898235E+01
   -1.6304093924E+01   -1.6263988033E+01   -1.6223513831E+01   -1.6182603544E+01
   -1.6141189272E+01   -1.6099203931E+01   -1.6056582195E+01   -1.6013261435E+01
   -1.5969182615E+01   -1.5924291135E+01   -1.5878537601E+01   -1.5831878489E+01
   -1.5784276701E+01   -1.5735701991E+01   -1.5686131257E+01   -1.5635548682E+01
   -1.5583945746E+01   -1.5531321095E+01   -1.5477680288E+01   -1.5423035426E+01
   -1.5367404701E+01   -1.5310811850E+01   -1.5253285570E+01   -1.5194858885E+01
   -1.5135568507E+01   -1.5075454186E+01   -1.5014558089E+01   -1.4952924201E+01
   -1.4890597770E+01   -1.4827624803E+01   -1.4764051605E+01   -1.4699924392E+01
   -1.4635288944E+01   -1.4570190326E+01   -1.4504672654E+01   -1.4438778919E+01
   -1.4372550849E+01   -1.4306028811E+01   -1.4239251756E+01   -1.4172257184E+01
   -1.4105081139E+01   -1.4037758219E+01   -1.3970321611E+01   -1.3902803124E+01
   -1.3835233241E+01   -1.3767641172E+01   -1.3700054907E+01   -1.3632501275E+01
   -1.3565005996E+01   -1.3497593735E+01   -1.3430288150E+01   -1.3363111936E+01
   -1.3296086866E+01   -1.3229233823E+01   -1.3162572833E+01   -1.3096123086E+01
   -1.3029902955E+01   -1.2963930016E+01   -1.2898221048E+01   -1.2832792046E+01
   -1.2767658221E+01   -1.2702833992E+01   -1.2638332985E+01   -1.2574168024E+01
   -1.2510351113E+01   -1.2446893428E+01   -1.2383805295E+01   -1.2321096174E+01
   -1.2258774641E+01   -1.2196848360E+01   -1.2135324072E+01   -1.2074207561E+01
   -1.2013503645E+01   -1.1953216146E+01   -1.1893347877E+01   -1.1833900626E+01
   -1.1774875136E+01   -1.1716271102E+01   -1.1658087163E+01   -1.1600320899E+01
   -1.1542968841E+01   -1.1486026480E+01   -1.1429488288E+01   -1.1373347745E+01
   -1.1317597376E+01   -1.1262228799E+01   -1.1207232778E+01   -1.1152599289E+01
   -1.1098317595E+01   -1.1044376332E+01   -1.0990763601E+01   -1.0937467068E+01
   -1.0884474079E+01   -1.0831771767E+01   -1.0779347178E+01   -1.0727187390E+01
   -1.0675279639E+01   -1.0623611441E+01   -1.0572170710E+01   -1.0520945881E+01
   -1.0469926012E+01   -1.0419100891E+01   -1.0368461125E+01   -1.0317998222E+01
   -1.0267704658E+01   -1.0217573933E+01   -1.0167600613E+01   -1.0117780354E+01
   -1.0068109917E+01   -1.0018587166E+01   -9.9692110500E+00   -9.9199815810E+00
   -9.8708997891E+00   -9.8219676743E+00   -9.7731881467E+00   -9.7245649588E+00
   -9.6761026317E+00   -9.6278063753E+00   -9.5796820066E+00   -9.5317358644E+00
   -9.4839747240E+00   -9.4364057125E+00   -9.3890362250E+00   -9.3418738445E+00
   -9.2949262644E+00   -9.2482012157E+00   -9.2017063994E+00   -9.1554494232E+00
   -9.1094377448E+00   -9.0636786204E+00   -9.0181790595E+00   -8.9729457850E+00
   -8.9279851999E+00   -8.8833033582E+00   -8.8389059430E+00   -8.7947982473E+00
   -8.7509851618E+00   -8.7074711651E+00   -8.6642603189E+00   -8.6213562666E+00
   -8.5787622345E+00   -8.5364810367E+00   -8.4945150815E+00   -8.4528663806E+00
   -8.4115365596E+00   -8.3705268703E+00   -8.3298382041E+00   -8.2894711062E+00
   -8.2494257905E+00   -8.2097021555E+00   -8.1702997995E+00   -8.1312180373E+00
   -8.0924559156E+00   -8.0540122293E+00   -8.0158855368E+00   -7.9780741757E+00
   -7.9405762771E+00   -7.9033897808E+00   -7.8665124486E+00   -7.8299418779E+00
   -7.7936755148E+00   -7.7577106657E+00   -7.7220445094E+00   -7.6866741082E+00
   -7.6515964184E+00   -7.6168083007E+00   -7.5823065294E+00   -7.5480878025E+00
   -7.5141487507E+00   -7.4804859462E+00   -7.4470959116E+00   -7.4139751295E+00
   -7.3811200504E+00   -7.3485271027E+00   -7.3161927016E+00   -7.2841132583E+00
   -7.2522851906E+00   -7.2207049316E+00   -7.1893689409E+00   -7.1582737148E+00
   -7.1274157959E+00   -7.0967917847E+00   -7.0663983494E+00   -7.0362322362E+00
   -7.0062902794E+00   -6.9765694109E+00   -6.9470666689E+00   -6.9177792064E+00
   -6.8887042984E+00   -6.8598393481E+00   -6.8311818925E+00   -6.8027296063E+00
   -6.7744803044E+00   -6.7464319436E+00   -6.7185826226E+00   -6.6909305801E+00
   -6.6634741926E+00   -6.6362119698E+00   -6.6091425485E+00   -6.5822646870E+00
   -6.5555772558E+00   -6.5290792291E+00   -6.5027696748E+00   -6.4766477431E+00
   -6.4507126555E+00   -6.4249636924E+00   -6.3994001805E+00   -6.3740214801E+00
   -6.3488269723E+00   -6.3238160461E+00   -6.2989880855E+00   -6.2743424569E+00
   -6.2498784976E+00   -6.2255955033E+00   -6.2014927188E+00   -6.1775693253E+00
   -6.1538244281E+00   -6.1302570609E+00   -6.1068661616E+00   -6.0836505732E+00
   -6.0606090177E+00   -6.0377401154E+00   -6.0150423900E+00   -5.9925142614E+00
   -5.9701540694E+00   -5.9479600915E+00   -5.9259305572E+00   -5.9040636680E+00
   -5.8823576136E+00   -5.8608105954E+00   -5.8394208479E+00   -5.8181866297E+00
   -5.7971062298E+00   -5.7761780014E+00   -5.7554003205E+00   -5.7347716034E+00
   -5.7142902488E+00   -5.6939546780E+00   -5.6737633312E+00   -5.6537146756E+00
   -5.6338072069E+00   -5.6140394396E+00   -5.5944099101E+00   -5.5749171722E+00
   -5.5555598013E+00   -5.5363363920E+00   -5.5172455586E+00   -5.4982859344E+00
   -5.4794561711E+00   -5.4607549392E+00   -5.4421809270E+00   -5.4237328409E+00
   -5.4054094045E+00   -5.3872093587E+00   -5.3691314613E+00   -5.3511744868E+00
   -5.3333372258E+00   -5.3156184853E+00   -5.2980170878E+00   -5.2805318715E+00
   -5.2631616899E+00   -5.2459054115E+00   -5.2287619196E+00   -5.2117301119E+00
   -5.1948089007E+00   -5.1779972122E+00   -5.1612939865E+00   -5.1446981774E+00
   -5.1282087518E+00   -5.1118246902E+00   -5.0955449860E+00   -5.0793686452E+00
   -5.0632946864E+00   -5.0473221409E+00   -5.0314500518E+00   -5.0156774745E+00
   -5.0000034759E+00   -4.9844271347E+00   -4.9689475412E+00   -4.9535637967E+00
   -4.9382750137E+00   -4.9230803156E+00   -4.9079788367E+00   -4.8929697217E+00
   -4.8780521257E+00   -4.8632252144E+00   -4.8484881631E+00   -4.8338401576E+00
   -4.8192803932E+00   -4.8048080748E+00   -4.7904224171E+00   -4.7761226439E+00
   -4.7619079884E+00   -4.7477776930E+00   -4.7337310089E+00   -4.7197671961E+00
   -4.7058855234E+00   -4.6920852682E+00   -4.6783657162E+00   -4.6647261616E+00
   -4.6511659068E+00   -4.6376842621E+00   -4.6242805460E+00   -4.6109540848E+00
   -4.5977042124E+00   -4.5845302705E+00   -4.5714316083E+00   -4.5584075823E+00
   -4.5454575564E+00   -4.5325809018E+00   -4.5197769966E+00   -4.5070452261E+00
   -4.4943849823E+00   -4.4817956642E+00   -4.4692766775E+00   -4.4568274344E+00
   -4.4444473538E+00   -4.4321358608E+00   -4.4198923870E+00   -4.4077163704E+00
   -4.3956072550E+00   -4.3835644908E+00   -4.3715875340E+00   -4.3596758467E+00
   -4.3478288968E+00   -4.3360461579E+00   -4.3243271095E+00   -4.3126712365E+00
   -4.3010780295E+00   -4.2895469843E+00   -4.2780776025E+00   -4.2666693906E+00
   -4.2553218607E+00   -4.2440345298E+00   -4.2328069202E+00   -4.2216385591E+00
   -4.2105289789E+00   -4.1994777166E+00   -4.1884843143E+00   -4.1775483187E+00
   -4.1666692814E+00   -4.1558467585E+00   -4.1450803108E+00   -4.1343695036E+00
   -4.1237139067E+00   -4.1131130944E+00   -4.1025666451E+00   -4.0920741418E+00
   -4.0816351717E+00   -4.0712493260E+00   -4.0609162003E+00   -4.0506353942E+00
   -4.0404065113E+00   -4.0302291593E+00   -4.0201029497E+00   -4.0100274980E+00
   -4.0000024235E+00   -3.9900273493E+00   -3.9801019023E+00   -3.9702257131E+00
   -3.9603984159E+00   -3.9506196485E+00   -3.9408890524E+00   -3.9312062724E+00
   -3.9215709570E+00   -3.9119827579E+00   -3.9024413306E+00   -3.8929463335E+00
   -3.8834974287E+00   -3.8740942811E+00   -3.8647365594E+00   -3.8554239352E+00
   -3.8461560831E+00   -3.8369326811E+00   -3.8277534102E+00   -3.8186179544E+00
   -3.8095260007E+00   -3.8004772393E+00   -3.7914713629E+00   -3.7825080674E+00
   -3.7735870516E+00   -3.7647080171E+00   -3.7558706681E+00   -3.7470747119E+00
   -3.7383198582E+00   -3.7296058197E+00   -3.7209323115E+00   -3.7122990517E+00
   -3.7037057606E+00   -3.6951521614E+00   -3.6866379797E+00   -3.6781629436E+00
   -3.6697267838E+00   -3.6613292334E+00   -3.6529700280E+00   -3.6446489056E+00
   -3.6363656063E+00   -3.6281198731E+00   -3.6199114509E+00   -3.6117400870E+00
   -3.6036055310E+00   -3.5955075348E+00   -3.5874458525E+00   -3.5794202403E+00
   -3.5714304568E+00   -3.5634762625E+00   -3.5555574202E+00   -3.5476736946E+00
   -3.5398248529E+00   -3.5320106638E+00   -3.5242308984E+00   -3.5164853299E+00
   -3.5087737331E+00   -3.5010958851E+00   -3.4934515648E+00   -3.4858405531E+00
   -3.4782626328E+00   -3.4707175884E+00   -3.4632052066E+00   -3.4557252757E+00
   -3.4482775859E+00   -3.4408619291E+00   -3.4334780992E+00   -3.4261258917E+00
   -3.4188051039E+00   -3.4115155348E+00   -3.4042569852E+00   -3.3970292574E+00
   -3.3898321556E+00   -3.3826654855E+00   -3.3755290546E+00   -3.3684226717E+00
   -3.3613461477E+00   -3.3542992945E+00   -3.3472819262E+00   -3.3402938579E+00
   -3.3333349066E+00   -3.3264048906E+00   -3.3195036299E+00   -3.3126309459E+00
   -3.3057866614E+00   -3.2989706007E+00   -3.2921825897E+00   -3.2854224556E+00
   -3.2786900269E+00   -3.2719851337E+00   -3.2653076075E+00   -3.2586572809E+00
   -3.2520339882E+00   -3.2454375649E+00   -3.2388678477E+00   -3.2323246749E+00
   -3.2258078859E+00   -3.2193173213E+00   -3.2128528233E+00   -3.2064142351E+00
   -3.2000014013E+00   -3.1936141676E+00   -3.1872523811E+00   -3.1809158900E+00
   -3.1746045437E+00   -3.1683181929E+00   -3.1620566892E+00   -3.1558198859E+00
   -3.1496076368E+00   -3.1434197975E+00   -3.1372562241E+00   -3.1311167744E+00
   -3.1250013069E+00   -3.1189096814E+00   -3.1128417587E+00   -3.1067974008E+00
   -3.1007764707E+00   -3.0947788323E+00   -3.0888043509E+00   -3.0828528926E+00
   -3.0769243245E+00   -3.0710185148E+00   -3.0651353328E+00   -3.0592746486E+00
   -3.0534363335E+00   -3.0476202595E+00   -3.0418263000E+00   -3.0360543289E+00
   -3.0303042214E+00   -3.0245758534E+00   -3.0188691019E+00   -3.0131838448E+00
   -3.0075199609E+00   -3.0018773298E+00   -2.9962558322E+00   -2.9906553496E+00
   -2.9850757643E+00   -2.9795169596E+00   -2.9739788196E+00   -2.9684612293E+00
   -2.9629640746E+00   -2.9574872421E+00   -2.9520306193E+00   -2.9465940946E+00
   -2.9411775571E+00   -2.9357808968E+00   -2.9304040046E+00   -2.9250467720E+00
   -2.9197090913E+00   -2.9143908557E+00   -2.9090919592E+00   -2.9038122965E+00
   -2.8985517630E+00   -2.8933102549E+00   -2.8880876693E+00   -2.8828839038E+00
   -2.8776988569E+00   -2.8725324279E+00   -2.8673845165E+00   -2.8622550234E+00
   -2.8571438499E+00   -2.8520508982E+00   -2.8469760708E+00   -2.8419192712E+00
   -2.8368804036E+00   -2.8318593727E+00   -2.8268560840E+00   -2.8218704436E+00
   -2.8169023583E+00   -2.8119517355E+00   -2.8070184834E+00   -2.8021025106E+00
   -2.7972037266E+00   -2.7923220413E+00   -2.7874573654E+00   -2.7826096101E+00
   -2.7777786873E+00   -2.7729645095E+00   -2.7681669898E+00   -2.7633860418E+00
   -2.7586215799E+00   -2.7538735190E+00   -2.7491417744E+00   -2.7444262622E+00
   -2.7397268991E+00   -2.7350436022E+00   -2.7303762892E+00   -2.7257248786E+00
   -2.7210892891E+00   -2.7164694401E+00   -2.7118652517E+00   -2.7072766443E+00
   -2.7027035390E+00   -2.6981458574E+00   -2.6936035215E+00   -2.6890764539E+00
   -2.6845645779E+00   -2.6800678171E+00   -2.6755860957E+00   -2.6711193383E+00
   -2.6666674701E+00   -2.6622304168E+00   -2.6578081045E+00   -2.6534004600E+00