Ag    ONCVPSP-3.3.1  r_core=   2.69244   2.56699   2.50648
     47.0000     19.0000      210904    zatom,zion,pspd
     8      11   2     4   600     0    pspcod,pspxc,lmax,lloc,mmax,r2well
  5.99000000  0.00000000  0.00000000    rchrg fchrg qchrg
     2     3     3     0    nproj
     3     1           extension_switch
     4     3     0    nprojso
   0                         4.3899699004991D-01  3.7255994980821D+00
     1  0.0000000000000D+00 -2.7620128406625D-12 -4.9357185005761D-12
     2  1.0000000000000D-02 -4.4508730652961D-03  6.0111534884710D-02
     3  2.0000000000000D-02 -8.8572451220387D-03  1.2011651886531D-01
     4  3.0000000000000D-02 -1.3174707839665D-02  1.7990862426702D-01
     5  4.0000000000000D-02 -1.7359038187010D-02  2.3938196936100D-01
     6  5.0000000000000D-02 -2.1366290939891D-02  2.9843134005667D-01
     7  6.0000000000000D-02 -2.5152891016217D-02  3.5695241006093D-01
     8  7.0000000000000D-02 -2.8675725578066D-02  4.1484195899870D-01
     9  8.0000000000000D-02 -3.1892235837393D-02  4.7199808799462D-01
    10  9.0000000000000D-02 -3.4760508498831D-02  5.2832043222166D-01
    11  1.0000000000000D-01 -3.7239366769124D-02  5.8371036992961D-01
    12  1.1000000000000D-01 -3.9288460858249D-02  6.3807122747525D-01
    13  1.2000000000000D-01 -4.0868357892312D-02  6.9130847988538D-01
    14  1.3000000000000D-01 -4.1940631152797D-02  7.4332994649483D-01
    15  1.4000000000000D-01 -4.2467948550690D-02  7.9404598121342D-01
    16  1.5000000000000D-01 -4.2414160237706D-02  8.4336965698882D-01
    17  1.6000000000000D-01 -4.1744385250235D-02  8.9121694404628D-01
    18  1.7000000000000D-01 -4.0425097074037D-02  9.3750688150121D-01
    19  1.8000000000000D-01 -3.8424208011178D-02  9.8216174195648D-01
    20  1.9000000000000D-01 -3.5711152222463D-02  1.0251071887134D+00
    21  2.0000000000000D-01 -3.2256967311431D-02  1.0662724252430D+00
    22  2.1000000000000D-01 -2.8034374308015D-02  1.1055903365828D+00
    23  2.2000000000000D-01 -2.3017855902457D-02  1.1429976223435D+00
    24  2.3000000000000D-01 -1.7183732772148D-02  1.1784349210315D+00
    25  2.4000000000000D-01 -1.0510237836721D-02  1.2118469254110D+00
    26  2.5000000000000D-01 -2.9775882693830D-03  1.2431824886551D+00
    27  2.6000000000000D-01  5.4319449147224D-03  1.2723947210531D+00
    28  2.7000000000000D-01  1.4733969878800D-02  1.2994410770674D+00
    29  2.8000000000000D-01  2.4941909785759D-02  1.3242834325541D+00
    30  2.9000000000000D-01  3.6066941618190D-02  1.3468881519856D+00
    31  3.0000000000000D-01  4.8117938200648D-02  1.3672261455386D+00
    32  3.1000000000000D-01  6.1101413631741D-02  1.3852729159321D+00
    33  3.2000000000000D-01  7.5021472338252D-02  1.4010085949279D+00
    34  3.3000000000000D-01  8.9879761966123D-02  1.4144179694287D+00
    35  3.4000000000000D-01  1.0567543032591D-01  1.4254904971324D+00
    36  3.5000000000000D-01  1.2240508661193D-01  1.4342203117297D+00
    37  3.6000000000000D-01  1.4006276711470D-01  1.4406062176528D+00
    38  3.7000000000000D-01  1.5863990564602D-01  1.4446516744103D+00
    39  3.8000000000000D-01  1.7812530889496D-01  1.4463647705675D+00
    40  3.9000000000000D-01  1.9850513693017D-01  1.4457581874534D+00
    41  4.0000000000000D-01  2.1976288906086D-01  1.4428491527048D+00
    42  4.1000000000000D-01  2.4187939526379D-01  1.4376593837756D+00
    43  4.2000000000000D-01  2.6483281337808D-01  1.4302150215679D+00
    44  4.3000000000000D-01  2.8859863226254D-01  1.4205465543620D+00
    45  4.4000000000000D-01  3.1314968110185D-01  1.4086887322455D+00
    46  4.5000000000000D-01  3.3845614503912D-01  1.3946804722640D+00
    47  4.6000000000000D-01  3.6448558730068D-01  1.3785647545371D+00
    48  4.7000000000000D-01  3.9120297796832D-01  1.3603885096044D+00
    49  4.8000000000000D-01  4.1857072954001D-01  1.3402024972869D+00
    50  4.9000000000000D-01  4.4654873940657D-01  1.3180611773675D+00
    51  5.0000000000000D-01  4.7509443935596D-01  1.2940225724133D+00
    52  5.1000000000000D-01  5.0416285220017D-01  1.2681481230823D+00
    53  5.2000000000000D-01  5.3370665560202D-01  1.2405025362704D+00
    54  5.3000000000000D-01  5.6367625316039D-01  1.2111536264742D+00
    55  5.4000000000000D-01  5.9401985279185D-01  1.1801721507581D+00
    56  5.5000000000000D-01  6.2468355242667D-01  1.1476316377295D+00
    57  5.6000000000000D-01  6.5561143301411D-01  1.1136082109391D+00
    58  5.7000000000000D-01  6.8674565881015D-01  1.0781804071348D+00
    59  5.8000000000000D-01  7.1802658489617D-01  1.0414289898093D+00
    60  5.9000000000000D-01  7.4939287185340D-01  1.0034367584926D+00
    61  6.0000000000000D-01  7.8078160749255D-01  9.6428835424696D-01
    62  6.1000000000000D-01  8.1212843551196D-01  9.2407006183337D-01
    63  6.2000000000000D-01  8.4336769093233D-01  8.8286960902155D-01
    64  6.3000000000000D-01  8.7443254212810D-01  8.4077596352429D-01
    65  6.4000000000000D-01  9.0525513924977D-01  7.9787912803944D-01
    66  6.5000000000000D-01  9.3576676880348D-01  7.5426993388682D-01
    67  6.6000000000000D-01  9.6589801412687D-01  7.1003983372960D-01
    68  6.7000000000000D-01  9.9557892147329D-01  6.6528069387030D-01
    69  6.8000000000000D-01  1.0247391713884D+00  6.2008458661156D-01
    70  6.9000000000000D-01  1.0533082550368D+00  5.7454358317058D-01
    71  7.0000000000000D-01  1.0812156551086D+00  5.2874954763338D-01
    72  7.1000000000000D-01  1.1083910309108D+00  4.8279393243153D-01
    73  7.2000000000000D-01  1.1347644072208D+00  4.3676757581925D-01
    74  7.3000000000000D-01  1.1602663664545D+00  3.9076050182285D-01
    75  7.4000000000000D-01  1.1848282436791D+00  3.4486172312747D-01
    76  7.5000000000000D-01  1.2083823239732D+00  2.9915904735802D-01
    77  7.6000000000000D-01  1.2308620416167D+00  2.5373888720239D-01
    78  7.7000000000000D-01  1.2522021805721D+00  2.0868607481430D-01
    79  7.8000000000000D-01  1.2723390756949D+00  1.6408368092274D-01
    80  7.9000000000000D-01  1.2912108140960D+00  1.2001283906230D-01
    81  8.0000000000000D-01  1.3087574360572D+00  7.6552575326084D-02
    82  8.1000000000000D-01  1.3249211348882D+00  3.3779644028641D-02
    83  8.2000000000000D-01  1.3396464550960D+00 -8.2316303479744D-03
    84  8.3000000000000D-01  1.3528804882259D+00 -4.9409504567940D-02
    85  8.4000000000000D-01  1.3645730657229D+00 -8.9684961074102D-02
    86  8.5000000000000D-01  1.3746769481498D+00 -1.2899184511531D-01
    87  8.6000000000000D-01  1.3831480100955D+00 -1.6726699426251D-01
    88  8.7000000000000D-01  1.3899454200956D+00 -2.0445036002586D-01
    89  8.8000000000000D-01  1.3950318148897D+00 -2.4048512130421D-01
    90  8.9000000000000D-01  1.3983734673343D+00 -2.7531778941774D-01
    91  9.0000000000000D-01  1.3999404472911D+00 -3.0889830449451D-01
    92  9.1000000000000D-01  1.3997067748169D+00 -3.4118012300240D-01
    93  9.2000000000000D-01  1.3976505649807D+00 -3.7212029623832D-01
    94  9.3000000000000D-01  1.3937541636456D+00 -4.0167953960831D-01
    95  9.4000000000000D-01  1.3880042735593D+00 -4.2982229255313D-01
    96  9.5000000000000D-01  1.3803920701112D+00 -4.5651676899568D-01
    97  9.6000000000000D-01  1.3709133061246D+00 -4.8173499820885D-01
    98  9.7000000000000D-01  1.3595684050710D+00 -5.0545285602372D-01
    99  9.8000000000000D-01  1.3463625421122D+00 -5.2765008632061D-01
   100  9.9000000000000D-01  1.3313057123924D+00 -5.4831031276708D-01
   101  1.0000000000000D+00  1.3144127860294D+00 -5.6742104078910D-01
   102  1.0100000000000D+00  1.2957035492744D+00 -5.8497364978352D-01
   103  1.0200000000000D+00  1.2752027313405D+00 -6.0096337560167D-01
   104  1.0300000000000D+00  1.2529400164234D+00 -6.1538928335471D-01
   105  1.0400000000000D+00  1.2289500404713D+00 -6.2825423061364D-01
   106  1.0500000000000D+00  1.2032723722930D+00 -6.3956482109698D-01
   107  1.0600000000000D+00  1.1759514786243D+00 -6.4933134895954D-01
   108  1.0700000000000D+00  1.1470366728101D+00 -6.5756773381662D-01
   109  1.0800000000000D+00  1.1165820467953D+00 -6.6429144665597D-01
   110  1.0900000000000D+00  1.0846463861551D+00 -6.6952342681026D-01
   111  1.1000000000000D+00  1.0512930679351D+00 -6.7328799018091D-01
   112  1.1100000000000D+00  1.0165899411125D+00 -6.7561272892163D-01
   113  1.1200000000000D+00  9.8060918953104D-01 -6.7652840280810D-01
   114  1.1300000000000D+00  9.4342717719864D-01 -6.7606882253435D-01
   115  1.1400000000000D+00  9.0512427589041D-01 -6.7427072519553D-01
   116  1.1500000000000D+00  8.6578467503330D-01 -6.7117364222936D-01
   117  1.1600000000000D+00  8.2549617390008D-01 -6.6681976010391D-01
   118  1.1700000000000D+00  7.8434995617288D-01 -6.6125377405032D-01
   119  1.1800000000000D+00  7.4244034699525D-01 -6.5452273515535D-01
   120  1.1900000000000D+00  6.9986455266861D-01 -6.4667589113778D-01
   121  1.2000000000000D+00  6.5672238318913D-01 -6.3776452114267D-01
   122  1.2100000000000D+00  6.1311595786861D-01 -6.2784176489850D-01
   123  1.2200000000000D+00  5.6914939433016D-01 -6.1696244659143D-01
   124  1.2300000000000D+00  5.2492848120988D-01 -6.0518289381748D-01
   125  1.2400000000000D+00  4.8056033492236D-01 -5.9256075197904D-01
   126  1.2500000000000D+00  4.3615304091486D-01 -5.7915479450145D-01
   127  1.2600000000000D+00  3.9181527986477D-01 -5.6502472924721D-01
   128  1.2700000000000D+00  3.4765593928915D-01 -5.5023100150870D-01
   129  1.2800000000000D+00  3.0378371111313D-01 -5.3483459396609D-01
   130  1.2900000000000D+00  2.6030667576145D-01 -5.1889682399549D-01
   131  1.3000000000000D+00  2.1733187334635D-01 -5.0247913871482D-01
   132  1.3100000000000D+00  1.7496486260489D-01 -4.8564290815507D-01
   133  1.3200000000000D+00  1.3330926824162D-01 -4.6844921693989D-01
   134  1.3300000000000D+00  9.2466317344782D-02 -4.5095865486062D-01
   135  1.3400000000000D+00  5.2534365616921D-02 -4.3323110672342D-01
   136  1.3500000000000D+00  1.3608414144789D-02 -4.1532554184418D-01
   137  1.3600000000000D+00 -2.4220382536339D-02 -3.9729980356670D-01
   138  1.3700000000000D+00 -6.0865216283391D-02 -3.7921039916068D-01
   139  1.3800000000000D+00 -9.6244132314222D-02 -3.6111229046469D-01
   140  1.3900000000000D+00 -1.3028054247804D-01 -3.4305868562332D-01
   141  1.4000000000000D+00 -1.6290374400016D-01 -3.2510083225020D-01
   142  1.4100000000000D+00 -1.9404944287636D-01 -3.0728781236907D-01
   143  1.4200000000000D+00 -2.2366028105670D-01 -2.8966633943306D-01
   144  1.4300000000000D+00 -2.5168636658245D-01 -2.7228055774869D-01
   145  1.4400000000000D+00 -2.7808580581263D-01 -2.5517184460520D-01
   146  1.4500000000000D+00 -3.0282523689940D-01 -2.3837861537851D-01
   147  1.4600000000000D+00 -3.2588036364512D-01 -2.2193613192158D-01
   148  1.4700000000000D+00 -3.4723648891501D-01 -2.0587631446044D-01
   149  1.4800000000000D+00 -3.6688904674789D-01 -1.9022755728473D-01
   150  1.4900000000000D+00 -3.8484414937989D-01 -1.7501454449224D-01
   151  1.5000000000000D+00 -4.0111903203275D-01 -1.6025809299646D-01
   152  1.5100000000000D+00 -4.1574284818436D-01 -1.4597491730622D-01
   153  1.5200000000000D+00 -4.2875635969806D-01 -1.3217765725915D-01
   154  1.5300000000000D+00 -4.4021367993661D-01 -1.1887442574910D-01
   155  1.5400000000000D+00 -4.5018345656436D-01 -1.0606850033779D-01
   156  1.5500000000000D+00 -4.5874255309186D-01 -9.3759746111152D-02
   157  1.5600000000000D+00 -4.6597136379501D-01 -8.1945687926422D-02
   158  1.5700000000000D+00 -4.7194788788286D-01 -7.0622925484527D-02
   159  1.5800000000000D+00 -4.7674479484375D-01 -5.9787856194676D-02
   160  1.5900000000000D+00 -4.8043167045468D-01 -4.9436214846075D-02
   161  1.6000000000000D+00 -4.8307495541408D-01 -3.9563142700047D-02
   162  1.6100000000000D+00 -4.8473785187501D-01 -3.0163260250222D-02
   163  1.6200000000000D+00 -4.8548055447038D-01 -2.1230667393810D-02
   164  1.6300000000000D+00 -4.8536035433853D-01 -1.2758971796183D-02
   165  1.6400000000000D+00 -4.8443178377520D-01 -4.7413074738976D-03
   166  1.6500000000000D+00 -4.8274674655017D-01  2.8296438759562D-03
   167  1.6600000000000D+00 -4.8035464374602D-01  9.9616311199729D-03
   168  1.6700000000000D+00 -4.7730249576123D-01  1.6662811683947D-02
   169  1.6800000000000D+00 -4.7363506011589D-01  2.2941729287485D-02
   170  1.6900000000000D+00 -4.6939494514761D-01  2.8807291457479D-02
   171  1.7000000000000D+00 -4.6462271935836D-01  3.4268746837480D-02
   172  1.7100000000000D+00 -4.5935701657114D-01  3.9335662340898D-02
   173  1.7200000000000D+00 -4.5363463666569D-01  4.4017900166735D-02
   174  1.7300000000000D+00 -4.4749064207977D-01  4.8325594724823D-02
   175  1.7400000000000D+00 -4.4095844987921D-01  5.2269129495345D-02
   176  1.7500000000000D+00 -4.3406991959457D-01  5.5859113866601D-02
   177  1.7600000000000D+00 -4.2685543666500D-01  5.9106359980128D-02
   178  1.7700000000000D+00 -4.1934399168798D-01  6.2021859624491D-02
   179  1.7800000000000D+00 -4.1156325537217D-01  6.4616761212377D-02
   180  1.7900000000000D+00 -4.0353964937274D-01  6.6902346878743D-02
   181  1.8000000000000D+00 -3.9529841296915D-01  6.8890009737050D-02
   182  1.8100000000000D+00 -3.8686366573160D-01  7.0591231329484D-02
   183  1.8200000000000D+00 -3.7825846622027D-01  7.2017559310429D-02
   184  1.8300000000000D+00 -3.6950486681239D-01  7.3180585398570D-02
   185  1.8400000000000D+00 -3.6062396478782D-01  7.4091923633979D-02
   186  1.8500000000000D+00 -3.5163594971006D-01  7.4763188979159D-02
   187  1.8600000000000D+00 -3.4256014732500D-01  7.5205976293451D-02
   188  1.8700000000000D+00 -3.3341505995404D-01  7.5431839727354D-02
   189  1.8800000000000D+00 -3.2421840367948D-01  7.5452272553740D-02
   190  1.8900000000000D+00 -3.1498714227937D-01  7.5278687494628D-02
   191  1.9000000000000D+00 -3.0573751821105D-01  7.4922397549416D-02
   192  1.9100000000000D+00 -2.9648508066102D-01  7.4394597382177D-02
   193  1.9200000000000D+00 -2.8724471088575D-01  7.3706345279391D-02
   194  1.9300000000000D+00 -2.7803064496669D-01  7.2868545720785D-02
   195  1.9400000000000D+00 -2.6885649412486D-01  7.1891932593275D-02
   196  1.9500000000000D+00 -2.5973526278581D-01  7.0787053059263D-02
   197  1.9600000000000D+00 -2.5067936450879D-01  6.9564252140969D-02
   198  1.9700000000000D+00 -2.4170063597682D-01  6.8233657995195D-02
   199  1.9800000000000D+00 -2.3281034919676D-01  6.6805167963850D-02
   200  1.9900000000000D+00 -2.2401922205847D-01  6.5288435365436D-02
   201  2.0000000000000D+00 -2.1533742743589D-01  6.3692857087438D-02
   202  2.0100000000000D+00 -2.0677460097963D-01  6.2027561990104D-02
   203  2.0200000000000D+00 -1.9833984772924D-01  6.0301400111140D-02
   204  2.0300000000000D+00 -1.9004174778834D-01  5.8522932751398D-02
   205  2.0400000000000D+00 -1.8188836107102D-01  5.6700423366358D-02
   206  2.0500000000000D+00 -1.7388723144042D-01  5.4841829367505D-02
   207  2.0600000000000D+00 -1.6604539024544D-01  5.2954794775878D-02
   208  2.0700000000000D+00 -1.5836935943804D-01  5.1046643754078D-02
   209  2.0800000000000D+00 -1.5086515450784D-01  4.9124375064264D-02
   210  2.0900000000000D+00 -1.4353828711022D-01  4.7194657356775D-02
   211  2.1000000000000D+00 -1.3639376786816D-01  4.5263825421075D-02
   212  2.1100000000000D+00 -1.2943610913708D-01  4.3337877282073D-02
   213  2.1200000000000D+00 -1.2266932800357D-01  4.1422472192691D-02
   214  2.1300000000000D+00 -1.1609694971737D-01  3.9522929546701D-02
   215  2.1400000000000D+00 -1.0972201129962D-01  3.7644228594861D-02
   216  2.1500000000000D+00 -1.0354706592722D-01  3.5791009105953D-02
   217  2.1600000000000D+00 -9.7574187722406D-02  3.3967572828475D-02
   218  2.1700000000000D+00 -9.1804977197789D-02  3.2177885788594D-02
   219  2.1800000000000D+00 -8.6240567608782D-02  3.0425581456936D-02
   220  2.1900000000000D+00 -8.0881631793493D-02  2.8713964639283D-02
   221  2.2000000000000D+00 -7.5728390109381D-02  2.7046016212961D-02
   222  2.2100000000000D+00 -7.0780619141480D-02  2.5424398593209D-02
   223  2.2200000000000D+00 -6.6037661159539D-02  2.3851461891865D-02
   224  2.2300000000000D+00 -6.1498434817024D-02  2.2329250849919D-02
   225  2.2400000000000D+00 -5.7161446476107D-02  2.0859512369756D-02
   226  2.2500000000000D+00 -5.3024802614785D-02  1.9443703715464D-02
   227  2.2600000000000D+00 -4.9086223277482D-02  1.8083001338270D-02
   228  2.2700000000000D+00 -4.5343056147697D-02  1.6778310209125D-02
   229  2.2800000000000D+00 -4.1792291877308D-02  1.5530273749222D-02
   230  2.2900000000000D+00 -3.8430580145314D-02  1.4339284223594D-02
   231  2.3000000000000D+00 -3.5254246442084D-02  1.3205493566752D-02
   232  2.3100000000000D+00 -3.2259309976342D-02  1.2128824670823D-02
   233  2.3200000000000D+00 -2.9441502086421D-02  1.1108983003275D-02
   234  2.3300000000000D+00 -2.6796285435665D-02  1.0145468561846D-02
   235  2.3400000000000D+00 -2.4318874006795D-02  9.2375881297883D-03
   236  2.3500000000000D+00 -2.2004253466703D-02  8.3844677480048D-03
   237  2.3600000000000D+00 -1.9847202220481D-02  7.5850653941088D-03
   238  2.3700000000000D+00 -1.7842312929258D-02  6.8381838088531D-03
   239  2.3800000000000D+00 -1.5984014250774D-02  6.1424834276845D-03
   240  2.3900000000000D+00 -1.4266593060666D-02  5.4964953639748D-03
   241  2.4000000000000D+00 -1.2684216820688D-02  4.8986344046633D-03
   242  2.4100000000000D+00 -1.1230956010568D-02  4.3472119968879D-03
   243  2.4200000000000D+00 -9.9008067212661D-03  3.8404491149443D-03
   244  2.4300000000000D+00 -8.6877131331154D-03  3.3764890314460D-03
   245  2.4400000000000D+00 -7.5855898680378D-03  2.9534099470076D-03
   246  2.4500000000000D+00 -6.5883441157270D-03  2.5692373456115D-03
   247  2.4600000000000D+00 -5.6898974505778D-03  2.2219561525071D-03
   248  2.4700000000000D+00 -4.8842072640942D-03  1.9095226168563D-03
   249  2.4800000000000D+00 -4.1652876157479D-03  1.6298757816270D-03
   250  2.4900000000000D+00 -3.5272295896151D-03  1.3809486637814D-03
   251  2.5000000000000D+00 -2.9642209916754D-03  1.1606790329628D-03
   252  2.5100000000000D+00 -2.4705651387891D-03  9.6701965375581D-04
   253  2.5200000000000D+00 -2.0406989846720D-03  7.9794815762271D-04
   254  2.5300000000000D+00 -1.6692103266798D-03  6.5147640455379D-04
   255  2.5400000000000D+00 -1.3508538081780D-03  5.2565919821008D-04
   256  2.5500000000000D+00 -1.0805661078515D-03  4.1860256258720D-04
   257  2.5600000000000D+00 -8.5348000194692D-04  3.2847142817925D-04
   258  2.5700000000000D+00 -6.6493694399055D-04  2.5349657031456D-04
   259  2.5800000000000D+00 -5.1049870694924D-04  1.9198105509921D-04
   260  2.5900000000000D+00 -3.8595777682034D-04  1.4230605326639D-04
   261  2.6000000000000D+00 -2.8735780513372D-04  1.0293639389992D-04
   262  2.6100000000000D+00 -2.1099540428501D-04  7.2424715353565D-05
   263  2.6200000000000D+00 -1.5332797786873D-04  4.9410406794133D-05
   264  2.6300000000000D+00 -1.1108923984248D-04  3.2625377067056D-05
   265  2.6400000000000D+00 -8.1073917596557D-05  2.0874924187554D-05
   266  2.6500000000000D+00 -6.1355246571041D-05  1.3166353599919D-05
   267  2.6600000000000D+00 -4.9701010781852D-05  8.5463799643862D-06
   268  2.6700000000000D+00 -4.5087173120158D-05  6.2994406916305D-06
   269  2.6800000000000D+00 -4.2589472097821D-05  5.2850000409854D-06
   270  2.6900000000000D+00 -3.8773559431612D-05  4.6527395475935D-06
   271  2.7000000000000D+00 -2.9395423659383D-05  3.5252202971945D-06
   272  2.7100000000000D+00 -1.6855493049908D-05  2.0419403892528D-06
   273  2.7200000000000D+00 -4.7255727367097D-06  5.8069256485021D-07
   274  2.7300000000000D+00  2.4567900192122D-06 -2.8886843572776D-07
   275  2.7400000000000D+00  3.8395627768123D-06 -4.5249754609809D-07
   276  2.7500000000000D+00  2.1191401364129D-06 -2.5045958259190D-07
   277  2.7600000000000D+00 -2.5628680601582D-07  2.8796499064778D-08
   278  2.7700000000000D+00 -8.3389609870247D-07  9.3377936402983D-08
   279  2.7800000000000D+00 -6.7564475803635D-07  7.5439451549694D-08
   280  2.7900000000000D+00 -3.9045237548112D-08  4.3488616909220D-09
   281  2.8000000000000D+00  8.7687919532726D-08 -1.0522271365627D-08
   282  2.8100000000000D+00  1.0011328223586D-07 -1.2013275358828D-08
   283  2.8200000000000D+00  3.6774872526468D-08 -4.4128677042616D-09
   284  2.8300000000000D+00  0.0000000000000D+00  0.0000000000000D+00
   285  2.8400000000000D+00  0.0000000000000D+00  0.0000000000000D+00
   286  2.8500000000000D+00  0.0000000000000D+00  0.0000000000000D+00
   287  2.8600000000000D+00  0.0000000000000D+00  0.0000000000000D+00
   288  2.8700000000000D+00  0.0000000000000D+00  0.0000000000000D+00
   289  2.8800000000000D+00  0.0000000000000D+00  0.0000000000000D+00
   290  2.8900000000000D+00  0.0000000000000D+00  0.0000000000000D+00
   291  2.9000000000000D+00  0.0000000000000D+00  0.0000000000000D+00
   292  2.9100000000000D+00  0.0000000000000D+00  0.0000000000000D+00
   293  2.9200000000000D+00  0.0000000000000D+00  0.0000000000000D+00
   294  2.9300000000000D+00  0.0000000000000D+00  0.0000000000000D+00
   295  2.9400000000000D+00  0.0000000000000D+00  0.0000000000000D+00
   296  2.9500000000000D+00  0.0000000000000D+00  0.0000000000000D+00
   297  2.9600000000000D+00  0.0000000000000D+00  0.0000000000000D+00
   298  2.9700000000000D+00  0.0000000000000D+00  0.0000000000000D+00
   299  2.9800000000000D+00  0.0000000000000D+00  0.0000000000000D+00
   300  2.9900000000000D+00  0.0000000000000D+00  0.0000000000000D+00
   301  3.0000000000000D+00  0.0000000000000D+00  0.0000000000000D+00
   302  3.0100000000000D+00  0.0000000000000D+00  0.0000000000000D+00
   303  3.0200000000000D+00  0.0000000000000D+00  0.0000000000000D+00
   304  3.0300000000000D+00  0.0000000000000D+00  0.0000000000000D+00
   305  3.0400000000000D+00  0.0000000000000D+00  0.0000000000000D+00
   306  3.0500000000000D+00  0.0000000000000D+00  0.0000000000000D+00
   307  3.0600000000000D+00  0.0000000000000D+00  0.0000000000000D+00
   308  3.0700000000000D+00  0.0000000000000D+00  0.0000000000000D+00
   309  3.0800000000000D+00  0.0000000000000D+00  0.0000000000000D+00
   310  3.0900000000000D+00  0.0000000000000D+00  0.0000000000000D+00
   311  3.1000000000000D+00  0.0000000000000D+00  0.0000000000000D+00
   312  3.1100000000000D+00  0.0000000000000D+00  0.0000000000000D+00
   313  3.1200000000000D+00  0.0000000000000D+00  0.0000000000000D+00
   314  3.1300000000000D+00  0.0000000000000D+00  0.0000000000000D+00
   315  3.1400000000000D+00  0.0000000000000D+00  0.0000000000000D+00
   316  3.1500000000000D+00  0.0000000000000D+00  0.0000000000000D+00
   317  3.1600000000000D+00  0.0000000000000D+00  0.0000000000000D+00
   318  3.1700000000000D+00  0.0000000000000D+00  0.0000000000000D+00
   319  3.1800000000000D+00  0.0000000000000D+00  0.0000000000000D+00
   320  3.1900000000000D+00  0.0000000000000D+00  0.0000000000000D+00
   321  3.2000000000000D+00  0.0000000000000D+00  0.0000000000000D+00
   322  3.2100000000000D+00  0.0000000000000D+00  0.0000000000000D+00
   323  3.2200000000000D+00  0.0000000000000D+00  0.0000000000000D+00
   324  3.2300000000000D+00  0.0000000000000D+00  0.0000000000000D+00
   325  3.2400000000000D+00  0.0000000000000D+00  0.0000000000000D+00
   326  3.2500000000000D+00  0.0000000000000D+00  0.0000000000000D+00
   327  3.2600000000000D+00  0.0000000000000D+00  0.0000000000000D+00
   328  3.2700000000000D+00  0.0000000000000D+00  0.0000000000000D+00
   329  3.2800000000000D+00  0.0000000000000D+00  0.0000000000000D+00
   330  3.2900000000000D+00  0.0000000000000D+00  0.0000000000000D+00
   331  3.3000000000000D+00  0.0000000000000D+00  0.0000000000000D+00
   332  3.3100000000000D+00  0.0000000000000D+00  0.0000000000000D+00
   333  3.3200000000000D+00  0.0000000000000D+00  0.0000000000000D+00
   334  3.3300000000000D+00  0.0000000000000D+00  0.0000000000000D+00
   335  3.3400000000000D+00  0.0000000000000D+00  0.0000000000000D+00
   336  3.3500000000000D+00  0.0000000000000D+00  0.0000000000000D+00
   337  3.3600000000000D+00  0.0000000000000D+00  0.0000000000000D+00
   338  3.3700000000000D+00  0.0000000000000D+00  0.0000000000000D+00
   339  3.3800000000000D+00  0.0000000000000D+00  0.0000000000000D+00
   340  3.3900000000000D+00  0.0000000000000D+00  0.0000000000000D+00
   341  3.4000000000000D+00  0.0000000000000D+00  0.0000000000000D+00
   342  3.4100000000000D+00  0.0000000000000D+00  0.0000000000000D+00
   343  3.4200000000000D+00  0.0000000000000D+00  0.0000000000000D+00
   344  3.4300000000000D+00  0.0000000000000D+00  0.0000000000000D+00
   345  3.4400000000000D+00  0.0000000000000D+00  0.0000000000000D+00
   346  3.4500000000000D+00  0.0000000000000D+00  0.0000000000000D+00
   347  3.4600000000000D+00  0.0000000000000D+00  0.0000000000000D+00
   348  3.4700000000000D+00  0.0000000000000D+00  0.0000000000000D+00
   349  3.4800000000000D+00  0.0000000000000D+00  0.0000000000000D+00
   350  3.4900000000000D+00  0.0000000000000D+00  0.0000000000000D+00
   351  3.5000000000000D+00  0.0000000000000D+00  0.0000000000000D+00
   352  3.5100000000000D+00  0.0000000000000D+00  0.0000000000000D+00
   353  3.5200000000000D+00  0.0000000000000D+00  0.0000000000000D+00
   354  3.5300000000000D+00  0.0000000000000D+00  0.0000000000000D+00
   355  3.5400000000000D+00  0.0000000000000D+00  0.0000000000000D+00
   356  3.5500000000000D+00  0.0000000000000D+00  0.0000000000000D+00
   357  3.5600000000000D+00  0.0000000000000D+00  0.0000000000000D+00
   358  3.5700000000000D+00  0.0000000000000D+00  0.0000000000000D+00
   359  3.5800000000000D+00  0.0000000000000D+00  0.0000000000000D+00
   360  3.5900000000000D+00  0.0000000000000D+00  0.0000000000000D+00
   361  3.6000000000000D+00  0.0000000000000D+00  0.0000000000000D+00
   362  3.6100000000000D+00  0.0000000000000D+00  0.0000000000000D+00
   363  3.6200000000000D+00  0.0000000000000D+00  0.0000000000000D+00
   364  3.6300000000000D+00  0.0000000000000D+00  0.0000000000000D+00
   365  3.6400000000000D+00  0.0000000000000D+00  0.0000000000000D+00
   366  3.6500000000000D+00  0.0000000000000D+00  0.0000000000000D+00
   367  3.6600000000000D+00  0.0000000000000D+00  0.0000000000000D+00
   368  3.6700000000000D+00  0.0000000000000D+00  0.0000000000000D+00
   369  3.6800000000000D+00  0.0000000000000D+00  0.0000000000000D+00
   370  3.6900000000000D+00  0.0000000000000D+00  0.0000000000000D+00
   371  3.7000000000000D+00  0.0000000000000D+00  0.0000000000000D+00
   372  3.7100000000000D+00  0.0000000000000D+00  0.0000000000000D+00
   373  3.7200000000000D+00  0.0000000000000D+00  0.0000000000000D+00
   374  3.7300000000000D+00  0.0000000000000D+00  0.0000000000000D+00
   375  3.7400000000000D+00  0.0000000000000D+00  0.0000000000000D+00
   376  3.7500000000000D+00  0.0000000000000D+00  0.0000000000000D+00
   377  3.7600000000000D+00  0.0000000000000D+00  0.0000000000000D+00
   378  3.7700000000000D+00  0.0000000000000D+00  0.0000000000000D+00
   379  3.7800000000000D+00  0.0000000000000D+00  0.0000000000000D+00
   380  3.7900000000000D+00  0.0000000000000D+00  0.0000000000000D+00
   381  3.8000000000000D+00  0.0000000000000D+00  0.0000000000000D+00
   382  3.8100000000000D+00  0.0000000000000D+00  0.0000000000000D+00
   383  3.8200000000000D+00  0.0000000000000D+00  0.0000000000000D+00
   384  3.8300000000000D+00  0.0000000000000D+00  0.0000000000000D+00
   385  3.8400000000000D+00  0.0000000000000D+00  0.0000000000000D+00
   386  3.8500000000000D+00  0.0000000000000D+00  0.0000000000000D+00
   387  3.8600000000000D+00  0.0000000000000D+00  0.0000000000000D+00
   388  3.8700000000000D+00  0.0000000000000D+00  0.0000000000000D+00
   389  3.8800000000000D+00  0.0000000000000D+00  0.0000000000000D+00
   390  3.8900000000000D+00  0.0000000000000D+00  0.0000000000000D+00
   391  3.9000000000000D+00  0.0000000000000D+00  0.0000000000000D+00
   392  3.9100000000000D+00  0.0000000000000D+00  0.0000000000000D+00
   393  3.9200000000000D+00  0.0000000000000D+00  0.0000000000000D+00
   394  3.9300000000000D+00  0.0000000000000D+00  0.0000000000000D+00
   395  3.9400000000000D+00  0.0000000000000D+00  0.0000000000000D+00
   396  3.9500000000000D+00  0.0000000000000D+00  0.0000000000000D+00
   397  3.9600000000000D+00  0.0000000000000D+00  0.0000000000000D+00
   398  3.9700000000000D+00  0.0000000000000D+00  0.0000000000000D+00
   399  3.9800000000000D+00  0.0000000000000D+00  0.0000000000000D+00
   400  3.9900000000000D+00  0.0000000000000D+00  0.0000000000000D+00
   401  4.0000000000000D+00  0.0000000000000D+00  0.0000000000000D+00
   402  4.0100000000000D+00  0.0000000000000D+00  0.0000000000000D+00
   403  4.0200000000000D+00  0.0000000000000D+00  0.0000000000000D+00
   404  4.0300000000000D+00  0.0000000000000D+00  0.0000000000000D+00
   405  4.0400000000000D+00  0.0000000000000D+00  0.0000000000000D+00
   406  4.0500000000000D+00  0.0000000000000D+00  0.0000000000000D+00
   407  4.0600000000000D+00  0.0000000000000D+00  0.0000000000000D+00
   408  4.0700000000000D+00  0.0000000000000D+00  0.0000000000000D+00
   409  4.0800000000000D+00  0.0000000000000D+00  0.0000000000000D+00
   410  4.0900000000000D+00  0.0000000000000D+00  0.0000000000000D+00
   411  4.1000000000000D+00  0.0000000000000D+00  0.0000000000000D+00
   412  4.1100000000000D+00  0.0000000000000D+00  0.0000000000000D+00
   413  4.1200000000000D+00  0.0000000000000D+00  0.0000000000000D+00
   414  4.1300000000000D+00  0.0000000000000D+00  0.0000000000000D+00
   415  4.1400000000000D+00  0.0000000000000D+00  0.0000000000000D+00
   416  4.1500000000000D+00  0.0000000000000D+00  0.0000000000000D+00
   417  4.1600000000000D+00  0.0000000000000D+00  0.0000000000000D+00
   418  4.1700000000000D+00  0.0000000000000D+00  0.0000000000000D+00
   419  4.1800000000000D+00  0.0000000000000D+00  0.0000000000000D+00
   420  4.1900000000000D+00  0.0000000000000D+00  0.0000000000000D+00
   421  4.2000000000000D+00  0.0000000000000D+00  0.0000000000000D+00
   422  4.2100000000000D+00  0.0000000000000D+00  0.0000000000000D+00