Ag    ONCVPSP-3.3.1  r_core=   2.69244   2.56699   2.50648
     47.0000     19.0000      210904    zatom,zion,pspd
     8      11   2     4   600     0    pspcod,pspxc,lmax,lloc,mmax,r2well
  5.99000000  0.00000000  0.00000000    rchrg fchrg qchrg
     2     2     2     0     0    nproj
     1     1           extension_switch
   0                         3.7503296929276D+00  4.4527695947133D-01
     1  0.0000000000000D+00 -4.8974713173777D-12 -2.8483500280618D-12
     2  1.0000000000000D-02  6.0176961068389D-02 -4.2789277550673D-03
     3  2.0000000000000D-02  1.2024699646696D-01 -8.5135882247504D-03
     4  3.0000000000000D-02  1.8010340469249D-01 -1.2659806348113D-02
     5  4.0000000000000D-02  2.3963993206053D-01 -1.6673591458644D-02
     6  5.0000000000000D-02  2.9875099533001D-01 -2.0511229344642D-02
     7  6.0000000000000D-02  3.5733190278947D-01 -2.4129374143434D-02
     8  7.0000000000000D-02  4.1527907329808D-01 -2.7485140010944D-02
     9  8.0000000000000D-02  4.7249025277935D-01 -3.0536192505219D-02
    10  9.0000000000000D-02  5.2886472767146D-01 -3.3240839619412D-02
    11  1.0000000000000D-01  5.8430353484599D-01 -3.5558122395575D-02
    12  1.1000000000000D-01  6.3870966751468D-01 -3.7447905046147D-02
    13  1.2000000000000D-01  6.9198827665402D-01 -3.8870964504985D-02
    14  1.3000000000000D-01  7.4404686748811D-01 -3.9789079324000D-02
    15  1.4000000000000D-01  7.9479549058201D-01 -4.0165117825674D-02
    16  1.5000000000000D-01  8.4414692711113D-01 -3.9963125414911D-02
    17  1.6000000000000D-01  8.9201686788571D-01 -3.9148410947043D-02
    18  1.7000000000000D-01  9.3832408572503D-01 -3.7687632041540D-02
    19  1.8000000000000D-01  9.8299060079157D-01 -3.5548879223444D-02
    20  1.9000000000000D-01  1.0259418385124D+00 -3.2701758767101D-02
    21  2.0000000000000D-01  1.0671067797331D+00 -2.9117474108703D-02
    22  2.1000000000000D-01  1.1064181027676D+00 -2.4768905686411D-02
    23  2.2000000000000D-01  1.1438123170271D+00 -1.9630689059084D-02
    24  2.3000000000000D-01  1.1792298879326D+00 -1.3679291146537D-02
    25  2.4000000000000D-01  1.2126153528329D+00 -6.8930844267499D-03
    26  2.5000000000000D-01  1.2439174276765D+00  7.4758108206584D-04
    27  2.6000000000000D-01  1.2730891042035D+00  9.2603082339391D-03
    28  2.7000000000000D-01  1.3000877374482D+00  1.8660585748373D-02
    29  2.8000000000000D-01  1.3248751233675D+00  2.8961723976865D-02
    30  2.9000000000000D-01  1.3474175664298D+00  4.0174793641764D-02
    31  3.0000000000000D-01  1.3676859370279D+00  5.2308567751186D-02
    32  3.1000000000000D-01  1.3856557185997D+00  6.5369466899132D-02
    33  3.2000000000000D-01  1.4013070443671D+00  7.9361508163854D-02
    34  3.3000000000000D-01  1.4146247236268D+00  9.4286257820853D-02
    35  3.4000000000000D-01  1.4255982575531D+00  1.1014278808954D-01
    36  3.5000000000000D-01  1.4342218444962D+00  1.2692763813425D-01
    37  3.6000000000000D-01  1.4404943747837D+00  1.4463477954106D-01
    38  3.7000000000000D-01  1.4444194150609D+00  1.6325558649177D-01
    39  3.8000000000000D-01  1.4460051822265D+00  1.8277881085492D-01
    40  3.9000000000000D-01  1.4452645070464D+00  2.0319056241160D-01
    41  4.0000000000000D-01  1.4422147875535D+00  2.2447429443055D-01
    42  4.1000000000000D-01  1.4368779323624D+00  2.4661079480195D-01
    43  4.2000000000000D-01  1.4292802940558D+00  2.6957818293436D-01
    44  4.3000000000000D-01  1.4194525928173D+00  2.9335191261133D-01
    45  4.4000000000000D-01  1.4074298305131D+00  3.1790478099716D-01
    46  4.5000000000000D-01  1.3932511954439D+00  3.4320694397114D-01
    47  4.6000000000000D-01  1.3769599580100D+00  3.6922593795913D-01
    48  4.7000000000000D-01  1.3586033575570D+00  3.9592670841963D-01
    49  4.8000000000000D-01  1.3382324806843D+00  4.2327164512852D-01
    50  4.9000000000000D-01  1.3159021313241D+00  4.5122062439185D-01
    51  5.0000000000000D-01  1.2916706929114D+00  4.7973105830119D-01
    52  5.1000000000000D-01  1.2655999829897D+00  5.0875795112859D-01
    53  5.2000000000000D-01  1.2377551006089D+00  5.3825396294120D-01
    54  5.3000000000000D-01  1.2082042668908D+00  5.6816948049594D-01
    55  5.4000000000000D-01  1.1770186591536D+00  5.9845269545483D-01
    56  5.5000000000000D-01  1.1442722389990D+00  6.2904968994055D-01
    57  5.6000000000000D-01  1.1100415747798D+00  6.5990452942970D-01
    58  5.7000000000000D-01  1.0744056588798D+00  6.9095936295831D-01
    59  5.8000000000000D-01  1.0374457202460D+00  7.2215453059019D-01
    60  5.9000000000000D-01  9.9924503262603D-01  7.5342867807439D-01
    61  6.0000000000000D-01  9.5988871897174D-01  7.8471887859254D-01
    62  6.1000000000000D-01  9.1946355247805D-01  8.1596076147113D-01
    63  6.2000000000000D-01  8.7805775473253D-01  8.4708864770718D-01
    64  6.3000000000000D-01  8.3576079145802D-01  8.7803569212902D-01
    65  6.4000000000000D-01  7.9266316633419D-01  9.0873403198677D-01
    66  6.5000000000000D-01  7.4885621338784D-01  9.3911494173935D-01
    67  6.6000000000000D-01  7.0443188844397D-01  9.6910899377765D-01
    68  6.7000000000000D-01  6.5948256013040D-01  9.9864622479589D-01
    69  6.8000000000000D-01  6.1410080092923D-01  1.0276563074948D+00
    70  6.9000000000000D-01  5.6837917876655D-01  1.0560687272743D+00
    71  7.0000000000000D-01  5.2241004962993D-01  1.0838129635453D+00
    72  7.1000000000000D-01  4.7628535169937D-01  1.1108186752633D+00
    73  7.2000000000000D-01  4.3009640147272D-01  1.1370158902614D+00
    74  7.3000000000000D-01  3.8393369236110D-01  1.1623351979344D+00
    75  7.4000000000000D-01  3.3788669622245D-01  1.1867079448001D+00
    76  7.5000000000000D-01  2.9204366829393D-01  1.2100664324407D+00
    77  7.6000000000000D-01  2.4649145597427D-01  1.2323441173052D+00
    78  7.7000000000000D-01  2.0131531189770D-01  1.2534758118295D+00
    79  7.8000000000000D-01  1.5659871172955D-01  1.2733978863125D+00
    80  7.9000000000000D-01  1.1242317710187D-01  1.2920484709660D+00
    81  8.0000000000000D-01  6.8868104094340D-02  1.3093676575385D+00
    82  8.1000000000000D-01  2.6010597651881D-02  1.3252976998964D+00
    83  8.2000000000000D-01 -1.6074687684355D-02  1.3397832129307D+00
    84  8.3000000000000D-01 -5.7315700371447D-02  1.3527713691467D+00
    85  8.4000000000000D-01 -9.7643137439920D-02  1.3642120922775D+00
    86  8.5000000000000D-01 -1.3699058272194D-01  1.3740582472591D+00
    87  8.6000000000000D-01 -1.7529463742261D-01  1.3822658258910D+00
    88  8.7000000000000D-01 -2.1249504274291D-01  1.3887941275050D+00
    89  8.8000000000000D-01 -2.4853479428172D-01  1.3936059339582D+00
    90  8.9000000000000D-01 -2.8336024796416D-01  1.3966676782673D+00
    91  9.0000000000000D-01 -3.1692121726345D-01  1.3979496061981D+00
    92  9.1000000000000D-01 -3.4917106150391D-01  1.3974259301316D+00
    93  9.2000000000000D-01 -3.8006676505381D-01  1.3950749745274D+00
    94  9.3000000000000D-01 -4.0956900723811D-01  1.3908793123182D+00
    95  9.4000000000000D-01 -4.3764222282244D-01  1.3848258915723D+00
    96  9.5000000000000D-01 -4.6425465294148D-01  1.3769061517776D+00
    97  9.6000000000000D-01 -4.8937838636718D-01  1.3671161291125D+00
    98  9.7000000000000D-01 -5.1298939103406D-01  1.3554565500824D+00
    99  9.8000000000000D-01 -5.3506753576083D-01  1.3419329129241D+00
   100  9.9000000000000D-01 -5.5559660213025D-01  1.3265555561961D+00
   101  1.0000000000000D+00 -5.7456428651062D-01  1.3093397139959D+00
   102  1.0100000000000D+00 -5.9196219222483D-01  1.2903055572729D+00
   103  1.0200000000000D+00 -6.0778581189456D-01  1.2694782207279D+00
   104  1.0300000000000D+00 -6.2203450000832D-01  1.2468878148206D+00
   105  1.0400000000000D+00 -6.3471143578448D-01  1.2225694224369D+00
   106  1.0500000000000D+00 -6.4582357642046D-01  1.1965630797996D+00
   107  1.0600000000000D+00 -6.5538160084037D-01  1.1689137412382D+00
   108  1.0700000000000D+00 -6.6339984407414D-01  1.1396712274727D+00
   109  1.0800000000000D+00 -6.6989622241936D-01  1.1088901570971D+00
   110  1.0900000000000D+00 -6.7489214955792D-01  1.0766298609926D+00
   111  1.1000000000000D+00 -6.7841244381777D-01  1.0429542794347D+00
   112  1.1100000000000D+00 -6.8048522678769D-01  1.0079318417038D+00
   113  1.1200000000000D+00 -6.8114181351155D-01  9.7163532804685D-01
   114  1.1300000000000D+00 -6.8041659450246D-01  9.3414171387763D-01
   115  1.1400000000000D+00 -6.7834690983727D-01  8.9553199615425D-01
   116  1.1500000000000D+00 -6.7497291560388D-01  8.5589100190853D-01
   117  1.1600000000000D+00 -6.7033744299001D-01  8.1530717895221D-01
   118  1.1700000000000D+00 -6.6448585031311D-01  7.7387236881825D-01
   119  1.1800000000000D+00 -6.5746586830742D-01  7.3168156205484D-01
   120  1.1900000000000D+00 -6.4932743899385D-01  6.8883263602626D-01
   121  1.2000000000000D+00 -6.4012254846824D-01  6.4542607541595D-01
   122  1.2100000000000D+00 -6.2990505395513D-01  6.0156467567430D-01
   123  1.2200000000000D+00 -6.1873050548325D-01  5.5735322970182D-01
   124  1.2300000000000D+00 -6.0665596254606D-01  5.1289819809859D-01
   125  1.2400000000000D+00 -5.9373980611616D-01  4.6830736333840D-01
   126  1.2500000000000D+00 -5.8004154639221D-01  4.2368946829262D-01
   127  1.2600000000000D+00 -5.6562162665881D-01  3.7915383955981D-01
   128  1.2700000000000D+00 -5.5054122364339D-01  3.3480999607057D-01
   129  1.2800000000000D+00 -5.3486204476008D-01  2.9076724351647D-01
   130  1.2900000000000D+00 -5.1864612262917D-01  2.4713425516932D-01
   131  1.3000000000000D+00 -5.0195560726328D-01  2.0401863966569D-01
   132  1.3100000000000D+00 -4.8485255631161D-01  1.6152649641291D-01
   133  1.3200000000000D+00 -4.6739872374943D-01  1.1976195927523D-01
   134  1.3300000000000D+00 -4.4965534740362D-01  7.8826729211364D-02
   135  1.3400000000000D+00 -4.3168293569553D-01  3.8819596608010D-02
   136  1.3500000000000D+00 -4.1354105398085D-01 -1.6404596195319D-04
   137  1.3600000000000D+00 -3.9528811086657D-01 -3.8032699797532D-02
   138  1.3700000000000D+00 -3.7698114486597D-01 -7.4699264138697D-02
   139  1.3800000000000D+00 -3.5867561176151D-01 -1.1008154746512D-01
   140  1.3900000000000D+00 -3.4042517302930D-01 -1.4410278519312D-01
   141  1.4000000000000D+00 -3.2228148566170D-01 -1.7669216293823D-01
   142  1.4100000000000D+00 -3.0429399374491D-01 -2.0778534451355D-01
   143  1.4200000000000D+00 -2.8650972209638D-01 -2.3732500379769D-01
   144  1.4300000000000D+00 -2.6897307229349D-01 -2.6526135963064D-01
   145  1.4400000000000D+00 -2.5172562139880D-01 -2.9155271286754D-01
   146  1.4500000000000D+00 -2.3480592365593D-01 -3.1616598474366D-01
   147  1.4600000000000D+00 -2.1824931547268D-01 -3.3907725567719D-01
   148  1.4700000000000D+00 -2.0208772391526D-01 -3.6027230367692D-01
   149  1.4800000000000D+00 -1.8634947900729D-01 -3.7974714149089D-01
   150  1.4900000000000D+00 -1.7105912597963D-01 -3.9750856891097D-01
   151  1.5000000000000D+00 -1.5623726549017D-01 -4.1357462166543D-01
   152  1.5100000000000D+00 -1.4190031314948D-01 -4.2797537526989D-01
   153  1.5200000000000D+00 -1.2806052990952D-01 -4.4075262931881D-01
   154  1.5300000000000D+00 -1.1472555764804D-01 -4.5196167213549D-01
   155  1.5400000000000D+00 -1.0189810234944D-01 -4.6167247918025D-01
   156  1.5500000000000D+00 -8.9577402996461D-02 -4.6996330832963D-01
   157  1.5600000000000D+00 -7.7760337598862D-02 -4.7691595267657D-01
   158  1.5700000000000D+00 -6.6442877759815D-02 -4.8260975031888D-01
   159  1.5800000000000D+00 -5.5620832083317D-02 -4.8711861419721D-01
   160  1.5900000000000D+00 -4.5289372543385D-02 -4.9051329710674D-01
   161  1.6000000000000D+00 -3.5443104056618D-02 -4.9286133053322D-01
   162  1.6100000000000D+00 -2.6076136729397D-02 -4.9422693609448D-01
   163  1.6200000000000D+00 -1.7182084669048D-02 -4.9467125949018D-01
   164  1.6300000000000D+00 -8.7540940471656D-03 -4.9425247511535D-01
   165  1.6400000000000D+00 -7.8486063484629D-04 -4.9302593374237D-01
   166  1.6500000000000D+00  6.7333497785655D-03 -4.9104429550636D-01
   167  1.6600000000000D+00  1.3808680457755D-02 -4.8835765811342D-01
   168  1.6700000000000D+00  2.0449662547388D-02 -4.8501368126214D-01
   169  1.6800000000000D+00  2.6665193621432D-02 -4.8105770684509D-01
   170  1.6900000000000D+00  3.2464515992578D-02 -4.7653287500346D-01
   171  1.7000000000000D+00  3.7857194798965D-02 -4.7148023579901D-01
   172  1.7100000000000D+00  4.2853095916210D-02 -4.6593885666033D-01
   173  1.7200000000000D+00  4.7462363711992D-02 -4.5994592536891D-01
   174  1.7300000000000D+00  5.1695398690807D-02 -4.5353684877172D-01
   175  1.7400000000000D+00  5.5562835052650D-02 -4.4674534702126D-01
   176  1.7500000000000D+00  5.9075518210044D-02 -4.3960354354015D-01
   177  1.7600000000000D+00  6.2244482291322D-02 -4.3214205054733D-01
   178  1.7700000000000D+00  6.5080927672203D-02 -4.2439005034512D-01
   179  1.7800000000000D+00  6.7596198569592D-02 -4.1637537226208D-01
   180  1.7900000000000D+00  6.9801760735838D-02 -4.0812456543081D-01
   181  1.8000000000000D+00  7.1709179289849D-02 -3.9966296735812D-01
   182  1.8100000000000D+00  7.3330096721417D-02 -3.9101476843389D-01
   183  1.8200000000000D+00  7.4676211107901D-02 -3.8220307242104D-01
   184  1.8300000000000D+00  7.5759254578775D-02 -3.7324995302127D-01
   185  1.8400000000000D+00  7.6590972064687D-02 -3.6417650664649D-01
   186  1.8500000000000D+00  7.7183100369832D-02 -3.5500290143131D-01
   187  1.8600000000000D+00  7.7547347597896D-02 -3.4574842271009D-01
   188  1.8700000000000D+00  7.7695372977552D-02 -3.3643151493233D-01
   189  1.8800000000000D+00  7.7638767105880D-02 -3.2706982031690D-01
   190  1.8900000000000D+00  7.7389032667495D-02 -3.1768021419857D-01
   191  1.9000000000000D+00  7.6957565636839D-02 -3.0827883736919D-01
   192  1.9100000000000D+00  7.6355637020795D-02 -2.9888112542871D-01
   193  1.9200000000000D+00  7.5594375154042D-02 -2.8950183537240D-01
   194  1.9300000000000D+00  7.4684748590007D-02 -2.8015506953664D-01
   195  1.9400000000000D+00  7.3637549617855D-02 -2.7085429704878D-01
   196  1.9500000000000D+00  7.2463378417756D-02 -2.6161237297367D-01
   197  1.9600000000000D+00  7.1172627916101D-02 -2.5244155526900D-01
   198  1.9700000000000D+00  6.9775469316396D-02 -2.4335351974987D-01
   199  1.9800000000000D+00  6.8281838390939D-02 -2.3435937320815D-01
   200  1.9900000000000D+00  6.6701422499761D-02 -2.2546966484032D-01
   201  2.0000000000000D+00  6.5043648397199D-02 -2.1669439616526D-01
   202  2.0100000000000D+00  6.3317670837273D-02 -2.0804302958319D-01
   203  2.0200000000000D+00  6.1532361968159D-02 -1.9952449570583D-01
   204  2.0300000000000D+00  5.9696301596325D-02 -1.9114719969950D-01
   205  2.0400000000000D+00  5.7817768245936D-02 -1.8291902665392D-01
   206  2.0500000000000D+00  5.5904731118459D-02 -1.7484734629621D-01
   207  2.0600000000000D+00  5.3964842895214D-02 -1.6693901705908D-01
   208  2.0700000000000D+00  5.2005433409910D-02 -1.5920038968630D-01
   209  2.0800000000000D+00  5.0033504239567D-02 -1.5163731061295D-01
   210  2.0900000000000D+00  4.8055724118548D-02 -1.4425512499943D-01
   211  2.1000000000000D+00  4.6078425308971D-02 -1.3705867989960D-01
   212  2.1100000000000D+00  4.4107600810254D-02 -1.3005232735462D-01
   213  2.1200000000000D+00  4.2148902459763D-02 -1.2323992768459D-01
   214  2.1300000000000D+00  4.0207639949474D-02 -1.1662485317871D-01
   215  2.1400000000000D+00  3.8288780641060D-02 -1.1020999192893D-01
   216  2.1500000000000D+00  3.6396950323312D-02 -1.0399775240805D-01
   217  2.1600000000000D+00  3.4536434766552D-02 -9.7990068423010D-02
   218  2.1700000000000D+00  3.2711182110760D-02 -9.2188404695241D-02
   219  2.1800000000000D+00  3.0924806121177D-02 -8.6593763321706D-02
   220  2.1900000000000D+00  2.9180590164971D-02 -8.1206690697391D-02
   221  2.2000000000000D+00  2.7481492033427D-02 -7.6027285511324D-02
   222  2.2100000000000D+00  2.5830149492790D-02 -7.1055207491436D-02
   223  2.2200000000000D+00  2.4228886526183D-02 -6.6289686876851D-02
   224  2.2300000000000D+00  2.2679720350378D-02 -6.1729535113428D-02
   225  2.2400000000000D+00  2.1184369030822D-02 -5.7373156155843D-02
   226  2.2500000000000D+00  1.9744259765473D-02 -5.3218558835638D-02
   227  2.2600000000000D+00  1.8360537794525D-02 -4.9263370257713D-02
   228  2.2700000000000D+00  1.7034075816331D-02 -4.5504849803155D-02
   229  2.2800000000000D+00  1.5765484003264D-02 -4.1939904377211D-02
   230  2.2900000000000D+00  1.4555120480557D-02 -3.8565104374157D-02
   231  2.3000000000000D+00  1.3403102237155D-02 -3.5376700356037D-02
   232  2.3100000000000D+00  1.2309316501229D-02 -3.2370640846914D-02
   233  2.3200000000000D+00  1.1273432444557D-02 -2.9542590620988D-02
   234  2.3300000000000D+00  1.0294913224979D-02 -2.6887949767901D-02
   235  2.3400000000000D+00  9.3730283302494D-03 -2.4401873551581D-02
   236  2.3500000000000D+00  8.5068661379821D-03 -2.2079292631985D-02
   237  2.3600000000000D+00  7.6953466835844D-03 -1.9914933973232D-02
   238  2.3700000000000D+00  6.9372345756335D-03 -1.7903342211941D-02
   239  2.3800000000000D+00  6.2311520154097D-03 -1.6038901243504D-02
   240  2.3900000000000D+00  5.5755918687000D-03 -1.4315856289181D-02
   241  2.4000000000000D+00  4.9689307491159D-03 -1.2728336108030D-02
   242  2.4100000000000D+00  4.4094420910935D-03 -1.1270375269880D-02
   243  2.4200000000000D+00  3.8953091030967D-03 -9.9359365930365D-03
   244  2.4300000000000D+00  3.4246376231935D-03 -8.7189334654343D-03
   245  2.4400000000000D+00  2.9954688315759D-03 -7.6132520403564D-03
   246  2.4500000000000D+00  2.6057916871994D-03 -6.6127732101530D-03
   247  2.4600000000000D+00  2.2535551646894D-03 -5.7113942711310D-03
   248  2.4700000000000D+00  1.9366802136709D-03 -4.9030502062808D-03
   249  2.4800000000000D+00  1.6530713026078D-03 -4.1817343916067D-03
   250  2.4900000000000D+00  1.4006276701434D-03 -3.5415188099054D-03
   251  2.5000000000000D+00  1.1772541717860D-03 -2.9765736090850D-03
   252  2.5100000000000D+00  9.8087158631933D-04 -2.4811857581475D-03
   253  2.5200000000000D+00  8.0942654863130D-04 -2.0497770429481D-03
   254  2.5300000000000D+00  6.6090096827589D-04 -1.6769211477076D-03
   255  2.5400000000000D+00  5.3332079661394D-04 -1.3573595385608D-03
   256  2.5500000000000D+00  4.2476435181025D-04 -1.0860165377627D-03
   257  2.5600000000000D+00  3.3337004866084D-04 -8.5801327634034D-04
   258  2.5700000000000D+00  2.5734337479249D-04 -6.6868017148916D-04
   259  2.5800000000000D+00  1.9496337041383D-04 -5.1356847062616D-04
   260  2.5900000000000D+00  1.4458847093404D-04 -3.8846055268289D-04
   261  2.6000000000000D+00  1.0466217666839D-04 -2.8939051031472D-04
   262  2.6100000000000D+00  7.3717175183677D-05 -2.1264575968504D-04
   263  2.6200000000000D+00  5.0373511283503D-05 -1.5467300713485D-04
   264  2.6300000000000D+00  3.3345255346145D-05 -1.1219576180043D-04
   265  2.6400000000000D+00  2.1419672822247D-05 -8.1995174451379D-05
   266  2.6500000000000D+00  1.3595268129652D-05 -6.2148507990115D-05
   267  2.6600000000000D+00  8.9068785472746D-06 -5.0417692047801D-05
   268  2.6700000000000D+00  6.6355003238098D-06 -4.5787920486069D-05
   269  2.6800000000000D+00  5.6067166321090D-06 -4.3275028017471D-05
   270  2.6900000000000D+00  4.9468449060877D-06 -3.9404253531374D-05
   271  2.7000000000000D+00  3.7483084750476D-06 -2.9874080640797D-05
   272  2.7100000000000D+00  2.1697696600073D-06 -1.7129380293213D-05
   273  2.7200000000000D+00  6.1648836969741D-07 -4.8021100833622D-06
   274  2.7300000000000D+00 -3.0754753930469D-07  2.4969637999826D-06
   275  2.7400000000000D+00 -4.8168368288122D-07  3.9023046738862D-06
   276  2.7500000000000D+00 -2.6656366692673D-07  2.1537404104297D-06
   277  2.7600000000000D+00  3.0753494696117D-08 -2.6052767169535D-07
   278  2.7700000000000D+00  9.9747584582310D-08 -8.4770626582173D-07
   279  2.7800000000000D+00  8.0601710479572D-08 -6.8684190830426D-07
   280  2.7900000000000D+00  4.6472557054277D-09 -3.9692700721446D-08
   281  2.8000000000000D+00 -1.1187546459797D-08  8.9114986626368D-08
   282  2.8100000000000D+00 -1.2772819816286D-08  1.0174256448451D-07
   283  2.8200000000000D+00 -4.6918731466704D-09  3.7373361015363D-08
   284  2.8300000000000D+00  0.0000000000000D+00  0.0000000000000D+00
   285  2.8400000000000D+00  0.0000000000000D+00  0.0000000000000D+00
   286  2.8500000000000D+00  0.0000000000000D+00  0.0000000000000D+00
   287  2.8600000000000D+00  0.0000000000000D+00  0.0000000000000D+00
   288  2.8700000000000D+00  0.0000000000000D+00  0.0000000000000D+00
   289  2.8800000000000D+00  0.0000000000000D+00  0.0000000000000D+00
   290  2.8900000000000D+00  0.0000000000000D+00  0.0000000000000D+00
   291  2.9000000000000D+00  0.0000000000000D+00  0.0000000000000D+00
   292  2.9100000000000D+00  0.0000000000000D+00  0.0000000000000D+00
   293  2.9200000000000D+00  0.0000000000000D+00  0.0000000000000D+00
   294  2.9300000000000D+00  0.0000000000000D+00  0.0000000000000D+00
   295  2.9400000000000D+00  0.0000000000000D+00  0.0000000000000D+00
   296  2.9500000000000D+00  0.0000000000000D+00  0.0000000000000D+00
   297  2.9600000000000D+00  0.0000000000000D+00  0.0000000000000D+00
   298  2.9700000000000D+00  0.0000000000000D+00  0.0000000000000D+00
   299  2.9800000000000D+00  0.0000000000000D+00  0.0000000000000D+00
   300  2.9900000000000D+00  0.0000000000000D+00  0.0000000000000D+00
   301  3.0000000000000D+00  0.0000000000000D+00  0.0000000000000D+00
   302  3.0100000000000D+00  0.0000000000000D+00  0.0000000000000D+00
   303  3.0200000000000D+00  0.0000000000000D+00  0.0000000000000D+00
   304  3.0300000000000D+00  0.0000000000000D+00  0.0000000000000D+00
   305  3.0400000000000D+00  0.0000000000000D+00  0.0000000000000D+00
   306  3.0500000000000D+00  0.0000000000000D+00  0.0000000000000D+00
   307  3.0600000000000D+00  0.0000000000000D+00  0.0000000000000D+00
   308  3.0700000000000D+00  0.0000000000000D+00  0.0000000000000D+00
   309  3.0800000000000D+00  0.0000000000000D+00  0.0000000000000D+00
   310  3.0900000000000D+00  0.0000000000000D+00  0.0000000000000D+00
   311  3.1000000000000D+00  0.0000000000000D+00  0.0000000000000D+00
   312  3.1100000000000D+00  0.0000000000000D+00  0.0000000000000D+00
   313  3.1200000000000D+00  0.0000000000000D+00  0.0000000000000D+00
   314  3.1300000000000D+00  0.0000000000000D+00  0.0000000000000D+00
   315  3.1400000000000D+00  0.0000000000000D+00  0.0000000000000D+00
   316  3.1500000000000D+00  0.0000000000000D+00  0.0000000000000D+00
   317  3.1600000000000D+00  0.0000000000000D+00  0.0000000000000D+00
   318  3.1700000000000D+00  0.0000000000000D+00  0.0000000000000D+00
   319  3.1800000000000D+00  0.0000000000000D+00  0.0000000000000D+00
   320  3.1900000000000D+00  0.0000000000000D+00  0.0000000000000D+00
   321  3.2000000000000D+00  0.0000000000000D+00  0.0000000000000D+00
   322  3.2100000000000D+00  0.0000000000000D+00  0.0000000000000D+00
   323  3.2200000000000D+00  0.0000000000000D+00  0.0000000000000D+00
   324  3.2300000000000D+00  0.0000000000000D+00  0.0000000000000D+00
   325  3.2400000000000D+00  0.0000000000000D+00  0.0000000000000D+00
   326  3.2500000000000D+00  0.0000000000000D+00  0.0000000000000D+00
   327  3.2600000000000D+00  0.0000000000000D+00  0.0000000000000D+00
   328  3.2700000000000D+00  0.0000000000000D+00  0.0000000000000D+00
   329  3.2800000000000D+00  0.0000000000000D+00  0.0000000000000D+00
   330  3.2900000000000D+00  0.0000000000000D+00  0.0000000000000D+00
   331  3.3000000000000D+00  0.0000000000000D+00  0.0000000000000D+00
   332  3.3100000000000D+00  0.0000000000000D+00  0.0000000000000D+00
   333  3.3200000000000D+00  0.0000000000000D+00  0.0000000000000D+00
   334  3.3300000000000D+00  0.0000000000000D+00  0.0000000000000D+00
   335  3.3400000000000D+00  0.0000000000000D+00  0.0000000000000D+00
   336  3.3500000000000D+00  0.0000000000000D+00  0.0000000000000D+00
   337  3.3600000000000D+00  0.0000000000000D+00  0.0000000000000D+00
   338  3.3700000000000D+00  0.0000000000000D+00  0.0000000000000D+00
   339  3.3800000000000D+00  0.0000000000000D+00  0.0000000000000D+00
   340  3.3900000000000D+00  0.0000000000000D+00  0.0000000000000D+00
   341  3.4000000000000D+00  0.0000000000000D+00  0.0000000000000D+00
   342  3.4100000000000D+00  0.0000000000000D+00  0.0000000000000D+00
   343  3.4200000000000D+00  0.0000000000000D+00  0.0000000000000D+00
   344  3.4300000000000D+00  0.0000000000000D+00  0.0000000000000D+00
   345  3.4400000000000D+00  0.0000000000000D+00  0.0000000000000D+00
   346  3.4500000000000D+00  0.0000000000000D+00  0.0000000000000D+00
   347  3.4600000000000D+00  0.0000000000000D+00  0.0000000000000D+00
   348  3.4700000000000D+00  0.0000000000000D+00  0.0000000000000D+00
   349  3.4800000000000D+00  0.0000000000000D+00  0.0000000000000D+00
   350  3.4900000000000D+00  0.0000000000000D+00  0.0000000000000D+00
   351  3.5000000000000D+00  0.0000000000000D+00  0.0000000000000D+00
   352  3.5100000000000D+00  0.0000000000000D+00  0.0000000000000D+00
   353  3.5200000000000D+00  0.0000000000000D+00  0.0000000000000D+00
   354  3.5300000000000D+00  0.0000000000000D+00  0.0000000000000D+00
   355  3.5400000000000D+00  0.0000000000000D+00  0.0000000000000D+00
   356  3.5500000000000D+00  0.0000000000000D+00  0.0000000000000D+00
   357  3.5600000000000D+00  0.0000000000000D+00  0.0000000000000D+00
   358  3.5700000000000D+00  0.0000000000000D+00  0.0000000000000D+00
   359  3.5800000000000D+00  0.0000000000000D+00  0.0000000000000D+00
   360  3.5900000000000D+00  0.0000000000000D+00  0.0000000000000D+00
   361  3.6000000000000D+00  0.0000000000000D+00  0.0000000000000D+00
   362  3.6100000000000D+00  0.0000000000000D+00  0.0000000000000D+00
   363  3.6200000000000D+00  0.0000000000000D+00  0.0000000000000D+00
   364  3.6300000000000D+00  0.0000000000000D+00  0.0000000000000D+00
   365  3.6400000000000D+00  0.0000000000000D+00  0.0000000000000D+00
   366  3.6500000000000D+00  0.0000000000000D+00  0.0000000000000D+00
   367  3.6600000000000D+00  0.0000000000000D+00  0.0000000000000D+00
   368  3.6700000000000D+00  0.0000000000000D+00  0.0000000000000D+00
   369  3.6800000000000D+00  0.0000000000000D+00  0.0000000000000D+00
   370  3.6900000000000D+00  0.0000000000000D+00  0.0000000000000D+00
   371  3.7000000000000D+00  0.0000000000000D+00  0.0000000000000D+00
   372  3.7100000000000D+00  0.0000000000000D+00  0.0000000000000D+00
   373  3.7200000000000D+00  0.0000000000000D+00  0.0000000000000D+00
   374  3.7300000000000D+00  0.0000000000000D+00  0.0000000000000D+00
   375  3.7400000000000D+00  0.0000000000000D+00  0.0000000000000D+00
   376  3.7500000000000D+00  0.0000000000000D+00  0.0000000000000D+00
   377  3.7600000000000D+00  0.0000000000000D+00  0.0000000000000D+00
   378  3.7700000000000D+00  0.0000000000000D+00  0.0000000000000D+00
   379  3.7800000000000D+00  0.0000000000000D+00  0.0000000000000D+00
   380  3.7900000000000D+00  0.0000000000000D+00  0.0000000000000D+00
   381  3.8000000000000D+00  0.0000000000000D+00  0.0000000000000D+00
   382  3.8100000000000D+00  0.0000000000000D+00  0.0000000000000D+00
   383  3.8200000000000D+00  0.0000000000000D+00  0.0000000000000D+00
   384  3.8300000000000D+00  0.0000000000000D+00  0.0000000000000D+00
   385  3.8400000000000D+00  0.0000000000000D+00  0.0000000000000D+00
   386  3.8500000000000D+00  0.0000000000000D+00  0.0000000000000D+00
   387  3.8600000000000D+00  0.0000000000000D+00  0.0000000000000D+00
   388  3.8700000000000D+00  0.0000000000000D+00  0.0000000000000D+00
   389  3.8800000000000D+00  0.0000000000000D+00  0.0000000000000D+00
   390  3.8900000000000D+00  0.0000000000000D+00  0.0000000000000D+00
   391  3.9000000000000D+00  0.0000000000000D+00  0.0000000000000D+00
   392  3.9100000000000D+00  0.0000000000000D+00  0.0000000000000D+00
   393  3.9200000000000D+00  0.0000000000000D+00  0.0000000000000D+00
   394  3.9300000000000D+00  0.0000000000000D+00  0.0000000000000D+00
   395  3.9400000000000D+00  0.0000000000000D+00  0.0000000000000D+00
   396  3.9500000000000D+00  0.0000000000000D+00  0.0000000000000D+00
   397  3.9600000000000D+00  0.0000000000000D+00  0.0000000000000D+00
   398  3.9700000000000D+00  0.0000000000000D+00  0.0000000000000D+00
   399  3.9800000000000D+00  0.0000000000000D+00  0.0000000000000D+00
   400  3.9900000000000D+00  0.0000000000000D+00  0.0000000000000D+00
   401  4.0000000000000D+00  0.0000000000000D+00  0.0000000000000D+00
   402  4.0100000000000D+00  0.0000000000000D+00  0.0000000000000D+00
   403  4.0200000000000D+00  0.0000000000000D+00  0.0000000000000D+00
   404  4.0300000000000D+00  0.0000000000000D+00  0.0000000000000D+00
   405  4.0400000000000D+00  0.0000000000000D+00  0.0000000000000D+00
   406  4.0500000000000D+00  0.0000000000000D+00  0.0000000000000D+00
   407  4.0600000000000D+00  0.0000000000000D+00  0.0000000000000D+00
   408  4.0700000000000D+00  0.0000000000000D+00  0.0000000000000D+00
   409  4.0800000000000D+00  0.0000000000000D+00  0.0000000000000D+00
   410  4.0900000000000D+00  0.0000000000000D+00  0.0000000000000D+00
   411  4.1000000000000D+00  0.0000000000000D+00  0.0000000000000D+00
   412  4.1100000000000D+00  0.0000000000000D+00  0.0000000000000D+00
   413  4.1200000000000D+00  0.0000000000000D+00  0.0000000000000D+00
   414  4.1300000000000D+00  0.0000000000000D+00  0.0000000000000D+00
   415  4.1400000000000D+00  0.0000000000000D+00  0.0000000000000D+00
   416  4.1500000000000D+00  0.0000000000000D+00  0.0000000000000D+00
   417  4.1600000000000D+00  0.0000000000000D+00  0.0000000000000D+00
   418  4.1700000000000D+00  0.0000000000000D+00  0.0000000000000D+00
   419  4.1800000000000D+00  0.0000000000000D+00  0.0000000000000D+00
   420  4.1900000000000D+00  0.0000000000000D+00  0.0000000000000D+00
   421  4.2000000000000D+00  0.0000000000000D+00  0.0000000000000D+00
   422  4.2100000000000D+00  0.0000000000000D+00  0.0000000000000D+00