Al    ONCVPSP-3.3.1  r_core=   1.31212   2.41091
     13.0000     11.0000      210904    zatom,zion,pspd
     8      11   1     4   600     0    pspcod,pspxc,lmax,lloc,mmax,r2well
  5.99000000  0.00000000  0.00000000    rchrg fchrg qchrg
     2     2     0     0     0    nproj
     1     1           extension_switch
   0                         2.8663637525830D+00 -3.9903524270696D-01
     1  0.0000000000000D+00  1.9192055722428D-09  2.5877609777236D-09
     2  1.0000000000000D-02  1.1868834303016D-01  1.9813837676341D-02
     3  2.0000000000000D-02  2.3686534313496D-01  3.9812365872281D-02
     4  3.0000000000000D-02  3.5402110917504D-01  6.0177376919083D-02
     5  4.0000000000000D-02  4.6964866922581D-01  8.1084910196160D-02
     6  5.0000000000000D-02  5.8324546878786D-01  1.0270248354445D-01
     7  6.0000000000000D-02  6.9431491392050D-01  1.2518645227361D-01
     8  7.0000000000000D-02  8.0236797196655D-01  1.4867953520331D-01
     9  8.0000000000000D-02  9.0692484061814D-01  1.7330854459108D-01
    10  9.0000000000000D-02  1.0075166937439D+00  1.9918235364064D-01
    11  1.0000000000000D-01  1.1036875097052D+00  2.2639013160458D-01
    12  1.1000000000000D-01  1.1949959848857D+00  2.5499987234994D-01
    13  1.2000000000000D-01  1.2810175318992D+00  2.8505723771113D-01
    14  1.3000000000000D-01  1.3613463584988D+00  3.1658473208022D-01
    15  1.4000000000000D-01  1.4355976196456D+00  3.4958121955798D-01
    16  1.5000000000000D-01  1.5034096315849D+00  3.8402178968937D-01
    17  1.6000000000000D-01  1.5644461331992D+00  4.1985797241821D-01
    18  1.7000000000000D-01  1.6183985764262D+00  4.5701829750114D-01
    19  1.8000000000000D-01  1.6649884242348D+00  4.9540918830726D-01
    20  1.9000000000000D-01  1.7039694316009D+00  5.3491617477976D-01
    21  2.0000000000000D-01  1.7351298822011D+00  5.7540540543096D-01
    22  2.1000000000000D-01  1.7582947512022D+00  6.1672543366201D-01
    23  2.2000000000000D-01  1.7733277626322D+00  6.5870924951351D-01
    24  2.3000000000000D-01  1.7801333084253D+00  7.0117652423351D-01
    25  2.4000000000000D-01  1.7786581953884D+00  7.4393603185154D-01
    26  2.5000000000000D-01  1.7688931860699D+00  7.8678820932604D-01
    27  2.6000000000000D-01  1.7508742998570D+00  8.2952781482812D-01
    28  2.7000000000000D-01  1.7246838415987D+00  8.7194664237111D-01
    29  2.8000000000000D-01  1.6904511266548D+00  9.1383625031558D-01
    30  2.9000000000000D-01  1.6483528735015D+00  9.5499066128361D-01
    31  3.0000000000000D-01  1.5986132378679D+00  9.9520899170666D-01
    32  3.1000000000000D-01  1.5415034658054D+00  1.0342979705966D+00
    33  3.2000000000000D-01  1.4773411470632D+00  1.0720743091479D+00
    34  3.3000000000000D-01  1.4064890546177D+00  1.1083668854179D+00
    35  3.4000000000000D-01  1.3293535611133D+00  1.1430187115531D+00
    36  3.5000000000000D-01  1.2463826282531D+00  1.1758886547672D+00
    37  3.6000000000000D-01  1.1580633707584D+00  1.2068528874923D+00
    38  3.7000000000000D-01  1.0649192023041D+00  1.2358060467221D+00
    39  3.8000000000000D-01  9.6750657675313D-01  1.2626620874906D+00
    40  3.9000000000000D-01  8.6641134395610D-01  1.2873548205900D+00
    41  4.0000000000000D-01  7.6224474526244D-01  1.3098381299399D+00
    42  4.1000000000000D-01  6.5563907960400D-01  1.3300858703920D+00
    43  4.2000000000000D-01  5.4724307646748D-01  1.3480914520991D+00
    44  4.3000000000000D-01  4.3771701717087D-01  1.3638671227986D+00
    45  4.4000000000000D-01  3.2772765051106D-01  1.3774429643790D+00
    46  4.5000000000000D-01  2.1794295296696D-01  1.3888656248182D+00
    47  4.6000000000000D-01  1.0902678714782D-01  1.3981968109333D+00
    48  4.7000000000000D-01  1.6335149963195D-03  1.4055115712781D+00
    49  4.8000000000000D-01 -1.0359737566867D-01  1.4108964019104D+00
    50  4.9000000000000D-01 -2.0604657140504D-01  1.4144472105592D+00
    51  5.0000000000000D-01 -3.0512009988520D-01  1.4162671769079D+00
    52  5.1000000000000D-01 -4.0025430321939D-01  1.4164645482348D+00
    53  5.2000000000000D-01 -4.9092055924657D-01  1.4151504104902D+00
    54  5.3000000000000D-01 -5.7662969432163D-01  1.4124364750258D+00
    55  5.4000000000000D-01 -6.5693603412200D-01  1.4084329206242D+00
    56  5.5000000000000D-01 -7.3144104281339D-01  1.4032463292177D+00
    57  5.6000000000000D-01 -7.9979650548620D-01  1.3969777517544D+00
    58  5.7000000000000D-01 -8.6170721408179D-01  1.3897209381052D+00
    59  5.8000000000000D-01 -9.1693312293996D-01  1.3815607617560D+00
    60  5.9000000000000D-01 -9.6529094660388D-01  1.3725718663389D+00
    61  6.0000000000000D-01 -1.0066551794360D+00  1.3628175569231D+00
    62  6.1000000000000D-01 -1.0409585239301D+00  1.3523489544329D+00
    63  6.2000000000000D-01 -1.0681917221032D+00  1.3412044267503D+00
    64  6.3000000000000D-01 -1.0884027920647D+00  1.3294093049767D+00
    65  6.4000000000000D-01 -1.1016956795038D+00  1.3169758881772D+00
    66  6.5000000000000D-01 -1.1082283414027D+00  1.3039037347249D+00
    67  6.6000000000000D-01 -1.1082102866241D+00  1.2901802332235D+00
    68  6.7000000000000D-01 -1.1018996049696D+00  1.2757814410372D+00
    69  6.8000000000000D-01 -1.0895995228124D+00  1.2606731737489D+00
    70  6.9000000000000D-01 -1.0716545293428D+00  1.2448123245035D+00
    71  7.0000000000000D-01 -1.0484461227056D+00  1.2281483882712D+00
    72  7.1000000000000D-01 -1.0203882298011D+00  1.2106251626433D+00
    73  7.2000000000000D-01 -9.8792235717727D-01  1.1921825939078D+00
    74  7.3000000000000D-01 -9.5151253320152D-01  1.1727587349195D+00
    75  7.4000000000000D-01 -9.1164010350874D-01  1.1522917797059D+00
    76  7.5000000000000D-01 -8.6879844256443D-01  1.1307221388723D+00
    77  7.6000000000000D-01 -8.2348764402925D-01  1.1079945197046D+00
    78  7.7000000000000D-01 -7.7620925148791D-01  1.0840599754048D+00
    79  7.8000000000000D-01 -7.2746108899592D-01  1.0588778891540D+00
    80  7.9000000000000D-01 -6.7773224787803D-01  1.0324178606176D+00
    81  8.0000000000000D-01 -6.2749828231080D-01  1.0046614650824D+00
    82  8.1000000000000D-01 -5.7721666151489D-01  9.7560385857320D-01
    83  8.2000000000000D-01 -5.2732252095334D-01  9.4525520599039D-01
    84  8.3000000000000D-01 -4.7822474887434D-01  9.1364191346126D-01
    85  8.4000000000000D-01 -4.3030243795818D-01  8.8080765062616D-01
    86  8.5000000000000D-01 -3.8390172484380D-01  8.4681415339935D-01
    87  8.6000000000000D-01 -3.3933303304306D-01  8.1174180275786D-01
    88  8.7000000000000D-01 -2.9686872732899D-01  7.7568998022185D-01
    89  8.8000000000000D-01 -2.5674118023697D-01  7.3877720579672D-01
    90  8.9000000000000D-01 -2.1914124397687D-01  7.0114106914860D-01
    91  9.0000000000000D-01 -1.8421711394616D-01  6.6293796958423D-01
    92  9.1000000000000D-01 -1.5207356126841D-01  6.2434268873663D-01
    93  9.2000000000000D-01 -1.2277151026704D-01  5.8554781304433D-01
    94  9.3000000000000D-01 -9.6327994998329D-02  5.4676291961683D-01
    95  9.4000000000000D-01 -7.2716072735187D-02  5.0821425416223D-01
    96  9.5000000000000D-01 -5.1866526306384D-02  4.7014141057630D-01
    97  9.6000000000000D-01 -3.3677035175468D-02  4.3278091519614D-01
    98  9.7000000000000D-01 -1.8022589472114D-02  3.9635083377681D-01
    99  9.8000000000000D-01 -4.7597786682534D-03  3.6104868129971D-01
   100  9.9000000000000D-01  6.2697943602823D-03  3.2705118261071D-01
   101  1.0000000000000D+00  1.5235955458978D-02  2.9451367053711D-01
   102  1.0100000000000D+00  2.2316522046348D-02  2.6356963964850D-01
   103  1.0200000000000D+00  2.7694002321865D-02  2.3433041199756D-01
   104  1.0300000000000D+00  3.1552466712566D-02  2.0688493246602D-01
   105  1.0400000000000D+00  3.4074634504689D-02  1.8129972774682D-01
   106  1.0500000000000D+00  3.5439211863980D-02  1.5761905421955D-01
   107  1.0600000000000D+00  3.5818512652748D-02  1.3586525578753D-01
   108  1.0700000000000D+00  3.5376388206432D-02  1.1603934812541D-01
   109  1.0800000000000D+00  3.4266486115608D-02  9.8121840379731D-02
   110  1.0900000000000D+00  3.2630851947791D-02  8.2073799965753D-02
   111  1.1000000000000D+00  3.0598881105544D-02  6.7838160163682D-02
   112  1.1100000000000D+00  2.8286620487465D-02  5.5341263636870D-02
   113  1.1200000000000D+00  2.5796412759209D-02  4.4494629060945D-02
   114  1.1300000000000D+00  2.3216867849725D-02  3.5196921097080D-02
   115  1.1400000000000D+00  2.0623140393034D-02  2.7336098949817D-02
   116  1.1500000000000D+00  1.8077482186442D-02  2.0791710831260D-02
   117  1.1600000000000D+00  1.5630033061784D-02  1.5437297187998D-02
   118  1.1700000000000D+00  1.3319806170004D-02  1.1142859910510D-02
   119  1.1800000000000D+00  1.1175818507163D-02  7.7773508088703D-03
   120  1.1900000000000D+00  9.2183102248347D-03  5.2111277064873D-03
   121  1.2000000000000D+00  7.4599937566795D-03  3.3183254600347D-03
   122  1.2100000000000D+00  5.9072709938125D-03  1.9790877750341D-03
   123  1.2200000000000D+00  4.5613541091302D-03  1.0816051653836D-03
   124  1.2300000000000D+00  3.4192285980249D-03  5.2390857815908D-04
   125  1.2400000000000D+00  2.4744018762044D-03  2.1537337434618D-04
   126  1.2500000000000D+00  1.7173820043084D-03  7.7890839887973D-05
   127  1.2600000000000D+00  1.1358481818367D-03  4.6680782303915D-05
   128  1.2700000000000D+00  7.1469162458754D-04  7.1007138950510D-05
   129  1.2800000000000D+00  4.3457053473103D-04  1.1296566789074D-04
   130  1.2900000000000D+00  2.6934032421463D-04  1.4591510133656D-04
   131  1.3000000000000D+00  2.0940759822464D-04  1.7803265139056D-04
   132  1.3100000000000D+00  1.9143853671594D-04  1.8383761124095D-04
   133  1.3200000000000D+00  9.0952441243652D-05  8.8187140765321D-05
   134  1.3300000000000D+00 -1.0431469428050D-05 -1.0268991359973D-05
   135  1.3400000000000D+00 -1.0807011502289D-05 -1.0657453005793D-05
   136  1.3500000000000D+00  4.1129486643104D-06  4.0858238801061D-06
   137  1.3600000000000D+00 -8.3743474321563D-09 -8.0708503873924D-09
   138  1.3700000000000D+00 -4.6426122744491D-07 -4.4743580771287D-07
   139  1.3800000000000D+00  0.0000000000000D+00  0.0000000000000D+00
   140  1.3900000000000D+00  0.0000000000000D+00  0.0000000000000D+00
   141  1.4000000000000D+00  0.0000000000000D+00  0.0000000000000D+00
   142  1.4100000000000D+00  0.0000000000000D+00  0.0000000000000D+00
   143  1.4200000000000D+00  0.0000000000000D+00  0.0000000000000D+00
   144  1.4300000000000D+00  0.0000000000000D+00  0.0000000000000D+00
   145  1.4400000000000D+00  0.0000000000000D+00  0.0000000000000D+00
   146  1.4500000000000D+00  0.0000000000000D+00  0.0000000000000D+00
   147  1.4600000000000D+00  0.0000000000000D+00  0.0000000000000D+00
   148  1.4700000000000D+00  0.0000000000000D+00  0.0000000000000D+00
   149  1.4800000000000D+00  0.0000000000000D+00  0.0000000000000D+00
   150  1.4900000000000D+00  0.0000000000000D+00  0.0000000000000D+00
   151  1.5000000000000D+00  0.0000000000000D+00  0.0000000000000D+00
   152  1.5100000000000D+00  0.0000000000000D+00  0.0000000000000D+00
   153  1.5200000000000D+00  0.0000000000000D+00  0.0000000000000D+00
   154  1.5300000000000D+00  0.0000000000000D+00  0.0000000000000D+00
   155  1.5400000000000D+00  0.0000000000000D+00  0.0000000000000D+00
   156  1.5500000000000D+00  0.0000000000000D+00  0.0000000000000D+00
   157  1.5600000000000D+00  0.0000000000000D+00  0.0000000000000D+00
   158  1.5700000000000D+00  0.0000000000000D+00  0.0000000000000D+00
   159  1.5800000000000D+00  0.0000000000000D+00  0.0000000000000D+00
   160  1.5900000000000D+00  0.0000000000000D+00  0.0000000000000D+00
   161  1.6000000000000D+00  0.0000000000000D+00  0.0000000000000D+00
   162  1.6100000000000D+00  0.0000000000000D+00  0.0000000000000D+00
   163  1.6200000000000D+00  0.0000000000000D+00  0.0000000000000D+00
   164  1.6300000000000D+00  0.0000000000000D+00  0.0000000000000D+00
   165  1.6400000000000D+00  0.0000000000000D+00  0.0000000000000D+00
   166  1.6500000000000D+00  0.0000000000000D+00  0.0000000000000D+00
   167  1.6600000000000D+00  0.0000000000000D+00  0.0000000000000D+00
   168  1.6700000000000D+00  0.0000000000000D+00  0.0000000000000D+00
   169  1.6800000000000D+00  0.0000000000000D+00  0.0000000000000D+00
   170  1.6900000000000D+00  0.0000000000000D+00  0.0000000000000D+00
   171  1.7000000000000D+00  0.0000000000000D+00  0.0000000000000D+00
   172  1.7100000000000D+00  0.0000000000000D+00  0.0000000000000D+00
   173  1.7200000000000D+00  0.0000000000000D+00  0.0000000000000D+00
   174  1.7300000000000D+00  0.0000000000000D+00  0.0000000000000D+00
   175  1.7400000000000D+00  0.0000000000000D+00  0.0000000000000D+00
   176  1.7500000000000D+00  0.0000000000000D+00  0.0000000000000D+00
   177  1.7600000000000D+00  0.0000000000000D+00  0.0000000000000D+00
   178  1.7700000000000D+00  0.0000000000000D+00  0.0000000000000D+00
   179  1.7800000000000D+00  0.0000000000000D+00  0.0000000000000D+00
   180  1.7900000000000D+00  0.0000000000000D+00  0.0000000000000D+00
   181  1.8000000000000D+00  0.0000000000000D+00  0.0000000000000D+00
   182  1.8100000000000D+00  0.0000000000000D+00  0.0000000000000D+00
   183  1.8200000000000D+00  0.0000000000000D+00  0.0000000000000D+00
   184  1.8300000000000D+00  0.0000000000000D+00  0.0000000000000D+00
   185  1.8400000000000D+00  0.0000000000000D+00  0.0000000000000D+00
   186  1.8500000000000D+00  0.0000000000000D+00  0.0000000000000D+00
   187  1.8600000000000D+00  0.0000000000000D+00  0.0000000000000D+00
   188  1.8700000000000D+00  0.0000000000000D+00  0.0000000000000D+00
   189  1.8800000000000D+00  0.0000000000000D+00  0.0000000000000D+00
   190  1.8900000000000D+00  0.0000000000000D+00  0.0000000000000D+00
   191  1.9000000000000D+00  0.0000000000000D+00  0.0000000000000D+00
   192  1.9100000000000D+00  0.0000000000000D+00  0.0000000000000D+00
   193  1.9200000000000D+00  0.0000000000000D+00  0.0000000000000D+00
   194  1.9300000000000D+00  0.0000000000000D+00  0.0000000000000D+00
   195  1.9400000000000D+00  0.0000000000000D+00  0.0000000000000D+00
   196  1.9500000000000D+00  0.0000000000000D+00  0.0000000000000D+00
   197  1.9600000000000D+00  0.0000000000000D+00  0.0000000000000D+00
   198  1.9700000000000D+00  0.0000000000000D+00  0.0000000000000D+00
   199  1.9800000000000D+00  0.0000000000000D+00  0.0000000000000D+00
   200  1.9900000000000D+00  0.0000000000000D+00  0.0000000000000D+00
   201  2.0000000000000D+00  0.0000000000000D+00  0.0000000000000D+00
   202  2.0100000000000D+00  0.0000000000000D+00  0.0000000000000D+00
   203  2.0200000000000D+00  0.0000000000000D+00  0.0000000000000D+00
   204  2.0300000000000D+00  0.0000000000000D+00  0.0000000000000D+00
   205  2.0400000000000D+00  0.0000000000000D+00  0.0000000000000D+00
   206  2.0500000000000D+00  0.0000000000000D+00  0.0000000000000D+00
   207  2.0600000000000D+00  0.0000000000000D+00  0.0000000000000D+00
   208  2.0700000000000D+00  0.0000000000000D+00  0.0000000000000D+00
   209  2.0800000000000D+00  0.0000000000000D+00  0.0000000000000D+00
   210  2.0900000000000D+00  0.0000000000000D+00  0.0000000000000D+00
   211  2.1000000000000D+00  0.0000000000000D+00  0.0000000000000D+00
   212  2.1100000000000D+00  0.0000000000000D+00  0.0000000000000D+00
   213  2.1200000000000D+00  0.0000000000000D+00  0.0000000000000D+00
   214  2.1300000000000D+00  0.0000000000000D+00  0.0000000000000D+00
   215  2.1400000000000D+00  0.0000000000000D+00  0.0000000000000D+00
   216  2.1500000000000D+00  0.0000000000000D+00  0.0000000000000D+00
   217  2.1600000000000D+00  0.0000000000000D+00  0.0000000000000D+00
   218  2.1700000000000D+00  0.0000000000000D+00  0.0000000000000D+00
   219  2.1800000000000D+00  0.0000000000000D+00  0.0000000000000D+00
   220  2.1900000000000D+00  0.0000000000000D+00  0.0000000000000D+00
   221  2.2000000000000D+00  0.0000000000000D+00  0.0000000000000D+00
   222  2.2100000000000D+00  0.0000000000000D+00  0.0000000000000D+00
   223  2.2200000000000D+00  0.0000000000000D+00  0.0000000000000D+00
   224  2.2300000000000D+00  0.0000000000000D+00  0.0000000000000D+00
   225  2.2400000000000D+00  0.0000000000000D+00  0.0000000000000D+00
   226  2.2500000000000D+00  0.0000000000000D+00  0.0000000000000D+00
   227  2.2600000000000D+00  0.0000000000000D+00  0.0000000000000D+00
   228  2.2700000000000D+00  0.0000000000000D+00  0.0000000000000D+00
   229  2.2800000000000D+00  0.0000000000000D+00  0.0000000000000D+00
   230  2.2900000000000D+00  0.0000000000000D+00  0.0000000000000D+00
   231  2.3000000000000D+00  0.0000000000000D+00  0.0000000000000D+00
   232  2.3100000000000D+00  0.0000000000000D+00  0.0000000000000D+00
   233  2.3200000000000D+00  0.0000000000000D+00  0.0000000000000D+00
   234  2.3300000000000D+00  0.0000000000000D+00  0.0000000000000D+00
   235  2.3400000000000D+00  0.0000000000000D+00  0.0000000000000D+00
   236  2.3500000000000D+00  0.0000000000000D+00  0.0000000000000D+00
   237  2.3600000000000D+00  0.0000000000000D+00  0.0000000000000D+00
   238  2.3700000000000D+00  0.0000000000000D+00  0.0000000000000D+00
   239  2.3800000000000D+00  0.0000000000000D+00  0.0000000000000D+00
   240  2.3900000000000D+00  0.0000000000000D+00  0.0000000000000D+00
   241  2.4000000000000D+00  0.0000000000000D+00  0.0000000000000D+00
   242  2.4100000000000D+00  0.0000000000000D+00  0.0000000000000D+00
   243  2.4200000000000D+00  0.0000000000000D+00  0.0000000000000D+00
   244  2.4300000000000D+00  0.0000000000000D+00  0.0000000000000D+00
   245  2.4400000000000D+00  0.0000000000000D+00  0.0000000000000D+00
   246  2.4500000000000D+00  0.0000000000000D+00  0.0000000000000D+00
   247  2.4600000000000D+00  0.0000000000000D+00  0.0000000000000D+00
   248  2.4700000000000D+00  0.0000000000000D+00  0.0000000000000D+00
   249  2.4800000000000D+00  0.0000000000000D+00  0.0000000000000D+00
   250  2.4900000000000D+00  0.0000000000000D+00  0.0000000000000D+00
   251  2.5000000000000D+00  0.0000000000000D+00  0.0000000000000D+00
   252  2.5100000000000D+00  0.0000000000000D+00  0.0000000000000D+00
   253  2.5200000000000D+00  0.0000000000000D+00  0.0000000000000D+00
   254  2.5300000000000D+00  0.0000000000000D+00  0.0000000000000D+00
   255  2.5400000000000D+00  0.0000000000000D+00  0.0000000000000D+00
   256  2.5500000000000D+00  0.0000000000000D+00  0.0000000000000D+00
   257  2.5600000000000D+00  0.0000000000000D+00  0.0000000000000D+00
   258  2.5700000000000D+00  0.0000000000000D+00  0.0000000000000D+00
   259  2.5800000000000D+00  0.0000000000000D+00  0.0000000000000D+00
   260  2.5900000000000D+00  0.0000000000000D+00  0.0000000000000D+00
   261  2.6000000000000D+00  0.0000000000000D+00  0.0000000000000D+00
   262  2.6100000000000D+00  0.0000000000000D+00  0.0000000000000D+00
   263  2.6200000000000D+00  0.0000000000000D+00  0.0000000000000D+00
   264  2.6300000000000D+00  0.0000000000000D+00  0.0000000000000D+00
   265  2.6400000000000D+00  0.0000000000000D+00  0.0000000000000D+00
   266  2.6500000000000D+00  0.0000000000000D+00  0.0000000000000D+00
   267  2.6600000000000D+00  0.0000000000000D+00  0.0000000000000D+00
   268  2.6700000000000D+00  0.0000000000000D+00  0.0000000000000D+00
   269  2.6800000000000D+00  0.0000000000000D+00  0.0000000000000D+00
   270  2.6900000000000D+00  0.0000000000000D+00  0.0000000000000D+00
   271  2.7000000000000D+00  0.0000000000000D+00  0.0000000000000D+00
   272  2.7100000000000D+00  0.0000000000000D+00  0.0000000000000D+00
   273  2.7200000000000D+00  0.0000000000000D+00  0.0000000000000D+00
   274  2.7300000000000D+00  0.0000000000000D+00  0.0000000000000D+00
   275  2.7400000000000D+00  0.0000000000000D+00  0.0000000000000D+00
   276  2.7500000000000D+00  0.0000000000000D+00  0.0000000000000D+00
   277  2.7600000000000D+00  0.0000000000000D+00  0.0000000000000D+00
   278  2.7700000000000D+00  0.0000000000000D+00  0.0000000000000D+00
   279  2.7800000000000D+00  0.0000000000000D+00  0.0000000000000D+00
   280  2.7900000000000D+00  0.0000000000000D+00  0.0000000000000D+00
   281  2.8000000000000D+00  0.0000000000000D+00  0.0000000000000D+00
   282  2.8100000000000D+00  0.0000000000000D+00  0.0000000000000D+00
   283  2.8200000000000D+00  0.0000000000000D+00  0.0000000000000D+00
   284  2.8300000000000D+00  0.0000000000000D+00  0.0000000000000D+00
   285  2.8400000000000D+00  0.0000000000000D+00  0.0000000000000D+00
   286  2.8500000000000D+00  0.0000000000000D+00  0.0000000000000D+00
   287  2.8600000000000D+00  0.0000000000000D+00  0.0000000000000D+00
   288  2.8700000000000D+00  0.0000000000000D+00  0.0000000000000D+00
   289  2.8800000000000D+00  0.0000000000000D+00  0.0000000000000D+00
   290  2.8900000000000D+00  0.0000000000000D+00  0.0000000000000D+00
   291  2.9000000000000D+00  0.0000000000000D+00  0.0000000000000D+00
   292  2.9100000000000D+00  0.0000000000000D+00  0.0000000000000D+00
   293  2.9200000000000D+00  0.0000000000000D+00  0.0000000000000D+00
   294  2.9300000000000D+00  0.0000000000000D+00  0.0000000000000D+00
   295  2.9400000000000D+00  0.0000000000000D+00  0.0000000000000D+00
   296  2.9500000000000D+00  0.0000000000000D+00  0.0000000000000D+00
   297  2.9600000000000D+00  0.0000000000000D+00  0.0000000000000D+00
   298  2.9700000000000D+00  0.0000000000000D+00  0.0000000000000D+00
   299  2.9800000000000D+00  0.0000000000000D+00  0.0000000000000D+00
   300  2.9900000000000D+00  0.0000000000000D+00  0.0000000000000D+00
   301  3.0000000000000D+00  0.0000000000000D+00  0.0000000000000D+00
   302  3.0100000000000D+00  0.0000000000000D+00  0.0000000000000D+00
   303  3.0200000000000D+00  0.0000000000000D+00  0.0000000000000D+00
   304  3.0300000000000D+00  0.0000000000000D+00  0.0000000000000D+00
   305  3.0400000000000D+00  0.0000000000000D+00  0.0000000000000D+00
   306  3.0500000000000D+00  0.0000000000000D+00  0.0000000000000D+00
   307  3.0600000000000D+00  0.0000000000000D+00  0.0000000000000D+00
   308  3.0700000000000D+00  0.0000000000000D+00  0.0000000000000D+00
   309  3.0800000000000D+00  0.0000000000000D+00  0.0000000000000D+00
   310  3.0900000000000D+00  0.0000000000000D+00  0.0000000000000D+00
   311  3.1000000000000D+00  0.0000000000000D+00  0.0000000000000D+00
   312  3.1100000000000D+00  0.0000000000000D+00  0.0000000000000D+00
   313  3.1200000000000D+00  0.0000000000000D+00  0.0000000000000D+00
   314  3.1300000000000D+00  0.0000000000000D+00  0.0000000000000D+00
   315  3.1400000000000D+00  0.0000000000000D+00  0.0000000000000D+00
   316  3.1500000000000D+00  0.0000000000000D+00  0.0000000000000D+00
   317  3.1600000000000D+00  0.0000000000000D+00  0.0000000000000D+00
   318  3.1700000000000D+00  0.0000000000000D+00  0.0000000000000D+00
   319  3.1800000000000D+00  0.0000000000000D+00  0.0000000000000D+00
   320  3.1900000000000D+00  0.0000000000000D+00  0.0000000000000D+00
   321  3.2000000000000D+00  0.0000000000000D+00  0.0000000000000D+00
   322  3.2100000000000D+00  0.0000000000000D+00  0.0000000000000D+00
   323  3.2200000000000D+00  0.0000000000000D+00  0.0000000000000D+00
   324  3.2300000000000D+00  0.0000000000000D+00  0.0000000000000D+00
   325  3.2400000000000D+00  0.0000000000000D+00  0.0000000000000D+00
   326  3.2500000000000D+00  0.0000000000000D+00  0.0000000000000D+00
   327  3.2600000000000D+00  0.0000000000000D+00  0.0000000000000D+00
   328  3.2700000000000D+00  0.0000000000000D+00  0.0000000000000D+00
   329  3.2800000000000D+00  0.0000000000000D+00  0.0000000000000D+00
   330  3.2900000000000D+00  0.0000000000000D+00  0.0000000000000D+00
   331  3.3000000000000D+00  0.0000000000000D+00  0.0000000000000D+00
   332  3.3100000000000D+00  0.0000000000000D+00  0.0000000000000D+00
   333  3.3200000000000D+00  0.0000000000000D+00  0.0000000000000D+00
   334  3.3300000000000D+00  0.0000000000000D+00  0.0000000000000D+00
   335  3.3400000000000D+00  0.0000000000000D+00  0.0000000000000D+00
   336  3.3500000000000D+00  0.0000000000000D+00  0.0000000000000D+00
   337  3.3600000000000D+00  0.0000000000000D+00  0.0000000000000D+00
   338  3.3700000000000D+00  0.0000000000000D+00  0.0000000000000D+00
   339  3.3800000000000D+00  0.0000000000000D+00  0.0000000000000D+00
   340  3.3900000000000D+00  0.0000000000000D+00  0.0000000000000D+00
   341  3.4000000000000D+00  0.0000000000000D+00  0.0000000000000D+00
   342  3.4100000000000D+00  0.0000000000000D+00  0.0000000000000D+00
   343  3.4200000000000D+00  0.0000000000000D+00  0.0000000000000D+00
   344  3.4300000000000D+00  0.0000000000000D+00  0.0000000000000D+00
   345  3.4400000000000D+00  0.0000000000000D+00  0.0000000000000D+00
   346  3.4500000000000D+00  0.0000000000000D+00  0.0000000000000D+00
   347  3.4600000000000D+00  0.0000000000000D+00  0.0000000000000D+00
   348  3.4700000000000D+00  0.0000000000000D+00  0.0000000000000D+00
   349  3.4800000000000D+00  0.0000000000000D+00  0.0000000000000D+00
   350  3.4900000000000D+00  0.0000000000000D+00  0.0000000000000D+00
   351  3.5000000000000D+00  0.0000000000000D+00  0.0000000000000D+00
   352  3.5100000000000D+00  0.0000000000000D+00  0.0000000000000D+00
   353  3.5200000000000D+00  0.0000000000000D+00  0.0000000000000D+00
   354  3.5300000000000D+00  0.0000000000000D+00  0.0000000000000D+00
   355  3.5400000000000D+00  0.0000000000000D+00  0.0000000000000D+00
   356  3.5500000000000D+00  0.0000000000000D+00  0.0000000000000D+00
   357  3.5600000000000D+00  0.0000000000000D+00  0.0000000000000D+00
   358  3.5700000000000D+00  0.0000000000000D+00  0.0000000000000D+00
   359  3.5800000000000D+00  0.0000000000000D+00  0.0000000000000D+00
   360  3.5900000000000D+00  0.0000000000000D+00  0.0000000000000D+00
   361  3.6000000000000D+00  0.0000000000000D+00  0.0000000000000D+00
   362  3.6100000000000D+00  0.0000000000000D+00  0.0000000000000D+00
   363  3.6200000000000D+00  0.0000000000000D+00  0.0000000000000D+00
   364  3.6300000000000D+00  0.0000000000000D+00  0.0000000000000D+00
   365  3.6400000000000D+00  0.0000000000000D+00  0.0000000000000D+00
   366  3.6500000000000D+00  0.0000000000000D+00  0.0000000000000D+00
   367  3.6600000000000D+00  0.0000000000000D+00  0.0000000000000D+00
   368  3.6700000000000D+00  0.0000000000000D+00  0.0000000000000D+00
   369  3.6800000000000D+00  0.0000000000000D+00  0.0000000000000D+00
   370  3.6900000000000D+00  0.0000000000000D+00  0.0000000000000D+00
   371  3.7000000000000D+00  0.0000000000000D+00  0.0000000000000D+00
   372  3.7100000000000D+00  0.0000000000000D+00  0.0000000000000D+00
   373  3.7200000000000D+00  0.0000000000000D+00  0.0000000000000D+00
   374  3.7300000000000D+00  0.0000000000000D+00  0.0000000000000D+00
   375  3.7400000000000D+00  0.0000000000000D+00  0.0000000000000D+00
   376  3.7500000000000D+00  0.0000000000000D+00  0.0000000000000D+00
   377  3.7600000000000D+00  0.0000000000000D+00  0.0000000000000D+00
   378  3.7700000000000D+00  0.0000000000000D+00  0.0000000000000D+00
   379  3.7800000000000D+00  0.0000000000000D+00  0.0000000000000D+00
   380  3.7900000000000D+00  0.0000000000000D+00  0.0000000000000D+00
   381  3.8000000000000D+00  0.0000000000000D+00  0.0000000000000D+00
   382  3.8100000000000D+00  0.0000000000000D+00  0.0000000000000D+00
   383  3.8200000000000D+00  0.0000000000000D+00  0.0000000000000D+00
   384  3.8300000000000D+00  0.0000000000000D+00  0.0000000000000D+00
   385  3.8400000000000D+00  0.0000000000000D+00  0.0000000000000D+00
   386  3.8500000000000D+00  0.0000000000000D+00  0.0000000000000D+00
   387  3.8600000000000D+00  0.0000000000000D+00  0.0000000000000D+00
   388  3.8700000000000D+00  0.0000000000000D+00  0.0000000000000D+00
   389  3.8800000000000D+00  0.0000000000000D+00  0.0000000000000D+00
   390  3.8900000000000D+00  0.0000000000000D+00  0.0000000000000D+00
   391  3.9000000000000D+00  0.0000000000000D+00  0.0000000000000D+00
   392  3.9100000000000D+00  0.0000000000000D+00  0.0000000000000D+00
   393  3.9200000000000D+00  0.0000000000000D+00  0.0000000000000D+00
   394  3.9300000000000D+00  0.0000000000000D+00  0.0000000000000D+00
   395  3.9400000000000D+00  0.0000000000000D+00  0.0000000000000D+00
   396  3.9500000000000D+00  0.0000000000000D+00  0.0000000000000D+00
   397  3.9600000000000D+00  0.0000000000000D+00  0.0000000000000D+00
   398  3.9700000000000D+00  0.0000000000000D+00  0.0000000000000D+00
   399  3.9800000000000D+00  0.0000000000000D+00  0.0000000000000D+00
   400  3.9900000000000D+00  0.0000000000000D+00  0.0000000000000D+00
   401  4.0000000000000D+00  0.0000000000000D+00  0.0000000000000D+00
   402  4.0100000000000D+00  0.0000000000000D+00  0.0000000000000D+00
   403  4.0200000000000D+00  0.0000000000000D+00  0.0000000000000D+00
   404  4.0300000000000D+00  0.0000000000000D+00  0.0000000000000D+00
   405  4.0400000000000D+00  0.0000000000000D+00  0.0000000000000D+00
   406  4.0500000000000D+00  0.0000000000000D+00  0.0000000000000D+00
   407  4.0600000000000D+00  0.0000000000000D+00  0.0000000000000D+00
   408  4.0700000000000D+00  0.0000000000000D+00  0.0000000000000D+00
   409  4.0800000000000D+00  0.0000000000000D+00  0.0000000000000D+00
   410  4.0900000000000D+00  0.0000000000000D+00  0.0000000000000D+00
   411  4.1000000000000D+00  0.0000000000000D+00  0.0000000000000D+00
   412  4.1100000000000D+00  0.0000000000000D+00  0.0000000000000D+00
   413  4.1200000000000D+00  0.0000000000000D+00  0.0000000000000D+00
   414  4.1300000000000D+00  0.0000000000000D+00  0.0000000000000D+00
   415  4.1400000000000D+00  0.0000000000000D+00  0.0000000000000D+00
   416  4.1500000000000D+00  0.0000000000000D+00  0.0000000000000D+00
   417  4.1600000000000D+00  0.0000000000000D+00  0.0000000000000D+00
   418  4.1700000000000D+00  0.0000000000000D+00  0.0000000000000D+00
   419  4.1800000000000D+00  0.0000000000000D+00  0.0000000000000D+00
   420  4.1900000000000D+00  0.0000000000000D+00  0.0000000000000D+00
   421  4.2000000000000D+00  0.0000000000000D+00  0.0000000000000D+00
   422  4.2100000000000D+00  0.0000000000000D+00  0.0000000000000D+00
   423  4.2200000000000D+00  0.0000000000000D+00  0.0000000000000D+00