Ar    ONCVPSP-3.3.1  r_core=   2.67516   1.78325
     18.0000      8.0000      210904    zatom,zion,pspd
     8      11   1     4   600     0    pspcod,pspxc,lmax,lloc,mmax,r2well
  5.99000000  0.00000000  0.00000000    rchrg fchrg qchrg
     2     2     0     0    nproj
     3     1           extension_switch
     4     0     0    nprojso
   0                        -2.9458636522781D+00  2.7717522110349D+00
     1  0.0000000000000D+00 -2.4398760789524D-11 -6.8433037014870D-12
     2  1.0000000000000D-02 -4.1356783926750D-02  2.5775265859347D-02
     3  2.0000000000000D-02 -8.2660476931689D-02  5.1535212746666D-02
     4  3.0000000000000D-02 -1.2385795185328D-01  7.7264559692054D-02
     5  4.0000000000000D-02 -1.6489600990310D-01  1.0294810147340D-01
     6  5.0000000000000D-02 -2.0572134697777D-01  1.2857074585089D-01
     7  6.0000000000000D-02 -2.4628052250379D-01  1.5411755003906D-01
     8  7.0000000000000D-02 -2.8651993163112D-01  1.7957375617038D-01
     9  8.0000000000000D-02 -3.2638578156653D-01  2.0492482551108D-01
    10  9.0000000000000D-02 -3.6582407280774D-01  2.3015647119847D-01
    11  1.0000000000000D-01 -4.0478058600337D-01  2.5525468927904D-01
    12  1.1000000000000D-01 -4.4320087512270D-01  2.8020578783817D-01
    13  1.2000000000000D-01 -4.8103026757249D-01  3.0499641402532D-01
    14  1.3000000000000D-01 -5.1821387184716D-01  3.2961357879278D-01
    15  1.4000000000000D-01 -5.5469659324274D-01  3.5404467918196D-01
    16  1.5000000000000D-01 -5.9042315810483D-01  3.7827751800752D-01
    17  1.6000000000000D-01 -6.2533814701756D-01  4.0230032080796D-01
    18  1.7000000000000D-01 -6.5938603727265D-01  4.2610174994967D-01
    19  1.8000000000000D-01 -6.9251125488806D-01  4.4967091579128D-01
    20  1.9000000000000D-01 -7.2465823637291D-01  4.7299738483518D-01
    21  2.0000000000000D-01 -7.5577150036018D-01  4.9607118481424D-01
    22  2.1000000000000D-01 -7.8579572915293D-01  5.1888280668274D-01
    23  2.2000000000000D-01 -8.1467586015172D-01  5.4142320350225D-01
    24  2.3000000000000D-01 -8.4235718705296D-01  5.6368378623481D-01
    25  2.4000000000000D-01 -8.6878547062972D-01  5.8565641647766D-01
    26  2.5000000000000D-01 -8.9390705882836D-01  6.0733339619522D-01
    27  2.6000000000000D-01 -9.1766901583746D-01  6.2870745452531D-01
    28  2.7000000000000D-01 -9.4001925970966D-01  6.4977173175784D-01
    29  2.8000000000000D-01 -9.6090670804319D-01  6.7051976060415D-01
    30  2.9000000000000D-01 -9.8028143115837D-01  6.9094544489523D-01
    31  3.0000000000000D-01 -9.9809481213532D-01  7.1104303586582D-01
    32  3.1000000000000D-01 -1.0142997130138D+00  7.3080710619942D-01
    33  3.2000000000000D-01 -1.0288506463942D+00  7.5023252202602D-01
    34  3.3000000000000D-01 -1.0417039516202D+00  7.6931441308032D-01
    35  3.4000000000000D-01 -1.0528179746722D+00  7.8804814124263D-01
    36  3.5000000000000D-01 -1.0621532508481D+00  8.0642926769767D-01
    37  3.6000000000000D-01 -1.0696726892701D+00  8.2445351895830D-01
    38  3.7000000000000D-01 -1.0753417582128D+00  8.4211675201130D-01
    39  3.8000000000000D-01 -1.0791286702197D+00  8.5941491885077D-01
    40  3.9000000000000D-01 -1.0810045659454D+00  8.7634403067178D-01
    41  4.0000000000000D-01 -1.0809436956453D+00  8.9290012200173D-01
    42  4.1000000000000D-01 -1.0789235972144D+00  9.0907921505051D-01
    43  4.2000000000000D-01 -1.0749252696765D+00  9.2487728456205D-01
    44  4.3000000000000D-01 -1.0689333410184D+00  9.4029022344961D-01
    45  4.4000000000000D-01 -1.0609362292728D+00  9.5531380949496D-01
    46  4.5000000000000D-01 -1.0509262957649D+00  9.6994367338812D-01
    47  4.6000000000000D-01 -1.0388999894579D+00  9.8417526837811D-01
    48  4.7000000000000D-01 -1.0248579813546D+00  9.9800384179829D-01
    49  4.8000000000000D-01 -1.0088052879493D+00  1.0114244087202D+00
    50  4.9000000000000D-01 -9.9075138275853D-01  1.0244317279791D+00
    51  5.0000000000000D-01 -9.7071029500475D-01  1.0370202808020D+00
    52  5.1000000000000D-01 -9.4870069457717D-01  1.0491842522553D+00
    53  5.2000000000000D-01 -9.2474596245032D-01  1.0609175157112D+00
    54  5.3000000000000D-01 -8.9887424580092D-01  1.0722136205201D+00
    55  5.4000000000000D-01 -8.7111849713089D-01  1.0830657830516D+00
    56  5.5000000000000D-01 -8.4151649677439D-01  1.0934668812520D+00
    57  5.6000000000000D-01 -8.1011085824269D-01  1.1034094528447D+00
    58  5.7000000000000D-01 -7.7694901593907D-01  1.1128856972754D+00
    59  5.8000000000000D-01 -7.4208319485919D-01  1.1218874814863D+00
    60  5.9000000000000D-01 -7.0557036197727D-01  1.1304063495765D+00
    61  6.0000000000000D-01 -6.6747215910748D-01  1.1384335363843D+00
    62  6.1000000000000D-01 -6.2785481711939D-01  1.1459599850013D+00
    63  6.2000000000000D-01 -5.8678905147883D-01  1.1529763682067D+00
    64  6.3000000000000D-01 -5.4434993917843D-01  1.1594731137814D+00
    65  6.4000000000000D-01 -5.0061677721524D-01  1.1654404336402D+00
    66  6.5000000000000D-01 -4.5567292286740D-01  1.1708683566960D+00
    67  6.6000000000000D-01 -4.0960561611423D-01  1.1757467653419D+00
    68  6.7000000000000D-01 -3.6250578463683D-01  1.1800654354197D+00
    69  6.8000000000000D-01 -3.1446783192705D-01  1.1838140795125D+00
    70  6.9000000000000D-01 -2.6558940912176D-01  1.1869823933847D+00
    71  7.0000000000000D-01 -2.1597117126513D-01  1.1895601053638D+00
    72  7.1000000000000D-01 -1.6571651878590D-01  1.1915370284429D+00
    73  7.2000000000000D-01 -1.1493132505620D-01  1.1929031148601D+00
    74  7.3000000000000D-01 -6.3723650974740D-02  1.1936485128952D+00
    75  7.4000000000000D-01 -1.2203447589464D-02  1.1937636256046D+00
    76  7.5000000000000D-01  3.9517752158419D-02  1.1932391712010D+00
    77  7.6000000000000D-01  9.1327151424480D-02  1.1920662447714D+00
    78  7.7000000000000D-01  1.4311101598392D-01  1.1902363810120D+00
    79  7.8000000000000D-01  1.9475500803488D-01  1.1877416176501D+00
    80  7.9000000000000D-01  2.4614452598461D-01  1.1845745592131D+00
    81  8.0000000000000D-01  2.9716504888202D-01  1.1807284407975D+00
    82  8.1000000000000D-01  3.4770248412770D-01  1.1761971914861D+00
    83  8.2000000000000D-01  3.9764351706670D-01  1.1709754970574D+00
    84  8.3000000000000D-01  4.4687596105023D-01  1.1650588616303D+00
    85  8.4000000000000D-01  4.9528910654053D-01  1.1584436678875D+00
    86  8.5000000000000D-01  5.4277406782784D-01  1.1511272355236D+00
    87  8.6000000000000D-01  5.8922412593014D-01  1.1431078775676D+00
    88  8.7000000000000D-01  6.3453506625552D-01  1.1343849542372D+00
    89  8.8000000000000D-01  6.7860550962238D-01  1.1249589239880D+00
    90  8.9000000000000D-01  7.2133723525559D-01  1.1148313914338D+00
    91  9.0000000000000D-01  7.6263549440583D-01  1.1040051518235D+00
    92  9.1000000000000D-01  8.0240931327562D-01  1.0924842317742D+00
    93  9.2000000000000D-01  8.4057178397754D-01  1.0802739259772D+00
    94  9.3000000000000D-01  8.7704034229868D-01  1.0673808296065D+00
    95  9.4000000000000D-01  9.1173703110003D-01  1.0538128661814D+00
    96  9.5000000000000D-01  9.4458874823895D-01  1.0395793106530D+00
    97  9.6000000000000D-01  9.7552747796872D-01  1.0246908075042D+00
    98  9.7000000000000D-01  1.0044905048389D+00  1.0091593836765D+00
    99  9.8000000000000D-01  1.0314206091950D+00  9.9299845615921D-01
   100  9.9000000000000D-01  1.0562662434564D+00  9.7622283410129D-01
   101  1.0000000000000D+00  1.0789816884295D+00  9.5884871532942D-01
   102  1.0100000000000D+00  1.0995271890060D+00  9.4089367718315D-01
   103  1.0200000000000D+00  1.1178690686788D+00  9.2237666160277D-01
   104  1.0300000000000D+00  1.1339798224027D+00  9.0331795443207D-01
   105  1.0400000000000D+00  1.1478381874177D+00  8.8373915892487D-01
   106  1.0500000000000D+00  1.1594291917524D+00  8.6366316347120D-01
   107  1.0600000000000D+00  1.1687441802101D+00  8.4311410358361D-01
   108  1.0700000000000D+00  1.1757808177480D+00  8.2211731821330D-01
   109  1.0800000000000D+00  1.1805430702475D+00  8.0069930048940D-01
   110  1.0900000000000D+00  1.1830411627717D+00  7.7888764300128D-01
   111  1.1000000000000D+00  1.1832915155038D+00  7.5671097776882D-01
   112  1.1100000000000D+00  1.1813166576390D+00  7.3419891106714D-01
   113  1.1200000000000D+00  1.1771451196139D+00  7.1138195329950D-01
   114  1.1300000000000D+00  1.1708113041280D+00  6.8829144413070D-01
   115  1.1400000000000D+00  1.1623553365115D+00  6.6495947311733D-01
   116  1.1500000000000D+00  1.1518228950545D+00  6.4141879608574D-01
   117  1.1600000000000D+00  1.1392650220174D+00  6.1770274753380D-01
   118  1.1700000000000D+00  1.1247379160981D+00  5.9384514934440D-01
   119  1.1800000000000D+00  1.1083027072122D+00  5.6988021611663D-01
   120  1.1900000000000D+00  1.0900252144897D+00  5.4584245743091D-01
   121  1.2000000000000D+00  1.0699756884775D+00  5.2176657738154D-01
   122  1.2100000000000D+00  1.0482285385777D+00  4.9768737171692D-01
   123  1.2200000000000D+00  1.0248620467914D+00  4.7363962293556D-01
   124  1.2300000000000D+00  9.9995806890112D-01  4.4965799369588D-01
   125  1.2400000000000D+00  9.7360172425322D-01  4.2577691890045D-01
   126  1.2500000000000D+00  9.4588107532779D-01  4.0203049681802D-01
   127  1.2600000000000D+00  9.1688679831675D-01  3.7845237960965D-01
   128  1.2700000000000D+00  8.8671184595142D-01  3.5507566362294D-01
   129  1.2800000000000D+00  8.5545110382352D-01  3.3193277981473D-01
   130  1.2900000000000D+00  8.2320104146258D-01  3.0905538466337D-01
   131  1.3000000000000D+00  7.9005935942549D-01  2.8647425191731D-01
   132  1.3100000000000D+00  7.5612463364616D-01  2.6421916552419D-01
   133  1.3200000000000D+00  7.2149595829888D-01  2.4231881407872D-01
   134  1.3300000000000D+00  6.8627258837991D-01  2.2080068710176D-01
   135  1.3400000000000D+00  6.5055358321991D-01  1.9969097346767D-01
   136  1.3500000000000D+00  6.1443745210729D-01  1.7901446227646D-01
   137  1.3600000000000D+00  5.7802180304931D-01  1.5879444595355D-01
   138  1.3700000000000D+00  5.4140299627995D-01  1.3905262898270D-01
   139  1.3800000000000D+00  5.0467580129599D-01  1.1980902993762D-01
   140  1.3900000000000D+00  4.6793306798770D-01  1.0108192402759D-01
   141  1.4000000000000D+00  4.3126538719971D-01  8.2887703721320D-02
   142  1.4100000000000D+00  3.9476077690878D-01  6.5240807866046D-02
   143  1.4200000000000D+00  3.5850441458837D-01  4.8153995235791D-02
   144  1.4300000000000D+00  3.2257842212699D-01  3.1638571168484D-02
   145  1.4400000000000D+00  2.8706171647951D-01  1.5704693020831D-02
   146  1.4500000000000D+00  2.5202984154455D-01  3.6135075478532D-04
   147  1.4600000000000D+00  2.1755482112589D-01 -1.4383710710021D-02
   148  1.4700000000000D+00  1.8370502922583D-01 -2.8523969799820D-02
   149  1.4800000000000D+00  1.5054507642182D-01 -4.2054146784901D-02
   150  1.4900000000000D+00  1.1813571341860D-01 -5.4970203719059D-02
   151  1.5000000000000D+00  8.6533750813826D-02 -6.7269343689792D-02
   152  1.5100000000000D+00  5.5791995053109D-02 -7.8950004933476D-02
   153  1.5200000000000D+00  2.5959200443864D-02 -9.0011850606169D-02
   154  1.5300000000000D+00 -2.9199633561108D-03 -1.0045575441738D-01
   155  1.5400000000000D+00 -3.0804928502941D-02 -1.1028378223666D-01
   156  1.5500000000000D+00 -5.7659231437496D-02 -1.1949916989598D-01
   157  1.5600000000000D+00 -8.3450500962889D-02 -1.2810629733499D-01
   158  1.5700000000000D+00 -1.0815043254539D-01 -1.3611065930329D-01
   159  1.5800000000000D+00 -1.3173474933343D-01 -1.4351883280697D-01
   160  1.5900000000000D+00 -1.5418315047063D-01 -1.5033844150708D-01
   161  1.6000000000000D+00 -1.7547924735031D-01 -1.5657811728696D-01
   162  1.6100000000000D+00 -1.9561048836858D-01 -1.6224745919297D-01
   163  1.6200000000000D+00 -2.1456807292384D-01 -1.6735698998170D-01
   164  1.6300000000000D+00 -2.3234685522998D-01 -1.7191811048458D-01
   165  1.6400000000000D+00 -2.4894523873712D-01 -1.7594305202368D-01
   166  1.6500000000000D+00 -2.6436506176380D-01 -1.7944482710183D-01
   167  1.6600000000000D+00 -2.7861147513056D-01 -1.8243717858869D-01
   168  1.6700000000000D+00 -2.9169281245817D-01 -1.8493452764418D-01
   169  1.6800000000000D+00 -3.0362045387209D-01 -1.8695192057596D-01
   170  1.6900000000000D+00 -3.1440868385237D-01 -1.8850497489536D-01
   171  1.7000000000000D+00 -3.2407454389359D-01 -1.8960982474222D-01
   172  1.7100000000000D+00 -3.3263768078491D-01 -1.9028306595080D-01
   173  1.7200000000000D+00 -3.4012019103088D-01 -1.9054170084582D-01
   174  1.7300000000000D+00 -3.4654646242944D-01 -1.9040308321079D-01
   175  1.7400000000000D+00 -3.5194301325562D-01 -1.8988486353412D-01
   176  1.7500000000000D+00 -3.5633832965160D-01 -1.8900493441377D-01
   177  1.7600000000000D+00 -3.5976270166288D-01 -1.8778137631794D-01
   178  1.7700000000000D+00 -3.6224805962590D-01 -1.8623240485807D-01
   179  1.7800000000000D+00 -3.6382781074049D-01 -1.8437631912870D-01
   180  1.7900000000000D+00 -3.6453667602182D-01 -1.8223145048364D-01
   181  1.8000000000000D+00 -3.6441052830772D-01 -1.7981611234018D-01
   182  1.8100000000000D+00 -3.6348623281622D-01 -1.7714855199860D-01
   183  1.8200000000000D+00 -3.6180149017091D-01 -1.7424690413444D-01
   184  1.8300000000000D+00 -3.5939468221808D-01 -1.7112914573031D-01
   185  1.8400000000000D+00 -3.5630472114172D-01 -1.6781305267428D-01
   186  1.8500000000000D+00 -3.5257090240741D-01 -1.6431615831583D-01
   187  1.8600000000000D+00 -3.4823276216154D-01 -1.6065571411347D-01
   188  1.8700000000000D+00 -3.4332993890682D-01 -1.5684865221280D-01
   189  1.8800000000000D+00 -3.3790204053192D-01 -1.5291155029899D-01
   190  1.8900000000000D+00 -3.3198851609094D-01 -1.4886059848787D-01
   191  1.9000000000000D+00 -3.2562853364298D-01 -1.4471156863851D-01
   192  1.9100000000000D+00 -3.1886086338093D-01 -1.4047978580166D-01
   193  1.9200000000000D+00 -3.1172376710112D-01 -1.3618010210322D-01
   194  1.9300000000000D+00 -3.0425489364581D-01 -1.3182687291035D-01
   195  1.9400000000000D+00 -2.9649118067175D-01 -1.2743393535176D-01
   196  1.9500000000000D+00 -2.8846876304182D-01 -1.2301458924739D-01
   197  1.9600000000000D+00 -2.8022288733802D-01 -1.1858158024792D-01
   198  1.9700000000000D+00 -2.7178783353788D-01 -1.1414708550127D-01
   199  1.9800000000000D+00 -2.6319684284510D-01 -1.0972270153109D-01
   200  1.9900000000000D+00 -2.5448205242220D-01 -1.0531943435287D-01
   201  2.0000000000000D+00 -2.4567443635373D-01 -1.0094769166822D-01
   202  2.0100000000000D+00 -2.3680375340598D-01 -9.6617277393728D-02
   203  2.0200000000000D+00 -2.2789850167944D-01 -9.2337388537260D-02
   204  2.0300000000000D+00 -2.1898587941186D-01 -8.8116614150525D-02
   205  2.0400000000000D+00 -2.1009175186060D-01 -8.3962935818986D-02
   206  2.0500000000000D+00 -2.0124062401552D-01 -7.9883730064551D-02
   207  2.0600000000000D+00 -1.9245561993223D-01 -7.5885772933339D-02
   208  2.0700000000000D+00 -1.8375846790059D-01 -7.1975246377035D-02
   209  2.0800000000000D+00 -1.7516949106834D-01 -6.8157746247592D-02
   210  2.0900000000000D+00 -1.6670760356730D-01 -6.4438291738291D-02
   211  2.1000000000000D+00 -1.5839031165117D-01 -6.0821336338504D-02
   212  2.1100000000000D+00 -1.5023372013483D-01 -5.7310780272796D-02
   213  2.1200000000000D+00 -1.4225254350519D-01 -5.3909984215954D-02
   214  2.1300000000000D+00 -1.3446012148593D-01 -5.0621784198170D-02
   215  2.1400000000000D+00 -1.2686843901903D-01 -4.7448507617163D-02
   216  2.1500000000000D+00 -1.1948815012711D-01 -4.4391990263853D-02
   217  2.1600000000000D+00 -1.1232860560893D-01 -4.1453594238584D-02
   218  2.1700000000000D+00 -1.0539788420651D-01 -3.8634226679702D-02
   219  2.1800000000000D+00 -9.8702826983456D-02 -3.5934359224014D-02
   220  2.1900000000000D+00 -9.2249074638394D-02 -3.3354048021725D-02
   221  2.2000000000000D+00 -8.6041107554867D-02 -3.0892954338387D-02
   222  2.2100000000000D+00 -8.0082288215972D-02 -2.8550365536022D-02
   223  2.2200000000000D+00 -7.4374905731835D-02 -2.6325216362645D-02
   224  2.2300000000000D+00 -6.8920222444290D-02 -2.4216110599925D-02
   225  2.2400000000000D+00 -6.3718521893727D-02 -2.2221342715001D-02
   226  2.2500000000000D+00 -5.8769158369192D-02 -2.0338919699183D-02
   227  2.2600000000000D+00 -5.4070607622199D-02 -1.8566582916202D-02
   228  2.2700000000000D+00 -4.9620518238783D-02 -1.6901829756125D-02
   229  2.2800000000000D+00 -4.5415764042436D-02 -1.5341935309639D-02
   230  2.2900000000000D+00 -4.1452496711308D-02 -1.3883973720204D-02
   231  2.3000000000000D+00 -3.7726198576207D-02 -1.2524839233817D-02
   232  2.3100000000000D+00 -3.4231735901419D-02 -1.1261267102375D-02
   233  2.3200000000000D+00 -3.0963411458327D-02 -1.0089853863755D-02
   234  2.3300000000000D+00 -2.7915017066151D-02 -9.0070773081855D-03
   235  2.3400000000000D+00 -2.5079885862247D-02 -8.0093160523880D-03
   236  2.3500000000000D+00 -2.2450943352140D-02 -7.0928683662634D-03
   237  2.3600000000000D+00 -2.0020758149873D-02 -6.2539706345732D-03
   238  2.3700000000000D+00 -1.7781591711189D-02 -5.4888152007542D-03
   239  2.3800000000000D+00 -1.5725446635231D-02 -4.7935674535428D-03
   240  2.3900000000000D+00 -1.3844114310470D-02 -4.1643824659416D-03
   241  2.4000000000000D+00 -1.2129220978746D-02 -3.5974208630059D-03
   242  2.4100000000000D+00 -1.0572272264543D-02 -3.0888639557402D-03
   243  2.4200000000000D+00 -9.1646967464543D-03 -2.6349283606274D-03
   244  2.4300000000000D+00 -7.8978875237872D-03 -2.2318797577404D-03
   245  2.4400000000000D+00 -6.7632422117643D-03 -1.8760459549874D-03
   246  2.4500000000000D+00 -5.7522017267031D-03 -1.5638293888050D-03
   247  2.4600000000000D+00 -4.8562868077163D-03 -1.2917187370783D-03
   248  2.4700000000000D+00 -4.0671329582188D-03 -1.0562998805846D-03
   249  2.4800000000000D+00 -3.3765239788017D-03 -8.5426626953888D-04
   250  2.4900000000000D+00 -2.7764231359243D-03 -6.8242843370870D-04
   251  2.5000000000000D+00 -2.2590027436573D-03 -5.3772287701981D-04
   252  2.5100000000000D+00 -1.8166721918506D-03 -4.1722036256450D-04
   253  2.5200000000000D+00 -1.4421036445608D-03 -3.1813341799532D-04
   254  2.5300000000000D+00 -1.1282561346652D-03 -2.3782325179814D-04
   255  2.5400000000000D+00 -8.6839800943467D-04 -1.7380605910744D-04
   256  2.5500000000000D+00 -6.5612718131510D-04 -1.2375865378829D-04
   257  2.5600000000000D+00 -4.8538974789588D-04 -8.5523529865684D-05
   258  2.5700000000000D+00 -3.5049691008184D-04 -5.7113321965911D-05
   259  2.5800000000000D+00 -2.4613988733559D-04 -3.6714707211458D-05
   260  2.5900000000000D+00 -1.6741164843197D-04 -2.2700994293637D-05
   261  2.6000000000000D+00 -1.0978724458380D-04 -1.3600852122920D-05
   262  2.6100000000000D+00 -6.9165389228531D-05 -8.1353484474995D-06
   263  2.6200000000000D+00 -4.1825950536995D-05 -5.1873928548379D-06
   264  2.6300000000000D+00 -2.4612903984569D-05 -3.9154308414314D-06
   265  2.6400000000000D+00 -1.4775720818953D-05 -3.6479364318216D-06
   266  2.6500000000000D+00 -1.0114316733385D-05 -3.9271474689427D-06
   267  2.6600000000000D+00 -8.3797983244468D-06 -4.2523924671852D-06
   268  2.6700000000000D+00 -7.6528484060550D-06 -4.2189848489178D-06
   269  2.6800000000000D+00 -6.3596879820864D-06 -3.5142538693353D-06
   270  2.6900000000000D+00 -4.0885353216174D-06 -2.2284582335736D-06
   271  2.7000000000000D+00 -1.5844014283363D-06 -8.4485220842300D-07
   272  2.7100000000000D+00  2.8852806816293D-07  1.6409750489343D-07
   273  2.7200000000000D+00  7.7529256095040D-07  4.3957698070845D-07
   274  2.7300000000000D+00  5.4906203868011D-07  3.1006372316649D-07
   275  2.7400000000000D+00 -4.8617985282314D-09 -2.9498116107176D-09
   276  2.7500000000000D+00 -1.4140100650034D-07 -8.6227775837207D-08
   277  2.7600000000000D+00 -1.3998633124399D-07 -8.5728412620732D-08
   278  2.7700000000000D+00 -3.4851500886760D-08 -2.1420564720849D-08
   279  2.7800000000000D+00  1.4378873078683D-08  7.9356762380985D-09
   280  2.7900000000000D+00  2.0248922023488D-08  1.1175346528868D-08
   281  2.8000000000000D+00  1.0239655154844D-08  5.6512487212289D-09
   282  2.8100000000000D+00  0.0000000000000D+00  0.0000000000000D+00
   283  2.8200000000000D+00  0.0000000000000D+00  0.0000000000000D+00
   284  2.8300000000000D+00  0.0000000000000D+00  0.0000000000000D+00
   285  2.8400000000000D+00  0.0000000000000D+00  0.0000000000000D+00
   286  2.8500000000000D+00  0.0000000000000D+00  0.0000000000000D+00
   287  2.8600000000000D+00  0.0000000000000D+00  0.0000000000000D+00
   288  2.8700000000000D+00  0.0000000000000D+00  0.0000000000000D+00
   289  2.8800000000000D+00  0.0000000000000D+00  0.0000000000000D+00
   290  2.8900000000000D+00  0.0000000000000D+00  0.0000000000000D+00
   291  2.9000000000000D+00  0.0000000000000D+00  0.0000000000000D+00
   292  2.9100000000000D+00  0.0000000000000D+00  0.0000000000000D+00
   293  2.9200000000000D+00  0.0000000000000D+00  0.0000000000000D+00
   294  2.9300000000000D+00  0.0000000000000D+00  0.0000000000000D+00
   295  2.9400000000000D+00  0.0000000000000D+00  0.0000000000000D+00
   296  2.9500000000000D+00  0.0000000000000D+00  0.0000000000000D+00
   297  2.9600000000000D+00  0.0000000000000D+00  0.0000000000000D+00
   298  2.9700000000000D+00  0.0000000000000D+00  0.0000000000000D+00
   299  2.9800000000000D+00  0.0000000000000D+00  0.0000000000000D+00
   300  2.9900000000000D+00  0.0000000000000D+00  0.0000000000000D+00
   301  3.0000000000000D+00  0.0000000000000D+00  0.0000000000000D+00
   302  3.0100000000000D+00  0.0000000000000D+00  0.0000000000000D+00
   303  3.0200000000000D+00  0.0000000000000D+00  0.0000000000000D+00
   304  3.0300000000000D+00  0.0000000000000D+00  0.0000000000000D+00
   305  3.0400000000000D+00  0.0000000000000D+00  0.0000000000000D+00
   306  3.0500000000000D+00  0.0000000000000D+00  0.0000000000000D+00
   307  3.0600000000000D+00  0.0000000000000D+00  0.0000000000000D+00
   308  3.0700000000000D+00  0.0000000000000D+00  0.0000000000000D+00
   309  3.0800000000000D+00  0.0000000000000D+00  0.0000000000000D+00
   310  3.0900000000000D+00  0.0000000000000D+00  0.0000000000000D+00
   311  3.1000000000000D+00  0.0000000000000D+00  0.0000000000000D+00
   312  3.1100000000000D+00  0.0000000000000D+00  0.0000000000000D+00
   313  3.1200000000000D+00  0.0000000000000D+00  0.0000000000000D+00
   314  3.1300000000000D+00  0.0000000000000D+00  0.0000000000000D+00
   315  3.1400000000000D+00  0.0000000000000D+00  0.0000000000000D+00
   316  3.1500000000000D+00  0.0000000000000D+00  0.0000000000000D+00
   317  3.1600000000000D+00  0.0000000000000D+00  0.0000000000000D+00
   318  3.1700000000000D+00  0.0000000000000D+00  0.0000000000000D+00
   319  3.1800000000000D+00  0.0000000000000D+00  0.0000000000000D+00
   320  3.1900000000000D+00  0.0000000000000D+00  0.0000000000000D+00
   321  3.2000000000000D+00  0.0000000000000D+00  0.0000000000000D+00
   322  3.2100000000000D+00  0.0000000000000D+00  0.0000000000000D+00
   323  3.2200000000000D+00  0.0000000000000D+00  0.0000000000000D+00
   324  3.2300000000000D+00  0.0000000000000D+00  0.0000000000000D+00
   325  3.2400000000000D+00  0.0000000000000D+00  0.0000000000000D+00
   326  3.2500000000000D+00  0.0000000000000D+00  0.0000000000000D+00
   327  3.2600000000000D+00  0.0000000000000D+00  0.0000000000000D+00
   328  3.2700000000000D+00  0.0000000000000D+00  0.0000000000000D+00
   329  3.2800000000000D+00  0.0000000000000D+00  0.0000000000000D+00
   330  3.2900000000000D+00  0.0000000000000D+00  0.0000000000000D+00
   331  3.3000000000000D+00  0.0000000000000D+00  0.0000000000000D+00
   332  3.3100000000000D+00  0.0000000000000D+00  0.0000000000000D+00
   333  3.3200000000000D+00  0.0000000000000D+00  0.0000000000000D+00
   334  3.3300000000000D+00  0.0000000000000D+00  0.0000000000000D+00
   335  3.3400000000000D+00  0.0000000000000D+00  0.0000000000000D+00
   336  3.3500000000000D+00  0.0000000000000D+00  0.0000000000000D+00
   337  3.3600000000000D+00  0.0000000000000D+00  0.0000000000000D+00
   338  3.3700000000000D+00  0.0000000000000D+00  0.0000000000000D+00
   339  3.3800000000000D+00  0.0000000000000D+00  0.0000000000000D+00
   340  3.3900000000000D+00  0.0000000000000D+00  0.0000000000000D+00
   341  3.4000000000000D+00  0.0000000000000D+00  0.0000000000000D+00
   342  3.4100000000000D+00  0.0000000000000D+00  0.0000000000000D+00
   343  3.4200000000000D+00  0.0000000000000D+00  0.0000000000000D+00
   344  3.4300000000000D+00  0.0000000000000D+00  0.0000000000000D+00
   345  3.4400000000000D+00  0.0000000000000D+00  0.0000000000000D+00
   346  3.4500000000000D+00  0.0000000000000D+00  0.0000000000000D+00
   347  3.4600000000000D+00  0.0000000000000D+00  0.0000000000000D+00
   348  3.4700000000000D+00  0.0000000000000D+00  0.0000000000000D+00
   349  3.4800000000000D+00  0.0000000000000D+00  0.0000000000000D+00
   350  3.4900000000000D+00  0.0000000000000D+00  0.0000000000000D+00
   351  3.5000000000000D+00  0.0000000000000D+00  0.0000000000000D+00
   352  3.5100000000000D+00  0.0000000000000D+00  0.0000000000000D+00
   353  3.5200000000000D+00  0.0000000000000D+00  0.0000000000000D+00
   354  3.5300000000000D+00  0.0000000000000D+00  0.0000000000000D+00
   355  3.5400000000000D+00  0.0000000000000D+00  0.0000000000000D+00
   356  3.5500000000000D+00  0.0000000000000D+00  0.0000000000000D+00
   357  3.5600000000000D+00  0.0000000000000D+00  0.0000000000000D+00
   358  3.5700000000000D+00  0.0000000000000D+00  0.0000000000000D+00
   359  3.5800000000000D+00  0.0000000000000D+00  0.0000000000000D+00
   360  3.5900000000000D+00  0.0000000000000D+00  0.0000000000000D+00
   361  3.6000000000000D+00  0.0000000000000D+00  0.0000000000000D+00
   362  3.6100000000000D+00  0.0000000000000D+00  0.0000000000000D+00
   363  3.6200000000000D+00  0.0000000000000D+00  0.0000000000000D+00
   364  3.6300000000000D+00  0.0000000000000D+00  0.0000000000000D+00
   365  3.6400000000000D+00  0.0000000000000D+00  0.0000000000000D+00
   366  3.6500000000000D+00  0.0000000000000D+00  0.0000000000000D+00
   367  3.6600000000000D+00  0.0000000000000D+00  0.0000000000000D+00
   368  3.6700000000000D+00  0.0000000000000D+00  0.0000000000000D+00
   369  3.6800000000000D+00  0.0000000000000D+00  0.0000000000000D+00
   370  3.6900000000000D+00  0.0000000000000D+00  0.0000000000000D+00
   371  3.7000000000000D+00  0.0000000000000D+00  0.0000000000000D+00
   372  3.7100000000000D+00  0.0000000000000D+00  0.0000000000000D+00
   373  3.7200000000000D+00  0.0000000000000D+00  0.0000000000000D+00
   374  3.7300000000000D+00  0.0000000000000D+00  0.0000000000000D+00
   375  3.7400000000000D+00  0.0000000000000D+00  0.0000000000000D+00
   376  3.7500000000000D+00  0.0000000000000D+00  0.0000000000000D+00
   377  3.7600000000000D+00  0.0000000000000D+00  0.0000000000000D+00
   378  3.7700000000000D+00  0.0000000000000D+00  0.0000000000000D+00
   379  3.7800000000000D+00  0.0000000000000D+00  0.0000000000000D+00
   380  3.7900000000000D+00  0.0000000000000D+00  0.0000000000000D+00
   381  3.8000000000000D+00  0.0000000000000D+00  0.0000000000000D+00
   382  3.8100000000000D+00  0.0000000000000D+00  0.0000000000000D+00
   383  3.8200000000000D+00  0.0000000000000D+00  0.0000000000000D+00
   384  3.8300000000000D+00  0.0000000000000D+00  0.0000000000000D+00
   385  3.8400000000000D+00  0.0000000000000D+00  0.0000000000000D+00
   386  3.8500000000000D+00  0.0000000000000D+00  0.0000000000000D+00
   387  3.8600000000000D+00  0.0000000000000D+00  0.0000000000000D+00
   388  3.8700000000000D+00  0.0000000000000D+00  0.0000000000000D+00
   389  3.8800000000000D+00  0.0000000000000D+00  0.0000000000000D+00
   390  3.8900000000000D+00  0.0000000000000D+00  0.0000000000000D+00
   391  3.9000000000000D+00  0.0000000000000D+00  0.0000000000000D+00
   392  3.9100000000000D+00  0.0000000000000D+00  0.0000000000000D+00
   393  3.9200000000000D+00  0.0000000000000D+00  0.0000000000000D+00
   394  3.9300000000000D+00  0.0000000000000D+00  0.0000000000000D+00
   395  3.9400000000000D+00  0.0000000000000D+00  0.0000000000000D+00
   396  3.9500000000000D+00  0.0000000000000D+00  0.0000000000000D+00
   397  3.9600000000000D+00  0.0000000000000D+00  0.0000000000000D+00
   398  3.9700000000000D+00  0.0000000000000D+00  0.0000000000000D+00
   399  3.9800000000000D+00  0.0000000000000D+00  0.0000000000000D+00
   400  3.9900000000000D+00  0.0000000000000D+00  0.0000000000000D+00
   401  4.0000000000000D+00  0.0000000000000D+00  0.0000000000000D+00
   402  4.0100000000000D+00  0.0000000000000D+00  0.0000000000000D+00
   403  4.0200000000000D+00  0.0000000000000D+00  0.0000000000000D+00
   404  4.0300000000000D+00  0.0000000000000D+00  0.0000000000000D+00
   405  4.0400000000000D+00  0.0000000000000D+00  0.0000000000000D+00
   406  4.0500000000000D+00  0.0000000000000D+00  0.0000000000000D+00
   407  4.0600000000000D+00  0.0000000000000D+00  0.0000000000000D+00
   408  4.0700000000000D+00  0.0000000000000D+00  0.0000000000000D+00
   409  4.0800000000000D+00  0.0000000000000D+00  0.0000000000000D+00
   410  4.0900000000000D+00  0.0000000000000D+00  0.0000000000000D+00
   411  4.1000000000000D+00  0.0000000000000D+00  0.0000000000000D+00
   412  4.1100000000000D+00  0.0000000000000D+00  0.0000000000000D+00
   413  4.1200000000000D+00  0.0000000000000D+00  0.0000000000000D+00
   414  4.1300000000000D+00  0.0000000000000D+00  0.0000000000000D+00
   415  4.1400000000000D+00  0.0000000000000D+00  0.0000000000000D+00
   416  4.1500000000000D+00  0.0000000000000D+00  0.0000000000000D+00
   417  4.1600000000000D+00  0.0000000000000D+00  0.0000000000000D+00
   418  4.1700000000000D+00  0.0000000000000D+00  0.0000000000000D+00
   419  4.1800000000000D+00  0.0000000000000D+00  0.0000000000000D+00
   420  4.1900000000000D+00  0.0000000000000D+00  0.0000000000000D+00
   421  4.2000000000000D+00  0.0000000000000D+00  0.0000000000000D+00
   422  4.2100000000000D+00  0.0000000000000D+00  0.0000000000000D+00