Au    ONCVPSP-3.3.1  r_core=   2.46102   2.46102   2.18429   3.16160
     79.0000     19.0000      210904    zatom,zion,pspd
     8      11   3     4   600     0    pspcod,pspxc,lmax,lloc,mmax,r2well
  5.99000000  0.00000000  0.00000000    rchrg fchrg qchrg
     2     2     2     2     0    nproj
     1     1           extension_switch
   0                         4.0358710621038D+00  5.0994396948634D-01
     1  0.0000000000000D+00 -3.7286840282036D-13 -1.5342588310929D-11
     2  1.0000000000000D-02  5.5925910302180D-02  8.1942438814593D-03
     3  2.0000000000000D-02  1.1176181210729D-01  1.6383890957391D-02
     4  3.0000000000000D-02  1.6741785194151D-01  2.4564449289138D-02
     5  4.0000000000000D-02  2.2280448614727D-01  3.2731635927664D-02
     6  5.0000000000000D-02  2.7783263521584D-01  4.0881479551948D-02
     7  6.0000000000000D-02  3.3241383742954D-01  4.9010420890513D-02
     8  7.0000000000000D-02  3.8646040158389D-01  5.7115410205128D-02
     9  8.0000000000000D-02  4.3988555856042D-01  6.5194001131088D-02
    10  9.0000000000000D-02  4.9260361152128D-01  7.3244440187516D-02
    11  1.0000000000000D-01  5.4453008449752D-01  8.1265751293759D-02
    12  1.1000000000000D-01  5.9558186914348D-01  8.9257814654252D-02
    13  1.2000000000000D-01  6.4567736943067D-01  9.7221439403767D-02
    14  1.3000000000000D-01  6.9473664405544D-01  1.0515842943794D-01
    15  1.4000000000000D-01  7.4268154633589D-01  1.1307164188997D-01
    16  1.5000000000000D-01  7.8943586137470D-01  1.2096503775360D-01
    17  1.6000000000000D-01  8.3492544026600D-01  1.2884372419413D-01
    18  1.7000000000000D-01  8.7907833112590D-01  1.3671398813399D-01
    19  1.8000000000000D-01  9.2182490672840D-01  1.4458332074615D-01
    20  1.9000000000000D-01  9.6309798852986D-01  1.5246043253802D-01
    21  2.0000000000000D-01  1.0028329668680D+00  1.6035525875959D-01
    22  2.1000000000000D-01  1.0409679171234D+00  1.6827895492252D-01
    23  2.2000000000000D-01  1.0774437116342D+00  1.7624388227167D-01
    24  2.3000000000000D-01  1.1122041271580D+00  1.8426358310595D-01
    25  2.4000000000000D-01  1.1451959476779D+00  1.9235274590281D-01
    26  2.5000000000000D-01  1.1763690623529D+00  2.0052716025780D-01
    27  2.6000000000000D-01  1.2056765584171D+00  2.0880366170917D-01
    28  2.7000000000000D-01  1.2330748088368D+00  2.1720006657565D-01
    29  2.8000000000000D-01  1.2585235545373D+00  2.2573509699400D-01
    30  2.9000000000000D-01  1.2819859810191D+00  2.3442829640087D-01
    31  3.0000000000000D-01  1.3034287891854D+00  2.4329993576093D-01
    32  3.1000000000000D-01  1.3228222602097D+00  2.5237091089976D-01
    33  3.2000000000000D-01  1.3401403142806D+00  2.6166263135525D-01
    34  3.3000000000000D-01  1.3553605630631D+00  2.7119690121524D-01
    35  3.4000000000000D-01  1.3684643557270D+00  2.8099579246106D-01
    36  3.5000000000000D-01  1.3794368183974D+00  2.9108151138708D-01
    37  3.6000000000000D-01  1.3882668868929D+00  3.0147625871386D-01
    38  3.7000000000000D-01  1.3949473326232D+00  3.1220208405805D-01
    39  3.8000000000000D-01  1.3994747815295D+00  3.2328073546457D-01
    40  3.9000000000000D-01  1.4018497259574D+00  3.3473350474624D-01
    41  4.0000000000000D-01  1.4020765293657D+00  3.4658106941199D-01
    42  4.1000000000000D-01  1.4001634237830D+00  3.5884333199782D-01
    43  4.2000000000000D-01  1.3961224999353D+00  3.7153925764343D-01
    44  4.3000000000000D-01  1.3899696899805D+00  3.8468671078282D-01
    45  4.4000000000000D-01  1.3817247427976D+00  3.9830229183807D-01
    46  4.5000000000000D-01  1.3714111917920D+00  4.1240117482255D-01
    47  4.6000000000000D-01  1.3590563151900D+00  4.2699694677212D-01
    48  4.7000000000000D-01  1.3446910888114D+00  4.4210144993101D-01
    49  4.8000000000000D-01  1.3283501313242D+00  4.5772462762258D-01
    50  4.9000000000000D-01  1.3100716419973D+00  4.7387437473347D-01
    51  5.0000000000000D-01  1.2898973309870D+00  4.9055639373440D-01
    52  5.1000000000000D-01  1.2678723422050D+00  5.0777405714917D-01
    53  5.2000000000000D-01  1.2440451688363D+00  5.2552827736861D-01
    54  5.3000000000000D-01  1.2184675615884D+00  5.4381738468545D-01
    55  5.4000000000000D-01  1.1911944297733D+00  5.6263701440091D-01
    56  5.5000000000000D-01  1.1622837353407D+00  5.8198000382425D-01
    57  5.6000000000000D-01  1.1317963799987D+00  6.0183629995162D-01
    58  5.7000000000000D-01  1.0997960855762D+00  6.2219287857184D-01
    59  5.8000000000000D-01  1.0663492678018D+00  6.4303367550312D-01
    60  5.9000000000000D-01  1.0315249036891D+00  6.6433953061711D-01
    61  6.0000000000000D-01  9.9539439274141D-01  6.8608814525466D-01
    62  6.1000000000000D-01  9.5803141220445D-01  7.0825405358240D-01
    63  6.2000000000000D-01  9.1951176661590D-01  7.3080860837928D-01
    64  6.3000000000000D-01  8.7991323192006D-01  7.5371998167992D-01
    65  6.4000000000000D-01  8.3931539443331D-01  7.7695318063520D-01
    66  6.5000000000000D-01  7.9779948496546D-01  8.0047007888195D-01
    67  6.6000000000000D-01  7.5544820842011D-01  8.2422946364187D-01
    68  6.7000000000000D-01  7.1234556921481D-01  8.4818709869603D-01
    69  6.8000000000000D-01  6.6857669287959D-01  8.7229580330573D-01
    70  6.9000000000000D-01  6.2422764420890D-01  8.9650554707289D-01
    71  7.0000000000000D-01  5.7938524235887D-01  9.2076356065485D-01
    72  7.1000000000000D-01  5.3413687329679D-01  9.4501446216879D-01
    73  7.2000000000000D-01  4.8857030002518D-01  9.6920039904116D-01
    74  7.3000000000000D-01  4.4277347101636D-01  9.9326120497743D-01
    75  7.4000000000000D-01  3.9683432730680D-01  1.0171345716477D+00
    76  7.5000000000000D-01  3.5084060871250D-01  1.0407562346053D+00
    77  7.6000000000000D-01  3.0487965963749D-01  1.0640601728761D+00
    78  7.7000000000000D-01  2.5903823495762D-01  1.0869788215825D+00
    79  7.8000000000000D-01  2.1340230646995D-01  1.1094432968886D+00
    80  7.9000000000000D-01  1.6805687040574D-01  1.1313836324834D+00
    81  8.0000000000000D-01  1.2308575651036D-01  1.1527290267480D+00
    82  8.1000000000000D-01  7.8571439198119D-02  1.1734080996881D+00
    83  8.2000000000000D-01  3.4594851292719D-02  1.1933491586473D+00
    84  8.3000000000000D-01 -8.7647991347014D-03  1.2124804717625D+00
    85  8.4000000000000D-01 -5.1430208318428D-02  1.2307305480625D+00
    86  8.5000000000000D-01 -9.3326152232464D-02  1.2480284230657D+00
    87  8.6000000000000D-01 -1.3437965740055D-01  1.2643039486828D+00
    88  8.7000000000000D-01 -1.7452016658190D-01  1.2794880861945D+00
    89  8.8000000000000D-01 -2.1367969883985D-01  1.2935132010355D+00
    90  8.9000000000000D-01 -2.5179300350985D-01  1.3063133580897D+00
    91  9.0000000000000D-01 -2.8879770759422D-01  1.3178246161754D+00
    92  9.1000000000000D-01 -3.2463445612374D-01  1.3279853203848D+00
    93  9.2000000000000D-01 -3.5924704504093D-01  1.3367363909276D+00
    94  9.3000000000000D-01 -3.9258254617603D-01  1.3440216071269D+00
    95  9.4000000000000D-01 -4.2459142390517D-01  1.3497878852143D+00
    96  9.5000000000000D-01 -4.5522764309976D-01  1.3539855485795D+00
    97  9.6000000000000D-01 -4.8444876799802D-01  1.3565685891469D+00
    98  9.7000000000000D-01 -5.1221605165273D-01  1.3574949185677D+00
    99  9.8000000000000D-01 -5.3849451563419D-01  1.3567266079471D+00
   100  9.9000000000000D-01 -5.6325301969370D-01  1.3542301148601D+00
   101  1.0000000000000D+00 -5.8646432112053D-01  1.3499764964452D+00
   102  1.0100000000000D+00 -6.0810512355505D-01  1.3439416074164D+00
   103  1.0200000000000D+00 -6.2815611505063D-01  1.3361062818828D+00
   104  1.0300000000000D+00 -6.4660199520884D-01  1.3264564979241D+00
   105  1.0400000000000D+00 -6.6343149124496D-01  1.3149835239328D+00
   106  1.0500000000000D+00 -6.7863736287558D-01  1.3016840458047D+00
   107  1.0600000000000D+00 -6.9221639595140D-01  1.2865602741265D+00
   108  1.0700000000000D+00 -7.0416938479775D-01  1.2696200305961D+00
   109  1.0800000000000D+00 -7.1450110325781D-01  1.2508768129857D+00
   110  1.0900000000000D+00 -7.2322026447101D-01  1.2303498380484D+00
   111  1.1000000000000D+00 -7.3033946945628D-01  1.2080640618591D+00
   112  1.1100000000000D+00 -7.3587514460211D-01  1.1840501771631D+00
   113  1.1200000000000D+00 -7.3984746820814D-01  1.1583445874166D+00
   114  1.1300000000000D+00 -7.4228028625408D-01  1.1309893572860D+00
   115  1.1400000000000D+00 -7.4320101761287D-01  1.1020321394887D+00
   116  1.1500000000000D+00 -7.4264054895073D-01  1.0715260779267D+00
   117  1.1600000000000D+00 -7.4063311960371D-01  1.0395296872019D+00
   118  1.1700000000000D+00 -7.3721619674627D-01  1.0061067086787D+00
   119  1.1800000000000D+00 -7.3243034120417D-01  9.7132594337185D-01
   120  1.1900000000000D+00 -7.2631906428869D-01  9.3526106201327D-01
   121  1.2000000000000D+00 -7.1892867607060D-01  8.9799039278282D-01
   122  1.2100000000000D+00 -7.1030812553611D-01  8.5959668727035D-01
   123  1.2200000000000D+00 -7.0050883308846D-01  8.2016686530588D-01
   124  1.2300000000000D+00 -6.8958451589422D-01  7.7979173941792D-01
   125  1.2400000000000D+00 -6.7759100659532D-01  7.3856571976141D-01
   126  1.2500000000000D+00 -6.6458606592399D-01  6.9658650041975D-01
   127  1.2600000000000D+00 -6.5062918978159D-01  6.5395472807167D-01
   128  1.2700000000000D+00 -6.3578141136457D-01  6.1077365411353D-01
   129  1.2800000000000D+00 -6.2010509892783D-01  5.6714877136006D-01
   130  1.2900000000000D+00 -6.0366374979244D-01  5.2318743651575D-01
   131  1.3000000000000D+00 -5.8652178122027D-01  4.7899847970310D-01
   132  1.3100000000000D+00 -5.6874431877719D-01  4.3469180233516D-01
   133  1.3200000000000D+00 -5.5039698281983D-01  3.9037796468879D-01
   134  1.3300000000000D+00 -5.3154567374082D-01  3.4616776459198D-01
   135  1.3400000000000D+00 -5.1225635660669D-01  3.0217180862457D-01
   136  1.3500000000000D+00 -4.9259484582777D-01  2.5850007730062D-01
   137  1.3600000000000D+00 -4.7262659047921D-01  2.1526148569500D-01
   138  1.3700000000000D+00 -4.5241646090856D-01  1.7256344098730D-01
   139  1.3800000000000D+00 -4.3202853723406D-01  1.3051139841679D-01
   140  1.3900000000000D+00 -4.1152590032851D-01  8.9208417104316D-02
   141  1.4000000000000D+00 -3.9097042589743D-01  4.8754717243032D-02
   142  1.4100000000000D+00 -3.7042258218506D-01  9.2472400595929D-03
   143  1.4200000000000D+00 -3.4994123189183D-01 -2.9220787986912D-02
   144  1.4300000000000D+00 -3.2958343881484D-01 -6.6560285391506D-02
   145  1.4400000000000D+00 -3.0940427969901D-01 -1.0268673886259D-01
   146  1.4500000000000D+00 -2.8945666183145D-01 -1.3752061823799D-01
   147  1.4600000000000D+00 -2.6979114674717D-01 -1.7098778196159D-01
   148  1.4700000000000D+00 -2.5045578056002D-01 -2.0301987173944D-01
   149  1.4800000000000D+00 -2.3149593123545D-01 -2.3355469538067D-01
   150  1.4900000000000D+00 -2.1295413319642D-01 -2.6253659669275D-01
   151  1.5000000000000D+00 -1.9486993961262D-01 -2.8991681136580D-01
   152  1.5100000000000D+00 -1.7727978257639D-01 -3.1565380812385D-01
   153  1.5200000000000D+00 -1.6021684156620D-01 -3.3971361396160D-01
   154  1.5300000000000D+00 -1.4371092022980D-01 -3.6207012313844D-01
   155  1.5400000000000D+00 -1.2778833187146D-01 -3.8270538877877D-01
   156  1.5500000000000D+00 -1.1247179167751D-01 -4.0160990405814D-01
   157  1.5600000000000D+00 -9.7780327286497D-02 -4.1878283008235D-01
   158  1.5700000000000D+00 -8.3729166424555D-02 -4.3423232169356D-01
   159  1.5800000000000D+00 -7.0329724920492D-02 -4.4797550310883D-01
   160  1.5900000000000D+00 -5.7589516056433D-02 -4.6003873339597D-01
   161  1.6000000000000D+00 -4.5511783287441D-02 -4.7045892598659D-01
   162  1.6100000000000D+00 -3.4096055194452D-02 -4.7928146236425D-01
   163  1.6200000000000D+00 -2.3338914421230D-02 -4.8655730085237D-01
   164  1.6300000000000D+00 -1.3234645290812D-02 -4.9234072451587D-01
   165  1.6400000000000D+00 -3.7762073016571D-03 -4.9668592228627D-01
   166  1.6500000000000D+00  5.0448202138026D-03 -4.9964740270655D-01
   167  1.6600000000000D+00  1.3238372997605D-02 -5.0128075551516D-01
   168  1.6700000000000D+00  2.0815688659768D-02 -5.0164206655719D-01
   169  1.6800000000000D+00  2.7789282188338D-02 -5.0078805568865D-01
   170  1.6900000000000D+00  3.4172854659794D-02 -4.9877595941560D-01
   171  1.7000000000000D+00  3.9981218617954D-02 -4.9566347452631D-01
   172  1.7100000000000D+00  4.5230218491178D-02 -4.9150868070175D-01
   173  1.7200000000000D+00  4.9936649422566D-02 -4.8636995461693D-01
   174  1.7300000000000D+00  5.4118174771625D-02 -4.8030587606135D-01
   175  1.7400000000000D+00  5.7793242441756D-02 -4.7337512654854D-01
   176  1.7500000000000D+00  6.0981000982594D-02 -4.6563638330075D-01
   177  1.7600000000000D+00  6.3701215969858D-02 -4.5714821032427D-01
   178  1.7700000000000D+00  6.5974184709099D-02 -4.4796893939825D-01
   179  1.7800000000000D+00  6.7820650070869D-02 -4.3815654377749D-01
   180  1.7900000000000D+00  6.9261718024407D-02 -4.2776852007880D-01
   181  1.8000000000000D+00  7.0318777383401D-02 -4.1686177319389D-01
   182  1.8100000000000D+00  7.1013417277112D-02 -4.0549248835937D-01
   183  1.8200000000000D+00  7.1367344314263D-02 -3.9371599717755D-01
   184  1.8300000000000D+00  7.1402303837343D-02 -3.8158665262299D-01
   185  1.8400000000000D+00  7.1140004844110D-02 -3.6915771146354D-01
   186  1.8500000000000D+00  7.0602045915573D-02 -3.5648121481179D-01
   187  1.8600000000000D+00  6.9809842491158D-02 -3.4360786776215D-01
   188  1.8700000000000D+00  6.8784557259926D-02 -3.3058692438479D-01
   189  1.8800000000000D+00  6.7547034099508D-02 -3.1746607918130D-01
   190  1.8900000000000D+00  6.6117734643665D-02 -3.0429136217014D-01
   191  1.9000000000000D+00  6.4516678378035D-02 -2.9110704022104D-01
   192  1.9100000000000D+00  6.2763386014191D-02 -2.7795552418727D-01
   193  1.9200000000000D+00  6.0876826688605D-02 -2.6487728335540D-01
   194  1.9300000000000D+00  5.8875368835692D-02 -2.5191076692405D-01
   195  1.9400000000000D+00  5.6776734966566D-02 -2.3909233325049D-01
   196  1.9500000000000D+00  5.4597960585134D-02 -2.2645618759861D-01
   197  1.9600000000000D+00  5.2355356945345D-02 -2.1403432768302D-01
   198  1.9700000000000D+00  5.0064478335381D-02 -2.0185649900649D-01
   199  1.9800000000000D+00  4.7740093186806D-02 -1.8995015814018D-01
   200  1.9900000000000D+00  4.5396159776582D-02 -1.7834044619904D-01
   201  2.0000000000000D+00  4.3045805971287D-02 -1.6705017106052D-01
   202  2.0100000000000D+00  4.0701313263697D-02 -1.5609979913857D-01
   203  2.0200000000000D+00  3.8374105203327D-02 -1.4550745710296D-01
   204  2.0300000000000D+00  3.6074739652581D-02 -1.3528894201561D-01
   205  2.0400000000000D+00  3.3812905624606D-02 -1.2545774216722D-01
   206  2.0500000000000D+00  3.1597423738184D-02 -1.1602506592233D-01
   207  2.0600000000000D+00  2.9436250878414D-02 -1.0699988039334D-01
   208  2.0700000000000D+00  2.7336488641878D-02 -9.8388958815999D-02
   209  2.0800000000000D+00  2.5304395291500D-02 -9.0196935924906D-02
   210  2.0900000000000D+00  2.3345401607965D-02 -8.2426372588793D-02
   211  2.1000000000000D+00  2.1464129744989D-02 -7.5077827154676D-02
   212  2.1100000000000D+00  1.9664415589417D-02 -6.8149935125698D-02
   213  2.1200000000000D+00  1.7949334044222D-02 -6.1639495532543D-02
   214  2.1300000000000D+00  1.6321227027740D-02 -5.5541563492126D-02
   215  2.1400000000000D+00  1.4781734338641D-02 -4.9849549552163D-02
   216  2.1500000000000D+00  1.3331826647038D-02 -4.4555323648757D-02
   217  2.1600000000000D+00  1.1971840831740D-02 -3.9649324531377D-02
   218  2.1700000000000D+00  1.0701517208467D-02 -3.5120673351790D-02
   219  2.1800000000000D+00  9.5200383573523D-03 -3.0957290624145D-02
   220  2.1900000000000D+00  8.4260695212513D-03 -2.7146016694778D-02
   221  2.2000000000000D+00  7.4178001009950D-03 -2.3672734243408D-02
   222  2.2100000000000D+00  6.4929861059440D-03 -2.0522492625279D-02
   223  2.2200000000000D+00  5.6489932726591D-03 -1.7679633274454D-02
   224  2.2300000000000D+00  4.8828406664994D-03 -1.5127915569388D-02
   225  2.2400000000000D+00  4.1912443271739D-03 -1.2850642201684D-02
   226  2.2500000000000D+00  3.5706609275251D-03 -1.0830783798526D-02
   227  2.2600000000000D+00  3.0173311262945D-03 -9.0511020143924D-03
   228  2.2700000000000D+00  2.5273221419243D-03 -7.4942698891376D-03
   229  2.2800000000000D+00  2.0965698089500D-03 -6.1429900684048D-03
   230  2.2900000000000D+00  1.7209193711104D-03 -4.9801089777300D-03
   231  2.3000000000000D+00  1.3961649180469D-03 -3.9887266788630D-03
   232  2.3100000000000D+00  1.1180878087095D-03 -3.1523033006734D-03
   233  2.3200000000000D+00  8.8249279455489D-04 -2.4547586433331D-03
   234  2.3300000000000D+00  6.8524256572158D-04 -1.8805668625342D-03
   235  2.3400000000000D+00  5.2229055999267D-04 -1.4148458199825D-03
   236  2.3500000000000D+00  3.8971079554355D-04 -1.0434377629673D-03
   237  2.3600000000000D+00  2.8372597901116D-04 -7.5298471525841D-04
   238  2.3700000000000D+00  2.0073303917969D-04 -5.3099628756544D-04
   239  2.3800000000000D+00  1.3732618413669D-04 -3.6595129883323D-04
   240  2.3900000000000D+00  9.0315046322377D-05 -2.4721661711869D-04
   241  2.4000000000000D+00  5.6742718227999D-05 -1.6514457686775D-04
   242  2.4100000000000D+00  3.3872668046884D-05 -1.1087264013446D-04
   243  2.4200000000000D+00  1.9302427210500D-05 -7.7641144937664D-05
   244  2.4300000000000D+00  1.0890234430874D-05 -5.9729273681108D-05
   245  2.4400000000000D+00  6.8822622763374D-06 -5.3200177533146D-05
   246  2.4500000000000D+00  5.2976757607190D-06 -5.0498304963503D-05
   247  2.4600000000000D+00  4.5514101511105D-06 -4.5575245615145D-05
   248  2.4700000000000D+00  3.2253408109393D-06 -3.2161616045200D-05
   249  2.4800000000000D+00  1.5859747221619D-06 -1.5456851297481D-05
   250  2.4900000000000D+00  7.0523254134344D-08 -6.6893946493111D-07
   251  2.5000000000000D+00 -4.3052892936390D-07  4.4356062752944D-06
   252  2.5100000000000D+00 -3.6245641921058D-07  3.7144656486759D-06
   253  2.5200000000000D+00 -1.6674263965117D-08  1.6988534746033D-07
   254  2.5300000000000D+00  8.3057548097778D-08 -9.3355497399246D-07
   255  2.5400000000000D+00  7.7317995218741D-08 -8.7394147057175D-07
   256  2.5500000000000D+00  5.7764339899765D-09 -6.5602855512710D-08
   257  2.5600000000000D+00 -1.0975165900749D-08  1.0981445029033D-07
   258  2.5700000000000D+00 -1.1252420332075D-08  1.1258858083577D-07
   259  2.5800000000000D+00 -1.5840933504208D-09  1.5849996442710D-08
   260  2.5900000000000D+00  0.0000000000000D+00  0.0000000000000D+00
   261  2.6000000000000D+00  0.0000000000000D+00  0.0000000000000D+00
   262  2.6100000000000D+00  0.0000000000000D+00  0.0000000000000D+00
   263  2.6200000000000D+00  0.0000000000000D+00  0.0000000000000D+00
   264  2.6300000000000D+00  0.0000000000000D+00  0.0000000000000D+00
   265  2.6400000000000D+00  0.0000000000000D+00  0.0000000000000D+00
   266  2.6500000000000D+00  0.0000000000000D+00  0.0000000000000D+00
   267  2.6600000000000D+00  0.0000000000000D+00  0.0000000000000D+00
   268  2.6700000000000D+00  0.0000000000000D+00  0.0000000000000D+00
   269  2.6800000000000D+00  0.0000000000000D+00  0.0000000000000D+00
   270  2.6900000000000D+00  0.0000000000000D+00  0.0000000000000D+00
   271  2.7000000000000D+00  0.0000000000000D+00  0.0000000000000D+00
   272  2.7100000000000D+00  0.0000000000000D+00  0.0000000000000D+00
   273  2.7200000000000D+00  0.0000000000000D+00  0.0000000000000D+00
   274  2.7300000000000D+00  0.0000000000000D+00  0.0000000000000D+00
   275  2.7400000000000D+00  0.0000000000000D+00  0.0000000000000D+00
   276  2.7500000000000D+00  0.0000000000000D+00  0.0000000000000D+00
   277  2.7600000000000D+00  0.0000000000000D+00  0.0000000000000D+00
   278  2.7700000000000D+00  0.0000000000000D+00  0.0000000000000D+00
   279  2.7800000000000D+00  0.0000000000000D+00  0.0000000000000D+00
   280  2.7900000000000D+00  0.0000000000000D+00  0.0000000000000D+00
   281  2.8000000000000D+00  0.0000000000000D+00  0.0000000000000D+00
   282  2.8100000000000D+00  0.0000000000000D+00  0.0000000000000D+00
   283  2.8200000000000D+00  0.0000000000000D+00  0.0000000000000D+00
   284  2.8300000000000D+00  0.0000000000000D+00  0.0000000000000D+00
   285  2.8400000000000D+00  0.0000000000000D+00  0.0000000000000D+00
   286  2.8500000000000D+00  0.0000000000000D+00  0.0000000000000D+00
   287  2.8600000000000D+00  0.0000000000000D+00  0.0000000000000D+00
   288  2.8700000000000D+00  0.0000000000000D+00  0.0000000000000D+00
   289  2.8800000000000D+00  0.0000000000000D+00  0.0000000000000D+00
   290  2.8900000000000D+00  0.0000000000000D+00  0.0000000000000D+00
   291  2.9000000000000D+00  0.0000000000000D+00  0.0000000000000D+00
   292  2.9100000000000D+00  0.0000000000000D+00  0.0000000000000D+00
   293  2.9200000000000D+00  0.0000000000000D+00  0.0000000000000D+00
   294  2.9300000000000D+00  0.0000000000000D+00  0.0000000000000D+00
   295  2.9400000000000D+00  0.0000000000000D+00  0.0000000000000D+00
   296  2.9500000000000D+00  0.0000000000000D+00  0.0000000000000D+00
   297  2.9600000000000D+00  0.0000000000000D+00  0.0000000000000D+00
   298  2.9700000000000D+00  0.0000000000000D+00  0.0000000000000D+00
   299  2.9800000000000D+00  0.0000000000000D+00  0.0000000000000D+00
   300  2.9900000000000D+00  0.0000000000000D+00  0.0000000000000D+00
   301  3.0000000000000D+00  0.0000000000000D+00  0.0000000000000D+00
   302  3.0100000000000D+00  0.0000000000000D+00  0.0000000000000D+00
   303  3.0200000000000D+00  0.0000000000000D+00  0.0000000000000D+00
   304  3.0300000000000D+00  0.0000000000000D+00  0.0000000000000D+00
   305  3.0400000000000D+00  0.0000000000000D+00  0.0000000000000D+00
   306  3.0500000000000D+00  0.0000000000000D+00  0.0000000000000D+00
   307  3.0600000000000D+00  0.0000000000000D+00  0.0000000000000D+00
   308  3.0700000000000D+00  0.0000000000000D+00  0.0000000000000D+00
   309  3.0800000000000D+00  0.0000000000000D+00  0.0000000000000D+00
   310  3.0900000000000D+00  0.0000000000000D+00  0.0000000000000D+00
   311  3.1000000000000D+00  0.0000000000000D+00  0.0000000000000D+00
   312  3.1100000000000D+00  0.0000000000000D+00  0.0000000000000D+00
   313  3.1200000000000D+00  0.0000000000000D+00  0.0000000000000D+00
   314  3.1300000000000D+00  0.0000000000000D+00  0.0000000000000D+00
   315  3.1400000000000D+00  0.0000000000000D+00  0.0000000000000D+00
   316  3.1500000000000D+00  0.0000000000000D+00  0.0000000000000D+00
   317  3.1600000000000D+00  0.0000000000000D+00  0.0000000000000D+00
   318  3.1700000000000D+00  0.0000000000000D+00  0.0000000000000D+00
   319  3.1800000000000D+00  0.0000000000000D+00  0.0000000000000D+00
   320  3.1900000000000D+00  0.0000000000000D+00  0.0000000000000D+00
   321  3.2000000000000D+00  0.0000000000000D+00  0.0000000000000D+00
   322  3.2100000000000D+00  0.0000000000000D+00  0.0000000000000D+00
   323  3.2200000000000D+00  0.0000000000000D+00  0.0000000000000D+00
   324  3.2300000000000D+00  0.0000000000000D+00  0.0000000000000D+00
   325  3.2400000000000D+00  0.0000000000000D+00  0.0000000000000D+00
   326  3.2500000000000D+00  0.0000000000000D+00  0.0000000000000D+00
   327  3.2600000000000D+00  0.0000000000000D+00  0.0000000000000D+00
   328  3.2700000000000D+00  0.0000000000000D+00  0.0000000000000D+00
   329  3.2800000000000D+00  0.0000000000000D+00  0.0000000000000D+00
   330  3.2900000000000D+00  0.0000000000000D+00  0.0000000000000D+00
   331  3.3000000000000D+00  0.0000000000000D+00  0.0000000000000D+00
   332  3.3100000000000D+00  0.0000000000000D+00  0.0000000000000D+00
   333  3.3200000000000D+00  0.0000000000000D+00  0.0000000000000D+00
   334  3.3300000000000D+00  0.0000000000000D+00  0.0000000000000D+00
   335  3.3400000000000D+00  0.0000000000000D+00  0.0000000000000D+00
   336  3.3500000000000D+00  0.0000000000000D+00  0.0000000000000D+00
   337  3.3600000000000D+00  0.0000000000000D+00  0.0000000000000D+00
   338  3.3700000000000D+00  0.0000000000000D+00  0.0000000000000D+00
   339  3.3800000000000D+00  0.0000000000000D+00  0.0000000000000D+00
   340  3.3900000000000D+00  0.0000000000000D+00  0.0000000000000D+00
   341  3.4000000000000D+00  0.0000000000000D+00  0.0000000000000D+00
   342  3.4100000000000D+00  0.0000000000000D+00  0.0000000000000D+00
   343  3.4200000000000D+00  0.0000000000000D+00  0.0000000000000D+00
   344  3.4300000000000D+00  0.0000000000000D+00  0.0000000000000D+00
   345  3.4400000000000D+00  0.0000000000000D+00  0.0000000000000D+00
   346  3.4500000000000D+00  0.0000000000000D+00  0.0000000000000D+00
   347  3.4600000000000D+00  0.0000000000000D+00  0.0000000000000D+00
   348  3.4700000000000D+00  0.0000000000000D+00  0.0000000000000D+00
   349  3.4800000000000D+00  0.0000000000000D+00  0.0000000000000D+00
   350  3.4900000000000D+00  0.0000000000000D+00  0.0000000000000D+00
   351  3.5000000000000D+00  0.0000000000000D+00  0.0000000000000D+00
   352  3.5100000000000D+00  0.0000000000000D+00  0.0000000000000D+00
   353  3.5200000000000D+00  0.0000000000000D+00  0.0000000000000D+00
   354  3.5300000000000D+00  0.0000000000000D+00  0.0000000000000D+00
   355  3.5400000000000D+00  0.0000000000000D+00  0.0000000000000D+00
   356  3.5500000000000D+00  0.0000000000000D+00  0.0000000000000D+00
   357  3.5600000000000D+00  0.0000000000000D+00  0.0000000000000D+00
   358  3.5700000000000D+00  0.0000000000000D+00  0.0000000000000D+00
   359  3.5800000000000D+00  0.0000000000000D+00  0.0000000000000D+00
   360  3.5900000000000D+00  0.0000000000000D+00  0.0000000000000D+00
   361  3.6000000000000D+00  0.0000000000000D+00  0.0000000000000D+00
   362  3.6100000000000D+00  0.0000000000000D+00  0.0000000000000D+00
   363  3.6200000000000D+00  0.0000000000000D+00  0.0000000000000D+00
   364  3.6300000000000D+00  0.0000000000000D+00  0.0000000000000D+00
   365  3.6400000000000D+00  0.0000000000000D+00  0.0000000000000D+00
   366  3.6500000000000D+00  0.0000000000000D+00  0.0000000000000D+00
   367  3.6600000000000D+00  0.0000000000000D+00  0.0000000000000D+00
   368  3.6700000000000D+00  0.0000000000000D+00  0.0000000000000D+00
   369  3.6800000000000D+00  0.0000000000000D+00  0.0000000000000D+00
   370  3.6900000000000D+00  0.0000000000000D+00  0.0000000000000D+00
   371  3.7000000000000D+00  0.0000000000000D+00  0.0000000000000D+00
   372  3.7100000000000D+00  0.0000000000000D+00  0.0000000000000D+00
   373  3.7200000000000D+00  0.0000000000000D+00  0.0000000000000D+00
   374  3.7300000000000D+00  0.0000000000000D+00  0.0000000000000D+00
   375  3.7400000000000D+00  0.0000000000000D+00  0.0000000000000D+00
   376  3.7500000000000D+00  0.0000000000000D+00  0.0000000000000D+00
   377  3.7600000000000D+00  0.0000000000000D+00  0.0000000000000D+00
   378  3.7700000000000D+00  0.0000000000000D+00  0.0000000000000D+00
   379  3.7800000000000D+00  0.0000000000000D+00  0.0000000000000D+00
   380  3.7900000000000D+00  0.0000000000000D+00  0.0000000000000D+00
   381  3.8000000000000D+00  0.0000000000000D+00  0.0000000000000D+00
   382  3.8100000000000D+00  0.0000000000000D+00  0.0000000000000D+00
   383  3.8200000000000D+00  0.0000000000000D+00  0.0000000000000D+00
   384  3.8300000000000D+00  0.0000000000000D+00  0.0000000000000D+00
   385  3.8400000000000D+00  0.0000000000000D+00  0.0000000000000D+00
   386  3.8500000000000D+00  0.0000000000000D+00  0.0000000000000D+00
   387  3.8600000000000D+00  0.0000000000000D+00  0.0000000000000D+00
   388  3.8700000000000D+00  0.0000000000000D+00  0.0000000000000D+00
   389  3.8800000000000D+00  0.0000000000000D+00  0.0000000000000D+00
   390  3.8900000000000D+00  0.0000000000000D+00  0.0000000000000D+00
   391  3.9000000000000D+00  0.0000000000000D+00  0.0000000000000D+00
   392  3.9100000000000D+00  0.0000000000000D+00  0.0000000000000D+00
   393  3.9200000000000D+00  0.0000000000000D+00  0.0000000000000D+00
   394  3.9300000000000D+00  0.0000000000000D+00  0.0000000000000D+00
   395  3.9400000000000D+00  0.0000000000000D+00  0.0000000000000D+00
   396  3.9500000000000D+00  0.0000000000000D+00  0.0000000000000D+00
   397  3.9600000000000D+00  0.0000000000000D+00  0.0000000000000D+00
   398  3.9700000000000D+00  0.0000000000000D+00  0.0000000000000D+00
   399  3.9800000000000D+00  0.0000000000000D+00  0.0000000000000D+00
   400  3.9900000000000D+00  0.0000000000000D+00  0.0000000000000D+00
   401  4.0000000000000D+00  0.0000000000000D+00  0.0000000000000D+00
   402  4.0100000000000D+00  0.0000000000000D+00  0.0000000000000D+00
   403  4.0200000000000D+00  0.0000000000000D+00  0.0000000000000D+00
   404  4.0300000000000D+00  0.0000000000000D+00  0.0000000000000D+00
   405  4.0400000000000D+00  0.0000000000000D+00  0.0000000000000D+00
   406  4.0500000000000D+00  0.0000000000000D+00  0.0000000000000D+00
   407  4.0600000000000D+00  0.0000000000000D+00  0.0000000000000D+00
   408  4.0700000000000D+00  0.0000000000000D+00  0.0000000000000D+00
   409  4.0800000000000D+00  0.0000000000000D+00  0.0000000000000D+00
   410  4.0900000000000D+00  0.0000000000000D+00  0.0000000000000D+00
   411  4.1000000000000D+00  0.0000000000000D+00  0.0000000000000D+00
   412  4.1100000000000D+00  0.0000000000000D+00  0.0000000000000D+00
   413  4.1200000000000D+00  0.0000000000000D+00  0.0000000000000D+00
   414  4.1300000000000D+00  0.0000000000000D+00  0.0000000000000D+00
   415  4.1400000000000D+00  0.0000000000000D+00  0.0000000000000D+00
   416  4.1500000000000D+00  0.0000000000000D+00  0.0000000000000D+00
   417  4.1600000000000D+00  0.0000000000000D+00  0.0000000000000D+00
   418  4.1700000000000D+00  0.0000000000000D+00  0.0000000000000D+00
   419  4.1800000000000D+00  0.0000000000000D+00  0.0000000000000D+00
   420  4.1900000000000D+00  0.0000000000000D+00  0.0000000000000D+00
   421  4.2000000000000D+00  0.0000000000000D+00  0.0000000000000D+00
   422  4.2100000000000D+00  0.0000000000000D+00  0.0000000000000D+00