B     ONCVPSP-3.3.1  r_core=   1.77019   1.90153
      5.0000      3.0000      210904    zatom,zion,pspd
     8      11   1     4   600     0    pspcod,pspxc,lmax,lloc,mmax,r2well
  5.99000000  0.00000000  0.00000000    rchrg fchrg qchrg
     2     2     0     0     0    nproj
     1     1           extension_switch
   0                         4.3269278184372D+00  1.9012246570140D-01
     1  0.0000000000000D+00 -3.9581060651273D-11  2.3001133116207D-10
     2  1.0000000000000D-02  5.3555832503159D-02  1.9762448119056D-03
     3  2.0000000000000D-02  1.0703024202119D-01  3.9461398819330D-03
     4  3.0000000000000D-02  1.6034202460094D-01  5.9031236840002D-03
     5  4.0000000000000D-02  2.1341041316323D-01  7.8402156998113D-03
     6  5.0000000000000D-02  2.6615529297488D-01  9.7498183040624D-03
     7  6.0000000000000D-02  3.1849741359122D-01  1.1623532142367D-02
     8  7.0000000000000D-02  3.7035859613923D-01  1.3451989226562D-02
     9  8.0000000000000D-02  4.2166193485142D-01  1.5224707742053D-02
    10  9.0000000000000D-02  4.7233199180887D-01  1.6929972278852D-02
    11  1.0000000000000D-01  5.2229498390982D-01  1.8554742865584D-02
    12  1.1000000000000D-01  5.7147896114546D-01  2.0084595806835D-02
    13  1.2000000000000D-01  6.1981397533786D-01  2.1503698903911D-02
    14  1.3000000000000D-01  6.6723223857511D-01  2.2794823180899D-02
    15  1.4000000000000D-01  7.1366827066464D-01  2.3939392747990D-02
    16  1.5000000000000D-01  7.5905903501701D-01  2.4917573916690D-02
    17  1.6000000000000D-01  8.0334406246832D-01  2.5708404143742D-02
    18  1.7000000000000D-01  8.4646556264830D-01  2.6289960826774D-02
    19  1.8000000000000D-01  8.8836852260288D-01  2.6639569412814D-02
    20  1.9000000000000D-01  9.2900079248318D-01  2.6734049715624D-02
    21  2.0000000000000D-01  9.6831315821661D-01  2.6549998776714D-02
    22  2.1000000000000D-01  1.0062594011788D+00  2.6064108054209D-02
    23  2.2000000000000D-01  1.0427963449874D+00  2.5253512188819D-02
    24  2.3000000000000D-01  1.0778838896370D+00  2.4096166084919D-02
    25  2.4000000000000D-01  1.1114850332927D+00  2.2571246562000D-02
    26  2.5000000000000D-01  1.1435658821487D+00  2.0659574382976D-02
    27  2.6000000000000D-01  1.1740956488470D+00  1.8344052058452D-02
    28  2.7000000000000D-01  1.2030466400318D+00  1.5610112462268D-02
    29  2.8000000000000D-01  1.2303942336877D+00  1.2446172981509D-02
    30  2.9000000000000D-01  1.2561168469776D+00  8.8440896639885D-03
    31  3.0000000000000D-01  1.2801958953543D+00  4.7996056261952D-03
    32  3.1000000000000D-01  1.3026157437690D+00  3.1278784318809D-04
    33  3.2000000000000D-01  1.3233636508415D+00 -4.6115536342122D-03
    34  3.3000000000000D-01  1.3424297068875D+00 -9.9634700019622D-03
    35  3.4000000000000D-01  1.3598067667208D+00 -1.5727507477038D-02
    36  3.5000000000000D-01  1.3754903781587D+00 -2.1882376313386D-02
    37  3.6000000000000D-01  1.3894787071621D+00 -2.8400660661606D-02
    38  3.7000000000000D-01  1.4017724605327D+00 -3.5248574618533D-02
    39  3.8000000000000D-01  1.4123748070720D+00 -4.2385769494739D-02
    40  3.9000000000000D-01  1.4212912980797D+00 -4.9765196945465D-02
    41  4.0000000000000D-01  1.4285297880301D+00 -5.7333032169769D-02
    42  4.1000000000000D-01  1.4341003562245D+00 -6.5028660885587D-02
    43  4.2000000000000D-01  1.4380152301558D+00 -7.2784733239630D-02
    44  4.3000000000000D-01  1.4402887112682D+00 -8.0527287214605D-02
    45  4.4000000000000D-01  1.4409371037189D+00 -8.8175943459468D-02
    46  4.5000000000000D-01  1.4399786466779D+00 -9.5644172793492D-02
    47  4.6000000000000D-01  1.4374334506198D+00 -1.0283963693231D-01
    48  4.7000000000000D-01  1.4333234379745D+00 -1.0966460225663D-01
    49  4.8000000000000D-01  1.4276722884191D+00 -1.1601642570114D-01
    50  4.9000000000000D-01  1.4205053889944D+00 -1.2178811108928D-01
    51  5.0000000000000D-01  1.4118497891442D+00 -1.2686893348504D-01
    52  5.1000000000000D-01  1.4017341606728D+00 -1.3114512838488D-01
    53  5.2000000000000D-01  1.3901887625284D+00 -1.3450064183767D-01
    54  5.3000000000000D-01  1.3772454102245D+00 -1.3681793686731D-01
    55  5.4000000000000D-01  1.3629374496211D+00 -1.3797885088542D-01
    56  5.5000000000000D-01  1.3472997347008D+00 -1.3786549813297D-01
    57  5.6000000000000D-01  1.3303686088938D+00 -1.3636121058123D-01
    58  5.7000000000000D-01  1.3121818894253D+00 -1.3335151016404D-01
    59  5.8000000000000D-01  1.2927788540913D+00 -1.2872510471240D-01
    60  5.9000000000000D-01  1.2722002298030D+00 -1.2237489951912D-01
    61  6.0000000000000D-01  1.2504881821831D+00 -1.1419901609015D-01
    62  6.1000000000000D-01  1.2276863054526D+00 -1.0410180933432D-01
    63  6.2000000000000D-01  1.2038396118049D+00 -9.1994874219501D-02
    64  6.3000000000000D-01  1.1789945194380D+00 -7.7798032774516D-02
    65  6.4000000000000D-01  1.1531988383956D+00 -6.1440292253450D-02
    66  6.5000000000000D-01  1.1265017533605D+00 -4.2860765297379D-02
    67  6.6000000000000D-01  1.0989538025446D+00 -2.2009543035388D-02
    68  6.7000000000000D-01  1.0706068518372D+00  1.1514877418388D-03
    69  6.8000000000000D-01  1.0415140633911D+00  2.6647891926350D-02
    70  6.9000000000000D-01  1.0117298578681D+00  5.4492006181661D-02
    71  7.0000000000000D-01  9.8130986960518D-01  8.4682339559151D-02
    72  7.1000000000000D-01  9.5031089402018D-01  1.1720306189969D-01
    73  7.2000000000000D-01  9.1879082664281D-01  1.5202358667930D-01
    74  7.3000000000000D-01  8.8680859322798D-01  1.8909825428238D-01
    75  7.4000000000000D-01  8.5442407049398D-01  2.2836612094777D-01
    76  7.5000000000000D-01  8.2169799711759D-01  2.6975085783217D-01
    77  7.6000000000000D-01  7.8869187471657D-01  3.1316076378057D-01
    78  7.7000000000000D-01  7.5546785865375D-01  3.5848889448731D-01
    79  7.8000000000000D-01  7.2208863860533D-01  4.0561330979544D-01
    80  7.9000000000000D-01  6.8861730895030D-01  4.5439743989697D-01
    81  8.0000000000000D-01  6.5511722915258D-01  5.0469057020655D-01
    82  8.1000000000000D-01  6.2165187442607D-01  5.5632844366253D-01
    83  8.2000000000000D-01  5.8828467709117D-01  6.0913397819119D-01
    84  8.3000000000000D-01  5.5507885914881D-01  6.6291809605350D-01
    85  8.4000000000000D-01  5.2209725671461D-01  7.1748066079016D-01
    86  8.5000000000000D-01  4.8940213706861D-01  7.7261151649731D-01
    87  8.6000000000000D-01  4.5705500918505D-01  8.2809162321493D-01
    88  8.7000000000000D-01  4.2511642871020D-01  8.8369428129802D-01
    89  8.8000000000000D-01  3.9364579845327D-01  9.3918643677683D-01
    90  8.9000000000000D-01  3.6270116554509D-01  9.9433005890635D-01
    91  9.0000000000000D-01  3.3233901649984D-01  1.0488835803632D+00
    92  9.1000000000000D-01  3.0261407148676D-01  1.1026033898779D+00
    93  9.2000000000000D-01  2.7357907917925D-01  1.1552453665003D+00
    94  9.3000000000000D-01  2.4528461359874D-01  1.2065664441870D+00
    95  9.4000000000000D-01  2.1777887440837D-01  1.2563261949879D+00
    96  9.5000000000000D-01  1.9110749213641D-01  1.3042884187831D+00
    97  9.6000000000000D-01  1.6531333982210D-01  1.3502227273036D+00
    98  9.7000000000000D-01  1.4043635257522D-01  1.3939061100458D+00
    99  9.8000000000000D-01  1.1651335652628D-01  1.4351244696716D+00
   100  9.9000000000000D-01  9.3577908615943D-02  1.4736741145786D+00
   101  1.0000000000000D+00  7.1660148630506D-02  1.5093631965114D+00
   102  1.0100000000000D+00  5.0786664835263D-02  1.5420130813862D+00
   103  1.0200000000000D+00  3.0980374488912D-02  1.5714596418971D+00
   104  1.0300000000000D+00  1.2260420440010D-02  1.5975544609829D+00
   105  1.0400000000000D+00 -5.3579150818543D-03  1.6201659357925D+00
   106  1.0500000000000D+00 -2.1863278479173D-02  1.6391802725192D+00
   107  1.0600000000000D+00 -3.7248293712940D-02  1.6545023632145D+00
   108  1.0700000000000D+00 -5.1509591376949D-02  1.6660565365401D+00
   109  1.0800000000000D+00 -6.4647817297161D-02  1.6737871754080D+00
   110  1.0900000000000D+00 -7.6667620152284D-02  1.6776591952853D+00
   111  1.1000000000000D+00 -8.7577617787278D-02  1.6776583781793D+00
   112  1.1100000000000D+00 -9.7390342024667D-02  1.6737915582723D+00
   113  1.1200000000000D+00 -1.0612216194883D-01  1.6660866564002D+00
   114  1.1300000000000D+00 -1.1379318578373D-01  1.6545925616232D+00
   115  1.1400000000000D+00 -1.2042714165093D-01  1.6393788593565D+00
   116  1.1500000000000D+00 -1.2605123766179D-01  1.6205354067597D+00
   117  1.1600000000000D+00 -1.3069600195400D-01  1.5981717572589D+00
   118  1.1700000000000D+00 -1.3439510341889D-01  1.5724164370920D+00
   119  1.1800000000000D+00 -1.3718515403512D-01  1.5434160780545D+00
   120  1.1900000000000D+00 -1.3910549386632D-01  1.5113344117162D+00
   121  1.2000000000000D+00 -1.4019795992512D-01  1.4763511315165D+00
   122  1.2100000000000D+00 -1.4050664018064D-01  1.4386606297223D+00
   123  1.2200000000000D+00 -1.4007761418398D-01  1.3984706178128D+00
   124  1.2300000000000D+00 -1.3895868184255D-01  1.3560006393498D+00
   125  1.2400000000000D+00 -1.3719908195759D-01  1.3114804850721D+00
   126  1.2500000000000D+00 -1.3484920225518D-01  1.2651485209443D+00
   127  1.2600000000000D+00 -1.3196028269321D-01  1.2172499404203D+00
   128  1.2700000000000D+00 -1.2858411385733D-01  1.1680349524759D+00
   129  1.2800000000000D+00 -1.2477273232648D-01  1.1177569176126D+00
   130  1.2900000000000D+00 -1.2057811488914D-01  1.0666704442632D+00
   131  1.3000000000000D+00 -1.1605187348905D-01  1.0150294580506D+00
   132  1.3100000000000D+00 -1.1124495280090D-01  9.6308525670315D-01
   133  1.3200000000000D+00 -1.0620733224414D-01  9.1108456304223D-01
   134  1.3300000000000D+00 -1.0098773426436D-01  8.5926758856089D-01
   135  1.3400000000000D+00 -9.5633340635561D-02  8.0786611988270D-01
   136  1.3500000000000D+00 -9.0189518161655D-02  7.5710163574670D-01
   137  1.3600000000000D+00 -8.4699556742998D-02  7.0718348986057D-01
   138  1.3700000000000D+00 -7.9204415750153D-02  6.5830707331557D-01
   139  1.3800000000000D+00 -7.3742501606961D-02  6.1065234015393D-01
   140  1.3900000000000D+00 -6.8349419692303D-02  5.6438170091361D-01
   141  1.4000000000000D+00 -6.3057779558170D-02  5.1963861335147D-01
   142  1.4100000000000D+00 -5.7897150779758D-02  4.7654884387110D-01
   143  1.4200000000000D+00 -5.2894053288848D-02  4.3522163346757D-01
   144  1.4300000000000D+00 -4.8072027052518D-02  3.9575168410829D-01
   145  1.4400000000000D+00 -4.3451589342176D-02  3.5821864949089D-01
   146  1.4500000000000D+00 -3.9050207971188D-02  3.2268652312847D-01
   147  1.4600000000000D+00 -3.4882322320969D-02  2.8920373931562D-01
   148  1.4700000000000D+00 -3.0959374390487D-02  2.5780312446894D-01
   149  1.4800000000000D+00 -2.7289866404435D-02  2.2850207625514D-01
   150  1.4900000000000D+00 -2.3879439299228D-02  2.0130285443982D-01
   151  1.5000000000000D+00 -2.0730972290530D-02  1.7619300694945D-01
   152  1.5100000000000D+00 -1.7844703194074D-02  1.5314592733679D-01
   153  1.5200000000000D+00 -1.5218367593190D-02  1.3212153230923D-01
   154  1.5300000000000D+00 -1.2847356345192D-02  1.1306705744440D-01
   155  1.5400000000000D+00 -1.0724889538104D-02  9.5917959885046D-02
   156  1.5500000000000D+00 -8.8422056624797D-03  8.0598921191810D-02
   157  1.5600000000000D+00 -7.1887642725661D-03  6.7024940245751D-02
   158  1.5700000000000D+00 -5.7524602784400D-03  5.5102505061874D-02
   159  1.5800000000000D+00 -4.5198482324116D-03  4.4730834075628D-02
   160  1.5900000000000D+00 -3.4763743634917D-03  3.5803172948528D-02
   161  1.6000000000000D+00 -2.6066146682162D-03  2.8208137180929D-02
   162  1.6100000000000D+00 -1.8945167113927D-03  2.1831085640374D-02
   163  1.6200000000000D+00 -1.3236432332537D-03  1.6555513950887D-02
   164  1.6300000000000D+00 -8.7741538849160D-04  1.2264453778101D-02
   165  1.6400000000000D+00 -5.3935342070668D-04  8.8418649673446D-03
   166  1.6500000000000D+00 -2.9331292448014D-04  6.1740086174392D-03
   167  1.6600000000000D+00 -1.2371425981312D-04  4.1507863442877D-03
   168  1.6700000000000D+00 -1.5763646978235D-05  2.6670362062411D-03
   169  1.6800000000000D+00  4.4336642163476D-05  1.6237694227016D-03
   170  1.6900000000000D+00  6.9190025513718D-05  9.2934119029684D-04
   171  1.7000000000000D+00  7.0021973307434D-05  5.0053894264340D-04
   172  1.7100000000000D+00  5.6499369108008D-05  2.6367489525641D-04
   173  1.7200000000000D+00  3.6598034564853D-05  1.5535014047249D-04
   174  1.7300000000000D+00  1.6601238764520D-05  1.2214252011493D-04
   175  1.7400000000000D+00  6.9446825662363D-07  1.2350135843915D-04
   176  1.7500000000000D+00 -9.4890735176644D-06  1.3716599652192D-04
   177  1.7600000000000D+00 -1.3899728024963D-05  1.4891914910164D-04
   178  1.7700000000000D+00 -1.2628959185130D-05  1.3205459417850D-04
   179  1.7800000000000D+00 -6.7132531596087D-06  7.0837409521049D-05
   180  1.7900000000000D+00 -6.5741239885258D-07  7.0714419773735D-06
   181  1.8000000000000D+00  1.3399684886171D-06 -1.3800559004103D-05
   182  1.8100000000000D+00  4.4732418037563D-07 -4.6137624793078D-06
   183  1.8200000000000D+00 -2.8376441203661D-07  2.8599613347935D-06
   184  1.8300000000000D+00 -1.7782572474948D-07  1.7883934816675D-06
   185  1.8400000000000D+00  2.6568160903166D-08 -2.7794362144277D-07
   186  1.8500000000000D+00  2.7847040278407D-08 -2.9132265683172D-07
   187  1.8600000000000D+00  0.0000000000000D+00  0.0000000000000D+00
   188  1.8700000000000D+00  0.0000000000000D+00  0.0000000000000D+00
   189  1.8800000000000D+00  0.0000000000000D+00  0.0000000000000D+00
   190  1.8900000000000D+00  0.0000000000000D+00  0.0000000000000D+00
   191  1.9000000000000D+00  0.0000000000000D+00  0.0000000000000D+00
   192  1.9100000000000D+00  0.0000000000000D+00  0.0000000000000D+00
   193  1.9200000000000D+00  0.0000000000000D+00  0.0000000000000D+00
   194  1.9300000000000D+00  0.0000000000000D+00  0.0000000000000D+00
   195  1.9400000000000D+00  0.0000000000000D+00  0.0000000000000D+00
   196  1.9500000000000D+00  0.0000000000000D+00  0.0000000000000D+00
   197  1.9600000000000D+00  0.0000000000000D+00  0.0000000000000D+00
   198  1.9700000000000D+00  0.0000000000000D+00  0.0000000000000D+00
   199  1.9800000000000D+00  0.0000000000000D+00  0.0000000000000D+00
   200  1.9900000000000D+00  0.0000000000000D+00  0.0000000000000D+00
   201  2.0000000000000D+00  0.0000000000000D+00  0.0000000000000D+00
   202  2.0100000000000D+00  0.0000000000000D+00  0.0000000000000D+00
   203  2.0200000000000D+00  0.0000000000000D+00  0.0000000000000D+00
   204  2.0300000000000D+00  0.0000000000000D+00  0.0000000000000D+00
   205  2.0400000000000D+00  0.0000000000000D+00  0.0000000000000D+00
   206  2.0500000000000D+00  0.0000000000000D+00  0.0000000000000D+00
   207  2.0600000000000D+00  0.0000000000000D+00  0.0000000000000D+00
   208  2.0700000000000D+00  0.0000000000000D+00  0.0000000000000D+00
   209  2.0800000000000D+00  0.0000000000000D+00  0.0000000000000D+00
   210  2.0900000000000D+00  0.0000000000000D+00  0.0000000000000D+00
   211  2.1000000000000D+00  0.0000000000000D+00  0.0000000000000D+00
   212  2.1100000000000D+00  0.0000000000000D+00  0.0000000000000D+00
   213  2.1200000000000D+00  0.0000000000000D+00  0.0000000000000D+00
   214  2.1300000000000D+00  0.0000000000000D+00  0.0000000000000D+00
   215  2.1400000000000D+00  0.0000000000000D+00  0.0000000000000D+00
   216  2.1500000000000D+00  0.0000000000000D+00  0.0000000000000D+00
   217  2.1600000000000D+00  0.0000000000000D+00  0.0000000000000D+00
   218  2.1700000000000D+00  0.0000000000000D+00  0.0000000000000D+00
   219  2.1800000000000D+00  0.0000000000000D+00  0.0000000000000D+00
   220  2.1900000000000D+00  0.0000000000000D+00  0.0000000000000D+00
   221  2.2000000000000D+00  0.0000000000000D+00  0.0000000000000D+00
   222  2.2100000000000D+00  0.0000000000000D+00  0.0000000000000D+00
   223  2.2200000000000D+00  0.0000000000000D+00  0.0000000000000D+00
   224  2.2300000000000D+00  0.0000000000000D+00  0.0000000000000D+00
   225  2.2400000000000D+00  0.0000000000000D+00  0.0000000000000D+00
   226  2.2500000000000D+00  0.0000000000000D+00  0.0000000000000D+00
   227  2.2600000000000D+00  0.0000000000000D+00  0.0000000000000D+00
   228  2.2700000000000D+00  0.0000000000000D+00  0.0000000000000D+00
   229  2.2800000000000D+00  0.0000000000000D+00  0.0000000000000D+00
   230  2.2900000000000D+00  0.0000000000000D+00  0.0000000000000D+00
   231  2.3000000000000D+00  0.0000000000000D+00  0.0000000000000D+00
   232  2.3100000000000D+00  0.0000000000000D+00  0.0000000000000D+00
   233  2.3200000000000D+00  0.0000000000000D+00  0.0000000000000D+00
   234  2.3300000000000D+00  0.0000000000000D+00  0.0000000000000D+00
   235  2.3400000000000D+00  0.0000000000000D+00  0.0000000000000D+00
   236  2.3500000000000D+00  0.0000000000000D+00  0.0000000000000D+00
   237  2.3600000000000D+00  0.0000000000000D+00  0.0000000000000D+00
   238  2.3700000000000D+00  0.0000000000000D+00  0.0000000000000D+00
   239  2.3800000000000D+00  0.0000000000000D+00  0.0000000000000D+00
   240  2.3900000000000D+00  0.0000000000000D+00  0.0000000000000D+00
   241  2.4000000000000D+00  0.0000000000000D+00  0.0000000000000D+00
   242  2.4100000000000D+00  0.0000000000000D+00  0.0000000000000D+00
   243  2.4200000000000D+00  0.0000000000000D+00  0.0000000000000D+00
   244  2.4300000000000D+00  0.0000000000000D+00  0.0000000000000D+00
   245  2.4400000000000D+00  0.0000000000000D+00  0.0000000000000D+00
   246  2.4500000000000D+00  0.0000000000000D+00  0.0000000000000D+00
   247  2.4600000000000D+00  0.0000000000000D+00  0.0000000000000D+00
   248  2.4700000000000D+00  0.0000000000000D+00  0.0000000000000D+00
   249  2.4800000000000D+00  0.0000000000000D+00  0.0000000000000D+00
   250  2.4900000000000D+00  0.0000000000000D+00  0.0000000000000D+00
   251  2.5000000000000D+00  0.0000000000000D+00  0.0000000000000D+00
   252  2.5100000000000D+00  0.0000000000000D+00  0.0000000000000D+00
   253  2.5200000000000D+00  0.0000000000000D+00  0.0000000000000D+00
   254  2.5300000000000D+00  0.0000000000000D+00  0.0000000000000D+00
   255  2.5400000000000D+00  0.0000000000000D+00  0.0000000000000D+00
   256  2.5500000000000D+00  0.0000000000000D+00  0.0000000000000D+00
   257  2.5600000000000D+00  0.0000000000000D+00  0.0000000000000D+00
   258  2.5700000000000D+00  0.0000000000000D+00  0.0000000000000D+00
   259  2.5800000000000D+00  0.0000000000000D+00  0.0000000000000D+00
   260  2.5900000000000D+00  0.0000000000000D+00  0.0000000000000D+00
   261  2.6000000000000D+00  0.0000000000000D+00  0.0000000000000D+00
   262  2.6100000000000D+00  0.0000000000000D+00  0.0000000000000D+00
   263  2.6200000000000D+00  0.0000000000000D+00  0.0000000000000D+00
   264  2.6300000000000D+00  0.0000000000000D+00  0.0000000000000D+00
   265  2.6400000000000D+00  0.0000000000000D+00  0.0000000000000D+00
   266  2.6500000000000D+00  0.0000000000000D+00  0.0000000000000D+00
   267  2.6600000000000D+00  0.0000000000000D+00  0.0000000000000D+00
   268  2.6700000000000D+00  0.0000000000000D+00  0.0000000000000D+00
   269  2.6800000000000D+00  0.0000000000000D+00  0.0000000000000D+00
   270  2.6900000000000D+00  0.0000000000000D+00  0.0000000000000D+00
   271  2.7000000000000D+00  0.0000000000000D+00  0.0000000000000D+00
   272  2.7100000000000D+00  0.0000000000000D+00  0.0000000000000D+00
   273  2.7200000000000D+00  0.0000000000000D+00  0.0000000000000D+00
   274  2.7300000000000D+00  0.0000000000000D+00  0.0000000000000D+00
   275  2.7400000000000D+00  0.0000000000000D+00  0.0000000000000D+00
   276  2.7500000000000D+00  0.0000000000000D+00  0.0000000000000D+00
   277  2.7600000000000D+00  0.0000000000000D+00  0.0000000000000D+00
   278  2.7700000000000D+00  0.0000000000000D+00  0.0000000000000D+00
   279  2.7800000000000D+00  0.0000000000000D+00  0.0000000000000D+00
   280  2.7900000000000D+00  0.0000000000000D+00  0.0000000000000D+00
   281  2.8000000000000D+00  0.0000000000000D+00  0.0000000000000D+00
   282  2.8100000000000D+00  0.0000000000000D+00  0.0000000000000D+00
   283  2.8200000000000D+00  0.0000000000000D+00  0.0000000000000D+00
   284  2.8300000000000D+00  0.0000000000000D+00  0.0000000000000D+00
   285  2.8400000000000D+00  0.0000000000000D+00  0.0000000000000D+00
   286  2.8500000000000D+00  0.0000000000000D+00  0.0000000000000D+00
   287  2.8600000000000D+00  0.0000000000000D+00  0.0000000000000D+00
   288  2.8700000000000D+00  0.0000000000000D+00  0.0000000000000D+00
   289  2.8800000000000D+00  0.0000000000000D+00  0.0000000000000D+00
   290  2.8900000000000D+00  0.0000000000000D+00  0.0000000000000D+00
   291  2.9000000000000D+00  0.0000000000000D+00  0.0000000000000D+00
   292  2.9100000000000D+00  0.0000000000000D+00  0.0000000000000D+00
   293  2.9200000000000D+00  0.0000000000000D+00  0.0000000000000D+00
   294  2.9300000000000D+00  0.0000000000000D+00  0.0000000000000D+00
   295  2.9400000000000D+00  0.0000000000000D+00  0.0000000000000D+00
   296  2.9500000000000D+00  0.0000000000000D+00  0.0000000000000D+00
   297  2.9600000000000D+00  0.0000000000000D+00  0.0000000000000D+00
   298  2.9700000000000D+00  0.0000000000000D+00  0.0000000000000D+00
   299  2.9800000000000D+00  0.0000000000000D+00  0.0000000000000D+00
   300  2.9900000000000D+00  0.0000000000000D+00  0.0000000000000D+00
   301  3.0000000000000D+00  0.0000000000000D+00  0.0000000000000D+00
   302  3.0100000000000D+00  0.0000000000000D+00  0.0000000000000D+00
   303  3.0200000000000D+00  0.0000000000000D+00  0.0000000000000D+00
   304  3.0300000000000D+00  0.0000000000000D+00  0.0000000000000D+00
   305  3.0400000000000D+00  0.0000000000000D+00  0.0000000000000D+00
   306  3.0500000000000D+00  0.0000000000000D+00  0.0000000000000D+00
   307  3.0600000000000D+00  0.0000000000000D+00  0.0000000000000D+00
   308  3.0700000000000D+00  0.0000000000000D+00  0.0000000000000D+00
   309  3.0800000000000D+00  0.0000000000000D+00  0.0000000000000D+00
   310  3.0900000000000D+00  0.0000000000000D+00  0.0000000000000D+00
   311  3.1000000000000D+00  0.0000000000000D+00  0.0000000000000D+00
   312  3.1100000000000D+00  0.0000000000000D+00  0.0000000000000D+00
   313  3.1200000000000D+00  0.0000000000000D+00  0.0000000000000D+00
   314  3.1300000000000D+00  0.0000000000000D+00  0.0000000000000D+00
   315  3.1400000000000D+00  0.0000000000000D+00  0.0000000000000D+00
   316  3.1500000000000D+00  0.0000000000000D+00  0.0000000000000D+00
   317  3.1600000000000D+00  0.0000000000000D+00  0.0000000000000D+00
   318  3.1700000000000D+00  0.0000000000000D+00  0.0000000000000D+00
   319  3.1800000000000D+00  0.0000000000000D+00  0.0000000000000D+00
   320  3.1900000000000D+00  0.0000000000000D+00  0.0000000000000D+00
   321  3.2000000000000D+00  0.0000000000000D+00  0.0000000000000D+00
   322  3.2100000000000D+00  0.0000000000000D+00  0.0000000000000D+00
   323  3.2200000000000D+00  0.0000000000000D+00  0.0000000000000D+00
   324  3.2300000000000D+00  0.0000000000000D+00  0.0000000000000D+00
   325  3.2400000000000D+00  0.0000000000000D+00  0.0000000000000D+00
   326  3.2500000000000D+00  0.0000000000000D+00  0.0000000000000D+00
   327  3.2600000000000D+00  0.0000000000000D+00  0.0000000000000D+00
   328  3.2700000000000D+00  0.0000000000000D+00  0.0000000000000D+00
   329  3.2800000000000D+00  0.0000000000000D+00  0.0000000000000D+00
   330  3.2900000000000D+00  0.0000000000000D+00  0.0000000000000D+00
   331  3.3000000000000D+00  0.0000000000000D+00  0.0000000000000D+00
   332  3.3100000000000D+00  0.0000000000000D+00  0.0000000000000D+00
   333  3.3200000000000D+00  0.0000000000000D+00  0.0000000000000D+00
   334  3.3300000000000D+00  0.0000000000000D+00  0.0000000000000D+00
   335  3.3400000000000D+00  0.0000000000000D+00  0.0000000000000D+00
   336  3.3500000000000D+00  0.0000000000000D+00  0.0000000000000D+00
   337  3.3600000000000D+00  0.0000000000000D+00  0.0000000000000D+00
   338  3.3700000000000D+00  0.0000000000000D+00  0.0000000000000D+00
   339  3.3800000000000D+00  0.0000000000000D+00  0.0000000000000D+00
   340  3.3900000000000D+00  0.0000000000000D+00  0.0000000000000D+00
   341  3.4000000000000D+00  0.0000000000000D+00  0.0000000000000D+00
   342  3.4100000000000D+00  0.0000000000000D+00  0.0000000000000D+00
   343  3.4200000000000D+00  0.0000000000000D+00  0.0000000000000D+00
   344  3.4300000000000D+00  0.0000000000000D+00  0.0000000000000D+00
   345  3.4400000000000D+00  0.0000000000000D+00  0.0000000000000D+00
   346  3.4500000000000D+00  0.0000000000000D+00  0.0000000000000D+00
   347  3.4600000000000D+00  0.0000000000000D+00  0.0000000000000D+00
   348  3.4700000000000D+00  0.0000000000000D+00  0.0000000000000D+00
   349  3.4800000000000D+00  0.0000000000000D+00  0.0000000000000D+00
   350  3.4900000000000D+00  0.0000000000000D+00  0.0000000000000D+00
   351  3.5000000000000D+00  0.0000000000000D+00  0.0000000000000D+00
   352  3.5100000000000D+00  0.0000000000000D+00  0.0000000000000D+00
   353  3.5200000000000D+00  0.0000000000000D+00  0.0000000000000D+00
   354  3.5300000000000D+00  0.0000000000000D+00  0.0000000000000D+00
   355  3.5400000000000D+00  0.0000000000000D+00  0.0000000000000D+00
   356  3.5500000000000D+00  0.0000000000000D+00  0.0000000000000D+00
   357  3.5600000000000D+00  0.0000000000000D+00  0.0000000000000D+00
   358  3.5700000000000D+00  0.0000000000000D+00  0.0000000000000D+00
   359  3.5800000000000D+00  0.0000000000000D+00  0.0000000000000D+00
   360  3.5900000000000D+00  0.0000000000000D+00  0.0000000000000D+00
   361  3.6000000000000D+00  0.0000000000000D+00  0.0000000000000D+00
   362  3.6100000000000D+00  0.0000000000000D+00  0.0000000000000D+00
   363  3.6200000000000D+00  0.0000000000000D+00  0.0000000000000D+00
   364  3.6300000000000D+00  0.0000000000000D+00  0.0000000000000D+00
   365  3.6400000000000D+00  0.0000000000000D+00  0.0000000000000D+00
   366  3.6500000000000D+00  0.0000000000000D+00  0.0000000000000D+00
   367  3.6600000000000D+00  0.0000000000000D+00  0.0000000000000D+00
   368  3.6700000000000D+00  0.0000000000000D+00  0.0000000000000D+00
   369  3.6800000000000D+00  0.0000000000000D+00  0.0000000000000D+00
   370  3.6900000000000D+00  0.0000000000000D+00  0.0000000000000D+00
   371  3.7000000000000D+00  0.0000000000000D+00  0.0000000000000D+00
   372  3.7100000000000D+00  0.0000000000000D+00  0.0000000000000D+00
   373  3.7200000000000D+00  0.0000000000000D+00  0.0000000000000D+00
   374  3.7300000000000D+00  0.0000000000000D+00  0.0000000000000D+00
   375  3.7400000000000D+00  0.0000000000000D+00  0.0000000000000D+00
   376  3.7500000000000D+00  0.0000000000000D+00  0.0000000000000D+00
   377  3.7600000000000D+00  0.0000000000000D+00  0.0000000000000D+00
   378  3.7700000000000D+00  0.0000000000000D+00  0.0000000000000D+00
   379  3.7800000000000D+00  0.0000000000000D+00  0.0000000000000D+00
   380  3.7900000000000D+00  0.0000000000000D+00  0.0000000000000D+00
   381  3.8000000000000D+00  0.0000000000000D+00  0.0000000000000D+00
   382  3.8100000000000D+00  0.0000000000000D+00  0.0000000000000D+00
   383  3.8200000000000D+00  0.0000000000000D+00  0.0000000000000D+00
   384  3.8300000000000D+00  0.0000000000000D+00  0.0000000000000D+00
   385  3.8400000000000D+00  0.0000000000000D+00  0.0000000000000D+00
   386  3.8500000000000D+00  0.0000000000000D+00  0.0000000000000D+00
   387  3.8600000000000D+00  0.0000000000000D+00  0.0000000000000D+00
   388  3.8700000000000D+00  0.0000000000000D+00  0.0000000000000D+00
   389  3.8800000000000D+00  0.0000000000000D+00  0.0000000000000D+00
   390  3.8900000000000D+00  0.0000000000000D+00  0.0000000000000D+00
   391  3.9000000000000D+00  0.0000000000000D+00  0.0000000000000D+00
   392  3.9100000000000D+00  0.0000000000000D+00  0.0000000000000D+00
   393  3.9200000000000D+00  0.0000000000000D+00  0.0000000000000D+00
   394  3.9300000000000D+00  0.0000000000000D+00  0.0000000000000D+00
   395  3.9400000000000D+00  0.0000000000000D+00  0.0000000000000D+00
   396  3.9500000000000D+00  0.0000000000000D+00  0.0000000000000D+00
   397  3.9600000000000D+00  0.0000000000000D+00  0.0000000000000D+00
   398  3.9700000000000D+00  0.0000000000000D+00  0.0000000000000D+00
   399  3.9800000000000D+00  0.0000000000000D+00  0.0000000000000D+00
   400  3.9900000000000D+00  0.0000000000000D+00  0.0000000000000D+00
   401  4.0000000000000D+00  0.0000000000000D+00  0.0000000000000D+00
   402  4.0100000000000D+00  0.0000000000000D+00  0.0000000000000D+00
   403  4.0200000000000D+00  0.0000000000000D+00  0.0000000000000D+00
   404  4.0300000000000D+00  0.0000000000000D+00  0.0000000000000D+00
   405  4.0400000000000D+00  0.0000000000000D+00  0.0000000000000D+00
   406  4.0500000000000D+00  0.0000000000000D+00  0.0000000000000D+00
   407  4.0600000000000D+00  0.0000000000000D+00  0.0000000000000D+00
   408  4.0700000000000D+00  0.0000000000000D+00  0.0000000000000D+00
   409  4.0800000000000D+00  0.0000000000000D+00  0.0000000000000D+00
   410  4.0900000000000D+00  0.0000000000000D+00  0.0000000000000D+00
   411  4.1000000000000D+00  0.0000000000000D+00  0.0000000000000D+00
   412  4.1100000000000D+00  0.0000000000000D+00  0.0000000000000D+00
   413  4.1200000000000D+00  0.0000000000000D+00  0.0000000000000D+00
   414  4.1300000000000D+00  0.0000000000000D+00  0.0000000000000D+00
   415  4.1400000000000D+00  0.0000000000000D+00  0.0000000000000D+00
   416  4.1500000000000D+00  0.0000000000000D+00  0.0000000000000D+00
   417  4.1600000000000D+00  0.0000000000000D+00  0.0000000000000D+00
   418  4.1700000000000D+00  0.0000000000000D+00  0.0000000000000D+00
   419  4.1800000000000D+00  0.0000000000000D+00  0.0000000000000D+00
   420  4.1900000000000D+00  0.0000000000000D+00  0.0000000000000D+00
   421  4.2000000000000D+00  0.0000000000000D+00  0.0000000000000D+00
   422  4.2100000000000D+00  0.0000000000000D+00  0.0000000000000D+00
   423  4.2200000000000D+00  0.0000000000000D+00  0.0000000000000D+00