Be    ONCVPSP-3.3.1  r_core=   2.37691   1.91763
      4.0000      4.0000      210904    zatom,zion,pspd
     8      11   1     4   600     0    pspcod,pspxc,lmax,lloc,mmax,r2well
  5.99000000  0.00000000  0.00000000    rchrg fchrg qchrg
     2     2     0     0    nproj
     3     1           extension_switch
     3     0     0    nprojso
   0                        -8.8126823853021D+00 -2.3619255615819D+00
     1  0.0000000000000D+00 -8.1301743115603D-11  2.0494755892386D-10
     2  1.0000000000000D-02  7.6134302571714D-02 -4.7666816669392D-02
     3  2.0000000000000D-02  1.5207750243877D-01 -9.5078492195441D-02
     4  3.0000000000000D-02  2.2763923711288D-01 -1.4198123646456D-01
     5  4.0000000000000D-02  3.0263062088422D-01 -1.8812395333195D-01
     6  5.0000000000000D-02  3.7686497409569D-01 -2.3325956743142D-01
     7  6.0000000000000D-02  4.5015854153685D-01 -2.7714632692112D-01
     8  7.0000000000000D-02  5.2233119642649D-01 -3.1954907438562D-01
     9  8.0000000000000D-02  5.9320712653422D-01 -3.6024047831933D-01
    10  9.0000000000000D-02  6.6261549909190D-01 -3.9900221787005D-01
    11  1.0000000000000D-01  7.3039110126548D-01 -4.3562611382188D-01
    12  1.1000000000000D-01  7.9637495309510D-01 -4.6991519914185D-01
    13  1.2000000000000D-01  8.6041488996607D-01 -5.0168472280283D-01
    14  1.3000000000000D-01  9.2236611184439D-01 -5.3076308102267D-01
    15  1.4000000000000D-01  9.8209169669625D-01 -5.5699267052460D-01
    16  1.5000000000000D-01  1.0394630757116D+00 -5.8023065892244D-01
    17  1.6000000000000D-01  1.0943604681645D+00 -6.0034966786352D-01
    18  1.7000000000000D-01  1.1466732739677D+00 -6.1723836511820D-01
    19  1.8000000000000D-01  1.1963004222136D+00 -6.3080196238449D-01
    20  1.9000000000000D-01  1.2431506742375D+00 -6.4096261617497D-01
    21  2.0000000000000D-01  1.2871428799889D+00 -6.4765972976737D-01
    22  2.1000000000000D-01  1.3282061867549D+00 -6.5085015482548D-01
    23  2.2000000000000D-01  1.3662801995381D+00 -6.5050829192970D-01
    24  2.3000000000000D-01  1.4013150926571D+00 -6.4662608989163D-01
    25  2.4000000000000D-01  1.4332716724011D+00 -6.3921294436162D-01
    26  2.5000000000000D-01  1.4621213908338D+00 -6.2829549686622D-01
    27  2.6000000000000D-01  1.4878463111046D+00 -6.1391733603182D-01
    28  2.7000000000000D-01  1.5104390248831D+00 -5.9613860335602D-01
    29  2.8000000000000D-01  1.5299025227865D+00 -5.7503550647562D-01
    30  2.9000000000000D-01  1.5462500189146D+00 -5.5069974344700D-01
    31  3.0000000000000D-01  1.5595047308492D+00 -5.2323784209520D-01
    32  3.1000000000000D-01  1.5696996166997D+00 -4.9277041900137D-01
    33  3.2000000000000D-01  1.5768770709993D+00 -4.5943136317887D-01
    34  3.3000000000000D-01  1.5810885814604D+00 -4.2336694993474D-01
    35  3.4000000000000D-01  1.5823943487921D+00 -3.8473489082205D-01
    36  3.5000000000000D-01  1.5808628719634D+00 -3.4370332595725D-01
    37  3.6000000000000D-01  1.5765705014586D+00 -3.0044976530365D-01
    38  3.7000000000000D-01  1.5696009632210D+00 -2.5515998580412D-01
    39  3.8000000000000D-01  1.5600448561130D+00 -2.0802689148364D-01
    40  3.9000000000000D-01  1.5479991258352D+00 -1.5924934383187D-01
    41  4.0000000000000D-01  1.5335665183422D+00 -1.0903096991824D-01
    42  4.1000000000000D-01  1.5168550158754D+00 -5.7578955785849D-02
    43  4.2000000000000D-01  1.4979772587878D+00 -5.1028327153839D-03
    44  4.3000000000000D-01  1.4770499563809D+00  4.8186736053092D-02
    45  4.4000000000000D-01  1.4541932899944D+00  1.0207916060451D-01
    46  4.5000000000000D-01  1.4295303115929D+00  1.5636511420231D-01
    47  4.6000000000000D-01  1.4031863410794D+00  2.1083770041969D-01
    48  4.7000000000000D-01  1.3752883655321D+00  2.6529359044749D-01
    49  4.8000000000000D-01  1.3459644435083D+00  3.1953412371136D-01
    50  4.9000000000000D-01  1.3153431174926D+00  3.7336636520593D-01
    51  5.0000000000000D-01  1.2835528374806D+00  4.2660411326752D-01
    52  5.1000000000000D-01  1.2507213985864D+00  4.7906885185760D-01
    53  5.2000000000000D-01  1.2169753954475D+00  5.3059064181364D-01
    54  5.3000000000000D-01  1.1824396960692D+00  5.8100894593905D-01
    55  5.4000000000000D-01  1.1472369376050D+00  6.3017338324661D-01
    56  5.5000000000000D-01  1.1114870464143D+00  6.7794440813762D-01
    57  5.6000000000000D-01  1.0753067845713D+00  7.2419391078641D-01
    58  5.7000000000000D-01  1.0388093248178D+00  7.6880573550595D-01
    59  5.8000000000000D-01  1.0021038557714D+00  8.1167611438934D-01
    60  5.9000000000000D-01  9.6529521900161D-01  8.5271401405088D-01
    61  6.0000000000000D-01  9.2848357938829D-01  8.9184139382633D-01
    62  6.1000000000000D-01  8.9176412997286D-01  9.2899337432926D-01
    63  6.2000000000000D-01  8.5522683230144D-01  9.6411831579693D-01
    64  6.3000000000000D-01  8.1895619305020D-01  9.9717780619155D-01
    65  6.4000000000000D-01  7.8303107751167D-01  1.0281465595437D+00
    66  6.5000000000000D-01  7.4752456030855D-01  1.0570122255374D+00
    67  6.6000000000000D-01  7.1250381349337D-01  1.0837751118304D+00
    68  6.7000000000000D-01  6.7803003198633D-01  1.1084478210797D+00
    69  6.8000000000000D-01  6.4415839610128D-01  1.1310548050951D+00
    70  6.9000000000000D-01  6.1093807071436D-01  1.1516318389782D+00
    71  7.0000000000000D-01  5.7841224044017D-01  1.1702254184985D+00
    72  7.1000000000000D-01  5.4661817999903D-01  1.1868920843374D+00
    73  7.2000000000000D-01  5.1558735878594D-01  1.2016976771672D+00
    74  7.3000000000000D-01  4.8534557848894D-01  1.2147165278387D+00
    75  7.4000000000000D-01  4.5591314245244D-01  1.2260305872215D+00
    76  7.5000000000000D-01  4.2730505534011D-01  1.2357285004741D+00
    77  7.6000000000000D-01  3.9953125152329D-01  1.2439046307149D+00
    78  7.7000000000000D-01  3.7259685050459D-01  1.2506580372215D+00
    79  7.8000000000000D-01  3.4650243758381D-01  1.2560914134018D+00
    80  7.9000000000000D-01  3.2124436788400D-01  1.2603099898567D+00
    81  8.0000000000000D-01  2.9681509178033D-01  1.2634204078907D+00
    82  8.1000000000000D-01  2.7320349971334D-01  1.2655295688243D+00
    83  8.2000000000000D-01  2.5039528432130D-01  1.2667434644219D+00
    84  8.3000000000000D-01  2.2837331779390D-01  1.2671659936683D+00
    85  8.4000000000000D-01  2.0711804233128D-01  1.2668977710150D+00
    86  8.5000000000000D-01  1.8660787158786D-01  1.2660349310642D+00
    87  8.6000000000000D-01  1.6681960098993D-01  1.2646679344794D+00
    88  8.7000000000000D-01  1.4772882483892D-01  1.2628803796937D+00
    89  8.8000000000000D-01  1.2931035814750D-01  1.2607478247486D+00
    90  8.9000000000000D-01  1.1153866120417D-01  1.2583366233223D+00
    91  9.0000000000000D-01  9.4388264921466D-02  1.2557027787188D+00
    92  9.1000000000000D-01  7.7834195094023D-02  1.2528908192691D+00
    93  9.2000000000000D-01  6.1852393773656D-02  1.2499326982693D+00
    94  9.3000000000000D-01  4.6420136059638D-02  1.2468467212289D+00
    95  9.4000000000000D-01  3.1516440701455D-02  1.2436365028436D+00
    96  9.5000000000000D-01  1.7122473018514D-02  1.2402899557408D+00
    97  9.6000000000000D-01  3.2219387551224D-03  1.2367783126661D+00
    98  9.7000000000000D-01 -1.0198532391609D-02  1.2330551834085D+00
    99  9.8000000000000D-01 -2.3149014706709D-02  1.2290556473741D+00
   100  9.9000000000000D-01 -3.5635926867865D-02  1.2246953823627D+00
   101  1.0000000000000D+00 -4.7661685932345D-02  1.2198698326258D+00
   102  1.0100000000000D+00 -5.9224377139740D-02  1.2144534310640D+00
   103  1.0200000000000D+00 -7.0317418350956D-02  1.2082986244340D+00
   104  1.0300000000000D+00 -8.0929301724278D-02  1.2012356687085D+00
   105  1.0400000000000D+00 -9.1043300838501D-02  1.1930719063723D+00
   106  1.0500000000000D+00 -1.0063606565211D-01  1.1835768259066D+00
   107  1.0600000000000D+00 -1.0967667178220D-01  1.1724772001997D+00
   108  1.0700000000000D+00 -1.1812747750835D-01  1.1594726709327D+00
   109  1.0800000000000D+00 -1.2594671402054D-01  1.1442653432870D+00
   110  1.0900000000000D+00 -1.3309208456112D-01  1.1265916820079D+00
   111  1.1000000000000D+00 -1.3952513449867D-01  1.1062549633981D+00
   112  1.1100000000000D+00 -1.4521570717441D-01  1.0831524155844D+00
   113  1.1200000000000D+00 -1.5014574206435D-01  1.0572923182363D+00
   114  1.1300000000000D+00 -1.5431177746319D-01  1.0287980834896D+00
   115  1.1400000000000D+00 -1.5772573471814D-01  9.9789854454595D-01
   116  1.1500000000000D+00 -1.6041388880889D-01  9.6490646821552D-01
   117  1.1600000000000D+00 -1.6241438010841D-01  9.3018983759670D-01
   118  1.1700000000000D+00 -1.6377376871866D-01  8.9414063822116D-01
   119  1.1800000000000D+00 -1.6454326769211D-01  8.5714606663761D-01
   120  1.1900000000000D+00 -1.6477527234632D-01  8.1956578976769D-01
   121  1.2000000000000D+00 -1.6452054307276D-01  7.8171660513624D-01
   122  1.2100000000000D+00 -1.6382624018047D-01  7.4386474161925D-01
   123  1.2200000000000D+00 -1.6273486066279D-01  7.0622479135876D-01
   124  1.2300000000000D+00 -1.6128388278463D-01  6.6896318670410D-01
   125  1.2400000000000D+00 -1.5950597602042D-01  6.3220470892685D-01
   126  1.2500000000000D+00 -1.5742955270812D-01  5.9604017539498D-01
   127  1.2600000000000D+00 -1.5507948258528D-01  5.6053418462400D-01
   128  1.2700000000000D+00 -1.5247785404784D-01  5.2573221464954D-01
   129  1.2800000000000D+00 -1.4964467130035D-01  4.9166651161031D-01
   130  1.2900000000000D+00 -1.4659845266626D-01  4.5836076850577D-01
   131  1.3000000000000D+00 -1.4335671088433D-01  4.2583361255396D-01
   132  1.3100000000000D+00 -1.3993630656989D-01  3.9410101915805D-01
   133  1.3200000000000D+00 -1.3635369743961D-01  3.6317790023663D-01
   134  1.3300000000000D+00 -1.3262509490722D-01  3.3307901335686D-01
   135  1.3400000000000D+00 -1.2876654952568D-01  3.0381940629313D-01
   136  1.3500000000000D+00 -1.2479398313158D-01  2.7541452156458D-01
   137  1.3600000000000D+00 -1.2072318117214D-01  2.4788007498223D-01
   138  1.3700000000000D+00 -1.1656976156804D-01  2.2123182202419D-01
   139  1.3800000000000D+00 -1.1234912573779D-01  1.9548524101207D-01
   140  1.3900000000000D+00 -1.0807640215957D-01  1.7065520302533D-01
   141  1.4000000000000D+00 -1.0376638684654D-01  1.4675564753176D-01
   142  1.4100000000000D+00 -9.9433483406679D-02  1.2379927721807D-01
   143  1.4200000000000D+00 -9.5091647239856D-02  1.0179729423551D-01
   144  1.4300000000000D+00 -9.0754333239717D-02  8.0759169703521D-02
   145  1.4400000000000D+00 -8.6434449275348D-02  6.0692456131352D-02
   146  1.4500000000000D+00 -8.2144315315683D-02  4.1602637848586D-02
   147  1.4600000000000D+00 -7.7895628236383D-02  2.3493017806340D-02
   148  1.4700000000000D+00 -7.3699432567463D-02  6.3646382055336D-03
   149  1.4800000000000D+00 -6.9566096585813D-02 -9.7837689378127D-03
   150  1.4900000000000D+00 -6.5505293765125D-02 -2.4955804138539D-02
   151  1.5000000000000D+00 -6.1525989114402D-02 -3.9157398966230D-02
   152  1.5100000000000D+00 -5.7636430179901D-02 -5.2396793295569D-02
   153  1.5200000000000D+00 -5.3844142339704D-02 -6.4684494400817D-02
   154  1.5300000000000D+00 -5.0155928150687D-02 -7.6033219326298D-02
   155  1.5400000000000D+00 -4.6577870389206D-02 -8.6457823727581D-02
   156  1.5500000000000D+00 -4.3115338588233D-02 -9.5975217818891D-02
   157  1.5600000000000D+00 -3.9772998735375D-02 -1.0460427220646D-01
   158  1.5700000000000D+00 -3.6554825944034D-02 -1.1236571419096D-01
   159  1.5800000000000D+00 -3.3464119810893D-02 -1.1928201656526D-01
   160  1.5900000000000D+00 -3.0503522259138D-02 -1.2537727970908D-01
   161  1.6000000000000D+00 -2.7675037626438D-02 -1.3067710836526D-01
   162  1.6100000000000D+00 -2.4980054785411D-02 -1.3520848405887D-01
   163  1.6200000000000D+00 -2.2419371089968D-02 -1.3899963410710D-01
   164  1.6300000000000D+00 -1.9993217927097D-02 -1.4207989825975D-01
   165  1.6400000000000D+00 -1.7701287695241D-02 -1.4447959362253D-01
   166  1.6500000000000D+00 -1.5542761982918D-02 -1.4622987892687D-01
   167  1.6600000000000D+00 -1.3516340794857D-02 -1.4736261858593D-01
   168  1.6700000000000D+00 -1.1620272593444D-02 -1.4791024759704D-01
   169  1.6800000000000D+00 -9.8523850301158D-03 -1.4790563756260D-01
   170  1.6900000000000D+00 -8.2101161291874D-03 -1.4738196486839D-01
   171  1.7000000000000D+00 -6.6905458269697D-03 -1.4637258115392D-01
   172  1.7100000000000D+00 -5.2904276258505D-03 -1.4491088707373D-01
   173  1.7200000000000D+00 -4.0062202931408D-03 -1.4303020937500D-01
   174  1.7300000000000D+00 -2.8341193664048D-03 -1.4076368222771D-01
   175  1.7400000000000D+00 -1.7700884175876D-03 -1.3814413275632D-01
   176  1.7500000000000D+00 -8.0988984861177D-04 -1.3520397161080D-01
   177  1.7600000000000D+00  5.0884815528151D-05 -1.3197508849436D-01
   178  1.7700000000000D+00  8.1678534040527D-04 -1.2848875334360D-01
   179  1.7800000000000D+00  1.4924739357243D-03 -1.2477552310066D-01
   180  1.7900000000000D+00  2.0826973132303D-03 -1.2086515457445D-01
   181  1.8000000000000D+00  2.5922596987347D-03 -1.1678652341705D-01
   182  1.8100000000000D+00  3.0259969036002D-03 -1.1256754945379D-01
   183  1.8200000000000D+00  3.3887515421911D-03 -1.0823512854717D-01
   184  1.8300000000000D+00  3.6853494201742D-03 -1.0381507091294D-01
   185  1.8400000000000D+00  3.9205772380405D-03 -9.9332046285510D-02
   186  1.8500000000000D+00  4.0991615348451D-03 -9.4809535484782D-02
   187  1.8600000000000D+00  4.2257490899965D-03 -9.0269789032491D-02
   188  1.8700000000000D+00  4.3048886037864D-03 -8.5733792017846D-02
   189  1.8800000000000D+00  4.3410139274493D-03 -8.1221236016920D-02
   190  1.8900000000000D+00  4.3384286263697D-03 -7.6750497168730D-02
   191  1.9000000000000D+00  4.3012920901841D-03 -7.2338620982234D-02
   192  1.9100000000000D+00  4.2336070536009D-03 -6.8001313279086D-02
   193  1.9200000000000D+00  4.1392086015514D-03 -6.3752937358762D-02
   194  1.9300000000000D+00  4.0217546505129D-03 -5.9606517217942D-02
   195  1.9400000000000D+00  3.8847178160997D-03 -5.5573746393801D-02
   196  1.9500000000000D+00  3.7313787931764D-03 -5.1665002663787D-02
   197  1.9600000000000D+00  3.5648210201034D-03 -4.7889367781667D-02
   198  1.9700000000000D+00  3.3879268187771D-03 -4.4254652639132D-02
   199  1.9800000000000D+00  3.2033747731008D-03 -4.0767427043517D-02
   200  1.9900000000000D+00  3.0136384365970D-03 -3.7433054189105D-02
   201  2.0000000000000D+00  2.8209862735965D-03 -3.4255729415716D-02
   202  2.0100000000000D+00  2.6274827452888D-03 -3.1238522864901D-02
   203  2.0200000000000D+00  2.4349905900530D-03 -2.8383425965995D-02
   204  2.0300000000000D+00  2.2451740931805D-03 -2.5691401133310D-02
   205  2.0400000000000D+00  2.0595034288353D-03 -2.3162434625639D-02
   206  2.0500000000000D+00  1.8792598998995D-03 -2.0795592063055D-02
   207  2.0600000000000D+00  1.7055420536395D-03 -1.8589076331332D-02
   208  2.0700000000000D+00  1.5392726171444D-03 -1.6540287548960D-02
   209  2.0800000000000D+00  1.3812061230040D-03 -1.4645884757641D-02
   210  2.0900000000000D+00  1.2319372209014D-03 -1.2901848940883D-02
   211  2.1000000000000D+00  1.0919095460397D-03 -1.1303547157275D-02
   212  2.1100000000000D+00  9.6142509201518D-04 -9.8457973400476D-03
   213  2.1200000000000D+00  8.4065400708031D-04 -8.5229334390610D-03
   214  2.1300000000000D+00  7.2964475022274D-04 -7.3288708003532D-03
   215  2.1400000000000D+00  6.2833449240280D-04 -6.2571710207679D-03
   216  2.1500000000000D+00  5.3655974513662D-04 -5.3011064917608D-03
   217  2.1600000000000D+00  4.5406709625130D-04 -4.4537239735749D-03
   218  2.1700000000000D+00  3.8052397333579D-04 -3.7079068840084D-03
   219  2.1800000000000D+00  3.1552945477939D-04 -3.0564365388110D-03
   220  2.1900000000000D+00  2.5862489621657D-04 -2.4920511884930D-03
   221  2.2000000000000D+00  2.0930446773516D-04 -2.0075034451437D-03
   222  2.2100000000000D+00  1.6702546904401D-04 -1.5956155011249D-03
   223  2.2200000000000D+00  1.3121828469249D-04 -1.2493315516283D-03
   224  2.2300000000000D+00  1.0129612176471D-04 -9.6176813424874D-04
   225  2.2400000000000D+00  7.6664241216264D-05 -7.2626112819968D-04
   226  2.2500000000000D+00  5.6728754987796D-05 -5.3640978206817D-04
   227  2.2600000000000D+00  4.0905046157956D-05 -3.8611804469771D-04
   228  2.2700000000000D+00  2.8625447328410D-05 -2.6963168788004D-04
   229  2.2800000000000D+00  1.9346497832336D-05 -1.8157260172692D-04
   230  2.2900000000000D+00  1.2555560004142D-05 -1.1696937533659D-04
   231  2.3000000000000D+00  7.7776234051796D-06 -7.1285481678573D-05
   232  2.3100000000000D+00  4.5773312878893D-06 -4.0436313679131D-05
   233  2.3200000000000D+00  2.5659916746621D-06 -2.0812806444371D-05
   234  2.3300000000000D+00  1.4031906995956D-06 -9.3190452126388D-06
   235  2.3400000000000D+00  8.1588284858877D-07 -3.3092716749349D-06
   236  2.3500000000000D+00  5.8328670332530D-07 -6.6482682398771D-07
   237  2.3600000000000D+00  5.3937157746014D-07  2.2706240764863D-07
   238  2.3700000000000D+00  5.3060434063306D-07  3.1013955471908D-07
   239  2.3800000000000D+00  4.5637342640499D-07  1.5233671046829D-07
   240  2.3900000000000D+00  2.8337367648262D-07  1.2949414813402D-08
   241  2.4000000000000D+00  8.9400335652798D-08 -1.7505885025035D-08
   242  2.4100000000000D+00 -3.4503506866369D-08 -3.3409674664283D-10
   243  2.4200000000000D+00 -5.3964199124187D-08  5.0075317777918D-09
   244  2.4300000000000D+00 -2.0453222424507D-08  3.7025158605693D-09
   245  2.4400000000000D+00  7.6734208094595D-09  5.2992779304489D-09
   246  2.4500000000000D+00  1.1240227195579D-08  7.9144305974383D-09
   247  2.4600000000000D+00  3.8318055085391D-09  2.7410012926666D-09
   248  2.4700000000000D+00 -9.7993991167343D-10 -4.1519269978662D-10
   249  2.4800000000000D+00 -1.3586424059470D-09 -5.7564591649955D-10
   250  2.4900000000000D+00 -4.2498439854631D-10 -1.8006248923805D-10
   251  2.5000000000000D+00  0.0000000000000D+00  0.0000000000000D+00
   252  2.5100000000000D+00  0.0000000000000D+00  0.0000000000000D+00
   253  2.5200000000000D+00  0.0000000000000D+00  0.0000000000000D+00
   254  2.5300000000000D+00  0.0000000000000D+00  0.0000000000000D+00
   255  2.5400000000000D+00  0.0000000000000D+00  0.0000000000000D+00
   256  2.5500000000000D+00  0.0000000000000D+00  0.0000000000000D+00
   257  2.5600000000000D+00  0.0000000000000D+00  0.0000000000000D+00
   258  2.5700000000000D+00  0.0000000000000D+00  0.0000000000000D+00
   259  2.5800000000000D+00  0.0000000000000D+00  0.0000000000000D+00
   260  2.5900000000000D+00  0.0000000000000D+00  0.0000000000000D+00
   261  2.6000000000000D+00  0.0000000000000D+00  0.0000000000000D+00
   262  2.6100000000000D+00  0.0000000000000D+00  0.0000000000000D+00
   263  2.6200000000000D+00  0.0000000000000D+00  0.0000000000000D+00
   264  2.6300000000000D+00  0.0000000000000D+00  0.0000000000000D+00
   265  2.6400000000000D+00  0.0000000000000D+00  0.0000000000000D+00
   266  2.6500000000000D+00  0.0000000000000D+00  0.0000000000000D+00
   267  2.6600000000000D+00  0.0000000000000D+00  0.0000000000000D+00
   268  2.6700000000000D+00  0.0000000000000D+00  0.0000000000000D+00
   269  2.6800000000000D+00  0.0000000000000D+00  0.0000000000000D+00
   270  2.6900000000000D+00  0.0000000000000D+00  0.0000000000000D+00
   271  2.7000000000000D+00  0.0000000000000D+00  0.0000000000000D+00
   272  2.7100000000000D+00  0.0000000000000D+00  0.0000000000000D+00
   273  2.7200000000000D+00  0.0000000000000D+00  0.0000000000000D+00
   274  2.7300000000000D+00  0.0000000000000D+00  0.0000000000000D+00
   275  2.7400000000000D+00  0.0000000000000D+00  0.0000000000000D+00
   276  2.7500000000000D+00  0.0000000000000D+00  0.0000000000000D+00
   277  2.7600000000000D+00  0.0000000000000D+00  0.0000000000000D+00
   278  2.7700000000000D+00  0.0000000000000D+00  0.0000000000000D+00
   279  2.7800000000000D+00  0.0000000000000D+00  0.0000000000000D+00
   280  2.7900000000000D+00  0.0000000000000D+00  0.0000000000000D+00
   281  2.8000000000000D+00  0.0000000000000D+00  0.0000000000000D+00
   282  2.8100000000000D+00  0.0000000000000D+00  0.0000000000000D+00
   283  2.8200000000000D+00  0.0000000000000D+00  0.0000000000000D+00
   284  2.8300000000000D+00  0.0000000000000D+00  0.0000000000000D+00
   285  2.8400000000000D+00  0.0000000000000D+00  0.0000000000000D+00
   286  2.8500000000000D+00  0.0000000000000D+00  0.0000000000000D+00
   287  2.8600000000000D+00  0.0000000000000D+00  0.0000000000000D+00
   288  2.8700000000000D+00  0.0000000000000D+00  0.0000000000000D+00
   289  2.8800000000000D+00  0.0000000000000D+00  0.0000000000000D+00
   290  2.8900000000000D+00  0.0000000000000D+00  0.0000000000000D+00
   291  2.9000000000000D+00  0.0000000000000D+00  0.0000000000000D+00
   292  2.9100000000000D+00  0.0000000000000D+00  0.0000000000000D+00
   293  2.9200000000000D+00  0.0000000000000D+00  0.0000000000000D+00
   294  2.9300000000000D+00  0.0000000000000D+00  0.0000000000000D+00
   295  2.9400000000000D+00  0.0000000000000D+00  0.0000000000000D+00
   296  2.9500000000000D+00  0.0000000000000D+00  0.0000000000000D+00
   297  2.9600000000000D+00  0.0000000000000D+00  0.0000000000000D+00
   298  2.9700000000000D+00  0.0000000000000D+00  0.0000000000000D+00
   299  2.9800000000000D+00  0.0000000000000D+00  0.0000000000000D+00
   300  2.9900000000000D+00  0.0000000000000D+00  0.0000000000000D+00
   301  3.0000000000000D+00  0.0000000000000D+00  0.0000000000000D+00
   302  3.0100000000000D+00  0.0000000000000D+00  0.0000000000000D+00
   303  3.0200000000000D+00  0.0000000000000D+00  0.0000000000000D+00
   304  3.0300000000000D+00  0.0000000000000D+00  0.0000000000000D+00
   305  3.0400000000000D+00  0.0000000000000D+00  0.0000000000000D+00
   306  3.0500000000000D+00  0.0000000000000D+00  0.0000000000000D+00
   307  3.0600000000000D+00  0.0000000000000D+00  0.0000000000000D+00
   308  3.0700000000000D+00  0.0000000000000D+00  0.0000000000000D+00
   309  3.0800000000000D+00  0.0000000000000D+00  0.0000000000000D+00
   310  3.0900000000000D+00  0.0000000000000D+00  0.0000000000000D+00
   311  3.1000000000000D+00  0.0000000000000D+00  0.0000000000000D+00
   312  3.1100000000000D+00  0.0000000000000D+00  0.0000000000000D+00
   313  3.1200000000000D+00  0.0000000000000D+00  0.0000000000000D+00
   314  3.1300000000000D+00  0.0000000000000D+00  0.0000000000000D+00
   315  3.1400000000000D+00  0.0000000000000D+00  0.0000000000000D+00
   316  3.1500000000000D+00  0.0000000000000D+00  0.0000000000000D+00
   317  3.1600000000000D+00  0.0000000000000D+00  0.0000000000000D+00
   318  3.1700000000000D+00  0.0000000000000D+00  0.0000000000000D+00
   319  3.1800000000000D+00  0.0000000000000D+00  0.0000000000000D+00
   320  3.1900000000000D+00  0.0000000000000D+00  0.0000000000000D+00
   321  3.2000000000000D+00  0.0000000000000D+00  0.0000000000000D+00
   322  3.2100000000000D+00  0.0000000000000D+00  0.0000000000000D+00
   323  3.2200000000000D+00  0.0000000000000D+00  0.0000000000000D+00
   324  3.2300000000000D+00  0.0000000000000D+00  0.0000000000000D+00
   325  3.2400000000000D+00  0.0000000000000D+00  0.0000000000000D+00
   326  3.2500000000000D+00  0.0000000000000D+00  0.0000000000000D+00
   327  3.2600000000000D+00  0.0000000000000D+00  0.0000000000000D+00
   328  3.2700000000000D+00  0.0000000000000D+00  0.0000000000000D+00
   329  3.2800000000000D+00  0.0000000000000D+00  0.0000000000000D+00
   330  3.2900000000000D+00  0.0000000000000D+00  0.0000000000000D+00
   331  3.3000000000000D+00  0.0000000000000D+00  0.0000000000000D+00
   332  3.3100000000000D+00  0.0000000000000D+00  0.0000000000000D+00
   333  3.3200000000000D+00  0.0000000000000D+00  0.0000000000000D+00
   334  3.3300000000000D+00  0.0000000000000D+00  0.0000000000000D+00
   335  3.3400000000000D+00  0.0000000000000D+00  0.0000000000000D+00
   336  3.3500000000000D+00  0.0000000000000D+00  0.0000000000000D+00
   337  3.3600000000000D+00  0.0000000000000D+00  0.0000000000000D+00
   338  3.3700000000000D+00  0.0000000000000D+00  0.0000000000000D+00
   339  3.3800000000000D+00  0.0000000000000D+00  0.0000000000000D+00
   340  3.3900000000000D+00  0.0000000000000D+00  0.0000000000000D+00
   341  3.4000000000000D+00  0.0000000000000D+00  0.0000000000000D+00
   342  3.4100000000000D+00  0.0000000000000D+00  0.0000000000000D+00
   343  3.4200000000000D+00  0.0000000000000D+00  0.0000000000000D+00
   344  3.4300000000000D+00  0.0000000000000D+00  0.0000000000000D+00
   345  3.4400000000000D+00  0.0000000000000D+00  0.0000000000000D+00
   346  3.4500000000000D+00  0.0000000000000D+00  0.0000000000000D+00
   347  3.4600000000000D+00  0.0000000000000D+00  0.0000000000000D+00
   348  3.4700000000000D+00  0.0000000000000D+00  0.0000000000000D+00
   349  3.4800000000000D+00  0.0000000000000D+00  0.0000000000000D+00
   350  3.4900000000000D+00  0.0000000000000D+00  0.0000000000000D+00
   351  3.5000000000000D+00  0.0000000000000D+00  0.0000000000000D+00
   352  3.5100000000000D+00  0.0000000000000D+00  0.0000000000000D+00
   353  3.5200000000000D+00  0.0000000000000D+00  0.0000000000000D+00
   354  3.5300000000000D+00  0.0000000000000D+00  0.0000000000000D+00
   355  3.5400000000000D+00  0.0000000000000D+00  0.0000000000000D+00
   356  3.5500000000000D+00  0.0000000000000D+00  0.0000000000000D+00
   357  3.5600000000000D+00  0.0000000000000D+00  0.0000000000000D+00
   358  3.5700000000000D+00  0.0000000000000D+00  0.0000000000000D+00
   359  3.5800000000000D+00  0.0000000000000D+00  0.0000000000000D+00
   360  3.5900000000000D+00  0.0000000000000D+00  0.0000000000000D+00
   361  3.6000000000000D+00  0.0000000000000D+00  0.0000000000000D+00
   362  3.6100000000000D+00  0.0000000000000D+00  0.0000000000000D+00
   363  3.6200000000000D+00  0.0000000000000D+00  0.0000000000000D+00
   364  3.6300000000000D+00  0.0000000000000D+00  0.0000000000000D+00
   365  3.6400000000000D+00  0.0000000000000D+00  0.0000000000000D+00
   366  3.6500000000000D+00  0.0000000000000D+00  0.0000000000000D+00
   367  3.6600000000000D+00  0.0000000000000D+00  0.0000000000000D+00
   368  3.6700000000000D+00  0.0000000000000D+00  0.0000000000000D+00
   369  3.6800000000000D+00  0.0000000000000D+00  0.0000000000000D+00
   370  3.6900000000000D+00  0.0000000000000D+00  0.0000000000000D+00
   371  3.7000000000000D+00  0.0000000000000D+00  0.0000000000000D+00
   372  3.7100000000000D+00  0.0000000000000D+00  0.0000000000000D+00
   373  3.7200000000000D+00  0.0000000000000D+00  0.0000000000000D+00
   374  3.7300000000000D+00  0.0000000000000D+00  0.0000000000000D+00
   375  3.7400000000000D+00  0.0000000000000D+00  0.0000000000000D+00
   376  3.7500000000000D+00  0.0000000000000D+00  0.0000000000000D+00
   377  3.7600000000000D+00  0.0000000000000D+00  0.0000000000000D+00
   378  3.7700000000000D+00  0.0000000000000D+00  0.0000000000000D+00
   379  3.7800000000000D+00  0.0000000000000D+00  0.0000000000000D+00
   380  3.7900000000000D+00  0.0000000000000D+00  0.0000000000000D+00
   381  3.8000000000000D+00  0.0000000000000D+00  0.0000000000000D+00
   382  3.8100000000000D+00  0.0000000000000D+00  0.0000000000000D+00
   383  3.8200000000000D+00  0.0000000000000D+00  0.0000000000000D+00
   384  3.8300000000000D+00  0.0000000000000D+00  0.0000000000000D+00
   385  3.8400000000000D+00  0.0000000000000D+00  0.0000000000000D+00
   386  3.8500000000000D+00  0.0000000000000D+00  0.0000000000000D+00
   387  3.8600000000000D+00  0.0000000000000D+00  0.0000000000000D+00
   388  3.8700000000000D+00  0.0000000000000D+00  0.0000000000000D+00
   389  3.8800000000000D+00  0.0000000000000D+00  0.0000000000000D+00
   390  3.8900000000000D+00  0.0000000000000D+00  0.0000000000000D+00
   391  3.9000000000000D+00  0.0000000000000D+00  0.0000000000000D+00
   392  3.9100000000000D+00  0.0000000000000D+00  0.0000000000000D+00
   393  3.9200000000000D+00  0.0000000000000D+00  0.0000000000000D+00
   394  3.9300000000000D+00  0.0000000000000D+00  0.0000000000000D+00
   395  3.9400000000000D+00  0.0000000000000D+00  0.0000000000000D+00
   396  3.9500000000000D+00  0.0000000000000D+00  0.0000000000000D+00
   397  3.9600000000000D+00  0.0000000000000D+00  0.0000000000000D+00
   398  3.9700000000000D+00  0.0000000000000D+00  0.0000000000000D+00
   399  3.9800000000000D+00  0.0000000000000D+00  0.0000000000000D+00
   400  3.9900000000000D+00  0.0000000000000D+00  0.0000000000000D+00
   401  4.0000000000000D+00  0.0000000000000D+00  0.0000000000000D+00
   402  4.0100000000000D+00  0.0000000000000D+00  0.0000000000000D+00
   403  4.0200000000000D+00  0.0000000000000D+00  0.0000000000000D+00
   404  4.0300000000000D+00  0.0000000000000D+00  0.0000000000000D+00
   405  4.0400000000000D+00  0.0000000000000D+00  0.0000000000000D+00
   406  4.0500000000000D+00  0.0000000000000D+00  0.0000000000000D+00
   407  4.0600000000000D+00  0.0000000000000D+00  0.0000000000000D+00
   408  4.0700000000000D+00  0.0000000000000D+00  0.0000000000000D+00
   409  4.0800000000000D+00  0.0000000000000D+00  0.0000000000000D+00
   410  4.0900000000000D+00  0.0000000000000D+00  0.0000000000000D+00
   411  4.1000000000000D+00  0.0000000000000D+00  0.0000000000000D+00
   412  4.1100000000000D+00  0.0000000000000D+00  0.0000000000000D+00
   413  4.1200000000000D+00  0.0000000000000D+00  0.0000000000000D+00
   414  4.1300000000000D+00  0.0000000000000D+00  0.0000000000000D+00
   415  4.1400000000000D+00  0.0000000000000D+00  0.0000000000000D+00
   416  4.1500000000000D+00  0.0000000000000D+00  0.0000000000000D+00
   417  4.1600000000000D+00  0.0000000000000D+00  0.0000000000000D+00
   418  4.1700000000000D+00  0.0000000000000D+00  0.0000000000000D+00
   419  4.1800000000000D+00  0.0000000000000D+00  0.0000000000000D+00
   420  4.1900000000000D+00  0.0000000000000D+00  0.0000000000000D+00
   421  4.2000000000000D+00  0.0000000000000D+00  0.0000000000000D+00
   422  4.2100000000000D+00  0.0000000000000D+00  0.0000000000000D+00