Br    ONCVPSP-3.3.1  r_core=   2.49793   2.49793   2.49793
     35.0000      7.0000      210904    zatom,zion,pspd
     8      11   2     4   600     0    pspcod,pspxc,lmax,lloc,mmax,r2well
  5.99000000  0.00000000  0.00000000    rchrg fchrg qchrg
     2     2     2     0     0    nproj
     1     1           extension_switch
   0                        -3.7709826641046D+00  1.7427514797509D+00
     1  0.0000000000000D+00  2.2915558339776D-11 -1.4869133702078D-11
     2  1.0000000000000D-02  3.3122123131264D-02  2.2567340736649D-02
     3  2.0000000000000D-02  6.6233514614603D-02  4.5104377347312D-02
     4  3.0000000000000D-02  9.9323276644455D-02  6.7580950792207D-02
     5  4.0000000000000D-02  1.3238018022515D-01  8.9967191442027D-02
     6  5.0000000000000D-02  1.6539250238300D-01  1.1223366188210D-01
     7  6.0000000000000D-02  1.9834786673075D-01  1.3435149744577D-01
     8  7.0000000000000D-02  2.3123308847492D-01  1.5629254373751D-01
     9  8.0000000000000D-02  2.6403402493369D-01  1.7802949042126D-01
    10  9.0000000000000D-02  2.9673543260450D-01  1.9953600056766D-01
    11  1.0000000000000D-01  3.2932083178674D-01  2.2078683487626D-01
    12  1.1000000000000D-01  3.6177237972590D-01  2.4175797011353D-01
    13  1.2000000000000D-01  3.9407075320130D-01  2.6242671113666D-01
    14  1.3000000000000D-01  4.2619504143084D-01  2.8277179590466D-01
    15  1.4000000000000D-01  4.5812265011241D-01  3.0277349291281D-01
    16  1.5000000000000D-01  4.8982921736398D-01  3.2241369052458D-01
    17  1.6000000000000D-01  5.2128854226213D-01  3.4167597771489D-01
    18  1.7000000000000D-01  5.5247252661341D-01  3.6054571578155D-01
    19  1.8000000000000D-01  5.8335113052343D-01  3.7901010062643D-01
    20  1.9000000000000D-01  6.1389234225627D-01  3.9705821525527D-01
    21  2.0000000000000D-01  6.4406216280194D-01  4.1468107219327D-01
    22  2.1000000000000D-01  6.7382460549167D-01  4.3187164556461D-01
    23  2.2000000000000D-01  7.0314171092154D-01  4.4862489263527D-01
    24  2.3000000000000D-01  7.3197357736333D-01  4.6493776467178D-01
    25  2.4000000000000D-01  7.6027840675927D-01  4.8080920702185D-01
    26  2.5000000000000D-01  7.8801256631346D-01  4.9624014837754D-01
    27  2.6000000000000D-01  8.1513066560910D-01  5.1123347923571D-01
    28  2.7000000000000D-01  8.4158564909646D-01  5.2579401962589D-01
    29  2.8000000000000D-01  8.6732890371279D-01  5.3992847622951D-01
    30  2.9000000000000D-01  8.9231038131243D-01  5.5364538906905D-01
    31  3.0000000000000D-01  9.1647873550350D-01  5.6695506799858D-01
    32  3.1000000000000D-01  9.3978147240718D-01  5.7986951928004D-01
    33  3.2000000000000D-01  9.6216511477729D-01  5.9240236258015D-01
    34  3.3000000000000D-01  9.8357537884175D-01  6.0456873877305D-01
    35  3.4000000000000D-01  1.0039573631540D+00  6.1638520898155D-01
    36  3.5000000000000D-01  1.0232557486725D+00  6.2786964533569D-01
    37  3.6000000000000D-01  1.0414150092192D+00  6.3904111397147D-01
    38  3.7000000000000D-01  1.0583796314045D+00  6.4991975083387D-01
    39  3.8000000000000D-01  1.0740943430480D+00  6.6052663088702D-01
    40  3.9000000000000D-01  1.0885043490690D+00  6.7088363137086D-01
    41  4.0000000000000D-01  1.1015555737698D+00  6.8101328977591D-01
    42  4.1000000000000D-01  1.1131949083925D+00  6.9093865723858D-01
    43  4.2000000000000D-01  1.1233704627862D+00  7.0068314808545D-01
    44  4.3000000000000D-01  1.1320318199903D+00  7.1027038627826D-01
    45  4.4000000000000D-01  1.1391302925089D+00  7.1972404953108D-01
    46  4.5000000000000D-01  1.1446191790280D+00  7.2906771188703D-01
    47  4.6000000000000D-01  1.1484540203102D+00  7.3832468555384D-01
    48  4.7000000000000D-01  1.1505928529910D+00  7.4751786280635D-01
    49  4.8000000000000D-01  1.1509964599935D+00  7.5666955876802D-01
    50  4.9000000000000D-01  1.1496286162809D+00  7.6580135588424D-01
    51  5.0000000000000D-01  1.1464563286729D+00  7.7493395089697D-01
    52  5.1000000000000D-01  1.1414500684640D+00  7.8408700512250D-01
    53  5.2000000000000D-01  1.1345839956035D+00  7.9327899882306D-01
    54  5.3000000000000D-01  1.1258361732196D+00  8.0252709044784D-01
    55  5.4000000000000D-01  1.1151887713035D+00  8.1184698149974D-01
    56  5.5000000000000D-01  1.1026282584060D+00  8.2125278776168D-01
    57  5.6000000000000D-01  1.0881455802415D+00  8.3075691758948D-01
    58  5.7000000000000D-01  1.0717363241448D+00  8.4036995794873D-01
    59  5.8000000000000D-01  1.0534008683780D+00  8.5010056883919D-01
    60  5.9000000000000D-01  1.0331445153453D+00  8.5995538671393D-01
    61  6.0000000000000D-01  1.0109776078368D+00  8.6993893746026D-01
    62  6.1000000000000D-01  9.8691562749327D-01  8.8005355946677D-01
    63  6.2000000000000D-01  9.6097927475228D-01  8.9029933725549D-01
    64  6.3000000000000D-01  9.3319452961969D-01  9.0067404610955D-01
    65  6.4000000000000D-01  9.0359269268531D-01  9.1117310807671D-01
    66  6.5000000000000D-01  8.7221040588938D-01  9.2178955967636D-01
    67  6.6000000000000D-01  8.3908965263238D-01  9.3251403158317D-01
    68  6.7000000000000D-01  8.0427773691045D-01  9.4333474050438D-01
    69  6.8000000000000D-01  7.6782724125064D-01  9.5423749341064D-01
    70  6.9000000000000D-01  7.2979596331388D-01  9.6520570422142D-01
    71  7.0000000000000D-01  6.9024683112869D-01  9.7622042298673D-01
    72  7.1000000000000D-01  6.4924779701388D-01  9.8726037754732D-01
    73  7.2000000000000D-01  6.0687171034577D-01  9.9830202759496D-01
    74  7.3000000000000D-01  5.6319616942076D-01  1.0093196309946D+00
    75  7.4000000000000D-01  5.1830335276101D-01  1.0202853221700D+00
    76  7.5000000000000D-01  4.7227983030489D-01  1.0311692022960D+00
    77  7.6000000000000D-01  4.2521635501884D-01  1.0419394409810D+00
    78  7.7000000000000D-01  3.7720763555761D-01  1.0525623890675D+00
    79  7.8000000000000D-01  3.2835209069132D-01  1.0630027021216D+00
    80  7.9000000000000D-01  2.7875158630331D-01  1.0732234741287D+00
    81  8.0000000000000D-01  2.2851115584781D-01  1.0831863808615D+00
    82  8.1000000000000D-01  1.7773870523660D-01  1.0928518323350D+00
    83  8.2000000000000D-01  1.2654470320044D-01  1.1021791337161D+00
    84  8.3000000000000D-01  7.5041858244041D-02  1.1111266540139D+00
    85  8.4000000000000D-01  2.3344783380668D-02  1.1196520018284D+00
    86  8.5000000000000D-01 -2.8430350104051D-02  1.1277122074054D+00
    87  8.6000000000000D-01 -8.0166168551968D-02  1.1352639102021D+00
    88  8.7000000000000D-01 -1.3174446013663D-01  1.1422635511423D+00
    89  8.8000000000000D-01 -1.8304654596591D-01  1.1486675687082D+00
    90  8.9000000000000D-01 -2.3395365663683D-01  1.1544325979945D+00
    91  9.0000000000000D-01 -2.8434731276231D-01  1.1595156718290D+00
    92  9.1000000000000D-01 -3.3410970796170D-01  1.1638744230472D+00
    93  9.2000000000000D-01 -3.8312409278608D-01  1.1674672869992D+00
    94  9.3000000000000D-01 -4.3127515803467D-01  1.1702537033571D+00
    95  9.4000000000000D-01 -4.7844941591176D-01  1.1721943162891D+00
    96  9.5000000000000D-01 -5.2453557747225D-01  1.1732511720680D+00
    97  9.6000000000000D-01 -5.6942492481087D-01  1.1733879131865D+00
    98  9.7000000000000D-01 -6.1301167646342D-01  1.1725699680632D+00
    99  9.8000000000000D-01 -6.5519334450776D-01  1.1707647354356D+00
   100  9.9000000000000D-01 -6.9587108188065D-01  1.1679417625560D+00
   101  1.0000000000000D+00 -7.3495001845947D-01  1.1640729163304D+00
   102  1.0100000000000D+00 -7.7233958449862D-01  1.1591325465649D+00
   103  1.0200000000000D+00 -8.0795382005710D-01  1.1530976405180D+00
   104  1.0300000000000D+00 -8.4171166910819D-01  1.1459479679897D+00
   105  1.0400000000000D+00 -8.7353725707995D-01  1.1376662162196D+00
   106  1.0500000000000D+00 -9.0336015064034D-01  1.1282381139061D+00
   107  1.0600000000000D+00 -9.3111559861358D-01  1.1176525437062D+00
   108  1.0700000000000D+00 -9.5674475298798D-01  1.1059016426254D+00
   109  1.0800000000000D+00 -9.8019486905844D-01  1.0929808897564D+00
   110  1.0900000000000D+00 -1.0014194838318D+00  1.0788891808838D+00
   111  1.1000000000000D+00 -1.0203785719081D+00  1.0636288895243D+00
   112  1.1100000000000D+00 -1.0370386781530D+00  1.0472059140375D+00
   113  1.1200000000000D+00 -1.0513730265667D+00  1.0296297104984D+00
   114  1.1300000000000D+00 -1.0633616048635D+00  1.0109133110964D+00
   115  1.1400000000000D+00 -1.0729912243560D+00  9.9107332786899D-01
   116  1.1500000000000D+00 -1.0802555548732D+00  9.7012994166994D-01
   117  1.1600000000000D+00 -1.0851551345244D+00  9.4810687632108D-01
   118  1.1700000000000D+00 -1.0876973542474D+00  9.2503135797624D-01
   119  1.1800000000000D+00 -1.0878964171517D+00  9.0093405977165D-01
   120  1.1900000000000D+00 -1.0857732728196D+00  8.7584903193293D-01
   121  1.2000000000000D+00 -1.0813555268158D+00  8.4981361756054D-01
   122  1.2100000000000D+00 -1.0746773257459D+00  8.2286835437590D-01
   123  1.2200000000000D+00 -1.0657792183296D+00  7.9505686278266D-01
   124  1.2300000000000D+00 -1.0547079930617D+00  7.6642572066825D-01
   125  1.2400000000000D+00 -1.0415164931260D+00  7.3702432542391D-01
   126  1.2500000000000D+00 -1.0262634092976D+00  7.0690474370683D-01
   127  1.2600000000000D+00 -1.0090130517250D+00  6.7612154956045D-01
   128  1.2700000000000D+00 -9.8983510153627D-01  6.4473165154342D-01
   129  1.2800000000000D+00 -9.6880434326708D-01  6.1279410954704D-01
   130  1.2900000000000D+00 -9.4600037927287D-01  5.8036994208157D-01
   131  1.3000000000000D+00 -9.2150732730988D-01  5.4752192482292D-01
   132  1.3100000000000D+00 -8.9541350251463D-01  5.1431438123875D-01
   133  1.3200000000000D+00 -8.6781108516593D-01  4.8081296620223D-01
   134  1.3300000000000D+00 -8.3879577559574D-01  4.4708444348956D-01
   135  1.3400000000000D+00 -8.0846643768115D-01  4.1319645809730D-01
   136  1.3500000000000D+00 -7.7692473245155D-01  3.7921730436864D-01
   137  1.3600000000000D+00 -7.4427474330666D-01  3.4521569089631D-01
   138  1.3700000000000D+00 -7.1062259443268D-01  3.1126050322111D-01
   139  1.3800000000000D+00 -6.7607606401702D-01  2.7742056534165D-01
   140  1.3900000000000D+00 -6.4074419385427D-01  2.4376440105624D-01
   141  1.4000000000000D+00 -6.0473689699614D-01  2.1035999617359D-01
   142  1.4100000000000D+00 -5.6816456504899D-01  1.7727456260314D-01
   143  1.4200000000000D+00 -5.3113767678000D-01  1.4457430536953D-01
   144  1.4300000000000D+00 -4.9376640960374D-01  1.1232419351765D-01
   145  1.4400000000000D+00 -4.5616025560240D-01  8.0587735945839D-02
   146  1.4500000000000D+00 -4.1842764361415D-01  4.9426763098972D-02
   147  1.4600000000000D+00 -3.8067556892992D-01  1.8901215467285D-02
   148  1.4700000000000D+00 -3.4300923217348D-01 -1.0931060146793D-02
   149  1.4800000000000D+00 -3.0553168866398D-01 -4.0014505830139D-02
   150  1.4900000000000D+00 -2.6834350989867D-01 -6.8296038221288D-02
   151  1.5000000000000D+00 -2.3154245823713D-01 -9.5725224028085D-02
   152  1.5100000000000D+00 -1.9522317629955D-01 -1.2225444448429D-01
   153  1.5200000000000D+00 -1.5947689213655D-01 -1.4783904815534D-01
   154  1.5300000000000D+00 -1.2439114133494D-01 -1.7243749142300D-01
   155  1.5400000000000D+00 -9.0049507221794D-02 -1.9601146598583D-01
   156  1.5500000000000D+00 -5.6531379854800D-02 -2.1852601303413D-01
   157  1.5600000000000D+00 -2.3911735124791D-02 -2.3994962332593D-01
   158  1.5700000000000D+00  7.7390658818759D-03 -2.6025432318917D-01
   159  1.5800000000000D+00  3.8355455806657D-02 -2.7941574559237D-01
   160  1.5900000000000D+00  6.7876818486922D-02 -2.9741318658079D-01
   161  1.6000000000000D+00  9.6247623674172D-02 -3.1422964633111D-01
   162  1.6100000000000D+00  1.2341753937813D-01 -3.2985185519625D-01
   163  1.6200000000000D+00  1.4934152091836D-01 -3.4427028424755D-01
   164  1.6300000000000D+00  1.7397987708220D-01 -3.5747914069814D-01
   165  1.6400000000000D+00  1.9729831288508D-01 -3.6947634799088D-01
   166  1.6500000000000D+00  2.1926794935325D-01 -3.8026351094651D-01
   167  1.6600000000000D+00  2.3986532022330D-01 -3.8984586601793D-01
   168  1.6700000000000D+00  2.5907234602835D-01 -3.9823221707706D-01
   169  1.6800000000000D+00  2.7687628581427D-01 -4.0543485700758D-01
   170  1.6900000000000D+00  2.9326966705547D-01 -4.1146947559356D-01
   171  1.7000000000000D+00  3.0825019428765D-01 -4.1635505415324D-01
   172  1.7100000000000D+00  3.2182063719049D-01 -4.2011374751226D-01
   173  1.7200000000000D+00  3.3398869881896D-01 -4.2277075388034D-01
   174  1.7300000000000D+00  3.4476686494791D-01 -4.2435417337140D-01
   175  1.7400000000000D+00  3.5417223531238D-01 -4.2489485578383D-01
   176  1.7500000000000D+00  3.6222633799801D-01 -4.2442623855910D-01
   177  1.7600000000000D+00  3.6895492776223D-01 -4.2298417553669D-01
   178  1.7700000000000D+00  3.7438776986010D-01 -4.2060675761238D-01
   179  1.7800000000000D+00  3.7855841010174D-01 -4.1733412589349D-01
   180  1.7900000000000D+00  3.8150393301226D-01 -4.1320827861992D-01
   181  1.8000000000000D+00  3.8326470877635D-01 -4.0827287243775D-01
   182  1.8100000000000D+00  3.8388413103349D-01 -4.0257301937413D-01
   183  1.8200000000000D+00  3.8340834625952D-01 -3.9615508017150D-01
   184  1.8300000000000D+00  3.8188597678791D-01 -3.8906645526046D-01
   185  1.8400000000000D+00  3.7936783846202D-01 -3.8135537423342D-01
   186  1.8500000000000D+00  3.7590665467502D-01 -3.7307068486456D-01
   187  1.8600000000000D+00  3.7155676823145D-01 -3.6426164281488D-01
   188  1.8700000000000D+00  3.6637385237806D-01 -3.5497770282003D-01
   189  1.8800000000000D+00  3.6041462273312D-01 -3.4526831262629D-01
   190  1.8900000000000D+00  3.5373655133624D-01 -3.3518271045183D-01
   191  1.9000000000000D+00  3.4639758435009D-01 -3.2476972700393D-01
   192  1.9100000000000D+00  3.3845586506339D-01 -3.1407759320786D-01
   193  1.9200000000000D+00  3.2996946284195D-01 -3.0315375395937D-01
   194  1.9300000000000D+00  3.2099611068204D-01 -2.9204468983009D-01
   195  1.9400000000000D+00  3.1159295079490D-01 -2.8079574612333D-01
   196  1.9500000000000D+00  3.0181629159992D-01 -2.6945097171925D-01
   197  1.9600000000000D+00  2.9172137526521D-01 -2.5805296693120D-01
   198  1.9700000000000D+00  2.8136215833439D-01 -2.4664274214388D-01
   199  1.9800000000000D+00  2.7079110604145D-01 -2.3525958756801D-01
   200  1.9900000000000D+00  2.6005900035931D-01 -2.2394095403487D-01
   201  2.0000000000000D+00  2.4921476499799D-01 -2.1272234707001D-01
   202  2.0100000000000D+00  2.3830530458618D-01 -2.0163723214653D-01
   203  2.0200000000000D+00  2.2737536279181D-01 -1.9071695444123D-01
   204  2.0300000000000D+00  2.1646739646707D-01 -1.7999067091525D-01
   205  2.0400000000000D+00  2.0562146822023D-01 -1.6948529633786D-01
   206  2.0500000000000D+00  1.9487515828571D-01 -1.5922546378052D-01
   207  2.0600000000000D+00  1.8426349292870D-01 -1.4923349754239D-01
   208  2.0700000000000D+00  1.7381889468611D-01 -1.3952940214586D-01
   209  2.0800000000000D+00  1.6357114901405D-01 -1.3013086350915D-01
   210  2.0900000000000D+00  1.5354739145899D-01 -1.2105326508312D-01
   211  2.1000000000000D+00  1.4377211393156D-01 -1.1230971787455D-01
   212  2.1100000000000D+00  1.3426718789671D-01 -1.0391110275419D-01
   213  2.1200000000000D+00  1.2505190891234D-01 -9.5866128019533D-02
   214  2.1300000000000D+00  1.1614305646417D-01 -8.8181397957896D-02
   215  2.1400000000000D+00  1.0755497301382D-01 -8.0861495004767D-02
   216  2.1500000000000D+00  9.9299660240983D-02 -7.3909074023886D-02
   217  2.1600000000000D+00  9.1386889655684D-02 -6.7324966699214D-02
   218  2.1700000000000D+00  8.3824336841878D-02 -6.1108301929805D-02
   219  2.1800000000000D+00  7.6617706671106D-02 -5.5256621483850D-02
   220  2.1900000000000D+00  6.9770895748947D-02 -4.9766019723893D-02
   221  2.2000000000000D+00  6.3286249691595D-02 -4.4631342827595D-02
   222  2.2100000000000D+00  5.7164474417724D-02 -3.9846174481150D-02
   223  2.2200000000000D+00  5.1405064139474D-02 -3.5403141150623D-02
   224  2.2300000000000D+00  4.6006590708063D-02 -3.1294133026983D-02
   225  2.2400000000000D+00  4.0967086940014D-02 -2.7510584158063D-02
   226  2.2500000000000D+00  3.6283415443502D-02 -2.4043119821043D-02
   227  2.2600000000000D+00  3.1951185098869D-02 -2.0881542395031D-02
   228  2.2700000000000D+00  2.7964523990474D-02 -1.8014734913741D-02
   229  2.2800000000000D+00  2.4316051837790D-02 -1.5430690045686D-02
   230  2.2900000000000D+00  2.0996028205590D-02 -1.3116024366616D-02
   231  2.3000000000000D+00  1.7993108474626D-02 -1.1056493183601D-02
   232  2.3100000000000D+00  1.5294446956619D-02 -9.2370990039908D-03
   233  2.3200000000000D+00  1.2886110390998D-02 -7.6423935992555D-03
   234  2.3300000000000D+00  1.0753008909353D-02 -6.2564738195825D-03
   235  2.3400000000000D+00  8.8791693435178D-03 -5.0631919607746D-03
   236  2.3500000000000D+00  7.2479251381856D-03 -4.0463117992810D-03
   237  2.3600000000000D+00  5.8420720294310D-03 -3.1896411946833D-03
   238  2.3700000000000D+00  4.6440464093510D-03 -2.4771772857078D-03
   239  2.3800000000000D+00  3.6360886464174D-03 -1.8932399367178D-03
   240  2.3900000000000D+00  2.8003983218625D-03 -1.4225979324508D-03
   241  2.4000000000000D+00  2.1192839981261D-03 -1.0505898867323D-03
   242  2.4100000000000D+00  1.5752991527874D-03 -7.6323365737197D-04
   243  2.4200000000000D+00  1.1517159310878D-03 -5.4754189800528D-04
   244  2.4300000000000D+00  8.3127586814679D-04 -3.9077199715934D-04
   245  2.4400000000000D+00  5.9753256739884D-04 -2.8129851206537D-04
   246  2.4500000000000D+00  4.3327108772744D-04 -2.0776971439975D-04
   247  2.4600000000000D+00  3.3013567779866D-04 -1.6432104412290D-04
   248  2.4700000000000D+00  2.7774107019168D-04 -1.4464977121770D-04
   249  2.4800000000000D+00  2.6577364668019D-04 -1.4308228976640D-04
   250  2.4900000000000D+00  2.5709916837396D-04 -1.4042229490109D-04
   251  2.5000000000000D+00  2.2351265247606D-04 -1.2248130770720D-04
   252  2.5100000000000D+00  1.4562438682208D-04 -7.9894100953589D-05
   253  2.5200000000000D+00  5.8455244971401D-05 -3.2057135907935D-05
   254  2.5300000000000D+00 -7.8211168225390D-06  4.3108342270178D-06
   255  2.5400000000000D+00 -2.4918912955462D-05  1.3742536910919D-05
   256  2.5500000000000D+00 -1.6047880539670D-05  8.8532788855752D-06
   257  2.5600000000000D+00  1.2451756274759D-06 -6.8710608776816D-07
   258  2.5700000000000D+00  5.3731099593029D-06 -2.9661614833691D-06
   259  2.5800000000000D+00  4.0605492159064D-06 -2.2423317487428D-06
   260  2.5900000000000D+00 -8.5689550979315D-08  4.6927716931352D-08
   261  2.6000000000000D+00 -6.2658895323712D-07  3.4315022886422D-07
   262  2.6100000000000D+00 -5.4542328012183D-07  2.9870000489915D-07
   263  2.6200000000000D+00 -5.2830738186684D-10  2.8932651630974D-10
   264  2.6300000000000D+00  0.0000000000000D+00  0.0000000000000D+00
   265  2.6400000000000D+00  0.0000000000000D+00  0.0000000000000D+00
   266  2.6500000000000D+00  0.0000000000000D+00  0.0000000000000D+00
   267  2.6600000000000D+00  0.0000000000000D+00  0.0000000000000D+00
   268  2.6700000000000D+00  0.0000000000000D+00  0.0000000000000D+00
   269  2.6800000000000D+00  0.0000000000000D+00  0.0000000000000D+00
   270  2.6900000000000D+00  0.0000000000000D+00  0.0000000000000D+00
   271  2.7000000000000D+00  0.0000000000000D+00  0.0000000000000D+00
   272  2.7100000000000D+00  0.0000000000000D+00  0.0000000000000D+00
   273  2.7200000000000D+00  0.0000000000000D+00  0.0000000000000D+00
   274  2.7300000000000D+00  0.0000000000000D+00  0.0000000000000D+00
   275  2.7400000000000D+00  0.0000000000000D+00  0.0000000000000D+00
   276  2.7500000000000D+00  0.0000000000000D+00  0.0000000000000D+00
   277  2.7600000000000D+00  0.0000000000000D+00  0.0000000000000D+00
   278  2.7700000000000D+00  0.0000000000000D+00  0.0000000000000D+00
   279  2.7800000000000D+00  0.0000000000000D+00  0.0000000000000D+00
   280  2.7900000000000D+00  0.0000000000000D+00  0.0000000000000D+00
   281  2.8000000000000D+00  0.0000000000000D+00  0.0000000000000D+00
   282  2.8100000000000D+00  0.0000000000000D+00  0.0000000000000D+00
   283  2.8200000000000D+00  0.0000000000000D+00  0.0000000000000D+00
   284  2.8300000000000D+00  0.0000000000000D+00  0.0000000000000D+00
   285  2.8400000000000D+00  0.0000000000000D+00  0.0000000000000D+00
   286  2.8500000000000D+00  0.0000000000000D+00  0.0000000000000D+00
   287  2.8600000000000D+00  0.0000000000000D+00  0.0000000000000D+00
   288  2.8700000000000D+00  0.0000000000000D+00  0.0000000000000D+00
   289  2.8800000000000D+00  0.0000000000000D+00  0.0000000000000D+00
   290  2.8900000000000D+00  0.0000000000000D+00  0.0000000000000D+00
   291  2.9000000000000D+00  0.0000000000000D+00  0.0000000000000D+00
   292  2.9100000000000D+00  0.0000000000000D+00  0.0000000000000D+00
   293  2.9200000000000D+00  0.0000000000000D+00  0.0000000000000D+00
   294  2.9300000000000D+00  0.0000000000000D+00  0.0000000000000D+00
   295  2.9400000000000D+00  0.0000000000000D+00  0.0000000000000D+00
   296  2.9500000000000D+00  0.0000000000000D+00  0.0000000000000D+00
   297  2.9600000000000D+00  0.0000000000000D+00  0.0000000000000D+00
   298  2.9700000000000D+00  0.0000000000000D+00  0.0000000000000D+00
   299  2.9800000000000D+00  0.0000000000000D+00  0.0000000000000D+00
   300  2.9900000000000D+00  0.0000000000000D+00  0.0000000000000D+00
   301  3.0000000000000D+00  0.0000000000000D+00  0.0000000000000D+00
   302  3.0100000000000D+00  0.0000000000000D+00  0.0000000000000D+00
   303  3.0200000000000D+00  0.0000000000000D+00  0.0000000000000D+00
   304  3.0300000000000D+00  0.0000000000000D+00  0.0000000000000D+00
   305  3.0400000000000D+00  0.0000000000000D+00  0.0000000000000D+00
   306  3.0500000000000D+00  0.0000000000000D+00  0.0000000000000D+00
   307  3.0600000000000D+00  0.0000000000000D+00  0.0000000000000D+00
   308  3.0700000000000D+00  0.0000000000000D+00  0.0000000000000D+00
   309  3.0800000000000D+00  0.0000000000000D+00  0.0000000000000D+00
   310  3.0900000000000D+00  0.0000000000000D+00  0.0000000000000D+00
   311  3.1000000000000D+00  0.0000000000000D+00  0.0000000000000D+00
   312  3.1100000000000D+00  0.0000000000000D+00  0.0000000000000D+00
   313  3.1200000000000D+00  0.0000000000000D+00  0.0000000000000D+00
   314  3.1300000000000D+00  0.0000000000000D+00  0.0000000000000D+00
   315  3.1400000000000D+00  0.0000000000000D+00  0.0000000000000D+00
   316  3.1500000000000D+00  0.0000000000000D+00  0.0000000000000D+00
   317  3.1600000000000D+00  0.0000000000000D+00  0.0000000000000D+00
   318  3.1700000000000D+00  0.0000000000000D+00  0.0000000000000D+00
   319  3.1800000000000D+00  0.0000000000000D+00  0.0000000000000D+00
   320  3.1900000000000D+00  0.0000000000000D+00  0.0000000000000D+00
   321  3.2000000000000D+00  0.0000000000000D+00  0.0000000000000D+00
   322  3.2100000000000D+00  0.0000000000000D+00  0.0000000000000D+00
   323  3.2200000000000D+00  0.0000000000000D+00  0.0000000000000D+00
   324  3.2300000000000D+00  0.0000000000000D+00  0.0000000000000D+00
   325  3.2400000000000D+00  0.0000000000000D+00  0.0000000000000D+00
   326  3.2500000000000D+00  0.0000000000000D+00  0.0000000000000D+00
   327  3.2600000000000D+00  0.0000000000000D+00  0.0000000000000D+00
   328  3.2700000000000D+00  0.0000000000000D+00  0.0000000000000D+00
   329  3.2800000000000D+00  0.0000000000000D+00  0.0000000000000D+00
   330  3.2900000000000D+00  0.0000000000000D+00  0.0000000000000D+00
   331  3.3000000000000D+00  0.0000000000000D+00  0.0000000000000D+00
   332  3.3100000000000D+00  0.0000000000000D+00  0.0000000000000D+00
   333  3.3200000000000D+00  0.0000000000000D+00  0.0000000000000D+00
   334  3.3300000000000D+00  0.0000000000000D+00  0.0000000000000D+00
   335  3.3400000000000D+00  0.0000000000000D+00  0.0000000000000D+00
   336  3.3500000000000D+00  0.0000000000000D+00  0.0000000000000D+00
   337  3.3600000000000D+00  0.0000000000000D+00  0.0000000000000D+00
   338  3.3700000000000D+00  0.0000000000000D+00  0.0000000000000D+00
   339  3.3800000000000D+00  0.0000000000000D+00  0.0000000000000D+00
   340  3.3900000000000D+00  0.0000000000000D+00  0.0000000000000D+00
   341  3.4000000000000D+00  0.0000000000000D+00  0.0000000000000D+00
   342  3.4100000000000D+00  0.0000000000000D+00  0.0000000000000D+00
   343  3.4200000000000D+00  0.0000000000000D+00  0.0000000000000D+00
   344  3.4300000000000D+00  0.0000000000000D+00  0.0000000000000D+00
   345  3.4400000000000D+00  0.0000000000000D+00  0.0000000000000D+00
   346  3.4500000000000D+00  0.0000000000000D+00  0.0000000000000D+00
   347  3.4600000000000D+00  0.0000000000000D+00  0.0000000000000D+00
   348  3.4700000000000D+00  0.0000000000000D+00  0.0000000000000D+00
   349  3.4800000000000D+00  0.0000000000000D+00  0.0000000000000D+00
   350  3.4900000000000D+00  0.0000000000000D+00  0.0000000000000D+00
   351  3.5000000000000D+00  0.0000000000000D+00  0.0000000000000D+00
   352  3.5100000000000D+00  0.0000000000000D+00  0.0000000000000D+00
   353  3.5200000000000D+00  0.0000000000000D+00  0.0000000000000D+00
   354  3.5300000000000D+00  0.0000000000000D+00  0.0000000000000D+00
   355  3.5400000000000D+00  0.0000000000000D+00  0.0000000000000D+00
   356  3.5500000000000D+00  0.0000000000000D+00  0.0000000000000D+00
   357  3.5600000000000D+00  0.0000000000000D+00  0.0000000000000D+00
   358  3.5700000000000D+00  0.0000000000000D+00  0.0000000000000D+00
   359  3.5800000000000D+00  0.0000000000000D+00  0.0000000000000D+00
   360  3.5900000000000D+00  0.0000000000000D+00  0.0000000000000D+00
   361  3.6000000000000D+00  0.0000000000000D+00  0.0000000000000D+00
   362  3.6100000000000D+00  0.0000000000000D+00  0.0000000000000D+00
   363  3.6200000000000D+00  0.0000000000000D+00  0.0000000000000D+00
   364  3.6300000000000D+00  0.0000000000000D+00  0.0000000000000D+00
   365  3.6400000000000D+00  0.0000000000000D+00  0.0000000000000D+00
   366  3.6500000000000D+00  0.0000000000000D+00  0.0000000000000D+00
   367  3.6600000000000D+00  0.0000000000000D+00  0.0000000000000D+00
   368  3.6700000000000D+00  0.0000000000000D+00  0.0000000000000D+00
   369  3.6800000000000D+00  0.0000000000000D+00  0.0000000000000D+00
   370  3.6900000000000D+00  0.0000000000000D+00  0.0000000000000D+00
   371  3.7000000000000D+00  0.0000000000000D+00  0.0000000000000D+00
   372  3.7100000000000D+00  0.0000000000000D+00  0.0000000000000D+00
   373  3.7200000000000D+00  0.0000000000000D+00  0.0000000000000D+00
   374  3.7300000000000D+00  0.0000000000000D+00  0.0000000000000D+00
   375  3.7400000000000D+00  0.0000000000000D+00  0.0000000000000D+00
   376  3.7500000000000D+00  0.0000000000000D+00  0.0000000000000D+00
   377  3.7600000000000D+00  0.0000000000000D+00  0.0000000000000D+00
   378  3.7700000000000D+00  0.0000000000000D+00  0.0000000000000D+00
   379  3.7800000000000D+00  0.0000000000000D+00  0.0000000000000D+00
   380  3.7900000000000D+00  0.0000000000000D+00  0.0000000000000D+00
   381  3.8000000000000D+00  0.0000000000000D+00  0.0000000000000D+00
   382  3.8100000000000D+00  0.0000000000000D+00  0.0000000000000D+00
   383  3.8200000000000D+00  0.0000000000000D+00  0.0000000000000D+00
   384  3.8300000000000D+00  0.0000000000000D+00  0.0000000000000D+00
   385  3.8400000000000D+00  0.0000000000000D+00  0.0000000000000D+00
   386  3.8500000000000D+00  0.0000000000000D+00  0.0000000000000D+00
   387  3.8600000000000D+00  0.0000000000000D+00  0.0000000000000D+00
   388  3.8700000000000D+00  0.0000000000000D+00  0.0000000000000D+00
   389  3.8800000000000D+00  0.0000000000000D+00  0.0000000000000D+00
   390  3.8900000000000D+00  0.0000000000000D+00  0.0000000000000D+00
   391  3.9000000000000D+00  0.0000000000000D+00  0.0000000000000D+00
   392  3.9100000000000D+00  0.0000000000000D+00  0.0000000000000D+00
   393  3.9200000000000D+00  0.0000000000000D+00  0.0000000000000D+00
   394  3.9300000000000D+00  0.0000000000000D+00  0.0000000000000D+00
   395  3.9400000000000D+00  0.0000000000000D+00  0.0000000000000D+00
   396  3.9500000000000D+00  0.0000000000000D+00  0.0000000000000D+00
   397  3.9600000000000D+00  0.0000000000000D+00  0.0000000000000D+00
   398  3.9700000000000D+00  0.0000000000000D+00  0.0000000000000D+00
   399  3.9800000000000D+00  0.0000000000000D+00  0.0000000000000D+00
   400  3.9900000000000D+00  0.0000000000000D+00  0.0000000000000D+00
   401  4.0000000000000D+00  0.0000000000000D+00  0.0000000000000D+00
   402  4.0100000000000D+00  0.0000000000000D+00  0.0000000000000D+00
   403  4.0200000000000D+00  0.0000000000000D+00  0.0000000000000D+00
   404  4.0300000000000D+00  0.0000000000000D+00  0.0000000000000D+00
   405  4.0400000000000D+00  0.0000000000000D+00  0.0000000000000D+00
   406  4.0500000000000D+00  0.0000000000000D+00  0.0000000000000D+00
   407  4.0600000000000D+00  0.0000000000000D+00  0.0000000000000D+00
   408  4.0700000000000D+00  0.0000000000000D+00  0.0000000000000D+00
   409  4.0800000000000D+00  0.0000000000000D+00  0.0000000000000D+00
   410  4.0900000000000D+00  0.0000000000000D+00  0.0000000000000D+00
   411  4.1000000000000D+00  0.0000000000000D+00  0.0000000000000D+00
   412  4.1100000000000D+00  0.0000000000000D+00  0.0000000000000D+00
   413  4.1200000000000D+00  0.0000000000000D+00  0.0000000000000D+00
   414  4.1300000000000D+00  0.0000000000000D+00  0.0000000000000D+00
   415  4.1400000000000D+00  0.0000000000000D+00  0.0000000000000D+00
   416  4.1500000000000D+00  0.0000000000000D+00  0.0000000000000D+00
   417  4.1600000000000D+00  0.0000000000000D+00  0.0000000000000D+00
   418  4.1700000000000D+00  0.0000000000000D+00  0.0000000000000D+00
   419  4.1800000000000D+00  0.0000000000000D+00  0.0000000000000D+00
   420  4.1900000000000D+00  0.0000000000000D+00  0.0000000000000D+00
   421  4.2000000000000D+00  0.0000000000000D+00  0.0000000000000D+00
   422  4.2100000000000D+00  0.0000000000000D+00  0.0000000000000D+00