C     ONCVPSP-3.3.1  r_core=   1.42330   1.40643
      6.0000      4.0000      210904    zatom,zion,pspd
     8      11   1     4   600     0    pspcod,pspxc,lmax,lloc,mmax,r2well
  5.99000000  0.00000000  0.00000000    rchrg fchrg qchrg
     2     2     0     0     0    nproj
     1     1           extension_switch
   0                         7.2891006538052D+00  6.5390092657087D-01
     1  0.0000000000000D+00 -5.5204829596534D-10 -3.5853872648595D-10
     2  1.0000000000000D-02  6.7641514097602D-02 -2.8747016085142D-02
     3  2.0000000000000D-02  1.3513669635769D-01 -5.7432845400133D-02
     4  3.0000000000000D-02  2.0233996832393D-01 -8.5995728260147D-02
     5  4.0000000000000D-02  2.6910724898683D-01 -1.1437276851437D-01
     6  5.0000000000000D-02  3.3529668036169D-01 -1.4249938862999D-01
     7  6.0000000000000D-02  4.0076932569086D-01 -1.7030881250159D-01
     8  7.0000000000000D-02  4.6538983180386D-01 -1.9773158480430D-01
     9  8.0000000000000D-02  5.2902704772070D-01 -2.2469513535096D-01
    10  9.0000000000000D-02  5.9155459225846D-01 -2.5112339646947D-01
    11  1.0000000000000D-01  6.5285136418808D-01 -2.7693648089247D-01
    12  1.1000000000000D-01  7.1280198937621D-01 -3.0205042704882D-01
    13  1.2000000000000D-01  7.7129720032230D-01 -3.2637701797147D-01
    14  1.3000000000000D-01  8.2823414454938D-01 -3.4982367929358D-01
    15  1.4000000000000D-01  8.8351661941226D-01 -3.7229346099920D-01
    16  1.5000000000000D-01  9.3705523203284D-01 -3.9368510673433D-01
    17  1.6000000000000D-01  9.8876748424085D-01 -4.1389321357364D-01
    18  1.7000000000000D-01  1.0385777835719D+00 -4.3280848418541D-01
    19  1.8000000000000D-01  1.0864173825362D+00 -4.5031807235053D-01
    20  1.9000000000000D-01  1.1322242494991D+00 -4.6630602177716D-01
    21  2.0000000000000D-01  1.1759428755982D+00 -4.8065379712063D-01
    22  2.1000000000000D-01  1.2175240231326D+00 -4.9324090507589D-01
    23  2.2000000000000D-01  1.2569244217952D+00 -5.0394560236632D-01
    24  2.3000000000000D-01  1.2941064199497D+00 -5.1264568641745D-01
    25  2.4000000000000D-01  1.3290375988806D+00 -5.1921936348538D-01
    26  2.5000000000000D-01  1.3616903585366D+00 -5.2354618801750D-01
    27  2.6000000000000D-01  1.3920414837560D+00 -5.2550806606541D-01
    28  2.7000000000000D-01  1.4200717002781D+00 -5.2499031465812D-01
    29  2.8000000000000D-01  1.4457652300130D+00 -5.2188276818340D-01
    30  2.9000000000000D-01  1.4691093550567D+00 -5.1608092202919D-01
    31  3.0000000000000D-01  1.4900939997908D+00 -5.0748710301036D-01
    32  3.1000000000000D-01  1.5087113401049D+00 -4.9601165546018D-01
    33  3.2000000000000D-01  1.5249554483238D+00 -4.8157413130608D-01
    34  3.3000000000000D-01  1.5388219818098D+00 -4.6410447198462D-01
    35  3.4000000000000D-01  1.5503079224656D+00 -4.4354416968814D-01
    36  3.5000000000000D-01  1.5594113734749D+00 -4.1984739517960D-01
    37  3.6000000000000D-01  1.5661314186161D+00 -3.9298207927182D-01
    38  3.7000000000000D-01  1.5704680483709D+00 -3.6293093504377D-01
    39  3.8000000000000D-01  1.5724221558482D+00 -3.2969240796697D-01
    40  3.9000000000000D-01  1.5719956042625D+00 -2.9328154134065D-01
    41  4.0000000000000D-01  1.5691913663777D+00 -2.5373074478884D-01
    42  4.1000000000000D-01  1.5640137349576D+00 -2.1109045405499D-01
    43  4.2000000000000D-01  1.5564686018844D+00 -1.6542967094453D-01
    44  4.3000000000000D-01  1.5465638022351D+00 -1.1683637300521D-01
    45  4.4000000000000D-01  1.5343095182629D+00 -6.5417783406066D-02
    46  4.5000000000000D-01  1.5197187369421D+00 -1.1300492464656D-02
    47  4.6000000000000D-01  1.5028077535211D+00  4.5369576615012D-02
    48  4.7000000000000D-01  1.4835967124058D+00  1.0442736401027D-01
    49  4.8000000000000D-01  1.4621101756957D+00  1.6568903643918D-01
    50  4.9000000000000D-01  1.4383777088211D+00  2.2895252067111D-01
    51  5.0000000000000D-01  1.4124344720140D+00  2.9399820933338D-01
    52  5.1000000000000D-01  1.3843218057908D+00  3.6058983936577D-01
    53  5.2000000000000D-01  1.3540877982518D+00  4.2847554181702D-01
    54  5.3000000000000D-01  1.3217878218172D+00  4.9738905996489D-01
    55  5.4000000000000D-01  1.2874850270320D+00  5.6705113099370D-01
    56  5.5000000000000D-01  1.2512507812864D+00  6.3717102468500D-01
    57  5.6000000000000D-01  1.2131650407137D+00  7.0744823079661D-01
    58  5.7000000000000D-01  1.1733166441478D+00  7.7757428502666D-01
    59  5.8000000000000D-01  1.1318035188395D+00  8.4723472170749D-01
    60  5.9000000000000D-01  1.0887327886343D+00  9.1611113966256D-01
    61  6.0000000000000D-01  1.0442207765034D+00  9.8388336600461D-01
    62  6.1000000000000D-01  9.9839289466797D-01  1.0502317010752D+00
    63  6.2000000000000D-01  9.5138341705664D-01  1.1148392262393D+00
    64  6.3000000000000D-01  9.0333513047052D-01  1.1773941548667D+00
    65  6.4000000000000D-01  8.5439886256064D-01  1.2375922055849D+00
    66  6.5000000000000D-01  8.0473288655450D-01  1.2951389757655D+00
    67  6.6000000000000D-01  7.5450220454981D-01  1.3497522922529D+00
    68  6.7000000000000D-01  7.0387771310370D-01  1.4011645155463D+00
    69  6.8000000000000D-01  6.5303525677774D-01  1.4491247730339D+00
    70  6.9000000000000D-01  6.0215457719195D-01  1.4934010964490D+00
    71  7.0000000000000D-01  5.5141816699058D-01  1.5337824384926D+00
    72  7.1000000000000D-01  5.0101003988839D-01  1.5700805435359D+00
    73  7.2000000000000D-01  4.5111442963311D-01  1.6021316475025D+00
    74  7.3000000000000D-01  4.0191443224244D-01  1.6297979824198D+00
    75  7.4000000000000D-01  3.5359060724702D-01  1.6529690617297D+00
    76  7.5000000000000D-01  3.0631955485940D-01  1.6715627232629D+00
    77  7.6000000000000D-01  2.6027248697595D-01  1.6855259077846D+00
    78  7.7000000000000D-01  2.1561381069139D-01  1.6948351522383D+00
    79  7.8000000000000D-01  1.7249974353872D-01  1.6994967781995D+00
    80  7.9000000000000D-01  1.3107697995996D-01  1.6995467576277D+00
    81  8.0000000000000D-01  9.1481428572681D-02  1.6950502403462D+00
    82  8.1000000000000D-01  5.3837039466848D-02  1.6861007282959D+00
    83  8.2000000000000D-01  1.8254739900653D-02  1.6728188537766D+00
    84  8.3000000000000D-01 -1.5168502829977D-02  1.6553508244580D+00
    85  8.4000000000000D-01 -4.6350563502436D-02  1.6338631023389D+00
    86  8.5000000000000D-01 -7.5224751827984D-02  1.6085360635525D+00
    87  8.6000000000000D-01 -1.0174001397102D-01  1.5795620302917D+00
    88  8.7000000000000D-01 -1.2586098557977D-01  1.5471448576326D+00
    89  8.8000000000000D-01 -1.4756797419332D-01  1.5114994658211D+00
    90  8.9000000000000D-01 -1.6685685940507D-01  1.4728513728284D+00
    91  9.0000000000000D-01 -1.8373890567235D-01  1.4314361118836D+00
    92  9.1000000000000D-01 -1.9824047880016D-01  1.3874984891816D+00
    93  9.2000000000000D-01 -2.1040265764775D-01  1.3412916627226D+00
    94  9.3000000000000D-01 -2.2028073438591D-01  1.2930760397261D+00
    95  9.4000000000000D-01 -2.2794359906505D-01  1.2431180013177D+00
    96  9.5000000000000D-01 -2.3347300699204D-01  1.1916884705862D+00
    97  9.6000000000000D-01 -2.3696273022835D-01  1.1390613450103D+00
    98  9.7000000000000D-01 -2.3851759727103D-01  1.0855118173523D+00
    99  9.8000000000000D-01 -2.3825242759270D-01  1.0313146109675D+00
   100  9.9000000000000D-01 -2.3629087004014D-01  9.7674215656185D-01
   101  1.0000000000000D+00 -2.3276415631773D-01  9.2206273766366D-01
   102  1.0100000000000D+00 -2.2780978257173D-01  8.6753863192743D-01
   103  1.0200000000000D+00 -2.2157013368550D-01  8.1342427469687D-01
   104  1.0300000000000D+00 -2.1419106615373D-01  7.5996447024349D-01
   105  1.0400000000000D+00 -2.0582046636228D-01  7.0739267478041D-01
   106  1.0500000000000D+00 -1.9660680172500D-01  6.5592937388280D-01
   107  1.0600000000000D+00 -1.8669768249673D-01  6.0578057507743D-01
   108  1.0700000000000D+00 -1.7623845209359D-01  5.5713643450763D-01
   109  1.0800000000000D+00 -1.6537082350867D-01  5.1017003454850D-01
   110  1.0900000000000D+00 -1.5423157882532D-01  4.6503632696548D-01
   111  1.1000000000000D+00 -1.4295134811725D-01  4.2187125421107D-01
   112  1.1100000000000D+00 -1.3165348293278D-01  3.8079105895747D-01
   113  1.1200000000000D+00 -1.2045303826335D-01  3.4189178967011D-01
   114  1.1300000000000D+00 -1.0945587541531D-01  3.0524900768744D-01
   115  1.1400000000000D+00 -9.8757896554251D-02  2.7091769895348D-01
   116  1.1500000000000D+00 -8.8444420038677D-02  2.3893239130623D-01
   117  1.1600000000000D+00 -7.8589703401824D-02  2.0930747564096D-01
   118  1.1700000000000D+00 -6.9256618913399D-02  1.8203772717048D-01
   119  1.1800000000000D+00 -6.0496484749880D-02  1.5709902097800D-01
   120  1.1900000000000D+00 -5.2349052499161D-02  1.3444923383103D-01
   121  1.2000000000000D+00 -4.4842649423904D-02  1.1402932208698D-01
   122  1.2100000000000D+00 -3.7994471672694D-02  9.5764563632762D-02
   123  1.2200000000000D+00 -3.1811023490441D-02  7.9565950772268D-02
   124  1.2300000000000D+00 -2.6288694040330D-02  6.5331718253674D-02
   125  1.2400000000000D+00 -2.1414462319605D-02  5.2948989889978D-02
   126  1.2500000000000D+00 -1.7166719328945D-02  4.2295526164358D-02
   127  1.2600000000000D+00 -1.3516194117568D-02  3.3241553556046D-02
   128  1.2700000000000D+00 -1.0426969254261D-02  2.5651655791719D-02
   129  1.2800000000000D+00 -7.8575706068209D-03  1.9386706778978D-02
   130  1.2900000000000D+00 -5.7621144855201D-03  1.4305824071395D-02
   131  1.3000000000000D+00 -4.0914948393255D-03  1.0268321950572D-02
   132  1.3100000000000D+00 -2.7945929411655D-03  7.1356429912477D-03
   133  1.3200000000000D+00 -1.8194910182613D-03  4.7732470015416D-03
   134  1.3300000000000D+00 -1.1146722390419D-03  3.0524376004528D-03
   135  1.3400000000000D+00 -6.3018869660674D-04  1.8521058232370D-03
   136  1.3500000000000D+00 -3.1878012662878D-04  1.0603723323480D-03
   137  1.3600000000000D+00 -1.3692750078477D-04  5.7611111199514D-04
   138  1.3700000000000D+00 -4.5824220343608D-05  3.1033628927984D-04
   139  1.3800000000000D+00 -1.2312751661808D-05  1.8770548999397D-04
   140  1.3900000000000D+00 -9.3348159219683D-06  1.4616924111891D-04
   141  1.4000000000000D+00 -1.6878511696376D-05  1.3875834846504D-04
   142  1.4100000000000D+00 -2.4434987596512D-05  1.4723391220744D-04
   143  1.4200000000000D+00 -2.5347438967044D-05  1.4381691534126D-04
   144  1.4300000000000D+00 -1.4335299758835D-05  8.1563443000130D-05
   145  1.4400000000000D+00 -3.9833810928118D-07  2.2839190927276D-06
   146  1.4500000000000D+00  2.2759037898143D-06 -1.2767903079262D-05
   147  1.4600000000000D+00 -2.7217236739746D-07  1.5257551043451D-06
   148  1.4700000000000D+00 -4.1588088806517D-07  2.3286127520430D-06
   149  1.4800000000000D+00  5.3486122346424D-08 -3.0422038882738D-07
   150  1.4900000000000D+00  3.0244445675605D-08 -1.7202550156295D-07
   151  1.5000000000000D+00  0.0000000000000D+00  0.0000000000000D+00
   152  1.5100000000000D+00  0.0000000000000D+00  0.0000000000000D+00
   153  1.5200000000000D+00  0.0000000000000D+00  0.0000000000000D+00
   154  1.5300000000000D+00  0.0000000000000D+00  0.0000000000000D+00
   155  1.5400000000000D+00  0.0000000000000D+00  0.0000000000000D+00
   156  1.5500000000000D+00  0.0000000000000D+00  0.0000000000000D+00
   157  1.5600000000000D+00  0.0000000000000D+00  0.0000000000000D+00
   158  1.5700000000000D+00  0.0000000000000D+00  0.0000000000000D+00
   159  1.5800000000000D+00  0.0000000000000D+00  0.0000000000000D+00
   160  1.5900000000000D+00  0.0000000000000D+00  0.0000000000000D+00
   161  1.6000000000000D+00  0.0000000000000D+00  0.0000000000000D+00
   162  1.6100000000000D+00  0.0000000000000D+00  0.0000000000000D+00
   163  1.6200000000000D+00  0.0000000000000D+00  0.0000000000000D+00
   164  1.6300000000000D+00  0.0000000000000D+00  0.0000000000000D+00
   165  1.6400000000000D+00  0.0000000000000D+00  0.0000000000000D+00
   166  1.6500000000000D+00  0.0000000000000D+00  0.0000000000000D+00
   167  1.6600000000000D+00  0.0000000000000D+00  0.0000000000000D+00
   168  1.6700000000000D+00  0.0000000000000D+00  0.0000000000000D+00
   169  1.6800000000000D+00  0.0000000000000D+00  0.0000000000000D+00
   170  1.6900000000000D+00  0.0000000000000D+00  0.0000000000000D+00
   171  1.7000000000000D+00  0.0000000000000D+00  0.0000000000000D+00
   172  1.7100000000000D+00  0.0000000000000D+00  0.0000000000000D+00
   173  1.7200000000000D+00  0.0000000000000D+00  0.0000000000000D+00
   174  1.7300000000000D+00  0.0000000000000D+00  0.0000000000000D+00
   175  1.7400000000000D+00  0.0000000000000D+00  0.0000000000000D+00
   176  1.7500000000000D+00  0.0000000000000D+00  0.0000000000000D+00
   177  1.7600000000000D+00  0.0000000000000D+00  0.0000000000000D+00
   178  1.7700000000000D+00  0.0000000000000D+00  0.0000000000000D+00
   179  1.7800000000000D+00  0.0000000000000D+00  0.0000000000000D+00
   180  1.7900000000000D+00  0.0000000000000D+00  0.0000000000000D+00
   181  1.8000000000000D+00  0.0000000000000D+00  0.0000000000000D+00
   182  1.8100000000000D+00  0.0000000000000D+00  0.0000000000000D+00
   183  1.8200000000000D+00  0.0000000000000D+00  0.0000000000000D+00
   184  1.8300000000000D+00  0.0000000000000D+00  0.0000000000000D+00
   185  1.8400000000000D+00  0.0000000000000D+00  0.0000000000000D+00
   186  1.8500000000000D+00  0.0000000000000D+00  0.0000000000000D+00
   187  1.8600000000000D+00  0.0000000000000D+00  0.0000000000000D+00
   188  1.8700000000000D+00  0.0000000000000D+00  0.0000000000000D+00
   189  1.8800000000000D+00  0.0000000000000D+00  0.0000000000000D+00
   190  1.8900000000000D+00  0.0000000000000D+00  0.0000000000000D+00
   191  1.9000000000000D+00  0.0000000000000D+00  0.0000000000000D+00
   192  1.9100000000000D+00  0.0000000000000D+00  0.0000000000000D+00
   193  1.9200000000000D+00  0.0000000000000D+00  0.0000000000000D+00
   194  1.9300000000000D+00  0.0000000000000D+00  0.0000000000000D+00
   195  1.9400000000000D+00  0.0000000000000D+00  0.0000000000000D+00
   196  1.9500000000000D+00  0.0000000000000D+00  0.0000000000000D+00
   197  1.9600000000000D+00  0.0000000000000D+00  0.0000000000000D+00
   198  1.9700000000000D+00  0.0000000000000D+00  0.0000000000000D+00
   199  1.9800000000000D+00  0.0000000000000D+00  0.0000000000000D+00
   200  1.9900000000000D+00  0.0000000000000D+00  0.0000000000000D+00
   201  2.0000000000000D+00  0.0000000000000D+00  0.0000000000000D+00
   202  2.0100000000000D+00  0.0000000000000D+00  0.0000000000000D+00
   203  2.0200000000000D+00  0.0000000000000D+00  0.0000000000000D+00
   204  2.0300000000000D+00  0.0000000000000D+00  0.0000000000000D+00
   205  2.0400000000000D+00  0.0000000000000D+00  0.0000000000000D+00
   206  2.0500000000000D+00  0.0000000000000D+00  0.0000000000000D+00
   207  2.0600000000000D+00  0.0000000000000D+00  0.0000000000000D+00
   208  2.0700000000000D+00  0.0000000000000D+00  0.0000000000000D+00
   209  2.0800000000000D+00  0.0000000000000D+00  0.0000000000000D+00
   210  2.0900000000000D+00  0.0000000000000D+00  0.0000000000000D+00
   211  2.1000000000000D+00  0.0000000000000D+00  0.0000000000000D+00
   212  2.1100000000000D+00  0.0000000000000D+00  0.0000000000000D+00
   213  2.1200000000000D+00  0.0000000000000D+00  0.0000000000000D+00
   214  2.1300000000000D+00  0.0000000000000D+00  0.0000000000000D+00
   215  2.1400000000000D+00  0.0000000000000D+00  0.0000000000000D+00
   216  2.1500000000000D+00  0.0000000000000D+00  0.0000000000000D+00
   217  2.1600000000000D+00  0.0000000000000D+00  0.0000000000000D+00
   218  2.1700000000000D+00  0.0000000000000D+00  0.0000000000000D+00
   219  2.1800000000000D+00  0.0000000000000D+00  0.0000000000000D+00
   220  2.1900000000000D+00  0.0000000000000D+00  0.0000000000000D+00
   221  2.2000000000000D+00  0.0000000000000D+00  0.0000000000000D+00
   222  2.2100000000000D+00  0.0000000000000D+00  0.0000000000000D+00
   223  2.2200000000000D+00  0.0000000000000D+00  0.0000000000000D+00
   224  2.2300000000000D+00  0.0000000000000D+00  0.0000000000000D+00
   225  2.2400000000000D+00  0.0000000000000D+00  0.0000000000000D+00
   226  2.2500000000000D+00  0.0000000000000D+00  0.0000000000000D+00
   227  2.2600000000000D+00  0.0000000000000D+00  0.0000000000000D+00
   228  2.2700000000000D+00  0.0000000000000D+00  0.0000000000000D+00
   229  2.2800000000000D+00  0.0000000000000D+00  0.0000000000000D+00
   230  2.2900000000000D+00  0.0000000000000D+00  0.0000000000000D+00
   231  2.3000000000000D+00  0.0000000000000D+00  0.0000000000000D+00
   232  2.3100000000000D+00  0.0000000000000D+00  0.0000000000000D+00
   233  2.3200000000000D+00  0.0000000000000D+00  0.0000000000000D+00
   234  2.3300000000000D+00  0.0000000000000D+00  0.0000000000000D+00
   235  2.3400000000000D+00  0.0000000000000D+00  0.0000000000000D+00
   236  2.3500000000000D+00  0.0000000000000D+00  0.0000000000000D+00
   237  2.3600000000000D+00  0.0000000000000D+00  0.0000000000000D+00
   238  2.3700000000000D+00  0.0000000000000D+00  0.0000000000000D+00
   239  2.3800000000000D+00  0.0000000000000D+00  0.0000000000000D+00
   240  2.3900000000000D+00  0.0000000000000D+00  0.0000000000000D+00
   241  2.4000000000000D+00  0.0000000000000D+00  0.0000000000000D+00
   242  2.4100000000000D+00  0.0000000000000D+00  0.0000000000000D+00
   243  2.4200000000000D+00  0.0000000000000D+00  0.0000000000000D+00
   244  2.4300000000000D+00  0.0000000000000D+00  0.0000000000000D+00
   245  2.4400000000000D+00  0.0000000000000D+00  0.0000000000000D+00
   246  2.4500000000000D+00  0.0000000000000D+00  0.0000000000000D+00
   247  2.4600000000000D+00  0.0000000000000D+00  0.0000000000000D+00
   248  2.4700000000000D+00  0.0000000000000D+00  0.0000000000000D+00
   249  2.4800000000000D+00  0.0000000000000D+00  0.0000000000000D+00
   250  2.4900000000000D+00  0.0000000000000D+00  0.0000000000000D+00
   251  2.5000000000000D+00  0.0000000000000D+00  0.0000000000000D+00
   252  2.5100000000000D+00  0.0000000000000D+00  0.0000000000000D+00
   253  2.5200000000000D+00  0.0000000000000D+00  0.0000000000000D+00
   254  2.5300000000000D+00  0.0000000000000D+00  0.0000000000000D+00
   255  2.5400000000000D+00  0.0000000000000D+00  0.0000000000000D+00
   256  2.5500000000000D+00  0.0000000000000D+00  0.0000000000000D+00
   257  2.5600000000000D+00  0.0000000000000D+00  0.0000000000000D+00
   258  2.5700000000000D+00  0.0000000000000D+00  0.0000000000000D+00
   259  2.5800000000000D+00  0.0000000000000D+00  0.0000000000000D+00
   260  2.5900000000000D+00  0.0000000000000D+00  0.0000000000000D+00
   261  2.6000000000000D+00  0.0000000000000D+00  0.0000000000000D+00
   262  2.6100000000000D+00  0.0000000000000D+00  0.0000000000000D+00
   263  2.6200000000000D+00  0.0000000000000D+00  0.0000000000000D+00
   264  2.6300000000000D+00  0.0000000000000D+00  0.0000000000000D+00
   265  2.6400000000000D+00  0.0000000000000D+00  0.0000000000000D+00
   266  2.6500000000000D+00  0.0000000000000D+00  0.0000000000000D+00
   267  2.6600000000000D+00  0.0000000000000D+00  0.0000000000000D+00
   268  2.6700000000000D+00  0.0000000000000D+00  0.0000000000000D+00
   269  2.6800000000000D+00  0.0000000000000D+00  0.0000000000000D+00
   270  2.6900000000000D+00  0.0000000000000D+00  0.0000000000000D+00
   271  2.7000000000000D+00  0.0000000000000D+00  0.0000000000000D+00
   272  2.7100000000000D+00  0.0000000000000D+00  0.0000000000000D+00
   273  2.7200000000000D+00  0.0000000000000D+00  0.0000000000000D+00
   274  2.7300000000000D+00  0.0000000000000D+00  0.0000000000000D+00
   275  2.7400000000000D+00  0.0000000000000D+00  0.0000000000000D+00
   276  2.7500000000000D+00  0.0000000000000D+00  0.0000000000000D+00
   277  2.7600000000000D+00  0.0000000000000D+00  0.0000000000000D+00
   278  2.7700000000000D+00  0.0000000000000D+00  0.0000000000000D+00
   279  2.7800000000000D+00  0.0000000000000D+00  0.0000000000000D+00
   280  2.7900000000000D+00  0.0000000000000D+00  0.0000000000000D+00
   281  2.8000000000000D+00  0.0000000000000D+00  0.0000000000000D+00
   282  2.8100000000000D+00  0.0000000000000D+00  0.0000000000000D+00
   283  2.8200000000000D+00  0.0000000000000D+00  0.0000000000000D+00
   284  2.8300000000000D+00  0.0000000000000D+00  0.0000000000000D+00
   285  2.8400000000000D+00  0.0000000000000D+00  0.0000000000000D+00
   286  2.8500000000000D+00  0.0000000000000D+00  0.0000000000000D+00
   287  2.8600000000000D+00  0.0000000000000D+00  0.0000000000000D+00
   288  2.8700000000000D+00  0.0000000000000D+00  0.0000000000000D+00
   289  2.8800000000000D+00  0.0000000000000D+00  0.0000000000000D+00
   290  2.8900000000000D+00  0.0000000000000D+00  0.0000000000000D+00
   291  2.9000000000000D+00  0.0000000000000D+00  0.0000000000000D+00
   292  2.9100000000000D+00  0.0000000000000D+00  0.0000000000000D+00
   293  2.9200000000000D+00  0.0000000000000D+00  0.0000000000000D+00
   294  2.9300000000000D+00  0.0000000000000D+00  0.0000000000000D+00
   295  2.9400000000000D+00  0.0000000000000D+00  0.0000000000000D+00
   296  2.9500000000000D+00  0.0000000000000D+00  0.0000000000000D+00
   297  2.9600000000000D+00  0.0000000000000D+00  0.0000000000000D+00
   298  2.9700000000000D+00  0.0000000000000D+00  0.0000000000000D+00
   299  2.9800000000000D+00  0.0000000000000D+00  0.0000000000000D+00
   300  2.9900000000000D+00  0.0000000000000D+00  0.0000000000000D+00
   301  3.0000000000000D+00  0.0000000000000D+00  0.0000000000000D+00
   302  3.0100000000000D+00  0.0000000000000D+00  0.0000000000000D+00
   303  3.0200000000000D+00  0.0000000000000D+00  0.0000000000000D+00
   304  3.0300000000000D+00  0.0000000000000D+00  0.0000000000000D+00
   305  3.0400000000000D+00  0.0000000000000D+00  0.0000000000000D+00
   306  3.0500000000000D+00  0.0000000000000D+00  0.0000000000000D+00
   307  3.0600000000000D+00  0.0000000000000D+00  0.0000000000000D+00
   308  3.0700000000000D+00  0.0000000000000D+00  0.0000000000000D+00
   309  3.0800000000000D+00  0.0000000000000D+00  0.0000000000000D+00
   310  3.0900000000000D+00  0.0000000000000D+00  0.0000000000000D+00
   311  3.1000000000000D+00  0.0000000000000D+00  0.0000000000000D+00
   312  3.1100000000000D+00  0.0000000000000D+00  0.0000000000000D+00
   313  3.1200000000000D+00  0.0000000000000D+00  0.0000000000000D+00
   314  3.1300000000000D+00  0.0000000000000D+00  0.0000000000000D+00
   315  3.1400000000000D+00  0.0000000000000D+00  0.0000000000000D+00
   316  3.1500000000000D+00  0.0000000000000D+00  0.0000000000000D+00
   317  3.1600000000000D+00  0.0000000000000D+00  0.0000000000000D+00
   318  3.1700000000000D+00  0.0000000000000D+00  0.0000000000000D+00
   319  3.1800000000000D+00  0.0000000000000D+00  0.0000000000000D+00
   320  3.1900000000000D+00  0.0000000000000D+00  0.0000000000000D+00
   321  3.2000000000000D+00  0.0000000000000D+00  0.0000000000000D+00
   322  3.2100000000000D+00  0.0000000000000D+00  0.0000000000000D+00
   323  3.2200000000000D+00  0.0000000000000D+00  0.0000000000000D+00
   324  3.2300000000000D+00  0.0000000000000D+00  0.0000000000000D+00
   325  3.2400000000000D+00  0.0000000000000D+00  0.0000000000000D+00
   326  3.2500000000000D+00  0.0000000000000D+00  0.0000000000000D+00
   327  3.2600000000000D+00  0.0000000000000D+00  0.0000000000000D+00
   328  3.2700000000000D+00  0.0000000000000D+00  0.0000000000000D+00
   329  3.2800000000000D+00  0.0000000000000D+00  0.0000000000000D+00
   330  3.2900000000000D+00  0.0000000000000D+00  0.0000000000000D+00
   331  3.3000000000000D+00  0.0000000000000D+00  0.0000000000000D+00
   332  3.3100000000000D+00  0.0000000000000D+00  0.0000000000000D+00
   333  3.3200000000000D+00  0.0000000000000D+00  0.0000000000000D+00
   334  3.3300000000000D+00  0.0000000000000D+00  0.0000000000000D+00
   335  3.3400000000000D+00  0.0000000000000D+00  0.0000000000000D+00
   336  3.3500000000000D+00  0.0000000000000D+00  0.0000000000000D+00
   337  3.3600000000000D+00  0.0000000000000D+00  0.0000000000000D+00
   338  3.3700000000000D+00  0.0000000000000D+00  0.0000000000000D+00
   339  3.3800000000000D+00  0.0000000000000D+00  0.0000000000000D+00
   340  3.3900000000000D+00  0.0000000000000D+00  0.0000000000000D+00
   341  3.4000000000000D+00  0.0000000000000D+00  0.0000000000000D+00
   342  3.4100000000000D+00  0.0000000000000D+00  0.0000000000000D+00
   343  3.4200000000000D+00  0.0000000000000D+00  0.0000000000000D+00
   344  3.4300000000000D+00  0.0000000000000D+00  0.0000000000000D+00
   345  3.4400000000000D+00  0.0000000000000D+00  0.0000000000000D+00
   346  3.4500000000000D+00  0.0000000000000D+00  0.0000000000000D+00
   347  3.4600000000000D+00  0.0000000000000D+00  0.0000000000000D+00
   348  3.4700000000000D+00  0.0000000000000D+00  0.0000000000000D+00
   349  3.4800000000000D+00  0.0000000000000D+00  0.0000000000000D+00
   350  3.4900000000000D+00  0.0000000000000D+00  0.0000000000000D+00
   351  3.5000000000000D+00  0.0000000000000D+00  0.0000000000000D+00
   352  3.5100000000000D+00  0.0000000000000D+00  0.0000000000000D+00
   353  3.5200000000000D+00  0.0000000000000D+00  0.0000000000000D+00
   354  3.5300000000000D+00  0.0000000000000D+00  0.0000000000000D+00
   355  3.5400000000000D+00  0.0000000000000D+00  0.0000000000000D+00
   356  3.5500000000000D+00  0.0000000000000D+00  0.0000000000000D+00
   357  3.5600000000000D+00  0.0000000000000D+00  0.0000000000000D+00
   358  3.5700000000000D+00  0.0000000000000D+00  0.0000000000000D+00
   359  3.5800000000000D+00  0.0000000000000D+00  0.0000000000000D+00
   360  3.5900000000000D+00  0.0000000000000D+00  0.0000000000000D+00
   361  3.6000000000000D+00  0.0000000000000D+00  0.0000000000000D+00
   362  3.6100000000000D+00  0.0000000000000D+00  0.0000000000000D+00
   363  3.6200000000000D+00  0.0000000000000D+00  0.0000000000000D+00
   364  3.6300000000000D+00  0.0000000000000D+00  0.0000000000000D+00
   365  3.6400000000000D+00  0.0000000000000D+00  0.0000000000000D+00
   366  3.6500000000000D+00  0.0000000000000D+00  0.0000000000000D+00
   367  3.6600000000000D+00  0.0000000000000D+00  0.0000000000000D+00
   368  3.6700000000000D+00  0.0000000000000D+00  0.0000000000000D+00
   369  3.6800000000000D+00  0.0000000000000D+00  0.0000000000000D+00
   370  3.6900000000000D+00  0.0000000000000D+00  0.0000000000000D+00
   371  3.7000000000000D+00  0.0000000000000D+00  0.0000000000000D+00
   372  3.7100000000000D+00  0.0000000000000D+00  0.0000000000000D+00
   373  3.7200000000000D+00  0.0000000000000D+00  0.0000000000000D+00
   374  3.7300000000000D+00  0.0000000000000D+00  0.0000000000000D+00
   375  3.7400000000000D+00  0.0000000000000D+00  0.0000000000000D+00
   376  3.7500000000000D+00  0.0000000000000D+00  0.0000000000000D+00
   377  3.7600000000000D+00  0.0000000000000D+00  0.0000000000000D+00
   378  3.7700000000000D+00  0.0000000000000D+00  0.0000000000000D+00
   379  3.7800000000000D+00  0.0000000000000D+00  0.0000000000000D+00
   380  3.7900000000000D+00  0.0000000000000D+00  0.0000000000000D+00
   381  3.8000000000000D+00  0.0000000000000D+00  0.0000000000000D+00
   382  3.8100000000000D+00  0.0000000000000D+00  0.0000000000000D+00
   383  3.8200000000000D+00  0.0000000000000D+00  0.0000000000000D+00
   384  3.8300000000000D+00  0.0000000000000D+00  0.0000000000000D+00
   385  3.8400000000000D+00  0.0000000000000D+00  0.0000000000000D+00
   386  3.8500000000000D+00  0.0000000000000D+00  0.0000000000000D+00
   387  3.8600000000000D+00  0.0000000000000D+00  0.0000000000000D+00
   388  3.8700000000000D+00  0.0000000000000D+00  0.0000000000000D+00
   389  3.8800000000000D+00  0.0000000000000D+00  0.0000000000000D+00
   390  3.8900000000000D+00  0.0000000000000D+00  0.0000000000000D+00
   391  3.9000000000000D+00  0.0000000000000D+00  0.0000000000000D+00
   392  3.9100000000000D+00  0.0000000000000D+00  0.0000000000000D+00
   393  3.9200000000000D+00  0.0000000000000D+00  0.0000000000000D+00
   394  3.9300000000000D+00  0.0000000000000D+00  0.0000000000000D+00
   395  3.9400000000000D+00  0.0000000000000D+00  0.0000000000000D+00
   396  3.9500000000000D+00  0.0000000000000D+00  0.0000000000000D+00
   397  3.9600000000000D+00  0.0000000000000D+00  0.0000000000000D+00
   398  3.9700000000000D+00  0.0000000000000D+00  0.0000000000000D+00
   399  3.9800000000000D+00  0.0000000000000D+00  0.0000000000000D+00
   400  3.9900000000000D+00  0.0000000000000D+00  0.0000000000000D+00
   401  4.0000000000000D+00  0.0000000000000D+00  0.0000000000000D+00
   402  4.0100000000000D+00  0.0000000000000D+00  0.0000000000000D+00
   403  4.0200000000000D+00  0.0000000000000D+00  0.0000000000000D+00
   404  4.0300000000000D+00  0.0000000000000D+00  0.0000000000000D+00
   405  4.0400000000000D+00  0.0000000000000D+00  0.0000000000000D+00
   406  4.0500000000000D+00  0.0000000000000D+00  0.0000000000000D+00
   407  4.0600000000000D+00  0.0000000000000D+00  0.0000000000000D+00
   408  4.0700000000000D+00  0.0000000000000D+00  0.0000000000000D+00
   409  4.0800000000000D+00  0.0000000000000D+00  0.0000000000000D+00
   410  4.0900000000000D+00  0.0000000000000D+00  0.0000000000000D+00
   411  4.1000000000000D+00  0.0000000000000D+00  0.0000000000000D+00
   412  4.1100000000000D+00  0.0000000000000D+00  0.0000000000000D+00
   413  4.1200000000000D+00  0.0000000000000D+00  0.0000000000000D+00
   414  4.1300000000000D+00  0.0000000000000D+00  0.0000000000000D+00
   415  4.1400000000000D+00  0.0000000000000D+00  0.0000000000000D+00
   416  4.1500000000000D+00  0.0000000000000D+00  0.0000000000000D+00
   417  4.1600000000000D+00  0.0000000000000D+00  0.0000000000000D+00
   418  4.1700000000000D+00  0.0000000000000D+00  0.0000000000000D+00
   419  4.1800000000000D+00  0.0000000000000D+00  0.0000000000000D+00
   420  4.1900000000000D+00  0.0000000000000D+00  0.0000000000000D+00
   421  4.2000000000000D+00  0.0000000000000D+00  0.0000000000000D+00
   422  4.2100000000000D+00  0.0000000000000D+00  0.0000000000000D+00
   423  4.2200000000000D+00  0.0000000000000D+00  0.0000000000000D+00