C     ONCVPSP-3.3.1  r_core=   1.42330   1.40643
      6.0000      4.0000      210904    zatom,zion,pspd
     8      11   1     4   600     0    pspcod,pspxc,lmax,lloc,mmax,r2well
  5.99000000  0.00000000  0.00000000    rchrg fchrg qchrg
     2     2     0     0    nproj
     3     1           extension_switch
     3     0     0    nprojso
   0                         6.5385180338431D-01  7.2888516817986D+00
     1  0.0000000000000D+00 -3.5801211994979D-10 -5.5217241889949D-10
     2  1.0000000000000D-02 -2.8751696155567D-02  6.7641907573053D-02
     3  2.0000000000000D-02 -5.7442138865783D-02  1.3513746870289D-01
     4  3.0000000000000D-02 -8.6009502735497D-02  2.0234109056801D-01
     5  4.0000000000000D-02 -1.1439082781993D-01  2.6910867827149D-01
     6  5.0000000000000D-02 -1.4252147563359D-01  3.3529836064932D-01
     7  6.0000000000000D-02 -1.7033461284505D-01  4.0077118869319D-01
     8  7.0000000000000D-02 -1.9776073146389D-01  4.6539179811798D-01
     9  8.0000000000000D-02 -2.2472721396805D-01  5.2902902815646D-01
    10  9.0000000000000D-02 -2.5115795137742D-01  5.9155648933853D-01
    11  1.0000000000000D-01 -2.7697302175563D-01  6.5285307379948D-01
    12  1.1000000000000D-01 -3.0208843602111D-01  7.1280340254987D-01
    13  1.2000000000000D-01 -3.2641595727459D-01  7.7129820511551D-01
    14  1.3000000000000D-01 -3.4986299910863D-01  8.2823462800425D-01
    15  1.4000000000000D-01 -3.7233260756118D-01  8.8351646956243D-01
    16  1.5000000000000D-01 -3.9372353051563D-01  9.3705433992954D-01
    17  1.6000000000000D-01 -4.1393037744119D-01  9.8876574596943D-01
    18  1.7000000000000D-01 -4.3284387141594D-01  1.0385751022296D+00
    19  1.8000000000000D-01 -4.5035119439028D-01  1.0864136701423D+00
    20  1.9000000000000D-01 -4.6633642563530D-01  1.1322194288102D+00
    21  2.0000000000000D-01 -4.8068107229033D-01  1.1759368818012D+00
    22  2.1000000000000D-01 -4.9326468988306D-01  1.2175168053901D+00
    23  2.2000000000000D-01 -5.0396558965370D-01  1.2569159446207D+00
    24  2.3000000000000D-01 -5.1266162848043D-01  1.2940966643912D+00
    25  2.4000000000000D-01 -5.1923107618597D-01  1.3290265634931D+00
    26  2.5000000000000D-01 -5.2355355401377D-01  1.3616780601292D+00
    27  2.6000000000000D-01 -5.2551103710600D-01  1.3920279578989D+00
    28  2.7000000000000D-01 -5.2498891290367D-01  1.4200570015612D+00
    29  2.8000000000000D-01 -5.2187708653061D-01  1.4457494320487D+00
    30  2.9000000000000D-01 -5.1607112342628D-01  1.4690925502237D+00
    31  3.0000000000000D-01 -5.0747341876719D-01  1.4900762987198D+00
    32  3.1000000000000D-01 -4.9599438256984D-01  1.5086928709101D+00
    33  3.2000000000000D-01 -4.8155362880882D-01  1.5249363555861D+00
    34  3.3000000000000D-01 -4.6408115641846D-01  1.5388024253237D+00
    35  3.4000000000000D-01 -4.4351850968311D-01  1.5502880757624D+00
    36  3.5000000000000D-01 -4.1981990526515D-01  1.5593914221398D+00
    37  3.6000000000000D-01 -3.9295331297824D-01  1.5661115584176D+00
    38  3.7000000000000D-01 -3.6290147738869D-01  1.5704484832263D+00
    39  3.8000000000000D-01 -3.2966286742703D-01  1.5724030956477D+00
    40  3.9000000000000D-01 -2.9325254141658D-01  1.5719772625796D+00
    41  4.0000000000000D-01 -2.5370291527815D-01  1.5691739580938D+00
    42  4.1000000000000D-01 -2.1106442215198D-01  1.5639974738296D+00
    43  4.2000000000000D-01 -1.6540605228944D-01  1.5564536980861D+00
    44  4.3000000000000D-01 -1.1681576280754D-01  1.5465504599030D+00
    45  4.4000000000000D-01 -6.5400747765189D-02  1.5342979330769D+00
    46  4.5000000000000D-01 -1.1287560010539D-02  1.5197090937732D+00
    47  4.6000000000000D-01  4.5377922642705D-02  1.5028002241741D+00
    48  4.7000000000000D-01  1.0443069313105D-01  1.4835914534876D+00
    49  4.8000000000000D-01  1.6568697764189D-01  1.4621073266358D+00
    50  4.9000000000000D-01  2.2894476836717D-01  1.4383773900709D+00
    51  5.0000000000000D-01  2.9398452846431D-01  1.4124367834479D+00
    52  5.1000000000000D-01  3.6057006958772D-01  1.3843268253309D+00
    53  5.2000000000000D-01  4.2844960069658D-01  1.3540955807343D+00
    54  5.3000000000000D-01  4.9735694513459D-01  1.3217983981166D+00
    55  5.4000000000000D-01  5.6701292122890D-01  1.2874984034554D+00
    56  5.5000000000000D-01  6.3712687987905D-01  1.2512669392474D+00
    57  5.6000000000000D-01  7.0739839082625D-01  1.2131839366914D+00
    58  5.7000000000000D-01  7.7751906751533D-01  1.1733382099330D+00
    59  5.8000000000000D-01  8.4717451870954D-01  1.1318276620675D+00
    60  5.9000000000000D-01  9.1604641330708D-01  1.0887593935987D+00
    61  6.0000000000000D-01  9.8381464315266D-01  1.0442497052428D+00
    62  6.1000000000000D-01  1.0501595670587D+00  9.9842398831395D-01
    63  6.2000000000000D-01  1.1147643177641D+00  9.5141649742728D-01
    64  6.3000000000000D-01  1.1773171521752D+00  9.0337000189183D-01
    65  6.4000000000000D-01  1.2375138239852D+00  8.5443531389413D-01
    66  6.5000000000000D-01  1.2950599566460D+00  8.0477069340713D-01
    67  6.6000000000000D-01  1.3496733937089D+00  7.5454113163986D-01
    68  6.7000000000000D-01  1.4010865027554D+00  7.0391751675383D-01
    69  6.8000000000000D-01  1.4490484085209D+00  6.5307568750484D-01
    70  6.9000000000000D-01  1.4933271303889D+00  6.0219538236179D-01
    71  7.0000000000000D-01  1.5337115991994D+00  5.5145909350389D-01
    72  7.1000000000000D-01  1.5700135282913D+00  5.0105083686449D-01
    73  7.2000000000000D-01  1.6020691138738D+00  4.5115485105635D-01
    74  7.3000000000000D-01  1.6297405402173D+00  4.0195423953690D-01
    75  7.4000000000000D-01  1.6529172657500D+00  3.5362957174491D-01
    76  7.5000000000000D-01  1.6715170669579D+00  3.0635746012915D-01
    77  7.6000000000000D-01  1.6854868179924D+00  2.6030913097696D-01
    78  7.7000000000000D-01  1.6948029851002D+00  2.1564900772349D-01
    79  7.8000000000000D-01  1.6994718163841D+00  1.7253332595581D-01
    80  7.9000000000000D-01  1.6995292089672D+00  1.3110879961899D-01
    81  8.0000000000000D-01  1.6950402379833D+00  9.1511357991173D-02
    82  8.1000000000000D-01  1.6860983324261D+00  5.3864972663927D-02
    83  8.2000000000000D-01  1.6728240550458D+00  1.8280592898736D-02
    84  8.3000000000000D-01  1.6553635490452D+00 -1.5144791864444D-02
    85  8.4000000000000D-01  1.6338832167298D+00 -4.6329034572133D-02
    86  8.5000000000000D-01  1.6085633769745D+00 -7.5205423844140D-02
    87  8.6000000000000D-01  1.5795962965752D+00 -1.0172288571534D-01
    88  8.7000000000000D-01  1.5471857774534D+00 -1.2584603680148D-01
    89  8.8000000000000D-01  1.5115466894168D+00 -1.4755516681863D-01
    90  8.9000000000000D-01  1.4729045033144D+00 -1.6684613884010D-01
    91  9.0000000000000D-01  1.4314947091973D+00 -1.8373020218720D-01
    92  9.1000000000000D-01  1.3875620746382D+00 -1.9823370898415D-01
    93  9.2000000000000D-01  1.3413597241271D+00 -2.1039772592575D-01
    94  9.3000000000000D-01  1.2931480369680D+00 -2.2027753458472D-01
    95  9.4000000000000D-01  1.2431933723569D+00 -2.2794201601760D-01
    96  9.5000000000000D-01  1.1917666377276D+00 -2.3347291816557D-01
    97  9.6000000000000D-01  1.1391417213634D+00 -2.3696400736183D-01
    98  9.7000000000000D-01  1.0855938133656D+00 -2.3852010800562D-01
    99  9.8000000000000D-01  1.0313976409326D+00 -2.3825603707908D-01
   100  9.9000000000000D-01  9.7682564498134D-01 -2.3629544250574D-01
   101  1.0000000000000D+00  9.2214612538262D-01 -2.3276955657730D-01
   102  1.0100000000000D+00  8.6762138193730D-01 -2.2781587746522D-01
   103  1.0200000000000D+00  8.1350587752451D-01 -2.2157679342782D-01
   104  1.0300000000000D+00  7.6004444884936D-01 -2.1419816558237D-01
   105  1.0400000000000D+00  7.0747058890076D-01 -2.0582788607008D-01
   106  1.0500000000000D+00  6.5600482375975D-01 -1.9661442906711D-01
   107  1.0600000000000D+00  6.0585320453259D-01 -1.8670541246252D-01
   108  1.0700000000000D+00  5.5720593332911D-01 -1.7624618803669D-01
   109  1.0800000000000D+00  5.1023614017111D-01 -1.6537847773013D-01
   110  1.0900000000000D+00  4.6509882543463D-01 -1.5423907300716D-01
   111  1.1000000000000D+00  4.2192998043847D-01 -1.4295861360639D-01
   112  1.1100000000000D+00  3.8084589628135D-01 -1.3166046087689D-01
   113  1.1200000000000D+00  3.4194266874804D-01 -1.2045967960291D-01
   114  1.1300000000000D+00  3.0529590476063D-01 -1.0946214073809D-01
   115  1.1400000000000D+00  2.7096063352609D-01 -9.8763755820248D-02
   116  1.1500000000000D+00  2.3897142329827D-01 -8.8449852185647D-02
   117  1.1600000000000D+00  2.0934270207599D-01 -7.8594695842902D-02
   118  1.1700000000000D+00  1.8206927846568D-01 -6.9261166939596D-02
   119  1.1800000000000D+00  1.5712705691341D-01 -6.0500590851863D-02
   120  1.1900000000000D+00  1.3447393927313D-01 -5.2352725623072D-02
   121  1.2000000000000D+00  1.1405090254676D-01 -4.4845904176825D-02
   122  1.2100000000000D+00  9.5783240739834D-02 -3.7997327493796D-02
   123  1.2200000000000D+00  7.9581957743950D-02 -3.1813503803700D-02
   124  1.2300000000000D+00  6.5345295438252D-02 -2.6290825404680D-02
   125  1.2400000000000D+00  5.2960380460018D-02 -2.1416273591907D-02
   126  1.2500000000000D+00  4.2304972028978D-02 -1.7168240854115D-02
   127  1.2600000000000D+00  3.3249291559810D-02 -1.3517456959756D-02
   128  1.2700000000000D+00  2.5657914259852D-02 -1.0428004481583D-02
   129  1.2800000000000D+00  1.9391702457302D-02 -7.8584086402624D-03
   130  1.2900000000000D+00  1.4309759507567D-02 -5.7627845219275D-03
   131  1.3000000000000D+00  1.0271383352222D-02 -4.0920243564040D-03
   132  1.3100000000000D+00  7.1379985831217D-03 -2.7950072900383D-03
   133  1.3200000000000D+00  4.7750458996484D-03 -1.8198131080110D-03
   134  1.3300000000000D+00  3.0538092104954D-03 -1.1149223156187D-03
   135  1.3400000000000D+00  1.8531597572521D-03 -6.3038421602533D-04
   136  1.3500000000000D+00  1.0611988312272D-03 -3.1893572095597D-04
   137  1.3600000000000D+00  5.7678195259931D-04 -1.3705503363909D-04
   138  1.3700000000000D+00  3.1090614276885D-04 -4.5932926320886D-05
   139  1.3800000000000D+00  1.8821449704090D-04 -1.2409600980835D-05
   140  1.3900000000000D+00  1.4664160228177D-04 -9.4241469792166D-06
   141  1.4000000000000D+00  1.3920304847765D-04 -1.6962054376412D-05
   142  1.4100000000000D+00  1.4769338939501D-04 -2.4520750151571D-05
   143  1.4200000000000D+00  1.4427503851069D-04 -2.5432595593321D-05
   144  1.4300000000000D+00  8.1828435002765D-05 -1.4384475939107D-05
   145  1.4400000000000D+00  2.2914204529121D-06 -3.9972923876495D-07
   146  1.4500000000000D+00 -1.2809332083594D-05  2.2835877997992D-06
   147  1.4600000000000D+00  1.5306823864512D-06 -2.7308675719175D-07
   148  1.4700000000000D+00  2.3361349503312D-06 -4.1727673696723D-07
   149  1.4800000000000D+00 -3.0519938942797D-07  5.3667957649567D-08
   150  1.4900000000000D+00 -1.7257909059094D-07  3.0347266888034D-08
   151  1.5000000000000D+00  0.0000000000000D+00  0.0000000000000D+00
   152  1.5100000000000D+00  0.0000000000000D+00  0.0000000000000D+00
   153  1.5200000000000D+00  0.0000000000000D+00  0.0000000000000D+00
   154  1.5300000000000D+00  0.0000000000000D+00  0.0000000000000D+00
   155  1.5400000000000D+00  0.0000000000000D+00  0.0000000000000D+00
   156  1.5500000000000D+00  0.0000000000000D+00  0.0000000000000D+00
   157  1.5600000000000D+00  0.0000000000000D+00  0.0000000000000D+00
   158  1.5700000000000D+00  0.0000000000000D+00  0.0000000000000D+00
   159  1.5800000000000D+00  0.0000000000000D+00  0.0000000000000D+00
   160  1.5900000000000D+00  0.0000000000000D+00  0.0000000000000D+00
   161  1.6000000000000D+00  0.0000000000000D+00  0.0000000000000D+00
   162  1.6100000000000D+00  0.0000000000000D+00  0.0000000000000D+00
   163  1.6200000000000D+00  0.0000000000000D+00  0.0000000000000D+00
   164  1.6300000000000D+00  0.0000000000000D+00  0.0000000000000D+00
   165  1.6400000000000D+00  0.0000000000000D+00  0.0000000000000D+00
   166  1.6500000000000D+00  0.0000000000000D+00  0.0000000000000D+00
   167  1.6600000000000D+00  0.0000000000000D+00  0.0000000000000D+00
   168  1.6700000000000D+00  0.0000000000000D+00  0.0000000000000D+00
   169  1.6800000000000D+00  0.0000000000000D+00  0.0000000000000D+00
   170  1.6900000000000D+00  0.0000000000000D+00  0.0000000000000D+00
   171  1.7000000000000D+00  0.0000000000000D+00  0.0000000000000D+00
   172  1.7100000000000D+00  0.0000000000000D+00  0.0000000000000D+00
   173  1.7200000000000D+00  0.0000000000000D+00  0.0000000000000D+00
   174  1.7300000000000D+00  0.0000000000000D+00  0.0000000000000D+00
   175  1.7400000000000D+00  0.0000000000000D+00  0.0000000000000D+00
   176  1.7500000000000D+00  0.0000000000000D+00  0.0000000000000D+00
   177  1.7600000000000D+00  0.0000000000000D+00  0.0000000000000D+00
   178  1.7700000000000D+00  0.0000000000000D+00  0.0000000000000D+00
   179  1.7800000000000D+00  0.0000000000000D+00  0.0000000000000D+00
   180  1.7900000000000D+00  0.0000000000000D+00  0.0000000000000D+00
   181  1.8000000000000D+00  0.0000000000000D+00  0.0000000000000D+00
   182  1.8100000000000D+00  0.0000000000000D+00  0.0000000000000D+00
   183  1.8200000000000D+00  0.0000000000000D+00  0.0000000000000D+00
   184  1.8300000000000D+00  0.0000000000000D+00  0.0000000000000D+00
   185  1.8400000000000D+00  0.0000000000000D+00  0.0000000000000D+00
   186  1.8500000000000D+00  0.0000000000000D+00  0.0000000000000D+00
   187  1.8600000000000D+00  0.0000000000000D+00  0.0000000000000D+00
   188  1.8700000000000D+00  0.0000000000000D+00  0.0000000000000D+00
   189  1.8800000000000D+00  0.0000000000000D+00  0.0000000000000D+00
   190  1.8900000000000D+00  0.0000000000000D+00  0.0000000000000D+00
   191  1.9000000000000D+00  0.0000000000000D+00  0.0000000000000D+00
   192  1.9100000000000D+00  0.0000000000000D+00  0.0000000000000D+00
   193  1.9200000000000D+00  0.0000000000000D+00  0.0000000000000D+00
   194  1.9300000000000D+00  0.0000000000000D+00  0.0000000000000D+00
   195  1.9400000000000D+00  0.0000000000000D+00  0.0000000000000D+00
   196  1.9500000000000D+00  0.0000000000000D+00  0.0000000000000D+00
   197  1.9600000000000D+00  0.0000000000000D+00  0.0000000000000D+00
   198  1.9700000000000D+00  0.0000000000000D+00  0.0000000000000D+00
   199  1.9800000000000D+00  0.0000000000000D+00  0.0000000000000D+00
   200  1.9900000000000D+00  0.0000000000000D+00  0.0000000000000D+00
   201  2.0000000000000D+00  0.0000000000000D+00  0.0000000000000D+00
   202  2.0100000000000D+00  0.0000000000000D+00  0.0000000000000D+00
   203  2.0200000000000D+00  0.0000000000000D+00  0.0000000000000D+00
   204  2.0300000000000D+00  0.0000000000000D+00  0.0000000000000D+00
   205  2.0400000000000D+00  0.0000000000000D+00  0.0000000000000D+00
   206  2.0500000000000D+00  0.0000000000000D+00  0.0000000000000D+00
   207  2.0600000000000D+00  0.0000000000000D+00  0.0000000000000D+00
   208  2.0700000000000D+00  0.0000000000000D+00  0.0000000000000D+00
   209  2.0800000000000D+00  0.0000000000000D+00  0.0000000000000D+00
   210  2.0900000000000D+00  0.0000000000000D+00  0.0000000000000D+00
   211  2.1000000000000D+00  0.0000000000000D+00  0.0000000000000D+00
   212  2.1100000000000D+00  0.0000000000000D+00  0.0000000000000D+00
   213  2.1200000000000D+00  0.0000000000000D+00  0.0000000000000D+00
   214  2.1300000000000D+00  0.0000000000000D+00  0.0000000000000D+00
   215  2.1400000000000D+00  0.0000000000000D+00  0.0000000000000D+00
   216  2.1500000000000D+00  0.0000000000000D+00  0.0000000000000D+00
   217  2.1600000000000D+00  0.0000000000000D+00  0.0000000000000D+00
   218  2.1700000000000D+00  0.0000000000000D+00  0.0000000000000D+00
   219  2.1800000000000D+00  0.0000000000000D+00  0.0000000000000D+00
   220  2.1900000000000D+00  0.0000000000000D+00  0.0000000000000D+00
   221  2.2000000000000D+00  0.0000000000000D+00  0.0000000000000D+00
   222  2.2100000000000D+00  0.0000000000000D+00  0.0000000000000D+00
   223  2.2200000000000D+00  0.0000000000000D+00  0.0000000000000D+00
   224  2.2300000000000D+00  0.0000000000000D+00  0.0000000000000D+00
   225  2.2400000000000D+00  0.0000000000000D+00  0.0000000000000D+00
   226  2.2500000000000D+00  0.0000000000000D+00  0.0000000000000D+00
   227  2.2600000000000D+00  0.0000000000000D+00  0.0000000000000D+00
   228  2.2700000000000D+00  0.0000000000000D+00  0.0000000000000D+00
   229  2.2800000000000D+00  0.0000000000000D+00  0.0000000000000D+00
   230  2.2900000000000D+00  0.0000000000000D+00  0.0000000000000D+00
   231  2.3000000000000D+00  0.0000000000000D+00  0.0000000000000D+00
   232  2.3100000000000D+00  0.0000000000000D+00  0.0000000000000D+00
   233  2.3200000000000D+00  0.0000000000000D+00  0.0000000000000D+00
   234  2.3300000000000D+00  0.0000000000000D+00  0.0000000000000D+00
   235  2.3400000000000D+00  0.0000000000000D+00  0.0000000000000D+00
   236  2.3500000000000D+00  0.0000000000000D+00  0.0000000000000D+00
   237  2.3600000000000D+00  0.0000000000000D+00  0.0000000000000D+00
   238  2.3700000000000D+00  0.0000000000000D+00  0.0000000000000D+00
   239  2.3800000000000D+00  0.0000000000000D+00  0.0000000000000D+00
   240  2.3900000000000D+00  0.0000000000000D+00  0.0000000000000D+00
   241  2.4000000000000D+00  0.0000000000000D+00  0.0000000000000D+00
   242  2.4100000000000D+00  0.0000000000000D+00  0.0000000000000D+00
   243  2.4200000000000D+00  0.0000000000000D+00  0.0000000000000D+00
   244  2.4300000000000D+00  0.0000000000000D+00  0.0000000000000D+00
   245  2.4400000000000D+00  0.0000000000000D+00  0.0000000000000D+00
   246  2.4500000000000D+00  0.0000000000000D+00  0.0000000000000D+00
   247  2.4600000000000D+00  0.0000000000000D+00  0.0000000000000D+00
   248  2.4700000000000D+00  0.0000000000000D+00  0.0000000000000D+00
   249  2.4800000000000D+00  0.0000000000000D+00  0.0000000000000D+00
   250  2.4900000000000D+00  0.0000000000000D+00  0.0000000000000D+00
   251  2.5000000000000D+00  0.0000000000000D+00  0.0000000000000D+00
   252  2.5100000000000D+00  0.0000000000000D+00  0.0000000000000D+00
   253  2.5200000000000D+00  0.0000000000000D+00  0.0000000000000D+00
   254  2.5300000000000D+00  0.0000000000000D+00  0.0000000000000D+00
   255  2.5400000000000D+00  0.0000000000000D+00  0.0000000000000D+00
   256  2.5500000000000D+00  0.0000000000000D+00  0.0000000000000D+00
   257  2.5600000000000D+00  0.0000000000000D+00  0.0000000000000D+00
   258  2.5700000000000D+00  0.0000000000000D+00  0.0000000000000D+00
   259  2.5800000000000D+00  0.0000000000000D+00  0.0000000000000D+00
   260  2.5900000000000D+00  0.0000000000000D+00  0.0000000000000D+00
   261  2.6000000000000D+00  0.0000000000000D+00  0.0000000000000D+00
   262  2.6100000000000D+00  0.0000000000000D+00  0.0000000000000D+00
   263  2.6200000000000D+00  0.0000000000000D+00  0.0000000000000D+00
   264  2.6300000000000D+00  0.0000000000000D+00  0.0000000000000D+00
   265  2.6400000000000D+00  0.0000000000000D+00  0.0000000000000D+00
   266  2.6500000000000D+00  0.0000000000000D+00  0.0000000000000D+00
   267  2.6600000000000D+00  0.0000000000000D+00  0.0000000000000D+00
   268  2.6700000000000D+00  0.0000000000000D+00  0.0000000000000D+00
   269  2.6800000000000D+00  0.0000000000000D+00  0.0000000000000D+00
   270  2.6900000000000D+00  0.0000000000000D+00  0.0000000000000D+00
   271  2.7000000000000D+00  0.0000000000000D+00  0.0000000000000D+00
   272  2.7100000000000D+00  0.0000000000000D+00  0.0000000000000D+00
   273  2.7200000000000D+00  0.0000000000000D+00  0.0000000000000D+00
   274  2.7300000000000D+00  0.0000000000000D+00  0.0000000000000D+00
   275  2.7400000000000D+00  0.0000000000000D+00  0.0000000000000D+00
   276  2.7500000000000D+00  0.0000000000000D+00  0.0000000000000D+00
   277  2.7600000000000D+00  0.0000000000000D+00  0.0000000000000D+00
   278  2.7700000000000D+00  0.0000000000000D+00  0.0000000000000D+00
   279  2.7800000000000D+00  0.0000000000000D+00  0.0000000000000D+00
   280  2.7900000000000D+00  0.0000000000000D+00  0.0000000000000D+00
   281  2.8000000000000D+00  0.0000000000000D+00  0.0000000000000D+00
   282  2.8100000000000D+00  0.0000000000000D+00  0.0000000000000D+00
   283  2.8200000000000D+00  0.0000000000000D+00  0.0000000000000D+00
   284  2.8300000000000D+00  0.0000000000000D+00  0.0000000000000D+00
   285  2.8400000000000D+00  0.0000000000000D+00  0.0000000000000D+00
   286  2.8500000000000D+00  0.0000000000000D+00  0.0000000000000D+00
   287  2.8600000000000D+00  0.0000000000000D+00  0.0000000000000D+00
   288  2.8700000000000D+00  0.0000000000000D+00  0.0000000000000D+00
   289  2.8800000000000D+00  0.0000000000000D+00  0.0000000000000D+00
   290  2.8900000000000D+00  0.0000000000000D+00  0.0000000000000D+00
   291  2.9000000000000D+00  0.0000000000000D+00  0.0000000000000D+00
   292  2.9100000000000D+00  0.0000000000000D+00  0.0000000000000D+00
   293  2.9200000000000D+00  0.0000000000000D+00  0.0000000000000D+00
   294  2.9300000000000D+00  0.0000000000000D+00  0.0000000000000D+00
   295  2.9400000000000D+00  0.0000000000000D+00  0.0000000000000D+00
   296  2.9500000000000D+00  0.0000000000000D+00  0.0000000000000D+00
   297  2.9600000000000D+00  0.0000000000000D+00  0.0000000000000D+00
   298  2.9700000000000D+00  0.0000000000000D+00  0.0000000000000D+00
   299  2.9800000000000D+00  0.0000000000000D+00  0.0000000000000D+00
   300  2.9900000000000D+00  0.0000000000000D+00  0.0000000000000D+00
   301  3.0000000000000D+00  0.0000000000000D+00  0.0000000000000D+00
   302  3.0100000000000D+00  0.0000000000000D+00  0.0000000000000D+00
   303  3.0200000000000D+00  0.0000000000000D+00  0.0000000000000D+00
   304  3.0300000000000D+00  0.0000000000000D+00  0.0000000000000D+00
   305  3.0400000000000D+00  0.0000000000000D+00  0.0000000000000D+00
   306  3.0500000000000D+00  0.0000000000000D+00  0.0000000000000D+00
   307  3.0600000000000D+00  0.0000000000000D+00  0.0000000000000D+00
   308  3.0700000000000D+00  0.0000000000000D+00  0.0000000000000D+00
   309  3.0800000000000D+00  0.0000000000000D+00  0.0000000000000D+00
   310  3.0900000000000D+00  0.0000000000000D+00  0.0000000000000D+00
   311  3.1000000000000D+00  0.0000000000000D+00  0.0000000000000D+00
   312  3.1100000000000D+00  0.0000000000000D+00  0.0000000000000D+00
   313  3.1200000000000D+00  0.0000000000000D+00  0.0000000000000D+00
   314  3.1300000000000D+00  0.0000000000000D+00  0.0000000000000D+00
   315  3.1400000000000D+00  0.0000000000000D+00  0.0000000000000D+00
   316  3.1500000000000D+00  0.0000000000000D+00  0.0000000000000D+00
   317  3.1600000000000D+00  0.0000000000000D+00  0.0000000000000D+00
   318  3.1700000000000D+00  0.0000000000000D+00  0.0000000000000D+00
   319  3.1800000000000D+00  0.0000000000000D+00  0.0000000000000D+00
   320  3.1900000000000D+00  0.0000000000000D+00  0.0000000000000D+00
   321  3.2000000000000D+00  0.0000000000000D+00  0.0000000000000D+00
   322  3.2100000000000D+00  0.0000000000000D+00  0.0000000000000D+00
   323  3.2200000000000D+00  0.0000000000000D+00  0.0000000000000D+00
   324  3.2300000000000D+00  0.0000000000000D+00  0.0000000000000D+00
   325  3.2400000000000D+00  0.0000000000000D+00  0.0000000000000D+00
   326  3.2500000000000D+00  0.0000000000000D+00  0.0000000000000D+00
   327  3.2600000000000D+00  0.0000000000000D+00  0.0000000000000D+00
   328  3.2700000000000D+00  0.0000000000000D+00  0.0000000000000D+00
   329  3.2800000000000D+00  0.0000000000000D+00  0.0000000000000D+00
   330  3.2900000000000D+00  0.0000000000000D+00  0.0000000000000D+00
   331  3.3000000000000D+00  0.0000000000000D+00  0.0000000000000D+00
   332  3.3100000000000D+00  0.0000000000000D+00  0.0000000000000D+00
   333  3.3200000000000D+00  0.0000000000000D+00  0.0000000000000D+00
   334  3.3300000000000D+00  0.0000000000000D+00  0.0000000000000D+00
   335  3.3400000000000D+00  0.0000000000000D+00  0.0000000000000D+00
   336  3.3500000000000D+00  0.0000000000000D+00  0.0000000000000D+00
   337  3.3600000000000D+00  0.0000000000000D+00  0.0000000000000D+00
   338  3.3700000000000D+00  0.0000000000000D+00  0.0000000000000D+00
   339  3.3800000000000D+00  0.0000000000000D+00  0.0000000000000D+00
   340  3.3900000000000D+00  0.0000000000000D+00  0.0000000000000D+00
   341  3.4000000000000D+00  0.0000000000000D+00  0.0000000000000D+00
   342  3.4100000000000D+00  0.0000000000000D+00  0.0000000000000D+00
   343  3.4200000000000D+00  0.0000000000000D+00  0.0000000000000D+00
   344  3.4300000000000D+00  0.0000000000000D+00  0.0000000000000D+00
   345  3.4400000000000D+00  0.0000000000000D+00  0.0000000000000D+00
   346  3.4500000000000D+00  0.0000000000000D+00  0.0000000000000D+00
   347  3.4600000000000D+00  0.0000000000000D+00  0.0000000000000D+00
   348  3.4700000000000D+00  0.0000000000000D+00  0.0000000000000D+00
   349  3.4800000000000D+00  0.0000000000000D+00  0.0000000000000D+00
   350  3.4900000000000D+00  0.0000000000000D+00  0.0000000000000D+00
   351  3.5000000000000D+00  0.0000000000000D+00  0.0000000000000D+00
   352  3.5100000000000D+00  0.0000000000000D+00  0.0000000000000D+00
   353  3.5200000000000D+00  0.0000000000000D+00  0.0000000000000D+00
   354  3.5300000000000D+00  0.0000000000000D+00  0.0000000000000D+00
   355  3.5400000000000D+00  0.0000000000000D+00  0.0000000000000D+00
   356  3.5500000000000D+00  0.0000000000000D+00  0.0000000000000D+00
   357  3.5600000000000D+00  0.0000000000000D+00  0.0000000000000D+00
   358  3.5700000000000D+00  0.0000000000000D+00  0.0000000000000D+00
   359  3.5800000000000D+00  0.0000000000000D+00  0.0000000000000D+00
   360  3.5900000000000D+00  0.0000000000000D+00  0.0000000000000D+00
   361  3.6000000000000D+00  0.0000000000000D+00  0.0000000000000D+00
   362  3.6100000000000D+00  0.0000000000000D+00  0.0000000000000D+00
   363  3.6200000000000D+00  0.0000000000000D+00  0.0000000000000D+00
   364  3.6300000000000D+00  0.0000000000000D+00  0.0000000000000D+00
   365  3.6400000000000D+00  0.0000000000000D+00  0.0000000000000D+00
   366  3.6500000000000D+00  0.0000000000000D+00  0.0000000000000D+00
   367  3.6600000000000D+00  0.0000000000000D+00  0.0000000000000D+00
   368  3.6700000000000D+00  0.0000000000000D+00  0.0000000000000D+00
   369  3.6800000000000D+00  0.0000000000000D+00  0.0000000000000D+00
   370  3.6900000000000D+00  0.0000000000000D+00  0.0000000000000D+00
   371  3.7000000000000D+00  0.0000000000000D+00  0.0000000000000D+00
   372  3.7100000000000D+00  0.0000000000000D+00  0.0000000000000D+00
   373  3.7200000000000D+00  0.0000000000000D+00  0.0000000000000D+00
   374  3.7300000000000D+00  0.0000000000000D+00  0.0000000000000D+00
   375  3.7400000000000D+00  0.0000000000000D+00  0.0000000000000D+00
   376  3.7500000000000D+00  0.0000000000000D+00  0.0000000000000D+00
   377  3.7600000000000D+00  0.0000000000000D+00  0.0000000000000D+00
   378  3.7700000000000D+00  0.0000000000000D+00  0.0000000000000D+00
   379  3.7800000000000D+00  0.0000000000000D+00  0.0000000000000D+00
   380  3.7900000000000D+00  0.0000000000000D+00  0.0000000000000D+00
   381  3.8000000000000D+00  0.0000000000000D+00  0.0000000000000D+00
   382  3.8100000000000D+00  0.0000000000000D+00  0.0000000000000D+00
   383  3.8200000000000D+00  0.0000000000000D+00  0.0000000000000D+00
   384  3.8300000000000D+00  0.0000000000000D+00  0.0000000000000D+00
   385  3.8400000000000D+00  0.0000000000000D+00  0.0000000000000D+00
   386  3.8500000000000D+00  0.0000000000000D+00  0.0000000000000D+00
   387  3.8600000000000D+00  0.0000000000000D+00  0.0000000000000D+00
   388  3.8700000000000D+00  0.0000000000000D+00  0.0000000000000D+00
   389  3.8800000000000D+00  0.0000000000000D+00  0.0000000000000D+00
   390  3.8900000000000D+00  0.0000000000000D+00  0.0000000000000D+00
   391  3.9000000000000D+00  0.0000000000000D+00  0.0000000000000D+00
   392  3.9100000000000D+00  0.0000000000000D+00  0.0000000000000D+00
   393  3.9200000000000D+00  0.0000000000000D+00  0.0000000000000D+00
   394  3.9300000000000D+00  0.0000000000000D+00  0.0000000000000D+00
   395  3.9400000000000D+00  0.0000000000000D+00  0.0000000000000D+00
   396  3.9500000000000D+00  0.0000000000000D+00  0.0000000000000D+00
   397  3.9600000000000D+00  0.0000000000000D+00  0.0000000000000D+00
   398  3.9700000000000D+00  0.0000000000000D+00  0.0000000000000D+00
   399  3.9800000000000D+00  0.0000000000000D+00  0.0000000000000D+00
   400  3.9900000000000D+00  0.0000000000000D+00  0.0000000000000D+00
   401  4.0000000000000D+00  0.0000000000000D+00  0.0000000000000D+00
   402  4.0100000000000D+00  0.0000000000000D+00  0.0000000000000D+00
   403  4.0200000000000D+00  0.0000000000000D+00  0.0000000000000D+00
   404  4.0300000000000D+00  0.0000000000000D+00  0.0000000000000D+00
   405  4.0400000000000D+00  0.0000000000000D+00  0.0000000000000D+00
   406  4.0500000000000D+00  0.0000000000000D+00  0.0000000000000D+00
   407  4.0600000000000D+00  0.0000000000000D+00  0.0000000000000D+00
   408  4.0700000000000D+00  0.0000000000000D+00  0.0000000000000D+00
   409  4.0800000000000D+00  0.0000000000000D+00  0.0000000000000D+00
   410  4.0900000000000D+00  0.0000000000000D+00  0.0000000000000D+00
   411  4.1000000000000D+00  0.0000000000000D+00  0.0000000000000D+00
   412  4.1100000000000D+00  0.0000000000000D+00  0.0000000000000D+00
   413  4.1200000000000D+00  0.0000000000000D+00  0.0000000000000D+00
   414  4.1300000000000D+00  0.0000000000000D+00  0.0000000000000D+00
   415  4.1400000000000D+00  0.0000000000000D+00  0.0000000000000D+00
   416  4.1500000000000D+00  0.0000000000000D+00  0.0000000000000D+00
   417  4.1600000000000D+00  0.0000000000000D+00  0.0000000000000D+00
   418  4.1700000000000D+00  0.0000000000000D+00  0.0000000000000D+00
   419  4.1800000000000D+00  0.0000000000000D+00  0.0000000000000D+00
   420  4.1900000000000D+00  0.0000000000000D+00  0.0000000000000D+00
   421  4.2000000000000D+00  0.0000000000000D+00  0.0000000000000D+00
   422  4.2100000000000D+00  0.0000000000000D+00  0.0000000000000D+00