Cl    ONCVPSP-3.3.1  r_core=   3.22968   1.63633
     17.0000      7.0000      210904    zatom,zion,pspd
     8      11   1     4   600     0    pspcod,pspxc,lmax,lloc,mmax,r2well
  5.99000000  0.00000000  0.00000000    rchrg fchrg qchrg
     2     2     0     0     0    nproj
     1     1           extension_switch
   0                         5.7115156971942D+00 -3.2374556753836D+00
     1  0.0000000000000D+00 -5.3213544681796D-12  4.8385517814609D-11
     2  1.0000000000000D-02  5.3243794259753D-02 -5.9149688013627D-02
     3  2.0000000000000D-02  1.0640408106465D-01 -1.1803326730374D-01
     4  3.0000000000000D-02  1.5939753765523D-01 -1.7638571769628D-01
     5  4.0000000000000D-02  2.1214121020141D-01 -2.3394419210712D-01
     6  5.0000000000000D-02  2.6455269711493D-01 -2.9044909307646D-01
     7  6.0000000000000D-02  3.1655033098276D-01 -3.4564513732483D-01
     8  7.0000000000000D-02  3.6805335866820D-01 -3.9928240439432D-01
     9  8.0000000000000D-02  4.1898211913138D-01 -4.5111736548726D-01
    10  9.0000000000000D-02  4.6925821852770D-01 -5.0091388867482D-01
    11  1.0000000000000D-01  5.1880470215065D-01 -5.4844421671998D-01
    12  1.1000000000000D-01  5.6754622279455D-01 -5.9348991384272D-01
    13  1.2000000000000D-01  6.1540920512308D-01 -6.3584277785050D-01
    14  1.3000000000000D-01  6.6232200564138D-01 -6.7530571416269D-01
    15  1.4000000000000D-01  7.0821506788198D-01 -7.1169356837491D-01
    16  1.5000000000000D-01  7.5302107242904D-01 -7.4483391413648D-01
    17  1.6000000000000D-01  7.9667508142045D-01 -7.7456779325192D-01
    18  1.7000000000000D-01  8.3911467718333D-01 -8.0075040506518D-01
    19  1.8000000000000D-01  8.8028009467598D-01 -8.2325174234252D-01
    20  1.9000000000000D-01  9.2011434742733D-01 -8.4195717103632D-01
    21  2.0000000000000D-01  9.5856334668431D-01 -8.5676795148714D-01
    22  2.1000000000000D-01  9.9557601349731D-01 -8.6760169880521D-01
    23  2.2000000000000D-01  1.0311043834954D+00 -8.7439278036334D-01
    24  2.3000000000000D-01  1.0651037041240D+00 -8.7709264853236D-01
    25  2.4000000000000D-01  1.0975325241408D+00 -8.7567010699565D-01
    26  2.5000000000000D-01  1.1283527751883D+00 -8.7011150919102D-01
    27  2.6000000000000D-01  1.1575298452860D+00 -8.6042088764625D-01
    28  2.7000000000000D-01  1.1850326441079D+00 -8.4662001319712D-01
    29  2.8000000000000D-01  1.2108336599384D+00 -8.2874838330457D-01
    30  2.9000000000000D-01  1.2349090082217D+00 -8.0686313891905D-01
    31  3.0000000000000D-01  1.2572384716486D+00 -7.8103890957507D-01
    32  3.1000000000000D-01  1.2778055317478D+00 -7.5136758663691D-01
    33  3.2000000000000D-01  1.2965973919771D+00 -7.1795802485585D-01
    34  3.3000000000000D-01  1.3136049923339D+00 -6.8093567264136D-01
    35  3.4000000000000D-01  1.3288230155329D+00 -6.4044213169005D-01
    36  3.5000000000000D-01  1.3422498848233D+00 -5.9663464685902D-01
    37  3.6000000000000D-01  1.3538877535458D+00 -5.4968552741183D-01
    38  3.7000000000000D-01  1.3637424865534D+00 -4.9978150100556D-01
    39  3.8000000000000D-01  1.3718236336482D+00 -4.4712300202635D-01
    40  3.9000000000000D-01  1.3781443952110D+00 -3.9192339611635D-01
    41  4.0000000000000D-01  1.3827215802236D+00 -3.3440814296784D-01
    42  4.1000000000000D-01  1.3855755569127D+00 -2.7481389968856D-01
    43  4.2000000000000D-01  1.3867301962637D+00 -2.1338756726639D-01
    44  4.3000000000000D-01  1.3862128086787D+00 -1.5038528287960D-01
    45  4.4000000000000D-01  1.3840540740764D+00 -8.6071361011299D-02
    46  4.5000000000000D-01  1.3802879657504D+00 -2.0717186532440D-02
    47  4.6000000000000D-01  1.3749516683276D+00  4.5399936884670D-02
    48  4.7000000000000D-01  1.3680854901856D+00  1.1199797946990D-01
    49  4.8000000000000D-01  1.3597327707080D+00  1.7879141544247D-01
    50  4.9000000000000D-01  1.3499397827762D+00  2.4549248657627D-01
    51  5.0000000000000D-01  1.3387556309107D+00  3.1181249517602D-01
    52  5.1000000000000D-01  1.3262321454942D+00  3.7746312224518D-01
    53  5.2000000000000D-01  1.3124237735195D+00  4.4215776648660D-01
    54  5.3000000000000D-01  1.2973874663230D+00  5.0561289964763D-01
    55  5.4000000000000D-01  1.2811825647727D+00  5.6754943360512D-01
    56  5.5000000000000D-01  1.2638706823933D+00  6.2769409448162D-01
    57  5.6000000000000D-01  1.2455155869185D+00  6.8578079899290D-01
    58  5.7000000000000D-01  1.2261830807690D+00  7.4155202814964D-01
    59  5.8000000000000D-01  1.2059408809613D+00  7.9476019337235D-01
    60  5.9000000000000D-01  1.1848584989563D+00  8.4516899002892D-01
    61  6.0000000000000D-01  1.1630071209605D+00  8.9255473336955D-01
    62  6.1000000000000D-01  1.1404594891949D+00  9.3670767181325D-01
    63  6.2000000000000D-01  1.1172897846437D+00  9.7743327253519D-01
    64  6.3000000000000D-01  1.0935735117974D+00  1.0145534743138D+00
    65  6.4000000000000D-01  1.0693873858983D+00  1.0479079026224D+00
    66  6.5000000000000D-01  1.0448092231925D+00  1.0773550419899D+00
    67  6.6000000000000D-01  1.0199178346859D+00  1.1027733607126D+00
    68  6.7000000000000D-01  9.9479292389378D-01  1.1240623830706D+00
    69  6.8000000000000D-01  9.6951498906246D-01  1.1411437042871D+00
    70  6.9000000000000D-01  9.4416523033068D-01  1.1539619435772D+00
    71  7.0000000000000D-01  9.1882546228562D-01  1.1624856307425D+00
    72  7.1000000000000D-01  8.9357803235258D-01  1.1667080219098D+00
    73  7.2000000000000D-01  8.6850574544195D-01  1.1666478401512D+00
    74  7.3000000000000D-01  8.4369179525881D-01  1.1623499368922D+00
    75  7.4000000000000D-01  8.1921970266134D-01  1.1538858701864D+00
    76  7.5000000000000D-01  7.9517326143363D-01  1.1413543961273D+00
    77  7.6000000000000D-01  7.7163649181611D-01  1.1248818698725D+00
    78  7.7000000000000D-01  7.4869360211369D-01  1.1046225529693D+00
    79  7.8000000000000D-01  7.2642895867697D-01  1.0807588239035D+00
    80  7.9000000000000D-01  7.0492706483565D-01  1.0535012892503D+00
    81  8.0000000000000D-01  6.8427254676079D-01  1.0230887912864D+00
    82  8.1000000000000D-01  6.6455014546579D-01  9.8978830807618D-01
    83  8.2000000000000D-01  6.4584369917306D-01  9.5389402139349D-01
    84  8.3000000000000D-01  6.2822948078235D-01  9.1572145794057D-01
    85  8.4000000000000D-01  6.1176158226929D-01  8.7559227890829D-01
    86  8.5000000000000D-01  5.9646237301064D-01  8.3381795852978D-01
    87  8.6000000000000D-01  5.8231626837581D-01  7.9068298410794D-01
    88  8.7000000000000D-01  5.6926811771712D-01  7.4643046327527D-01
    89  8.8000000000000D-01  5.5722663658776D-01  7.0125274230017D-01
    90  8.9000000000000D-01  5.4607242769090D-01  6.5528880947561D-01
    91  9.0000000000000D-01  5.3566924653315D-01  6.0862889609379D-01
    92  9.1000000000000D-01  5.2587653934767D-01  5.6132515976128D-01
    93  9.2000000000000D-01  5.1656111497974D-01  5.1340606057761D-01
    94  9.3000000000000D-01  5.0760618647513D-01  4.6489147577761D-01
    95  9.4000000000000D-01  4.9891679044270D-01  4.1580585076184D-01
    96  9.5000000000000D-01  4.9042149191084D-01  3.6618759507135D-01
    97  9.6000000000000D-01  4.8207101872902D-01  3.1609409900418D-01
    98  9.7000000000000D-01  4.7383486910408D-01  2.6560276563141D-01
    99  9.8000000000000D-01  4.6569698355501D-01  2.1480907846591D-01
   100  9.9000000000000D-01  4.5765137076106D-01  1.6382291822319D-01
   101  1.0000000000000D+00  4.4969826277206D-01  1.1276420369420D-01
   102  1.0100000000000D+00  4.4184108140230D-01  6.1758649155838D-02
   103  1.0200000000000D+00  4.3408425408195D-01  1.0934085657551D-02
   104  1.0300000000000D+00  4.2643179011790D-01 -3.9582460765469D-02
   105  1.0400000000000D+00  4.1888646255060D-01 -8.9666925307700D-02
   106  1.0500000000000D+00  4.1144943090071D-01 -1.3919968822614D-01
   107  1.0600000000000D+00  4.0412016088477D-01 -1.8806651849225D-01
   108  1.0700000000000D+00  3.9689652429349D-01 -2.3615911458112D-01
   109  1.0800000000000D+00  3.8977499903201D-01 -2.8337535879302D-01
   110  1.0900000000000D+00  3.8275091223959D-01 -3.2961937909739D-01
   111  1.1000000000000D+00  3.7581869154538D-01 -3.7480148836689D-01
   112  1.1100000000000D+00  3.6897210395028D-01 -4.1883805060933D-01
   113  1.1200000000000D+00  3.6220447169505D-01 -4.6165130828592D-01
   114  1.1300000000000D+00  3.5550886122520D-01 -5.0316919184697D-01
   115  1.1400000000000D+00  3.4887824420880D-01 -5.4332512618186D-01
   116  1.1500000000000D+00  3.4230563204657D-01 -5.8205784233218D-01
   117  1.1600000000000D+00  3.3578418623248D-01 -6.1931119959994D-01
   118  1.1700000000000D+00  3.2930730731938D-01 -6.5503402018723D-01
   119  1.1800000000000D+00  3.2286870515580D-01 -6.8917993757434D-01
   120  1.1900000000000D+00  3.1646245299650D-01 -7.2170725864141D-01
   121  1.2000000000000D+00  3.1008302800456D-01 -7.5257883844482D-01
   122  1.2100000000000D+00  3.0372534013806D-01 -7.8176196668810D-01
   123  1.2200000000000D+00  2.9738475124497D-01 -8.0922826454331D-01
   124  1.2300000000000D+00  2.9105708633075D-01 -8.3495358958801D-01
   125  1.2400000000000D+00  2.8473863816082D-01 -8.5891794754445D-01
   126  1.2500000000000D+00  2.7842616646937D-01 -8.8110540909136D-01
   127  1.2600000000000D+00  2.7211689296273D-01 -9.0150402982806D-01
   128  1.2700000000000D+00  2.6580849291129D-01 -9.2010577195986D-01
   129  1.2800000000000D+00  2.5949908407806D-01 -9.3690642632448D-01
   130  1.2900000000000D+00  2.5318721366459D-01 -9.5190553340938D-01
   131  1.3000000000000D+00  2.4687184373879D-01 -9.6510630233816D-01
   132  1.3100000000000D+00  2.4055233554408D-01 -9.7651552700984D-01
   133  1.3200000000000D+00  2.3422843307227D-01 -9.8614349855368D-01
   134  1.3300000000000D+00  2.2790024610958D-01 -9.9400391367790D-01
   135  1.3400000000000D+00  2.2156823295965D-01 -1.0001137785743D+00
   136  1.3500000000000D+00  2.1523318303415D-01 -1.0044933080152D+00
   137  1.3600000000000D+00  2.0889619937350D-01 -1.0071658197265D+00
   138  1.3700000000000D+00  2.0255868121107D-01 -1.0081576239674D+00
   139  1.3800000000000D+00  1.9622230663686D-01 -1.0074979084271D+00
   140  1.3900000000000D+00  1.8988901538583D-01 -1.0052186187207D+00
   141  1.4000000000000D+00  1.8356099179768D-01 -1.0013543346566D+00
   142  1.4100000000000D+00  1.7724064795142D-01 -9.9594214265978D-01
   143  1.4200000000000D+00  1.7093060699310D-01 -9.8902150468859D-01
   144  1.4300000000000D+00  1.6463368666323D-01 -9.8063412401665D-01
   145  1.4400000000000D+00  1.5835288302737D-01 -9.7082380832186D-01
   146  1.4500000000000D+00  1.5209135441665D-01 -9.5963633047063D-01
   147  1.4600000000000D+00  1.4585240558086D-01 -9.4711928745198D-01
   148  1.4700000000000D+00  1.3963947206174D-01 -9.3332195786869D-01
   149  1.4800000000000D+00  1.3345610478968D-01 -9.1829515843771D-01
   150  1.4900000000000D+00  1.2730595491726D-01 -9.0209109988236D-01
   151  1.5000000000000D+00  1.2119275889290D-01 -8.8476324267480D-01
   152  1.5100000000000D+00  1.1512032379201D-01 -8.6636615297691D-01
   153  1.5200000000000D+00  1.0909251291301D-01 -8.4695535920708D-01
   154  1.5300000000000D+00  1.0311323165537D-01 -8.2658720958019D-01
   155  1.5400000000000D+00  9.7186413693129D-02 -8.0531873097507D-01
   156  1.5500000000000D+00  9.1316007459347D-02 -7.8320748949845D-01
   157  1.5600000000000D+00  8.5505962958090D-02 -7.6031145300900D-01
   158  1.5700000000000D+00  7.9760218920602D-02 -7.3668885599633D-01
   159  1.5800000000000D+00  7.4082690321623D-02 -7.1239806698515D-01
   160  1.5900000000000D+00  6.8477256273982D-02 -6.8749745887759D-01
   161  1.6000000000000D+00  6.2947748315279D-02 -6.6204528233780D-01
   162  1.6100000000000D+00  5.7497939106272D-02 -6.3609954260157D-01
   163  1.6200000000000D+00  5.2131531552061D-02 -6.0971787979872D-01
   164  1.6300000000000D+00  4.6852148365586D-02 -5.8295745311001D-01
   165  1.6400000000000D+00  4.1663322082356D-02 -5.5587482884285D-01
   166  1.6500000000000D+00  3.6568485543828D-02 -5.2852587268656D-01
   167  1.6600000000000D+00  3.1570962857196D-02 -5.0096564622490D-01
   168  1.6700000000000D+00  2.6673960846425D-02 -4.7324830791138D-01
   169  1.6800000000000D+00  2.1880561000166D-02 -4.4542701857389D-01
   170  1.6900000000000D+00  1.7193711928483D-02 -4.1755385160858D-01
   171  1.7000000000000D+00  1.2616222332034D-02 -3.8967970790889D-01
   172  1.7100000000000D+00  8.1507544932663D-03 -3.6185423565593D-01
   173  1.7200000000000D+00  3.7998182897589D-03 -3.3412575498555D-01
   174  1.7300000000000D+00 -4.3423426214645D-04 -3.0654118763874D-01
   175  1.7400000000000D+00 -4.5492139376750D-03 -2.7914599156746D-01
   176  1.7500000000000D+00 -8.5430986998648D-03 -2.5198410059824D-01
   177  1.7600000000000D+00 -1.2414037572016D-02 -2.2509786906983D-01
   178  1.7700000000000D+00 -1.6160353976658D-02 -1.9852802155863D-01
   179  1.7800000000000D+00 -1.9780548558903D-02 -1.7231360754002D-01
   180  1.7900000000000D+00 -2.3273301481540D-02 -1.4649196112507D-01
   181  1.8000000000000D+00 -2.6637474218192D-02 -1.2109866564290D-01
   182  1.8100000000000D+00 -2.9872110827672D-02 -9.6167523243340D-02
   183  1.8200000000000D+00 -3.2976438744389D-02 -7.1730529213975D-02
   184  1.8300000000000D+00 -3.5949869065817D-02 -4.7817851204868D-02
   185  1.8400000000000D+00 -3.8791996376591D-02 -2.4457813030169D-02
   186  1.8500000000000D+00 -4.1502598093150D-02 -1.6768831811265D-03
   187  1.8600000000000D+00 -4.4081633352752D-02  2.0500332217590D-02
   188  1.8700000000000D+00 -4.6529241467858D-02  4.2051091995989D-02
   189  1.8800000000000D+00 -4.8845739977410D-02  6.2954518253545D-02
   190  1.8900000000000D+00 -5.1031622264222D-02  8.3191590496159D-02
   191  1.9000000000000D+00 -5.3087554718334D-02  1.0274513566474D-01
   192  1.9100000000000D+00 -5.5014373517785D-02  1.2159981430148D-01
   193  1.9200000000000D+00 -5.6813081175264D-02  1.3974210289575D-01
   194  1.9300000000000D+00 -5.8484842779705D-02  1.5716027268901D-01
   195  1.9400000000000D+00 -6.0030981688537D-02  1.7384436483875D-01
   196  1.9500000000000D+00 -6.1452974934508D-02  1.8978616230962D-01
   197  1.9600000000000D+00 -6.2752448428551D-02  2.0497915858213D-01
   198  1.9700000000000D+00 -6.3931171926256D-02  2.1941852335606D-01
   199  1.9800000000000D+00 -6.4991053712643D-02  2.3310106540451D-01
   200  1.9900000000000D+00 -6.5934134997080D-02  2.4602519268870D-01
   201  2.0000000000000D+00 -6.6762584115751D-02  2.5819086998974D-01
   202  2.0100000000000D+00 -6.7478690557230D-02  2.6959957416583D-01
   203  2.0200000000000D+00 -6.8084858800320D-02  2.8025424723548D-01
   204  2.0300000000000D+00 -6.8583601997579D-02  2.9015924744867D-01
   205  2.0400000000000D+00 -6.8977535522082D-02  2.9932029851652D-01
   206  2.0500000000000D+00 -6.9269370395480D-02  3.0774443716478D-01
   207  2.0600000000000D+00 -6.9461906622492D-02  3.1543995921254D-01
   208  2.0700000000000D+00 -6.9558026440135D-02  3.2241636428582D-01
   209  2.0800000000000D+00 -6.9560687513721D-02  3.2868429941052D-01
   210  2.0900000000000D+00 -6.9472916088538D-02  3.3425550159317D-01
   211  2.1000000000000D+00 -6.9297800115571D-02  3.3914273955450D-01
   212  2.1100000000000D+00 -6.9038482381469D-02  3.4335975485986D-01
   213  2.1200000000000D+00 -6.8698153637003D-02  3.4692120244783D-01
   214  2.1300000000000D+00 -6.8280045767878D-02  3.4984259090081D-01
   215  2.1400000000000D+00 -6.7787425004946D-02  3.5214022247226D-01
   216  2.1500000000000D+00 -6.7223585191134D-02  3.5383113302838D-01
   217  2.1600000000000D+00 -6.6591841140780D-02  3.5493303219843D-01
   218  2.1700000000000D+00 -6.5895522068373D-02  3.5546424360534D-01
   219  2.1800000000000D+00 -6.5137965142869D-02  3.5544364559786D-01
   220  2.1900000000000D+00 -6.4322509157666D-02  3.5489061246149D-01
   221  2.2000000000000D+00 -6.3452488324980D-02  3.5382495615906D-01
   222  2.2100000000000D+00 -6.2531226225507D-02  3.5226686899303D-01
   223  2.2200000000000D+00 -6.1562029887893D-02  3.5023686693648D-01
   224  2.2300000000000D+00 -6.0548184057335D-02  3.4775573404793D-01
   225  2.2400000000000D+00 -5.9492945657890D-02  3.4484446806340D-01
   226  2.2500000000000D+00 -5.8399538431551D-02  3.4152422698348D-01
   227  2.2600000000000D+00 -5.7271147755436D-02  3.3781627708248D-01
   228  2.2700000000000D+00 -5.6110915665246D-02  3.3374194219502D-01
   229  2.2800000000000D+00 -5.4921936062419D-02  3.2932255431336D-01
   230  2.2900000000000D+00 -5.3707250208881D-02  3.2457940604941D-01
   231  2.3000000000000D+00 -5.2469842397233D-02  3.1953370439620D-01
   232  2.3100000000000D+00 -5.1212635858299D-02  3.1420652622844D-01
   233  2.3200000000000D+00 -4.9938488907081D-02  3.0861877561675D-01
   234  2.3300000000000D+00 -4.8650191296011D-02  3.0279114264143D-01
   235  2.3400000000000D+00 -4.7350460839487D-02  2.9674406426475D-01
   236  2.3500000000000D+00 -4.6041940274949D-02  2.9049768702422D-01
   237  2.3600000000000D+00 -4.4727194335694D-02  2.8407183134328D-01
   238  2.3700000000000D+00 -4.3408707109580D-02  2.7748595812875D-01
   239  2.3800000000000D+00 -4.2088879617375D-02  2.7075913709089D-01
   240  2.3900000000000D+00 -4.0770027620854D-02  2.6391001689719D-01
   241  2.4000000000000D+00 -3.9454379708645D-02  2.5695679760599D-01
   242  2.4100000000000D+00 -3.8144075593739D-02  2.4991720481455D-01
   243  2.4200000000000D+00 -3.6841164648362D-02  2.4280846577020D-01
   244  2.4300000000000D+00 -3.5547604698718D-02  2.3564728767298D-01
   245  2.4400000000000D+00 -3.4265261024625D-02  2.2844983768751D-01
   246  2.4500000000000D+00 -3.2995905594464D-02  2.2123172496665D-01
   247  2.4600000000000D+00 -3.1741216539258D-02  2.1400798474821D-01
   248  2.4700000000000D+00 -3.0502777821891D-02  2.0679306412722D-01
   249  2.4800000000000D+00 -2.9282079131663D-02  1.9960080981955D-01
   250  2.4900000000000D+00 -2.8080515995709D-02  1.9244445786126D-01
   251  2.5000000000000D+00 -2.6899390072911D-02  1.8533662492170D-01
   252  2.5100000000000D+00 -2.5739909656141D-02  1.7828930152341D-01
   253  2.5200000000000D+00 -2.4603190368356D-02  1.7131384704912D-01
   254  2.5300000000000D+00 -2.3490256025989D-02  1.6442098627491D-01
   255  2.5400000000000D+00 -2.2402039688034D-02  1.5762080767026D-01
   256  2.5500000000000D+00 -2.1339384875590D-02  1.5092276332958D-01
   257  2.5600000000000D+00 -2.0303046941347D-02  1.4433567031932D-01
   258  2.5700000000000D+00 -1.9293694598327D-02  1.3786771360941D-01
   259  2.5800000000000D+00 -1.8311911595117D-02  1.3152645047360D-01
   260  2.5900000000000D+00 -1.7358198522077D-02  1.2531881617563D-01
   261  2.6000000000000D+00 -1.6432974748700D-02  1.1925113103049D-01
   262  2.6100000000000D+00 -1.5536580482375D-02  1.1332910876125D-01
   263  2.6200000000000D+00 -1.4669278937945D-02  1.0755786599696D-01
   264  2.6300000000000D+00 -1.3831258611248D-02  1.0194193292851D-01
   265  2.6400000000000D+00 -1.3022635646898D-02  9.6485265069730D-02
   266  2.6500000000000D+00 -1.2243456295864D-02  9.1191256002673D-02
   267  2.6600000000000D+00 -1.1493699453488D-02  8.6062751077772D-02
   268  2.6700000000000D+00 -1.0773279261389D-02  8.1102062002642D-02
   269  2.6800000000000D+00 -1.0082047777666D-02  7.6310982248989D-02
   270  2.6900000000000D+00 -9.4197977101605D-03  7.1690803246983D-02
   271  2.7000000000000D+00 -8.7862651788986D-03  6.7242331215661D-02
   272  2.7100000000000D+00 -8.1811325266387D-03  6.2965904645609D-02
   273  2.7200000000000D+00 -7.6040311791473D-03  5.8861412437059D-02
   274  2.7300000000000D+00 -7.0545444996369D-03  5.4928312398991D-02
   275  2.7400000000000D+00 -6.5322106748632D-03  5.1165650256808D-02
   276  2.7500000000000D+00 -6.0365256282695D-03  4.7572079139033D-02
   277  2.7600000000000D+00 -5.5669459139417D-03  4.4145879260672D-02
   278  2.7700000000000D+00 -5.1228916110743D-03  4.0884977890761D-02
   279  2.7800000000000D+00 -4.7037492263266D-03  3.7786969632636D-02
   280  2.7900000000000D+00 -4.3088745763963D-03  3.4849136831968D-02
   281  2.8000000000000D+00 -3.9375956322760D-03  3.2068469978917D-02
   282  2.8100000000000D+00 -3.5892153528842D-03  2.9441688257731D-02
   283  2.8200000000000D+00 -3.2630145110080D-03  2.6965260257853D-02
   284  2.8300000000000D+00 -2.9582544339809D-03  2.4635424313735D-02
   285  2.8400000000000D+00 -2.6741797303020D-03  2.2448208929340D-02
   286  2.8500000000000D+00 -2.4100209941849D-03  2.0399453233180D-02
   287  2.8600000000000D+00 -2.1649974225967D-03  1.8484826986433D-02
   288  2.8700000000000D+00 -1.9383193893108D-03  1.6699850443612D-02
   289  2.8800000000000D+00 -1.7291909777638D-03  1.5039914070262D-02
   290  2.8900000000000D+00 -1.5368124558089D-03  1.3500297982707D-02
   291  2.9000000000000D+00 -1.3603826571182D-03  1.2076190834724D-02
   292  2.9100000000000D+00 -1.1991013147172D-03  1.0762708474413D-02
   293  2.9200000000000D+00 -1.0521713581797D-03  9.5549124644671D-03
   294  2.9300000000000D+00 -9.1880108317986D-04  8.4478277340673D-03
   295  2.9400000000000D+00 -7.9820627570695D-04  7.4364599973846D-03
   296  2.9500000000000D+00 -6.8961227168739D-04  6.5158127850508D-03
   297  2.9600000000000D+00 -5.9225593477149D-04  5.6809039328922D-03
   298  2.9700000000000D+00 -5.0538753548133D-04  4.9267813769286D-03
   299  2.9800000000000D+00 -4.2827256502536D-04  4.2485385191220D-03
   300  2.9900000000000D+00 -3.6019349660957D-04  3.6413292877633D-03
   301  3.0000000000000D+00 -3.0045141652233D-04  3.1003821770216D-03
   302  3.0100000000000D+00 -2.4836759784144D-04  2.6210139131835D-03
   303  3.0200000000000D+00 -2.0328499588020D-04  2.1986425584566D-03
   304  3.0300000000000D+00 -1.6456966380199D-04  1.8288000258139D-03
   305  3.0400000000000D+00 -1.3161206186429D-04  1.5071437299838D-03
   306  3.0500000000000D+00 -1.0382829880172D-04  1.2294677451270D-03
   307  3.0600000000000D+00 -8.0661303028758D-05  9.9171347034121D-04
   308  3.0700000000000D+00 -6.1581888074743D-05  7.8997937620128D-04
   309  3.0800000000000D+00 -4.6089741881519D-05  6.2053016529006D-04
   310  3.0900000000000D+00 -3.3714334983205D-05  4.7980527586192D-04
   311  3.1000000000000D+00 -2.4015759157754D-05  3.6442689953232D-04
   312  3.1100000000000D+00 -1.6585459458448D-05  2.7120696542723D-04
   313  3.1200000000000D+00 -1.1047794226672D-05  1.9715469749606D-04
   314  3.1300000000000D+00 -7.0588484953456D-06  1.3948040648241D-04
   315  3.1400000000000D+00 -4.3052877986798D-06  9.5598741459070D-05
   316  3.1500000000000D+00 -2.5093737602743D-06  6.3138383922180D-05
   317  3.1600000000000D+00 -1.4256220325496D-06  3.9944115285957D-05
   318  3.1700000000000D+00 -8.4903051673336D-07  2.4081547875255D-05
   319  3.1800000000000D+00 -6.1033734527754D-07  1.3838225565535D-05
   320  3.1900000000000D+00 -5.7171626656564D-07  7.7236385294265D-06
   321  3.2000000000000D+00 -6.3225405062064D-07  4.5126285721748D-06
   322  3.2100000000000D+00 -7.0540552555027D-07  3.0952414427699D-06
   323  3.2200000000000D+00 -7.3514112912688D-07  2.6097833668628D-06
   324  3.2300000000000D+00 -6.9136244977055D-07  2.4234738130140D-06
   325  3.2400000000000D+00 -5.4396564048380D-07  1.9517821255306D-06
   326  3.2500000000000D+00 -3.4847893297265D-07  1.3112976799591D-06
   327  3.2600000000000D+00 -1.4578340490716D-07  5.7766990976958D-07
   328  3.2700000000000D+00  1.4998936067343D-08 -5.0733621537267D-08
   329  3.2800000000000D+00  7.3834656691373D-08 -2.5280956583546D-07
   330  3.2900000000000D+00  7.5534583067684D-08 -2.6201891390230D-07
   331  3.3000000000000D+00  3.8769670308554D-08 -1.3623826365279D-07
   332  3.3100000000000D+00 -3.9199284008431D-09  1.0591215662885D-08
   333  3.3200000000000D+00 -1.5161342624360D-08  4.0469923240896D-08
   334  3.3300000000000D+00 -1.6115629713922D-08  4.2564710704832D-08
   335  3.3400000000000D+00 -8.4627717119769D-09  2.2145187018009D-08
   336  3.3500000000000D+00  4.7672603964546D-10 -1.6712403247790D-09
   337  3.3600000000000D+00  1.7363733402114D-09 -6.0871379024956D-09
   338  3.3700000000000D+00  1.8929370746092D-09 -6.6359974246609D-09
   339  3.3800000000000D+00  1.0328606160676D-09 -3.6208601332792D-09
   340  3.3900000000000D+00  0.0000000000000D+00  0.0000000000000D+00
   341  3.4000000000000D+00  0.0000000000000D+00  0.0000000000000D+00
   342  3.4100000000000D+00  0.0000000000000D+00  0.0000000000000D+00
   343  3.4200000000000D+00  0.0000000000000D+00  0.0000000000000D+00
   344  3.4300000000000D+00  0.0000000000000D+00  0.0000000000000D+00
   345  3.4400000000000D+00  0.0000000000000D+00  0.0000000000000D+00
   346  3.4500000000000D+00  0.0000000000000D+00  0.0000000000000D+00
   347  3.4600000000000D+00  0.0000000000000D+00  0.0000000000000D+00
   348  3.4700000000000D+00  0.0000000000000D+00  0.0000000000000D+00
   349  3.4800000000000D+00  0.0000000000000D+00  0.0000000000000D+00
   350  3.4900000000000D+00  0.0000000000000D+00  0.0000000000000D+00
   351  3.5000000000000D+00  0.0000000000000D+00  0.0000000000000D+00
   352  3.5100000000000D+00  0.0000000000000D+00  0.0000000000000D+00
   353  3.5200000000000D+00  0.0000000000000D+00  0.0000000000000D+00
   354  3.5300000000000D+00  0.0000000000000D+00  0.0000000000000D+00
   355  3.5400000000000D+00  0.0000000000000D+00  0.0000000000000D+00
   356  3.5500000000000D+00  0.0000000000000D+00  0.0000000000000D+00
   357  3.5600000000000D+00  0.0000000000000D+00  0.0000000000000D+00
   358  3.5700000000000D+00  0.0000000000000D+00  0.0000000000000D+00
   359  3.5800000000000D+00  0.0000000000000D+00  0.0000000000000D+00
   360  3.5900000000000D+00  0.0000000000000D+00  0.0000000000000D+00
   361  3.6000000000000D+00  0.0000000000000D+00  0.0000000000000D+00
   362  3.6100000000000D+00  0.0000000000000D+00  0.0000000000000D+00
   363  3.6200000000000D+00  0.0000000000000D+00  0.0000000000000D+00
   364  3.6300000000000D+00  0.0000000000000D+00  0.0000000000000D+00
   365  3.6400000000000D+00  0.0000000000000D+00  0.0000000000000D+00
   366  3.6500000000000D+00  0.0000000000000D+00  0.0000000000000D+00
   367  3.6600000000000D+00  0.0000000000000D+00  0.0000000000000D+00
   368  3.6700000000000D+00  0.0000000000000D+00  0.0000000000000D+00
   369  3.6800000000000D+00  0.0000000000000D+00  0.0000000000000D+00
   370  3.6900000000000D+00  0.0000000000000D+00  0.0000000000000D+00
   371  3.7000000000000D+00  0.0000000000000D+00  0.0000000000000D+00
   372  3.7100000000000D+00  0.0000000000000D+00  0.0000000000000D+00
   373  3.7200000000000D+00  0.0000000000000D+00  0.0000000000000D+00
   374  3.7300000000000D+00  0.0000000000000D+00  0.0000000000000D+00
   375  3.7400000000000D+00  0.0000000000000D+00  0.0000000000000D+00
   376  3.7500000000000D+00  0.0000000000000D+00  0.0000000000000D+00
   377  3.7600000000000D+00  0.0000000000000D+00  0.0000000000000D+00
   378  3.7700000000000D+00  0.0000000000000D+00  0.0000000000000D+00
   379  3.7800000000000D+00  0.0000000000000D+00  0.0000000000000D+00
   380  3.7900000000000D+00  0.0000000000000D+00  0.0000000000000D+00
   381  3.8000000000000D+00  0.0000000000000D+00  0.0000000000000D+00
   382  3.8100000000000D+00  0.0000000000000D+00  0.0000000000000D+00
   383  3.8200000000000D+00  0.0000000000000D+00  0.0000000000000D+00
   384  3.8300000000000D+00  0.0000000000000D+00  0.0000000000000D+00
   385  3.8400000000000D+00  0.0000000000000D+00  0.0000000000000D+00
   386  3.8500000000000D+00  0.0000000000000D+00  0.0000000000000D+00
   387  3.8600000000000D+00  0.0000000000000D+00  0.0000000000000D+00
   388  3.8700000000000D+00  0.0000000000000D+00  0.0000000000000D+00
   389  3.8800000000000D+00  0.0000000000000D+00  0.0000000000000D+00
   390  3.8900000000000D+00  0.0000000000000D+00  0.0000000000000D+00
   391  3.9000000000000D+00  0.0000000000000D+00  0.0000000000000D+00
   392  3.9100000000000D+00  0.0000000000000D+00  0.0000000000000D+00
   393  3.9200000000000D+00  0.0000000000000D+00  0.0000000000000D+00
   394  3.9300000000000D+00  0.0000000000000D+00  0.0000000000000D+00
   395  3.9400000000000D+00  0.0000000000000D+00  0.0000000000000D+00
   396  3.9500000000000D+00  0.0000000000000D+00  0.0000000000000D+00
   397  3.9600000000000D+00  0.0000000000000D+00  0.0000000000000D+00
   398  3.9700000000000D+00  0.0000000000000D+00  0.0000000000000D+00
   399  3.9800000000000D+00  0.0000000000000D+00  0.0000000000000D+00
   400  3.9900000000000D+00  0.0000000000000D+00  0.0000000000000D+00
   401  4.0000000000000D+00  0.0000000000000D+00  0.0000000000000D+00
   402  4.0100000000000D+00  0.0000000000000D+00  0.0000000000000D+00
   403  4.0200000000000D+00  0.0000000000000D+00  0.0000000000000D+00
   404  4.0300000000000D+00  0.0000000000000D+00  0.0000000000000D+00
   405  4.0400000000000D+00  0.0000000000000D+00  0.0000000000000D+00
   406  4.0500000000000D+00  0.0000000000000D+00  0.0000000000000D+00
   407  4.0600000000000D+00  0.0000000000000D+00  0.0000000000000D+00
   408  4.0700000000000D+00  0.0000000000000D+00  0.0000000000000D+00
   409  4.0800000000000D+00  0.0000000000000D+00  0.0000000000000D+00
   410  4.0900000000000D+00  0.0000000000000D+00  0.0000000000000D+00
   411  4.1000000000000D+00  0.0000000000000D+00  0.0000000000000D+00
   412  4.1100000000000D+00  0.0000000000000D+00  0.0000000000000D+00
   413  4.1200000000000D+00  0.0000000000000D+00  0.0000000000000D+00
   414  4.1300000000000D+00  0.0000000000000D+00  0.0000000000000D+00
   415  4.1400000000000D+00  0.0000000000000D+00  0.0000000000000D+00
   416  4.1500000000000D+00  0.0000000000000D+00  0.0000000000000D+00
   417  4.1600000000000D+00  0.0000000000000D+00  0.0000000000000D+00
   418  4.1700000000000D+00  0.0000000000000D+00  0.0000000000000D+00
   419  4.1800000000000D+00  0.0000000000000D+00  0.0000000000000D+00
   420  4.1900000000000D+00  0.0000000000000D+00  0.0000000000000D+00
   421  4.2000000000000D+00  0.0000000000000D+00  0.0000000000000D+00
   422  4.2100000000000D+00  0.0000000000000D+00  0.0000000000000D+00
   423  4.2200000000000D+00  0.0000000000000D+00  0.0000000000000D+00