Co    ONCVPSP-3.3.1  r_core=   2.18438   2.08260   2.21059
     27.0000     17.0000      210904    zatom,zion,pspd
     8      11   2     4   600     0    pspcod,pspxc,lmax,lloc,mmax,r2well
  5.99000000  0.00000000  0.00000000    rchrg fchrg qchrg
     2     2     2     0     0    nproj
     1     1           extension_switch
   0                        -3.0944152425960D+00 -1.4003428018266D-01
     1  0.0000000000000D+00 -1.2828627049544D-12  4.4638737151104D-12
     2  1.0000000000000D-02  3.8991419144987D-02 -2.3000315199700D-02
     3  2.0000000000000D-02  7.7944801913492D-02 -4.5961345700115D-02
     4  3.0000000000000D-02  1.1682216625982D-01 -6.8843862438633D-02
     5  4.0000000000000D-02  1.5558563869308D-01 -9.1608747473926D-02
     6  5.0000000000000D-02  1.9419750828794D-01 -1.1421704916762D-01
     7  6.0000000000000D-02  2.3262028037636D-01 -1.3663003691442D-01
     8  7.0000000000000D-02  2.7081672981548D-01 -1.5880925527559D-01
     9  8.0000000000000D-02  3.0874995372811D-01 -1.8071657737508D-01
    10  9.0000000000000D-02  3.4638342361386D-01 -2.0231425742349D-01
    11  1.0000000000000D-01  3.8368103673106D-01 -2.2356498224128D-01
    12  1.1000000000000D-01  4.2060716665151D-01 -2.4443192166063D-01
    13  1.2000000000000D-01  4.5712671289277D-01 -2.6487877769337D-01
    14  1.3000000000000D-01  4.9320514953558D-01 -2.8486983236230D-01
    15  1.4000000000000D-01  5.2880857273677D-01 -3.0436999410245D-01
    16  1.5000000000000D-01  5.6390374705141D-01 -3.2334484265034D-01
    17  1.6000000000000D-01  5.9845815048159D-01 -3.4176067234986D-01
    18  1.7000000000000D-01  6.3244001817266D-01 -3.5958453381552D-01
    19  1.8000000000000D-01  6.6581838468189D-01 -3.7678427390571D-01
    20  1.9000000000000D-01  6.9856312474848D-01 -3.9332857397083D-01
    21  2.0000000000000D-01  7.3064499249826D-01 -4.0918698635383D-01
    22  2.1000000000000D-01  7.6203565902056D-01 -4.2432996913297D-01
    23  2.2000000000000D-01  7.9270774825942D-01 -4.3872891910906D-01
    24  2.3000000000000D-01  8.2263487116593D-01 -4.5235620305164D-01
    25  2.4000000000000D-01  8.5179165806316D-01 -4.6518518723045D-01
    26  2.5000000000000D-01  8.8015378917968D-01 -4.7719026527007D-01
    27  2.6000000000000D-01  9.0769802331293D-01 -4.8834688437620D-01
    28  2.7000000000000D-01  9.3440222458794D-01 -4.9863156999278D-01
    29  2.8000000000000D-01  9.6024538728228D-01 -5.0802194895851D-01
    30  2.9000000000000D-01  9.8520765869232D-01 -5.1649677123986D-01
    31  3.0000000000000D-01  1.0092703600212D+00 -5.2403593032568D-01
    32  3.1000000000000D-01  1.0324160052733D+00 -5.3062048237520D-01
    33  3.2000000000000D-01  1.0546283181442D+00 -5.3623266421690D-01
    34  3.3000000000000D-01  1.0758922469007D+00 -5.4085591030018D-01
    35  3.4000000000000D-01  1.0961939772491D+00 -5.4447486870511D-01
    36  3.5000000000000D-01  1.1155209431943D+00 -5.4707541631769D-01
    37  3.6000000000000D-01  1.1338618358953D+00 -5.4864467327845D-01
    38  3.7000000000000D-01  1.1512066105310D+00 -5.4917101681192D-01
    39  3.8000000000000D-01  1.1675464911870D+00 -5.4864409454237D-01
    40  3.9000000000000D-01  1.1828739737847D+00 -5.4705483739797D-01
    41  4.0000000000000D-01  1.1971828270723D+00 -5.4439547220043D-01
    42  4.1000000000000D-01  1.2104680917040D+00 -5.4065953403174D-01
    43  4.2000000000000D-01  1.2227260774349D+00 -5.3584187846167D-01
    44  4.3000000000000D-01  1.2339543584622D+00 -5.2993869371121D-01
    45  4.4000000000000D-01  1.2441517669462D+00 -5.2294751281736D-01
    46  4.5000000000000D-01  1.2533183847486D+00 -5.1486722585305D-01
    47  4.6000000000000D-01  1.2614555334232D+00 -5.0569809224465D-01
    48  4.7000000000000D-01  1.2685657625021D+00 -4.9544175321505D-01
    49  4.8000000000000D-01  1.2746528361186D+00 -4.8410124436738D-01
    50  4.9000000000000D-01  1.2797217180087D+00 -4.7168100840848D-01
    51  5.0000000000000D-01  1.2837785549393D+00 -4.5818690799589D-01
    52  5.1000000000000D-01  1.2868306586061D+00 -4.4362623867597D-01
    53  5.2000000000000D-01  1.2888864860510D+00 -4.2800774186328D-01
    54  5.3000000000000D-01  1.2899556186452D+00 -4.1134161779520D-01
    55  5.4000000000000D-01  1.2900487396878D+00 -3.9363953837742D-01
    56  5.5000000000000D-01  1.2891776106688D+00 -3.7491465981933D-01
    57  5.6000000000000D-01  1.2873550462462D+00 -3.5518163494057D-01
    58  5.7000000000000D-01  1.2845948879859D+00 -3.3445662501336D-01
    59  5.8000000000000D-01  1.2809119769166D+00 -3.1275731098815D-01
    60  5.9000000000000D-01  1.2763221249466D+00 -2.9010290393472D-01
    61  6.0000000000000D-01  1.2708420851954D+00 -2.6651415451500D-01
    62  6.1000000000000D-01  1.2644895212864D+00 -2.4201336128981D-01
    63  6.2000000000000D-01  1.2572829756525D+00 -2.1662437764837D-01
    64  6.3000000000000D-01  1.2492418369027D+00 -1.9037261713688D-01
    65  6.4000000000000D-01  1.2403863062973D+00 -1.6328505695227D-01
    66  6.5000000000000D-01  1.2307373633814D+00 -1.3539023935744D-01
    67  6.6000000000000D-01  1.2203167308239D+00 -1.0671827076649D-01
    68  6.7000000000000D-01  1.2091468385087D+00 -7.7300818242931D-02
    69  6.8000000000000D-01  1.1972507869259D+00 -4.7171103149373D-02
    70  6.9000000000000D-01  1.1846523099099D+00 -1.6363891684989D-02
    71  7.0000000000000D-01  1.1713757367694D+00  1.5084517952894D-02
    72  7.1000000000000D-01  1.1574459538563D+00  4.7136312044728D-02
    73  7.2000000000000D-01  1.1428883656199D+00  7.9752181719725D-02
    74  7.3000000000000D-01  1.1277288551899D+00  1.1289134747310D-01
    75  7.4000000000000D-01  1.1119937445369D+00  1.4651158807151D-01
    76  7.5000000000000D-01  1.0957097542532D+00  1.8056927407812D-01
    77  7.6000000000000D-01  1.0789039630011D+00  2.1501940621514D-01
    78  7.7000000000000D-01  1.0616037666749D+00  2.4981565876565D-01
    79  7.8000000000000D-01  1.0438368373217D+00  2.8491042819900D-01
    80  7.9000000000000D-01  1.0256310818688D+00  3.2025488718358D-01
    81  8.0000000000000D-01  1.0070146007044D+00  3.5579904412822D-01
    82  8.1000000000000D-01  9.8801564615870D-01  3.9149180836912D-01
    83  8.2000000000000D-01  9.6866258093528D-01  4.2728106109258D-01
    84  8.3000000000000D-01  9.4898383654068D-01  4.6311373205528D-01
    85  8.4000000000000D-01  9.2900787176285D-01  4.9893588213368D-01
    86  8.5000000000000D-01  9.0876313124937D-01  5.3469279170211D-01
    87  8.6000000000000D-01  8.8827800423740D-01  5.7032905480593D-01
    88  8.7000000000000D-01  8.6758078348848D-01  6.0578867906145D-01
    89  8.8000000000000D-01  8.4669962448238D-01  6.4101519117824D-01
    90  8.9000000000000D-01  8.2566250492516D-01  6.7595174796327D-01
    91  9.0000000000000D-01  8.0449718462817D-01  7.1054125262851D-01
    92  9.1000000000000D-01  7.8323116581539D-01  7.4472647618598D-01
    93  9.2000000000000D-01  7.6189165391801D-01  7.7845018367601D-01
    94  9.3000000000000D-01  7.4050551891615D-01  8.1165526493642D-01
    95  9.4000000000000D-01  7.1909925728877D-01  8.4428486958255D-01
    96  9.5000000000000D-01  6.9769895463368D-01  8.7628254583039D-01
    97  9.6000000000000D-01  6.7633024902071D-01  9.0759238275879D-01
    98  9.7000000000000D-01  6.5501829514185D-01  9.3815915557097D-01
    99  9.8000000000000D-01  6.3378772932280D-01  9.6792847338102D-01
   100  9.9000000000000D-01  6.1266263546118D-01  9.9684692901871D-01
   101  1.0000000000000D+00  5.9166651195684D-01  1.0248622503146D+00
   102  1.0100000000000D+00  5.7082223970024D-01  1.0519234522985D+00
   103  1.0200000000000D+00  5.5015205118465D-01  1.0779809897172D+00
   104  1.0300000000000D+00  5.2967750080808D-01  1.1029869092547D+00
   105  1.0400000000000D+00  5.0941943643025D-01  1.1268950008146D+00
   106  1.0500000000000D+00  4.8939797224950D-01  1.1496609472069D+00
   107  1.0600000000000D+00  4.6963246306361D-01  1.1712424715672D+00
   108  1.0700000000000D+00  4.5014147997735D-01  1.1915994818219D+00
   109  1.0800000000000D+00  4.3094278761831D-01  1.2106942115065D+00
   110  1.0900000000000D+00  4.1205332292074D-01  1.2284913562382D+00
   111  1.1000000000000D+00  3.9348917553524D-01  1.2449582051442D+00
   112  1.1100000000000D+00  3.7526556991985D-01  1.2600647665477D+00
   113  1.1200000000000D+00  3.5739684916561D-01  1.2737838872231D+00
   114  1.1300000000000D+00  3.3989646060643D-01  1.2860913645412D+00
   115  1.1400000000000D+00  3.2277694326001D-01  1.2969660508421D+00
   116  1.1500000000000D+00  3.0604991714365D-01  1.3063899493888D+00
   117  1.1600000000000D+00  2.8972607450386D-01  1.3143483012816D+00
   118  1.1700000000000D+00  2.7381517299536D-01  1.3208296627403D+00
   119  1.1800000000000D+00  2.5832603083981D-01  1.3258259721942D+00
   120  1.1900000000000D+00  2.4326652399154D-01  1.3293326066457D+00
   121  1.2000000000000D+00  2.2864358533037D-01  1.3313484268249D+00
   122  1.2100000000000D+00  2.1446320589715D-01  1.3318758106972D+00
   123  1.2200000000000D+00  2.0073043818350D-01  1.3309206749116D+00
   124  1.2300000000000D+00  1.8744940147968D-01  1.3284924838487D+00
   125  1.2400000000000D+00  1.7462328927849D-01  1.3246042459797D+00
   126  1.2500000000000D+00  1.6225437872838D-01  1.3192724972892D+00
   127  1.2600000000000D+00  1.5034404212265D-01  1.3125172715753D+00
   128  1.2700000000000D+00  1.3889276040247D-01  1.3043620575246D+00
   129  1.2800000000000D+00  1.2790013864759D-01  1.2948337424987D+00
   130  1.2900000000000D+00  1.1736492352318D-01  1.2839625430218D+00
   131  1.3000000000000D+00  1.0728502263880D-01  1.2717819220790D+00
   132  1.3100000000000D+00  9.7657525774903D-02  1.2583284933461D+00
   133  1.3200000000000D+00  8.8478727924525D-02  1.2436419125462D+00
   134  1.3300000000000D+00  7.9744154085156D-02  1.2277647562599D+00
   135  1.3400000000000D+00  7.1448585738726D-02  1.2107423884864D+00
   136  1.3500000000000D+00  6.3586088945086D-02  1.1926228153832D+00
   137  1.3600000000000D+00  5.6150043964836D-02  1.1734565287145D+00
   138  1.3700000000000D+00  4.9133176334091D-02  1.1532963384678D+00
   139  1.3800000000000D+00  4.2527589291827D-02  1.1321971953314D+00
   140  1.3900000000000D+00  3.6324797464728D-02  1.1102160036871D+00
   141  1.4000000000000D+00  3.0515761710865D-02  1.0874114258055D+00
   142  1.4100000000000D+00  2.5090925006181D-02  1.0638436781308D+00
   143  1.4200000000000D+00  2.0040249270031D-02  1.0395743204033D+00
   144  1.4300000000000D+00  1.5353253007141D-02  1.0146660385825D+00
   145  1.4400000000000D+00  1.1019049646344D-02  9.8918242251020D-01
   146  1.4500000000000D+00  7.0263864556451D-03  9.6318773924669D-01
   147  1.4600000000000D+00  3.3636838999800D-03  9.3674670319853D-01
   148  1.4700000000000D+00  1.9075319307663D-05  9.0992424399571D-01
   149  1.4800000000000D+00 -3.0195532105882D-03  8.8278527329017D-01
   150  1.4900000000000D+00 -5.7645229632373D-03  8.5539445153202D-01
   151  1.5000000000000D+00 -8.2283227295257D-03  8.2781595587920D-01
   152  1.5100000000000D+00 -1.0423569199484D-02  8.0011325036736D-01
   153  1.5200000000000D+00 -1.2362967696622D-02  7.7234885950197D-01
   154  1.5300000000000D+00 -1.4059273390598D-02  7.4458414639020D-01
   155  1.5400000000000D+00 -1.5525253129232D-02  7.1687909660062D-01
   156  1.5500000000000D+00 -1.6773648009424D-02  6.8929210882273D-01
   157  1.5600000000000D+00 -1.7817136822619D-02  6.6187979349000D-01
   158  1.5700000000000D+00 -1.8668300493395D-02  6.3469678042379D-01
   159  1.5800000000000D+00 -1.9339587631145D-02  6.0779553654469D-01
   160  1.5900000000000D+00 -1.9843281317610D-02  5.8122619474165D-01
   161  1.6000000000000D+00 -2.0191467225311D-02  5.5503639473341D-01
   162  1.6100000000000D+00 -2.0396003198116D-02  5.2927113709042D-01
   163  1.6200000000000D+00 -2.0468490356079D-02  5.0397265095456D-01
   164  1.6300000000000D+00 -2.0420245867247D-02  4.7918027673590D-01
   165  1.6400000000000D+00 -2.0262277409572D-02  4.5493036395924D-01
   166  1.6500000000000D+00 -2.0005259478396D-02  4.3125618566767D-01
   167  1.6600000000000D+00 -1.9659511519770D-02  4.0818786914580D-01
   168  1.6700000000000D+00 -1.9234978057301D-02  3.8575234449646D-01
   169  1.6800000000000D+00 -1.8741210748513D-02  3.6397331040271D-01
   170  1.6900000000000D+00 -1.8187352548065D-02  3.4287121871324D-01
   171  1.7000000000000D+00 -1.7582123870921D-02  3.2246327676019D-01
   172  1.7100000000000D+00 -1.6933810937538D-02  3.0276346910508D-01
   173  1.7200000000000D+00 -1.6250256155870D-02  2.8378259724027D-01
   174  1.7300000000000D+00 -1.5538850719335D-02  2.6552833892459D-01
   175  1.7400000000000D+00 -1.4806529245486D-02  2.4800532537747D-01
   176  1.7500000000000D+00 -1.4059766620865D-02  2.3121523788659D-01
   177  1.7600000000000D+00 -1.3304576858946D-02  2.1515692187045D-01
   178  1.7700000000000D+00 -1.2546514108992D-02  1.9982651968654D-01
   179  1.7800000000000D+00 -1.1790675621028D-02  1.8521762020400D-01
   180  1.7900000000000D+00 -1.1041706760330D-02  1.7132142599898D-01
   181  1.8000000000000D+00 -1.0303807893914D-02  1.5812693635800D-01
   182  1.8100000000000D+00 -9.5807431802572D-03  1.4562114633650D-01
   183  1.8200000000000D+00 -8.8758511212356D-03  1.3378926041722D-01
   184  1.8300000000000D+00 -8.1920568300461D-03  1.2261492024994D-01
   185  1.8400000000000D+00 -7.5318859257380D-03  1.1208044552831D-01
   186  1.8500000000000D+00 -6.8974799229015D-03  1.0216708664256D-01
   187  1.8600000000000D+00 -6.2906130840206D-03  9.2855288724953D-02
   188  1.8700000000000D+00 -5.7127105242038D-03  8.4124964951990D-02
   189  1.8800000000000D+00 -5.1648677159121D-03  7.5955789352850D-02
   190  1.8900000000000D+00 -4.6478702495146D-03  6.8327440271158D-02
   191  1.9000000000000D+00 -4.1622169863826D-03  6.1220026246273D-02
   192  1.9100000000000D+00 -3.7081385314768D-03  5.4614117227424D-02
   193  1.9200000000000D+00 -3.2856219837083D-03  4.8491179074629D-02
   194  1.9300000000000D+00 -2.8944406019706D-03  4.2834344785634D-02
   195  1.9400000000000D+00 -2.5341741386889D-03  3.7628462632161D-02
   196  1.9500000000000D+00 -2.2042132918422D-03  3.2858931112719D-02
   197  1.9600000000000D+00 -1.9037716163881D-03  2.8511062392712D-02
   198  1.9700000000000D+00 -1.6318974357632D-03  2.4569567635697D-02
   199  1.9800000000000D+00 -1.3874736391084D-03  2.1017103978529D-02
   200  1.9900000000000D+00 -1.1692438039778D-03  1.7834807980637D-02
   201  2.0000000000000D+00 -9.7583759923381D-04  1.5002811266866D-02
   202  2.0100000000000D+00 -8.0579303429090D-04  1.2500538941226D-02
   203  2.0200000000000D+00 -6.5757408584223D-04  1.0306675707451D-02
   204  2.0300000000000D+00 -5.2959269792343D-04  8.3995077096652D-03
   205  2.0400000000000D+00 -4.2022743617948D-04  6.7570643903155D-03
   206  2.0500000000000D+00 -3.2784231690452D-04  5.3573181746474D-03
   207  2.0600000000000D+00 -2.5080443114111D-04  4.1783611096991D-03
   208  2.0700000000000D+00 -1.8750054941384D-04  3.1985707562197D-03
   209  2.0800000000000D+00 -1.3635269292053D-04  2.3967650428634D-03
   210  2.0900000000000D+00 -9.5832303894424D-05  1.7523430092565D-03
   211  2.1000000000000D+00 -6.4473364653858D-05  1.2454141826011D-03
   212  2.1100000000000D+00 -4.0881125478262D-05  8.5693019873831D-04
   213  2.1200000000000D+00 -2.3746132928280D-05  5.6876053181988D-04
   214  2.1300000000000D+00 -1.1872464446248D-05  3.6365562090973D-04
   215  2.1400000000000D+00 -4.1891278285824D-06  2.2496820593461D-04
   216  2.1500000000000D+00  4.1128011127620D-07  1.3895695113041D-04
   217  2.1600000000000D+00  2.9324341364560D-06  9.3266814456377D-05
   218  2.1700000000000D+00  4.1734890937960D-06  7.5995958795165D-05
   219  2.1800000000000D+00  4.2605024403387D-06  6.7331668842499D-05
   220  2.1900000000000D+00  3.2165351857004D-06  5.0552845768406D-05
   221  2.2000000000000D+00  1.5452838058773D-06  2.4824393354471D-05
   222  2.2100000000000D+00  6.8230556521138D-08  1.1308128039282D-06
   223  2.2200000000000D+00 -4.1289814564735D-07 -6.2957983617051D-06
   224  2.2300000000000D+00 -2.6695558803093D-07 -4.0920090746960D-06
   225  2.2400000000000D+00  3.9768290125015D-08  5.6476432994484D-07
   226  2.2500000000000D+00  9.8786007617270D-08  1.3946163007773D-06
   227  2.2600000000000D+00  4.0031317444684D-08  5.6243176659574D-07
   228  2.2700000000000D+00 -7.9345147044081D-09 -1.2483671730721D-07
   229  2.2800000000000D+00 -1.0564839532689D-08 -1.6622061150199D-07
   230  2.2900000000000D+00 -1.3851134075615D-09 -2.1792512502638D-08
   231  2.3000000000000D+00  0.0000000000000D+00  0.0000000000000D+00
   232  2.3100000000000D+00  0.0000000000000D+00  0.0000000000000D+00
   233  2.3200000000000D+00  0.0000000000000D+00  0.0000000000000D+00
   234  2.3300000000000D+00  0.0000000000000D+00  0.0000000000000D+00
   235  2.3400000000000D+00  0.0000000000000D+00  0.0000000000000D+00
   236  2.3500000000000D+00  0.0000000000000D+00  0.0000000000000D+00
   237  2.3600000000000D+00  0.0000000000000D+00  0.0000000000000D+00
   238  2.3700000000000D+00  0.0000000000000D+00  0.0000000000000D+00
   239  2.3800000000000D+00  0.0000000000000D+00  0.0000000000000D+00
   240  2.3900000000000D+00  0.0000000000000D+00  0.0000000000000D+00
   241  2.4000000000000D+00  0.0000000000000D+00  0.0000000000000D+00
   242  2.4100000000000D+00  0.0000000000000D+00  0.0000000000000D+00
   243  2.4200000000000D+00  0.0000000000000D+00  0.0000000000000D+00
   244  2.4300000000000D+00  0.0000000000000D+00  0.0000000000000D+00
   245  2.4400000000000D+00  0.0000000000000D+00  0.0000000000000D+00
   246  2.4500000000000D+00  0.0000000000000D+00  0.0000000000000D+00
   247  2.4600000000000D+00  0.0000000000000D+00  0.0000000000000D+00
   248  2.4700000000000D+00  0.0000000000000D+00  0.0000000000000D+00
   249  2.4800000000000D+00  0.0000000000000D+00  0.0000000000000D+00
   250  2.4900000000000D+00  0.0000000000000D+00  0.0000000000000D+00
   251  2.5000000000000D+00  0.0000000000000D+00  0.0000000000000D+00
   252  2.5100000000000D+00  0.0000000000000D+00  0.0000000000000D+00
   253  2.5200000000000D+00  0.0000000000000D+00  0.0000000000000D+00
   254  2.5300000000000D+00  0.0000000000000D+00  0.0000000000000D+00
   255  2.5400000000000D+00  0.0000000000000D+00  0.0000000000000D+00
   256  2.5500000000000D+00  0.0000000000000D+00  0.0000000000000D+00
   257  2.5600000000000D+00  0.0000000000000D+00  0.0000000000000D+00
   258  2.5700000000000D+00  0.0000000000000D+00  0.0000000000000D+00
   259  2.5800000000000D+00  0.0000000000000D+00  0.0000000000000D+00
   260  2.5900000000000D+00  0.0000000000000D+00  0.0000000000000D+00
   261  2.6000000000000D+00  0.0000000000000D+00  0.0000000000000D+00
   262  2.6100000000000D+00  0.0000000000000D+00  0.0000000000000D+00
   263  2.6200000000000D+00  0.0000000000000D+00  0.0000000000000D+00
   264  2.6300000000000D+00  0.0000000000000D+00  0.0000000000000D+00
   265  2.6400000000000D+00  0.0000000000000D+00  0.0000000000000D+00
   266  2.6500000000000D+00  0.0000000000000D+00  0.0000000000000D+00
   267  2.6600000000000D+00  0.0000000000000D+00  0.0000000000000D+00
   268  2.6700000000000D+00  0.0000000000000D+00  0.0000000000000D+00
   269  2.6800000000000D+00  0.0000000000000D+00  0.0000000000000D+00
   270  2.6900000000000D+00  0.0000000000000D+00  0.0000000000000D+00
   271  2.7000000000000D+00  0.0000000000000D+00  0.0000000000000D+00
   272  2.7100000000000D+00  0.0000000000000D+00  0.0000000000000D+00
   273  2.7200000000000D+00  0.0000000000000D+00  0.0000000000000D+00
   274  2.7300000000000D+00  0.0000000000000D+00  0.0000000000000D+00
   275  2.7400000000000D+00  0.0000000000000D+00  0.0000000000000D+00
   276  2.7500000000000D+00  0.0000000000000D+00  0.0000000000000D+00
   277  2.7600000000000D+00  0.0000000000000D+00  0.0000000000000D+00
   278  2.7700000000000D+00  0.0000000000000D+00  0.0000000000000D+00
   279  2.7800000000000D+00  0.0000000000000D+00  0.0000000000000D+00
   280  2.7900000000000D+00  0.0000000000000D+00  0.0000000000000D+00
   281  2.8000000000000D+00  0.0000000000000D+00  0.0000000000000D+00
   282  2.8100000000000D+00  0.0000000000000D+00  0.0000000000000D+00
   283  2.8200000000000D+00  0.0000000000000D+00  0.0000000000000D+00
   284  2.8300000000000D+00  0.0000000000000D+00  0.0000000000000D+00
   285  2.8400000000000D+00  0.0000000000000D+00  0.0000000000000D+00
   286  2.8500000000000D+00  0.0000000000000D+00  0.0000000000000D+00
   287  2.8600000000000D+00  0.0000000000000D+00  0.0000000000000D+00
   288  2.8700000000000D+00  0.0000000000000D+00  0.0000000000000D+00
   289  2.8800000000000D+00  0.0000000000000D+00  0.0000000000000D+00
   290  2.8900000000000D+00  0.0000000000000D+00  0.0000000000000D+00
   291  2.9000000000000D+00  0.0000000000000D+00  0.0000000000000D+00
   292  2.9100000000000D+00  0.0000000000000D+00  0.0000000000000D+00
   293  2.9200000000000D+00  0.0000000000000D+00  0.0000000000000D+00
   294  2.9300000000000D+00  0.0000000000000D+00  0.0000000000000D+00
   295  2.9400000000000D+00  0.0000000000000D+00  0.0000000000000D+00
   296  2.9500000000000D+00  0.0000000000000D+00  0.0000000000000D+00
   297  2.9600000000000D+00  0.0000000000000D+00  0.0000000000000D+00
   298  2.9700000000000D+00  0.0000000000000D+00  0.0000000000000D+00
   299  2.9800000000000D+00  0.0000000000000D+00  0.0000000000000D+00
   300  2.9900000000000D+00  0.0000000000000D+00  0.0000000000000D+00
   301  3.0000000000000D+00  0.0000000000000D+00  0.0000000000000D+00
   302  3.0100000000000D+00  0.0000000000000D+00  0.0000000000000D+00
   303  3.0200000000000D+00  0.0000000000000D+00  0.0000000000000D+00
   304  3.0300000000000D+00  0.0000000000000D+00  0.0000000000000D+00
   305  3.0400000000000D+00  0.0000000000000D+00  0.0000000000000D+00
   306  3.0500000000000D+00  0.0000000000000D+00  0.0000000000000D+00
   307  3.0600000000000D+00  0.0000000000000D+00  0.0000000000000D+00
   308  3.0700000000000D+00  0.0000000000000D+00  0.0000000000000D+00
   309  3.0800000000000D+00  0.0000000000000D+00  0.0000000000000D+00
   310  3.0900000000000D+00  0.0000000000000D+00  0.0000000000000D+00
   311  3.1000000000000D+00  0.0000000000000D+00  0.0000000000000D+00
   312  3.1100000000000D+00  0.0000000000000D+00  0.0000000000000D+00
   313  3.1200000000000D+00  0.0000000000000D+00  0.0000000000000D+00
   314  3.1300000000000D+00  0.0000000000000D+00  0.0000000000000D+00
   315  3.1400000000000D+00  0.0000000000000D+00  0.0000000000000D+00
   316  3.1500000000000D+00  0.0000000000000D+00  0.0000000000000D+00
   317  3.1600000000000D+00  0.0000000000000D+00  0.0000000000000D+00
   318  3.1700000000000D+00  0.0000000000000D+00  0.0000000000000D+00
   319  3.1800000000000D+00  0.0000000000000D+00  0.0000000000000D+00
   320  3.1900000000000D+00  0.0000000000000D+00  0.0000000000000D+00
   321  3.2000000000000D+00  0.0000000000000D+00  0.0000000000000D+00
   322  3.2100000000000D+00  0.0000000000000D+00  0.0000000000000D+00
   323  3.2200000000000D+00  0.0000000000000D+00  0.0000000000000D+00
   324  3.2300000000000D+00  0.0000000000000D+00  0.0000000000000D+00
   325  3.2400000000000D+00  0.0000000000000D+00  0.0000000000000D+00
   326  3.2500000000000D+00  0.0000000000000D+00  0.0000000000000D+00
   327  3.2600000000000D+00  0.0000000000000D+00  0.0000000000000D+00
   328  3.2700000000000D+00  0.0000000000000D+00  0.0000000000000D+00
   329  3.2800000000000D+00  0.0000000000000D+00  0.0000000000000D+00
   330  3.2900000000000D+00  0.0000000000000D+00  0.0000000000000D+00
   331  3.3000000000000D+00  0.0000000000000D+00  0.0000000000000D+00
   332  3.3100000000000D+00  0.0000000000000D+00  0.0000000000000D+00
   333  3.3200000000000D+00  0.0000000000000D+00  0.0000000000000D+00
   334  3.3300000000000D+00  0.0000000000000D+00  0.0000000000000D+00
   335  3.3400000000000D+00  0.0000000000000D+00  0.0000000000000D+00
   336  3.3500000000000D+00  0.0000000000000D+00  0.0000000000000D+00
   337  3.3600000000000D+00  0.0000000000000D+00  0.0000000000000D+00
   338  3.3700000000000D+00  0.0000000000000D+00  0.0000000000000D+00
   339  3.3800000000000D+00  0.0000000000000D+00  0.0000000000000D+00
   340  3.3900000000000D+00  0.0000000000000D+00  0.0000000000000D+00
   341  3.4000000000000D+00  0.0000000000000D+00  0.0000000000000D+00
   342  3.4100000000000D+00  0.0000000000000D+00  0.0000000000000D+00
   343  3.4200000000000D+00  0.0000000000000D+00  0.0000000000000D+00
   344  3.4300000000000D+00  0.0000000000000D+00  0.0000000000000D+00
   345  3.4400000000000D+00  0.0000000000000D+00  0.0000000000000D+00
   346  3.4500000000000D+00  0.0000000000000D+00  0.0000000000000D+00
   347  3.4600000000000D+00  0.0000000000000D+00  0.0000000000000D+00
   348  3.4700000000000D+00  0.0000000000000D+00  0.0000000000000D+00
   349  3.4800000000000D+00  0.0000000000000D+00  0.0000000000000D+00
   350  3.4900000000000D+00  0.0000000000000D+00  0.0000000000000D+00
   351  3.5000000000000D+00  0.0000000000000D+00  0.0000000000000D+00
   352  3.5100000000000D+00  0.0000000000000D+00  0.0000000000000D+00
   353  3.5200000000000D+00  0.0000000000000D+00  0.0000000000000D+00
   354  3.5300000000000D+00  0.0000000000000D+00  0.0000000000000D+00
   355  3.5400000000000D+00  0.0000000000000D+00  0.0000000000000D+00
   356  3.5500000000000D+00  0.0000000000000D+00  0.0000000000000D+00
   357  3.5600000000000D+00  0.0000000000000D+00  0.0000000000000D+00
   358  3.5700000000000D+00  0.0000000000000D+00  0.0000000000000D+00
   359  3.5800000000000D+00  0.0000000000000D+00  0.0000000000000D+00
   360  3.5900000000000D+00  0.0000000000000D+00  0.0000000000000D+00
   361  3.6000000000000D+00  0.0000000000000D+00  0.0000000000000D+00
   362  3.6100000000000D+00  0.0000000000000D+00  0.0000000000000D+00
   363  3.6200000000000D+00  0.0000000000000D+00  0.0000000000000D+00
   364  3.6300000000000D+00  0.0000000000000D+00  0.0000000000000D+00
   365  3.6400000000000D+00  0.0000000000000D+00  0.0000000000000D+00
   366  3.6500000000000D+00  0.0000000000000D+00  0.0000000000000D+00
   367  3.6600000000000D+00  0.0000000000000D+00  0.0000000000000D+00
   368  3.6700000000000D+00  0.0000000000000D+00  0.0000000000000D+00
   369  3.6800000000000D+00  0.0000000000000D+00  0.0000000000000D+00
   370  3.6900000000000D+00  0.0000000000000D+00  0.0000000000000D+00
   371  3.7000000000000D+00  0.0000000000000D+00  0.0000000000000D+00
   372  3.7100000000000D+00  0.0000000000000D+00  0.0000000000000D+00
   373  3.7200000000000D+00  0.0000000000000D+00  0.0000000000000D+00
   374  3.7300000000000D+00  0.0000000000000D+00  0.0000000000000D+00
   375  3.7400000000000D+00  0.0000000000000D+00  0.0000000000000D+00
   376  3.7500000000000D+00  0.0000000000000D+00  0.0000000000000D+00
   377  3.7600000000000D+00  0.0000000000000D+00  0.0000000000000D+00
   378  3.7700000000000D+00  0.0000000000000D+00  0.0000000000000D+00
   379  3.7800000000000D+00  0.0000000000000D+00  0.0000000000000D+00
   380  3.7900000000000D+00  0.0000000000000D+00  0.0000000000000D+00
   381  3.8000000000000D+00  0.0000000000000D+00  0.0000000000000D+00
   382  3.8100000000000D+00  0.0000000000000D+00  0.0000000000000D+00
   383  3.8200000000000D+00  0.0000000000000D+00  0.0000000000000D+00
   384  3.8300000000000D+00  0.0000000000000D+00  0.0000000000000D+00
   385  3.8400000000000D+00  0.0000000000000D+00  0.0000000000000D+00
   386  3.8500000000000D+00  0.0000000000000D+00  0.0000000000000D+00
   387  3.8600000000000D+00  0.0000000000000D+00  0.0000000000000D+00
   388  3.8700000000000D+00  0.0000000000000D+00  0.0000000000000D+00
   389  3.8800000000000D+00  0.0000000000000D+00  0.0000000000000D+00
   390  3.8900000000000D+00  0.0000000000000D+00  0.0000000000000D+00
   391  3.9000000000000D+00  0.0000000000000D+00  0.0000000000000D+00
   392  3.9100000000000D+00  0.0000000000000D+00  0.0000000000000D+00
   393  3.9200000000000D+00  0.0000000000000D+00  0.0000000000000D+00
   394  3.9300000000000D+00  0.0000000000000D+00  0.0000000000000D+00
   395  3.9400000000000D+00  0.0000000000000D+00  0.0000000000000D+00
   396  3.9500000000000D+00  0.0000000000000D+00  0.0000000000000D+00
   397  3.9600000000000D+00  0.0000000000000D+00  0.0000000000000D+00
   398  3.9700000000000D+00  0.0000000000000D+00  0.0000000000000D+00
   399  3.9800000000000D+00  0.0000000000000D+00  0.0000000000000D+00
   400  3.9900000000000D+00  0.0000000000000D+00  0.0000000000000D+00
   401  4.0000000000000D+00  0.0000000000000D+00  0.0000000000000D+00
   402  4.0100000000000D+00  0.0000000000000D+00  0.0000000000000D+00
   403  4.0200000000000D+00  0.0000000000000D+00  0.0000000000000D+00
   404  4.0300000000000D+00  0.0000000000000D+00  0.0000000000000D+00
   405  4.0400000000000D+00  0.0000000000000D+00  0.0000000000000D+00
   406  4.0500000000000D+00  0.0000000000000D+00  0.0000000000000D+00
   407  4.0600000000000D+00  0.0000000000000D+00  0.0000000000000D+00
   408  4.0700000000000D+00  0.0000000000000D+00  0.0000000000000D+00
   409  4.0800000000000D+00  0.0000000000000D+00  0.0000000000000D+00
   410  4.0900000000000D+00  0.0000000000000D+00  0.0000000000000D+00
   411  4.1000000000000D+00  0.0000000000000D+00  0.0000000000000D+00
   412  4.1100000000000D+00  0.0000000000000D+00  0.0000000000000D+00
   413  4.1200000000000D+00  0.0000000000000D+00  0.0000000000000D+00
   414  4.1300000000000D+00  0.0000000000000D+00  0.0000000000000D+00
   415  4.1400000000000D+00  0.0000000000000D+00  0.0000000000000D+00
   416  4.1500000000000D+00  0.0000000000000D+00  0.0000000000000D+00
   417  4.1600000000000D+00  0.0000000000000D+00  0.0000000000000D+00
   418  4.1700000000000D+00  0.0000000000000D+00  0.0000000000000D+00
   419  4.1800000000000D+00  0.0000000000000D+00  0.0000000000000D+00
   420  4.1900000000000D+00  0.0000000000000D+00  0.0000000000000D+00
   421  4.2000000000000D+00  0.0000000000000D+00  0.0000000000000D+00
   422  4.2100000000000D+00  0.0000000000000D+00  0.0000000000000D+00