Cr    ONCVPSP-3.3.1  r_core=   2.20727   2.37104   2.37104
     24.0000     14.0000      210904    zatom,zion,pspd
     8      11   2     4   600     0    pspcod,pspxc,lmax,lloc,mmax,r2well
  5.99000000  0.00000000  0.00000000    rchrg fchrg qchrg
     2     2     2     0     0    nproj
     1     1           extension_switch
   0                        -1.6986676797796D+00  1.2729436346536D+00
     1  0.0000000000000D+00 -2.2815638267559D-12 -3.7467418056991D-11
     2  1.0000000000000D-02  2.8969216227694D-02 -5.0495241859993D-02
     3  2.0000000000000D-02  5.7919809414877D-02 -1.0090580713771D-01
     4  3.0000000000000D-02  8.6833179227113D-02 -1.5114703745455D-01
     5  4.0000000000000D-02  1.1569077065416D-01 -2.0113431191002D-01
     6  5.0000000000000D-02  1.4447409645278D-01 -2.5078306848824D-01
     7  6.0000000000000D-02  1.7316475932802D-01 -3.0000882863863D-01
     8  7.0000000000000D-02  2.0174447376847D-01 -3.4872722604488D-01
     9  8.0000000000000D-02  2.3019508745332D-01 -3.9685404055850D-01
    10  9.0000000000000D-02  2.5849860215186D-01 -4.4430523822711D-01
    11  1.0000000000000D-01  2.8663719403932D-01 -4.9099701829262D-01
    12  1.1000000000000D-01  3.1459323335694D-01 -5.3684586797139D-01
    13  1.2000000000000D-01  3.4234930334853D-01 -5.8176862575757D-01
    14  1.3000000000000D-01  3.6988821841017D-01 -6.2568255391275D-01
    15  1.4000000000000D-01  3.9719304139549D-01 -6.6850542072014D-01
    16  1.5000000000000D-01  4.2424710002400D-01 -7.1015559299068D-01
    17  1.6000000000000D-01  4.5103400234615D-01 -7.5055213921179D-01
    18  1.7000000000000D-01  4.7753765122493D-01 -7.8961494362861D-01
    19  1.8000000000000D-01  5.0374225780028D-01 -8.2726483144148D-01
    20  1.9000000000000D-01  5.2963235390931D-01 -8.6342370519554D-01
    21  2.0000000000000D-01  5.5519280344209D-01 -8.9801469232614D-01
    22  2.1000000000000D-01  5.8040881262000D-01 -9.3096230371105D-01
    23  2.2000000000000D-01  6.0526593919034D-01 -9.6219260296612D-01
    24  2.3000000000000D-01  6.2975010053833D-01 -9.9163338610656D-01
    25  2.4000000000000D-01  6.5384758072446D-01 -1.0192143710824D+00
    26  2.5000000000000D-01  6.7754503646240D-01 -1.0448673965843D+00
    27  2.6000000000000D-01  7.0082950205926D-01 -1.0685266294059D+00
    28  2.7000000000000D-01  7.2368839334697D-01 -1.0901287795417D+00
    29  2.8000000000000D-01  7.4610951064010D-01 -1.1096133220971D+00
    30  2.9000000000000D-01  7.6808104076136D-01 -1.1269227249881D+00
    31  3.0000000000000D-01  7.8959155818233D-01 -1.1420026813155D+00
    32  3.1000000000000D-01  8.1063002533255D-01 -1.1548023452120D+00
    33  3.2000000000000D-01  8.3118579213504D-01 -1.1652745698798D+00
    34  3.3000000000000D-01  8.5124859483144D-01 -1.1733761464647D+00
    35  3.4000000000000D-01  8.7080855416426D-01 -1.1790680423483D+00
    36  3.5000000000000D-01  8.8985617298739D-01 -1.1823156373816D+00
    37  3.6000000000000D-01  9.0838233337961D-01 -1.1830889565430D+00
    38  3.7000000000000D-01  9.2637829333854D-01 -1.1813628974573D+00
    39  3.8000000000000D-01  9.4383568313456D-01 -1.1771174511953D+00
    40  3.9000000000000D-01  9.6074650140620D-01 -1.1703379147486D+00
    41  4.0000000000000D-01  9.7710311107918D-01 -1.1610150935742D+00
    42  4.1000000000000D-01  9.9289823519189D-01 -1.1491454926032D+00
    43  4.2000000000000D-01  1.0081249527099D+00 -1.1347314941281D+00
    44  4.3000000000000D-01  1.0227766944115D+00 -1.1177815210060D+00
    45  4.4000000000000D-01  1.0368472389236D+00 -1.0983101836548D+00
    46  4.5000000000000D-01  1.0503307089877D+00 -1.0763384093672D+00
    47  4.6000000000000D-01  1.0632215680304D+00 -1.0518935525260D+00
    48  4.7000000000000D-01  1.0755146171106D+00 -1.0250094843754D+00
    49  4.8000000000000D-01  1.0872049923132D+00 -9.9572666108138D-01
    50  4.9000000000000D-01  1.0982881626508D+00 -9.6409216890375D-01
    51  5.0000000000000D-01  1.1087599285357D+00 -9.3015974540473D-01
    52  5.1000000000000D-01  1.1186164208726D+00 -8.9398977572299D-01
    53  5.2000000000000D-01  1.1278541008222D+00 -8.5564926306159D-01
    54  5.3000000000000D-01  1.1364697602755D+00 -8.1521177266170D-01
    55  5.4000000000000D-01  1.1444605230738D+00 -7.7275734866545D-01
    56  5.5000000000000D-01  1.1518238470023D+00 -7.2837240340930D-01
    57  5.6000000000000D-01  1.1585575265768D+00 -6.8214957883307D-01
    58  5.7000000000000D-01  1.1646596966358D+00 -6.3418757983766D-01
    59  5.8000000000000D-01  1.1701288367434D+00 -5.8459097957763D-01
    60  5.9000000000000D-01  1.1749637763983D+00 -5.3346999682925D-01
    61  6.0000000000000D-01  1.1791637010374D+00 -4.8094024573338D-01
    62  6.1000000000000D-01  1.1827281588155D+00 -4.2712245837029D-01
    63  6.2000000000000D-01  1.1856570681301D+00 -3.7214218078345D-01
    64  6.3000000000000D-01  1.1879507258580D+00 -3.1612944322755D-01
    65  6.4000000000000D-01  1.1896098162580D+00 -2.5921840557224D-01
    66  6.5000000000000D-01  1.1906354204866D+00 -2.0154697894830D-01
    67  6.6000000000000D-01  1.1910290266687D+00 -1.4325642487224D-01
    68  6.7000000000000D-01  1.1907925404554D+00 -8.4490933231998D-02
    69  6.8000000000000D-01  1.1899282959936D+00 -2.5397180656903D-02
    70  6.9000000000000D-01  1.1884390672286D+00  3.3876129071558D-02
    71  7.0000000000000D-01  1.1863280794507D+00  9.3178740784483D-02
    72  7.1000000000000D-01  1.1835990209944D+00  1.5235933796358D-01
    73  7.2000000000000D-01  1.1802560549917D+00  2.1126604504112D-01
    74  7.3000000000000D-01  1.1763038310766D+00  2.6974693985022D-01
    75  7.4000000000000D-01  1.1717474969349D+00  3.2765057402495D-01
    76  7.5000000000000D-01  1.1665927095893D+00  3.8482649907136D-01
    77  7.6000000000000D-01  1.1608456463062D+00  4.4112579576402D-01
    78  7.7000000000000D-01  1.1545130150114D+00  4.9640160446849D-01
    79  7.8000000000000D-01  1.1476020640969D+00  5.5050965394869D-01
    80  7.9000000000000D-01  1.1401205915040D+00  6.0330878618961D-01
    81  8.0000000000000D-01  1.1320769529663D+00  6.5466147475088D-01
    82  8.1000000000000D-01  1.1234800692963D+00  7.0443433416529D-01
    83  8.2000000000000D-01  1.1143394326049D+00  7.5249861790905D-01
    84  8.3000000000000D-01  1.1046651113413D+00  7.9873070249658D-01
    85  8.4000000000000D-01  1.0944677540463D+00  8.4301255529339D-01
    86  8.5000000000000D-01  1.0837585917168D+00  8.8523218369417D-01
    87  8.6000000000000D-01  1.0725494386833D+00  9.2528406338115D-01
    88  8.7000000000000D-01  1.0608526919069D+00  9.6306954345902D-01
    89  8.8000000000000D-01  1.0486813286109D+00  9.9849722635642D-01
    90  8.9000000000000D-01  1.0360489021671D+00  1.0314833204909D+00
    91  9.0000000000000D-01  1.0229695361661D+00  1.0619519638133D+00
    92  9.1000000000000D-01  1.0094579166078D+00  1.0898355164774D+00
    93  9.2000000000000D-01  9.9552928215793D-01  1.1150748210222D+00
    94  9.3000000000000D-01  9.8119941242680D-01  1.1376194286059D+00
    95  9.4000000000000D-01  9.6648461423337D-01  1.1574277899913D+00
    96  9.5000000000000D-01  9.5140170583174D-01  1.1744674101502D+00
    97  9.6000000000000D-01  9.3596799908474D-01  1.1887149655353D+00
    98  9.7000000000000D-01  9.2020127958208D-01  1.2001563832466D+00
    99  9.8000000000000D-01  9.0411978471063D-01  1.2087868815127D+00
   100  9.9000000000000D-01  8.8774217969665D-01  1.2146109711004D+00
   101  1.0000000000000D+00  8.7108753165041D-01  1.2176424174617D+00
   102  1.0100000000000D+00  8.5417528165557D-01  1.2179041636283D+00
   103  1.0200000000000D+00  8.3702521495736D-01  1.2154282140667D+00
   104  1.0300000000000D+00  8.1965742931445D-01  1.2102554799057D+00
   105  1.0400000000000D+00  8.0209230159108D-01  1.2024355861494D+00
   106  1.0500000000000D+00  7.8435045267689D-01  1.1920266416888D+00
   107  1.0600000000000D+00  7.6645271083226D-01  1.1790949731175D+00
   108  1.0700000000000D+00  7.4842007356770D-01  1.1637148235441D+00
   109  1.0800000000000D+00  7.3027366817548D-01  1.1459680177891D+00
   110  1.0900000000000D+00  7.1203471104113D-01  1.1259435955216D+00
   111  1.1000000000000D+00  6.9372446587145D-01  1.1037374140717D+00
   112  1.1100000000000D+00  6.7536420098312D-01  1.0794517227997D+00
   113  1.1200000000000D+00  6.5697514580445D-01  1.0531947110725D+00
   114  1.1300000000000D+00  6.3857844674911D-01  1.0250800320309D+00
   115  1.1400000000000D+00  6.2019512262686D-01  9.9522630446438D-01
   116  1.1500000000000D+00  6.0184601976114D-01  9.6375659521811D-01
   117  1.1600000000000D+00  5.8355176698810D-01  9.3079788466961D-01
   118  1.1700000000000D+00  5.6533273071514D-01  8.9648051790536D-01
   119  1.1800000000000D+00  5.4720897021912D-01  8.6093764429905D-01
   120  1.1900000000000D+00  5.2920019336626D-01  8.2430464824608D-01
   121  1.2000000000000D+00  5.1132571293649D-01  7.8671857387451D-01
   122  1.2100000000000D+00  4.9360440373426D-01  7.4831754656960D-01
   123  1.2200000000000D+00  4.7605466066641D-01  7.0924019416075D-01
   124  1.2300000000000D+00  4.5869435796628D-01  6.6962507063445D-01
   125  1.2400000000000D+00  4.4154080973897D-01  6.2961008520902D-01
   126  1.2500000000000D+00  4.2461073199683D-01  5.8933193955531D-01
   127  1.2600000000000D+00  4.0792020635429D-01  5.4892557595555D-01
   128  1.2700000000000D+00  3.9148464553896D-01  5.0852363907129D-01
   129  1.2800000000000D+00  3.7531876086895D-01  4.6825595389871D-01
   130  1.2900000000000D+00  3.5943653184730D-01  4.2824902251126D-01
   131  1.3000000000000D+00  3.4385117800333D-01  3.8862554193768D-01
   132  1.3100000000000D+00  3.2857513310519D-01  3.4950394543168D-01
   133  1.3200000000000D+00  3.1362002186789D-01  3.1099796941348D-01
   134  1.3300000000000D+00  2.9899663925188D-01  2.7321624796167D-01
   135  1.3400000000000D+00  2.8471493244642D-01  2.3626193672435D-01
   136  1.3500000000000D+00  2.7078398562710D-01  2.0023236805546D-01
   137  1.3600000000000D+00  2.5721200754068D-01  1.6521873867559D-01
   138  1.3700000000000D+00  2.4400632198322D-01  1.3130583133265D-01
   139  1.3800000000000D+00  2.3117336121266D-01  9.8571771596193D-02
   140  1.3900000000000D+00  2.1871866230713D-01  6.7087820471325D-02
   141  1.4000000000000D+00  2.0664686650963D-01  3.6918203958557D-02
   142  1.4100000000000D+00  1.9496172153155D-01  8.1199796828519D-03
   143  1.4200000000000D+00  1.8366608681236D-01 -1.9257058926179D-02
   144  1.4300000000000D+00  1.7276194171423D-01 -4.5170440682886D-02
   145  1.4400000000000D+00  1.6225039658036D-01 -6.9585037470444D-02
   146  1.4500000000000D+00  1.5213170663974D-01 -9.2473047561331D-02
   147  1.4600000000000D+00  1.4240528864865D-01 -1.1381394256538D-01
   148  1.4700000000000D+00  1.3306974021006D-01 -1.3359437836532D-01
   149  1.4800000000000D+00  1.2412286166906D-01 -1.5180807104749D-01
   150  1.4900000000000D+00  1.1556168045944D-01 -1.6845563921966D-01
   151  1.5000000000000D+00  1.0738247781409D-01 -1.8354441349381D-01
   152  1.5100000000000D+00  9.9580817662657D-02 -1.9708821534660D-01
   153  1.5200000000000D+00  9.2151577621581D-02 -2.0910710625475D-01
   154  1.5300000000000D+00  8.5088981883086D-02 -2.1962710959497D-01
   155  1.5400000000000D+00  7.8386635872769D-02 -2.2867990678211D-01
   156  1.5500000000000D+00  7.2037562490140D-02 -2.3630251001288D-01
   157  1.5600000000000D+00  6.6034239762378D-02 -2.4253691375275D-01
   158  1.5700000000000D+00  6.0368639733201D-02 -2.4742972719955D-01
   159  1.5800000000000D+00  5.5032268391353D-02 -2.5103179033634D-01
   160  1.5900000000000D+00  5.0016206460015D-02 -2.5339777578893D-01
   161  1.6000000000000D+00  4.5311150843238D-02 -2.5458577932129D-01
   162  1.6100000000000D+00  4.0907456540764D-02 -2.5465690131049D-01
   163  1.6200000000000D+00  3.6795178835957D-02 -2.5367482198674D-01
   164  1.6300000000000D+00  3.2964115552112D-02 -2.5170537302688D-01
   165  1.6400000000000D+00  2.9403849201359D-02 -2.4881610804157D-01
   166  1.6500000000000D+00  2.6103788807529D-02 -2.4507587479202D-01
   167  1.6600000000000D+00  2.3053211249989D-02 -2.4055439135806D-01
   168  1.6700000000000D+00  2.0241301902009D-02 -2.3532182925936D-01
   169  1.6800000000000D+00  1.7657194436348D-02 -2.2944840538929D-01
   170  1.6900000000000D+00  1.5290009567561D-02 -2.2300398586684D-01
   171  1.7000000000000D+00  1.3128892635458D-02 -2.1605770321936D-01
   172  1.7100000000000D+00  1.1163049794380D-02 -2.0867759010596D-01
   173  1.7200000000000D+00  9.3817827549280D-03 -2.0093023039975D-01
   174  1.7300000000000D+00  7.7745218317354D-03 -1.9288043102408D-01
   175  1.7400000000000D+00  6.3308573013771D-03 -1.8459091454675D-01
   176  1.7500000000000D+00  5.0405688009904D-03 -1.7612203627854D-01
   177  1.7600000000000D+00  3.8936528488234D-03 -1.6753152477931D-01
   178  1.7700000000000D+00  2.8803481776078D-03 -1.5887425010772D-01
   179  1.7800000000000D+00  1.9911590597396D-03 -1.5020201731116D-01
   180  1.7900000000000D+00  1.2168762669208D-03 -1.4156339021008D-01
   181  1.8000000000000D+00  5.4859593010690D-04 -1.3300354170744D-01
   182  1.8100000000000D+00 -2.2264061553336D-05 -1.2456413577062D-01
   183  1.8200000000000D+00 -5.0394983679617D-04 -1.1628323699534D-01
   184  1.8300000000000D+00 -9.0435978215651D-04 -1.0819525189294D-01
   185  1.8400000000000D+00 -1.2310350111747D-03 -1.0033089852304D-01
   186  1.8500000000000D+00 -1.4911522182286D-03 -9.2717206712718D-02
   187  1.8600000000000D+00 -1.6915187861641D-03 -8.5377546966437D-02
   188  1.8700000000000D+00 -1.8385701261287D-03 -7.8331687758057D-02
   189  1.8800000000000D+00 -1.9383692603770D-03 -7.1595881358558D-02
   190  1.8900000000000D+00 -1.9966084260366D-03 -6.5182974978611D-02
   191  1.9000000000000D+00 -2.0186128616066D-03 -5.9102549583045D-02
   192  1.9100000000000D+00 -2.0093463769839D-03 -5.3361080565377D-02
   193  1.9200000000000D+00 -1.9734189497899D-03 -4.7962123832262D-02
   194  1.9300000000000D+00 -1.9150959238504D-03 -4.2906521111254D-02
   195  1.9400000000000D+00 -1.8383090545324D-03 -3.8192628677719D-02
   196  1.9500000000000D+00 -1.7466685032675D-03 -3.3816553327784D-02
   197  1.9600000000000D+00 -1.6434768139221D-03 -2.9772415984490D-02
   198  1.9700000000000D+00 -1.5317458576269D-03 -2.6052662248826D-02
   199  1.9800000000000D+00 -1.4142050084214D-03 -2.2648198207133D-02
   200  1.9900000000000D+00 -1.2933252024959D-03 -1.9548813820874D-02
   201  2.0000000000000D+00 -1.1713515467562D-03 -1.6743778587320D-02
   202  2.0100000000000D+00 -1.0502971998010D-03 -1.4221670994124D-02
   203  2.0200000000000D+00 -9.3193813984140D-04 -1.1970215571289D-02
   204  2.0300000000000D+00 -8.1781083626755D-04 -9.9761829818883D-03
   205  2.0400000000000D+00 -7.0921466095233D-04 -8.2254165283847D-03
   206  2.0500000000000D+00 -6.0718900986357D-04 -6.7023525088580D-03
   207  2.0600000000000D+00 -5.1254537819645D-04 -5.3906030177642D-03
   208  2.0700000000000D+00 -4.2588487377018D-04 -4.2732650735289D-03
   209  2.0800000000000D+00 -3.4761373117131D-04 -3.3331801395320D-03
   210  2.0900000000000D+00 -2.7795308003337D-04 -2.5530724503205D-03
   211  2.1000000000000D+00 -2.1695559885606D-04 -1.9158244317337D-03
   212  2.1100000000000D+00 -1.6451665958699D-04 -1.4046423766365D-03
   213  2.1200000000000D+00 -1.2038653972751D-04 -1.0032405721571D-03
   214  2.1300000000000D+00 -8.4180530042228D-05 -6.9600004083619D-04
   215  2.1400000000000D+00 -5.5375442457287D-05 -4.6816399267062D-04
   216  2.1500000000000D+00 -3.3381422055248D-05 -3.0565785085603D-04
   217  2.1600000000000D+00 -1.7496801464371D-05 -1.9514921563100D-04
   218  2.1700000000000D+00 -6.8270777906075D-06 -1.2536993609200D-04
   219  2.1800000000000D+00 -3.1732747631223D-07 -8.6890999321356D-05
   220  2.1900000000000D+00  3.1308465156732D-06 -7.2296712729400D-05
   221  2.2000000000000D+00  4.2470736870174D-06 -6.6024605643616D-05
   222  2.2100000000000D+00  3.6782071144986D-06 -5.4545837148022D-05
   223  2.2200000000000D+00  2.0926917453419D-06 -3.1373980087573D-05
   224  2.2300000000000D+00  4.7428302195890D-07 -7.3762346890782D-06
   225  2.2400000000000D+00 -3.6332405082767D-07  5.0473761678956D-06
   226  2.2500000000000D+00 -3.8336312813381D-07  5.3377544326087D-06
   227  2.2600000000000D+00 -2.2788344794235D-08  3.1867562226568D-07
   228  2.2700000000000D+00  9.9871476802683D-08 -1.2787724215427D-06
   229  2.2800000000000D+00  7.6821585732312D-08 -9.7667552891318D-07
   230  2.2900000000000D+00 -3.4475223777118D-09  5.1510235729304D-08
   231  2.3000000000000D+00 -1.1285251504748D-08  1.6861557419677D-07
   232  2.3100000000000D+00 -5.9422817739886D-09  8.8785017590302D-08
   233  2.3200000000000D+00  0.0000000000000D+00  0.0000000000000D+00
   234  2.3300000000000D+00  0.0000000000000D+00  0.0000000000000D+00
   235  2.3400000000000D+00  0.0000000000000D+00  0.0000000000000D+00
   236  2.3500000000000D+00  0.0000000000000D+00  0.0000000000000D+00
   237  2.3600000000000D+00  0.0000000000000D+00  0.0000000000000D+00
   238  2.3700000000000D+00  0.0000000000000D+00  0.0000000000000D+00
   239  2.3800000000000D+00  0.0000000000000D+00  0.0000000000000D+00
   240  2.3900000000000D+00  0.0000000000000D+00  0.0000000000000D+00
   241  2.4000000000000D+00  0.0000000000000D+00  0.0000000000000D+00
   242  2.4100000000000D+00  0.0000000000000D+00  0.0000000000000D+00
   243  2.4200000000000D+00  0.0000000000000D+00  0.0000000000000D+00
   244  2.4300000000000D+00  0.0000000000000D+00  0.0000000000000D+00
   245  2.4400000000000D+00  0.0000000000000D+00  0.0000000000000D+00
   246  2.4500000000000D+00  0.0000000000000D+00  0.0000000000000D+00
   247  2.4600000000000D+00  0.0000000000000D+00  0.0000000000000D+00
   248  2.4700000000000D+00  0.0000000000000D+00  0.0000000000000D+00
   249  2.4800000000000D+00  0.0000000000000D+00  0.0000000000000D+00
   250  2.4900000000000D+00  0.0000000000000D+00  0.0000000000000D+00
   251  2.5000000000000D+00  0.0000000000000D+00  0.0000000000000D+00
   252  2.5100000000000D+00  0.0000000000000D+00  0.0000000000000D+00
   253  2.5200000000000D+00  0.0000000000000D+00  0.0000000000000D+00
   254  2.5300000000000D+00  0.0000000000000D+00  0.0000000000000D+00
   255  2.5400000000000D+00  0.0000000000000D+00  0.0000000000000D+00
   256  2.5500000000000D+00  0.0000000000000D+00  0.0000000000000D+00
   257  2.5600000000000D+00  0.0000000000000D+00  0.0000000000000D+00
   258  2.5700000000000D+00  0.0000000000000D+00  0.0000000000000D+00
   259  2.5800000000000D+00  0.0000000000000D+00  0.0000000000000D+00
   260  2.5900000000000D+00  0.0000000000000D+00  0.0000000000000D+00
   261  2.6000000000000D+00  0.0000000000000D+00  0.0000000000000D+00
   262  2.6100000000000D+00  0.0000000000000D+00  0.0000000000000D+00
   263  2.6200000000000D+00  0.0000000000000D+00  0.0000000000000D+00
   264  2.6300000000000D+00  0.0000000000000D+00  0.0000000000000D+00
   265  2.6400000000000D+00  0.0000000000000D+00  0.0000000000000D+00
   266  2.6500000000000D+00  0.0000000000000D+00  0.0000000000000D+00
   267  2.6600000000000D+00  0.0000000000000D+00  0.0000000000000D+00
   268  2.6700000000000D+00  0.0000000000000D+00  0.0000000000000D+00
   269  2.6800000000000D+00  0.0000000000000D+00  0.0000000000000D+00
   270  2.6900000000000D+00  0.0000000000000D+00  0.0000000000000D+00
   271  2.7000000000000D+00  0.0000000000000D+00  0.0000000000000D+00
   272  2.7100000000000D+00  0.0000000000000D+00  0.0000000000000D+00
   273  2.7200000000000D+00  0.0000000000000D+00  0.0000000000000D+00
   274  2.7300000000000D+00  0.0000000000000D+00  0.0000000000000D+00
   275  2.7400000000000D+00  0.0000000000000D+00  0.0000000000000D+00
   276  2.7500000000000D+00  0.0000000000000D+00  0.0000000000000D+00
   277  2.7600000000000D+00  0.0000000000000D+00  0.0000000000000D+00
   278  2.7700000000000D+00  0.0000000000000D+00  0.0000000000000D+00
   279  2.7800000000000D+00  0.0000000000000D+00  0.0000000000000D+00
   280  2.7900000000000D+00  0.0000000000000D+00  0.0000000000000D+00
   281  2.8000000000000D+00  0.0000000000000D+00  0.0000000000000D+00
   282  2.8100000000000D+00  0.0000000000000D+00  0.0000000000000D+00
   283  2.8200000000000D+00  0.0000000000000D+00  0.0000000000000D+00
   284  2.8300000000000D+00  0.0000000000000D+00  0.0000000000000D+00
   285  2.8400000000000D+00  0.0000000000000D+00  0.0000000000000D+00
   286  2.8500000000000D+00  0.0000000000000D+00  0.0000000000000D+00
   287  2.8600000000000D+00  0.0000000000000D+00  0.0000000000000D+00
   288  2.8700000000000D+00  0.0000000000000D+00  0.0000000000000D+00
   289  2.8800000000000D+00  0.0000000000000D+00  0.0000000000000D+00
   290  2.8900000000000D+00  0.0000000000000D+00  0.0000000000000D+00
   291  2.9000000000000D+00  0.0000000000000D+00  0.0000000000000D+00
   292  2.9100000000000D+00  0.0000000000000D+00  0.0000000000000D+00
   293  2.9200000000000D+00  0.0000000000000D+00  0.0000000000000D+00
   294  2.9300000000000D+00  0.0000000000000D+00  0.0000000000000D+00
   295  2.9400000000000D+00  0.0000000000000D+00  0.0000000000000D+00
   296  2.9500000000000D+00  0.0000000000000D+00  0.0000000000000D+00
   297  2.9600000000000D+00  0.0000000000000D+00  0.0000000000000D+00
   298  2.9700000000000D+00  0.0000000000000D+00  0.0000000000000D+00
   299  2.9800000000000D+00  0.0000000000000D+00  0.0000000000000D+00
   300  2.9900000000000D+00  0.0000000000000D+00  0.0000000000000D+00
   301  3.0000000000000D+00  0.0000000000000D+00  0.0000000000000D+00
   302  3.0100000000000D+00  0.0000000000000D+00  0.0000000000000D+00
   303  3.0200000000000D+00  0.0000000000000D+00  0.0000000000000D+00
   304  3.0300000000000D+00  0.0000000000000D+00  0.0000000000000D+00
   305  3.0400000000000D+00  0.0000000000000D+00  0.0000000000000D+00
   306  3.0500000000000D+00  0.0000000000000D+00  0.0000000000000D+00
   307  3.0600000000000D+00  0.0000000000000D+00  0.0000000000000D+00
   308  3.0700000000000D+00  0.0000000000000D+00  0.0000000000000D+00
   309  3.0800000000000D+00  0.0000000000000D+00  0.0000000000000D+00
   310  3.0900000000000D+00  0.0000000000000D+00  0.0000000000000D+00
   311  3.1000000000000D+00  0.0000000000000D+00  0.0000000000000D+00
   312  3.1100000000000D+00  0.0000000000000D+00  0.0000000000000D+00
   313  3.1200000000000D+00  0.0000000000000D+00  0.0000000000000D+00
   314  3.1300000000000D+00  0.0000000000000D+00  0.0000000000000D+00
   315  3.1400000000000D+00  0.0000000000000D+00  0.0000000000000D+00
   316  3.1500000000000D+00  0.0000000000000D+00  0.0000000000000D+00
   317  3.1600000000000D+00  0.0000000000000D+00  0.0000000000000D+00
   318  3.1700000000000D+00  0.0000000000000D+00  0.0000000000000D+00
   319  3.1800000000000D+00  0.0000000000000D+00  0.0000000000000D+00
   320  3.1900000000000D+00  0.0000000000000D+00  0.0000000000000D+00
   321  3.2000000000000D+00  0.0000000000000D+00  0.0000000000000D+00
   322  3.2100000000000D+00  0.0000000000000D+00  0.0000000000000D+00
   323  3.2200000000000D+00  0.0000000000000D+00  0.0000000000000D+00
   324  3.2300000000000D+00  0.0000000000000D+00  0.0000000000000D+00
   325  3.2400000000000D+00  0.0000000000000D+00  0.0000000000000D+00
   326  3.2500000000000D+00  0.0000000000000D+00  0.0000000000000D+00
   327  3.2600000000000D+00  0.0000000000000D+00  0.0000000000000D+00
   328  3.2700000000000D+00  0.0000000000000D+00  0.0000000000000D+00
   329  3.2800000000000D+00  0.0000000000000D+00  0.0000000000000D+00
   330  3.2900000000000D+00  0.0000000000000D+00  0.0000000000000D+00
   331  3.3000000000000D+00  0.0000000000000D+00  0.0000000000000D+00
   332  3.3100000000000D+00  0.0000000000000D+00  0.0000000000000D+00
   333  3.3200000000000D+00  0.0000000000000D+00  0.0000000000000D+00
   334  3.3300000000000D+00  0.0000000000000D+00  0.0000000000000D+00
   335  3.3400000000000D+00  0.0000000000000D+00  0.0000000000000D+00
   336  3.3500000000000D+00  0.0000000000000D+00  0.0000000000000D+00
   337  3.3600000000000D+00  0.0000000000000D+00  0.0000000000000D+00
   338  3.3700000000000D+00  0.0000000000000D+00  0.0000000000000D+00
   339  3.3800000000000D+00  0.0000000000000D+00  0.0000000000000D+00
   340  3.3900000000000D+00  0.0000000000000D+00  0.0000000000000D+00
   341  3.4000000000000D+00  0.0000000000000D+00  0.0000000000000D+00
   342  3.4100000000000D+00  0.0000000000000D+00  0.0000000000000D+00
   343  3.4200000000000D+00  0.0000000000000D+00  0.0000000000000D+00
   344  3.4300000000000D+00  0.0000000000000D+00  0.0000000000000D+00
   345  3.4400000000000D+00  0.0000000000000D+00  0.0000000000000D+00
   346  3.4500000000000D+00  0.0000000000000D+00  0.0000000000000D+00
   347  3.4600000000000D+00  0.0000000000000D+00  0.0000000000000D+00
   348  3.4700000000000D+00  0.0000000000000D+00  0.0000000000000D+00
   349  3.4800000000000D+00  0.0000000000000D+00  0.0000000000000D+00
   350  3.4900000000000D+00  0.0000000000000D+00  0.0000000000000D+00
   351  3.5000000000000D+00  0.0000000000000D+00  0.0000000000000D+00
   352  3.5100000000000D+00  0.0000000000000D+00  0.0000000000000D+00
   353  3.5200000000000D+00  0.0000000000000D+00  0.0000000000000D+00
   354  3.5300000000000D+00  0.0000000000000D+00  0.0000000000000D+00
   355  3.5400000000000D+00  0.0000000000000D+00  0.0000000000000D+00
   356  3.5500000000000D+00  0.0000000000000D+00  0.0000000000000D+00
   357  3.5600000000000D+00  0.0000000000000D+00  0.0000000000000D+00
   358  3.5700000000000D+00  0.0000000000000D+00  0.0000000000000D+00
   359  3.5800000000000D+00  0.0000000000000D+00  0.0000000000000D+00
   360  3.5900000000000D+00  0.0000000000000D+00  0.0000000000000D+00
   361  3.6000000000000D+00  0.0000000000000D+00  0.0000000000000D+00
   362  3.6100000000000D+00  0.0000000000000D+00  0.0000000000000D+00
   363  3.6200000000000D+00  0.0000000000000D+00  0.0000000000000D+00
   364  3.6300000000000D+00  0.0000000000000D+00  0.0000000000000D+00
   365  3.6400000000000D+00  0.0000000000000D+00  0.0000000000000D+00
   366  3.6500000000000D+00  0.0000000000000D+00  0.0000000000000D+00
   367  3.6600000000000D+00  0.0000000000000D+00  0.0000000000000D+00
   368  3.6700000000000D+00  0.0000000000000D+00  0.0000000000000D+00
   369  3.6800000000000D+00  0.0000000000000D+00  0.0000000000000D+00
   370  3.6900000000000D+00  0.0000000000000D+00  0.0000000000000D+00
   371  3.7000000000000D+00  0.0000000000000D+00  0.0000000000000D+00
   372  3.7100000000000D+00  0.0000000000000D+00  0.0000000000000D+00
   373  3.7200000000000D+00  0.0000000000000D+00  0.0000000000000D+00
   374  3.7300000000000D+00  0.0000000000000D+00  0.0000000000000D+00
   375  3.7400000000000D+00  0.0000000000000D+00  0.0000000000000D+00
   376  3.7500000000000D+00  0.0000000000000D+00  0.0000000000000D+00
   377  3.7600000000000D+00  0.0000000000000D+00  0.0000000000000D+00
   378  3.7700000000000D+00  0.0000000000000D+00  0.0000000000000D+00
   379  3.7800000000000D+00  0.0000000000000D+00  0.0000000000000D+00
   380  3.7900000000000D+00  0.0000000000000D+00  0.0000000000000D+00
   381  3.8000000000000D+00  0.0000000000000D+00  0.0000000000000D+00
   382  3.8100000000000D+00  0.0000000000000D+00  0.0000000000000D+00
   383  3.8200000000000D+00  0.0000000000000D+00  0.0000000000000D+00
   384  3.8300000000000D+00  0.0000000000000D+00  0.0000000000000D+00
   385  3.8400000000000D+00  0.0000000000000D+00  0.0000000000000D+00
   386  3.8500000000000D+00  0.0000000000000D+00  0.0000000000000D+00
   387  3.8600000000000D+00  0.0000000000000D+00  0.0000000000000D+00
   388  3.8700000000000D+00  0.0000000000000D+00  0.0000000000000D+00
   389  3.8800000000000D+00  0.0000000000000D+00  0.0000000000000D+00
   390  3.8900000000000D+00  0.0000000000000D+00  0.0000000000000D+00
   391  3.9000000000000D+00  0.0000000000000D+00  0.0000000000000D+00
   392  3.9100000000000D+00  0.0000000000000D+00  0.0000000000000D+00
   393  3.9200000000000D+00  0.0000000000000D+00  0.0000000000000D+00
   394  3.9300000000000D+00  0.0000000000000D+00  0.0000000000000D+00
   395  3.9400000000000D+00  0.0000000000000D+00  0.0000000000000D+00
   396  3.9500000000000D+00  0.0000000000000D+00  0.0000000000000D+00
   397  3.9600000000000D+00  0.0000000000000D+00  0.0000000000000D+00
   398  3.9700000000000D+00  0.0000000000000D+00  0.0000000000000D+00
   399  3.9800000000000D+00  0.0000000000000D+00  0.0000000000000D+00
   400  3.9900000000000D+00  0.0000000000000D+00  0.0000000000000D+00
   401  4.0000000000000D+00  0.0000000000000D+00  0.0000000000000D+00
   402  4.0100000000000D+00  0.0000000000000D+00  0.0000000000000D+00
   403  4.0200000000000D+00  0.0000000000000D+00  0.0000000000000D+00
   404  4.0300000000000D+00  0.0000000000000D+00  0.0000000000000D+00
   405  4.0400000000000D+00  0.0000000000000D+00  0.0000000000000D+00
   406  4.0500000000000D+00  0.0000000000000D+00  0.0000000000000D+00
   407  4.0600000000000D+00  0.0000000000000D+00  0.0000000000000D+00
   408  4.0700000000000D+00  0.0000000000000D+00  0.0000000000000D+00
   409  4.0800000000000D+00  0.0000000000000D+00  0.0000000000000D+00
   410  4.0900000000000D+00  0.0000000000000D+00  0.0000000000000D+00
   411  4.1000000000000D+00  0.0000000000000D+00  0.0000000000000D+00
   412  4.1100000000000D+00  0.0000000000000D+00  0.0000000000000D+00
   413  4.1200000000000D+00  0.0000000000000D+00  0.0000000000000D+00
   414  4.1300000000000D+00  0.0000000000000D+00  0.0000000000000D+00
   415  4.1400000000000D+00  0.0000000000000D+00  0.0000000000000D+00
   416  4.1500000000000D+00  0.0000000000000D+00  0.0000000000000D+00
   417  4.1600000000000D+00  0.0000000000000D+00  0.0000000000000D+00
   418  4.1700000000000D+00  0.0000000000000D+00  0.0000000000000D+00
   419  4.1800000000000D+00  0.0000000000000D+00  0.0000000000000D+00
   420  4.1900000000000D+00  0.0000000000000D+00  0.0000000000000D+00
   421  4.2000000000000D+00  0.0000000000000D+00  0.0000000000000D+00
   422  4.2100000000000D+00  0.0000000000000D+00  0.0000000000000D+00