Cr    ONCVPSP-3.3.1  r_core=   2.20727   2.37104   2.37104
     24.0000     14.0000      210904    zatom,zion,pspd
     8      11   2     4   600     0    pspcod,pspxc,lmax,lloc,mmax,r2well
  5.99000000  0.00000000  0.00000000    rchrg fchrg qchrg
     2     2     2     0    nproj
     3     1           extension_switch
     3     3     0    nprojso
   0                        -1.6976765397795D+00  1.2721515130733D+00
     1  0.0000000000000D+00 -2.2833401835953D-12 -3.7463698809859D-11
     2  1.0000000000000D-02  2.8960307780345D-02 -5.0498872482605D-02
     3  2.0000000000000D-02  5.7902009945976D-02 -1.0091306284567D-01
     4  3.0000000000000D-02  8.6806523544715D-02 -1.5115790727919D-01
     5  4.0000000000000D-02  1.1565531086168D-01 -2.0114877966192D-01
     6  5.0000000000000D-02  1.4442990181907D-01 -2.5080111307074D-01
     7  6.0000000000000D-02  1.7311191611487D-01 -3.0003042446109D-01
     8  7.0000000000000D-02  2.0168308501630D-01 -3.4875234353173D-01
     9  8.0000000000000D-02  2.3012527272575D-01 -3.9688264674918D-01
    10  9.0000000000000D-02  2.5842049724022D-01 -4.4433729746103D-01
    11  1.0000000000000D-01  2.8655095062818D-01 -4.9103249297239D-01
    12  1.1000000000000D-01  3.1449901865202D-01 -5.3688471939695D-01
    13  1.2000000000000D-01  3.4224729966817D-01 -5.8181081502282D-01
    14  1.3000000000000D-01  3.6977862274214D-01 -6.2572804285578D-01
    15  1.4000000000000D-01  3.9707606492065D-01 -6.6855417291748D-01
    16  1.5000000000000D-01  4.2412296760861D-01 -7.1020757478543D-01
    17  1.6000000000000D-01  4.5090295200470D-01 -7.5060732076508D-01
    18  1.7000000000000D-01  4.7739993355545D-01 -7.8967329998322D-01
    19  1.8000000000000D-01  5.0359813539417D-01 -8.2732634358653D-01
    20  1.9000000000000D-01  5.2948210073786D-01 -8.6348836112061D-01
    21  2.0000000000000D-01  5.5503670422179D-01 -8.9808248805310D-01
    22  2.1000000000000D-01  5.8024716215896D-01 -9.3103324429202D-01
    23  2.2000000000000D-01  6.0509904171806D-01 -9.6226670343580D-01
    24  2.3000000000000D-01  6.2957826902110D-01 -9.9171067237752D-01
    25  2.4000000000000D-01  6.5367113616880D-01 -1.0192948807720D+00
    26  2.5000000000000D-01  6.7736430720879D-01 -1.0449511797621D+00
    27  2.6000000000000D-01  7.0064482306852D-01 -1.0686137492516D+00
    28  2.7000000000000D-01  7.2350010548167D-01 -1.0902193129027D+00
    29  2.8000000000000D-01  7.4591795994311D-01 -1.1097073599374D+00
    30  2.9000000000000D-01  7.6788657773399D-01 -1.1270203727183D+00
    31  3.0000000000000D-01  7.8939453706419D-01 -1.1421040589976D+00
    32  3.1000000000000D-01  8.1043080338521D-01 -1.1549075876300D+00
    33  3.2000000000000D-01  8.3098472893161D-01 -1.1653838264714D+00
    34  3.3000000000000D-01  8.5104605155415D-01 -1.1734895811076D+00
    35  3.4000000000000D-01  8.7060489291182D-01 -1.1791858329971D+00
    36  3.5000000000000D-01  8.8965175609406D-01 -1.1824379755529D+00
    37  3.6000000000000D-01  9.0817752274764D-01 -1.1832160466440D+00
    38  3.7000000000000D-01  9.2617344978559D-01 -1.1814949559605D+00
    39  3.8000000000000D-01  9.4363116575772D-01 -1.1772547056557D+00
    40  3.9000000000000D-01  9.6054266696381D-01 -1.1704806026677D+00
    41  4.0000000000000D-01  9.7690031339180D-01 -1.1611634611108D+00
    42  4.1000000000000D-01  9.9269682456365D-01 -1.1492997931366D+00
    43  4.2000000000000D-01  1.0079252753711D+00 -1.1348919866778D+00
    44  4.3000000000000D-01  1.0225790919832D+00 -1.1179484685135D+00
    45  4.4000000000000D-01  1.0366520479056D+00 -1.0984838511354D+00
    46  4.5000000000000D-01  1.0501382602695D+00 -1.0765190619401D+00
    47  4.6000000000000D-01  1.0630321864265D+00 -1.0520814533319D+00
    48  4.7000000000000D-01  1.0753286209200D+00 -1.0252048923921D+00
    49  4.8000000000000D-01  1.0870226929034D+00 -9.9592982884877D-01
    50  4.9000000000000D-01  1.0981098640667D+00 -9.6430334017137D-01
    51  5.0000000000000D-01  1.1085859271329D+00 -9.3037915271426D-01
    52  5.1000000000000D-01  1.1184470049755D+00 -8.9421763794028D-01
    53  5.2000000000000D-01  1.1276895504057D+00 -8.5588578287297D-01
    54  5.3000000000000D-01  1.1363103466711D+00 -8.1545713405009D-01
    55  5.4000000000000D-01  1.1443065086990D+00 -7.7301171438210D-01
    56  5.5000000000000D-01  1.1516754851125D+00 -7.2863591245778D-01
    57  5.6000000000000D-01  1.1584150610397D+00 -6.8242234398213D-01
    58  5.7000000000000D-01  1.1645233617273D+00 -6.3446968518017D-01
    59  5.8000000000000D-01  1.1699988569635D+00 -5.8488247815247D-01
    60  5.9000000000000D-01  1.1748403663075D+00 -5.3377090832365D-01
    61  6.0000000000000D-01  1.1790470651119D+00 -4.8125055428246D-01
    62  6.1000000000000D-01  1.1826184913194D+00 -4.2744211047084D-01
    63  6.2000000000000D-01  1.1855545530059D+00 -3.7247108333858D-01
    64  6.3000000000000D-01  1.1878555366322D+00 -3.1646746173799D-01
    65  6.4000000000000D-01  1.1895221159612D+00 -2.5956536249027D-01
    66  6.5000000000000D-01  1.1905553615883D+00 -2.0190265220898D-01
    67  6.6000000000000D-01  1.1909567510247D+00 -1.4362054661606D-01
    68  6.7000000000000D-01  1.1907281792662D+00 -8.4863188732549D-02
    69  6.8000000000000D-01  1.1898719697747D+00 -2.5777207465485D-02
    70  6.9000000000000D-01  1.1883908857898D+00  3.3488741752730D-02
    71  7.0000000000000D-01  1.1862881418848D+00  9.2784452490543D-02
    72  7.1000000000000D-01  1.1835674156735D+00  1.5195865710782D-01
    73  7.2000000000000D-01  1.1802328595708D+00  2.1085952880067D-01
    74  7.3000000000000D-01  1.1762891125039D+00  2.6933519379041D-01
    75  7.4000000000000D-01  1.1717413114676D+00  3.2723425145754D-01
    76  7.5000000000000D-01  1.1665951028140D+00  3.8440630014339D-01
    77  7.6000000000000D-01  1.1608566531649D+00  4.4070246627536D-01
    78  7.7000000000000D-01  1.1545326598306D+00  4.9597593441805D-01
    79  7.8000000000000D-01  1.1476303606209D+00  5.5008247581056D-01
    80  7.9000000000000D-01  1.1401575429314D+00  6.0288097292219D-01
    81  8.0000000000000D-01  1.1321225519897D+00  6.5423393754360D-01
    82  8.1000000000000D-01  1.1235342981453D+00  7.0400801992912D-01
    83  8.2000000000000D-01  1.1144022630918D+00  7.5207450651871D-01
    84  8.3000000000000D-01  1.1047365049104D+00  7.9830980379379D-01
    85  8.4000000000000D-01  1.0945476618259D+00  8.4259590586222D-01
    86  8.5000000000000D-01  1.0838469545755D+00  8.8482084342077D-01
    87  8.6000000000000D-01  1.0726461872899D+00  9.2487911181203D-01
    88  8.7000000000000D-01  1.0609577467942D+00  9.6267207597302D-01
    89  8.8000000000000D-01  1.0487946002451D+00  9.9810835016696D-01
    90  8.9000000000000D-01  1.0361702910224D+00  1.0311041504966D+00
    91  9.0000000000000D-01  1.0230989328048D+00  1.0615836183156D+00
    92  9.1000000000000D-01  1.0095952017680D+00  1.0894791127856D+00
    93  9.2000000000000D-01  9.9567432684846D-01  1.1147314709668D+00
    94  9.3000000000000D-01  9.8135207803016D-01  1.1372902339822D+00
    95  9.4000000000000D-01  9.6664475261847D-01  1.1571138379550D+00
    96  9.5000000000000D-01  9.5156915947629D-01  1.1741697685897D+00
    97  9.6000000000000D-01  9.3614260120884D-01  1.1884346784430D+00
    98  9.7000000000000D-01  9.2038285429357D-01  1.1998944661136D+00
    99  9.8000000000000D-01  9.0430814716336D-01  1.2085443167709D+00
   100  9.9000000000000D-01  8.8793713626240D-01  1.2143887036366D+00
   101  1.0000000000000D+00  8.7128888010537D-01  1.2174413502275D+00
   102  1.0100000000000D+00  8.5438281138241D-01  1.2177251533695D+00
   103  1.0200000000000D+00  8.3723870716348D-01  1.2152720671962D+00
   104  1.0300000000000D+00  8.1987665726732D-01  1.2101229485426D+00
   105  1.0400000000000D+00  8.0231703087142D-01  1.2023273643467D+00
   106  1.0500000000000D+00  7.8458044145017D-01  1.1919433618717D+00
   107  1.0600000000000D+00  7.6668771013935D-01  1.1790372027520D+00
   108  1.0700000000000D+00  7.4865982763493D-01  1.1636830620566D+00
   109  1.0800000000000D+00  7.3051791474465D-01  1.1459626937555D+00
   110  1.0900000000000D+00  7.1228318171972D-01  1.1259650641419D+00
   111  1.1000000000000D+00  6.9397688650320D-01  1.1037859549467D+00
   112  1.1100000000000D+00  6.7562029203913D-01  1.0795275380245D+00
   113  1.1200000000000D+00  6.5723462279466D-01  1.0532979236590D+00
   114  1.1300000000000D+00  6.3884102065407D-01  1.0252106846699D+00
   115  1.1400000000000D+00  6.2046050034943D-01  9.9538435863741D-01
   116  1.1500000000000D+00  6.0211390459774D-01  9.6394193066591D-01
   117  1.1600000000000D+00  5.8382185911888D-01  9.3101029922288D-01
   118  1.1700000000000D+00  5.6560472771237D-01  8.9671972768141D-01
   119  1.1800000000000D+00  5.4748256757304D-01  8.6120328426612D-01
   120  1.1900000000000D+00  5.2947508502726D-01  8.2459627315482D-01
   121  1.2000000000000D+00  5.1160159187257D-01  7.8703565955433D-01
   122  1.2100000000000D+00  4.9388096250259D-01  7.4865949158565D-01
   123  1.2200000000000D+00  4.7633159199734D-01  7.0960632182504D-01
   124  1.2300000000000D+00  4.5897135535862D-01  6.7001463136291D-01
   125  1.2400000000000D+00  4.4181756806458D-01  6.3002225921424D-01
   126  1.2500000000000D+00  4.2488694811298D-01  5.8976583986282D-01
   127  1.2600000000000D+00  4.0819557972179D-01  5.4938025172968D-01
   128  1.2700000000000D+00  3.9175887884409D-01  5.0899807923503D-01
   129  1.2800000000000D+00  3.7559156064724D-01  4.6874909102999D-01
   130  1.2900000000000D+00  3.5970760910678D-01  4.2875973699691D-01
   131  1.3000000000000D+00  3.4412024884530D-01  3.8915266636445D-01
   132  1.3100000000000D+00  3.2884191933991D-01  3.5004626919263D-01
   133  1.3200000000000D+00  3.1388425162315D-01  3.1155424350660D-01
   134  1.3300000000000D+00  2.9925804757182D-01  2.7378518995660D-01
   135  1.3400000000000D+00  2.8497326187834D-01  2.3684223587201D-01
   136  1.3500000000000D+00  2.7103898679376D-01  2.0082269051457D-01
   137  1.3600000000000D+00  2.5746343969572D-01  1.6581773282932D-01
   138  1.3700000000000D+00  2.4425395354724D-01  1.3191213316829D-01
   139  1.3800000000000D+00  2.3141697028764D-01  9.9184010119945D-02
   140  1.3900000000000D+00  2.1895803716679D-01  6.7704623130627D-02
   141  1.4000000000000D+00  2.0688180606351D-01  3.7538202043746D-02
   142  1.4100000000000D+00  1.9519203576055D-01  8.7418136804553D-03
   143  1.4200000000000D+00  1.8389159717366D-01 -1.8634734056110D-02
   144  1.4300000000000D+00  1.7298248151352D-01 -4.4548950332698D-02
   145  1.4400000000000D+00  1.6246581130950D-01 -6.8965682340442D-02
   146  1.4500000000000D+00  1.5234185427810D-01 -9.1857098771056D-02
   147  1.4600000000000D+00  1.4261003992638D-01 -1.1320263694536D-01
   148  1.4700000000000D+00  1.3326897883186D-01 -1.3298891395332D-01
   149  1.4800000000000D+00  1.2431648449710D-01 -1.5120960281204D-01
   150  1.4900000000000D+00  1.1574959765429D-01 -1.6786527503208D-01
   151  1.5000000000000D+00  1.0756461293258D-01 -1.8296321036894D-01
   152  1.5100000000000D+00  9.9757107711992D-02 -1.9651717597038D-01
   153  1.5200000000000D+00  9.2321973068985D-02 -2.0854717581562D-01
   154  1.5300000000000D+00  8.5253446620693D-02 -2.1907917293379D-01
   155  1.5400000000000D+00  7.8545147137486D-02 -2.2814478587381D-01
   156  1.5500000000000D+00  7.2190110738549D-02 -2.3578096179086D-01
   157  1.5600000000000D+00  6.6180828500903D-02 -2.4202962828514D-01
   158  1.5700000000000D+00  6.0509285304008D-02 -2.4693732622430D-01
   159  1.5800000000000D+00  5.5166999714651D-02 -2.5055482616012D-01
   160  1.5900000000000D+00  5.0145064733678D-02 -2.5293673055239D-01
   161  1.6000000000000D+00  4.5434189200831D-02 -2.5414106463144D-01
   162  1.6100000000000D+00  4.1024739669339D-02 -2.5422885823840D-01
   163  1.6200000000000D+00  3.6906782555127D-02 -2.5326372142687D-01
   164  1.6300000000000D+00  3.3070126356182D-02 -2.5131141641205D-01
   165  1.6400000000000D+00  2.9504363766406D-02 -2.4843942840562D-01
   166  1.6500000000000D+00  2.6198913465623D-02 -2.4471653816986D-01
   167  1.6600000000000D+00  2.3143061432812D-02 -2.4021239851123D-01
   168  1.6700000000000D+00  2.0326001556399D-02 -2.3499711771278D-01
   169  1.6800000000000D+00  1.7736875414367D-02 -2.2914085176362D-01
   170  1.6900000000000D+00  1.5364810993917D-02 -2.2271340848843D-01
   171  1.7000000000000D+00  1.3198960255154D-02 -2.1578386498889D-01
   172  1.7100000000000D+00  1.1228535303683D-02 -2.0842020160447D-01
   173  1.7200000000000D+00  9.4428431187380D-03 -2.0068895321045D-01
   174  1.7300000000000D+00  7.8313185906574D-03 -1.9265488124568D-01
   175  1.7400000000000D+00  6.3835558717044D-03 -1.8438066647456D-01
   176  1.7500000000000D+00  5.0893377710737D-03 -1.7592662622672D-01
   177  1.7600000000000D+00  3.9386632750750D-03 -1.6735045501908D-01
   178  1.7700000000000D+00  2.9217728837209D-03 -1.5870699289294D-01
   179  1.7800000000000D+00  2.0291719423429D-03 -1.5004801896550D-01
   180  1.7900000000000D+00  1.2516516112756D-03 -1.4142207524583D-01
   181  1.8000000000000D+00  5.8030773898810D-04 -1.3287431695006D-01
   182  1.8100000000000D+00  6.5572777272850D-06 -1.2444639445888D-01
   183  1.8200000000000D+00 -4.7784747281391D-04 -1.1617636283108D-01
   184  1.8300000000000D+00 -8.8080708235396D-04 -1.0809862301131D-01
   185  1.8400000000000D+00 -1.2098654332596D-03 -1.0024389135746D-01
   186  1.8500000000000D+00 -1.4722025454082D-03 -9.2639199727536D-02
   187  1.8600000000000D+00 -1.6746296521066D-03 -8.5307924232017D-02
   188  1.8700000000000D+00 -1.8235865056066D-03 -7.8269842344072D-02
   189  1.8800000000000D+00 -1.9251409230728D-03 -7.1541218521475D-02
   190  1.8900000000000D+00 -1.9849903513567D-03 -6.5134915122501D-02
   191  1.9000000000000D+00 -2.0084656122764D-03 -5.9060530971504D-02
   192  1.9100000000000D+00 -2.0005364297402D-03 -5.3324561767385D-02
   193  1.9200000000000D+00 -1.9658189813494D-03 -4.7930585882664D-02
   194  1.9300000000000D+00 -1.9085850508751D-03 -4.2879469371736D-02
   195  1.9400000000000D+00 -1.8327730261696D-03 -3.8169594381589D-02
   196  1.9500000000000D+00 -1.7419998460132D-03 -3.3797094804922D-02
   197  1.9600000000000D+00 -1.6395749273769D-03 -2.9756119547703D-02
   198  1.9700000000000D+00 -1.5285170586281D-03 -2.6039142708874D-02
   199  1.9800000000000D+00 -1.4115625346703D-03 -2.2637099144680D-02
   200  1.9900000000000D+00 -1.2911891590563D-03 -1.9539807408604D-02
   201  2.0000000000000D+00 -1.1696487865875D-03 -1.6736564880425D-02
   202  2.0100000000000D+00 -1.0489611844959D-03 -1.4215977188992D-02
   203  2.0200000000000D+00 -9.3090878104144D-04 -1.1965795225719D-02
   204  2.0300000000000D+00 -8.1703431589094D-04 -9.9728151894966D-03
   205  2.0400000000000D+00 -7.0864322603619D-04 -8.2229050568939D-03
   206  2.0500000000000D+00 -6.0678077368354D-04 -6.7005252388177D-03
   207  2.0600000000000D+00 -5.1226406494750D-04 -5.3893109507112D-03
   208  2.0700000000000D+00 -4.2569952525149D-04 -4.2723811298932D-03
   209  2.0800000000000D+00 -3.4749838087581D-04 -3.3325977874893D-03
   210  2.0900000000000D+00 -2.7788640438480D-04 -2.5527042561183D-03
   211  2.1000000000000D+00 -2.1692053889003D-04 -1.9156004507634D-03
   212  2.1100000000000D+00 -1.6450002191830D-04 -1.4045084648733D-03
   213  2.1200000000000D+00 -1.2037857753903D-04 -1.0031566143157D-03
   214  2.1300000000000D+00 -8.4174505780205D-05 -6.9593811507819D-04
   215  2.1400000000000D+00 -5.5367137902121D-05 -4.6810642878717D-04
   216  2.1500000000000D+00 -3.3368827697256D-05 -3.0559557321643D-04
   217  2.1600000000000D+00 -1.7479704455683D-05 -1.9507986004637D-04
   218  2.1700000000000D+00 -6.8061904368817D-06 -1.2529542804265D-04
   219  2.1800000000000D+00 -2.9352998909573D-07 -8.6815311556500D-05
   220  2.1900000000000D+00  3.1570858759600D-06 -7.2223972418879D-05
   221  2.2000000000000D+00  4.2731189086457D-06 -6.5961030784194D-05
   222  2.2100000000000D+00  3.6995846779892D-06 -5.4498637346848D-05
   223  2.2200000000000D+00  2.1047944366325D-06 -3.1348761459197D-05
   224  2.2300000000000D+00  4.7706988117024D-07 -7.3706689495121D-06
   225  2.2400000000000D+00 -3.6532057542022D-07  5.0432435331038D-06
   226  2.2500000000000D+00 -3.8546753785086D-07  5.3334502046862D-06
   227  2.2600000000000D+00 -2.2913545293814D-08  3.1842189826865D-07
   228  2.2700000000000D+00  1.0039705811934D-07 -1.2776452494328D-06
   229  2.2800000000000D+00  7.7223901142967D-08 -9.7581475459731D-07
   230  2.2900000000000D+00 -3.4677437432303D-09  5.1464710487654D-08
   231  2.3000000000000D+00 -1.1351444895434D-08  1.6846655013092D-07
   232  2.3100000000000D+00 -5.9771360950346D-09  8.8706548538017D-08
   233  2.3200000000000D+00  0.0000000000000D+00  0.0000000000000D+00
   234  2.3300000000000D+00  0.0000000000000D+00  0.0000000000000D+00
   235  2.3400000000000D+00  0.0000000000000D+00  0.0000000000000D+00
   236  2.3500000000000D+00  0.0000000000000D+00  0.0000000000000D+00
   237  2.3600000000000D+00  0.0000000000000D+00  0.0000000000000D+00
   238  2.3700000000000D+00  0.0000000000000D+00  0.0000000000000D+00
   239  2.3800000000000D+00  0.0000000000000D+00  0.0000000000000D+00
   240  2.3900000000000D+00  0.0000000000000D+00  0.0000000000000D+00
   241  2.4000000000000D+00  0.0000000000000D+00  0.0000000000000D+00
   242  2.4100000000000D+00  0.0000000000000D+00  0.0000000000000D+00
   243  2.4200000000000D+00  0.0000000000000D+00  0.0000000000000D+00
   244  2.4300000000000D+00  0.0000000000000D+00  0.0000000000000D+00
   245  2.4400000000000D+00  0.0000000000000D+00  0.0000000000000D+00
   246  2.4500000000000D+00  0.0000000000000D+00  0.0000000000000D+00
   247  2.4600000000000D+00  0.0000000000000D+00  0.0000000000000D+00
   248  2.4700000000000D+00  0.0000000000000D+00  0.0000000000000D+00
   249  2.4800000000000D+00  0.0000000000000D+00  0.0000000000000D+00
   250  2.4900000000000D+00  0.0000000000000D+00  0.0000000000000D+00
   251  2.5000000000000D+00  0.0000000000000D+00  0.0000000000000D+00
   252  2.5100000000000D+00  0.0000000000000D+00  0.0000000000000D+00
   253  2.5200000000000D+00  0.0000000000000D+00  0.0000000000000D+00
   254  2.5300000000000D+00  0.0000000000000D+00  0.0000000000000D+00
   255  2.5400000000000D+00  0.0000000000000D+00  0.0000000000000D+00
   256  2.5500000000000D+00  0.0000000000000D+00  0.0000000000000D+00
   257  2.5600000000000D+00  0.0000000000000D+00  0.0000000000000D+00
   258  2.5700000000000D+00  0.0000000000000D+00  0.0000000000000D+00
   259  2.5800000000000D+00  0.0000000000000D+00  0.0000000000000D+00
   260  2.5900000000000D+00  0.0000000000000D+00  0.0000000000000D+00
   261  2.6000000000000D+00  0.0000000000000D+00  0.0000000000000D+00
   262  2.6100000000000D+00  0.0000000000000D+00  0.0000000000000D+00
   263  2.6200000000000D+00  0.0000000000000D+00  0.0000000000000D+00
   264  2.6300000000000D+00  0.0000000000000D+00  0.0000000000000D+00
   265  2.6400000000000D+00  0.0000000000000D+00  0.0000000000000D+00
   266  2.6500000000000D+00  0.0000000000000D+00  0.0000000000000D+00
   267  2.6600000000000D+00  0.0000000000000D+00  0.0000000000000D+00
   268  2.6700000000000D+00  0.0000000000000D+00  0.0000000000000D+00
   269  2.6800000000000D+00  0.0000000000000D+00  0.0000000000000D+00
   270  2.6900000000000D+00  0.0000000000000D+00  0.0000000000000D+00
   271  2.7000000000000D+00  0.0000000000000D+00  0.0000000000000D+00
   272  2.7100000000000D+00  0.0000000000000D+00  0.0000000000000D+00
   273  2.7200000000000D+00  0.0000000000000D+00  0.0000000000000D+00
   274  2.7300000000000D+00  0.0000000000000D+00  0.0000000000000D+00
   275  2.7400000000000D+00  0.0000000000000D+00  0.0000000000000D+00
   276  2.7500000000000D+00  0.0000000000000D+00  0.0000000000000D+00
   277  2.7600000000000D+00  0.0000000000000D+00  0.0000000000000D+00
   278  2.7700000000000D+00  0.0000000000000D+00  0.0000000000000D+00
   279  2.7800000000000D+00  0.0000000000000D+00  0.0000000000000D+00
   280  2.7900000000000D+00  0.0000000000000D+00  0.0000000000000D+00
   281  2.8000000000000D+00  0.0000000000000D+00  0.0000000000000D+00
   282  2.8100000000000D+00  0.0000000000000D+00  0.0000000000000D+00
   283  2.8200000000000D+00  0.0000000000000D+00  0.0000000000000D+00
   284  2.8300000000000D+00  0.0000000000000D+00  0.0000000000000D+00
   285  2.8400000000000D+00  0.0000000000000D+00  0.0000000000000D+00
   286  2.8500000000000D+00  0.0000000000000D+00  0.0000000000000D+00
   287  2.8600000000000D+00  0.0000000000000D+00  0.0000000000000D+00
   288  2.8700000000000D+00  0.0000000000000D+00  0.0000000000000D+00
   289  2.8800000000000D+00  0.0000000000000D+00  0.0000000000000D+00
   290  2.8900000000000D+00  0.0000000000000D+00  0.0000000000000D+00
   291  2.9000000000000D+00  0.0000000000000D+00  0.0000000000000D+00
   292  2.9100000000000D+00  0.0000000000000D+00  0.0000000000000D+00
   293  2.9200000000000D+00  0.0000000000000D+00  0.0000000000000D+00
   294  2.9300000000000D+00  0.0000000000000D+00  0.0000000000000D+00
   295  2.9400000000000D+00  0.0000000000000D+00  0.0000000000000D+00
   296  2.9500000000000D+00  0.0000000000000D+00  0.0000000000000D+00
   297  2.9600000000000D+00  0.0000000000000D+00  0.0000000000000D+00
   298  2.9700000000000D+00  0.0000000000000D+00  0.0000000000000D+00
   299  2.9800000000000D+00  0.0000000000000D+00  0.0000000000000D+00
   300  2.9900000000000D+00  0.0000000000000D+00  0.0000000000000D+00
   301  3.0000000000000D+00  0.0000000000000D+00  0.0000000000000D+00
   302  3.0100000000000D+00  0.0000000000000D+00  0.0000000000000D+00
   303  3.0200000000000D+00  0.0000000000000D+00  0.0000000000000D+00
   304  3.0300000000000D+00  0.0000000000000D+00  0.0000000000000D+00
   305  3.0400000000000D+00  0.0000000000000D+00  0.0000000000000D+00
   306  3.0500000000000D+00  0.0000000000000D+00  0.0000000000000D+00
   307  3.0600000000000D+00  0.0000000000000D+00  0.0000000000000D+00
   308  3.0700000000000D+00  0.0000000000000D+00  0.0000000000000D+00
   309  3.0800000000000D+00  0.0000000000000D+00  0.0000000000000D+00
   310  3.0900000000000D+00  0.0000000000000D+00  0.0000000000000D+00
   311  3.1000000000000D+00  0.0000000000000D+00  0.0000000000000D+00
   312  3.1100000000000D+00  0.0000000000000D+00  0.0000000000000D+00
   313  3.1200000000000D+00  0.0000000000000D+00  0.0000000000000D+00
   314  3.1300000000000D+00  0.0000000000000D+00  0.0000000000000D+00
   315  3.1400000000000D+00  0.0000000000000D+00  0.0000000000000D+00
   316  3.1500000000000D+00  0.0000000000000D+00  0.0000000000000D+00
   317  3.1600000000000D+00  0.0000000000000D+00  0.0000000000000D+00
   318  3.1700000000000D+00  0.0000000000000D+00  0.0000000000000D+00
   319  3.1800000000000D+00  0.0000000000000D+00  0.0000000000000D+00
   320  3.1900000000000D+00  0.0000000000000D+00  0.0000000000000D+00
   321  3.2000000000000D+00  0.0000000000000D+00  0.0000000000000D+00
   322  3.2100000000000D+00  0.0000000000000D+00  0.0000000000000D+00
   323  3.2200000000000D+00  0.0000000000000D+00  0.0000000000000D+00
   324  3.2300000000000D+00  0.0000000000000D+00  0.0000000000000D+00
   325  3.2400000000000D+00  0.0000000000000D+00  0.0000000000000D+00
   326  3.2500000000000D+00  0.0000000000000D+00  0.0000000000000D+00
   327  3.2600000000000D+00  0.0000000000000D+00  0.0000000000000D+00
   328  3.2700000000000D+00  0.0000000000000D+00  0.0000000000000D+00
   329  3.2800000000000D+00  0.0000000000000D+00  0.0000000000000D+00
   330  3.2900000000000D+00  0.0000000000000D+00  0.0000000000000D+00
   331  3.3000000000000D+00  0.0000000000000D+00  0.0000000000000D+00
   332  3.3100000000000D+00  0.0000000000000D+00  0.0000000000000D+00
   333  3.3200000000000D+00  0.0000000000000D+00  0.0000000000000D+00
   334  3.3300000000000D+00  0.0000000000000D+00  0.0000000000000D+00
   335  3.3400000000000D+00  0.0000000000000D+00  0.0000000000000D+00
   336  3.3500000000000D+00  0.0000000000000D+00  0.0000000000000D+00
   337  3.3600000000000D+00  0.0000000000000D+00  0.0000000000000D+00
   338  3.3700000000000D+00  0.0000000000000D+00  0.0000000000000D+00
   339  3.3800000000000D+00  0.0000000000000D+00  0.0000000000000D+00
   340  3.3900000000000D+00  0.0000000000000D+00  0.0000000000000D+00
   341  3.4000000000000D+00  0.0000000000000D+00  0.0000000000000D+00
   342  3.4100000000000D+00  0.0000000000000D+00  0.0000000000000D+00
   343  3.4200000000000D+00  0.0000000000000D+00  0.0000000000000D+00
   344  3.4300000000000D+00  0.0000000000000D+00  0.0000000000000D+00
   345  3.4400000000000D+00  0.0000000000000D+00  0.0000000000000D+00
   346  3.4500000000000D+00  0.0000000000000D+00  0.0000000000000D+00
   347  3.4600000000000D+00  0.0000000000000D+00  0.0000000000000D+00
   348  3.4700000000000D+00  0.0000000000000D+00  0.0000000000000D+00
   349  3.4800000000000D+00  0.0000000000000D+00  0.0000000000000D+00
   350  3.4900000000000D+00  0.0000000000000D+00  0.0000000000000D+00
   351  3.5000000000000D+00  0.0000000000000D+00  0.0000000000000D+00
   352  3.5100000000000D+00  0.0000000000000D+00  0.0000000000000D+00
   353  3.5200000000000D+00  0.0000000000000D+00  0.0000000000000D+00
   354  3.5300000000000D+00  0.0000000000000D+00  0.0000000000000D+00
   355  3.5400000000000D+00  0.0000000000000D+00  0.0000000000000D+00
   356  3.5500000000000D+00  0.0000000000000D+00  0.0000000000000D+00
   357  3.5600000000000D+00  0.0000000000000D+00  0.0000000000000D+00
   358  3.5700000000000D+00  0.0000000000000D+00  0.0000000000000D+00
   359  3.5800000000000D+00  0.0000000000000D+00  0.0000000000000D+00
   360  3.5900000000000D+00  0.0000000000000D+00  0.0000000000000D+00
   361  3.6000000000000D+00  0.0000000000000D+00  0.0000000000000D+00
   362  3.6100000000000D+00  0.0000000000000D+00  0.0000000000000D+00
   363  3.6200000000000D+00  0.0000000000000D+00  0.0000000000000D+00
   364  3.6300000000000D+00  0.0000000000000D+00  0.0000000000000D+00
   365  3.6400000000000D+00  0.0000000000000D+00  0.0000000000000D+00
   366  3.6500000000000D+00  0.0000000000000D+00  0.0000000000000D+00
   367  3.6600000000000D+00  0.0000000000000D+00  0.0000000000000D+00
   368  3.6700000000000D+00  0.0000000000000D+00  0.0000000000000D+00
   369  3.6800000000000D+00  0.0000000000000D+00  0.0000000000000D+00
   370  3.6900000000000D+00  0.0000000000000D+00  0.0000000000000D+00
   371  3.7000000000000D+00  0.0000000000000D+00  0.0000000000000D+00
   372  3.7100000000000D+00  0.0000000000000D+00  0.0000000000000D+00
   373  3.7200000000000D+00  0.0000000000000D+00  0.0000000000000D+00
   374  3.7300000000000D+00  0.0000000000000D+00  0.0000000000000D+00
   375  3.7400000000000D+00  0.0000000000000D+00  0.0000000000000D+00
   376  3.7500000000000D+00  0.0000000000000D+00  0.0000000000000D+00
   377  3.7600000000000D+00  0.0000000000000D+00  0.0000000000000D+00
   378  3.7700000000000D+00  0.0000000000000D+00  0.0000000000000D+00
   379  3.7800000000000D+00  0.0000000000000D+00  0.0000000000000D+00
   380  3.7900000000000D+00  0.0000000000000D+00  0.0000000000000D+00
   381  3.8000000000000D+00  0.0000000000000D+00  0.0000000000000D+00
   382  3.8100000000000D+00  0.0000000000000D+00  0.0000000000000D+00
   383  3.8200000000000D+00  0.0000000000000D+00  0.0000000000000D+00
   384  3.8300000000000D+00  0.0000000000000D+00  0.0000000000000D+00
   385  3.8400000000000D+00  0.0000000000000D+00  0.0000000000000D+00
   386  3.8500000000000D+00  0.0000000000000D+00  0.0000000000000D+00
   387  3.8600000000000D+00  0.0000000000000D+00  0.0000000000000D+00
   388  3.8700000000000D+00  0.0000000000000D+00  0.0000000000000D+00
   389  3.8800000000000D+00  0.0000000000000D+00  0.0000000000000D+00
   390  3.8900000000000D+00  0.0000000000000D+00  0.0000000000000D+00
   391  3.9000000000000D+00  0.0000000000000D+00  0.0000000000000D+00
   392  3.9100000000000D+00  0.0000000000000D+00  0.0000000000000D+00
   393  3.9200000000000D+00  0.0000000000000D+00  0.0000000000000D+00
   394  3.9300000000000D+00  0.0000000000000D+00  0.0000000000000D+00
   395  3.9400000000000D+00  0.0000000000000D+00  0.0000000000000D+00
   396  3.9500000000000D+00  0.0000000000000D+00  0.0000000000000D+00
   397  3.9600000000000D+00  0.0000000000000D+00  0.0000000000000D+00
   398  3.9700000000000D+00  0.0000000000000D+00  0.0000000000000D+00
   399  3.9800000000000D+00  0.0000000000000D+00  0.0000000000000D+00
   400  3.9900000000000D+00  0.0000000000000D+00  0.0000000000000D+00
   401  4.0000000000000D+00  0.0000000000000D+00  0.0000000000000D+00
   402  4.0100000000000D+00  0.0000000000000D+00  0.0000000000000D+00
   403  4.0200000000000D+00  0.0000000000000D+00  0.0000000000000D+00
   404  4.0300000000000D+00  0.0000000000000D+00  0.0000000000000D+00
   405  4.0400000000000D+00  0.0000000000000D+00  0.0000000000000D+00
   406  4.0500000000000D+00  0.0000000000000D+00  0.0000000000000D+00
   407  4.0600000000000D+00  0.0000000000000D+00  0.0000000000000D+00
   408  4.0700000000000D+00  0.0000000000000D+00  0.0000000000000D+00
   409  4.0800000000000D+00  0.0000000000000D+00  0.0000000000000D+00
   410  4.0900000000000D+00  0.0000000000000D+00  0.0000000000000D+00
   411  4.1000000000000D+00  0.0000000000000D+00  0.0000000000000D+00
   412  4.1100000000000D+00  0.0000000000000D+00  0.0000000000000D+00
   413  4.1200000000000D+00  0.0000000000000D+00  0.0000000000000D+00
   414  4.1300000000000D+00  0.0000000000000D+00  0.0000000000000D+00
   415  4.1400000000000D+00  0.0000000000000D+00  0.0000000000000D+00
   416  4.1500000000000D+00  0.0000000000000D+00  0.0000000000000D+00
   417  4.1600000000000D+00  0.0000000000000D+00  0.0000000000000D+00
   418  4.1700000000000D+00  0.0000000000000D+00  0.0000000000000D+00
   419  4.1800000000000D+00  0.0000000000000D+00  0.0000000000000D+00
   420  4.1900000000000D+00  0.0000000000000D+00  0.0000000000000D+00
   421  4.2000000000000D+00  0.0000000000000D+00  0.0000000000000D+00
   422  4.2100000000000D+00  0.0000000000000D+00  0.0000000000000D+00