Fe    ONCVPSP-3.3.1  r_core=   2.08667   2.13706   2.06193
     26.0000     16.0000      210904    zatom,zion,pspd
     8      11   2     4   600     0    pspcod,pspxc,lmax,lloc,mmax,r2well
  5.99000000  0.00000000  0.00000000    rchrg fchrg qchrg
     2     2     2     0    nproj
     3     1           extension_switch
     3     3     0    nprojso
   0                        -7.4521367193248D+01 -2.3344997472551D+00
     1  0.0000000000000D+00  6.5862371112502D-11 -8.6659013298629D-12
     2  1.0000000000000D-02  5.8452087132019D-02  3.1230624125208D-02
     3  2.0000000000000D-02  1.1678265933056D-01  6.2439538371633D-02
     4  3.0000000000000D-02  1.7487029169100D-01  9.3605071781260D-02
     5  4.0000000000000D-02  2.3259374087494D-01  1.2470563097200D-01
     6  5.0000000000000D-02  2.8983203964761D-01  1.5571973826382D-01
     7  6.0000000000000D-02  3.4646459587351D-01  1.8662606901690D-01
     8  7.0000000000000D-02  4.0237129737835D-01  2.1740348792933D-01
     9  8.0000000000000D-02  4.5743262401935D-01  2.4803108405060D-01
    10  9.0000000000000D-02  5.1152976822458D-01  2.7848820427790D-01
    11  1.0000000000000D-01  5.6454476516545D-01  3.0875448511477D-01
    12  1.1000000000000D-01  6.1636063361615D-01  3.3880988248643D-01
    13  1.2000000000000D-01  6.6686152843034D-01  3.6863469942212D-01
    14  1.3000000000000D-01  7.1593290542915D-01  3.9820961143296D-01
    15  1.4000000000000D-01  7.6346169934825D-01  4.2751568943313D-01
    16  1.5000000000000D-01  8.0933651533454D-01  4.5653442007288D-01
    17  1.6000000000000D-01  8.5344783431774D-01  4.8524772337397D-01
    18  1.7000000000000D-01  8.9568823240971D-01  5.1363796758093D-01
    19  1.8000000000000D-01  9.3595261430555D-01  5.4168798116527D-01
    20  1.9000000000000D-01  9.7413846047821D-01  5.6938106194444D-01
    21  2.0000000000000D-01  1.0101460877719D+00  5.9670098330186D-01
    22  2.1000000000000D-01  1.0438789228138D+00  6.2363199751970D-01
    23  2.2000000000000D-01  1.0752437874759D+00  6.5015883626115D-01
    24  2.3000000000000D-01  1.1041511954346D+00  6.7626670826416D-01
    25  2.4000000000000D-01  1.1305156586948D+00  7.0194129433296D-01
    26  2.5000000000000D-01  1.1542560027682D+00  7.2716873973822D-01
    27  2.6000000000000D-01  1.1752956890270D+00  7.5193564415989D-01
    28  2.7000000000000D-01  1.1935631425913D+00  7.7622904932939D-01
    29  2.8000000000000D-01  1.2089920839598D+00  8.0003642454907D-01
    30  2.9000000000000D-01  1.2215218624469D+00  8.2334565028718D-01
    31  3.0000000000000D-01  1.2310977893688D+00  8.4614500006489D-01
    32  3.1000000000000D-01  1.2376714687977D+00  8.6842312086933D-01
    33  3.2000000000000D-01  1.2412011236108D+00  8.9016901234152D-01
    34  3.3000000000000D-01  1.2416519144714D+00  9.1137200500153D-01
    35  3.4000000000000D-01  1.2389962493134D+00  9.3202173778466D-01
    36  3.5000000000000D-01  1.2332140808537D+00  9.5210813517133D-01
    37  3.6000000000000D-01  1.2242931896198D+00  9.7162138420057D-01
    38  3.7000000000000D-01  1.2122294499740D+00  9.9055191166146D-01
    39  3.8000000000000D-01  1.1970270766172D+00  1.0088903617593D+00
    40  3.9000000000000D-01  1.1786988490865D+00  1.0266275745528D+00
    41  4.0000000000000D-01  1.1572663118048D+00  1.0437545654568D+00
    42  4.1000000000000D-01  1.1327599473076D+00  1.0602625060985D+00
    43  4.2000000000000D-01  1.1052193203622D+00  1.0761427068094D+00
    44  4.3000000000000D-01  1.0746931907948D+00  1.0913866010243D+00
    45  4.4000000000000D-01  1.0412395929729D+00  1.1059857318465D+00
    46  4.5000000000000D-01  1.0049258800290D+00  1.1199317410236D+00
    47  4.6000000000000D-01  9.6582873107847D-01  1.1332163605622D+00
    48  4.7000000000000D-01  9.2403411985911D-01  1.1458314071909D+00
    49  4.8000000000000D-01  8.7963724341844D-01  1.1577687798587D+00
    50  4.9000000000000D-01  8.3274240968368D-01  1.1690204604346D+00
    51  5.0000000000000D-01  7.8346288297324D-01  1.1795785177499D+00
    52  5.1000000000000D-01  7.3192068674538D-01  1.1894351150970D+00
    53  5.2000000000000D-01  6.7824636312717D-01  1.1985825212720D+00
    54  5.3000000000000D-01  6.2257868902328D-01  1.2070131252213D+00
    55  5.4000000000000D-01  5.6506434886875D-01  1.2147194543193D+00
    56  5.5000000000000D-01  5.0585756436134D-01  1.2216941962772D+00
    57  5.6000000000000D-01  4.4511968178222D-01  1.2279302246497D+00
    58  5.7000000000000D-01  3.8301871779303D-01  1.2334206278770D+00
    59  5.8000000000000D-01  3.1972886487346D-01  1.2381587417657D+00
    60  5.9000000000000D-01  2.5542995784077D-01  1.2421381852827D+00
    61  6.0000000000000D-01  1.9030690316551D-01  1.2453528995045D+00
    62  6.1000000000000D-01  1.2454907306531D-01  1.2477971895343D+00
    63  6.2000000000000D-01  5.8349666619226D-02  1.2494657691682D+00
    64  6.3000000000000D-01 -8.0949596032354D-03  1.2503538080658D+00
    65  6.4000000000000D-01 -7.4585988664270D-02  1.2504569811506D+00
    66  6.5000000000000D-01 -1.4092286516899D-01  1.2497715199413D+00
    67  6.6000000000000D-01 -2.0690403879032D-01  1.2482942654911D+00
    68  6.7000000000000D-01 -2.7232772603588D-01  1.2460227225878D+00
    69  6.8000000000000D-01 -3.3699268670576D-01  1.2429551148514D+00
    70  6.9000000000000D-01 -4.0069901133005D-01  1.2390904403434D+00
    71  7.0000000000000D-01 -4.6324891573628D-01  1.2344285272897D+00
    72  7.1000000000000D-01 -5.2444753878009D-01  1.2289700895058D+00
    73  7.2000000000000D-01 -5.8410373917702D-01  1.2227167811007D+00
    74  7.3000000000000D-01 -6.4203088730466D-01  1.2156712500322D+00
    75  7.4000000000000D-01 -6.9804764779810D-01  1.2078371900787D+00
    76  7.5000000000000D-01 -7.5197874874188D-01  1.1992193907930D+00
    77  7.6000000000000D-01 -8.0365573326819D-01  1.1898237850042D+00
    78  7.7000000000000D-01 -8.5291768940281D-01  1.1796574934406D+00
    79  7.8000000000000D-01 -8.9961195405965D-01  1.1687288660513D+00
    80  7.9000000000000D-01 -9.4359478716967D-01  1.1570475196182D+00
    81  8.0000000000000D-01 -9.8473201204154D-01  1.1446243712623D+00
    82  8.1000000000000D-01 -1.0228996181886D+00  1.1314716674657D+00
    83  8.2000000000000D-01 -1.0579843230193D+00  1.1176030082517D+00
    84  8.3000000000000D-01 -1.0898840889751D+00  1.1030333661864D+00
    85  8.4000000000000D-01 -1.1185085929105D+00  1.0877790998923D+00
    86  8.5000000000000D-01 -1.1437796447435D+00  1.0718579617928D+00
    87  8.6000000000000D-01 -1.1656315526576D+00  1.0552890998350D+00
    88  8.7000000000000D-01 -1.1840114324131D+00  1.0380930529742D+00
    89  8.8000000000000D-01 -1.1988794586154D+00  1.0202917402353D+00
    90  8.9000000000000D-01 -1.2102090560987D+00  1.0019084432064D+00
    91  9.0000000000000D-01 -1.2179870299071D+00  9.8296778185436D-01
    92  9.1000000000000D-01 -1.2222136326909D+00  9.6349568359618D-01
    93  9.2000000000000D-01 -1.2229025686855D+00  9.4351934559765D-01
    94  9.3000000000000D-01 -1.2200809337925D+00  9.2306719031448D-01
    95  9.4000000000000D-01 -1.2137890916505D+00  9.0216881433259D-01
    96  9.5000000000000D-01 -1.2040804859450D+00  8.8085493060763D-01
    97  9.6000000000000D-01 -1.1910213895765D+00  8.5915730424594D-01
    98  9.7000000000000D-01 -1.1746905916793D+00  8.3710868201267D-01
    99  9.8000000000000D-01 -1.1551790238362D+00  8.1474271579334D-01
   100  9.9000000000000D-01 -1.1325893272074D+00  7.9209388027753D-01
   101  1.0000000000000D+00 -1.1070353626356D+00  7.6919738517305D-01
   102  1.0100000000000D+00 -1.0786416661347D+00  7.4608908229717D-01
   103  1.0200000000000D+00 -1.0475428524966D+00  7.2280536792895D-01
   104  1.0300000000000D+00 -1.0138829700677D+00  6.9938308084126D-01
   105  1.0400000000000D+00 -9.7781481004987D-01  6.7585939646487D-01
   106  1.0500000000000D+00 -9.3949917394116D-01  6.5227171766488D-01
   107  1.0600000000000D+00 -8.9910410301803D-01  6.2865756264071D-01
   108  1.0700000000000D+00 -8.5680407397707D-01  6.0505445048325D-01
   109  1.0800000000000D+00 -8.1277916507234D-01  5.8149978494514D-01
   110  1.0900000000000D+00 -7.6721419727729D-01  5.5803073699910D-01
   111  1.1000000000000D+00 -7.2029785513911D-01  5.3468412677234D-01
   112  1.1100000000000D+00 -6.7222179215342D-01  5.1149630545922D-01
   113  1.1200000000000D+00 -6.2317972556722D-01  4.8850303782005D-01
   114  1.1300000000000D+00 -5.7336652559648D-01  4.6573938587808D-01
   115  1.1400000000000D+00 -5.2297730408213D-01  4.4323959442738D-01
   116  1.1500000000000D+00 -4.7220650762634D-01  4.2103697896097D-01
   117  1.1600000000000D+00 -4.2124702022301D-01  3.9916381662020D-01
   118  1.1700000000000D+00 -3.7028928032774D-01  3.7765124075304D-01
   119  1.1800000000000D+00 -3.1952041726471D-01  3.5652913965920D-01
   120  1.1900000000000D+00 -2.6912341172206D-01  3.3582606007577D-01
   121  1.2000000000000D+00 -2.1927628494351D-01  3.1556911593523D-01
   122  1.2100000000000D+00 -1.7015132104017D-01  2.9578390290052D-01
   123  1.2200000000000D+00 -1.2191432671173D-01  2.7649441916121D-01
   124  1.2300000000000D+00 -7.4723932339165D-02  2.5772299292876D-01
   125  1.2400000000000D+00 -2.8730938139546D-02  2.3949021703136D-01
   126  1.2500000000000D+00  1.5922290997537D-02  2.2181489099822D-01
   127  1.2600000000000D+00  5.9102378946665D-02  2.0471397094502D-01
   128  1.2700000000000D+00  1.0068543726883D-01  1.8820252753805D-01
   129  1.2800000000000D+00  1.4055750692919D-01  1.7229371230103D-01
   130  1.2900000000000D+00  1.7861494080395D-01  1.5699873243759D-01
   131  1.3000000000000D+00  2.1476472531529D-01  1.4232683429787D-01
   132  1.3100000000000D+00  2.4892473950333D-01  1.2828529562085D-01
   133  1.3200000000000D+00  2.8102395078867D-01  1.1487942656110D-01
   134  1.3300000000000D+00  3.1100254690590D-01  1.0211257948030D-01
   135  1.3400000000000D+00  3.3881200341992D-01  8.9986167491720D-02
   136  1.3500000000000D+00  3.6441508748818D-01  7.8499691586125D-02
   137  1.3600000000000D+00  3.8778579829268D-01  6.7650776198896D-02
   138  1.3700000000000D+00  4.0890924495478D-01  5.7435213027619D-02
   139  1.3800000000000D+00  4.2778146381500D-01  4.7847012776239D-02
   140  1.3900000000000D+00  4.4440917634112D-01  3.8878464579092D-02
   141  1.4000000000000D+00  4.5880949009481D-01  3.0520202712131D-02
   142  1.4100000000000D+00  4.7100954539989D-01  2.2761280174999D-02
   143  1.4200000000000D+00  4.8104611001966D-01  1.5589248765991D-02
   144  1.4300000000000D+00  4.8896512570606D-01  8.9902450852362D-03
   145  1.4400000000000D+00  4.9482120946475D-01  2.9490820240862D-03
   146  1.4500000000000D+00  4.9867711358839D-01 -2.5506548470828D-03
   147  1.4600000000000D+00  5.0060314845532D-01 -7.5265065690933D-03
   148  1.4700000000000D+00  5.0067657195175D-01 -1.1997036328490D-02
   149  1.4800000000000D+00  4.9898095042043D-01 -1.5981721913826D-02
   150  1.4900000000000D+00  4.9560549512547D-01 -1.9500845675306D-02
   151  1.5000000000000D+00  4.9064437938105D-01 -2.2575382689842D-02
   152  1.5100000000000D+00  4.8419604078504D-01 -2.5226887757419D-02
   153  1.5200000000000D+00  4.7636247362214D-01 -2.7477381923495D-02
   154  1.5300000000000D+00  4.6724851611839D-01 -2.9349239163080D-02
   155  1.5400000000000D+00  4.5696113768788D-01 -3.0865073937609D-02
   156  1.5500000000000D+00  4.4560873058796D-01 -3.2047630203520D-02
   157  1.5600000000000D+00  4.3330041139553D-01 -3.2919672623260D-02
   158  1.5700000000000D+00  4.2014533617795D-01 -3.3503880471822D-02
   159  1.5800000000000D+00  4.0625203481204D-01 -3.3822744987752D-02
   160  1.5900000000000D+00  3.9172776794733D-01 -3.3898470609851D-02
   161  1.6000000000000D+00  3.7667791162411D-01 -3.3752880775405D-02
   162  1.6100000000000D+00  3.6120537289875D-01 -3.3407328704220D-02
   163  1.6200000000000D+00  3.4541004062251D-01 -3.2882613715468D-02
   164  1.6300000000000D+00  3.2938827473749D-01 -3.2198903504989D-02
   165  1.6400000000000D+00  3.1323243706129D-01 -3.1375662762395D-02
   166  1.6500000000000D+00  2.9703046700301D-01 -3.0431588566734D-02
   167  1.6600000000000D+00  2.8086550382473D-01 -2.9384552751107D-02
   168  1.6700000000000D+00  2.6481555893164D-01 -2.8251551679511D-02
   169  1.6800000000000D+00  2.4895323841529D-01 -2.7048663436140D-02
   170  1.6900000000000D+00  2.3334551921709D-01 -2.5791012852707D-02
   171  1.7000000000000D+00  2.1805357787530D-01 -2.4492744203754D-02
   172  1.7100000000000D+00  2.0313267482969D-01 -2.3167001940031D-02
   173  1.7200000000000D+00  1.8863209227348D-01 -2.1825919160091D-02
   174  1.7300000000000D+00  1.7459512774839D-01 -2.0480614083116D-02
   175  1.7400000000000D+00  1.6105914092688D-01 -1.9141194151657D-02
   176  1.7500000000000D+00  1.4805565453489D-01 -1.7816767859023D-02
   177  1.7600000000000D+00  1.3561050683869D-01 -1.6515463928692D-02
   178  1.7700000000000D+00  1.2374405492443D-01 -1.5244457709671D-02
   179  1.7800000000000D+00  1.1247142671383D-01 -1.4010004484797D-02
   180  1.7900000000000D+00  1.0180281882222D-01 -1.2817479274948D-02
   181  1.8000000000000D+00  9.1743839149254D-02 -1.1671422960388D-02
   182  1.8100000000000D+00  8.2295891089445D-02 -1.0575594245941D-02
   183  1.8200000000000D+00  7.3456594555583D-02 -9.5330268691036D-03
   184  1.8300000000000D+00  6.5220212325921D-02 -8.5460882247041D-03
   185  1.8400000000000D+00  5.7578273196645D-02 -7.6165618998525D-03
   186  1.8500000000000D+00  5.0519714889545D-02 -6.7456741771594D-03
   187  1.8600000000000D+00  4.4031726909131D-02 -5.9342039204526D-03
   188  1.8700000000000D+00  3.8100947103867D-02 -5.1826336759919D-03
   189  1.8800000000000D+00  3.2712757853188D-02 -4.4910784809368D-03
   190  1.8900000000000D+00  2.7850691957419D-02 -3.8592282784781D-03
   191  1.9000000000000D+00  2.3496018063603D-02 -3.2863096624126D-03
   192  1.9100000000000D+00  1.9627065696684D-02 -2.7710159670076D-03
   193  1.9200000000000D+00  1.6218740293988D-02 -2.3114599737446D-03
   194  1.9300000000000D+00  1.3243567985338D-02 -1.9053060043638D-03
   195  1.9400000000000D+00  1.0672541735203D-02 -1.5498778442534D-03
   196  1.9500000000000D+00  8.4751816982866D-03 -1.2421756445974D-03
   197  1.9600000000000D+00  6.6201426742279D-03 -9.7895625019970D-04
   198  1.9700000000000D+00  5.0756256069203D-03 -7.5679040155902D-04
   199  1.9800000000000D+00  3.8097795923003D-03 -5.7211856063385D-04
   200  1.9900000000000D+00  2.7910870768145D-03 -4.2130438418252D-04
   201  2.0000000000000D+00  1.9887112721599D-03 -3.0068326606290D-04
   202  2.0100000000000D+00  1.3728157691015D-03 -2.0660724603546D-04
   203  2.0200000000000D+00  9.1492912598204D-04 -1.3548047141032D-04
   204  2.0300000000000D+00  5.8785832232975D-04 -8.3808140131058D-05
   205  2.0400000000000D+00  3.6579377527376D-04 -4.8200041688851D-05
   206  2.0500000000000D+00  2.2531454913176D-04 -2.5406575537894D-05
   207  2.0600000000000D+00  1.4774952557322D-04 -1.2425517566352D-05
   208  2.0700000000000D+00  1.1734836810572D-04 -6.5581145006139D-06
   209  2.0800000000000D+00  1.0535188177898D-04 -4.5557344245273D-06
   210  2.0900000000000D+00  8.4456263803211D-05 -3.5196878391028D-06
   211  2.1000000000000D+00  4.4569031938533D-05 -1.8917424808022D-06
   212  2.1100000000000D+00  5.4063166121376D-06 -2.3822319559426D-07
   213  2.1200000000000D+00 -9.4245874409927D-06  3.7116846670346D-07
   214  2.1300000000000D+00 -6.4781666380488D-06  2.5639840402291D-07
   215  2.1400000000000D+00  9.2356570535620D-07 -3.2995655430311D-08
   216  2.1500000000000D+00  2.1330856218635D-06 -7.5381123194073D-08
   217  2.1600000000000D+00  6.2602459085242D-07 -2.1926841972876D-08
   218  2.1700000000000D+00 -2.2302524790696D-07  9.3541390811437D-09
   219  2.1800000000000D+00 -2.2492471131956D-07  9.4338064959665D-09
   220  2.1900000000000D+00  0.0000000000000D+00  0.0000000000000D+00
   221  2.2000000000000D+00  0.0000000000000D+00  0.0000000000000D+00
   222  2.2100000000000D+00  0.0000000000000D+00  0.0000000000000D+00
   223  2.2200000000000D+00  0.0000000000000D+00  0.0000000000000D+00
   224  2.2300000000000D+00  0.0000000000000D+00  0.0000000000000D+00
   225  2.2400000000000D+00  0.0000000000000D+00  0.0000000000000D+00
   226  2.2500000000000D+00  0.0000000000000D+00  0.0000000000000D+00
   227  2.2600000000000D+00  0.0000000000000D+00  0.0000000000000D+00
   228  2.2700000000000D+00  0.0000000000000D+00  0.0000000000000D+00
   229  2.2800000000000D+00  0.0000000000000D+00  0.0000000000000D+00
   230  2.2900000000000D+00  0.0000000000000D+00  0.0000000000000D+00
   231  2.3000000000000D+00  0.0000000000000D+00  0.0000000000000D+00
   232  2.3100000000000D+00  0.0000000000000D+00  0.0000000000000D+00
   233  2.3200000000000D+00  0.0000000000000D+00  0.0000000000000D+00
   234  2.3300000000000D+00  0.0000000000000D+00  0.0000000000000D+00
   235  2.3400000000000D+00  0.0000000000000D+00  0.0000000000000D+00
   236  2.3500000000000D+00  0.0000000000000D+00  0.0000000000000D+00
   237  2.3600000000000D+00  0.0000000000000D+00  0.0000000000000D+00
   238  2.3700000000000D+00  0.0000000000000D+00  0.0000000000000D+00
   239  2.3800000000000D+00  0.0000000000000D+00  0.0000000000000D+00
   240  2.3900000000000D+00  0.0000000000000D+00  0.0000000000000D+00
   241  2.4000000000000D+00  0.0000000000000D+00  0.0000000000000D+00
   242  2.4100000000000D+00  0.0000000000000D+00  0.0000000000000D+00
   243  2.4200000000000D+00  0.0000000000000D+00  0.0000000000000D+00
   244  2.4300000000000D+00  0.0000000000000D+00  0.0000000000000D+00
   245  2.4400000000000D+00  0.0000000000000D+00  0.0000000000000D+00
   246  2.4500000000000D+00  0.0000000000000D+00  0.0000000000000D+00
   247  2.4600000000000D+00  0.0000000000000D+00  0.0000000000000D+00
   248  2.4700000000000D+00  0.0000000000000D+00  0.0000000000000D+00
   249  2.4800000000000D+00  0.0000000000000D+00  0.0000000000000D+00
   250  2.4900000000000D+00  0.0000000000000D+00  0.0000000000000D+00
   251  2.5000000000000D+00  0.0000000000000D+00  0.0000000000000D+00
   252  2.5100000000000D+00  0.0000000000000D+00  0.0000000000000D+00
   253  2.5200000000000D+00  0.0000000000000D+00  0.0000000000000D+00
   254  2.5300000000000D+00  0.0000000000000D+00  0.0000000000000D+00
   255  2.5400000000000D+00  0.0000000000000D+00  0.0000000000000D+00
   256  2.5500000000000D+00  0.0000000000000D+00  0.0000000000000D+00
   257  2.5600000000000D+00  0.0000000000000D+00  0.0000000000000D+00
   258  2.5700000000000D+00  0.0000000000000D+00  0.0000000000000D+00
   259  2.5800000000000D+00  0.0000000000000D+00  0.0000000000000D+00
   260  2.5900000000000D+00  0.0000000000000D+00  0.0000000000000D+00
   261  2.6000000000000D+00  0.0000000000000D+00  0.0000000000000D+00
   262  2.6100000000000D+00  0.0000000000000D+00  0.0000000000000D+00
   263  2.6200000000000D+00  0.0000000000000D+00  0.0000000000000D+00
   264  2.6300000000000D+00  0.0000000000000D+00  0.0000000000000D+00
   265  2.6400000000000D+00  0.0000000000000D+00  0.0000000000000D+00
   266  2.6500000000000D+00  0.0000000000000D+00  0.0000000000000D+00
   267  2.6600000000000D+00  0.0000000000000D+00  0.0000000000000D+00
   268  2.6700000000000D+00  0.0000000000000D+00  0.0000000000000D+00
   269  2.6800000000000D+00  0.0000000000000D+00  0.0000000000000D+00
   270  2.6900000000000D+00  0.0000000000000D+00  0.0000000000000D+00
   271  2.7000000000000D+00  0.0000000000000D+00  0.0000000000000D+00
   272  2.7100000000000D+00  0.0000000000000D+00  0.0000000000000D+00
   273  2.7200000000000D+00  0.0000000000000D+00  0.0000000000000D+00
   274  2.7300000000000D+00  0.0000000000000D+00  0.0000000000000D+00
   275  2.7400000000000D+00  0.0000000000000D+00  0.0000000000000D+00
   276  2.7500000000000D+00  0.0000000000000D+00  0.0000000000000D+00
   277  2.7600000000000D+00  0.0000000000000D+00  0.0000000000000D+00
   278  2.7700000000000D+00  0.0000000000000D+00  0.0000000000000D+00
   279  2.7800000000000D+00  0.0000000000000D+00  0.0000000000000D+00
   280  2.7900000000000D+00  0.0000000000000D+00  0.0000000000000D+00
   281  2.8000000000000D+00  0.0000000000000D+00  0.0000000000000D+00
   282  2.8100000000000D+00  0.0000000000000D+00  0.0000000000000D+00
   283  2.8200000000000D+00  0.0000000000000D+00  0.0000000000000D+00
   284  2.8300000000000D+00  0.0000000000000D+00  0.0000000000000D+00
   285  2.8400000000000D+00  0.0000000000000D+00  0.0000000000000D+00
   286  2.8500000000000D+00  0.0000000000000D+00  0.0000000000000D+00
   287  2.8600000000000D+00  0.0000000000000D+00  0.0000000000000D+00
   288  2.8700000000000D+00  0.0000000000000D+00  0.0000000000000D+00
   289  2.8800000000000D+00  0.0000000000000D+00  0.0000000000000D+00
   290  2.8900000000000D+00  0.0000000000000D+00  0.0000000000000D+00
   291  2.9000000000000D+00  0.0000000000000D+00  0.0000000000000D+00
   292  2.9100000000000D+00  0.0000000000000D+00  0.0000000000000D+00
   293  2.9200000000000D+00  0.0000000000000D+00  0.0000000000000D+00
   294  2.9300000000000D+00  0.0000000000000D+00  0.0000000000000D+00
   295  2.9400000000000D+00  0.0000000000000D+00  0.0000000000000D+00
   296  2.9500000000000D+00  0.0000000000000D+00  0.0000000000000D+00
   297  2.9600000000000D+00  0.0000000000000D+00  0.0000000000000D+00
   298  2.9700000000000D+00  0.0000000000000D+00  0.0000000000000D+00
   299  2.9800000000000D+00  0.0000000000000D+00  0.0000000000000D+00
   300  2.9900000000000D+00  0.0000000000000D+00  0.0000000000000D+00
   301  3.0000000000000D+00  0.0000000000000D+00  0.0000000000000D+00
   302  3.0100000000000D+00  0.0000000000000D+00  0.0000000000000D+00
   303  3.0200000000000D+00  0.0000000000000D+00  0.0000000000000D+00
   304  3.0300000000000D+00  0.0000000000000D+00  0.0000000000000D+00
   305  3.0400000000000D+00  0.0000000000000D+00  0.0000000000000D+00
   306  3.0500000000000D+00  0.0000000000000D+00  0.0000000000000D+00
   307  3.0600000000000D+00  0.0000000000000D+00  0.0000000000000D+00
   308  3.0700000000000D+00  0.0000000000000D+00  0.0000000000000D+00
   309  3.0800000000000D+00  0.0000000000000D+00  0.0000000000000D+00
   310  3.0900000000000D+00  0.0000000000000D+00  0.0000000000000D+00
   311  3.1000000000000D+00  0.0000000000000D+00  0.0000000000000D+00
   312  3.1100000000000D+00  0.0000000000000D+00  0.0000000000000D+00
   313  3.1200000000000D+00  0.0000000000000D+00  0.0000000000000D+00
   314  3.1300000000000D+00  0.0000000000000D+00  0.0000000000000D+00
   315  3.1400000000000D+00  0.0000000000000D+00  0.0000000000000D+00
   316  3.1500000000000D+00  0.0000000000000D+00  0.0000000000000D+00
   317  3.1600000000000D+00  0.0000000000000D+00  0.0000000000000D+00
   318  3.1700000000000D+00  0.0000000000000D+00  0.0000000000000D+00
   319  3.1800000000000D+00  0.0000000000000D+00  0.0000000000000D+00
   320  3.1900000000000D+00  0.0000000000000D+00  0.0000000000000D+00
   321  3.2000000000000D+00  0.0000000000000D+00  0.0000000000000D+00
   322  3.2100000000000D+00  0.0000000000000D+00  0.0000000000000D+00
   323  3.2200000000000D+00  0.0000000000000D+00  0.0000000000000D+00
   324  3.2300000000000D+00  0.0000000000000D+00  0.0000000000000D+00
   325  3.2400000000000D+00  0.0000000000000D+00  0.0000000000000D+00
   326  3.2500000000000D+00  0.0000000000000D+00  0.0000000000000D+00
   327  3.2600000000000D+00  0.0000000000000D+00  0.0000000000000D+00
   328  3.2700000000000D+00  0.0000000000000D+00  0.0000000000000D+00
   329  3.2800000000000D+00  0.0000000000000D+00  0.0000000000000D+00
   330  3.2900000000000D+00  0.0000000000000D+00  0.0000000000000D+00
   331  3.3000000000000D+00  0.0000000000000D+00  0.0000000000000D+00
   332  3.3100000000000D+00  0.0000000000000D+00  0.0000000000000D+00
   333  3.3200000000000D+00  0.0000000000000D+00  0.0000000000000D+00
   334  3.3300000000000D+00  0.0000000000000D+00  0.0000000000000D+00
   335  3.3400000000000D+00  0.0000000000000D+00  0.0000000000000D+00
   336  3.3500000000000D+00  0.0000000000000D+00  0.0000000000000D+00
   337  3.3600000000000D+00  0.0000000000000D+00  0.0000000000000D+00
   338  3.3700000000000D+00  0.0000000000000D+00  0.0000000000000D+00
   339  3.3800000000000D+00  0.0000000000000D+00  0.0000000000000D+00
   340  3.3900000000000D+00  0.0000000000000D+00  0.0000000000000D+00
   341  3.4000000000000D+00  0.0000000000000D+00  0.0000000000000D+00
   342  3.4100000000000D+00  0.0000000000000D+00  0.0000000000000D+00
   343  3.4200000000000D+00  0.0000000000000D+00  0.0000000000000D+00
   344  3.4300000000000D+00  0.0000000000000D+00  0.0000000000000D+00
   345  3.4400000000000D+00  0.0000000000000D+00  0.0000000000000D+00
   346  3.4500000000000D+00  0.0000000000000D+00  0.0000000000000D+00
   347  3.4600000000000D+00  0.0000000000000D+00  0.0000000000000D+00
   348  3.4700000000000D+00  0.0000000000000D+00  0.0000000000000D+00
   349  3.4800000000000D+00  0.0000000000000D+00  0.0000000000000D+00
   350  3.4900000000000D+00  0.0000000000000D+00  0.0000000000000D+00
   351  3.5000000000000D+00  0.0000000000000D+00  0.0000000000000D+00
   352  3.5100000000000D+00  0.0000000000000D+00  0.0000000000000D+00
   353  3.5200000000000D+00  0.0000000000000D+00  0.0000000000000D+00
   354  3.5300000000000D+00  0.0000000000000D+00  0.0000000000000D+00
   355  3.5400000000000D+00  0.0000000000000D+00  0.0000000000000D+00
   356  3.5500000000000D+00  0.0000000000000D+00  0.0000000000000D+00
   357  3.5600000000000D+00  0.0000000000000D+00  0.0000000000000D+00
   358  3.5700000000000D+00  0.0000000000000D+00  0.0000000000000D+00
   359  3.5800000000000D+00  0.0000000000000D+00  0.0000000000000D+00
   360  3.5900000000000D+00  0.0000000000000D+00  0.0000000000000D+00
   361  3.6000000000000D+00  0.0000000000000D+00  0.0000000000000D+00
   362  3.6100000000000D+00  0.0000000000000D+00  0.0000000000000D+00
   363  3.6200000000000D+00  0.0000000000000D+00  0.0000000000000D+00
   364  3.6300000000000D+00  0.0000000000000D+00  0.0000000000000D+00
   365  3.6400000000000D+00  0.0000000000000D+00  0.0000000000000D+00
   366  3.6500000000000D+00  0.0000000000000D+00  0.0000000000000D+00
   367  3.6600000000000D+00  0.0000000000000D+00  0.0000000000000D+00
   368  3.6700000000000D+00  0.0000000000000D+00  0.0000000000000D+00
   369  3.6800000000000D+00  0.0000000000000D+00  0.0000000000000D+00
   370  3.6900000000000D+00  0.0000000000000D+00  0.0000000000000D+00
   371  3.7000000000000D+00  0.0000000000000D+00  0.0000000000000D+00
   372  3.7100000000000D+00  0.0000000000000D+00  0.0000000000000D+00
   373  3.7200000000000D+00  0.0000000000000D+00  0.0000000000000D+00
   374  3.7300000000000D+00  0.0000000000000D+00  0.0000000000000D+00
   375  3.7400000000000D+00  0.0000000000000D+00  0.0000000000000D+00
   376  3.7500000000000D+00  0.0000000000000D+00  0.0000000000000D+00
   377  3.7600000000000D+00  0.0000000000000D+00  0.0000000000000D+00
   378  3.7700000000000D+00  0.0000000000000D+00  0.0000000000000D+00
   379  3.7800000000000D+00  0.0000000000000D+00  0.0000000000000D+00
   380  3.7900000000000D+00  0.0000000000000D+00  0.0000000000000D+00
   381  3.8000000000000D+00  0.0000000000000D+00  0.0000000000000D+00
   382  3.8100000000000D+00  0.0000000000000D+00  0.0000000000000D+00
   383  3.8200000000000D+00  0.0000000000000D+00  0.0000000000000D+00
   384  3.8300000000000D+00  0.0000000000000D+00  0.0000000000000D+00
   385  3.8400000000000D+00  0.0000000000000D+00  0.0000000000000D+00
   386  3.8500000000000D+00  0.0000000000000D+00  0.0000000000000D+00
   387  3.8600000000000D+00  0.0000000000000D+00  0.0000000000000D+00
   388  3.8700000000000D+00  0.0000000000000D+00  0.0000000000000D+00
   389  3.8800000000000D+00  0.0000000000000D+00  0.0000000000000D+00
   390  3.8900000000000D+00  0.0000000000000D+00  0.0000000000000D+00
   391  3.9000000000000D+00  0.0000000000000D+00  0.0000000000000D+00
   392  3.9100000000000D+00  0.0000000000000D+00  0.0000000000000D+00
   393  3.9200000000000D+00  0.0000000000000D+00  0.0000000000000D+00
   394  3.9300000000000D+00  0.0000000000000D+00  0.0000000000000D+00
   395  3.9400000000000D+00  0.0000000000000D+00  0.0000000000000D+00
   396  3.9500000000000D+00  0.0000000000000D+00  0.0000000000000D+00
   397  3.9600000000000D+00  0.0000000000000D+00  0.0000000000000D+00
   398  3.9700000000000D+00  0.0000000000000D+00  0.0000000000000D+00
   399  3.9800000000000D+00  0.0000000000000D+00  0.0000000000000D+00
   400  3.9900000000000D+00  0.0000000000000D+00  0.0000000000000D+00
   401  4.0000000000000D+00  0.0000000000000D+00  0.0000000000000D+00
   402  4.0100000000000D+00  0.0000000000000D+00  0.0000000000000D+00
   403  4.0200000000000D+00  0.0000000000000D+00  0.0000000000000D+00
   404  4.0300000000000D+00  0.0000000000000D+00  0.0000000000000D+00
   405  4.0400000000000D+00  0.0000000000000D+00  0.0000000000000D+00
   406  4.0500000000000D+00  0.0000000000000D+00  0.0000000000000D+00
   407  4.0600000000000D+00  0.0000000000000D+00  0.0000000000000D+00
   408  4.0700000000000D+00  0.0000000000000D+00  0.0000000000000D+00
   409  4.0800000000000D+00  0.0000000000000D+00  0.0000000000000D+00
   410  4.0900000000000D+00  0.0000000000000D+00  0.0000000000000D+00
   411  4.1000000000000D+00  0.0000000000000D+00  0.0000000000000D+00
   412  4.1100000000000D+00  0.0000000000000D+00  0.0000000000000D+00
   413  4.1200000000000D+00  0.0000000000000D+00  0.0000000000000D+00
   414  4.1300000000000D+00  0.0000000000000D+00  0.0000000000000D+00
   415  4.1400000000000D+00  0.0000000000000D+00  0.0000000000000D+00
   416  4.1500000000000D+00  0.0000000000000D+00  0.0000000000000D+00
   417  4.1600000000000D+00  0.0000000000000D+00  0.0000000000000D+00
   418  4.1700000000000D+00  0.0000000000000D+00  0.0000000000000D+00
   419  4.1800000000000D+00  0.0000000000000D+00  0.0000000000000D+00
   420  4.1900000000000D+00  0.0000000000000D+00  0.0000000000000D+00
   421  4.2000000000000D+00  0.0000000000000D+00  0.0000000000000D+00
   422  4.2100000000000D+00  0.0000000000000D+00  0.0000000000000D+00