Ga    ONCVPSP-3.3.1  r_core=   2.35819   2.44411   1.99550
     31.0000     13.0000      210904    zatom,zion,pspd
     8      11   2     4   600     0    pspcod,pspxc,lmax,lloc,mmax,r2well
  5.99000000  0.00000000  0.00000000    rchrg fchrg qchrg
     2     2     2     0     0    nproj
     1     1           extension_switch
   0                         4.8080627563665D+00  3.4853764085142D-01
     1  0.0000000000000D+00  3.1698532687585D-12 -2.5702565076280D-11
     2  1.0000000000000D-02  2.5415313330802D-02  3.8915069726766D-03
     3  2.0000000000000D-02  5.0828694120486D-02  7.7254698872444D-03
     4  3.0000000000000D-02  7.6238161262157D-02  1.1444663511832D-02
     5  4.0000000000000D-02  1.0164163673394D-01  1.4992498801448D-02
     6  5.0000000000000D-02  1.2703689768208D-01  1.8313337333940D-02
     7  6.0000000000000D-02  1.5242152915062D-01  2.1352801375157D-02
     8  7.0000000000000D-02  1.7779287766925D-01  2.4058078146613D-02
     9  8.0000000000000D-02  2.0314800590812D-01  2.6378216894658D-02
    10  9.0000000000000D-02  2.2848364860411D-01  2.8264417392139D-02
    11  1.0000000000000D-01  2.5379616995865D-01  2.9670308541584D-02
    12  1.1000000000000D-01  2.7908152270143D-01  3.0552215792806D-02
    13  1.2000000000000D-01  3.0433520900843D-01  3.0869416137640D-02
    14  1.3000000000000D-01  3.2955224345565D-01  3.0584379499562D-02
    15  1.4000000000000D-01  3.5472711818245D-01  2.9662995396420D-02
    16  1.5000000000000D-01  3.7985377043023D-01  2.8074783820017D-02
    17  1.6000000000000D-01  4.0492555261316D-01  2.5793089346292D-02
    18  1.7000000000000D-01  4.2993520506861D-01  2.2795257564483D-02
    19  1.8000000000000D-01  4.5487483162456D-01  1.9062792992237D-02
    20  1.9000000000000D-01  4.7973587811104D-01  1.4581497725988D-02
    21  2.0000000000000D-01  5.0450911393156D-01  9.3415901616127D-03
    22  2.1000000000000D-01  5.2918461679911D-01  3.3378032090061D-03
    23  2.2000000000000D-01  5.5375176072936D-01 -3.4305384842954D-03
    24  2.3000000000000D-01  5.7819920737165D-01 -1.0959462692143D-02
    25  2.4000000000000D-01  6.0251490074579D-01 -1.9240315447616D-02
    26  2.5000000000000D-01  6.2668606543963D-01 -2.8259748759396D-02
    27  2.6000000000000D-01  6.5069920830992D-01 -3.7999730308782D-02
    28  2.7000000000000D-01  6.7454012371502D-01 -4.8437575131436D-02
    29  2.8000000000000D-01  6.9819390229539D-01 -5.9545999189874D-02
    30  2.9000000000000D-01  7.2164494330370D-01 -7.1293194644875D-02
    31  3.0000000000000D-01  7.4487697047345D-01 -8.3642926537245D-02
    32  3.1000000000000D-01  7.6787305140114D-01 -9.6554650495484D-02
    33  3.2000000000000D-01  7.9061562040387D-01 -1.0998365099112D-01
    34  3.3000000000000D-01  8.1308650480068D-01 -1.2388119957128D-01
    35  3.4000000000000D-01  8.3526695455295D-01 -1.3819473240884D-01
    36  3.5000000000000D-01  8.5713767518622D-01 -1.5286804642392D-01
    37  3.6000000000000D-01  8.7867886390295D-01 -1.6784151314715D-01
    38  3.7000000000000D-01  8.9987024878334D-01 -1.8305230941559D-01
    39  3.8000000000000D-01  9.2069113095931D-01 -1.9843466391665D-01
    40  3.9000000000000D-01  9.4112042963495D-01 -2.1392011852413D-01
    41  4.0000000000000D-01  9.6113672981555D-01 -2.2943780330372D-01
    42  4.1000000000000D-01  9.8071833259632D-01 -2.4491472400420D-01
    43  4.2000000000000D-01  9.9984330785178D-01 -2.6027606079378D-01
    44  4.3000000000000D-01  1.0184895491570D+00 -2.7544547695053D-01
    45  4.4000000000000D-01  1.0366348307626D+00 -2.9034543617066D-01
    46  4.5000000000000D-01  1.0542568664367D+00 -3.0489752711926D-01
    47  4.6000000000000D-01  1.0713333699796D+00 -3.1902279381535D-01
    48  4.7000000000000D-01  1.0878421172091D+00 -3.3264207041603D-01
    49  4.8000000000000D-01  1.1037610092080D+00 -3.4567631894453D-01
    50  4.9000000000000D-01  1.1190681366202D+00 -3.5804696849294D-01
    51  5.0000000000000D-01  1.1337418447750D+00 -3.6967625442318D-01
    52  5.1000000000000D-01  1.1477607994172D+00 -3.8048755608933D-01
    53  5.2000000000000D-01  1.1611040528154D+00 -3.9040573160980D-01
    54  5.3000000000000D-01  1.1737511100185D+00 -3.9935744823111D-01
    55  5.4000000000000D-01  1.1856819950289D+00 -4.0727150684339D-01
    56  5.5000000000000D-01  1.1968773166601D+00 -4.1407915923358D-01
    57  5.6000000000000D-01  1.2073183338452D+00 -4.1971441669373D-01
    58  5.7000000000000D-01  1.2169870201634D+00 -4.2411434864025D-01
    59  5.8000000000000D-01  1.2258661273553D+00 -4.2721936994326D-01
    60  5.9000000000000D-01  1.2339392475957D+00 -4.2897351571553D-01
    61  6.0000000000000D-01  1.2411908743012D+00 -4.2932470236541D-01
    62  6.1000000000000D-01  1.2476064612478D+00 -4.2822497377878D-01
    63  6.2000000000000D-01  1.2531724797837D+00 -4.2563073156130D-01
    64  6.3000000000000D-01  1.2578764739247D+00 -4.2150294834146D-01
    65  6.4000000000000D-01  1.2617071131271D+00 -4.1580736321132D-01
    66  6.5000000000000D-01  1.2646542425387D+00 -4.0851465845916D-01
    67  6.6000000000000D-01  1.2667089305387D+00 -3.9960061683192D-01
    68  6.7000000000000D-01  1.2678635133836D+00 -3.8904625865096D-01
    69  6.8000000000000D-01  1.2681116367847D+00 -3.7683795819300D-01
    70  6.9000000000000D-01  1.2674482942553D+00 -3.6296753884030D-01
    71  7.0000000000000D-01  1.2658698620729D+00 -3.4743234659680D-01
    72  7.1000000000000D-01  1.2633741307155D+00 -3.3023530166275D-01
    73  7.2000000000000D-01  1.2599603326387D+00 -3.1138492785577D-01
    74  7.3000000000000D-01  1.2556291662763D+00 -2.9089535976439D-01
    75  7.4000000000000D-01  1.2503828161573D+00 -2.6878632761667D-01
    76  7.5000000000000D-01  1.2442249690437D+00 -2.4508311994416D-01
    77  7.6000000000000D-01  1.2371608260092D+00 -2.1981652421822D-01
    78  7.7000000000000D-01  1.2291971103913D+00 -1.9302274573100D-01
    79  7.8000000000000D-01  1.2203420715612D+00 -1.6474330508766D-01
    80  7.9000000000000D-01  1.2106054844728D+00 -1.3502491476902D-01
    81  8.0000000000000D-01  1.1999986449633D+00 -1.0391933531304D-01
    82  8.1000000000000D-01  1.1885343607941D+00 -7.1483211751396D-02
    83  8.2000000000000D-01  1.1762269384332D+00 -3.7777891020715D-02
    84  8.3000000000000D-01  1.1630921655963D+00 -2.8692211489742D-03
    85  8.4000000000000D-01  1.1491472895758D+00  3.3172666906150D-02
    86  8.5000000000000D-01  1.1344109914029D+00  7.0273593818009D-02
    87  8.6000000000000D-01  1.1189033559006D+00  1.0835558183398D-01
    88  8.7000000000000D-01  1.1026458377004D+00  1.4733711902142D-01
    89  8.8000000000000D-01  1.0856612233070D+00  1.8713343667935D-01
    90  8.9000000000000D-01  1.0679735893106D+00  2.2765679872700D-01
    91  9.0000000000000D-01  1.0496082568584D+00  2.6881680183339D-01
    92  9.1000000000000D-01  1.0305917425090D+00  3.1052068501200D-01
    93  9.2000000000000D-01  1.0109517056051D+00  3.5267364736954D-01
    94  9.3000000000000D-01  9.9071689231399D-01  3.9517917267009D-01
    95  9.4000000000000D-01  9.6991707649277D-01  4.3793935935300D-01
    96  9.5000000000000D-01  9.4858299754833D-01  4.8085525462824D-01
    97  9.6000000000000D-01  9.2674629547132D-01  5.2382719126256D-01
    98  9.7000000000000D-01  9.0443944323232D-01  5.6675512566782D-01
    99  9.8000000000000D-01  8.8169567673766D-01  6.0953897590599D-01
   100  9.9000000000000D-01  8.5854892254974D-01  6.5207895823520D-01
   101  1.0000000000000D+00  8.3503372358445D-01  6.9427592083792D-01
   102  1.0100000000000D+00  8.1118516300458D-01  7.3603167339401D-01
   103  1.0200000000000D+00  7.8703878653396D-01  7.7724931119090D-01
   104  1.0300000000000D+00  7.6263052342197D-01  8.1783353249625D-01
   105  1.0400000000000D+00  7.3799660629241D-01  8.5769094795903D-01
   106  1.0500000000000D+00  7.1317349011413D-01  8.9673038085044D-01
   107  1.0600000000000D+00  6.8819777053334D-01  9.3486315700628D-01
   108  1.0700000000000D+00  6.6310610180927D-01  9.7200338338819D-01
   109  1.0800000000000D+00  6.3793511459592D-01  1.0080682142429D+00
   110  1.0900000000000D+00  6.1272133381271D-01  1.0429781038961D+00
   111  1.1000000000000D+00  5.8750109684621D-01  1.0766570452956D+00
   112  1.1100000000000D+00  5.6231047232357D-01  1.1090327934831D+00
   113  1.1200000000000D+00  5.3718517969576D-01  1.1400370732532D+00
   114  1.1300000000000D+00  5.1216050986626D-01  1.1696057703303D+00
   115  1.1400000000000D+00  4.8727124709626D-01  1.1976791054778D+00
   116  1.1500000000000D+00  4.6255159241333D-01  1.2242017910367D+00
   117  1.1600000000000D+00  4.3803508874420D-01  1.2491231694791D+00
   118  1.1700000000000D+00  4.1375454798793D-01  1.2723973336257D+00
   119  1.1800000000000D+00  3.8974198023744D-01  1.2939832282870D+00
   120  1.1900000000000D+00  3.6602852535025D-01  1.3138447331590D+00
   121  1.2000000000000D+00  3.4264438706072D-01  1.3319507269010D+00
   122  1.2100000000000D+00  3.1961876982023D-01  1.3482751323757D+00
   123  1.2200000000000D+00  2.9697981853846D-01  1.3627969431586D+00
   124  1.2300000000000D+00  2.7475456138989D-01  1.3755002314885D+00
   125  1.2400000000000D+00  2.5296885584408D-01  1.3863741378801D+00
   126  1.2500000000000D+00  2.3164733806173D-01  1.3954128427436D+00
   127  1.2600000000000D+00  2.1081337578804D-01  1.4026155204166D+00
   128  1.2700000000000D+00  1.9048902486867D-01  1.4079862760560D+00
   129  1.2800000000000D+00  1.7069498949739D-01  1.4115340659387D+00
   130  1.2900000000000D+00  1.5145058628918D-01  1.4132726017893D+00
   131  1.3000000000000D+00  1.3277371227015D-01  1.4132202397687D+00
   132  1.3100000000000D+00  1.1468081685601D-01  1.4113998548555D+00
   133  1.3200000000000D+00  9.7186877873297D-02  1.4078387014050D+00
   134  1.3300000000000D+00  8.0305381681809D-02  1.4025682606663D+00
   135  1.3400000000000D+00  6.4048307427169D-02  1.3956240761404D+00
   136  1.3500000000000D+00  4.8426115440348D-02  1.3870455776749D+00
   137  1.3600000000000D+00  3.3447739810281D-02  1.3768758951873D+00
   138  1.3700000000000D+00  1.9120585109263D-02  1.3651616630035D+00
   139  1.3800000000000D+00  5.4505272638245D-03  1.3519528157527D+00
   140  1.3900000000000D+00 -7.5580814501897D-03  1.3373023768109D+00
   141  1.4000000000000D+00 -1.9902403345144D-02  1.3212662402830D+00
   142  1.4100000000000D+00 -3.1581102221824D-02  1.3039029475133D+00
   143  1.4200000000000D+00 -4.2594326310037D-02  1.2852734591236D+00
   144  1.4300000000000D+00 -5.2943687321338D-02  1.2654409235406D+00
   145  1.4400000000000D+00 -6.2632235684966D-02  1.2444704430235D+00
   146  1.4500000000000D+00 -7.1664432085623D-02  1.2224288380787D+00
   147  1.4600000000000D+00 -8.0046115379539D-02  1.1993844112643D+00
   148  1.4700000000000D+00 -8.7784467025558D-02  1.1754067112211D+00
   149  1.4800000000000D+00 -9.4887972141492D-02  1.1505662978163D+00
   150  1.4900000000000D+00 -1.0136637731477D-01  1.1249345092735D+00
   151  1.5000000000000D+00 -1.0723064532001D-01  1.0985832319548D+00
   152  1.5100000000000D+00 -1.1249290686484D-01  1.0715846737322D+00
   153  1.5200000000000D+00 -1.1716640954435D-01  1.0440111413985D+00
   154  1.5300000000000D+00 -1.2126546413419D-01  1.0159348230138D+00
   155  1.5400000000000D+00 -1.2480538840807D-01  9.8742757555434D-01
   156  1.5500000000000D+00 -1.2780244863104D-01  9.5856071854850D-01
   157  1.5600000000000D+00 -1.3027379890947D-01  9.2940483410654D-01
   158  1.5700000000000D+00 -1.3223741856842D-01  9.0002957372320D-01
   159  1.5800000000000D+00 -1.3371204773417D-01  8.7050347234003D-01
   160  1.5900000000000D+00 -1.3471712130242D-01  8.4089376971105D-01
   161  1.6000000000000D+00 -1.3527270147213D-01  8.1126623964602D-01
   162  1.6100000000000D+00 -1.3539940902441D-01  7.8168502684037D-01
   163  1.6200000000000D+00 -1.3511835353407D-01  7.5221249193664D-01
   164  1.6300000000000D+00 -1.3445106268240D-01  7.2290906422678D-01
   165  1.6400000000000D+00 -1.3341941086940D-01  6.9383310265184D-01
   166  1.6500000000000D+00 -1.3204554727785D-01  6.6504076431587D-01
   167  1.6600000000000D+00 -1.3035182359594D-01  6.3658588105550D-01
   168  1.6700000000000D+00 -1.2836072153322D-01  6.0851984321386D-01
   169  1.6800000000000D+00 -1.2609478034225D-01  5.8089149099127D-01
   170  1.6900000000000D+00 -1.2357652446062D-01  5.5374701247620D-01
   171  1.7000000000000D+00 -1.2082839149072D-01  5.2712984857962D-01
   172  1.7100000000000D+00 -1.1787266060711D-01  5.0108060393204D-01
   173  1.7200000000000D+00 -1.1473138161617D-01  4.7563696383919D-01
   174  1.7300000000000D+00 -1.1142630472574D-01  4.5083361632307D-01
   175  1.7400000000000D+00 -1.0797881126221D-01  4.2670217922716D-01
   176  1.7500000000000D+00 -1.0440984535074D-01  4.0327113141256D-01
   177  1.7600000000000D+00 -1.0073984681628D-01  3.8056574789327D-01
   178  1.7700000000000D+00 -9.6988685270702D-02  3.5860803800250D-01
   179  1.7800000000000D+00 -9.3175595663324D-02  3.3741668626034D-01
   180  1.7900000000000D+00 -8.9319115221850D-02  3.1700699519491D-01
   181  1.8000000000000D+00 -8.5437022051671D-02  2.9739082955758D-01
   182  1.8100000000000D+00 -8.1546275316629D-02  2.7857656140053D-01
   183  1.8200000000000D+00 -7.7662956518617D-02  2.6056900958526D-01
   184  1.8300000000000D+00 -7.3802216008714D-02  2.4336940690510D-01
   185  1.8400000000000D+00 -6.9978211525590D-02  2.2697528891013D-01
   186  1.8500000000000D+00 -6.6204068314723D-02  2.1138053048788D-01
   187  1.8600000000000D+00 -6.2491833361226D-02  1.9657532740024D-01
   188  1.8700000000000D+00 -5.8852387384331D-02  1.8254582834214D-01
   189  1.8800000000000D+00 -5.5295383795088D-02  1.6927393194670D-01
   190  1.8900000000000D+00 -5.1829366685595D-02  1.5673852434332D-01
   191  1.9000000000000D+00 -4.8461815437113D-02  1.4491614993200D-01
   192  1.9100000000000D+00 -4.5199242332363D-02  1.3378182008527D-01
   193  1.9200000000000D+00 -4.2047358388958D-02  1.2331041609205D-01
   194  1.9300000000000D+00 -3.9011076856450D-02  1.1347671492551D-01
   195  1.9400000000000D+00 -3.6094503433957D-02  1.0425524602741D-01
   196  1.9500000000000D+00 -3.3300957306237D-02  9.5620384415824D-02
   197  1.9600000000000D+00 -3.0633013301391D-02  8.7546620026388D-02
   198  1.9700000000000D+00 -2.8092519094173D-02  8.0008578621767D-02
   199  1.9800000000000D+00 -2.5680628070681D-02  7.2981155489786D-02
   200  1.9900000000000D+00 -2.3397828650525D-02  6.6439599043887D-02
   201  2.0000000000000D+00 -2.1243975992323D-02  6.0359593037304D-02
   202  2.0100000000000D+00 -1.9218324959302D-02  5.4717330897692D-02
   203  2.0200000000000D+00 -1.7319564233029D-02  4.9489581419085D-02
   204  2.0300000000000D+00 -1.5545851453658D-02  4.4653745491333D-02
   205  2.0400000000000D+00 -1.3894849231145D-02  4.0187905456415D-02
   206  2.0500000000000D+00 -1.2363761929527D-02  3.6070865006953D-02
   207  2.0600000000000D+00 -1.0949373066075D-02  3.2282182144813D-02
   208  2.0700000000000D+00 -9.6480832048093D-03  2.8802193756129D-02
   209  2.0800000000000D+00 -8.4559482112554D-03  2.5612032717748D-02
   210  2.0900000000000D+00 -7.3687177405865D-03  2.2693638359612D-02
   211  2.1000000000000D+00 -6.3818738050230D-03  2.0029759272194D-02
   212  2.1100000000000D+00 -5.4906693341369D-03  1.7603950523393D-02
   213  2.1200000000000D+00 -4.6901665418342D-03  1.5400564342881D-02
   214  2.1300000000000D+00 -3.9752750065300D-03  1.3404735353088D-02
   215  2.1400000000000D+00 -3.3407893590907D-03  1.1602361004004D-02
   216  2.1500000000000D+00 -2.7814263545637D-03  9.9800769375940D-03
   217  2.1600000000000D+00 -2.2918613562742D-03  8.5252286432995D-03
   218  2.1700000000000D+00 -1.8667639658317D-03  7.2258393656086D-03
   219  2.1800000000000D+00 -1.5008327361879D-03  6.0705749619275D-03
   220  2.1900000000000D+00 -1.1888289593246D-03  5.0487062406368D-03
   221  2.2000000000000D+00 -9.2560915489151D-04  4.1500694060016D-03
   222  2.2100000000000D+00 -7.0615645915135D-04  3.3650248525634D-03
   223  2.2200000000000D+00 -5.2561061762249D-04  2.6844151124863D-03
   224  2.2300000000000D+00 -3.7929644847446D-04  2.0995226116069D-03
   225  2.2400000000000D+00 -2.6275096451215D-04  1.6020268404994D-03
   226  2.2500000000000D+00 -1.7174864943860D-04  1.1839628873388D-03
   227  2.2600000000000D+00 -1.0232511642535D-04  8.3768063334446D-04
   228  2.2700000000000D+00 -5.0799091571593D-05  5.5580488776268D-04
   229  2.2800000000000D+00 -1.3737562165361D-05  3.3095375162144D-04
   230  2.2900000000000D+00  1.1867227960290D-05  1.5641383480109D-04
   231  2.3000000000000D+00  2.8595172808925D-05  2.6047178991893D-05
   232  2.3100000000000D+00  3.8242390226946D-05 -6.4564224639427D-05
   233  2.3200000000000D+00  4.3987972129237D-05 -1.2660029649426D-04
   234  2.3300000000000D+00  4.8332511621401D-05 -1.6999233772001D-04
   235  2.3400000000000D+00  5.4360648923174D-05 -2.0782731970923D-04
   236  2.3500000000000D+00  5.6329709844252D-05 -2.2121684527031D-04
   237  2.3600000000000D+00  4.9765244178014D-05 -1.9637633289496D-04
   238  2.3700000000000D+00  3.1484357553480D-05 -1.2436511766799D-04
   239  2.3800000000000D+00  1.1053070268580D-05 -4.3603728692031D-05
   240  2.3900000000000D+00 -2.8806323248956D-06  1.1450881782127D-05
   241  2.4000000000000D+00 -5.5497214383283D-06  2.2071818367509D-05
   242  2.4100000000000D+00 -2.4462568470853D-06  9.7312318160350D-06
   243  2.4200000000000D+00  7.4384040225369D-07 -2.9654818491493D-06
   244  2.4300000000000D+00  1.2443086873863D-06 -4.9634196408725D-06
   245  2.4400000000000D+00  4.9033089926607D-07 -1.9567611466384D-06
   246  2.4500000000000D+00 -9.6582295470315D-08  3.8086207352328D-07
   247  2.4600000000000D+00 -1.4491486067661D-07  5.7145643570456D-07
   248  2.4700000000000D+00 -5.0292516087583D-08  1.9832322131655D-07
   249  2.4800000000000D+00  0.0000000000000D+00  0.0000000000000D+00
   250  2.4900000000000D+00  0.0000000000000D+00  0.0000000000000D+00
   251  2.5000000000000D+00  0.0000000000000D+00  0.0000000000000D+00
   252  2.5100000000000D+00  0.0000000000000D+00  0.0000000000000D+00
   253  2.5200000000000D+00  0.0000000000000D+00  0.0000000000000D+00
   254  2.5300000000000D+00  0.0000000000000D+00  0.0000000000000D+00
   255  2.5400000000000D+00  0.0000000000000D+00  0.0000000000000D+00
   256  2.5500000000000D+00  0.0000000000000D+00  0.0000000000000D+00
   257  2.5600000000000D+00  0.0000000000000D+00  0.0000000000000D+00
   258  2.5700000000000D+00  0.0000000000000D+00  0.0000000000000D+00
   259  2.5800000000000D+00  0.0000000000000D+00  0.0000000000000D+00
   260  2.5900000000000D+00  0.0000000000000D+00  0.0000000000000D+00
   261  2.6000000000000D+00  0.0000000000000D+00  0.0000000000000D+00
   262  2.6100000000000D+00  0.0000000000000D+00  0.0000000000000D+00
   263  2.6200000000000D+00  0.0000000000000D+00  0.0000000000000D+00
   264  2.6300000000000D+00  0.0000000000000D+00  0.0000000000000D+00
   265  2.6400000000000D+00  0.0000000000000D+00  0.0000000000000D+00
   266  2.6500000000000D+00  0.0000000000000D+00  0.0000000000000D+00
   267  2.6600000000000D+00  0.0000000000000D+00  0.0000000000000D+00
   268  2.6700000000000D+00  0.0000000000000D+00  0.0000000000000D+00
   269  2.6800000000000D+00  0.0000000000000D+00  0.0000000000000D+00
   270  2.6900000000000D+00  0.0000000000000D+00  0.0000000000000D+00
   271  2.7000000000000D+00  0.0000000000000D+00  0.0000000000000D+00
   272  2.7100000000000D+00  0.0000000000000D+00  0.0000000000000D+00
   273  2.7200000000000D+00  0.0000000000000D+00  0.0000000000000D+00
   274  2.7300000000000D+00  0.0000000000000D+00  0.0000000000000D+00
   275  2.7400000000000D+00  0.0000000000000D+00  0.0000000000000D+00
   276  2.7500000000000D+00  0.0000000000000D+00  0.0000000000000D+00
   277  2.7600000000000D+00  0.0000000000000D+00  0.0000000000000D+00
   278  2.7700000000000D+00  0.0000000000000D+00  0.0000000000000D+00
   279  2.7800000000000D+00  0.0000000000000D+00  0.0000000000000D+00
   280  2.7900000000000D+00  0.0000000000000D+00  0.0000000000000D+00
   281  2.8000000000000D+00  0.0000000000000D+00  0.0000000000000D+00
   282  2.8100000000000D+00  0.0000000000000D+00  0.0000000000000D+00
   283  2.8200000000000D+00  0.0000000000000D+00  0.0000000000000D+00
   284  2.8300000000000D+00  0.0000000000000D+00  0.0000000000000D+00
   285  2.8400000000000D+00  0.0000000000000D+00  0.0000000000000D+00
   286  2.8500000000000D+00  0.0000000000000D+00  0.0000000000000D+00
   287  2.8600000000000D+00  0.0000000000000D+00  0.0000000000000D+00
   288  2.8700000000000D+00  0.0000000000000D+00  0.0000000000000D+00
   289  2.8800000000000D+00  0.0000000000000D+00  0.0000000000000D+00
   290  2.8900000000000D+00  0.0000000000000D+00  0.0000000000000D+00
   291  2.9000000000000D+00  0.0000000000000D+00  0.0000000000000D+00
   292  2.9100000000000D+00  0.0000000000000D+00  0.0000000000000D+00
   293  2.9200000000000D+00  0.0000000000000D+00  0.0000000000000D+00
   294  2.9300000000000D+00  0.0000000000000D+00  0.0000000000000D+00
   295  2.9400000000000D+00  0.0000000000000D+00  0.0000000000000D+00
   296  2.9500000000000D+00  0.0000000000000D+00  0.0000000000000D+00
   297  2.9600000000000D+00  0.0000000000000D+00  0.0000000000000D+00
   298  2.9700000000000D+00  0.0000000000000D+00  0.0000000000000D+00
   299  2.9800000000000D+00  0.0000000000000D+00  0.0000000000000D+00
   300  2.9900000000000D+00  0.0000000000000D+00  0.0000000000000D+00
   301  3.0000000000000D+00  0.0000000000000D+00  0.0000000000000D+00
   302  3.0100000000000D+00  0.0000000000000D+00  0.0000000000000D+00
   303  3.0200000000000D+00  0.0000000000000D+00  0.0000000000000D+00
   304  3.0300000000000D+00  0.0000000000000D+00  0.0000000000000D+00
   305  3.0400000000000D+00  0.0000000000000D+00  0.0000000000000D+00
   306  3.0500000000000D+00  0.0000000000000D+00  0.0000000000000D+00
   307  3.0600000000000D+00  0.0000000000000D+00  0.0000000000000D+00
   308  3.0700000000000D+00  0.0000000000000D+00  0.0000000000000D+00
   309  3.0800000000000D+00  0.0000000000000D+00  0.0000000000000D+00
   310  3.0900000000000D+00  0.0000000000000D+00  0.0000000000000D+00
   311  3.1000000000000D+00  0.0000000000000D+00  0.0000000000000D+00
   312  3.1100000000000D+00  0.0000000000000D+00  0.0000000000000D+00
   313  3.1200000000000D+00  0.0000000000000D+00  0.0000000000000D+00
   314  3.1300000000000D+00  0.0000000000000D+00  0.0000000000000D+00
   315  3.1400000000000D+00  0.0000000000000D+00  0.0000000000000D+00
   316  3.1500000000000D+00  0.0000000000000D+00  0.0000000000000D+00
   317  3.1600000000000D+00  0.0000000000000D+00  0.0000000000000D+00
   318  3.1700000000000D+00  0.0000000000000D+00  0.0000000000000D+00
   319  3.1800000000000D+00  0.0000000000000D+00  0.0000000000000D+00
   320  3.1900000000000D+00  0.0000000000000D+00  0.0000000000000D+00
   321  3.2000000000000D+00  0.0000000000000D+00  0.0000000000000D+00
   322  3.2100000000000D+00  0.0000000000000D+00  0.0000000000000D+00
   323  3.2200000000000D+00  0.0000000000000D+00  0.0000000000000D+00
   324  3.2300000000000D+00  0.0000000000000D+00  0.0000000000000D+00
   325  3.2400000000000D+00  0.0000000000000D+00  0.0000000000000D+00
   326  3.2500000000000D+00  0.0000000000000D+00  0.0000000000000D+00
   327  3.2600000000000D+00  0.0000000000000D+00  0.0000000000000D+00
   328  3.2700000000000D+00  0.0000000000000D+00  0.0000000000000D+00
   329  3.2800000000000D+00  0.0000000000000D+00  0.0000000000000D+00
   330  3.2900000000000D+00  0.0000000000000D+00  0.0000000000000D+00
   331  3.3000000000000D+00  0.0000000000000D+00  0.0000000000000D+00
   332  3.3100000000000D+00  0.0000000000000D+00  0.0000000000000D+00
   333  3.3200000000000D+00  0.0000000000000D+00  0.0000000000000D+00
   334  3.3300000000000D+00  0.0000000000000D+00  0.0000000000000D+00
   335  3.3400000000000D+00  0.0000000000000D+00  0.0000000000000D+00
   336  3.3500000000000D+00  0.0000000000000D+00  0.0000000000000D+00
   337  3.3600000000000D+00  0.0000000000000D+00  0.0000000000000D+00
   338  3.3700000000000D+00  0.0000000000000D+00  0.0000000000000D+00
   339  3.3800000000000D+00  0.0000000000000D+00  0.0000000000000D+00
   340  3.3900000000000D+00  0.0000000000000D+00  0.0000000000000D+00
   341  3.4000000000000D+00  0.0000000000000D+00  0.0000000000000D+00
   342  3.4100000000000D+00  0.0000000000000D+00  0.0000000000000D+00
   343  3.4200000000000D+00  0.0000000000000D+00  0.0000000000000D+00
   344  3.4300000000000D+00  0.0000000000000D+00  0.0000000000000D+00
   345  3.4400000000000D+00  0.0000000000000D+00  0.0000000000000D+00
   346  3.4500000000000D+00  0.0000000000000D+00  0.0000000000000D+00
   347  3.4600000000000D+00  0.0000000000000D+00  0.0000000000000D+00
   348  3.4700000000000D+00  0.0000000000000D+00  0.0000000000000D+00
   349  3.4800000000000D+00  0.0000000000000D+00  0.0000000000000D+00
   350  3.4900000000000D+00  0.0000000000000D+00  0.0000000000000D+00
   351  3.5000000000000D+00  0.0000000000000D+00  0.0000000000000D+00
   352  3.5100000000000D+00  0.0000000000000D+00  0.0000000000000D+00
   353  3.5200000000000D+00  0.0000000000000D+00  0.0000000000000D+00
   354  3.5300000000000D+00  0.0000000000000D+00  0.0000000000000D+00
   355  3.5400000000000D+00  0.0000000000000D+00  0.0000000000000D+00
   356  3.5500000000000D+00  0.0000000000000D+00  0.0000000000000D+00
   357  3.5600000000000D+00  0.0000000000000D+00  0.0000000000000D+00
   358  3.5700000000000D+00  0.0000000000000D+00  0.0000000000000D+00
   359  3.5800000000000D+00  0.0000000000000D+00  0.0000000000000D+00
   360  3.5900000000000D+00  0.0000000000000D+00  0.0000000000000D+00
   361  3.6000000000000D+00  0.0000000000000D+00  0.0000000000000D+00
   362  3.6100000000000D+00  0.0000000000000D+00  0.0000000000000D+00
   363  3.6200000000000D+00  0.0000000000000D+00  0.0000000000000D+00
   364  3.6300000000000D+00  0.0000000000000D+00  0.0000000000000D+00
   365  3.6400000000000D+00  0.0000000000000D+00  0.0000000000000D+00
   366  3.6500000000000D+00  0.0000000000000D+00  0.0000000000000D+00
   367  3.6600000000000D+00  0.0000000000000D+00  0.0000000000000D+00
   368  3.6700000000000D+00  0.0000000000000D+00  0.0000000000000D+00
   369  3.6800000000000D+00  0.0000000000000D+00  0.0000000000000D+00
   370  3.6900000000000D+00  0.0000000000000D+00  0.0000000000000D+00
   371  3.7000000000000D+00  0.0000000000000D+00  0.0000000000000D+00
   372  3.7100000000000D+00  0.0000000000000D+00  0.0000000000000D+00
   373  3.7200000000000D+00  0.0000000000000D+00  0.0000000000000D+00
   374  3.7300000000000D+00  0.0000000000000D+00  0.0000000000000D+00
   375  3.7400000000000D+00  0.0000000000000D+00  0.0000000000000D+00
   376  3.7500000000000D+00  0.0000000000000D+00  0.0000000000000D+00
   377  3.7600000000000D+00  0.0000000000000D+00  0.0000000000000D+00
   378  3.7700000000000D+00  0.0000000000000D+00  0.0000000000000D+00
   379  3.7800000000000D+00  0.0000000000000D+00  0.0000000000000D+00
   380  3.7900000000000D+00  0.0000000000000D+00  0.0000000000000D+00
   381  3.8000000000000D+00  0.0000000000000D+00  0.0000000000000D+00
   382  3.8100000000000D+00  0.0000000000000D+00  0.0000000000000D+00
   383  3.8200000000000D+00  0.0000000000000D+00  0.0000000000000D+00
   384  3.8300000000000D+00  0.0000000000000D+00  0.0000000000000D+00
   385  3.8400000000000D+00  0.0000000000000D+00  0.0000000000000D+00
   386  3.8500000000000D+00  0.0000000000000D+00  0.0000000000000D+00
   387  3.8600000000000D+00  0.0000000000000D+00  0.0000000000000D+00
   388  3.8700000000000D+00  0.0000000000000D+00  0.0000000000000D+00
   389  3.8800000000000D+00  0.0000000000000D+00  0.0000000000000D+00
   390  3.8900000000000D+00  0.0000000000000D+00  0.0000000000000D+00
   391  3.9000000000000D+00  0.0000000000000D+00  0.0000000000000D+00
   392  3.9100000000000D+00  0.0000000000000D+00  0.0000000000000D+00
   393  3.9200000000000D+00  0.0000000000000D+00  0.0000000000000D+00
   394  3.9300000000000D+00  0.0000000000000D+00  0.0000000000000D+00
   395  3.9400000000000D+00  0.0000000000000D+00  0.0000000000000D+00
   396  3.9500000000000D+00  0.0000000000000D+00  0.0000000000000D+00
   397  3.9600000000000D+00  0.0000000000000D+00  0.0000000000000D+00
   398  3.9700000000000D+00  0.0000000000000D+00  0.0000000000000D+00
   399  3.9800000000000D+00  0.0000000000000D+00  0.0000000000000D+00
   400  3.9900000000000D+00  0.0000000000000D+00  0.0000000000000D+00
   401  4.0000000000000D+00  0.0000000000000D+00  0.0000000000000D+00
   402  4.0100000000000D+00  0.0000000000000D+00  0.0000000000000D+00
   403  4.0200000000000D+00  0.0000000000000D+00  0.0000000000000D+00
   404  4.0300000000000D+00  0.0000000000000D+00  0.0000000000000D+00
   405  4.0400000000000D+00  0.0000000000000D+00  0.0000000000000D+00
   406  4.0500000000000D+00  0.0000000000000D+00  0.0000000000000D+00
   407  4.0600000000000D+00  0.0000000000000D+00  0.0000000000000D+00
   408  4.0700000000000D+00  0.0000000000000D+00  0.0000000000000D+00
   409  4.0800000000000D+00  0.0000000000000D+00  0.0000000000000D+00
   410  4.0900000000000D+00  0.0000000000000D+00  0.0000000000000D+00
   411  4.1000000000000D+00  0.0000000000000D+00  0.0000000000000D+00
   412  4.1100000000000D+00  0.0000000000000D+00  0.0000000000000D+00
   413  4.1200000000000D+00  0.0000000000000D+00  0.0000000000000D+00
   414  4.1300000000000D+00  0.0000000000000D+00  0.0000000000000D+00
   415  4.1400000000000D+00  0.0000000000000D+00  0.0000000000000D+00
   416  4.1500000000000D+00  0.0000000000000D+00  0.0000000000000D+00
   417  4.1600000000000D+00  0.0000000000000D+00  0.0000000000000D+00
   418  4.1700000000000D+00  0.0000000000000D+00  0.0000000000000D+00
   419  4.1800000000000D+00  0.0000000000000D+00  0.0000000000000D+00
   420  4.1900000000000D+00  0.0000000000000D+00  0.0000000000000D+00
   421  4.2000000000000D+00  0.0000000000000D+00  0.0000000000000D+00
   422  4.2100000000000D+00  0.0000000000000D+00  0.0000000000000D+00