Ga    ONCVPSP-3.3.1  r_core=   2.35819   2.44411   1.99550
     31.0000     13.0000      210904    zatom,zion,pspd
     8      11   2     4   600     0    pspcod,pspxc,lmax,lloc,mmax,r2well
  5.99000000  0.00000000  0.00000000    rchrg fchrg qchrg
     2     3     2     0    nproj
     3     1           extension_switch
     4     3     0    nprojso
   0                         3.4824758310679D-01  4.8073777904844D+00
     1  0.0000000000000D+00 -2.5673622949807D-11  3.1648850207233D-12
     2  1.0000000000000D-02  3.8680928042995D-03  2.5413303070201D-02
     3  2.0000000000000D-02  7.6787631958893D-03  5.0824649792495D-02
     4  3.0000000000000D-02  1.1374906909209D-02  7.6232035428093D-02
     5  4.0000000000000D-02  1.4900054510945D-02  1.0163335867208D-01
     6  5.0000000000000D-02  1.8198685167525D-02  1.2702637390866D-01
     7  6.0000000000000D-02  2.1216536052388D-02  1.5240864411010D-01
     8  7.0000000000000D-02  2.3900905969754D-02  1.7777749459033D-01
     9  8.0000000000000D-02  2.6200951797298D-02  2.0312996782079D-01
    10  9.0000000000000D-02  2.8067976381979D-02  2.2846277951247D-01
    11  1.0000000000000D-01  2.9455706561217D-02  2.5377227616306D-01
    12  1.1000000000000D-01  3.0320560025433D-02  2.7905439426311D-01
    13  1.2000000000000D-01  3.0621899787527D-02  3.0430462134856D-01
    14  1.3000000000000D-01  3.0322275079855D-02  3.2951795908044D-01
    15  1.4000000000000D-01  2.9387647559564D-02  3.5468888852496D-01
    16  1.5000000000000D-01  2.7787601768401D-02  3.7981133779897D-01
    17  1.6000000000000D-01  2.5495538863069D-02  4.0487865223708D-01
    18  1.7000000000000D-01  2.2488852706488D-02  4.2988356722731D-01
    19  1.8000000000000D-01  1.8749087488833D-02  4.5481818385230D-01
    20  1.9000000000000D-01  1.4262076129192D-02  4.7967394746255D-01
    21  2.0000000000000D-01  9.0180587943475D-03  5.0444162929731D-01
    22  2.1000000000000D-01  3.0117809593976D-03  5.2911131125742D-01
    23  2.2000000000000D-01 -3.7574294737345D-03  5.5367237392240D-01
    24  2.3000000000000D-01 -1.1285606390900D-02  5.7811348789234D-01
    25  2.4000000000000D-01 -1.9564111309224D-02  6.0242260852224D-01
    26  2.5000000000000D-01 -2.8579621049095D-02  6.2658697410409D-01
    27  2.6000000000000D-01 -3.8314137336778D-02  6.5059310753875D-01
    28  2.7000000000000D-01 -4.8745018342119D-02  6.7442682152672D-01
    29  2.8000000000000D-01 -5.9845032058028D-02  6.9807322729344D-01
    30  2.9000000000000D-01 -7.1582431330658D-02  7.2151674685166D-01
    31  3.0000000000000D-01 -8.3921050252943D-02  7.4474112878953D-01
    32  3.1000000000000D-01 -9.6820421538285D-02  7.6772946756023D-01
    33  3.2000000000000D-01 -1.1023591439778D-01  7.9046422623502D-01
    34  3.3000000000000D-01 -1.2411889235239D-01  8.1292726266889D-01
    35  3.4000000000000D-01 -1.3841689032244D-01  8.3509985901430D-01
    36  3.5000000000000D-01 -1.5307381025032D-01  8.5696275450616D-01
    37  3.6000000000000D-01 -1.6803013442947D-01  8.7849618142804D-01
    38  3.7000000000000D-01 -1.8322315563299D-01  8.9967990415758D-01
    39  3.8000000000000D-01 -1.9858722306013D-01  9.2049326117676D-01
    40  3.9000000000000D-01 -2.1405400304764D-01  9.4091520992125D-01
    41  4.0000000000000D-01 -2.2955275342657D-01  9.6092437433159D-01
    42  4.1000000000000D-01 -2.4501061034395D-01  9.8049909495835D-01
    43  4.2000000000000D-01 -2.6035288631204D-01  9.9961748146298D-01
    44  4.3000000000000D-01 -2.7550337819779D-01  1.0182574673465D+00
    45  4.4000000000000D-01 -2.9038468381956D-01  1.0363968667288D+00
    46  4.5000000000000D-01 -3.0491852577964D-01  1.0540134329928D+00
    47  4.6000000000000D-01 -3.1902608112766D-01  1.0710849191003D+00
    48  4.7000000000000D-01 -3.3262831542376D-01  1.0875891393777D+00
    49  4.8000000000000D-01 -3.4564631974981D-01  1.1035040325657D+00
    50  4.9000000000000D-01 -3.5800164920314D-01  1.1188077259179D+00
    51  5.0000000000000D-01 -3.6961666140012D-01  1.1334786001319D+00
    52  5.1000000000000D-01 -3.8041485351620D-01  1.1474953548885D+00
    53  5.2000000000000D-01 -3.9032119639452D-01  1.1608370747749D+00
    54  5.3000000000000D-01 -3.9926246426839D-01  1.1734832953606D+00
    55  5.4000000000000D-01 -4.0716755866085D-01  1.1854140691975D+00
    56  5.5000000000000D-01 -4.1396782505091D-01  1.1966100315109D+00
    57  5.6000000000000D-01 -4.1959736092678D-01  1.2070524653502D+00
    58  5.7000000000000D-01 -4.2399331388482D-01  1.2167233659664D+00
    59  5.8000000000000D-01 -4.2709616847656D-01  1.2256055041882D+00
    60  5.9000000000000D-01 -4.2885002055529D-01  1.2336824885665D+00
    61  6.0000000000000D-01 -4.2920283792962D-01  1.2409388260642D+00
    62  6.1000000000000D-01 -4.2810670619112D-01  1.2473599810687D+00
    63  6.2000000000000D-01 -4.2551805864889D-01  1.2529324325113D+00
    64  6.3000000000000D-01 -4.2139788937413D-01  1.2576437288830D+00
    65  6.4000000000000D-01 -4.1571194843237D-01  1.2614825409398D+00
    66  6.5000000000000D-01 -4.0843091845933D-01  1.2644387119022D+00
    67  6.6000000000000D-01 -3.9953057181917D-01  1.2665033049553D+00
    68  6.7000000000000D-01 -3.8899190766944D-01  1.2676686478709D+00
    69  6.8000000000000D-01 -3.7680126834512D-01  1.2679283745753D+00
    70  6.9000000000000D-01 -3.6295043456591D-01  1.2672774635015D+00
    71  7.0000000000000D-01 -3.4743669906384D-01  1.2657122725715D+00
    72  7.1000000000000D-01 -3.3026291832273D-01  1.2632305706670D+00
    73  7.2000000000000D-01 -3.1143754221771D-01  1.2598315654561D+00
    74  7.3000000000000D-01 -2.9097462143918D-01  1.2555159274579D+00
    75  7.4000000000000D-01 -2.6889379268336D-01  1.2502858102377D+00
    76  7.5000000000000D-01 -2.4522024168776D-01  1.2441448666368D+00
    77  7.6000000000000D-01 -2.1998464428742D-01  1.2370982609577D+00
    78  7.7000000000000D-01 -1.9322308576190D-01  1.2291526770352D+00
    79  7.8000000000000D-01 -1.6497695883795D-01  1.2203163221381D+00
    80  7.9000000000000D-01 -1.3529284080411D-01  1.2105989266626D+00
    81  8.0000000000000D-01 -1.0422235028368D-01  1.2000117395884D+00
    82  8.1000000000000D-01 -7.1821984299029D-02  1.1885675196864D+00
    83  8.2000000000000D-01 -3.8152936344146D-02  1.1762805224781D+00
    84  8.3000000000000D-01 -3.2808962627114D-03  1.1631664829624D+00
    85  8.4000000000000D-01  3.2724167194974D-02  1.1492425941397D+00
    86  8.5000000000000D-01  6.9788240190521D-02  1.1345274813767D+00
    87  8.6000000000000D-01  1.0783351297827D-01  1.1190411726682D+00
    88  8.7000000000000D-01  1.4677864337288D-01  1.1028050648695D+00
    89  8.8000000000000D-01  1.8653903337014D-01  1.0858418859807D+00
    90  8.9000000000000D-01  2.2702711773608D-01  1.0681756535834D+00
    91  9.0000000000000D-01  2.6815266333250D-01  1.0498316295388D+00
    92  9.1000000000000D-01  3.0982307790677D-01  1.0308362710708D+00
    93  9.2000000000000D-01  3.5194372703915D-01  1.0112171783686D+00
    94  9.3000000000000D-01  3.9441825791261D-01  9.9100303885610D-01
    95  9.4000000000000D-01  4.3714892854767D-01  9.7022356828550D-01
    96  9.5000000000000D-01  4.8003694112968D-01  9.4890944882289D-01
    97  9.6000000000000D-01  5.2298277804594D-01  9.2709226430476D-01
    98  9.7000000000000D-01  5.6588653924758D-01  9.0480443285223D-01
    99  9.8000000000000D-01  6.0864827955436D-01  8.8207913703962D-01
   100  9.9000000000000D-01  6.5116834453039D-01  8.5895025182127D-01
   101  1.0000000000000D+00  6.9334770357511D-01  8.3545227042817D-01
   102  1.0100000000000D+00  7.3508827889557D-01  8.1162022845247D-01
   103  1.0200000000000D+00  7.7629326905518D-01  7.8748962634368D-01
   104  1.0300000000000D+00  8.1686746582740D-01  7.6309635054542D-01
   105  1.0400000000000D+00  8.5671756312238D-01  7.3847659350601D-01
   106  1.0500000000000D+00  8.9575245680107D-01  7.1366677279941D-01
   107  1.0600000000000D+00  9.3388353424018D-01  6.8870344959587D-01
   108  1.0700000000000D+00  9.7102495256729D-01  6.6362324672340D-01
   109  1.0800000000000D+00  1.0070939045472D+00  6.3846276656213D-01
   110  1.0900000000000D+00  1.0420108711573D+00  6.1325850901402D-01
   111  1.1000000000000D+00  1.0756998599680D+00  5.8804678978951D-01
   112  1.1100000000000D+00  1.1080886285078D+00  5.6286365925162D-01
   113  1.1200000000000D+00  1.1391088918737D+00  5.3774482205508D-01
   114  1.1300000000000D+00  1.1686965139152D+00  5.1272555781612D-01
   115  1.1400000000000D+00  1.1967916814096D+00  4.8784064304370D-01
   116  1.1500000000000D+00  1.2233390607228D+00  4.6312427455925D-01
   117  1.1600000000000D+00  1.2482879365412D+00  4.3860999462532D-01
   118  1.1700000000000D+00  1.2715923323247D+00  4.1433061799976D-01
   119  1.1800000000000D+00  1.2932111122355D+00  3.9031816112337D-01
   120  1.1900000000000D+00  1.3131080643767D+00  3.6660377364227D-01
   121  1.2000000000000D+00  1.3312519652630D+00  3.4321767245730D-01
   122  1.2100000000000D+00  1.3476166255029D+00  3.2018907848757D-01
   123  1.2200000000000D+00  1.3621809167989D+00  2.9754615632158D-01
   124  1.2300000000000D+00  1.3749287804315D+00  2.7531595692048D-01
   125  1.2400000000000D+00  1.3858492174488D+00  2.5352436353270D-01
   126  1.2500000000000D+00  1.3949362609021D+00  2.3219604096253D-01
   127  1.2600000000000D+00  1.4021889305293D+00  2.1135438832473D-01
   128  1.2700000000000D+00  1.4076111703315D+00  1.9102149541142D-01
   129  1.2800000000000D+00  1.4112117695881D+00  1.7121810278080D-01
   130  1.2900000000000D+00  1.4130042679245D+00  1.5196356566250D-01
   131  1.3000000000000D+00  1.4130068450632D+00  1.3327582177176D-01
   132  1.3100000000000D+00  1.4112421959857D+00  1.1517136310484D-01
   133  1.3200000000000D+00  1.4077373922867D+00  9.7665211771073D-02
   134  1.3300000000000D+00  1.4025237304968D+00  8.0770899920697D-02
   135  1.3400000000000D+00  1.3956365682537D+00  6.4500453798507D-02
   136  1.3500000000000D+00  1.3871151492111D+00  4.8864381941013D-02
   137  1.3600000000000D+00  1.3770024175758D+00  3.3871667544292D-02
   138  1.3700000000000D+00  1.3653448232540D+00  1.9529764983163D-02
   139  1.3800000000000D+00  1.3521921185449D+00  5.8446004753657D-03
   140  1.3900000000000D+00  1.3375971473694D+00 -7.1794231295308D-03
   141  1.4000000000000D+00  1.3216156280200D+00 -1.9539417492364D-02
   142  1.4100000000000D+00  1.3043059304183D+00 -3.1233995886874D-02
   143  1.4200000000000D+00  1.2857288488757D+00 -4.2263256339237D-02
   144  1.4300000000000D+00  1.2659473713152D+00 -5.2628760875469D-02
   145  1.4400000000000D+00  1.2450264459616D+00 -6.2333510946910D-02
   146  1.4500000000000D+00  1.2230327463860D+00 -7.1381919151628D-02
   147  1.4600000000000D+00  1.2000344358996D+00 -7.9779777327292D-02
   148  1.4700000000000D+00  1.1761009321367D+00 -8.7534221151576D-02
   149  1.4800000000000D+00  1.1513026727063D+00 -9.4653691359621D-02
   150  1.4900000000000D+00  1.1257108827845D+00 -1.0114789170683D-01
   151  1.5000000000000D+00  1.0993973453127D+00 -1.0702774382925D-01
   152  1.5100000000000D+00  1.0724341747352D+00 -1.1230533912188D-01
   153  1.5200000000000D+00  1.0448935947272D+00 -1.1699388781543D-01
   154  1.5300000000000D+00  1.0168477208044D+00 -1.2110766538040D-01
   155  1.5400000000000D+00  9.8836834818364D-01 -1.2466195644443D-01
   156  1.5500000000000D+00  9.5952674557687D-01 -1.2767299637375D-01
   157  1.5600000000000D+00  9.3039345532399D-01 -1.3015791069935D-01
   158  1.5700000000000D+00  9.0103810024512D-01 -1.3213465255857D-01
   159  1.5800000000000D+00  8.7152919769760D-01 -1.3362193832951D-01
   160  1.5900000000000D+00  8.4193398088330D-01 -1.3463918163918D-01
   161  1.6000000000000D+00  8.1231822797946D-01 -1.3520642592464D-01
   162  1.6100000000000D+00  7.8274609880494D-01 -1.3534427572755D-01
   163  1.6200000000000D+00  7.5327997966568D-01 -1.3507382690898D-01
   164  1.6300000000000D+00  7.2398033579267D-01 -1.3441659595399D-01
   165  1.6400000000000D+00  6.9490557202794D-01 -1.3339444856397D-01
   166  1.6500000000000D+00  6.6611190098011D-01 -1.3202952768984D-01
   167  1.6600000000000D+00  6.3765321919029D-01 -1.3034418121275D-01
   168  1.6700000000000D+00  6.0958099046198D-01 -1.2836088940814D-01
   169  1.6800000000000D+00  5.8194413672761D-01 -1.2610219240525D-01
   170  1.6900000000000D+00  5.5478893555997D-01 -1.2359061775803D-01
   171  1.7000000000000D+00  5.2815892455264D-01 -1.2084860834478D-01
   172  1.7100000000000D+00  5.0209481163364D-01 -1.1789845068744D-01
   173  1.7200000000000D+00  4.7663439140955D-01 -1.1476220391562D-01
   174  1.7300000000000D+00  4.5181246657177D-01 -1.1146162943387D-01
   175  1.7400000000000D+00  4.2766077434572D-01 -1.0801812153024D-01
   176  1.7500000000000D+00  4.0420791701416D-01 -1.0445263894277D-01
   177  1.7600000000000D+00  3.8147929636565D-01 -1.0078563764202D-01
   178  1.7700000000000D+00  3.5949705116395D-01 -9.7037004795984D-02
   179  1.7800000000000D+00  3.3827999731209D-01 -9.3225994195321D-02
   180  1.7900000000000D+00  3.1784356996655D-01 -8.9371163066703D-02
   181  1.8000000000000D+00  2.9819976704628D-01 -8.5490310543062D-02
   182  1.8100000000000D+00  2.7935709360702D-01 -8.1600417714465D-02
   183  1.8200000000000D+00  2.6132050065347D-01 -7.7717588778608D-02
   184  1.8300000000000D+00  2.4409135158043D-01 -7.3856997420469D-02
   185  1.8400000000000D+00  2.2766731031548D-01 -7.0032825229131D-02
   186  1.8500000000000D+00  2.1204237726317D-01 -6.6258221681677D-02
   187  1.8600000000000D+00  1.9720687021163D-01 -6.2545258248728D-02
   188  1.8700000000000D+00  1.8314705572222D-01 -5.8904840303303D-02
   189  1.8800000000000D+00  1.6984494553659D-01 -5.5346645981145D-02
   190  1.8900000000000D+00  1.5727953379607D-01 -5.1879243914859D-02
   191  1.9000000000000D+00  1.4542746737962D-01 -4.8510137650598D-02
   192  1.9100000000000D+00  1.3426385439382D-01 -4.5245863083786D-02
   193  1.9200000000000D+00  1.2376366700155D-01 -4.2092154050060D-02
   194  1.9300000000000D+00  1.1390176689181D-01 -3.9053945742888D-02
   195  1.9400000000000D+00  1.0465276179409D-01 -3.6135364880316D-02
   196  1.9500000000000D+00  9.5991098396575D-02 -3.3339750671502D-02
   197  1.9600000000000D+00  8.7891331559754D-02 -3.0669696892012D-02
   198  1.9700000000000D+00  8.0328145105720D-02 -2.8127069041339D-02
   199  1.9800000000000D+00  7.3276485457342D-02 -2.5713037157713D-02
   200  1.9900000000000D+00  6.6711645210064D-02 -2.3428105103371D-02
   201  2.0000000000000D+00  6.0609345361909D-02 -2.1272142242151D-02
   202  2.0100000000000D+00  5.4945809700739D-02 -1.9244416385551D-02
   203  2.0200000000000D+00  4.9697830587446D-02 -1.7343627895807D-02
   204  2.0300000000000D+00  4.4842825815455D-02 -1.5567944824518D-02
   205  2.0400000000000D+00  4.0358888129023D-02 -1.3915038929676D-02
   206  2.0500000000000D+00  3.6224825322632D-02 -1.2382122474958D-02
   207  2.0600000000000D+00  3.2420193428868D-02 -1.0965985650644D-02
   208  2.0700000000000D+00  2.8925321555684D-02 -9.6630344968222D-03
   209  2.0800000000000D+00  2.5721329283626D-02 -8.4693291947689D-03
   210  2.0900000000000D+00  2.2790137443495D-02 -7.3806225977790D-03
   211  2.1000000000000D+00  2.0114471266505D-02 -6.3923988480666D-03
   212  2.1100000000000D+00  1.7677857962514D-02 -5.4999119913795D-03
   213  2.1200000000000D+00  1.5464617786997D-02 -4.6982244037977D-03
   214  2.1300000000000D+00  1.3459849670920D-02 -3.9822449361167D-03
   215  2.1400000000000D+00  1.1649412067427D-02 -3.3467666696710D-03
   216  2.1500000000000D+00  1.0019898740617D-02 -2.7865040596156D-03
   217  2.1600000000000D+00  8.5586108526229D-03 -2.2961294930097D-03
   218  2.1700000000000D+00  7.2535253087624D-03 -1.8703089950585D-03
   219  2.1800000000000D+00  6.0932600555195D-03 -1.5037370198993D-03
   220  2.1900000000000D+00  5.0670368591053D-03 -1.1911703170100D-03
   221  2.2000000000000D+00  4.1646421859536D-03 -9.2746049853425D-04
   222  2.2100000000000D+00  3.3763864284885D-03 -7.0758550691387D-04
   223  2.2200000000000D+00  2.6930622743818D-03 -5.2667968515107D-04
   224  2.2300000000000D+00  2.1059028716180D-03 -3.8006231601510D-04
   225  2.2400000000000D+00  1.6065393982505D-03 -2.6326481854413D-04
   226  2.2500000000000D+00  1.1869599727195D-03 -1.7205609523522D-04
   227  2.2600000000000D+00  8.3946920967878D-04 -1.0246625880682D-04
   228  2.2700000000000D+00  5.5664869691263D-04 -5.0808680811514D-05
   229  2.2800000000000D+00  3.3107396330182D-04 -1.3644813895481D-05
   230  2.2900000000000D+00  1.5599494410353D-04  1.2037637204153D-05
   231  2.3000000000000D+00  2.5242745378694D-05  2.8822154242534D-05
   232  2.3100000000000D+00 -6.5615885536497D-05  3.8505242442368D-05
   233  2.3200000000000D+00 -1.2782475603309D-04  4.4277746865023D-05
   234  2.3300000000000D+00 -1.7136656260676D-04  4.8649550170149D-05
   235  2.3400000000000D+00 -2.0940359318844D-04  5.4720426853089D-05
   236  2.3500000000000D+00 -2.2287008238111D-04  5.6705847809222D-05
   237  2.3600000000000D+00 -1.9784633207516D-04  5.0099519678849D-05
   238  2.3700000000000D+00 -1.2529837441308D-04  3.1696602530437D-05
   239  2.3800000000000D+00 -4.3932050823904D-05  1.1127762332474D-05
   240  2.3900000000000D+00  1.1536453822875D-05 -2.9000847379936D-06
   241  2.4000000000000D+00  2.2236834458458D-05 -5.5872360040071D-06
   242  2.4100000000000D+00  9.8040220636227D-06 -2.4628063210231D-06
   243  2.4200000000000D+00 -2.9875177217695D-06  7.4884440539335D-07
   244  2.4300000000000D+00 -5.0002885720364D-06  1.2526804533784D-06
   245  2.4400000000000D+00 -1.9712919371976D-06  4.9363018847893D-07
   246  2.4500000000000D+00  3.8371254228127D-07 -9.7230508214585D-08
   247  2.4600000000000D+00  5.7573336121058D-07 -1.4588745776666D-07
   248  2.4700000000000D+00  1.9980752281477D-07 -5.0630054657262D-08
   249  2.4800000000000D+00  0.0000000000000D+00  0.0000000000000D+00
   250  2.4900000000000D+00  0.0000000000000D+00  0.0000000000000D+00
   251  2.5000000000000D+00  0.0000000000000D+00  0.0000000000000D+00
   252  2.5100000000000D+00  0.0000000000000D+00  0.0000000000000D+00
   253  2.5200000000000D+00  0.0000000000000D+00  0.0000000000000D+00
   254  2.5300000000000D+00  0.0000000000000D+00  0.0000000000000D+00
   255  2.5400000000000D+00  0.0000000000000D+00  0.0000000000000D+00
   256  2.5500000000000D+00  0.0000000000000D+00  0.0000000000000D+00
   257  2.5600000000000D+00  0.0000000000000D+00  0.0000000000000D+00
   258  2.5700000000000D+00  0.0000000000000D+00  0.0000000000000D+00
   259  2.5800000000000D+00  0.0000000000000D+00  0.0000000000000D+00
   260  2.5900000000000D+00  0.0000000000000D+00  0.0000000000000D+00
   261  2.6000000000000D+00  0.0000000000000D+00  0.0000000000000D+00
   262  2.6100000000000D+00  0.0000000000000D+00  0.0000000000000D+00
   263  2.6200000000000D+00  0.0000000000000D+00  0.0000000000000D+00
   264  2.6300000000000D+00  0.0000000000000D+00  0.0000000000000D+00
   265  2.6400000000000D+00  0.0000000000000D+00  0.0000000000000D+00
   266  2.6500000000000D+00  0.0000000000000D+00  0.0000000000000D+00
   267  2.6600000000000D+00  0.0000000000000D+00  0.0000000000000D+00
   268  2.6700000000000D+00  0.0000000000000D+00  0.0000000000000D+00
   269  2.6800000000000D+00  0.0000000000000D+00  0.0000000000000D+00
   270  2.6900000000000D+00  0.0000000000000D+00  0.0000000000000D+00
   271  2.7000000000000D+00  0.0000000000000D+00  0.0000000000000D+00
   272  2.7100000000000D+00  0.0000000000000D+00  0.0000000000000D+00
   273  2.7200000000000D+00  0.0000000000000D+00  0.0000000000000D+00
   274  2.7300000000000D+00  0.0000000000000D+00  0.0000000000000D+00
   275  2.7400000000000D+00  0.0000000000000D+00  0.0000000000000D+00
   276  2.7500000000000D+00  0.0000000000000D+00  0.0000000000000D+00
   277  2.7600000000000D+00  0.0000000000000D+00  0.0000000000000D+00
   278  2.7700000000000D+00  0.0000000000000D+00  0.0000000000000D+00
   279  2.7800000000000D+00  0.0000000000000D+00  0.0000000000000D+00
   280  2.7900000000000D+00  0.0000000000000D+00  0.0000000000000D+00
   281  2.8000000000000D+00  0.0000000000000D+00  0.0000000000000D+00
   282  2.8100000000000D+00  0.0000000000000D+00  0.0000000000000D+00
   283  2.8200000000000D+00  0.0000000000000D+00  0.0000000000000D+00
   284  2.8300000000000D+00  0.0000000000000D+00  0.0000000000000D+00
   285  2.8400000000000D+00  0.0000000000000D+00  0.0000000000000D+00
   286  2.8500000000000D+00  0.0000000000000D+00  0.0000000000000D+00
   287  2.8600000000000D+00  0.0000000000000D+00  0.0000000000000D+00
   288  2.8700000000000D+00  0.0000000000000D+00  0.0000000000000D+00
   289  2.8800000000000D+00  0.0000000000000D+00  0.0000000000000D+00
   290  2.8900000000000D+00  0.0000000000000D+00  0.0000000000000D+00
   291  2.9000000000000D+00  0.0000000000000D+00  0.0000000000000D+00
   292  2.9100000000000D+00  0.0000000000000D+00  0.0000000000000D+00
   293  2.9200000000000D+00  0.0000000000000D+00  0.0000000000000D+00
   294  2.9300000000000D+00  0.0000000000000D+00  0.0000000000000D+00
   295  2.9400000000000D+00  0.0000000000000D+00  0.0000000000000D+00
   296  2.9500000000000D+00  0.0000000000000D+00  0.0000000000000D+00
   297  2.9600000000000D+00  0.0000000000000D+00  0.0000000000000D+00
   298  2.9700000000000D+00  0.0000000000000D+00  0.0000000000000D+00
   299  2.9800000000000D+00  0.0000000000000D+00  0.0000000000000D+00
   300  2.9900000000000D+00  0.0000000000000D+00  0.0000000000000D+00
   301  3.0000000000000D+00  0.0000000000000D+00  0.0000000000000D+00
   302  3.0100000000000D+00  0.0000000000000D+00  0.0000000000000D+00
   303  3.0200000000000D+00  0.0000000000000D+00  0.0000000000000D+00
   304  3.0300000000000D+00  0.0000000000000D+00  0.0000000000000D+00
   305  3.0400000000000D+00  0.0000000000000D+00  0.0000000000000D+00
   306  3.0500000000000D+00  0.0000000000000D+00  0.0000000000000D+00
   307  3.0600000000000D+00  0.0000000000000D+00  0.0000000000000D+00
   308  3.0700000000000D+00  0.0000000000000D+00  0.0000000000000D+00
   309  3.0800000000000D+00  0.0000000000000D+00  0.0000000000000D+00
   310  3.0900000000000D+00  0.0000000000000D+00  0.0000000000000D+00
   311  3.1000000000000D+00  0.0000000000000D+00  0.0000000000000D+00
   312  3.1100000000000D+00  0.0000000000000D+00  0.0000000000000D+00
   313  3.1200000000000D+00  0.0000000000000D+00  0.0000000000000D+00
   314  3.1300000000000D+00  0.0000000000000D+00  0.0000000000000D+00
   315  3.1400000000000D+00  0.0000000000000D+00  0.0000000000000D+00
   316  3.1500000000000D+00  0.0000000000000D+00  0.0000000000000D+00
   317  3.1600000000000D+00  0.0000000000000D+00  0.0000000000000D+00
   318  3.1700000000000D+00  0.0000000000000D+00  0.0000000000000D+00
   319  3.1800000000000D+00  0.0000000000000D+00  0.0000000000000D+00
   320  3.1900000000000D+00  0.0000000000000D+00  0.0000000000000D+00
   321  3.2000000000000D+00  0.0000000000000D+00  0.0000000000000D+00
   322  3.2100000000000D+00  0.0000000000000D+00  0.0000000000000D+00
   323  3.2200000000000D+00  0.0000000000000D+00  0.0000000000000D+00
   324  3.2300000000000D+00  0.0000000000000D+00  0.0000000000000D+00
   325  3.2400000000000D+00  0.0000000000000D+00  0.0000000000000D+00
   326  3.2500000000000D+00  0.0000000000000D+00  0.0000000000000D+00
   327  3.2600000000000D+00  0.0000000000000D+00  0.0000000000000D+00
   328  3.2700000000000D+00  0.0000000000000D+00  0.0000000000000D+00
   329  3.2800000000000D+00  0.0000000000000D+00  0.0000000000000D+00
   330  3.2900000000000D+00  0.0000000000000D+00  0.0000000000000D+00
   331  3.3000000000000D+00  0.0000000000000D+00  0.0000000000000D+00
   332  3.3100000000000D+00  0.0000000000000D+00  0.0000000000000D+00
   333  3.3200000000000D+00  0.0000000000000D+00  0.0000000000000D+00
   334  3.3300000000000D+00  0.0000000000000D+00  0.0000000000000D+00
   335  3.3400000000000D+00  0.0000000000000D+00  0.0000000000000D+00
   336  3.3500000000000D+00  0.0000000000000D+00  0.0000000000000D+00
   337  3.3600000000000D+00  0.0000000000000D+00  0.0000000000000D+00
   338  3.3700000000000D+00  0.0000000000000D+00  0.0000000000000D+00
   339  3.3800000000000D+00  0.0000000000000D+00  0.0000000000000D+00
   340  3.3900000000000D+00  0.0000000000000D+00  0.0000000000000D+00
   341  3.4000000000000D+00  0.0000000000000D+00  0.0000000000000D+00
   342  3.4100000000000D+00  0.0000000000000D+00  0.0000000000000D+00
   343  3.4200000000000D+00  0.0000000000000D+00  0.0000000000000D+00
   344  3.4300000000000D+00  0.0000000000000D+00  0.0000000000000D+00
   345  3.4400000000000D+00  0.0000000000000D+00  0.0000000000000D+00
   346  3.4500000000000D+00  0.0000000000000D+00  0.0000000000000D+00
   347  3.4600000000000D+00  0.0000000000000D+00  0.0000000000000D+00
   348  3.4700000000000D+00  0.0000000000000D+00  0.0000000000000D+00
   349  3.4800000000000D+00  0.0000000000000D+00  0.0000000000000D+00
   350  3.4900000000000D+00  0.0000000000000D+00  0.0000000000000D+00
   351  3.5000000000000D+00  0.0000000000000D+00  0.0000000000000D+00
   352  3.5100000000000D+00  0.0000000000000D+00  0.0000000000000D+00
   353  3.5200000000000D+00  0.0000000000000D+00  0.0000000000000D+00
   354  3.5300000000000D+00  0.0000000000000D+00  0.0000000000000D+00
   355  3.5400000000000D+00  0.0000000000000D+00  0.0000000000000D+00
   356  3.5500000000000D+00  0.0000000000000D+00  0.0000000000000D+00
   357  3.5600000000000D+00  0.0000000000000D+00  0.0000000000000D+00
   358  3.5700000000000D+00  0.0000000000000D+00  0.0000000000000D+00
   359  3.5800000000000D+00  0.0000000000000D+00  0.0000000000000D+00
   360  3.5900000000000D+00  0.0000000000000D+00  0.0000000000000D+00
   361  3.6000000000000D+00  0.0000000000000D+00  0.0000000000000D+00
   362  3.6100000000000D+00  0.0000000000000D+00  0.0000000000000D+00
   363  3.6200000000000D+00  0.0000000000000D+00  0.0000000000000D+00
   364  3.6300000000000D+00  0.0000000000000D+00  0.0000000000000D+00
   365  3.6400000000000D+00  0.0000000000000D+00  0.0000000000000D+00
   366  3.6500000000000D+00  0.0000000000000D+00  0.0000000000000D+00
   367  3.6600000000000D+00  0.0000000000000D+00  0.0000000000000D+00
   368  3.6700000000000D+00  0.0000000000000D+00  0.0000000000000D+00
   369  3.6800000000000D+00  0.0000000000000D+00  0.0000000000000D+00
   370  3.6900000000000D+00  0.0000000000000D+00  0.0000000000000D+00
   371  3.7000000000000D+00  0.0000000000000D+00  0.0000000000000D+00
   372  3.7100000000000D+00  0.0000000000000D+00  0.0000000000000D+00
   373  3.7200000000000D+00  0.0000000000000D+00  0.0000000000000D+00
   374  3.7300000000000D+00  0.0000000000000D+00  0.0000000000000D+00
   375  3.7400000000000D+00  0.0000000000000D+00  0.0000000000000D+00
   376  3.7500000000000D+00  0.0000000000000D+00  0.0000000000000D+00
   377  3.7600000000000D+00  0.0000000000000D+00  0.0000000000000D+00
   378  3.7700000000000D+00  0.0000000000000D+00  0.0000000000000D+00
   379  3.7800000000000D+00  0.0000000000000D+00  0.0000000000000D+00
   380  3.7900000000000D+00  0.0000000000000D+00  0.0000000000000D+00
   381  3.8000000000000D+00  0.0000000000000D+00  0.0000000000000D+00
   382  3.8100000000000D+00  0.0000000000000D+00  0.0000000000000D+00
   383  3.8200000000000D+00  0.0000000000000D+00  0.0000000000000D+00
   384  3.8300000000000D+00  0.0000000000000D+00  0.0000000000000D+00
   385  3.8400000000000D+00  0.0000000000000D+00  0.0000000000000D+00
   386  3.8500000000000D+00  0.0000000000000D+00  0.0000000000000D+00
   387  3.8600000000000D+00  0.0000000000000D+00  0.0000000000000D+00
   388  3.8700000000000D+00  0.0000000000000D+00  0.0000000000000D+00
   389  3.8800000000000D+00  0.0000000000000D+00  0.0000000000000D+00
   390  3.8900000000000D+00  0.0000000000000D+00  0.0000000000000D+00
   391  3.9000000000000D+00  0.0000000000000D+00  0.0000000000000D+00
   392  3.9100000000000D+00  0.0000000000000D+00  0.0000000000000D+00
   393  3.9200000000000D+00  0.0000000000000D+00  0.0000000000000D+00
   394  3.9300000000000D+00  0.0000000000000D+00  0.0000000000000D+00
   395  3.9400000000000D+00  0.0000000000000D+00  0.0000000000000D+00
   396  3.9500000000000D+00  0.0000000000000D+00  0.0000000000000D+00
   397  3.9600000000000D+00  0.0000000000000D+00  0.0000000000000D+00
   398  3.9700000000000D+00  0.0000000000000D+00  0.0000000000000D+00
   399  3.9800000000000D+00  0.0000000000000D+00  0.0000000000000D+00
   400  3.9900000000000D+00  0.0000000000000D+00  0.0000000000000D+00
   401  4.0000000000000D+00  0.0000000000000D+00  0.0000000000000D+00
   402  4.0100000000000D+00  0.0000000000000D+00  0.0000000000000D+00
   403  4.0200000000000D+00  0.0000000000000D+00  0.0000000000000D+00
   404  4.0300000000000D+00  0.0000000000000D+00  0.0000000000000D+00
   405  4.0400000000000D+00  0.0000000000000D+00  0.0000000000000D+00
   406  4.0500000000000D+00  0.0000000000000D+00  0.0000000000000D+00
   407  4.0600000000000D+00  0.0000000000000D+00  0.0000000000000D+00
   408  4.0700000000000D+00  0.0000000000000D+00  0.0000000000000D+00
   409  4.0800000000000D+00  0.0000000000000D+00  0.0000000000000D+00
   410  4.0900000000000D+00  0.0000000000000D+00  0.0000000000000D+00
   411  4.1000000000000D+00  0.0000000000000D+00  0.0000000000000D+00
   412  4.1100000000000D+00  0.0000000000000D+00  0.0000000000000D+00
   413  4.1200000000000D+00  0.0000000000000D+00  0.0000000000000D+00
   414  4.1300000000000D+00  0.0000000000000D+00  0.0000000000000D+00
   415  4.1400000000000D+00  0.0000000000000D+00  0.0000000000000D+00
   416  4.1500000000000D+00  0.0000000000000D+00  0.0000000000000D+00
   417  4.1600000000000D+00  0.0000000000000D+00  0.0000000000000D+00
   418  4.1700000000000D+00  0.0000000000000D+00  0.0000000000000D+00
   419  4.1800000000000D+00  0.0000000000000D+00  0.0000000000000D+00
   420  4.1900000000000D+00  0.0000000000000D+00  0.0000000000000D+00
   421  4.2000000000000D+00  0.0000000000000D+00  0.0000000000000D+00
   422  4.2100000000000D+00  0.0000000000000D+00  0.0000000000000D+00