Ge    ONCVPSP-3.3.1  r_core=   2.66770   2.57393   2.66770
     32.0000     14.0000      210904    zatom,zion,pspd
     8      11   2     4   600     0    pspcod,pspxc,lmax,lloc,mmax,r2well
  5.99000000  0.00000000  0.00000000    rchrg fchrg qchrg
     2     3     2     0    nproj
     3     1           extension_switch
     3     3     0    nprojso
   0                         7.3993566675819D-01  8.5059829018935D+00
     1  0.0000000000000D+00  7.1489758557419D-12 -3.5622615968123D-12
     2  1.0000000000000D-02 -3.1650169043892D-02  4.9834426313633D-02
     3  2.0000000000000D-02 -6.3210241920220D-02  9.9600900416848D-02
     4  3.0000000000000D-02 -9.4590351768791D-02  1.4923160448292D-01
     5  4.0000000000000D-02 -1.2570108971647D-01  1.9865898912369D-01
     6  5.0000000000000D-02 -1.5645373230332D-01  2.4781590678776D-01
     7  6.0000000000000D-02 -1.8676046703293D-01  2.9663574417579D-01
     8  7.0000000000000D-02 -2.1653461543007D-01  3.4505255334959D-01
     9  8.0000000000000D-02 -2.4569085299606D-01  3.9300118121510D-01
    10  9.0000000000000D-02 -2.7414542546101D-01  4.4041739706386D-01
    11  1.0000000000000D-01 -3.0181636074308D-01  4.8723801786288D-01
    12  1.1000000000000D-01 -3.2862367603685D-01  5.3340103098895D-01
    13  1.2000000000000D-01 -3.5448957946739D-01  5.7884571411053D-01
    14  1.3000000000000D-01 -3.7933866576190D-01  6.2351275192799D-01
    15  1.4000000000000D-01 -4.0309810540831D-01  6.6734434949163D-01
    16  1.5000000000000D-01 -4.2569782678886D-01  7.1028434182632D-01
    17  1.6000000000000D-01 -4.4707069079692D-01  7.5227829960165D-01
    18  1.7000000000000D-01 -4.6715265746716D-01  7.9327363059722D-01
    19  1.8000000000000D-01 -4.8588294417194D-01  8.3321967672419D-01
    20  1.9000000000000D-01 -5.0320417496131D-01  8.7206780637652D-01
    21  2.0000000000000D-01 -5.1906252064941D-01  9.0977150189774D-01
    22  2.1000000000000D-01 -5.3340782927690D-01  9.4628644196273D-01
    23  2.2000000000000D-01 -5.4619374660650D-01  9.8157057868754D-01
    24  2.3000000000000D-01 -5.5737782633777D-01  1.0155842092950D+00
    25  2.4000000000000D-01 -5.6692162975664D-01  1.0482900421782D+00
    26  2.5000000000000D-01 -5.7479081456573D-01  1.0796532572199D+00
    27  2.6000000000000D-01 -5.8095521267264D-01  1.1096415602399D+00
    28  2.7000000000000D-01 -5.8538889674527D-01  1.1382252314615D+00
    29  2.8000000000000D-01 -5.8807023537529D-01  1.1653771679004D+00
    30  2.9000000000000D-01 -5.8898193672412D-01  1.1910729195981D+00
    31  3.0000000000000D-01 -5.8811108055830D-01  1.2152907196401D+00
    32  3.1000000000000D-01 -5.8544913861513D-01  1.2380115079116D+00
    33  3.2000000000000D-01 -5.8099198327239D-01  1.2592189485636D+00
    34  3.3000000000000D-01 -5.7473988453011D-01  1.2788994411800D+00
    35  3.4000000000000D-01 -5.6669749534519D-01  1.2970421256485D+00
    36  3.5000000000000D-01 -5.5687382539376D-01  1.3136388807613D+00
    37  3.6000000000000D-01 -5.4528220336875D-01  1.3286843165822D+00
    38  3.7000000000000D-01 -5.3194022795310D-01  1.3421757606388D+00
    39  3.8000000000000D-01 -5.1686970764140D-01  1.3541132380100D+00
    40  3.9000000000000D-01 -5.0009658961447D-01  1.3644994453995D+00
    41  4.0000000000000D-01 -4.8165087790248D-01  1.3733397192984D+00
    42  4.1000000000000D-01 -4.6156654110258D-01  1.3806419983572D+00
    43  4.2000000000000D-01 -4.3988140994680D-01  1.3864167801035D+00
    44  4.3000000000000D-01 -4.1663706504422D-01  1.3906770721532D+00
    45  4.4000000000000D-01 -3.9187871514940D-01  1.3934383380818D+00
    46  4.5000000000000D-01 -3.6565506633541D-01  1.3947184381315D+00
    47  4.6000000000000D-01 -3.3801818247523D-01  1.3945375649458D+00
    48  4.7000000000000D-01 -3.0902333745932D-01  1.3929181745363D+00
    49  4.8000000000000D-01 -2.7872885960014D-01  1.3898849126946D+00
    50  4.9000000000000D-01 -2.4719596869544D-01  1.3854645370791D+00
    51  5.0000000000000D-01 -2.1448860624254D-01  1.3796858352103D+00
    52  5.1000000000000D-01 -1.8067325931371D-01  1.3725795386263D+00
    53  5.2000000000000D-01 -1.4581877861999D-01  1.3641782334491D+00
    54  5.3000000000000D-01 -1.0999619130571D-01  1.3545162676318D+00
    55  5.4000000000000D-01 -7.3278509029595D-02  1.3436296551536D+00
    56  5.5000000000000D-01 -3.5740531900037D-02  1.3315559774444D+00
    57  5.6000000000000D-01  2.5413511577613D-03  1.3183342823217D+00
    58  5.7000000000000D-01  4.1489365017029D-02  1.3040049807291D+00
    59  5.8000000000000D-01  8.1024553354736D-02  1.2886097415706D+00
    60  5.9000000000000D-01  1.2106698545019D-01  1.2721913849346D+00
    61  6.0000000000000D-01  1.6153596417740D-01  1.2547937740092D+00
    62  6.1000000000000D-01  2.0235023459090D-01  1.2364617059860D+00
    63  6.2000000000000D-01  2.4342819250559D-01  1.2172408022536D+00
    64  6.3000000000000D-01  2.8468809247420D-01  1.1971773981812D+00
    65  6.4000000000000D-01  3.2604825457064D-01  1.1763184327895D+00
    66  6.5000000000000D-01  3.6742726939400D-01  1.1547113386044D+00
    67  6.6000000000000D-01  4.0874420071634D-01  1.1324039319891D+00
    68  6.7000000000000D-01  4.4991878520768D-01  1.1094443042388D+00
    69  6.8000000000000D-01  4.9087162868332D-01  1.0858807137268D+00
    70  6.9000000000000D-01  5.3152439833225D-01  1.0617614793752D+00
    71  7.0000000000000D-01  5.7180001040086D-01  1.0371348757256D+00
    72  7.1000000000000D-01  6.1162281282268D-01  1.0120490298706D+00
    73  7.2000000000000D-01  6.5091876230367D-01  9.8655182050420D-01
    74  7.3000000000000D-01  6.8961559539217D-01  9.6069077933678D-01
    75  7.4000000000000D-01  7.2764299308417D-01  9.3451299511196D-01
    76  7.5000000000000D-01  7.6493273853720D-01  9.0806502045283D-01
    77  7.6000000000000D-01  8.0141886748997D-01  8.8139278175314D-01
    78  7.7000000000000D-01  8.3703781101008D-01  8.5454149231803D-01
    79  7.8000000000000D-01  8.7172853021873D-01  8.2755556894667D-01
    80  7.9000000000000D-01  9.0543264266779D-01  8.0047855213644D-01
    81  8.0000000000000D-01  9.3809454007390D-01  7.7335303007546D-01
    82  8.1000000000000D-01  9.6966149714207D-01  7.4622056657632D-01
    83  8.2000000000000D-01  1.0000837712423D+00  7.1912163309039D-01
    84  8.3000000000000D-01  1.0293146927316D+00  6.9209554492752D-01
    85  8.4000000000000D-01  1.0573107457464D+00  6.6518040179152D-01
    86  8.5000000000000D-01  1.0840316393204D+00  6.3841303272715D-01
    87  8.6000000000000D-01  1.1094403687139D+00  6.1182894555924D-01
    88  8.7000000000000D-01  1.1335032668755D+00  5.8546228088948D-01
    89  8.8000000000000D-01  1.1561900459852D+00  5.5934577070146D-01
    90  8.9000000000000D-01  1.1774738290617D+00  5.3351070160929D-01
    91  9.0000000000000D-01  1.1973311716494D+00  5.0798688276968D-01
    92  9.1000000000000D-01  1.2157420736299D+00  4.8280261846279D-01
    93  9.2000000000000D-01  1.2326899812348D+00  4.5798468533203D-01
    94  9.3000000000000D-01  1.2481617793689D+00  4.3355831425786D-01
    95  9.4000000000000D-01  1.2621477743806D+00  4.0954717682694D-01
    96  9.5000000000000D-01  1.2746416674471D+00  3.8597337634282D-01
    97  9.6000000000000D-01  1.2856405187710D+00  3.6285744331131D-01
    98  9.7000000000000D-01  1.2951447028114D+00  3.4021833531953D-01
    99  9.8000000000000D-01  1.3031578548016D+00  3.1807344121488D-01
   100  9.9000000000000D-01  1.3096868088288D+00  2.9643858947750D-01
   101  1.0000000000000D+00  1.3147415277786D+00  2.7532806066759D-01
   102  1.0100000000000D+00  1.3183350254683D+00  2.5475460381761D-01
   103  1.0200000000000D+00  1.3204832813161D+00  2.3472945662822D-01
   104  1.0300000000000D+00  1.3212051479159D+00  2.1526236931655D-01
   105  1.0400000000000D+00  1.3205222519022D+00  1.9636163195586D-01
   106  1.0500000000000D+00  1.3184588885137D+00  1.7803410513650D-01
   107  1.0600000000000D+00  1.3150419102747D+00  1.6028525376973D-01
   108  1.0700000000000D+00  1.3103006102318D+00  1.4311918384900D-01
   109  1.0800000000000D+00  1.3042666001953D+00  1.2653868197587D-01
   110  1.0900000000000D+00  1.2969736844462D+00  1.1054525745202D-01
   111  1.1000000000000D+00  1.2884577293789D+00  9.5139186733963D-02
   112  1.1100000000000D+00  1.2787565295584D+00  8.0319560042078D-02
   113  1.1200000000000D+00  1.2679096706760D+00  6.6084329913013D-02
   114  1.1300000000000D+00  1.2559583898932D+00  5.2430361480692D-02
   115  1.1400000000000D+00  1.2429454340650D+00  3.9353484270104D-02
   116  1.1500000000000D+00  1.2289149163327D+00  2.6848545286953D-02
   117  1.1600000000000D+00  1.2139121715820D+00  1.4909463185638D-02
   118  1.1700000000000D+00  1.1979836112494D+00  3.5292832989888D-03
   119  1.1800000000000D+00  1.1811765779651D+00 -7.2997666853007D-03
   120  1.1900000000000D+00  1.1635392005064D+00 -1.7586220614351D-02
   121  1.2000000000000D+00  1.1451202495353D+00 -2.7339317536409D-02
   122  1.2100000000000D+00  1.1259689945771D+00 -3.6568945349517D-02
   123  1.2200000000000D+00  1.1061350626887D+00 -4.5285584633085D-02
   124  1.2300000000000D+00  1.0856682992570D+00 -5.3500252860913D-02
   125  1.2400000000000D+00  1.0646186313457D+00 -6.1224449184559D-02
   126  1.2500000000000D+00  1.0430359339965D+00 -6.8470099969791D-02
   127  1.2600000000000D+00  1.0209698998771D+00 -7.5249505265008D-02
   128  1.2700000000000D+00  9.9846991264851D-01 -8.1575286369619D-02
   129  1.2800000000000D+00  9.7558492439528D-01 -8.7460334660036D-02
   130  1.2900000000000D+00  9.5236333746051D-01 -9.2917761828486D-02
   131  1.3000000000000D+00  9.2885289099276D-01 -9.7960851675978D-02
   132  1.3100000000000D+00  9.0510055248235D-01 -1.0260301358695D-01
   133  1.3200000000000D+00  8.8115241456737D-01 -1.0685773781486D-01
   134  1.3300000000000D+00  8.5705359734240D-01 -1.1073855268710D-01
   135  1.3400000000000D+00  8.3284815637133D-01 -1.1425898382372D-01
   136  1.3500000000000D+00  8.0857899662593D-01 -1.1743251547338D-01
   137  1.3600000000000D+00  7.8428779248586D-01 -1.2027255403216D-01
   138  1.3700000000000D+00  7.6001491394452D-01 -1.2279239381479D-01
   139  1.3800000000000D+00  7.3579935915585D-01 -1.2500518514363D-01
   140  1.3900000000000D+00  7.1167869336886D-01 -1.2692390478204D-01
   141  1.4000000000000D+00  6.8768899434604D-01 -1.2856132876031D-01
   142  1.4100000000000D+00  6.6386480428533D-01 -1.2993000760906D-01
   143  1.4200000000000D+00  6.4023908823302D-01 -1.3104224400059D-01
   144  1.4300000000000D+00  6.1684319902071D-01 -1.3191007281865D-01
   145  1.4400000000000D+00  5.9370684861876D-01 -1.3254524361597D-01
   146  1.4500000000000D+00  5.7085808589218D-01 -1.3295920545937D-01
   147  1.4600000000000D+00  5.4832328063958D-01 -1.3316309411639D-01
   148  1.4700000000000D+00  5.2612711378983D-01 -1.3316772153517D-01
   149  1.4800000000000D+00  5.0429257366302D-01 -1.3298356758267D-01
   150  1.4900000000000D+00  4.8284095806198D-01 -1.3262077394607D-01
   151  1.5000000000000D+00  4.6179188209810D-01 -1.3208914016136D-01
   152  1.5100000000000D+00  4.4116329147086D-01 -1.3139812165383D-01
   153  1.5200000000000D+00  4.2097148103752D-01 -1.3055682972566D-01
   154  1.5300000000000D+00  4.0123111840641D-01 -1.2957403338141D-01
   155  1.5400000000000D+00  3.8195527229903D-01 -1.2845816288829D-01
   156  1.5500000000000D+00  3.6315544543660D-01 -1.2721731497092D-01
   157  1.5600000000000D+00  3.4484161162024D-01 -1.2585925950650D-01
   158  1.5700000000000D+00  3.2702225677092D-01 -1.2439144762390D-01
   159  1.5800000000000D+00  3.0970442355065D-01 -1.2282102105391D-01
   160  1.5900000000000D+00  2.9289375931890D-01 -1.2115482262874D-01
   161  1.6000000000000D+00  2.7659456703455D-01 -1.1939940777465D-01
   162  1.6100000000000D+00  2.6080985882320D-01 -1.1756105688169D-01
   163  1.6200000000000D+00  2.4554141183285D-01 -1.1564578840092D-01
   164  1.6300000000000D+00  2.3078982606463D-01 -1.1365937254016D-01
   165  1.6400000000000D+00  2.1655458381537D-01 -1.1160734541512D-01
   166  1.6500000000000D+00  2.0283411040045D-01 -1.0949502352114D-01
   167  1.6600000000000D+00  1.8962583580390D-01 -1.0732751838693D-01
   168  1.6700000000000D+00  1.7692625692076D-01 -1.0510975127656D-01
   169  1.6800000000000D+00  1.6473100004694D-01 -1.0284646780500D-01
   170  1.6900000000000D+00  1.5303488328951D-01 -1.0054225233880D-01
   171  1.7000000000000D+00  1.4183197856376D-01 -9.8201542053190D-02
   172  1.7100000000000D+00  1.3111567286259D-01 -9.5828640524135D-02
   173  1.7200000000000D+00  1.2087872848535D-01 -9.3427730737043D-02
   174  1.7300000000000D+00  1.1111334192091D-01 -9.1002887395739D-02
   175  1.7400000000000D+00  1.0181120111061D-01 -8.8558088432231D-02
   176  1.7500000000000D+00  9.2963540782135D-02 -8.6097225599422D-02
   177  1.7600000000000D+00  8.4561195645318D-02 -8.3624114078521D-02
   178  1.7700000000000D+00  7.6594651113710D-02 -8.1142500970927D-02
   179  1.7800000000000D+00  6.9054091444928D-02 -7.8656072653924D-02
   180  1.7900000000000D+00  6.1929444902255D-02 -7.6168460842239D-02
   181  1.8000000000000D+00  5.5210425977518D-02 -7.3683247401985D-02
   182  1.8100000000000D+00  4.8886574174620D-02 -7.1203967713235D-02
   183  1.8200000000000D+00  4.2947289585551D-02 -6.8734112713559D-02
   184  1.8300000000000D+00  3.7381864638883D-02 -6.6277129367106D-02
   185  1.8400000000000D+00  3.2179512405399D-02 -6.3836419757803D-02
   186  1.8500000000000D+00  2.7329390840046D-02 -6.1415338554222D-02
   187  1.8600000000000D+00  2.2820623333214D-02 -5.9017189036071D-02
   188  1.8700000000000D+00  1.8642315120747D-02 -5.6645217508729D-02
   189  1.8800000000000D+00  1.4783565765786D-02 -5.4302606222506D-02
   190  1.8900000000000D+00  1.1233477555771D-02 -5.1992464753628D-02
   191  1.9000000000000D+00  7.9811597644462D-03 -4.9717819848570D-02
   192  1.9100000000000D+00  5.0157290021163D-03 -4.7481603851497D-02
   193  1.9200000000000D+00  2.3263052766796D-03 -4.5286641579459D-02
   194  1.9300000000000D+00 -9.7995616515014D-05 -4.3135635927267D-02
   195  1.9400000000000D+00 -2.2680739906614D-03 -4.1031151973428D-02
   196  1.9500000000000D+00 -4.1948617140969D-03 -3.8975599911268D-02
   197  1.9600000000000D+00 -5.8893416152843D-03 -3.6971216667216D-02
   198  1.9700000000000D+00 -7.3625704522270D-03 -3.5020046387405D-02
   199  1.9800000000000D+00 -8.6257054393719D-03 -3.3123919826602D-02
   200  1.9900000000000D+00 -9.6900377669416D-03 -3.1284431460008D-02
   201  2.0000000000000D+00 -1.0567008601039D-02 -2.9502922956964D-02
   202  2.0100000000000D+00 -1.1268293525245D-02 -2.7780442705841D-02
   203  2.0200000000000D+00 -1.1805747349914D-02 -2.6117755477738D-02
   204  2.0300000000000D+00 -1.2191490694153D-02 -2.4515301262076D-02
   205  2.0400000000000D+00 -1.2438045891850D-02 -2.2973137512822D-02
   206  2.0500000000000D+00 -1.2558489408394D-02 -2.1490877582030D-02
   207  2.0600000000000D+00 -1.2565963130780D-02 -2.0067852859317D-02
   208  2.0700000000000D+00 -1.2473473035297D-02 -1.8703171661027D-02
   209  2.0800000000000D+00 -1.2293653151127D-02 -1.7395802971072D-02
   210  2.0900000000000D+00 -1.2038424590385D-02 -1.6144696247918D-02
   211  2.1000000000000D+00 -1.1718715028906D-02 -1.4948881319876D-02
   212  2.1100000000000D+00 -1.1344668614442D-02 -1.3807397423626D-02
   213  2.1200000000000D+00 -1.0925771776607D-02 -1.2719255626006D-02
   214  2.1300000000000D+00 -1.0470761857477D-02 -1.1683473088992D-02
   215  2.1400000000000D+00 -9.9876601045234D-03 -1.0699065983668D-02
   216  2.1500000000000D+00 -9.4838127798252D-03 -9.7650400146683D-03
   217  2.1600000000000D+00 -8.9659005235024D-03 -8.8803921862097D-03
   218  2.1700000000000D+00 -8.4399665689032D-03 -8.0441064293078D-03
   219  2.1800000000000D+00 -7.9114421301250D-03 -7.2551506420012D-03
   220  2.1900000000000D+00 -7.3851726455653D-03 -6.5124738039819D-03
   221  2.2000000000000D+00 -6.8654447568153D-03 -5.8150031977997D-03
   222  2.2100000000000D+00 -6.3560136983107D-03 -5.1616419415827D-03
   223  2.2200000000000D+00 -5.8601312456433D-03 -4.5512666420244D-03
   224  2.2300000000000D+00 -5.3805738313842D-03 -3.9827254022275D-03
   225  2.2400000000000D+00 -4.9196707405830D-03 -3.4548361863378D-03
   226  2.2500000000000D+00 -4.4793325510071D-03 -2.9663853851178D-03
   227  2.2600000000000D+00 -4.0610791508333D-03 -2.5161269606386D-03
   228  2.2700000000000D+00 -3.6660677284366D-03 -2.1027818773279D-03
   229  2.2800000000000D+00 -3.2951204927955D-03 -1.7250379270237D-03
   230  2.2900000000000D+00 -2.9487516917297D-03 -1.3815501558321D-03
   231  2.3000000000000D+00 -2.6271944309075D-03 -1.0709415675804D-03
   232  2.3100000000000D+00 -2.3304267254935D-03 -7.9180438158951D-04
   233  2.3200000000000D+00 -2.0581967635349D-03 -5.4270181605629D-04
   234  2.3300000000000D+00 -1.8100477754060D-03 -3.2217015487164D-04
   235  2.3400000000000D+00 -1.5853417236890D-03 -1.2872146764376D-04
   236  2.3500000000000D+00 -1.3832822334868D-03  3.9153268966312D-05
   237  2.3600000000000D+00 -1.2029369229673D-03  1.8298075535516D-04
   238  2.3700000000000D+00 -1.0432582876533D-03  3.0430128706096D-04
   239  2.3800000000000D+00 -9.0310394178376D-04  4.0466442379381D-04
   240  2.3900000000000D+00 -7.8125593800501D-04  4.8562430701440D-04
   241  2.4000000000000D+00 -6.7643872972808D-04  5.4873446953292D-04
   242  2.4100000000000D+00 -5.8733643609186D-04  5.9554245695108D-04
   243  2.4200000000000D+00 -5.1260903785288D-04  6.2758413443638D-04
   244  2.4300000000000D+00 -4.5090734600923D-04  6.4637765367821D-04
   245  2.4400000000000D+00 -4.0088724140490D-04  6.5341729898789D-04
   246  2.4500000000000D+00 -3.6122280442799D-04  6.5016711063508D-04
   247  2.4600000000000D+00 -3.3061837306237D-04  6.3805433735567D-04
   248  2.4700000000000D+00 -3.0781986051972D-04  6.1846283963407D-04
   249  2.4800000000000D+00 -2.9162502311068D-04  5.9272640967941D-04
   250  2.4900000000000D+00 -2.8089281047741D-04  5.6212207757928D-04
   251  2.5000000000000D+00 -2.7455198448847D-04  5.2786344279126D-04
   252  2.5100000000000D+00 -2.7160882935062D-04  4.9109409408580D-04
   253  2.5200000000000D+00 -2.7115408246550D-04  4.5288115527434D-04
   254  2.5300000000000D+00 -2.7236917272217D-04  4.1420893578461D-04
   255  2.5400000000000D+00 -2.7453172226036D-04  3.7597284515961D-04
   256  2.5500000000000D+00 -2.7702042496172D-04  3.3897357112917D-04
   257  2.5600000000000D+00 -2.7931916463834D-04  3.0391139039650D-04
   258  2.5700000000000D+00 -2.8102073986532D-04  2.7138096909524D-04
   259  2.5800000000000D+00 -2.8214356173002D-04  2.4201739295851D-04
   260  2.5900000000000D+00 -2.8214919873897D-04  2.1601757793433D-04
   261  2.6000000000000D+00 -2.8048140295772D-04  1.9339455628313D-04
   262  2.6100000000000D+00 -2.7538141919064D-04  1.7334234305046D-04
   263  2.6200000000000D+00 -2.6915618966379D-04  1.5694007775700D-04
   264  2.6300000000000D+00 -2.6678779563880D-04  1.4644002911023D-04
   265  2.6400000000000D+00 -2.7354649771161D-04  1.4410853499504D-04
   266  2.6500000000000D+00 -2.8521880924605D-04  1.4711663625400D-04
   267  2.6600000000000D+00 -2.8068015964148D-04  1.4368891707205D-04
   268  2.6700000000000D+00 -2.4351062860956D-04  1.2451697414906D-04
   269  2.6800000000000D+00 -1.6326482136553D-04  8.3475454838536D-05
   270  2.6900000000000D+00 -7.3742966389378D-05  3.7732452222229D-05
   271  2.7000000000000D+00  1.1791875475324D-06 -6.0123342924415D-07
   272  2.7100000000000D+00  2.5778793471799D-05 -1.3141786980314D-05
   273  2.7200000000000D+00  2.2606869989824D-05 -1.1524265253773D-05
   274  2.7300000000000D+00  4.3531115217183D-06 -2.2191238113244D-06
   275  2.7400000000000D+00 -4.7312743089997D-06  2.4071178147979D-06
   276  2.7500000000000D+00 -5.9362837306988D-06  3.0194937586303D-06
   277  2.7600000000000D+00 -2.5097927357304D-06  1.2763593873414D-06
   278  2.7700000000000D+00  3.8354743305142D-07 -1.9617381328990D-07
   279  2.7800000000000D+00  7.3087087600773D-07 -3.7382006608228D-07
   280  2.7900000000000D+00  4.8177090363624D-07 -2.4641237863733D-07
   281  2.8000000000000D+00  0.0000000000000D+00  0.0000000000000D+00
   282  2.8100000000000D+00  0.0000000000000D+00  0.0000000000000D+00
   283  2.8200000000000D+00  0.0000000000000D+00  0.0000000000000D+00
   284  2.8300000000000D+00  0.0000000000000D+00  0.0000000000000D+00
   285  2.8400000000000D+00  0.0000000000000D+00  0.0000000000000D+00
   286  2.8500000000000D+00  0.0000000000000D+00  0.0000000000000D+00
   287  2.8600000000000D+00  0.0000000000000D+00  0.0000000000000D+00
   288  2.8700000000000D+00  0.0000000000000D+00  0.0000000000000D+00
   289  2.8800000000000D+00  0.0000000000000D+00  0.0000000000000D+00
   290  2.8900000000000D+00  0.0000000000000D+00  0.0000000000000D+00
   291  2.9000000000000D+00  0.0000000000000D+00  0.0000000000000D+00
   292  2.9100000000000D+00  0.0000000000000D+00  0.0000000000000D+00
   293  2.9200000000000D+00  0.0000000000000D+00  0.0000000000000D+00
   294  2.9300000000000D+00  0.0000000000000D+00  0.0000000000000D+00
   295  2.9400000000000D+00  0.0000000000000D+00  0.0000000000000D+00
   296  2.9500000000000D+00  0.0000000000000D+00  0.0000000000000D+00
   297  2.9600000000000D+00  0.0000000000000D+00  0.0000000000000D+00
   298  2.9700000000000D+00  0.0000000000000D+00  0.0000000000000D+00
   299  2.9800000000000D+00  0.0000000000000D+00  0.0000000000000D+00
   300  2.9900000000000D+00  0.0000000000000D+00  0.0000000000000D+00
   301  3.0000000000000D+00  0.0000000000000D+00  0.0000000000000D+00
   302  3.0100000000000D+00  0.0000000000000D+00  0.0000000000000D+00
   303  3.0200000000000D+00  0.0000000000000D+00  0.0000000000000D+00
   304  3.0300000000000D+00  0.0000000000000D+00  0.0000000000000D+00
   305  3.0400000000000D+00  0.0000000000000D+00  0.0000000000000D+00
   306  3.0500000000000D+00  0.0000000000000D+00  0.0000000000000D+00
   307  3.0600000000000D+00  0.0000000000000D+00  0.0000000000000D+00
   308  3.0700000000000D+00  0.0000000000000D+00  0.0000000000000D+00
   309  3.0800000000000D+00  0.0000000000000D+00  0.0000000000000D+00
   310  3.0900000000000D+00  0.0000000000000D+00  0.0000000000000D+00
   311  3.1000000000000D+00  0.0000000000000D+00  0.0000000000000D+00
   312  3.1100000000000D+00  0.0000000000000D+00  0.0000000000000D+00
   313  3.1200000000000D+00  0.0000000000000D+00  0.0000000000000D+00
   314  3.1300000000000D+00  0.0000000000000D+00  0.0000000000000D+00
   315  3.1400000000000D+00  0.0000000000000D+00  0.0000000000000D+00
   316  3.1500000000000D+00  0.0000000000000D+00  0.0000000000000D+00
   317  3.1600000000000D+00  0.0000000000000D+00  0.0000000000000D+00
   318  3.1700000000000D+00  0.0000000000000D+00  0.0000000000000D+00
   319  3.1800000000000D+00  0.0000000000000D+00  0.0000000000000D+00
   320  3.1900000000000D+00  0.0000000000000D+00  0.0000000000000D+00
   321  3.2000000000000D+00  0.0000000000000D+00  0.0000000000000D+00
   322  3.2100000000000D+00  0.0000000000000D+00  0.0000000000000D+00
   323  3.2200000000000D+00  0.0000000000000D+00  0.0000000000000D+00
   324  3.2300000000000D+00  0.0000000000000D+00  0.0000000000000D+00
   325  3.2400000000000D+00  0.0000000000000D+00  0.0000000000000D+00
   326  3.2500000000000D+00  0.0000000000000D+00  0.0000000000000D+00
   327  3.2600000000000D+00  0.0000000000000D+00  0.0000000000000D+00
   328  3.2700000000000D+00  0.0000000000000D+00  0.0000000000000D+00
   329  3.2800000000000D+00  0.0000000000000D+00  0.0000000000000D+00
   330  3.2900000000000D+00  0.0000000000000D+00  0.0000000000000D+00
   331  3.3000000000000D+00  0.0000000000000D+00  0.0000000000000D+00
   332  3.3100000000000D+00  0.0000000000000D+00  0.0000000000000D+00
   333  3.3200000000000D+00  0.0000000000000D+00  0.0000000000000D+00
   334  3.3300000000000D+00  0.0000000000000D+00  0.0000000000000D+00
   335  3.3400000000000D+00  0.0000000000000D+00  0.0000000000000D+00
   336  3.3500000000000D+00  0.0000000000000D+00  0.0000000000000D+00
   337  3.3600000000000D+00  0.0000000000000D+00  0.0000000000000D+00
   338  3.3700000000000D+00  0.0000000000000D+00  0.0000000000000D+00
   339  3.3800000000000D+00  0.0000000000000D+00  0.0000000000000D+00
   340  3.3900000000000D+00  0.0000000000000D+00  0.0000000000000D+00
   341  3.4000000000000D+00  0.0000000000000D+00  0.0000000000000D+00
   342  3.4100000000000D+00  0.0000000000000D+00  0.0000000000000D+00
   343  3.4200000000000D+00  0.0000000000000D+00  0.0000000000000D+00
   344  3.4300000000000D+00  0.0000000000000D+00  0.0000000000000D+00
   345  3.4400000000000D+00  0.0000000000000D+00  0.0000000000000D+00
   346  3.4500000000000D+00  0.0000000000000D+00  0.0000000000000D+00
   347  3.4600000000000D+00  0.0000000000000D+00  0.0000000000000D+00
   348  3.4700000000000D+00  0.0000000000000D+00  0.0000000000000D+00
   349  3.4800000000000D+00  0.0000000000000D+00  0.0000000000000D+00
   350  3.4900000000000D+00  0.0000000000000D+00  0.0000000000000D+00
   351  3.5000000000000D+00  0.0000000000000D+00  0.0000000000000D+00
   352  3.5100000000000D+00  0.0000000000000D+00  0.0000000000000D+00
   353  3.5200000000000D+00  0.0000000000000D+00  0.0000000000000D+00
   354  3.5300000000000D+00  0.0000000000000D+00  0.0000000000000D+00
   355  3.5400000000000D+00  0.0000000000000D+00  0.0000000000000D+00
   356  3.5500000000000D+00  0.0000000000000D+00  0.0000000000000D+00
   357  3.5600000000000D+00  0.0000000000000D+00  0.0000000000000D+00
   358  3.5700000000000D+00  0.0000000000000D+00  0.0000000000000D+00
   359  3.5800000000000D+00  0.0000000000000D+00  0.0000000000000D+00
   360  3.5900000000000D+00  0.0000000000000D+00  0.0000000000000D+00
   361  3.6000000000000D+00  0.0000000000000D+00  0.0000000000000D+00
   362  3.6100000000000D+00  0.0000000000000D+00  0.0000000000000D+00
   363  3.6200000000000D+00  0.0000000000000D+00  0.0000000000000D+00
   364  3.6300000000000D+00  0.0000000000000D+00  0.0000000000000D+00
   365  3.6400000000000D+00  0.0000000000000D+00  0.0000000000000D+00
   366  3.6500000000000D+00  0.0000000000000D+00  0.0000000000000D+00
   367  3.6600000000000D+00  0.0000000000000D+00  0.0000000000000D+00
   368  3.6700000000000D+00  0.0000000000000D+00  0.0000000000000D+00
   369  3.6800000000000D+00  0.0000000000000D+00  0.0000000000000D+00
   370  3.6900000000000D+00  0.0000000000000D+00  0.0000000000000D+00
   371  3.7000000000000D+00  0.0000000000000D+00  0.0000000000000D+00
   372  3.7100000000000D+00  0.0000000000000D+00  0.0000000000000D+00
   373  3.7200000000000D+00  0.0000000000000D+00  0.0000000000000D+00
   374  3.7300000000000D+00  0.0000000000000D+00  0.0000000000000D+00
   375  3.7400000000000D+00  0.0000000000000D+00  0.0000000000000D+00
   376  3.7500000000000D+00  0.0000000000000D+00  0.0000000000000D+00
   377  3.7600000000000D+00  0.0000000000000D+00  0.0000000000000D+00
   378  3.7700000000000D+00  0.0000000000000D+00  0.0000000000000D+00
   379  3.7800000000000D+00  0.0000000000000D+00  0.0000000000000D+00
   380  3.7900000000000D+00  0.0000000000000D+00  0.0000000000000D+00
   381  3.8000000000000D+00  0.0000000000000D+00  0.0000000000000D+00
   382  3.8100000000000D+00  0.0000000000000D+00  0.0000000000000D+00
   383  3.8200000000000D+00  0.0000000000000D+00  0.0000000000000D+00
   384  3.8300000000000D+00  0.0000000000000D+00  0.0000000000000D+00
   385  3.8400000000000D+00  0.0000000000000D+00  0.0000000000000D+00
   386  3.8500000000000D+00  0.0000000000000D+00  0.0000000000000D+00
   387  3.8600000000000D+00  0.0000000000000D+00  0.0000000000000D+00
   388  3.8700000000000D+00  0.0000000000000D+00  0.0000000000000D+00
   389  3.8800000000000D+00  0.0000000000000D+00  0.0000000000000D+00
   390  3.8900000000000D+00  0.0000000000000D+00  0.0000000000000D+00
   391  3.9000000000000D+00  0.0000000000000D+00  0.0000000000000D+00
   392  3.9100000000000D+00  0.0000000000000D+00  0.0000000000000D+00
   393  3.9200000000000D+00  0.0000000000000D+00  0.0000000000000D+00
   394  3.9300000000000D+00  0.0000000000000D+00  0.0000000000000D+00
   395  3.9400000000000D+00  0.0000000000000D+00  0.0000000000000D+00
   396  3.9500000000000D+00  0.0000000000000D+00  0.0000000000000D+00
   397  3.9600000000000D+00  0.0000000000000D+00  0.0000000000000D+00
   398  3.9700000000000D+00  0.0000000000000D+00  0.0000000000000D+00
   399  3.9800000000000D+00  0.0000000000000D+00  0.0000000000000D+00
   400  3.9900000000000D+00  0.0000000000000D+00  0.0000000000000D+00
   401  4.0000000000000D+00  0.0000000000000D+00  0.0000000000000D+00
   402  4.0100000000000D+00  0.0000000000000D+00  0.0000000000000D+00
   403  4.0200000000000D+00  0.0000000000000D+00  0.0000000000000D+00
   404  4.0300000000000D+00  0.0000000000000D+00  0.0000000000000D+00
   405  4.0400000000000D+00  0.0000000000000D+00  0.0000000000000D+00
   406  4.0500000000000D+00  0.0000000000000D+00  0.0000000000000D+00
   407  4.0600000000000D+00  0.0000000000000D+00  0.0000000000000D+00
   408  4.0700000000000D+00  0.0000000000000D+00  0.0000000000000D+00
   409  4.0800000000000D+00  0.0000000000000D+00  0.0000000000000D+00
   410  4.0900000000000D+00  0.0000000000000D+00  0.0000000000000D+00
   411  4.1000000000000D+00  0.0000000000000D+00  0.0000000000000D+00
   412  4.1100000000000D+00  0.0000000000000D+00  0.0000000000000D+00
   413  4.1200000000000D+00  0.0000000000000D+00  0.0000000000000D+00
   414  4.1300000000000D+00  0.0000000000000D+00  0.0000000000000D+00
   415  4.1400000000000D+00  0.0000000000000D+00  0.0000000000000D+00
   416  4.1500000000000D+00  0.0000000000000D+00  0.0000000000000D+00
   417  4.1600000000000D+00  0.0000000000000D+00  0.0000000000000D+00
   418  4.1700000000000D+00  0.0000000000000D+00  0.0000000000000D+00
   419  4.1800000000000D+00  0.0000000000000D+00  0.0000000000000D+00
   420  4.1900000000000D+00  0.0000000000000D+00  0.0000000000000D+00
   421  4.2000000000000D+00  0.0000000000000D+00  0.0000000000000D+00
   422  4.2100000000000D+00  0.0000000000000D+00  0.0000000000000D+00