He    ONCVPSP-3.3.1  r_core=   2.01394
      2.0000      2.0000      210904    zatom,zion,pspd
     8      11   0     4   600     0    pspcod,pspxc,lmax,lloc,mmax,r2well
  5.99000000  0.00000000  0.00000000    rchrg fchrg qchrg
     2     0     0     0    nproj
     3     1           extension_switch
     0     0     0    nprojso
   0                        -1.7598892025943D+00 -6.3768395253236D-01
     1  0.0000000000000D+00  7.9807771502516D-11 -9.3004784429418D-11
     2  1.0000000000000D-02  5.3399522933415D-02 -1.1830263245207D-02
     3  2.0000000000000D-02  1.0675215400930D-01 -2.3622045880372D-02
     4  3.0000000000000D-02  1.6001077887614D-01 -3.5336683566580D-02
     5  4.0000000000000D-02  2.1312784085140D-01 -4.6935147335533D-02
     6  5.0000000000000D-02  2.6605512637819D-01 -5.8377868322142D-02
     7  6.0000000000000D-02  3.1874355837181D-01 -6.9624570887805D-02
     8  7.0000000000000D-02  3.7114299999221D-01 -8.0634116821684D-02
     9  8.0000000000000D-02  4.2320207129834D-01 -9.1364363214302D-02
    10  9.0000000000000D-02  4.7486798114198D-01 -1.0177203648273D-01
    11  1.0000000000000D-01  5.2608637654119D-01 -1.1181262489033D-01
    12  1.1000000000000D-01  5.7680121163927D-01 -1.2144029174728D-01
    13  1.2000000000000D-01  6.2695463820376D-01 -1.3060781130234D-01
    14  1.3000000000000D-01  6.7648691945332D-01 -1.3926652914196D-01
    15  1.4000000000000D-01  7.2533636881903D-01 -1.4736634870242D-01
    16  1.5000000000000D-01  7.7343931505208D-01 -1.5485574527442D-01
    17  1.6000000000000D-01  8.2073009488347D-01 -1.6168180863992D-01
    18  1.7000000000000D-01  8.6714107422418D-01 -1.6779031522909D-01
    19  1.8000000000000D-01  9.1260269866833D-01 -1.7312583042354D-01
    20  1.9000000000000D-01  9.5704357382806D-01 -1.7763184136122D-01
    21  2.0000000000000D-01  1.0003905757896D+00 -1.8125092032182D-01
    22  2.1000000000000D-01  1.0425689917363D+00 -1.8392491849008D-01
    23  2.2000000000000D-01  1.0835026905372D+00 -1.8559518961076D-01
    24  2.3000000000000D-01  1.1231143228545D+00 -1.8620284276501D-01
    25  2.4000000000000D-01  1.1613255500748D+00 -1.8568902321571D-01
    26  2.5000000000000D-01  1.1980573011272D+00 -1.8399521999103D-01
    27  2.6000000000000D-01  1.2332300560116D+00 -1.8106359860331D-01
    28  2.7000000000000D-01  1.2667641546270D+00 -1.7683735703624D-01
    29  2.8000000000000D-01  1.2985801292660D+00 -1.7126110287945D-01
    30  2.9000000000000D-01  1.3285990589244D+00 -1.6428124924824D-01
    31  3.0000000000000D-01  1.3567429433709D+00 -1.5584642689850D-01
    32  3.1000000000000D-01  1.3829350947315D+00 -1.4590790973581D-01
    33  3.2000000000000D-01  1.4071005441626D+00 -1.3442005072430D-01
    34  3.3000000000000D-01  1.4291664610274D+00 -1.2134072502706D-01
    35  3.4000000000000D-01  1.4490625818427D+00 -1.0663177705706D-01
    36  3.5000000000000D-01  1.4667216461378D+00 -9.0259467987990D-02
    37  3.6000000000000D-01  1.4820798362572D+00 -7.2194920167613D-02
    38  3.7000000000000D-01  1.4950772180504D+00 -5.2414554795625D-02
    39  3.8000000000000D-01  1.5056581793270D+00 -3.0900519172498D-02
    40  3.9000000000000D-01  1.5137718629050D+00 -7.6410997975610D-03
    41  4.0000000000000D-01  1.5193725910607D+00  1.7368882406623D-02
    42  4.1000000000000D-01  1.5224202781831D+00  4.4127698439845D-02
    43  4.2000000000000D-01  1.5228808284587D+00  7.2626362781416D-02
    44  4.3000000000000D-01  1.5207265154547D+00  1.0284831371817D-01
    45  4.4000000000000D-01  1.5159363405361D+00  1.3476912589218D-01
    46  4.5000000000000D-01  1.5084963671377D+00  1.6835625838008D-01
    47  4.6000000000000D-01  1.4984000280250D+00  2.0356884145156D-01
    48  4.7000000000000D-01  1.4856484028061D+00  2.4035750496540D-01
    49  4.8000000000000D-01  1.4702504631088D+00  2.7866425114731D-01
    50  4.9000000000000D-01  1.4522232830101D+00  3.1842237425617D-01
    51  5.0000000000000D-01  1.4315922124902D+00  3.5955642938712D-01
    52  5.1000000000000D-01  1.4083910118924D+00  4.0198225237993D-01
    53  5.2000000000000D-01  1.3826619455912D+00  4.4560703250493D-01
    54  5.3000000000000D-01  1.3544558333062D+00  4.9032943928532D-01
    55  5.4000000000000D-01  1.3238320577493D+00  5.3603980448797D-01
    56  5.5000000000000D-01  1.2908585275499D+00  5.8262035997678D-01
    57  5.6000000000000D-01  1.2556115946738D+00  6.2994553177552D-01
    58  5.7000000000000D-01  1.2181759258250D+00  6.7788229033402D-01
    59  5.8000000000000D-01  1.1786443275998D+00  7.2629055663484D-01
    60  5.9000000000000D-01  1.1371175254467D+00  7.7502366341997D-01
    61  6.0000000000000D-01  1.0937038967702D+00  8.2392887046243D-01
    62  6.1000000000000D-01  1.0485191587972D+00  8.7284793245629D-01
    63  6.2000000000000D-01  1.0016860121067D+00  9.2161771775794D-01
    64  6.3000000000000D-01  9.5333374099587D-01  9.7007087587797D-01
    65  6.4000000000000D-01  9.0359777212154D-01  1.0180365513066D+00
    66  6.5000000000000D-01  8.5261919311306D-01  1.0653411409531D+00
    67  6.6000000000000D-01  8.0054423309750D-01  1.1118090921960D+00
    68  6.7000000000000D-01  7.4752370730776D-01  1.1572637382824D+00
    69  6.8000000000000D-01  6.9371242816048D-01  1.2015281675728D+00
    70  6.9000000000000D-01  6.3926858538858D-01  1.2444261229213D+00
    71  7.0000000000000D-01  5.8435309799217D-01  1.2857829272927D+00
    72  7.1000000000000D-01  5.2912894093013D-01  1.3254264315702D+00
    73  7.2000000000000D-01  4.7376044961243D-01  1.3631879803794D+00
    74  7.3000000000000D-01  4.1841260536685D-01  1.3989033916699D+00
    75  7.4000000000000D-01  3.6325030514433D-01  1.4324139457393D+00
    76  7.5000000000000D-01  3.0843761879303D-01  1.4635673793619D+00
    77  7.6000000000000D-01  2.5413703727156D-01  1.4922188807024D+00
    78  7.7000000000000D-01  2.0050871518681D-01  1.5182320807435D+00
    79  7.8000000000000D-01  1.4770971103083D-01  1.5414800370414D+00
    80  7.9000000000000D-01  9.5893228454551D-02  1.5618462057451D+00
    81  8.0000000000000D-01  4.5207861853742D-02  1.5792253979698D+00
    82  8.1000000000000D-01 -4.2031505446980D-03  1.5935247168029D+00
    83  8.2000000000000D-01 -5.2202663019975D-02  1.6046644714411D+00
    84  8.3000000000000D-01 -9.8660345177419D-02  1.6125790652075D+00
    85  8.4000000000000D-01 -1.4345338846858D-01  1.6172178544776D+00
    86  8.5000000000000D-01 -1.8646719380785D-01  1.6185459758464D+00
    87  8.6000000000000D-01 -2.2759603788133D-01  1.6165451391993D+00
    88  8.7000000000000D-01 -2.6674371610944D-01  1.6112143858163D+00
    89  8.8000000000000D-01 -3.0382416043219D-01  1.6025708093838D+00
    90  8.9000000000000D-01 -3.3876202067834D-01  1.5906501768276D+00
    91  9.0000000000000D-01 -3.7149325937888D-01  1.5755078088834D+00
    92  9.1000000000000D-01 -4.0196532493089D-01  1.5572165452506D+00
    93  9.2000000000000D-01 -4.3013673601019D-01  1.5358617946955D+00
    94  9.3000000000000D-01 -4.5597670582281D-01  1.5115387864298D+00
    95  9.4000000000000D-01 -4.7946502166191D-01  1.4843524835128D+00
    96  9.5000000000000D-01 -5.0059184741622D-01  1.4544171231727D+00
    97  9.6000000000000D-01 -5.1935749067140D-01  1.4218557740672D+00
    98  9.7000000000000D-01 -5.3577212986923D-01  1.3867998463211D+00
    99  9.8000000000000D-01 -5.4985550291358D-01  1.3493885560903D+00
   100  9.9000000000000D-01 -5.6163655925587D-01  1.3097683486857D+00
   101  1.0000000000000D+00 -5.7115307752758D-01  1.2680922832992D+00
   102  1.0100000000000D+00 -5.7845125095349D-01  1.2245193826037D+00
   103  1.0200000000000D+00 -5.8358524293280D-01  1.1792139507248D+00
   104  1.0300000000000D+00 -5.8661671531967D-01  1.1323448632973D+00
   105  1.0400000000000D+00 -5.8761433206497D-01  1.0840848335181D+00
   106  1.0500000000000D+00 -5.8665324098067D-01  1.0346096582259D+00
   107  1.0600000000000D+00 -5.8381453650217D-01  9.8409744822763D-01
   108  1.0700000000000D+00 -5.7918470638883D-01  9.3272784715737D-01
   109  1.0800000000000D+00 -5.7285506537075D-01  8.8068124325244D-01
   110  1.0900000000000D+00 -5.6492117879671D-01  8.2813797849279D-01
   111  1.1000000000000D+00 -5.5548227936108D-01  7.7527755956151D-01
   112  1.1100000000000D+00 -5.4464067999616D-01  7.2227787507444D-01
   113  1.1200000000000D+00 -5.3250118602181D-01  6.6931442354774D-01
   114  1.1300000000000D+00 -5.1917050961728D-01  6.1655955651670D-01
   115  1.1400000000000D+00 -5.0475668939768D-01  5.6418174032567D-01
   116  1.1500000000000D+00 -4.8936851875553D-01  5.1234484311410D-01
   117  1.1600000000000D+00 -4.7311498503585D-01  4.6120744837406D-01
   118  1.1700000000000D+00 -4.5610472183298D-01  4.1092219735353D-01
   119  1.1800000000000D+00 -4.3844547936186D-01  3.6163517147198D-01
   120  1.1900000000000D+00 -4.2024361309341D-01  3.1348531048450D-01
   121  1.2000000000000D+00 -4.0160359361934D-01  2.6660387147175D-01
   122  1.2100000000000D+00 -3.8262754075028D-01  2.2111393410375D-01
   123  1.2200000000000D+00 -3.6341478323659D-01  1.7712995252984D-01
   124  1.2300000000000D+00 -3.4406144619454D-01  1.3475735690832D-01
   125  1.2400000000000D+00 -3.2466006792681D-01  9.4092206592864D-02
   126  1.2500000000000D+00 -3.0529924772214D-01  5.5220896773453D-02
   127  1.2600000000000D+00 -2.8606332586946D-01  1.8219919834524D-02
   128  1.2700000000000D+00 -2.6703209695571D-01 -1.6844317588804D-02
   129  1.2800000000000D+00 -2.4828055746380D-01 -4.9915620962655D-02
   130  1.2900000000000D+00 -2.2987868822660D-01 -8.0948077476653D-02
   131  1.3000000000000D+00 -2.1189127214173D-01 -1.0990606903790D-01
   132  1.3100000000000D+00 -1.9437774755628D-01 -1.3676422873649D-01
   133  1.3200000000000D+00 -1.7739209714720D-01 -1.6150734182263D-01
   134  1.3300000000000D+00 -1.6098277210206D-01 -1.8413019226147D-01
   135  1.3400000000000D+00 -1.4519265133770D-01 -2.0463735604802D-01
   136  1.3500000000000D+00 -1.3005903489783D-01 -2.2304294340441D-01
   137  1.3600000000000D+00 -1.1561367081963D-01 -2.3937029174076D-01
   138  1.3700000000000D+00 -1.0188281448482D-01 -2.5365161170246D-01
   139  1.3800000000000D+00 -8.8887319036082D-02 -2.6592758928132D-01
   140  1.3900000000000D+00 -7.6642755721805D-02 -2.7624694654363D-01
   141  1.4000000000000D+00 -6.5159562429760D-02 -2.8466596444395D-01
   142  1.4100000000000D+00 -5.4443218715003D-02 -2.9124797109809D-01
   143  1.4200000000000D+00 -4.4494445629848D-02 -2.9606279891976D-01
   144  1.4300000000000D+00 -3.5309428134955D-02 -2.9918621474446D-01
   145  1.4400000000000D+00 -2.6880058251636D-02 -3.0069932654442D-01
   146  1.4500000000000D+00 -1.9194196611255D-02 -3.0068797102798D-01
   147  1.4600000000000D+00 -1.2235950211699D-02 -2.9924208614760D-01
   148  1.4700000000000D+00 -5.9859640821276D-03 -2.9645507277799D-01
   149  1.4800000000000D+00 -4.2172442739632D-04 -2.9242314978376D-01
   150  1.4900000000000D+00  4.4821290698543D-03 -2.8724470678159D-01
   151  1.5000000000000D+00  8.7534842512450D-03 -2.8101965876331D-01
   152  1.5100000000000D+00  1.2422433142027D-02 -2.7384880679281D-01
   153  1.5200000000000D+00  1.5520946718574D-02 -2.6583320895388D-01
   154  1.5300000000000D+00  1.8082549984850D-02 -2.5707356526250D-01
   155  1.5400000000000D+00  2.0141999908857D-02 -2.4766962096277D-01
   156  1.5500000000000D+00  2.1734968016095D-02 -2.3771959098045D-01
   157  1.5600000000000D+00  2.2897730377278D-02 -2.2731961032849D-01
   158  1.5700000000000D+00  2.3666866285651D-02 -2.1656321218691D-01
   159  1.5800000000000D+00  2.4078968379759D-02 -2.0554083844280D-01
   160  1.5900000000000D+00  2.4170365190810D-02 -1.9433938380194D-01
   161  1.6000000000000D+00  2.3976858550055D-02 -1.8304177756444D-01
   162  1.6100000000000D+00  2.3533476739240D-02 -1.7172660401865D-01
   163  1.6200000000000D+00  2.2874245263849D-02 -1.6046776441873D-01
   164  1.6300000000000D+00  2.2031976122842D-02 -1.4933418150271D-01
   165  1.6400000000000D+00  2.1038076795871D-02 -1.3838954822890D-01
   166  1.6500000000000D+00  1.9922379822503D-02 -1.2769212169574D-01
   167  1.6600000000000D+00  1.8712993508303D-02 -1.1729456261659D-01
   168  1.6700000000000D+00  1.7436174591823D-02 -1.0724382123514D-01
   169  1.6800000000000D+00  1.6116222766286D-02 -9.7581068857436D-02
   170  1.6900000000000D+00  1.4775397760423D-02 -8.8341675636015D-02
   171  1.7000000000000D+00  1.3433858344994D-02 -7.9555232818399D-02
   172  1.7100000000000D+00  1.2109623704471D-02 -7.1245619593604D-02
   173  1.7200000000000D+00  1.0818556181791D-02 -6.3431112109117D-02
   174  1.7300000000000D+00  9.5743654180772D-03 -5.6124534018602D-02
   175  1.7400000000000D+00  8.3886327370552D-03 -4.9333445863371D-02
   176  1.7500000000000D+00  7.2708552216944D-03 -4.3060371604714D-02
   177  1.7600000000000D+00  6.2285083747795D-03 -3.7303059696771D-02
   178  1.7700000000000D+00  5.2671261274556D-03 -3.2054775808023D-02
   179  1.7800000000000D+00  4.3903972790102D-03 -2.7304624913698D-02
   180  1.7900000000000D+00  3.6002764292723D-03 -2.3037898672315D-02
   181  1.8000000000000D+00  2.8971087173126D-03 -1.9236446166062D-02
   182  1.8100000000000D+00  2.2797658675109D-03 -1.5879063051894D-02
   183  1.8200000000000D+00  1.7457929476336D-03 -1.2941897240583D-02
   184  1.8300000000000D+00  1.2915631360048D-03 -1.0398866016066D-02
   185  1.8400000000000D+00  9.1243963096682D-04 -8.2220820277266D-03
   186  1.8500000000000D+00  6.0294237350327D-04 -6.3822840189961D-03
   187  1.8600000000000D+00  3.5691796586378D-04 -4.8492682221419D-03
   188  1.8700000000000D+00  1.6771127323948D-04 -3.5923178882592D-03
   189  1.8800000000000D+00  2.8336341715721D-05 -2.5806256346900D-03
   190  1.8900000000000D+00 -6.8354345298110D-05 -1.7837068960642D-03
   191  1.9000000000000D+00 -1.2950460780375D-04 -1.1717995914264D-03
   192  1.9100000000000D+00 -1.6209473750418D-04 -7.1624709784736D-04
   193  1.9200000000000D+00 -1.7278805866544D-04 -3.8986271770146D-04
   194  1.9300000000000D+00 -1.6778713642328D-04 -1.6726884871376D-04
   195  1.9400000000000D+00 -1.5269782842466D-04 -2.5214807740003D-05
   196  1.9500000000000D+00 -1.3248531438976D-04  5.7278109950393D-05
   197  1.9600000000000D+00 -1.1105552154656D-04  9.8112438168773D-05
   198  1.9700000000000D+00 -9.1048996754012D-05  1.1170003277764D-04
   199  1.9800000000000D+00 -7.5003661467886D-05  1.1098549932678D-04
   200  1.9900000000000D+00 -6.5888891594423D-05  1.0836094533982D-04
   201  2.0000000000000D+00 -6.5822978808659D-05  1.1326467535997D-04
   202  2.0100000000000D+00 -6.2926385220069D-05  1.0926784988049D-04
   203  2.0200000000000D+00 -4.5800619358649D-05  7.9410945769563D-05
   204  2.0300000000000D+00 -1.8999314825665D-05  3.2840903311299D-05
   205  2.0400000000000D+00  2.1606832743050D-06 -3.7493327572788D-06
   206  2.0500000000000D+00  6.1042087596404D-06 -1.0582604398794D-05
   207  2.0600000000000D+00  1.5975842561586D-06 -2.7671577419253D-06
   208  2.0700000000000D+00 -1.2263503142528D-06  2.1431351684492D-06
   209  2.0800000000000D+00 -1.0373145356860D-06  1.8134426338792D-06
   210  2.0900000000000D+00  6.3835106666716D-08 -1.1080152440194D-07
   211  2.1000000000000D+00  1.6657383733436D-07 -2.8912985449356D-07
   212  2.1100000000000D+00  4.6050686105011D-08 -7.9932289403550D-08
   213  2.1200000000000D+00  0.0000000000000D+00  0.0000000000000D+00
   214  2.1300000000000D+00  0.0000000000000D+00  0.0000000000000D+00
   215  2.1400000000000D+00  0.0000000000000D+00  0.0000000000000D+00
   216  2.1500000000000D+00  0.0000000000000D+00  0.0000000000000D+00
   217  2.1600000000000D+00  0.0000000000000D+00  0.0000000000000D+00
   218  2.1700000000000D+00  0.0000000000000D+00  0.0000000000000D+00
   219  2.1800000000000D+00  0.0000000000000D+00  0.0000000000000D+00
   220  2.1900000000000D+00  0.0000000000000D+00  0.0000000000000D+00
   221  2.2000000000000D+00  0.0000000000000D+00  0.0000000000000D+00
   222  2.2100000000000D+00  0.0000000000000D+00  0.0000000000000D+00
   223  2.2200000000000D+00  0.0000000000000D+00  0.0000000000000D+00
   224  2.2300000000000D+00  0.0000000000000D+00  0.0000000000000D+00
   225  2.2400000000000D+00  0.0000000000000D+00  0.0000000000000D+00
   226  2.2500000000000D+00  0.0000000000000D+00  0.0000000000000D+00
   227  2.2600000000000D+00  0.0000000000000D+00  0.0000000000000D+00
   228  2.2700000000000D+00  0.0000000000000D+00  0.0000000000000D+00
   229  2.2800000000000D+00  0.0000000000000D+00  0.0000000000000D+00
   230  2.2900000000000D+00  0.0000000000000D+00  0.0000000000000D+00
   231  2.3000000000000D+00  0.0000000000000D+00  0.0000000000000D+00
   232  2.3100000000000D+00  0.0000000000000D+00  0.0000000000000D+00
   233  2.3200000000000D+00  0.0000000000000D+00  0.0000000000000D+00
   234  2.3300000000000D+00  0.0000000000000D+00  0.0000000000000D+00
   235  2.3400000000000D+00  0.0000000000000D+00  0.0000000000000D+00
   236  2.3500000000000D+00  0.0000000000000D+00  0.0000000000000D+00
   237  2.3600000000000D+00  0.0000000000000D+00  0.0000000000000D+00
   238  2.3700000000000D+00  0.0000000000000D+00  0.0000000000000D+00
   239  2.3800000000000D+00  0.0000000000000D+00  0.0000000000000D+00
   240  2.3900000000000D+00  0.0000000000000D+00  0.0000000000000D+00
   241  2.4000000000000D+00  0.0000000000000D+00  0.0000000000000D+00
   242  2.4100000000000D+00  0.0000000000000D+00  0.0000000000000D+00
   243  2.4200000000000D+00  0.0000000000000D+00  0.0000000000000D+00
   244  2.4300000000000D+00  0.0000000000000D+00  0.0000000000000D+00
   245  2.4400000000000D+00  0.0000000000000D+00  0.0000000000000D+00
   246  2.4500000000000D+00  0.0000000000000D+00  0.0000000000000D+00
   247  2.4600000000000D+00  0.0000000000000D+00  0.0000000000000D+00
   248  2.4700000000000D+00  0.0000000000000D+00  0.0000000000000D+00
   249  2.4800000000000D+00  0.0000000000000D+00  0.0000000000000D+00
   250  2.4900000000000D+00  0.0000000000000D+00  0.0000000000000D+00
   251  2.5000000000000D+00  0.0000000000000D+00  0.0000000000000D+00
   252  2.5100000000000D+00  0.0000000000000D+00  0.0000000000000D+00
   253  2.5200000000000D+00  0.0000000000000D+00  0.0000000000000D+00
   254  2.5300000000000D+00  0.0000000000000D+00  0.0000000000000D+00
   255  2.5400000000000D+00  0.0000000000000D+00  0.0000000000000D+00
   256  2.5500000000000D+00  0.0000000000000D+00  0.0000000000000D+00
   257  2.5600000000000D+00  0.0000000000000D+00  0.0000000000000D+00
   258  2.5700000000000D+00  0.0000000000000D+00  0.0000000000000D+00
   259  2.5800000000000D+00  0.0000000000000D+00  0.0000000000000D+00
   260  2.5900000000000D+00  0.0000000000000D+00  0.0000000000000D+00
   261  2.6000000000000D+00  0.0000000000000D+00  0.0000000000000D+00
   262  2.6100000000000D+00  0.0000000000000D+00  0.0000000000000D+00
   263  2.6200000000000D+00  0.0000000000000D+00  0.0000000000000D+00
   264  2.6300000000000D+00  0.0000000000000D+00  0.0000000000000D+00
   265  2.6400000000000D+00  0.0000000000000D+00  0.0000000000000D+00
   266  2.6500000000000D+00  0.0000000000000D+00  0.0000000000000D+00
   267  2.6600000000000D+00  0.0000000000000D+00  0.0000000000000D+00
   268  2.6700000000000D+00  0.0000000000000D+00  0.0000000000000D+00
   269  2.6800000000000D+00  0.0000000000000D+00  0.0000000000000D+00
   270  2.6900000000000D+00  0.0000000000000D+00  0.0000000000000D+00
   271  2.7000000000000D+00  0.0000000000000D+00  0.0000000000000D+00
   272  2.7100000000000D+00  0.0000000000000D+00  0.0000000000000D+00
   273  2.7200000000000D+00  0.0000000000000D+00  0.0000000000000D+00
   274  2.7300000000000D+00  0.0000000000000D+00  0.0000000000000D+00
   275  2.7400000000000D+00  0.0000000000000D+00  0.0000000000000D+00
   276  2.7500000000000D+00  0.0000000000000D+00  0.0000000000000D+00
   277  2.7600000000000D+00  0.0000000000000D+00  0.0000000000000D+00
   278  2.7700000000000D+00  0.0000000000000D+00  0.0000000000000D+00
   279  2.7800000000000D+00  0.0000000000000D+00  0.0000000000000D+00
   280  2.7900000000000D+00  0.0000000000000D+00  0.0000000000000D+00
   281  2.8000000000000D+00  0.0000000000000D+00  0.0000000000000D+00
   282  2.8100000000000D+00  0.0000000000000D+00  0.0000000000000D+00
   283  2.8200000000000D+00  0.0000000000000D+00  0.0000000000000D+00
   284  2.8300000000000D+00  0.0000000000000D+00  0.0000000000000D+00
   285  2.8400000000000D+00  0.0000000000000D+00  0.0000000000000D+00
   286  2.8500000000000D+00  0.0000000000000D+00  0.0000000000000D+00
   287  2.8600000000000D+00  0.0000000000000D+00  0.0000000000000D+00
   288  2.8700000000000D+00  0.0000000000000D+00  0.0000000000000D+00
   289  2.8800000000000D+00  0.0000000000000D+00  0.0000000000000D+00
   290  2.8900000000000D+00  0.0000000000000D+00  0.0000000000000D+00
   291  2.9000000000000D+00  0.0000000000000D+00  0.0000000000000D+00
   292  2.9100000000000D+00  0.0000000000000D+00  0.0000000000000D+00
   293  2.9200000000000D+00  0.0000000000000D+00  0.0000000000000D+00
   294  2.9300000000000D+00  0.0000000000000D+00  0.0000000000000D+00
   295  2.9400000000000D+00  0.0000000000000D+00  0.0000000000000D+00
   296  2.9500000000000D+00  0.0000000000000D+00  0.0000000000000D+00
   297  2.9600000000000D+00  0.0000000000000D+00  0.0000000000000D+00
   298  2.9700000000000D+00  0.0000000000000D+00  0.0000000000000D+00
   299  2.9800000000000D+00  0.0000000000000D+00  0.0000000000000D+00
   300  2.9900000000000D+00  0.0000000000000D+00  0.0000000000000D+00
   301  3.0000000000000D+00  0.0000000000000D+00  0.0000000000000D+00
   302  3.0100000000000D+00  0.0000000000000D+00  0.0000000000000D+00
   303  3.0200000000000D+00  0.0000000000000D+00  0.0000000000000D+00
   304  3.0300000000000D+00  0.0000000000000D+00  0.0000000000000D+00
   305  3.0400000000000D+00  0.0000000000000D+00  0.0000000000000D+00
   306  3.0500000000000D+00  0.0000000000000D+00  0.0000000000000D+00
   307  3.0600000000000D+00  0.0000000000000D+00  0.0000000000000D+00
   308  3.0700000000000D+00  0.0000000000000D+00  0.0000000000000D+00
   309  3.0800000000000D+00  0.0000000000000D+00  0.0000000000000D+00
   310  3.0900000000000D+00  0.0000000000000D+00  0.0000000000000D+00
   311  3.1000000000000D+00  0.0000000000000D+00  0.0000000000000D+00
   312  3.1100000000000D+00  0.0000000000000D+00  0.0000000000000D+00
   313  3.1200000000000D+00  0.0000000000000D+00  0.0000000000000D+00
   314  3.1300000000000D+00  0.0000000000000D+00  0.0000000000000D+00
   315  3.1400000000000D+00  0.0000000000000D+00  0.0000000000000D+00
   316  3.1500000000000D+00  0.0000000000000D+00  0.0000000000000D+00
   317  3.1600000000000D+00  0.0000000000000D+00  0.0000000000000D+00
   318  3.1700000000000D+00  0.0000000000000D+00  0.0000000000000D+00
   319  3.1800000000000D+00  0.0000000000000D+00  0.0000000000000D+00
   320  3.1900000000000D+00  0.0000000000000D+00  0.0000000000000D+00
   321  3.2000000000000D+00  0.0000000000000D+00  0.0000000000000D+00
   322  3.2100000000000D+00  0.0000000000000D+00  0.0000000000000D+00
   323  3.2200000000000D+00  0.0000000000000D+00  0.0000000000000D+00
   324  3.2300000000000D+00  0.0000000000000D+00  0.0000000000000D+00
   325  3.2400000000000D+00  0.0000000000000D+00  0.0000000000000D+00
   326  3.2500000000000D+00  0.0000000000000D+00  0.0000000000000D+00
   327  3.2600000000000D+00  0.0000000000000D+00  0.0000000000000D+00
   328  3.2700000000000D+00  0.0000000000000D+00  0.0000000000000D+00
   329  3.2800000000000D+00  0.0000000000000D+00  0.0000000000000D+00
   330  3.2900000000000D+00  0.0000000000000D+00  0.0000000000000D+00
   331  3.3000000000000D+00  0.0000000000000D+00  0.0000000000000D+00
   332  3.3100000000000D+00  0.0000000000000D+00  0.0000000000000D+00
   333  3.3200000000000D+00  0.0000000000000D+00  0.0000000000000D+00
   334  3.3300000000000D+00  0.0000000000000D+00  0.0000000000000D+00
   335  3.3400000000000D+00  0.0000000000000D+00  0.0000000000000D+00
   336  3.3500000000000D+00  0.0000000000000D+00  0.0000000000000D+00
   337  3.3600000000000D+00  0.0000000000000D+00  0.0000000000000D+00
   338  3.3700000000000D+00  0.0000000000000D+00  0.0000000000000D+00
   339  3.3800000000000D+00  0.0000000000000D+00  0.0000000000000D+00
   340  3.3900000000000D+00  0.0000000000000D+00  0.0000000000000D+00
   341  3.4000000000000D+00  0.0000000000000D+00  0.0000000000000D+00
   342  3.4100000000000D+00  0.0000000000000D+00  0.0000000000000D+00
   343  3.4200000000000D+00  0.0000000000000D+00  0.0000000000000D+00
   344  3.4300000000000D+00  0.0000000000000D+00  0.0000000000000D+00
   345  3.4400000000000D+00  0.0000000000000D+00  0.0000000000000D+00
   346  3.4500000000000D+00  0.0000000000000D+00  0.0000000000000D+00
   347  3.4600000000000D+00  0.0000000000000D+00  0.0000000000000D+00
   348  3.4700000000000D+00  0.0000000000000D+00  0.0000000000000D+00
   349  3.4800000000000D+00  0.0000000000000D+00  0.0000000000000D+00
   350  3.4900000000000D+00  0.0000000000000D+00  0.0000000000000D+00
   351  3.5000000000000D+00  0.0000000000000D+00  0.0000000000000D+00
   352  3.5100000000000D+00  0.0000000000000D+00  0.0000000000000D+00
   353  3.5200000000000D+00  0.0000000000000D+00  0.0000000000000D+00
   354  3.5300000000000D+00  0.0000000000000D+00  0.0000000000000D+00
   355  3.5400000000000D+00  0.0000000000000D+00  0.0000000000000D+00
   356  3.5500000000000D+00  0.0000000000000D+00  0.0000000000000D+00
   357  3.5600000000000D+00  0.0000000000000D+00  0.0000000000000D+00
   358  3.5700000000000D+00  0.0000000000000D+00  0.0000000000000D+00
   359  3.5800000000000D+00  0.0000000000000D+00  0.0000000000000D+00
   360  3.5900000000000D+00  0.0000000000000D+00  0.0000000000000D+00
   361  3.6000000000000D+00  0.0000000000000D+00  0.0000000000000D+00
   362  3.6100000000000D+00  0.0000000000000D+00  0.0000000000000D+00
   363  3.6200000000000D+00  0.0000000000000D+00  0.0000000000000D+00
   364  3.6300000000000D+00  0.0000000000000D+00  0.0000000000000D+00
   365  3.6400000000000D+00  0.0000000000000D+00  0.0000000000000D+00
   366  3.6500000000000D+00  0.0000000000000D+00  0.0000000000000D+00
   367  3.6600000000000D+00  0.0000000000000D+00  0.0000000000000D+00
   368  3.6700000000000D+00  0.0000000000000D+00  0.0000000000000D+00
   369  3.6800000000000D+00  0.0000000000000D+00  0.0000000000000D+00
   370  3.6900000000000D+00  0.0000000000000D+00  0.0000000000000D+00
   371  3.7000000000000D+00  0.0000000000000D+00  0.0000000000000D+00
   372  3.7100000000000D+00  0.0000000000000D+00  0.0000000000000D+00
   373  3.7200000000000D+00  0.0000000000000D+00  0.0000000000000D+00
   374  3.7300000000000D+00  0.0000000000000D+00  0.0000000000000D+00
   375  3.7400000000000D+00  0.0000000000000D+00  0.0000000000000D+00
   376  3.7500000000000D+00  0.0000000000000D+00  0.0000000000000D+00
   377  3.7600000000000D+00  0.0000000000000D+00  0.0000000000000D+00
   378  3.7700000000000D+00  0.0000000000000D+00  0.0000000000000D+00
   379  3.7800000000000D+00  0.0000000000000D+00  0.0000000000000D+00
   380  3.7900000000000D+00  0.0000000000000D+00  0.0000000000000D+00
   381  3.8000000000000D+00  0.0000000000000D+00  0.0000000000000D+00
   382  3.8100000000000D+00  0.0000000000000D+00  0.0000000000000D+00
   383  3.8200000000000D+00  0.0000000000000D+00  0.0000000000000D+00
   384  3.8300000000000D+00  0.0000000000000D+00  0.0000000000000D+00
   385  3.8400000000000D+00  0.0000000000000D+00  0.0000000000000D+00
   386  3.8500000000000D+00  0.0000000000000D+00  0.0000000000000D+00
   387  3.8600000000000D+00  0.0000000000000D+00  0.0000000000000D+00
   388  3.8700000000000D+00  0.0000000000000D+00  0.0000000000000D+00
   389  3.8800000000000D+00  0.0000000000000D+00  0.0000000000000D+00
   390  3.8900000000000D+00  0.0000000000000D+00  0.0000000000000D+00
   391  3.9000000000000D+00  0.0000000000000D+00  0.0000000000000D+00
   392  3.9100000000000D+00  0.0000000000000D+00  0.0000000000000D+00
   393  3.9200000000000D+00  0.0000000000000D+00  0.0000000000000D+00
   394  3.9300000000000D+00  0.0000000000000D+00  0.0000000000000D+00
   395  3.9400000000000D+00  0.0000000000000D+00  0.0000000000000D+00
   396  3.9500000000000D+00  0.0000000000000D+00  0.0000000000000D+00
   397  3.9600000000000D+00  0.0000000000000D+00  0.0000000000000D+00
   398  3.9700000000000D+00  0.0000000000000D+00  0.0000000000000D+00
   399  3.9800000000000D+00  0.0000000000000D+00  0.0000000000000D+00
   400  3.9900000000000D+00  0.0000000000000D+00  0.0000000000000D+00
   401  4.0000000000000D+00  0.0000000000000D+00  0.0000000000000D+00
   402  4.0100000000000D+00  0.0000000000000D+00  0.0000000000000D+00
   403  4.0200000000000D+00  0.0000000000000D+00  0.0000000000000D+00
   404  4.0300000000000D+00  0.0000000000000D+00  0.0000000000000D+00
   405  4.0400000000000D+00  0.0000000000000D+00  0.0000000000000D+00
   406  4.0500000000000D+00  0.0000000000000D+00  0.0000000000000D+00
   407  4.0600000000000D+00  0.0000000000000D+00  0.0000000000000D+00
   408  4.0700000000000D+00  0.0000000000000D+00  0.0000000000000D+00
   409  4.0800000000000D+00  0.0000000000000D+00  0.0000000000000D+00
   410  4.0900000000000D+00  0.0000000000000D+00  0.0000000000000D+00
   411  4.1000000000000D+00  0.0000000000000D+00  0.0000000000000D+00
   412  4.1100000000000D+00  0.0000000000000D+00  0.0000000000000D+00
   413  4.1200000000000D+00  0.0000000000000D+00  0.0000000000000D+00
   414  4.1300000000000D+00  0.0000000000000D+00  0.0000000000000D+00
   415  4.1400000000000D+00  0.0000000000000D+00  0.0000000000000D+00
   416  4.1500000000000D+00  0.0000000000000D+00  0.0000000000000D+00
   417  4.1600000000000D+00  0.0000000000000D+00  0.0000000000000D+00
   418  4.1700000000000D+00  0.0000000000000D+00  0.0000000000000D+00
   419  4.1800000000000D+00  0.0000000000000D+00  0.0000000000000D+00
   420  4.1900000000000D+00  0.0000000000000D+00  0.0000000000000D+00
   421  4.2000000000000D+00  0.0000000000000D+00  0.0000000000000D+00
   422  4.2100000000000D+00  0.0000000000000D+00  0.0000000000000D+00