Hf    ONCVPSP-3.3.1  r_core=   1.93355   2.12716   2.05238   3.04240
     72.0000     26.0000      210904    zatom,zion,pspd
     8      11   3     4   600     0    pspcod,pspxc,lmax,lloc,mmax,r2well
  5.99000000  0.00000000  0.00000000    rchrg fchrg qchrg
     2     2     2     2     0    nproj
     1     1           extension_switch
   0                         1.0130934384970D+01 -1.5969771893854D-01
     1  0.0000000000000D+00 -7.1018746439222D-12  2.3352072012206D-11
     2  1.0000000000000D-02  6.7687689207323D-02 -1.8848751983897D-03
     3  2.0000000000000D-02  1.3524294846780D-01 -3.7635571906425D-03
     4  3.0000000000000D-02  2.0253368501468D-01 -5.6298253577095D-03
     5  4.0000000000000D-02  2.6942847953549D-01 -7.4774040549064D-03
     6  5.0000000000000D-02  3.3579692063612D-01 -9.2999346056521D-03
     7  6.0000000000000D-02  4.0150993659424D-01 -1.1090946719914D-02
     8  7.0000000000000D-02  4.6644012350672D-01 -1.2843829173527D-02
     9  8.0000000000000D-02  5.3046206894277D-01 -1.4551799607921D-02
    10  9.0000000000000D-02  5.9345267022354D-01 -1.6207873338514D-02
    11  1.0000000000000D-01  6.5529144645972D-01 -1.7804831093631D-02
    12  1.1000000000000D-01  7.1586084349103D-01 -1.9335185643879D-02
    13  1.2000000000000D-01  7.7504653088639D-01 -2.0791147323683D-02
    14  1.3000000000000D-01  8.3273769017976D-01 -2.2164588492391D-02
    15  1.4000000000000D-01  8.8882729353511D-01 -2.3447007030021D-02
    16  1.5000000000000D-01  9.4321237205456D-01 -2.4629489013133D-02
    17  1.6000000000000D-01  9.9579427296603D-01 -2.5702670767784D-02
    18  1.7000000000000D-01  1.0464789049514D+00 -2.6656700548716D-02
    19  1.8000000000000D-01  1.0951769709031D+00 -2.7481200145937D-02
    20  1.9000000000000D-01  1.1418041874245D+00 -2.8165226771137D-02
    21  2.0000000000000D-01  1.1862814904236D+00 -2.8697235626049D-02
    22  2.1000000000000D-01  1.2285352261781D+00 -2.9065043601736D-02
    23  2.2000000000000D-01  1.2684973272892D+00 -2.9255794602029D-02
    24  2.3000000000000D-01  1.3061054729773D+00 -2.9255927024492D-02
    25  2.4000000000000D-01  1.3413032332117D+00 -2.9051143967357D-02
    26  2.5000000000000D-01  1.3740401962101D+00 -2.8626386761607D-02
    27  2.6000000000000D-01  1.4042720788854D+00 -2.7965812451067D-02
    28  2.7000000000000D-01  1.4319608198655D+00 -2.7052775862043D-02
    29  2.8000000000000D-01  1.4570746547573D+00 -2.5869816913455D-02
    30  2.9000000000000D-01  1.4795881733788D+00 -2.4398653823584D-02
    31  3.0000000000000D-01  1.4994823587322D+00 -2.2620182862976D-02
    32  3.1000000000000D-01  1.5167446075462D+00 -2.0514485292615D-02
    33  3.2000000000000D-01  1.5313687322697D+00 -1.8060842103499D-02
    34  3.3000000000000D-01  1.5433549444575D+00 -1.5237757146008D-02
    35  3.4000000000000D-01  1.5527098195434D+00 -1.2022989197931D-02
    36  3.5000000000000D-01  1.5594462430574D+00 -8.3935934752496D-03
    37  3.6000000000000D-01  1.5635833384049D+00 -4.3259730332266D-03
    38  3.7000000000000D-01  1.5651463763822D+00  2.0405955612019D-04
    39  3.8000000000000D-01  1.5641666666694D+00  5.2212099355553D-03
    40  3.9000000000000D-01  1.5606814315987D+00  1.0750618866316D-02
    41  4.0000000000000D-01  1.5547336625623D+00  1.6817768152506D-02
    42  4.1000000000000D-01  1.5463719594812D+00  2.3448375524884D-02
    43  4.2000000000000D-01  1.5356503538227D+00  3.0668278521155D-02
    44  4.3000000000000D-01  1.5226281157090D+00  3.8503307499865D-02
    45  4.4000000000000D-01  1.5073695457254D+00  4.6979148032368D-02
    46  4.5000000000000D-01  1.4899437520887D+00  5.6121193024792D-02
    47  4.6000000000000D-01  1.4704244138982D+00  6.5954385034180D-02
    48  4.7000000000000D-01  1.4488895312444D+00  7.6503049354785D-02
    49  4.8000000000000D-01  1.4254211630026D+00  8.7790718563196D-02
    50  4.9000000000000D-01  1.4001051531911D+00  9.9839949322858D-02
    51  5.0000000000000D-01  1.3730308468209D+00  1.1267213235785D-01
    52  5.1000000000000D-01  1.3442907962064D+00  1.2630729661354D-01
    53  5.2000000000000D-01  1.3139804587515D+00  1.4076390872283D-01
    54  5.3000000000000D-01  1.2821978872607D+00  1.5605866899568D-01
    55  5.4000000000000D-01  1.2490434138602D+00  1.7220630523923D-01
    56  5.5000000000000D-01  1.2146193286433D+00  1.8921936580056D-01
    57  5.6000000000000D-01  1.1790295541813D+00  2.0710801329860D-01
    58  5.7000000000000D-01  1.1423793170610D+00  2.2587982057830D-01
    59  5.8000000000000D-01  1.1047748176275D+00  2.4553957047530D-01
    60  5.9000000000000D-01  1.0663228991222D+00  2.6608906102421D-01
    61  6.0000000000000D-01  1.0271307174132D+00  2.8752691777618D-01
    62  6.1000000000000D-01  9.8730541251656D-01  3.0984841491193D-01
    63  6.2000000000000D-01  9.4695378310274D-01  3.3304530684240D-01
    64  6.3000000000000D-01  9.0618196517516D-01  3.5710567198478D-01
    65  6.4000000000000D-01  8.6509511609213D-01  3.8201377037810D-01
    66  6.5000000000000D-01  8.2379710508463D-01  4.0774991677043D-01
    67  6.6000000000000D-01  7.8239021139738D-01  4.3429037075907D-01
    68  6.7000000000000D-01  7.4097483115046D-01  4.6160724550184D-01
    69  6.8000000000000D-01  6.9964919398348D-01  4.8966843643886D-01
    70  6.9000000000000D-01  6.5850909050381D-01  5.1843757137348D-01
    71  7.0000000000000D-01  6.1764761151523D-01  5.4787398315342D-01
    72  7.1000000000000D-01  5.7715489995286D-01  5.7793270607493D-01
    73  7.2000000000000D-01  5.3711791639616D-01  6.0856449700004D-01
    74  7.3000000000000D-01  4.9762021897200D-01  6.3971588203331D-01
    75  7.4000000000000D-01  4.5874175839772D-01  6.7132922944945D-01
    76  7.5000000000000D-01  4.2055868884638D-01  7.0334284939648D-01
    77  7.6000000000000D-01  3.8314319524653D-01  7.3569112072590D-01
    78  7.7000000000000D-01  3.4656333755559D-01  7.6830464511718D-01
    79  7.8000000000000D-01  3.1088291246928D-01  8.0111042847526D-01
    80  7.9000000000000D-01  2.7616133295147D-01  8.3403208938401D-01
    81  8.0000000000000D-01  2.4245352588802D-01  8.6699009419973D-01
    82  8.1000000000000D-01  2.0980984808621D-01  8.9990201816678D-01
    83  8.2000000000000D-01  1.7827602075818D-01  9.3268283173505D-01
    84  8.3000000000000D-01  1.4789308254288D-01  9.6524521105543D-01
    85  8.4000000000000D-01  1.1869736103692D-01  9.9749987143084D-01
    86  8.5000000000000D-01  9.0720462720794D-02  1.0293559223017D+00
    87  8.6000000000000D-01  6.3989281083732D-02  1.0607212421551D+00
    88  8.7000000000000D-01  3.8526022668382D-02  1.0915028715611D+00
    89  8.8000000000000D-01  1.4348250675926D-02  1.1216074223650D+00
    90  8.9000000000000D-01 -8.5310543061429D-03  1.1509415008964D+00
    91  9.0000000000000D-01 -3.0103416967586D-02  1.1794121429042D+00
    92  9.1000000000000D-01 -5.0364773917032D-02  1.2069272577827D+00
    93  9.2000000000000D-01 -6.9315364958609D-02  1.2333960795289D+00
    94  9.3000000000000D-01 -8.6959609726464D-02  1.2587296217582D+00
    95  9.4000000000000D-01 -1.0330597046209D-01  1.2828411340121D+00
    96  9.5000000000000D-01 -1.1836680177705D-01  1.3056465565154D+00
    97  9.6000000000000D-01 -1.3215818829662D-01  1.3270649704802D+00
    98  9.7000000000000D-01 -1.4469977112767D-01  1.3470190410202D+00
    99  9.8000000000000D-01 -1.5601456413673D-01  1.3654354497168D+00
   100  9.9000000000000D-01 -1.6612876106116D-01  1.3822453138852D+00
   101  1.0000000000000D+00 -1.7507153450784D-01  1.3973845896123D+00
   102  1.0100000000000D+00 -1.8287482791873D-01  1.4107944556857D+00
   103  1.0200000000000D+00 -1.8957314160261D-01  1.4224216755976D+00
   104  1.0300000000000D+00 -1.9520331394529D-01  1.4322189349052D+00
   105  1.0400000000000D+00 -1.9980429891773D-01  1.4401451513309D+00
   106  1.0500000000000D+00 -2.0341694100248D-01  1.4461657551247D+00
   107  1.0600000000000D+00 -2.0608374865280D-01  1.4502529373695D+00
   108  1.0700000000000D+00 -2.0784866738949D-01  1.4523858640603D+00
   109  1.0800000000000D+00 -2.0875685362095D-01  1.4525508540078D+00
   110  1.0900000000000D+00 -2.0885445024998D-01  1.4507415188087D+00
   111  1.1000000000000D+00 -2.0818836510167D-01  1.4469588633566D+00
   112  1.1100000000000D+00 -2.0680605317055D-01  1.4412113456163D+00
   113  1.1200000000000D+00 -2.0475530365165D-01  1.4335148946065D+00
   114  1.1300000000000D+00 -2.0208403266725D-01  1.4238928858535D+00
   115  1.1400000000000D+00 -1.9884008255817D-01  1.4123760738151D+00
   116  1.1500000000000D+00 -1.9507102854740D-01  1.3990024811013D+00
   117  1.1600000000000D+00 -1.9082399354286D-01  1.3838172445325D+00
   118  1.1700000000000D+00 -1.8614547176402D-01  1.3668724184770D+00
   119  1.1800000000000D+00 -1.8108116182424D-01  1.3482267361511D+00
   120  1.1900000000000D+00 -1.7567580983312D-01  1.3279453298706D+00
   121  1.2000000000000D+00 -1.6997306301992D-01  1.3060994115246D+00
   122  1.2100000000000D+00 -1.6401533429339D-01  1.2827659148969D+00
   123  1.2200000000000D+00 -1.5784367807945D-01  1.2580271017460D+00
   124  1.2300000000000D+00 -1.5149767774371D-01  1.2319701337015D+00
   125  1.2400000000000D+00 -1.4501534477734D-01  1.2046866125165D+00
   126  1.2500000000000D+00 -1.3843302987306D-01  1.1762720913714D+00
   127  1.2600000000000D+00 -1.3178534597370D-01  1.1468255600973D+00
   128  1.2700000000000D+00 -1.2510510326162D-01  1.1164489075590D+00
   129  1.2800000000000D+00 -1.1842325598881D-01  1.0852463646164D+00
   130  1.2900000000000D+00 -1.1176886102483D-01  1.0533239311612D+00
   131  1.3000000000000D+00 -1.0516904788386D-01  1.0207887910524D+00
   132  1.3100000000000D+00 -9.8648999925237D-02  9.8774871888064D-01
   133  1.3200000000000D+00 -9.2231946425075D-02  9.5431148251458D-01
   134  1.3300000000000D+00 -8.5939165083965D-02  9.2058424565256D-01
   135  1.3400000000000D+00 -7.9789994498820D-02  8.8667297456056D-01
   136  1.3500000000000D+00 -7.3801856146277D-02  8.5268185324817D-01
   137  1.3600000000000D+00 -6.7990285264069D-02  8.1871271141535D-01
   138  1.3700000000000D+00 -6.2368970066393D-02  7.8486446938219D-01
   139  1.3800000000000D+00 -5.6949798673371D-02  7.5123260435885D-01
   140  1.3900000000000D+00 -5.1742913057614D-02  7.1790864210486D-01
   141  1.4000000000000D+00 -4.6756769360879D-02  6.8497967819799D-01
   142  1.4100000000000D+00 -4.1998203843250D-02  6.5252793288417D-01
   143  1.4200000000000D+00 -3.7472503753668D-02  6.2063034315447D-01
   144  1.4300000000000D+00 -3.3183482386564D-02  5.8935819612741D-01
   145  1.4400000000000D+00 -2.9133557581088D-02  5.5877680667717D-01
   146  1.4500000000000D+00 -2.5323832927384D-02  5.2894524304166D-01
   147  1.4600000000000D+00 -2.1754180934354D-02  4.9991610318146D-01
   148  1.4700000000000D+00 -1.8423327460607D-02  4.7173534447460D-01
   149  1.4800000000000D+00 -1.5328936642876D-02  4.4444216985634D-01
   150  1.4900000000000D+00 -1.2467695719294D-02  4.1806897144779D-01
   151  1.5000000000000D+00 -9.8353989641225D-03  3.9264133493802D-01
   152  1.5100000000000D+00 -7.4270302117138D-03  3.6817810481128D-01
   153  1.5200000000000D+00 -5.2368432688837D-03  3.4469151267888D-01
   154  1.5300000000000D+00 -3.2584396852910D-03  3.2218736895546D-01
   155  1.5400000000000D+00 -1.4848433656973D-03  3.0066531829567D-01
   156  1.5500000000000D+00  9.1428564331537D-05  2.8011915955599D-01
   157  1.5600000000000D+00  1.4782989146640D-03  2.6053722865897D-01
   158  1.5700000000000D+00  2.6840682768557D-03  2.4190284568796D-01
   159  1.5800000000000D+00  3.7173575727304D-03  2.2419482263512D-01
   160  1.5900000000000D+00  4.5870560241659D-03  2.0738803337462D-01
   161  1.6000000000000D+00  5.3022743719041D-03  1.9145404108055D-01
   162  1.6100000000000D+00  5.8723039685893D-03  1.7636178385681D-01
   163  1.6200000000000D+00  6.3065815295498D-03  1.6207831365629D-01
   164  1.6300000000000D+00  6.6146599834528D-03  1.4856958791069D-01
   165  1.6400000000000D+00  6.8061851955562D-03  1.3580130902122D-01
   166  1.6500000000000D+00  6.8908788223164D-03  1.2373980990707D-01
   167  1.6600000000000D+00  6.8785278913042D-03  1.1235299559599D-01
   168  1.6700000000000D+00  6.7789765791639D-03  1.0161125617614D-01
   169  1.6800000000000D+00  6.6021347930130D-03  9.1488606363680D-02
   170  1.6900000000000D+00  6.3579665072984D-03  8.1963411125917D-02
   171  1.7000000000000D+00  6.0564888836519D-03  7.3019210084805D-02
   172  1.7100000000000D+00  5.7078972569876D-03  6.4647701793441D-02
   173  1.7200000000000D+00  5.3225051958297D-03  5.6848418138520D-02
   174  1.7300000000000D+00  4.9104469445038D-03  4.9624031907521D-02
   175  1.7400000000000D+00  4.4814641270407D-03  4.2977288613450D-02
   176  1.7500000000000D+00  4.0446125987054D-03  3.6906782320487D-02
   177  1.7600000000000D+00  3.6080348791973D-03  3.1403782250184D-02
   178  1.7700000000000D+00  3.1790542033158D-03  2.6454771762388D-02
   179  1.7800000000000D+00  2.7641897504201D-03  2.2042568523943D-02
   180  1.7900000000000D+00  2.3690954133782D-03  1.8145888210100D-02
   181  1.8000000000000D+00  1.9985736731019D-03  1.4740237718492D-02
   182  1.8100000000000D+00  1.6565630750199D-03  1.1798245620822D-02
   183  1.8200000000000D+00  1.3461378380745D-03  9.2901432823025D-03
   184  1.8300000000000D+00  1.0695080036396D-03  7.1841886182737D-03
   185  1.8400000000000D+00  8.2802189554336D-04  5.4470667751540D-03
   186  1.8500000000000D+00  6.2217000770792D-04  4.0442570225117D-03
   187  1.8600000000000D+00  4.5159053635003D-04  2.9403700128083D-03
   188  1.8700000000000D+00  3.1509865524550D-04  2.0999684298287D-03
   189  1.8800000000000D+00  2.1061945990104D-04  1.4861343631987D-03
   190  1.8900000000000D+00  1.3506016387465D-04  1.0589017605491D-03
   191  1.9000000000000D+00  8.4646891410909D-05  7.8152881011005D-04
   192  1.9100000000000D+00  5.6255892120476D-05  6.3879651471928D-04
   193  1.9200000000000D+00  4.6202910995248D-05  6.1551908885507D-04
   194  1.9300000000000D+00  4.1274094154602D-05  5.8023915033459D-04
   195  1.9400000000000D+00  2.8780157886118D-05  4.0712268704506D-04
   196  1.9500000000000D+00  1.0586356595539D-05  1.4919435232721D-04
   197  1.9600000000000D+00 -2.2573992807108D-06 -3.2430523976463D-05
   198  1.9700000000000D+00 -3.6446157454254D-06 -5.2399722568909D-05
   199  1.9800000000000D+00 -9.7688988163116D-08 -1.4043884667263D-06
   200  1.9900000000000D+00  8.6983432212016D-07  1.2658150655854D-05
   201  2.0000000000000D+00  4.0045719551037D-07  5.8374715394257D-06
   202  2.0100000000000D+00 -8.3807493709183D-08 -1.1812646081997D-06
   203  2.0200000000000D+00 -9.1619020957267D-08 -1.2913678968886D-06
   204  2.0300000000000D+00  0.0000000000000D+00  0.0000000000000D+00
   205  2.0400000000000D+00  0.0000000000000D+00  0.0000000000000D+00
   206  2.0500000000000D+00  0.0000000000000D+00  0.0000000000000D+00
   207  2.0600000000000D+00  0.0000000000000D+00  0.0000000000000D+00
   208  2.0700000000000D+00  0.0000000000000D+00  0.0000000000000D+00
   209  2.0800000000000D+00  0.0000000000000D+00  0.0000000000000D+00
   210  2.0900000000000D+00  0.0000000000000D+00  0.0000000000000D+00
   211  2.1000000000000D+00  0.0000000000000D+00  0.0000000000000D+00
   212  2.1100000000000D+00  0.0000000000000D+00  0.0000000000000D+00
   213  2.1200000000000D+00  0.0000000000000D+00  0.0000000000000D+00
   214  2.1300000000000D+00  0.0000000000000D+00  0.0000000000000D+00
   215  2.1400000000000D+00  0.0000000000000D+00  0.0000000000000D+00
   216  2.1500000000000D+00  0.0000000000000D+00  0.0000000000000D+00
   217  2.1600000000000D+00  0.0000000000000D+00  0.0000000000000D+00
   218  2.1700000000000D+00  0.0000000000000D+00  0.0000000000000D+00
   219  2.1800000000000D+00  0.0000000000000D+00  0.0000000000000D+00
   220  2.1900000000000D+00  0.0000000000000D+00  0.0000000000000D+00
   221  2.2000000000000D+00  0.0000000000000D+00  0.0000000000000D+00
   222  2.2100000000000D+00  0.0000000000000D+00  0.0000000000000D+00
   223  2.2200000000000D+00  0.0000000000000D+00  0.0000000000000D+00
   224  2.2300000000000D+00  0.0000000000000D+00  0.0000000000000D+00
   225  2.2400000000000D+00  0.0000000000000D+00  0.0000000000000D+00
   226  2.2500000000000D+00  0.0000000000000D+00  0.0000000000000D+00
   227  2.2600000000000D+00  0.0000000000000D+00  0.0000000000000D+00
   228  2.2700000000000D+00  0.0000000000000D+00  0.0000000000000D+00
   229  2.2800000000000D+00  0.0000000000000D+00  0.0000000000000D+00
   230  2.2900000000000D+00  0.0000000000000D+00  0.0000000000000D+00
   231  2.3000000000000D+00  0.0000000000000D+00  0.0000000000000D+00
   232  2.3100000000000D+00  0.0000000000000D+00  0.0000000000000D+00
   233  2.3200000000000D+00  0.0000000000000D+00  0.0000000000000D+00
   234  2.3300000000000D+00  0.0000000000000D+00  0.0000000000000D+00
   235  2.3400000000000D+00  0.0000000000000D+00  0.0000000000000D+00
   236  2.3500000000000D+00  0.0000000000000D+00  0.0000000000000D+00
   237  2.3600000000000D+00  0.0000000000000D+00  0.0000000000000D+00
   238  2.3700000000000D+00  0.0000000000000D+00  0.0000000000000D+00
   239  2.3800000000000D+00  0.0000000000000D+00  0.0000000000000D+00
   240  2.3900000000000D+00  0.0000000000000D+00  0.0000000000000D+00
   241  2.4000000000000D+00  0.0000000000000D+00  0.0000000000000D+00
   242  2.4100000000000D+00  0.0000000000000D+00  0.0000000000000D+00
   243  2.4200000000000D+00  0.0000000000000D+00  0.0000000000000D+00
   244  2.4300000000000D+00  0.0000000000000D+00  0.0000000000000D+00
   245  2.4400000000000D+00  0.0000000000000D+00  0.0000000000000D+00
   246  2.4500000000000D+00  0.0000000000000D+00  0.0000000000000D+00
   247  2.4600000000000D+00  0.0000000000000D+00  0.0000000000000D+00
   248  2.4700000000000D+00  0.0000000000000D+00  0.0000000000000D+00
   249  2.4800000000000D+00  0.0000000000000D+00  0.0000000000000D+00
   250  2.4900000000000D+00  0.0000000000000D+00  0.0000000000000D+00
   251  2.5000000000000D+00  0.0000000000000D+00  0.0000000000000D+00
   252  2.5100000000000D+00  0.0000000000000D+00  0.0000000000000D+00
   253  2.5200000000000D+00  0.0000000000000D+00  0.0000000000000D+00
   254  2.5300000000000D+00  0.0000000000000D+00  0.0000000000000D+00
   255  2.5400000000000D+00  0.0000000000000D+00  0.0000000000000D+00
   256  2.5500000000000D+00  0.0000000000000D+00  0.0000000000000D+00
   257  2.5600000000000D+00  0.0000000000000D+00  0.0000000000000D+00
   258  2.5700000000000D+00  0.0000000000000D+00  0.0000000000000D+00
   259  2.5800000000000D+00  0.0000000000000D+00  0.0000000000000D+00
   260  2.5900000000000D+00  0.0000000000000D+00  0.0000000000000D+00
   261  2.6000000000000D+00  0.0000000000000D+00  0.0000000000000D+00
   262  2.6100000000000D+00  0.0000000000000D+00  0.0000000000000D+00
   263  2.6200000000000D+00  0.0000000000000D+00  0.0000000000000D+00
   264  2.6300000000000D+00  0.0000000000000D+00  0.0000000000000D+00
   265  2.6400000000000D+00  0.0000000000000D+00  0.0000000000000D+00
   266  2.6500000000000D+00  0.0000000000000D+00  0.0000000000000D+00
   267  2.6600000000000D+00  0.0000000000000D+00  0.0000000000000D+00
   268  2.6700000000000D+00  0.0000000000000D+00  0.0000000000000D+00
   269  2.6800000000000D+00  0.0000000000000D+00  0.0000000000000D+00
   270  2.6900000000000D+00  0.0000000000000D+00  0.0000000000000D+00
   271  2.7000000000000D+00  0.0000000000000D+00  0.0000000000000D+00
   272  2.7100000000000D+00  0.0000000000000D+00  0.0000000000000D+00
   273  2.7200000000000D+00  0.0000000000000D+00  0.0000000000000D+00
   274  2.7300000000000D+00  0.0000000000000D+00  0.0000000000000D+00
   275  2.7400000000000D+00  0.0000000000000D+00  0.0000000000000D+00
   276  2.7500000000000D+00  0.0000000000000D+00  0.0000000000000D+00
   277  2.7600000000000D+00  0.0000000000000D+00  0.0000000000000D+00
   278  2.7700000000000D+00  0.0000000000000D+00  0.0000000000000D+00
   279  2.7800000000000D+00  0.0000000000000D+00  0.0000000000000D+00
   280  2.7900000000000D+00  0.0000000000000D+00  0.0000000000000D+00
   281  2.8000000000000D+00  0.0000000000000D+00  0.0000000000000D+00
   282  2.8100000000000D+00  0.0000000000000D+00  0.0000000000000D+00
   283  2.8200000000000D+00  0.0000000000000D+00  0.0000000000000D+00
   284  2.8300000000000D+00  0.0000000000000D+00  0.0000000000000D+00
   285  2.8400000000000D+00  0.0000000000000D+00  0.0000000000000D+00
   286  2.8500000000000D+00  0.0000000000000D+00  0.0000000000000D+00
   287  2.8600000000000D+00  0.0000000000000D+00  0.0000000000000D+00
   288  2.8700000000000D+00  0.0000000000000D+00  0.0000000000000D+00
   289  2.8800000000000D+00  0.0000000000000D+00  0.0000000000000D+00
   290  2.8900000000000D+00  0.0000000000000D+00  0.0000000000000D+00
   291  2.9000000000000D+00  0.0000000000000D+00  0.0000000000000D+00
   292  2.9100000000000D+00  0.0000000000000D+00  0.0000000000000D+00
   293  2.9200000000000D+00  0.0000000000000D+00  0.0000000000000D+00
   294  2.9300000000000D+00  0.0000000000000D+00  0.0000000000000D+00
   295  2.9400000000000D+00  0.0000000000000D+00  0.0000000000000D+00
   296  2.9500000000000D+00  0.0000000000000D+00  0.0000000000000D+00
   297  2.9600000000000D+00  0.0000000000000D+00  0.0000000000000D+00
   298  2.9700000000000D+00  0.0000000000000D+00  0.0000000000000D+00
   299  2.9800000000000D+00  0.0000000000000D+00  0.0000000000000D+00
   300  2.9900000000000D+00  0.0000000000000D+00  0.0000000000000D+00
   301  3.0000000000000D+00  0.0000000000000D+00  0.0000000000000D+00
   302  3.0100000000000D+00  0.0000000000000D+00  0.0000000000000D+00
   303  3.0200000000000D+00  0.0000000000000D+00  0.0000000000000D+00
   304  3.0300000000000D+00  0.0000000000000D+00  0.0000000000000D+00
   305  3.0400000000000D+00  0.0000000000000D+00  0.0000000000000D+00
   306  3.0500000000000D+00  0.0000000000000D+00  0.0000000000000D+00
   307  3.0600000000000D+00  0.0000000000000D+00  0.0000000000000D+00
   308  3.0700000000000D+00  0.0000000000000D+00  0.0000000000000D+00
   309  3.0800000000000D+00  0.0000000000000D+00  0.0000000000000D+00
   310  3.0900000000000D+00  0.0000000000000D+00  0.0000000000000D+00
   311  3.1000000000000D+00  0.0000000000000D+00  0.0000000000000D+00
   312  3.1100000000000D+00  0.0000000000000D+00  0.0000000000000D+00
   313  3.1200000000000D+00  0.0000000000000D+00  0.0000000000000D+00
   314  3.1300000000000D+00  0.0000000000000D+00  0.0000000000000D+00
   315  3.1400000000000D+00  0.0000000000000D+00  0.0000000000000D+00
   316  3.1500000000000D+00  0.0000000000000D+00  0.0000000000000D+00
   317  3.1600000000000D+00  0.0000000000000D+00  0.0000000000000D+00
   318  3.1700000000000D+00  0.0000000000000D+00  0.0000000000000D+00
   319  3.1800000000000D+00  0.0000000000000D+00  0.0000000000000D+00
   320  3.1900000000000D+00  0.0000000000000D+00  0.0000000000000D+00
   321  3.2000000000000D+00  0.0000000000000D+00  0.0000000000000D+00
   322  3.2100000000000D+00  0.0000000000000D+00  0.0000000000000D+00
   323  3.2200000000000D+00  0.0000000000000D+00  0.0000000000000D+00
   324  3.2300000000000D+00  0.0000000000000D+00  0.0000000000000D+00
   325  3.2400000000000D+00  0.0000000000000D+00  0.0000000000000D+00
   326  3.2500000000000D+00  0.0000000000000D+00  0.0000000000000D+00
   327  3.2600000000000D+00  0.0000000000000D+00  0.0000000000000D+00
   328  3.2700000000000D+00  0.0000000000000D+00  0.0000000000000D+00
   329  3.2800000000000D+00  0.0000000000000D+00  0.0000000000000D+00
   330  3.2900000000000D+00  0.0000000000000D+00  0.0000000000000D+00
   331  3.3000000000000D+00  0.0000000000000D+00  0.0000000000000D+00
   332  3.3100000000000D+00  0.0000000000000D+00  0.0000000000000D+00
   333  3.3200000000000D+00  0.0000000000000D+00  0.0000000000000D+00
   334  3.3300000000000D+00  0.0000000000000D+00  0.0000000000000D+00
   335  3.3400000000000D+00  0.0000000000000D+00  0.0000000000000D+00
   336  3.3500000000000D+00  0.0000000000000D+00  0.0000000000000D+00
   337  3.3600000000000D+00  0.0000000000000D+00  0.0000000000000D+00
   338  3.3700000000000D+00  0.0000000000000D+00  0.0000000000000D+00
   339  3.3800000000000D+00  0.0000000000000D+00  0.0000000000000D+00
   340  3.3900000000000D+00  0.0000000000000D+00  0.0000000000000D+00
   341  3.4000000000000D+00  0.0000000000000D+00  0.0000000000000D+00
   342  3.4100000000000D+00  0.0000000000000D+00  0.0000000000000D+00
   343  3.4200000000000D+00  0.0000000000000D+00  0.0000000000000D+00
   344  3.4300000000000D+00  0.0000000000000D+00  0.0000000000000D+00
   345  3.4400000000000D+00  0.0000000000000D+00  0.0000000000000D+00
   346  3.4500000000000D+00  0.0000000000000D+00  0.0000000000000D+00
   347  3.4600000000000D+00  0.0000000000000D+00  0.0000000000000D+00
   348  3.4700000000000D+00  0.0000000000000D+00  0.0000000000000D+00
   349  3.4800000000000D+00  0.0000000000000D+00  0.0000000000000D+00
   350  3.4900000000000D+00  0.0000000000000D+00  0.0000000000000D+00
   351  3.5000000000000D+00  0.0000000000000D+00  0.0000000000000D+00
   352  3.5100000000000D+00  0.0000000000000D+00  0.0000000000000D+00
   353  3.5200000000000D+00  0.0000000000000D+00  0.0000000000000D+00
   354  3.5300000000000D+00  0.0000000000000D+00  0.0000000000000D+00
   355  3.5400000000000D+00  0.0000000000000D+00  0.0000000000000D+00
   356  3.5500000000000D+00  0.0000000000000D+00  0.0000000000000D+00
   357  3.5600000000000D+00  0.0000000000000D+00  0.0000000000000D+00
   358  3.5700000000000D+00  0.0000000000000D+00  0.0000000000000D+00
   359  3.5800000000000D+00  0.0000000000000D+00  0.0000000000000D+00
   360  3.5900000000000D+00  0.0000000000000D+00  0.0000000000000D+00
   361  3.6000000000000D+00  0.0000000000000D+00  0.0000000000000D+00
   362  3.6100000000000D+00  0.0000000000000D+00  0.0000000000000D+00
   363  3.6200000000000D+00  0.0000000000000D+00  0.0000000000000D+00
   364  3.6300000000000D+00  0.0000000000000D+00  0.0000000000000D+00
   365  3.6400000000000D+00  0.0000000000000D+00  0.0000000000000D+00
   366  3.6500000000000D+00  0.0000000000000D+00  0.0000000000000D+00
   367  3.6600000000000D+00  0.0000000000000D+00  0.0000000000000D+00
   368  3.6700000000000D+00  0.0000000000000D+00  0.0000000000000D+00
   369  3.6800000000000D+00  0.0000000000000D+00  0.0000000000000D+00
   370  3.6900000000000D+00  0.0000000000000D+00  0.0000000000000D+00
   371  3.7000000000000D+00  0.0000000000000D+00  0.0000000000000D+00
   372  3.7100000000000D+00  0.0000000000000D+00  0.0000000000000D+00
   373  3.7200000000000D+00  0.0000000000000D+00  0.0000000000000D+00
   374  3.7300000000000D+00  0.0000000000000D+00  0.0000000000000D+00
   375  3.7400000000000D+00  0.0000000000000D+00  0.0000000000000D+00
   376  3.7500000000000D+00  0.0000000000000D+00  0.0000000000000D+00
   377  3.7600000000000D+00  0.0000000000000D+00  0.0000000000000D+00
   378  3.7700000000000D+00  0.0000000000000D+00  0.0000000000000D+00
   379  3.7800000000000D+00  0.0000000000000D+00  0.0000000000000D+00
   380  3.7900000000000D+00  0.0000000000000D+00  0.0000000000000D+00
   381  3.8000000000000D+00  0.0000000000000D+00  0.0000000000000D+00
   382  3.8100000000000D+00  0.0000000000000D+00  0.0000000000000D+00
   383  3.8200000000000D+00  0.0000000000000D+00  0.0000000000000D+00
   384  3.8300000000000D+00  0.0000000000000D+00  0.0000000000000D+00
   385  3.8400000000000D+00  0.0000000000000D+00  0.0000000000000D+00
   386  3.8500000000000D+00  0.0000000000000D+00  0.0000000000000D+00
   387  3.8600000000000D+00  0.0000000000000D+00  0.0000000000000D+00
   388  3.8700000000000D+00  0.0000000000000D+00  0.0000000000000D+00
   389  3.8800000000000D+00  0.0000000000000D+00  0.0000000000000D+00
   390  3.8900000000000D+00  0.0000000000000D+00  0.0000000000000D+00
   391  3.9000000000000D+00  0.0000000000000D+00  0.0000000000000D+00
   392  3.9100000000000D+00  0.0000000000000D+00  0.0000000000000D+00
   393  3.9200000000000D+00  0.0000000000000D+00  0.0000000000000D+00
   394  3.9300000000000D+00  0.0000000000000D+00  0.0000000000000D+00
   395  3.9400000000000D+00  0.0000000000000D+00  0.0000000000000D+00
   396  3.9500000000000D+00  0.0000000000000D+00  0.0000000000000D+00
   397  3.9600000000000D+00  0.0000000000000D+00  0.0000000000000D+00
   398  3.9700000000000D+00  0.0000000000000D+00  0.0000000000000D+00
   399  3.9800000000000D+00  0.0000000000000D+00  0.0000000000000D+00
   400  3.9900000000000D+00  0.0000000000000D+00  0.0000000000000D+00
   401  4.0000000000000D+00  0.0000000000000D+00  0.0000000000000D+00
   402  4.0100000000000D+00  0.0000000000000D+00  0.0000000000000D+00
   403  4.0200000000000D+00  0.0000000000000D+00  0.0000000000000D+00
   404  4.0300000000000D+00  0.0000000000000D+00  0.0000000000000D+00
   405  4.0400000000000D+00  0.0000000000000D+00  0.0000000000000D+00
   406  4.0500000000000D+00  0.0000000000000D+00  0.0000000000000D+00
   407  4.0600000000000D+00  0.0000000000000D+00  0.0000000000000D+00
   408  4.0700000000000D+00  0.0000000000000D+00  0.0000000000000D+00
   409  4.0800000000000D+00  0.0000000000000D+00  0.0000000000000D+00
   410  4.0900000000000D+00  0.0000000000000D+00  0.0000000000000D+00
   411  4.1000000000000D+00  0.0000000000000D+00  0.0000000000000D+00
   412  4.1100000000000D+00  0.0000000000000D+00  0.0000000000000D+00
   413  4.1200000000000D+00  0.0000000000000D+00  0.0000000000000D+00
   414  4.1300000000000D+00  0.0000000000000D+00  0.0000000000000D+00
   415  4.1400000000000D+00  0.0000000000000D+00  0.0000000000000D+00
   416  4.1500000000000D+00  0.0000000000000D+00  0.0000000000000D+00
   417  4.1600000000000D+00  0.0000000000000D+00  0.0000000000000D+00
   418  4.1700000000000D+00  0.0000000000000D+00  0.0000000000000D+00
   419  4.1800000000000D+00  0.0000000000000D+00  0.0000000000000D+00
   420  4.1900000000000D+00  0.0000000000000D+00  0.0000000000000D+00
   421  4.2000000000000D+00  0.0000000000000D+00  0.0000000000000D+00
   422  4.2100000000000D+00  0.0000000000000D+00  0.0000000000000D+00