Hf    ONCVPSP-3.3.1  r_core=   1.93355   2.12716   2.05238   3.04240
     72.0000     26.0000      210904    zatom,zion,pspd
     8      11   3     4   600     0    pspcod,pspxc,lmax,lloc,mmax,r2well
  5.99000000  0.00000000  0.00000000    rchrg fchrg qchrg
     2     4     3     2    nproj
     3     1           extension_switch
     4     4     3    nprojso
   0                        -1.5925438723006D-01  1.0157494875513D+01
     1  0.0000000000000D+00  2.3691413414406D-11 -7.0577987898446D-12
     2  1.0000000000000D-02 -2.1602871981096D-03  6.7632341526704D-02
     3  2.0000000000000D-02 -4.3133007367408D-03  1.3513249677194D-01
     4  3.0000000000000D-02 -6.4517441245818D-03  2.0236861575801D-01
     5  4.0000000000000D-02 -8.5682749859957D-03  2.6920952021205D-01
     6  5.0000000000000D-02 -1.0655481573473D-02  3.3552503716338D-01
     7  6.0000000000000D-02 -1.2705858642681D-02  4.0118632983975D-01
     8  7.0000000000000D-02 -1.4711782506103D-02  4.6606622497019D-01
     9  8.0000000000000D-02 -1.6665485104992D-02  5.3003953560940D-01
    10  9.0000000000000D-02 -1.8559026968555D-02  5.9298337860745D-01
    11  1.0000000000000D-01 -2.0384268963527D-02  6.5477748585910D-01
    12  1.1000000000000D-01 -2.2132842775945D-02  7.1530450847972D-01
    13  1.2000000000000D-01 -2.3796120109812D-02  7.7445031306936D-01
    14  1.3000000000000D-01 -2.5365180633215D-02  8.3210426924255D-01
    15  1.4000000000000D-01 -2.6830778751931D-02  8.8815952762003D-01
    16  1.5000000000000D-01 -2.8183309341301D-02  9.4251328749883D-01
    17  1.6000000000000D-01 -2.9412772619847D-02  9.9506705343944D-01
    18  1.7000000000000D-01 -3.0508738401855D-02  1.0457268800333D+00
    19  1.8000000000000D-01 -3.1460310018518D-02  1.0944036041401D+00
    20  1.9000000000000D-01 -3.2256088250837D-02  1.1410130639142D+00
    21  2.0000000000000D-01 -3.2884135667259D-02  1.1854763039674D+00
    22  2.1000000000000D-01 -3.3331941808260D-02  1.2277197660524D+00
    23  2.2000000000000D-01 -3.3586389705137D-02  1.2676754646828D+00
    24  2.3000000000000D-01 -3.3633724261596D-02  1.3052811471444D+00
    25  2.4000000000000D-01 -3.3459523063967D-02  1.3404804373919D+00
    26  2.5000000000000D-01 -3.3048670217128D-02  1.3732229633674D+00
    27  2.6000000000000D-01 -3.2385333829124D-02  1.4034644673175D+00
    28  2.7000000000000D-01 -3.1452947786357D-02  1.4311668987379D+00
    29  2.8000000000000D-01 -3.0234198474130D-02  1.4562984896142D+00
    30  2.9000000000000D-01 -2.8711017100860D-02  1.4788338116848D+00
    31  3.0000000000000D-01 -2.6864578282276D-02  1.4987538154975D+00
    32  3.1000000000000D-01 -2.4675305529994D-02  1.5160458510887D+00
    33  3.2000000000000D-01 -2.2122884269405D-02  1.5307036701668D+00
    34  3.3000000000000D-01 -1.9186282983303D-02  1.5427274097375D+00
    35  3.4000000000000D-01 -1.5843783041334D-02  1.5521235571693D+00
    36  3.5000000000000D-01 -1.2073017729622D-02  1.5589048967521D+00
    37  3.6000000000000D-01 -7.8510209413876D-03  1.5630904378656D+00
    38  3.7000000000000D-01 -3.1542859274956D-03  1.5647053249313D+00
    39  3.8000000000000D-01  2.0411655640185D-03  1.5637807293875D+00
    40  3.9000000000000D-01  7.7597035077103D-03  1.5603537239825D+00
    41  4.0000000000000D-01  1.4025999011689D-02  1.5544671397486D+00
    42  4.1000000000000D-01  2.0864922843130D-02  1.5461694060769D+00
    43  4.2000000000000D-01  2.8301433086636D-02  1.5355143743766D+00
    44  4.3000000000000D-01  3.6360452056644D-02  1.5225611258607D+00
    45  4.4000000000000D-01  4.5066732688387D-02  1.5073737640616D+00
    46  4.5000000000000D-01  5.4444714742254D-02  1.4900211927373D+00
    47  4.6000000000000D-01  6.4518371266283D-02  1.4705768798850D+00
    48  4.7000000000000D-01  7.5311045873954D-02  1.4491186086356D+00
    49  4.8000000000000D-01  8.6845281506950D-02  1.4257282158530D+00
    50  4.9000000000000D-01  9.9142641464527D-02  1.4004913193156D+00
    51  5.0000000000000D-01  1.1222352359078D-01  1.3734970344001D+00
    52  5.1000000000000D-01  1.2610696861792D-01  1.3448376812398D+00
    53  5.2000000000000D-01  1.4081046376680D-01  1.3146084833623D+00
    54  5.3000000000000D-01  1.5634974280371D-01  1.2829072588567D+00
    55  5.4000000000000D-01  1.7273858384347D-01  1.2498341051505D+00
    56  5.5000000000000D-01  1.8998860627356D-01  1.2154910785072D+00
    57  5.6000000000000D-01  2.0810906824939D-01  1.1799818693826D+00
    58  5.7000000000000D-01  2.2710666627823D-01  1.1434114747971D+00
    59  5.8000000000000D-01  2.4698533846411D-01  1.1058858688999D+00
    60  5.9000000000000D-01  2.6774607303401D-01  1.0675116729113D+00
    61  6.0000000000000D-01  2.8938672379552D-01  1.0283958256374D+00
    62  6.1000000000000D-01  3.1190183420152D-01  9.8864525575159D-01
    63  6.2000000000000D-01  3.3528247170152D-01  9.4836655703619D-01
    64  6.3000000000000D-01  3.5951607405624D-01  9.0766566776573D-01
    65  6.4000000000000D-01  3.8458630927174D-01  8.6664755540205D-01
    66  6.5000000000000D-01  4.1047295077496D-01  8.2541590775040D-01
    67  6.6000000000000D-01  4.3715176940547D-01  7.8407283170149D-01
    68  6.7000000000000D-01  4.6459444373548D-01  7.4271856065461D-01
    69  6.8000000000000D-01  4.9276849015179D-01  7.0145117168129D-01
    70  6.9000000000000D-01  5.2163721404501D-01  6.6036631344945D-01
    71  7.0000000000000D-01  5.5115968334377D-01  6.1955694588213D-01
    72  7.1000000000000D-01  5.8129072551542D-01  5.7911309247559D-01
    73  7.2000000000000D-01  6.1198094902301D-01  5.3912160614660D-01
    74  7.3000000000000D-01  6.4317679008513D-01  4.9966594942027D-01
    75  7.4000000000000D-01  6.7482058543220D-01  4.6082598970707D-01
    76  7.5000000000000D-01  7.0685067158712D-01  4.2267781035061D-01
    77  7.6000000000000D-01  7.3920151102478D-01  3.8529353805817D-01
    78  7.7000000000000D-01  7.7180384538423D-01  3.4874118725245D-01
    79  7.8000000000000D-01  8.0458487571746D-01  3.1308452180750D-01
    80  7.9000000000000D-01  8.3746846956477D-01  2.7838293455287D-01
    81  8.0000000000000D-01  8.7037539445003D-01  2.4469134485042D-01
    82  8.1000000000000D-01  9.0322357718561D-01  2.1206011446591D-01
    83  8.2000000000000D-01  9.3592838817741D-01  1.8053498187470D-01
    84  8.3000000000000D-01  9.6840294971705D-01  1.5015701505730D-01
    85  8.4000000000000D-01  1.0005584670490D+00  1.2096258275643D-01
    86  8.5000000000000D-01  1.0323045808058D+00  9.2983344083810D-02
    87  8.6000000000000D-01  1.0635497392106D+00  6.6246256281499D-02
    88  8.7000000000000D-01  1.0942015882673D+00  4.0773600361216D-02
    89  8.8000000000000D-01  1.1241673779770D+00  1.6583024264272D-02
    90  8.9000000000000D-01  1.1533543824604D+00 -6.3123968932412D-03
    91  9.0000000000000D-01  1.1816703317051D+00 -2.7904084001495D-02
    92  9.1000000000000D-01  1.2090238525226D+00 -4.8187861148234D-02
    93  9.2000000000000D-01  1.2353249161668D+00 -6.7163847474509D-02
    94  9.3000000000000D-01  1.2604852899585D+00 -8.4836334414761D-02
    95  9.4000000000000D-01  1.2844189901640D+00 -1.0121364910313D-01
    96  9.5000000000000D-01  1.3070427333019D+00 -1.1630800478545D-01
    97  9.6000000000000D-01  1.3282763829895D+00 -1.3013533912923D-01
    98  9.7000000000000D-01  1.3480433894081D+00 -1.4271514137163D-01
    99  9.8000000000000D-01  1.3662712184445D+00 -1.5407026928818D-01
   100  9.9000000000000D-01  1.3828917675704D+00 -1.6422675700160D-01
   101  1.0000000000000D+00  1.3978417655482D+00 -1.7321361468212D-01
   102  1.0100000000000D+00  1.4110631530930D+00 -1.8106262121490D-01
   103  1.0200000000000D+00  1.4225034416930D+00 -1.8780811093092D-01
   104  1.0300000000000D+00  1.4321160478790D+00 -1.9348675551013D-01
   105  1.0400000000000D+00  1.4398606003408D+00 -1.9813734217322D-01
   106  1.0500000000000D+00  1.4457032174261D+00 -2.0180054927918D-01
   107  1.0600000000000D+00  1.4496167527104D+00 -2.0451872044016D-01
   108  1.0700000000000D+00  1.4515810064830D+00 -2.0633563825549D-01
   109  1.0800000000000D+00  1.4515829012094D+00 -2.0729629874783D-01
   110  1.0900000000000D+00  1.4496166192176D+00 -2.0744668756216D-01
   111  1.1000000000000D+00  1.4456837010960D+00 -2.0683355895956D-01
   112  1.1100000000000D+00  1.4397931035293D+00 -2.0550421860143D-01
   113  1.1200000000000D+00  1.4319612155256D+00 -2.0350631108694D-01
   114  1.1300000000000D+00  1.4222118323025D+00 -2.0088761315325D-01
   115  1.1400000000000D+00  1.4105760863369D+00 -1.9769583340571D-01
   116  1.1500000000000D+00  1.3970923354085D+00 -1.9397841938432D-01
   117  1.1600000000000D+00  1.3818060076809D+00 -1.8978237273178D-01
   118  1.1700000000000D+00  1.3647694042640D+00 -1.8515407314672D-01
   119  1.1800000000000D+00  1.3460414599430D+00 -1.8013911175326D-01
   120  1.1900000000000D+00  1.3256874630621D+00 -1.7478213445024D-01
   121  1.2000000000000D+00  1.3037787358343D+00 -1.6912669574083D-01
   122  1.2100000000000D+00  1.2803922767000D+00 -1.6321512345781D-01
   123  1.2200000000000D+00  1.2556103666449D+00 -1.5708839472551D-01
   124  1.2300000000000D+00  1.2295201415300D+00 -1.5078602346624D-01
   125  1.2400000000000D+00  1.2022131329711D+00 -1.4434595962935D-01
   126  1.2500000000000D+00  1.1737847804577D+00 -1.3780450027127D-01
   127  1.2600000000000D+00  1.1443339175757D+00 -1.3119621256900D-01
   128  1.2700000000000D+00  1.1139622355652D+00 -1.2455386873687D-01
   129  1.2800000000000D+00  1.0827737276291D+00 -1.1790839274755D-01
   130  1.2900000000000D+00  1.0508741174808D+00 -1.1128881873573D-01
   131  1.3000000000000D+00  1.0183702759470D+00 -1.0472226084749D-01
   132  1.3100000000000D+00  9.8536962954704D-01 -9.8233894231467D-02
   133  1.3200000000000D+00  9.5197956499608D-01 -9.1846946871141D-02
   134  1.3300000000000D+00  9.1830683384433D-01 -8.5582701825446D-02
   135  1.3400000000000D+00  8.8445696142568D-01 -7.9460509407785D-02
   136  1.3500000000000D+00  8.5053366435833D-01 -7.3497808853051D-02
   137  1.3600000000000D+00  8.1663828092088D-01 -6.7710158861448D-02
   138  1.3700000000000D+00  7.8286921850696D-01 -6.2111276457465D-02
   139  1.3800000000000D+00  7.4932142250634D-01 -5.6713083546481D-02
   140  1.3900000000000D+00  7.1608587065275D-01 -5.1525760474519D-02
   141  1.4000000000000D+00  6.8324909704945D-01 -4.6557805946513D-02
   142  1.4100000000000D+00  6.5089274983511D-01 -4.1816102568076D-02
   143  1.4200000000000D+00  6.1909318612785D-01 -3.7305987301912D-02
   144  1.4300000000000D+00  5.8792110831694D-01 -3.3031326106155D-02
   145  1.4400000000000D+00  5.5744124463532D-01 -2.8994592013337D-02
   146  1.4500000000000D+00  5.2771207773899D-01 -2.5196945916844D-02
   147  1.4600000000000D+00  4.9878562405724D-01 -2.1638319321459D-02
   148  1.4700000000000D+00  4.7070726649283D-01 -1.8317498361693D-02
   149  1.4800000000000D+00  4.4351564357387D-01 -1.5232208324454D-02
   150  1.4900000000000D+00  4.1724259609767D-01 -1.2379198074892D-02
   151  1.5000000000000D+00  3.9191317452406D-01 -9.7543236043076D-03
   152  1.5100000000000D+00  3.6754570720803D-01 -7.3526301789504D-03
   153  1.5200000000000D+00  3.4415193172547D-01 -5.1684323907680D-03
   154  1.5300000000000D+00  3.2173718953021D-01 -3.1953915807801D-03
   155  1.5400000000000D+00  3.0030068435575D-01 -1.4265901200344D-03
   156  1.5500000000000D+00  2.7983580512392D-01  1.4539803900137D-04
   157  1.5600000000000D+00  2.6033051173916D-01  1.5284408158618D-03
   158  1.5700000000000D+00  2.4176778509247D-01  2.7307861268145D-03
   159  1.5800000000000D+00  2.2412613770299D-01  3.7610046940499D-03
   160  1.5900000000000D+00  2.0738018656484D-01  4.6279382564946D-03
   161  1.6000000000000D+00  1.9150128342579D-01  5.3406530115158D-03
   162  1.6100000000000D+00  1.7645820326217D-01  5.9083989113794D-03
   163  1.6200000000000D+00  1.6221788603450D-01  6.3405745995321D-03
   164  1.6300000000000D+00  1.4874623114504D-01  6.6466984281698D-03
   165  1.6400000000000D+00  1.3600893975383D-01  6.8363853313444D-03
   166  1.6500000000000D+00  1.2397240315254D-01  6.9193298123200D-03
   167  1.6600000000000D+00  1.1260464727764D-01  6.9052956430053D-03
   168  1.6700000000000D+00  1.0187624818169D-01  6.8041077357991D-03
   169  1.6800000000000D+00  9.1761475506559D-02  6.6256608463366D-03
   170  1.6900000000000D+00  8.2239018474484D-02  6.3799079009892D-03
   171  1.7000000000000D+00  7.3292811555730D-02  6.0768591341909D-03
   172  1.7100000000000D+00  6.4915036613049D-02  5.7267076090659D-03
   173  1.7200000000000D+00  5.7105790716320D-02  5.3397690514999D-03
   174  1.7300000000000D+00  4.9868352689880D-02  4.9261829594706D-03
   175  1.7400000000000D+00  4.3206087717198D-02  4.4956984107199D-03
   176  1.7500000000000D+00  3.7118194485762D-02  4.0573801067351D-03
   177  1.7600000000000D+00  3.1596506321558D-02  3.6193799773309D-03
   178  1.7700000000000D+00  2.6628035882248D-02  3.1890310603292D-03
   179  1.7800000000000D+00  2.2196094118891D-02  2.7728624253299D-03
   180  1.7900000000000D+00  1.8279845726061D-02  2.3765375350920D-03
   181  1.8000000000000D+00  1.4855201563326D-02  2.0048678689432D-03
   182  1.8100000000000D+00  1.1895144797582D-02  1.6618000538249D-03
   183  1.8200000000000D+00  9.3702093136070D-03  1.3504151838985D-03
   184  1.8300000000000D+00  7.2489008184090D-03  1.0729286910493D-03
   185  1.8400000000000D+00  5.4980951400991D-03  8.3069254313484D-04
   186  1.8500000000000D+00  4.0834030869235D-03  6.2419889481059D-04
   187  1.8600000000000D+00  2.9695059888128D-03  4.5308540506949D-04
   188  1.8700000000000D+00  2.1209784005766D-03  3.1616447948667D-04
   189  1.8800000000000D+00  1.5008433739576D-03  2.1135555568126D-04
   190  1.8900000000000D+00  1.0689898910886D-03  1.3555649969790D-04
   191  1.9000000000000D+00  7.8848773614252D-04  8.4982250682809D-05
   192  1.9100000000000D+00  6.4402954695582D-04  5.6502636542683D-05
   193  1.9200000000000D+00  6.2028651571216D-04  4.6424634371498D-05
   194  1.9300000000000D+00  5.8466808654081D-04  4.1479468868209D-05
   195  1.9400000000000D+00  4.1023150506174D-04  2.8924415557400D-05
   196  1.9500000000000D+00  1.5033647938275D-04  1.0639410189062D-05
   197  1.9600000000000D+00 -3.2676884676107D-05 -2.2688224246044D-06
   198  1.9700000000000D+00 -5.2797725995206D-05 -3.6630735876709D-06
   199  1.9800000000000D+00 -1.4150565497432D-06 -9.8183830236447D-08
   200  1.9900000000000D+00  1.2753912015152D-05  8.7426613559586D-07
   201  2.0000000000000D+00  5.8816113039567D-06  4.0249972662430D-07
   202  2.0100000000000D+00 -1.1902859119901D-06 -8.4225956584696D-08
   203  2.0200000000000D+00 -1.3012300581877D-06 -9.2076487912364D-08
   204  2.0300000000000D+00  0.0000000000000D+00  0.0000000000000D+00
   205  2.0400000000000D+00  0.0000000000000D+00  0.0000000000000D+00
   206  2.0500000000000D+00  0.0000000000000D+00  0.0000000000000D+00
   207  2.0600000000000D+00  0.0000000000000D+00  0.0000000000000D+00
   208  2.0700000000000D+00  0.0000000000000D+00  0.0000000000000D+00
   209  2.0800000000000D+00  0.0000000000000D+00  0.0000000000000D+00
   210  2.0900000000000D+00  0.0000000000000D+00  0.0000000000000D+00
   211  2.1000000000000D+00  0.0000000000000D+00  0.0000000000000D+00
   212  2.1100000000000D+00  0.0000000000000D+00  0.0000000000000D+00
   213  2.1200000000000D+00  0.0000000000000D+00  0.0000000000000D+00
   214  2.1300000000000D+00  0.0000000000000D+00  0.0000000000000D+00
   215  2.1400000000000D+00  0.0000000000000D+00  0.0000000000000D+00
   216  2.1500000000000D+00  0.0000000000000D+00  0.0000000000000D+00
   217  2.1600000000000D+00  0.0000000000000D+00  0.0000000000000D+00
   218  2.1700000000000D+00  0.0000000000000D+00  0.0000000000000D+00
   219  2.1800000000000D+00  0.0000000000000D+00  0.0000000000000D+00
   220  2.1900000000000D+00  0.0000000000000D+00  0.0000000000000D+00
   221  2.2000000000000D+00  0.0000000000000D+00  0.0000000000000D+00
   222  2.2100000000000D+00  0.0000000000000D+00  0.0000000000000D+00
   223  2.2200000000000D+00  0.0000000000000D+00  0.0000000000000D+00
   224  2.2300000000000D+00  0.0000000000000D+00  0.0000000000000D+00
   225  2.2400000000000D+00  0.0000000000000D+00  0.0000000000000D+00
   226  2.2500000000000D+00  0.0000000000000D+00  0.0000000000000D+00
   227  2.2600000000000D+00  0.0000000000000D+00  0.0000000000000D+00
   228  2.2700000000000D+00  0.0000000000000D+00  0.0000000000000D+00
   229  2.2800000000000D+00  0.0000000000000D+00  0.0000000000000D+00
   230  2.2900000000000D+00  0.0000000000000D+00  0.0000000000000D+00
   231  2.3000000000000D+00  0.0000000000000D+00  0.0000000000000D+00
   232  2.3100000000000D+00  0.0000000000000D+00  0.0000000000000D+00
   233  2.3200000000000D+00  0.0000000000000D+00  0.0000000000000D+00
   234  2.3300000000000D+00  0.0000000000000D+00  0.0000000000000D+00
   235  2.3400000000000D+00  0.0000000000000D+00  0.0000000000000D+00
   236  2.3500000000000D+00  0.0000000000000D+00  0.0000000000000D+00
   237  2.3600000000000D+00  0.0000000000000D+00  0.0000000000000D+00
   238  2.3700000000000D+00  0.0000000000000D+00  0.0000000000000D+00
   239  2.3800000000000D+00  0.0000000000000D+00  0.0000000000000D+00
   240  2.3900000000000D+00  0.0000000000000D+00  0.0000000000000D+00
   241  2.4000000000000D+00  0.0000000000000D+00  0.0000000000000D+00
   242  2.4100000000000D+00  0.0000000000000D+00  0.0000000000000D+00
   243  2.4200000000000D+00  0.0000000000000D+00  0.0000000000000D+00
   244  2.4300000000000D+00  0.0000000000000D+00  0.0000000000000D+00
   245  2.4400000000000D+00  0.0000000000000D+00  0.0000000000000D+00
   246  2.4500000000000D+00  0.0000000000000D+00  0.0000000000000D+00
   247  2.4600000000000D+00  0.0000000000000D+00  0.0000000000000D+00
   248  2.4700000000000D+00  0.0000000000000D+00  0.0000000000000D+00
   249  2.4800000000000D+00  0.0000000000000D+00  0.0000000000000D+00
   250  2.4900000000000D+00  0.0000000000000D+00  0.0000000000000D+00
   251  2.5000000000000D+00  0.0000000000000D+00  0.0000000000000D+00
   252  2.5100000000000D+00  0.0000000000000D+00  0.0000000000000D+00
   253  2.5200000000000D+00  0.0000000000000D+00  0.0000000000000D+00
   254  2.5300000000000D+00  0.0000000000000D+00  0.0000000000000D+00
   255  2.5400000000000D+00  0.0000000000000D+00  0.0000000000000D+00
   256  2.5500000000000D+00  0.0000000000000D+00  0.0000000000000D+00
   257  2.5600000000000D+00  0.0000000000000D+00  0.0000000000000D+00
   258  2.5700000000000D+00  0.0000000000000D+00  0.0000000000000D+00
   259  2.5800000000000D+00  0.0000000000000D+00  0.0000000000000D+00
   260  2.5900000000000D+00  0.0000000000000D+00  0.0000000000000D+00
   261  2.6000000000000D+00  0.0000000000000D+00  0.0000000000000D+00
   262  2.6100000000000D+00  0.0000000000000D+00  0.0000000000000D+00
   263  2.6200000000000D+00  0.0000000000000D+00  0.0000000000000D+00
   264  2.6300000000000D+00  0.0000000000000D+00  0.0000000000000D+00
   265  2.6400000000000D+00  0.0000000000000D+00  0.0000000000000D+00
   266  2.6500000000000D+00  0.0000000000000D+00  0.0000000000000D+00
   267  2.6600000000000D+00  0.0000000000000D+00  0.0000000000000D+00
   268  2.6700000000000D+00  0.0000000000000D+00  0.0000000000000D+00
   269  2.6800000000000D+00  0.0000000000000D+00  0.0000000000000D+00
   270  2.6900000000000D+00  0.0000000000000D+00  0.0000000000000D+00
   271  2.7000000000000D+00  0.0000000000000D+00  0.0000000000000D+00
   272  2.7100000000000D+00  0.0000000000000D+00  0.0000000000000D+00
   273  2.7200000000000D+00  0.0000000000000D+00  0.0000000000000D+00
   274  2.7300000000000D+00  0.0000000000000D+00  0.0000000000000D+00
   275  2.7400000000000D+00  0.0000000000000D+00  0.0000000000000D+00
   276  2.7500000000000D+00  0.0000000000000D+00  0.0000000000000D+00
   277  2.7600000000000D+00  0.0000000000000D+00  0.0000000000000D+00
   278  2.7700000000000D+00  0.0000000000000D+00  0.0000000000000D+00
   279  2.7800000000000D+00  0.0000000000000D+00  0.0000000000000D+00
   280  2.7900000000000D+00  0.0000000000000D+00  0.0000000000000D+00
   281  2.8000000000000D+00  0.0000000000000D+00  0.0000000000000D+00
   282  2.8100000000000D+00  0.0000000000000D+00  0.0000000000000D+00
   283  2.8200000000000D+00  0.0000000000000D+00  0.0000000000000D+00
   284  2.8300000000000D+00  0.0000000000000D+00  0.0000000000000D+00
   285  2.8400000000000D+00  0.0000000000000D+00  0.0000000000000D+00
   286  2.8500000000000D+00  0.0000000000000D+00  0.0000000000000D+00
   287  2.8600000000000D+00  0.0000000000000D+00  0.0000000000000D+00
   288  2.8700000000000D+00  0.0000000000000D+00  0.0000000000000D+00
   289  2.8800000000000D+00  0.0000000000000D+00  0.0000000000000D+00
   290  2.8900000000000D+00  0.0000000000000D+00  0.0000000000000D+00
   291  2.9000000000000D+00  0.0000000000000D+00  0.0000000000000D+00
   292  2.9100000000000D+00  0.0000000000000D+00  0.0000000000000D+00
   293  2.9200000000000D+00  0.0000000000000D+00  0.0000000000000D+00
   294  2.9300000000000D+00  0.0000000000000D+00  0.0000000000000D+00
   295  2.9400000000000D+00  0.0000000000000D+00  0.0000000000000D+00
   296  2.9500000000000D+00  0.0000000000000D+00  0.0000000000000D+00
   297  2.9600000000000D+00  0.0000000000000D+00  0.0000000000000D+00
   298  2.9700000000000D+00  0.0000000000000D+00  0.0000000000000D+00
   299  2.9800000000000D+00  0.0000000000000D+00  0.0000000000000D+00
   300  2.9900000000000D+00  0.0000000000000D+00  0.0000000000000D+00
   301  3.0000000000000D+00  0.0000000000000D+00  0.0000000000000D+00
   302  3.0100000000000D+00  0.0000000000000D+00  0.0000000000000D+00
   303  3.0200000000000D+00  0.0000000000000D+00  0.0000000000000D+00
   304  3.0300000000000D+00  0.0000000000000D+00  0.0000000000000D+00
   305  3.0400000000000D+00  0.0000000000000D+00  0.0000000000000D+00
   306  3.0500000000000D+00  0.0000000000000D+00  0.0000000000000D+00
   307  3.0600000000000D+00  0.0000000000000D+00  0.0000000000000D+00
   308  3.0700000000000D+00  0.0000000000000D+00  0.0000000000000D+00
   309  3.0800000000000D+00  0.0000000000000D+00  0.0000000000000D+00
   310  3.0900000000000D+00  0.0000000000000D+00  0.0000000000000D+00
   311  3.1000000000000D+00  0.0000000000000D+00  0.0000000000000D+00
   312  3.1100000000000D+00  0.0000000000000D+00  0.0000000000000D+00
   313  3.1200000000000D+00  0.0000000000000D+00  0.0000000000000D+00
   314  3.1300000000000D+00  0.0000000000000D+00  0.0000000000000D+00
   315  3.1400000000000D+00  0.0000000000000D+00  0.0000000000000D+00
   316  3.1500000000000D+00  0.0000000000000D+00  0.0000000000000D+00
   317  3.1600000000000D+00  0.0000000000000D+00  0.0000000000000D+00
   318  3.1700000000000D+00  0.0000000000000D+00  0.0000000000000D+00
   319  3.1800000000000D+00  0.0000000000000D+00  0.0000000000000D+00
   320  3.1900000000000D+00  0.0000000000000D+00  0.0000000000000D+00
   321  3.2000000000000D+00  0.0000000000000D+00  0.0000000000000D+00
   322  3.2100000000000D+00  0.0000000000000D+00  0.0000000000000D+00
   323  3.2200000000000D+00  0.0000000000000D+00  0.0000000000000D+00
   324  3.2300000000000D+00  0.0000000000000D+00  0.0000000000000D+00
   325  3.2400000000000D+00  0.0000000000000D+00  0.0000000000000D+00
   326  3.2500000000000D+00  0.0000000000000D+00  0.0000000000000D+00
   327  3.2600000000000D+00  0.0000000000000D+00  0.0000000000000D+00
   328  3.2700000000000D+00  0.0000000000000D+00  0.0000000000000D+00
   329  3.2800000000000D+00  0.0000000000000D+00  0.0000000000000D+00
   330  3.2900000000000D+00  0.0000000000000D+00  0.0000000000000D+00
   331  3.3000000000000D+00  0.0000000000000D+00  0.0000000000000D+00
   332  3.3100000000000D+00  0.0000000000000D+00  0.0000000000000D+00
   333  3.3200000000000D+00  0.0000000000000D+00  0.0000000000000D+00
   334  3.3300000000000D+00  0.0000000000000D+00  0.0000000000000D+00
   335  3.3400000000000D+00  0.0000000000000D+00  0.0000000000000D+00
   336  3.3500000000000D+00  0.0000000000000D+00  0.0000000000000D+00
   337  3.3600000000000D+00  0.0000000000000D+00  0.0000000000000D+00
   338  3.3700000000000D+00  0.0000000000000D+00  0.0000000000000D+00
   339  3.3800000000000D+00  0.0000000000000D+00  0.0000000000000D+00
   340  3.3900000000000D+00  0.0000000000000D+00  0.0000000000000D+00
   341  3.4000000000000D+00  0.0000000000000D+00  0.0000000000000D+00
   342  3.4100000000000D+00  0.0000000000000D+00  0.0000000000000D+00
   343  3.4200000000000D+00  0.0000000000000D+00  0.0000000000000D+00
   344  3.4300000000000D+00  0.0000000000000D+00  0.0000000000000D+00
   345  3.4400000000000D+00  0.0000000000000D+00  0.0000000000000D+00
   346  3.4500000000000D+00  0.0000000000000D+00  0.0000000000000D+00
   347  3.4600000000000D+00  0.0000000000000D+00  0.0000000000000D+00
   348  3.4700000000000D+00  0.0000000000000D+00  0.0000000000000D+00
   349  3.4800000000000D+00  0.0000000000000D+00  0.0000000000000D+00
   350  3.4900000000000D+00  0.0000000000000D+00  0.0000000000000D+00
   351  3.5000000000000D+00  0.0000000000000D+00  0.0000000000000D+00
   352  3.5100000000000D+00  0.0000000000000D+00  0.0000000000000D+00
   353  3.5200000000000D+00  0.0000000000000D+00  0.0000000000000D+00
   354  3.5300000000000D+00  0.0000000000000D+00  0.0000000000000D+00
   355  3.5400000000000D+00  0.0000000000000D+00  0.0000000000000D+00
   356  3.5500000000000D+00  0.0000000000000D+00  0.0000000000000D+00
   357  3.5600000000000D+00  0.0000000000000D+00  0.0000000000000D+00
   358  3.5700000000000D+00  0.0000000000000D+00  0.0000000000000D+00
   359  3.5800000000000D+00  0.0000000000000D+00  0.0000000000000D+00
   360  3.5900000000000D+00  0.0000000000000D+00  0.0000000000000D+00
   361  3.6000000000000D+00  0.0000000000000D+00  0.0000000000000D+00
   362  3.6100000000000D+00  0.0000000000000D+00  0.0000000000000D+00
   363  3.6200000000000D+00  0.0000000000000D+00  0.0000000000000D+00
   364  3.6300000000000D+00  0.0000000000000D+00  0.0000000000000D+00
   365  3.6400000000000D+00  0.0000000000000D+00  0.0000000000000D+00
   366  3.6500000000000D+00  0.0000000000000D+00  0.0000000000000D+00
   367  3.6600000000000D+00  0.0000000000000D+00  0.0000000000000D+00
   368  3.6700000000000D+00  0.0000000000000D+00  0.0000000000000D+00
   369  3.6800000000000D+00  0.0000000000000D+00  0.0000000000000D+00
   370  3.6900000000000D+00  0.0000000000000D+00  0.0000000000000D+00
   371  3.7000000000000D+00  0.0000000000000D+00  0.0000000000000D+00
   372  3.7100000000000D+00  0.0000000000000D+00  0.0000000000000D+00
   373  3.7200000000000D+00  0.0000000000000D+00  0.0000000000000D+00
   374  3.7300000000000D+00  0.0000000000000D+00  0.0000000000000D+00
   375  3.7400000000000D+00  0.0000000000000D+00  0.0000000000000D+00
   376  3.7500000000000D+00  0.0000000000000D+00  0.0000000000000D+00
   377  3.7600000000000D+00  0.0000000000000D+00  0.0000000000000D+00
   378  3.7700000000000D+00  0.0000000000000D+00  0.0000000000000D+00
   379  3.7800000000000D+00  0.0000000000000D+00  0.0000000000000D+00
   380  3.7900000000000D+00  0.0000000000000D+00  0.0000000000000D+00
   381  3.8000000000000D+00  0.0000000000000D+00  0.0000000000000D+00
   382  3.8100000000000D+00  0.0000000000000D+00  0.0000000000000D+00
   383  3.8200000000000D+00  0.0000000000000D+00  0.0000000000000D+00
   384  3.8300000000000D+00  0.0000000000000D+00  0.0000000000000D+00
   385  3.8400000000000D+00  0.0000000000000D+00  0.0000000000000D+00
   386  3.8500000000000D+00  0.0000000000000D+00  0.0000000000000D+00
   387  3.8600000000000D+00  0.0000000000000D+00  0.0000000000000D+00
   388  3.8700000000000D+00  0.0000000000000D+00  0.0000000000000D+00
   389  3.8800000000000D+00  0.0000000000000D+00  0.0000000000000D+00
   390  3.8900000000000D+00  0.0000000000000D+00  0.0000000000000D+00
   391  3.9000000000000D+00  0.0000000000000D+00  0.0000000000000D+00
   392  3.9100000000000D+00  0.0000000000000D+00  0.0000000000000D+00
   393  3.9200000000000D+00  0.0000000000000D+00  0.0000000000000D+00
   394  3.9300000000000D+00  0.0000000000000D+00  0.0000000000000D+00
   395  3.9400000000000D+00  0.0000000000000D+00  0.0000000000000D+00
   396  3.9500000000000D+00  0.0000000000000D+00  0.0000000000000D+00
   397  3.9600000000000D+00  0.0000000000000D+00  0.0000000000000D+00
   398  3.9700000000000D+00  0.0000000000000D+00  0.0000000000000D+00
   399  3.9800000000000D+00  0.0000000000000D+00  0.0000000000000D+00
   400  3.9900000000000D+00  0.0000000000000D+00  0.0000000000000D+00
   401  4.0000000000000D+00  0.0000000000000D+00  0.0000000000000D+00
   402  4.0100000000000D+00  0.0000000000000D+00  0.0000000000000D+00
   403  4.0200000000000D+00  0.0000000000000D+00  0.0000000000000D+00
   404  4.0300000000000D+00  0.0000000000000D+00  0.0000000000000D+00
   405  4.0400000000000D+00  0.0000000000000D+00  0.0000000000000D+00
   406  4.0500000000000D+00  0.0000000000000D+00  0.0000000000000D+00
   407  4.0600000000000D+00  0.0000000000000D+00  0.0000000000000D+00
   408  4.0700000000000D+00  0.0000000000000D+00  0.0000000000000D+00
   409  4.0800000000000D+00  0.0000000000000D+00  0.0000000000000D+00
   410  4.0900000000000D+00  0.0000000000000D+00  0.0000000000000D+00
   411  4.1000000000000D+00  0.0000000000000D+00  0.0000000000000D+00
   412  4.1100000000000D+00  0.0000000000000D+00  0.0000000000000D+00
   413  4.1200000000000D+00  0.0000000000000D+00  0.0000000000000D+00
   414  4.1300000000000D+00  0.0000000000000D+00  0.0000000000000D+00
   415  4.1400000000000D+00  0.0000000000000D+00  0.0000000000000D+00
   416  4.1500000000000D+00  0.0000000000000D+00  0.0000000000000D+00
   417  4.1600000000000D+00  0.0000000000000D+00  0.0000000000000D+00
   418  4.1700000000000D+00  0.0000000000000D+00  0.0000000000000D+00
   419  4.1800000000000D+00  0.0000000000000D+00  0.0000000000000D+00
   420  4.1900000000000D+00  0.0000000000000D+00  0.0000000000000D+00
   421  4.2000000000000D+00  0.0000000000000D+00  0.0000000000000D+00
   422  4.2100000000000D+00  0.0000000000000D+00  0.0000000000000D+00