Hg    ONCVPSP-3.3.1  r_core=   2.34483   2.34483   2.18287   3.27466
     80.0000     20.0000      210904    zatom,zion,pspd
     8      11   3     4   600     0    pspcod,pspxc,lmax,lloc,mmax,r2well
  5.99000000  0.00000000  0.00000000    rchrg fchrg qchrg
     2     4     4     3    nproj
     3     1           extension_switch
     4     4     4    nprojso
   0                         6.6559660130613D-01  4.5871221480459D+00
     1  0.0000000000000D+00 -2.0423787661095D-11  8.7113649627213D-13
     2  1.0000000000000D-02  4.7612843506982D-03  5.9166275038766D-02
     3  2.0000000000000D-02  9.5310118730381D-03  1.1823156724127D-01
     4  3.0000000000000D-02  1.4317703932708D-02  1.7709507630432D-01
     5  4.0000000000000D-02  1.9130037470787D-02  2.3565636673502D-01
     6  5.0000000000000D-02  2.3976920764844D-02  2.9381554961614D-01
     7  6.0000000000000D-02  2.8867566772591D-02  3.5147346360306D-01
     8  7.0000000000000D-02  3.3811563276274D-02  4.0853185489523D-01
     9  8.0000000000000D-02  3.8818939066410D-02  4.6489355592399D-01
    10  9.0000000000000D-02  4.3900225428838D-02  5.2046266249795D-01
    11  1.0000000000000D-01  4.9066512229063D-02  5.7514470914541D-01
    12  1.1000000000000D-01  5.4329497922687D-02  6.2884684239248D-01
    13  1.2000000000000D-01  5.9701532859735D-02  6.8147799171384D-01
    14  1.3000000000000D-01  6.5195655294148D-02  7.3294903789157D-01
    15  1.4000000000000D-01  7.0825619556976D-02  7.8317297851614D-01
    16  1.5000000000000D-01  7.6605915902904D-02  8.3206509036183D-01
    17  1.6000000000000D-01  8.2551781594373D-02  8.7954308836762D-01
    18  1.7000000000000D-01  8.8679202845126D-02  9.2552728095304D-01
    19  1.8000000000000D-01  9.5004907305713D-02  9.6994072139722D-01
    20  1.9000000000000D-01  1.0154634683661D-01  1.0127093550083D+00
    21  2.0000000000000D-01  1.0832167037982D-01  1.0537621618096D+00
    22  2.1000000000000D-01  1.1534968680701D-01  1.0930312944685D+00
    23  2.2000000000000D-01  1.2264981769093D-01  1.1304522111935D+00
    24  2.3000000000000D-01  1.3024204001641D-01  1.1659638033249D+00
    25  2.4000000000000D-01  1.3814681891769D-01  1.1995085173473D+00
    26  2.5000000000000D-01  1.4638503059955D-01  1.2310324710493D+00
    27  2.6000000000000D-01  1.5497787567017D-01  1.2604855635621D+00
    28  2.7000000000000D-01  1.6394678318400D-01  1.2878215790080D+00
    29  2.8000000000000D-01  1.7331330576170D-01  1.3129982834944D+00
    30  2.9000000000000D-01  1.8309900622242D-01  1.3359775151917D+00
    31  3.0000000000000D-01  1.9332533622982D-01  1.3567252672401D+00
    32  3.1000000000000D-01  2.0401350751685D-01  1.3752117632336D+00
    33  3.2000000000000D-01  2.1518435631663D-01  1.3914115250372D+00
    34  3.3000000000000D-01  2.2685820168467D-01  1.4053034327009D+00
    35  3.4000000000000D-01  2.3905469845362D-01  1.4168707762419D+00
    36  3.5000000000000D-01  2.5179268561351D-01  1.4261012990757D+00
    37  3.6000000000000D-01  2.6509003095815D-01  1.4329872328883D+00
    38  3.7000000000000D-01  2.7896347288226D-01  1.4375253237519D+00
    39  3.8000000000000D-01  2.9342846025296D-01  1.4397168493009D+00
    40  3.9000000000000D-01  3.0849899131351D-01  1.4395676267964D+00
    41  4.0000000000000D-01  3.2418745260629D-01  1.4370880119257D+00
    42  4.1000000000000D-01  3.4050445892617D-01  1.4322928881958D+00
    43  4.2000000000000D-01  3.5745869533337D-01  1.4252016468009D+00
    44  4.3000000000000D-01  3.7505676226783D-01  1.4158381568588D+00
    45  4.4000000000000D-01  3.9330302481375D-01  1.4042307259336D+00
    46  4.5000000000000D-01  4.1219946716366D-01  1.3904120507807D+00
    47  4.6000000000000D-01  4.3174555332621D-01  1.3744191582742D+00
    48  4.7000000000000D-01  4.5193809511041D-01  1.3562933364966D+00
    49  4.8000000000000D-01  4.7277112840128D-01  1.3360800559976D+00
    50  4.9000000000000D-01  4.9423579871836D-01  1.3138288812521D+00
    51  5.0000000000000D-01  5.1632025701845D-01  1.2895933723726D+00
    52  5.1000000000000D-01  5.3900956666826D-01  1.2634309771601D+00
    53  5.2000000000000D-01  5.6228562247060D-01  1.2354029136025D+00
    54  5.3000000000000D-01  5.8612708258043D-01  1.2055740429586D+00
    55  5.4000000000000D-01  6.1050931409351D-01  1.1740127335950D+00
    56  5.5000000000000D-01  6.3540435303230D-01  1.1407907157713D+00
    57  5.6000000000000D-01  6.6078087938951D-01  1.1059829275988D+00
    58  5.7000000000000D-01  6.8660420782155D-01  1.0696673524284D+00
    59  5.8000000000000D-01  7.1283629451074D-01  1.0319248479522D+00
    60  5.9000000000000D-01  7.3943576063776D-01  9.9283896733418D-01
    61  6.0000000000000D-01  7.6635793282481D-01  9.5249577271608D-01
    62  6.1000000000000D-01  7.9355490082510D-01  9.1098364147151D-01
    63  6.2000000000000D-01  8.2097559264648D-01  8.6839306561447D-01
    64  6.3000000000000D-01  8.4856586720695D-01  8.2481644479444D-01
    65  6.4000000000000D-01  8.7626862452720D-01  7.8034787334015D-01
    66  6.5000000000000D-01  9.0402393337101D-01  7.3508292184113D-01
    67  6.6000000000000D-01  9.3176917614934D-01  6.8911841378281D-01
    68  6.7000000000000D-01  9.5943921080796D-01  6.4255219777663D-01
    69  6.8000000000000D-01  9.8696654932196D-01  5.9548291595113D-01
    70  6.9000000000000D-01  1.0142815523253D+00  5.4800976909279D-01
    71  7.0000000000000D-01  1.0413126393086D+00  5.0023227914712D-01
    72  7.1000000000000D-01  1.0679865137247D+00  4.5225004971055D-01
    73  7.2000000000000D-01  1.0942284022511D+00  4.0416252516151D-01
    74  7.3000000000000D-01  1.1199623073679D+00  3.5606874909591D-01
    75  7.4000000000000D-01  1.1451112723267D+00  3.0806712274582D-01
    76  7.5000000000000D-01  1.1695976575002D+00  2.6025516407290D-01
    77  7.6000000000000D-01  1.1933434270282D+00  2.1272926823763D-01
    78  7.7000000000000D-01  1.2162704445986D+00  1.6558447015298D-01
    79  7.8000000000000D-01  1.2383007771347D+00  1.1891420983625D-01
    80  7.9000000000000D-01  1.2593570050980D+00  7.2810101275153D-02
    81  8.0000000000000D-01  1.2793625380569D+00  2.7361705524380D-02
    82  8.1000000000000D-01  1.2982419341209D+00 -1.7343691254297D-02
    83  8.2000000000000D-01  1.3159212217964D+00 -6.1221294100615D-02
    84  8.3000000000000D-01  1.3323282227822D+00 -1.0418900921380D-01
    85  8.4000000000000D-01  1.3473928741911D+00 -1.4616764687181D-01
    86  8.5000000000000D-01  1.3610475486657D+00 -1.8708111663760D-01
    87  8.6000000000000D-01  1.3732273708341D+00 -2.2685661419524D-01
    88  8.7000000000000D-01  1.3838705285522D+00 -2.6542479917793D-01
    89  8.8000000000000D-01  1.3929185773735D+00 -3.0271996337300D-01
    90  8.9000000000000D-01  1.4003167367001D+00 -3.3868018871351D-01
    91  9.0000000000000D-01  1.4060141760829D+00 -3.7324749449455D-01
    92  9.1000000000000D-01  1.4099642901669D+00 -4.0636797328236D-01
    93  9.2000000000000D-01  1.4121249608081D+00 -4.3799191501783D-01
    94  9.3000000000000D-01  1.4124588049295D+00 -4.6807391885106D-01
    95  9.4000000000000D-01  1.4109334067361D+00 -4.9657299228179D-01
    96  9.5000000000000D-01  1.4075215329602D+00 -5.2345263722021D-01
    97  9.6000000000000D-01  1.4022013298758D+00 -5.4868092262488D-01
    98  9.7000000000000D-01  1.3949565008898D+00 -5.7223054341827D-01
    99  9.8000000000000D-01  1.3857764635976D+00 -5.9407886542610D-01
   100  9.9000000000000D-01  1.3746564852725D+00 -6.1420795613451D-01
   101  1.0000000000000D+00  1.3615977958475D+00 -6.3260460110559D-01
   102  1.0100000000000D+00  1.3466076775487D+00 -6.4926030594409D-01
   103  1.0200000000000D+00  1.3296995304335D+00 -6.6417128375701D-01
   104  1.0300000000000D+00  1.3108929131976D+00 -6.7733842809947D-01
   105  1.0400000000000D+00  1.2902135587185D+00 -6.8876727145188D-01
   106  1.0500000000000D+00  1.2676933639247D+00 -6.9846792932721D-01
   107  1.0600000000000D+00  1.2433703536806D+00 -7.0645503015483D-01
   108  1.0700000000000D+00  1.2172886185096D+00 -7.1274763114432D-01
   109  1.0800000000000D+00  1.1894982260888D+00 -7.1736912038102D-01
   110  1.0900000000000D+00  1.1600551065687D+00 -7.2034710545577D-01
   111  1.1000000000000D+00  1.1290209119014D+00 -7.2171328898445D-01
   112  1.1100000000000D+00  1.0964628494575D+00 -7.2150333141270D-01
   113  1.1200000000000D+00  1.0624534903600D+00 -7.1975670155931D-01
   114  1.1300000000000D+00  1.0270705530582D+00 -7.1651651538898D-01
   115  1.1400000000000D+00  9.9039666279676D-01 -7.1182936355414D-01
   116  1.1500000000000D+00  9.5251908772325D-01 -7.0574512827892D-01
   117  1.1600000000000D+00  9.1352945250905D-01 -6.9831679020620D-01
   118  1.1700000000000D+00  8.7352343045017D-01 -6.8960022585981D-01
   119  1.1800000000000D+00  8.3260041512529D-01 -6.7965399641190D-01
   120  1.1900000000000D+00  7.9086317274755D-01 -6.6853912846549D-01
   121  1.2000000000000D+00  7.4841747648251D-01 -6.5631888760541D-01
   122  1.2100000000000D+00  7.0537172405637D-01 -6.4305854548518D-01
   123  1.2200000000000D+00  6.6183654004960D-01 -6.2882514123840D-01
   124  1.2300000000000D+00  6.1792436434898D-01 -6.1368723802446D-01
   125  1.2400000000000D+00  5.7374902829519D-01 -5.9771467553298D-01
   126  1.2500000000000D+00  5.2942532009825D-01 -5.8097831927660D-01
   127  1.2600000000000D+00  4.8506854113899D-01 -5.6354980751332D-01
   128  1.2700000000000D+00  4.4079405482583D-01 -5.4550129664187D-01
   129  1.2800000000000D+00  3.9671682967716D-01 -5.2690520590743D-01
   130  1.2900000000000D+00  3.5295097833058D-01 -5.0783396226109D-01
   131  1.3000000000000D+00  3.0960929418876D-01 -4.8835974619718D-01
   132  1.3100000000000D+00  2.6680278739287D-01 -4.6855423938119D-01
   133  1.3200000000000D+00  2.2464022183642D-01 -4.4848837488319D-01
   134  1.3300000000000D+00  1.8322765487326D-01 -4.2823209078065D-01
   135  1.3400000000000D+00  1.4266798136882D-01 -4.0785408789749D-01
   136  1.3500000000000D+00  1.0306048372991D-01 -3.8742159242455D-01
   137  1.3600000000000D+00  6.4500389418528D-02 -3.6700012409180D-01
   138  1.3700000000000D+00  2.7078437525243D-02 -3.4665327060258D-01
   139  1.3800000000000D+00 -9.1195441743908D-03 -3.2644246894752D-01
   140  1.3900000000000D+00 -4.4013050352439D-02 -3.0642679417121D-01
   141  1.4000000000000D+00 -7.7527296008887D-02 -2.8666275621826D-01
   142  1.4100000000000D+00 -1.0959360003691D-01 -2.6720410528968D-01
   143  1.4200000000000D+00 -1.4014975321538D-01 -2.4810164624274D-01
   144  1.4300000000000D+00 -1.6914036959103D-01 -2.2940306245146D-01
   145  1.4400000000000D+00 -1.9651722043569D-01 -2.1115274944124D-01
   146  1.4500000000000D+00 -2.2223954966463D-01 -1.9339165875158D-01
   147  1.4600000000000D+00 -2.4627437029230D-01 -1.7615715215232D-01
   148  1.4700000000000D+00 -2.6859674100671D-01 -1.5948286657423D-01
   149  1.4800000000000D+00 -2.8919002249463D-01 -1.4339858985341D-01
   150  1.4900000000000D+00 -3.0804611311198D-01 -1.2793014741176D-01
   151  1.5000000000000D+00 -3.2516567219354D-01 -1.1309929741988D-01
   152  1.5100000000000D+00 -3.4055828690678D-01 -9.8923647328991D-02
   153  1.5200000000000D+00 -3.5424269494244D-01 -8.5416558923579D-02
   154  1.5300000000000D+00 -3.6624662897965D-01 -7.2587170895988D-02
   155  1.5400000000000D+00 -3.7660784241402D-01 -6.0440071582858D-02
   156  1.5500000000000D+00 -3.8537351473360D-01 -4.8975463926348D-02
   157  1.5600000000000D+00 -3.9259720805814D-01 -3.8190052869530D-02
   158  1.5700000000000D+00 -3.9833659793815D-01 -2.8077744296526D-02
   159  1.5800000000000D+00 -4.0265037321596D-01 -1.8630624328746D-02
   160  1.5900000000000D+00 -4.0559767206555D-01 -9.8391877725177D-03
   161  1.6000000000000D+00 -4.0723887408291D-01 -1.6921796723994D-03
   162  1.6100000000000D+00 -4.0763515298990D-01  5.8232065831594D-03
   163  1.6200000000000D+00 -4.0684842062782D-01  1.2721244538345D-02
   164  1.6300000000000D+00 -4.0494118288754D-01  1.9017564251338D-02
   165  1.6400000000000D+00 -4.0197641289622D-01  2.4729047518659D-02
   166  1.6500000000000D+00 -3.9801741522153D-01  2.9873721124597D-02
   167  1.6600000000000D+00 -3.9312768356369D-01  3.4470648918513D-02
   168  1.6700000000000D+00 -3.8737075076290D-01  3.8539822458279D-02
   169  1.6800000000000D+00 -3.8081003456129D-01  4.2102051349027D-02
   170  1.6900000000000D+00 -3.7350868599657D-01  4.5178855581044D-02
   171  1.7000000000000D+00 -3.6552943550830D-01  4.7792358347920D-02
   172  1.7100000000000D+00 -3.5693443237193D-01  4.9965178113094D-02
   173  1.7200000000000D+00 -3.4778508576994D-01  5.1720322551443D-02
   174  1.7300000000000D+00 -3.3814190952588D-01  5.3081085122935D-02
   175  1.7400000000000D+00 -3.2806436645014D-01  5.4070943001402D-02
   176  1.7500000000000D+00 -3.1761072008697D-01  5.4713459025812D-02
   177  1.7600000000000D+00 -3.0683789196601D-01  5.5032186991223D-02
   178  1.7700000000000D+00 -2.9580131567530D-01  5.5050577632759D-02
   179  1.7800000000000D+00 -2.8455479608628D-01  5.4791887928825D-02
   180  1.7900000000000D+00 -2.7315038213285D-01  5.4279096575043D-02
   181  1.8000000000000D+00 -2.6163824592583D-01  5.3534823230418D-02
   182  1.8100000000000D+00 -2.5006656706521D-01  5.2581251288927D-02
   183  1.8200000000000D+00 -2.3848142500398D-01  5.1440055037365D-02
   184  1.8300000000000D+00 -2.2692670172959D-01  5.0132332011221D-02
   185  1.8400000000000D+00 -2.1544399390129D-01  4.8678540237878D-02
   186  1.8500000000000D+00 -2.0407253479884D-01  4.7098440506616D-02
   187  1.8600000000000D+00 -1.9284912680752D-01  4.5411043910287D-02
   188  1.8700000000000D+00 -1.8180808431371D-01  4.3634564570962D-02
   189  1.8800000000000D+00 -1.7098118823431D-01  4.1786378013548D-02
   190  1.8900000000000D+00 -1.6039765084477D-01  3.9882984627938D-02
   191  1.9000000000000D+00 -1.5008409303366D-01  3.7939979030327D-02
   192  1.9100000000000D+00 -1.4006453185420D-01  3.5972024459372D-02
   193  1.9200000000000D+00 -1.3036038045707D-01  3.3992832993350D-02
   194  1.9300000000000D+00 -1.2099045867032D-01  3.2015150885379D-02
   195  1.9400000000000D+00 -1.1197101514057D-01  3.0050749341720D-02
   196  1.9500000000000D+00 -1.0331576057763D-01  2.8110420538512D-02
   197  1.9600000000000D+00 -9.5035911285222D-02  2.6203978532735D-02
   198  1.9700000000000D+00 -8.7140244033129D-02  2.4340265442432D-02
   199  1.9800000000000D+00 -7.9635159901589D-02  2.2527161962463D-02
   200  1.9900000000000D+00 -7.2524758948145D-02  2.0771602887548D-02
   201  2.0000000000000D+00 -6.5810923200641D-02  1.9079596667239D-02
   202  2.0100000000000D+00 -5.9493408746300D-02  1.7456249250061D-02
   203  2.0200000000000D+00 -5.3569945989701D-02  1.5905791836563D-02
   204  2.0300000000000D+00 -4.8036346916919D-02  1.4431612073497D-02
   205  2.0400000000000D+00 -4.2886619934040D-02  1.3036288862712D-02
   206  2.0500000000000D+00 -3.8113090100695D-02  1.1721629947831D-02
   207  2.0600000000000D+00 -3.3706525353930D-02  1.0488712452780D-02
   208  2.0700000000000D+00 -2.9656267176320D-02  9.3379257748820D-03
   209  2.0800000000000D+00 -2.5950365117484D-02  8.2690165750958D-03
   210  2.0900000000000D+00 -2.2575714679831D-02  7.2811356394927D-03
   211  2.1000000000000D+00 -1.9518197312379D-02  6.3728861391863D-03
   212  2.1100000000000D+00 -1.6762822034712D-02  5.5423730403769D-03
   213  2.1200000000000D+00 -1.4293867785303D-02  4.7872533313250D-03
   214  2.1300000000000D+00 -1.2095025660215D-02  4.1047867098939D-03
   215  2.1400000000000D+00 -1.0149540067706D-02  3.4918863244107D-03
   216  2.1500000000000D+00 -8.4403486424456D-03  2.9451695255349D-03
   217  2.1600000000000D+00 -6.9502190495489D-03  2.4610078443871D-03
   218  2.1700000000000D+00 -5.6618829436871D-03  2.0355763188958D-03
   219  2.1800000000000D+00 -4.5581660732820D-03  1.6649017533670D-03
   220  2.1900000000000D+00 -3.6221128639872D-03  1.3449092326872D-03
   221  2.2000000000000D+00 -2.8371068189815D-03  1.0714674321978D-03
   222  2.2100000000000D+00 -2.1869837966724D-03  8.4043153588424D-04
   223  2.2200000000000D+00 -1.6561387573344D-03  6.4768399721531D-04
   224  2.2300000000000D+00 -1.2296264716589D-03  4.8917333252353D-04
   225  2.2400000000000D+00 -8.9325235144921D-04  3.6094941426736D-04
   226  2.2500000000000D+00 -6.3365685247218D-04  2.5919662736603D-04
   227  2.2600000000000D+00 -4.3839066793796D-04  1.8026377961446D-04
   228  2.2700000000000D+00 -2.9603399993355D-04  1.2069042647898D-04
   229  2.2800000000000D+00 -1.9605317060747D-04  7.7230472425798D-05
   230  2.2900000000000D+00 -1.2900838619961D-04  4.6869892177514D-05
   231  2.3000000000000D+00 -8.6298282063540D-05  2.6814240946875D-05
   232  2.3100000000000D+00 -6.1911249443769D-05  1.4641889250430D-05
   233  2.3200000000000D+00 -5.0693699758712D-05  8.2044034014045D-06
   234  2.3300000000000D+00 -4.7401539544926D-05  5.5256580896909D-06
   235  2.3400000000000D+00 -4.4164888904400D-05  4.5194218084830D-06
   236  2.3500000000000D+00 -3.4531579604369D-05  3.5022510629372D-06
   237  2.3600000000000D+00 -1.8906150091021D-05  1.9551458528201D-06
   238  2.3700000000000D+00 -3.6691618798745D-06  3.9089107273943D-07
   239  2.3800000000000D+00  3.6309401054819D-06 -3.5506663178722D-07
   240  2.3900000000000D+00  3.7619617029558D-06 -3.6973847882482D-07
   241  2.4000000000000D+00  5.3651627212525D-07 -5.3047680011846D-08
   242  2.4100000000000D+00 -8.3109151522186D-07  7.4242582298384D-08
   243  2.4200000000000D+00 -8.0714707874605D-07  7.1624004071908D-08
   244  2.4300000000000D+00 -2.4025550510493D-08  2.1200753393339D-09
   245  2.4400000000000D+00  1.0587978911227D-07 -1.0766765966234D-08
   246  2.4500000000000D+00  9.5082881968538D-08 -9.6688437532186D-09
   247  2.4600000000000D+00  0.0000000000000D+00  0.0000000000000D+00
   248  2.4700000000000D+00  0.0000000000000D+00  0.0000000000000D+00
   249  2.4800000000000D+00  0.0000000000000D+00  0.0000000000000D+00
   250  2.4900000000000D+00  0.0000000000000D+00  0.0000000000000D+00
   251  2.5000000000000D+00  0.0000000000000D+00  0.0000000000000D+00
   252  2.5100000000000D+00  0.0000000000000D+00  0.0000000000000D+00
   253  2.5200000000000D+00  0.0000000000000D+00  0.0000000000000D+00
   254  2.5300000000000D+00  0.0000000000000D+00  0.0000000000000D+00
   255  2.5400000000000D+00  0.0000000000000D+00  0.0000000000000D+00
   256  2.5500000000000D+00  0.0000000000000D+00  0.0000000000000D+00
   257  2.5600000000000D+00  0.0000000000000D+00  0.0000000000000D+00
   258  2.5700000000000D+00  0.0000000000000D+00  0.0000000000000D+00
   259  2.5800000000000D+00  0.0000000000000D+00  0.0000000000000D+00
   260  2.5900000000000D+00  0.0000000000000D+00  0.0000000000000D+00
   261  2.6000000000000D+00  0.0000000000000D+00  0.0000000000000D+00
   262  2.6100000000000D+00  0.0000000000000D+00  0.0000000000000D+00
   263  2.6200000000000D+00  0.0000000000000D+00  0.0000000000000D+00
   264  2.6300000000000D+00  0.0000000000000D+00  0.0000000000000D+00
   265  2.6400000000000D+00  0.0000000000000D+00  0.0000000000000D+00
   266  2.6500000000000D+00  0.0000000000000D+00  0.0000000000000D+00
   267  2.6600000000000D+00  0.0000000000000D+00  0.0000000000000D+00
   268  2.6700000000000D+00  0.0000000000000D+00  0.0000000000000D+00
   269  2.6800000000000D+00  0.0000000000000D+00  0.0000000000000D+00
   270  2.6900000000000D+00  0.0000000000000D+00  0.0000000000000D+00
   271  2.7000000000000D+00  0.0000000000000D+00  0.0000000000000D+00
   272  2.7100000000000D+00  0.0000000000000D+00  0.0000000000000D+00
   273  2.7200000000000D+00  0.0000000000000D+00  0.0000000000000D+00
   274  2.7300000000000D+00  0.0000000000000D+00  0.0000000000000D+00
   275  2.7400000000000D+00  0.0000000000000D+00  0.0000000000000D+00
   276  2.7500000000000D+00  0.0000000000000D+00  0.0000000000000D+00
   277  2.7600000000000D+00  0.0000000000000D+00  0.0000000000000D+00
   278  2.7700000000000D+00  0.0000000000000D+00  0.0000000000000D+00
   279  2.7800000000000D+00  0.0000000000000D+00  0.0000000000000D+00
   280  2.7900000000000D+00  0.0000000000000D+00  0.0000000000000D+00
   281  2.8000000000000D+00  0.0000000000000D+00  0.0000000000000D+00
   282  2.8100000000000D+00  0.0000000000000D+00  0.0000000000000D+00
   283  2.8200000000000D+00  0.0000000000000D+00  0.0000000000000D+00
   284  2.8300000000000D+00  0.0000000000000D+00  0.0000000000000D+00
   285  2.8400000000000D+00  0.0000000000000D+00  0.0000000000000D+00
   286  2.8500000000000D+00  0.0000000000000D+00  0.0000000000000D+00
   287  2.8600000000000D+00  0.0000000000000D+00  0.0000000000000D+00
   288  2.8700000000000D+00  0.0000000000000D+00  0.0000000000000D+00
   289  2.8800000000000D+00  0.0000000000000D+00  0.0000000000000D+00
   290  2.8900000000000D+00  0.0000000000000D+00  0.0000000000000D+00
   291  2.9000000000000D+00  0.0000000000000D+00  0.0000000000000D+00
   292  2.9100000000000D+00  0.0000000000000D+00  0.0000000000000D+00
   293  2.9200000000000D+00  0.0000000000000D+00  0.0000000000000D+00
   294  2.9300000000000D+00  0.0000000000000D+00  0.0000000000000D+00
   295  2.9400000000000D+00  0.0000000000000D+00  0.0000000000000D+00
   296  2.9500000000000D+00  0.0000000000000D+00  0.0000000000000D+00
   297  2.9600000000000D+00  0.0000000000000D+00  0.0000000000000D+00
   298  2.9700000000000D+00  0.0000000000000D+00  0.0000000000000D+00
   299  2.9800000000000D+00  0.0000000000000D+00  0.0000000000000D+00
   300  2.9900000000000D+00  0.0000000000000D+00  0.0000000000000D+00
   301  3.0000000000000D+00  0.0000000000000D+00  0.0000000000000D+00
   302  3.0100000000000D+00  0.0000000000000D+00  0.0000000000000D+00
   303  3.0200000000000D+00  0.0000000000000D+00  0.0000000000000D+00
   304  3.0300000000000D+00  0.0000000000000D+00  0.0000000000000D+00
   305  3.0400000000000D+00  0.0000000000000D+00  0.0000000000000D+00
   306  3.0500000000000D+00  0.0000000000000D+00  0.0000000000000D+00
   307  3.0600000000000D+00  0.0000000000000D+00  0.0000000000000D+00
   308  3.0700000000000D+00  0.0000000000000D+00  0.0000000000000D+00
   309  3.0800000000000D+00  0.0000000000000D+00  0.0000000000000D+00
   310  3.0900000000000D+00  0.0000000000000D+00  0.0000000000000D+00
   311  3.1000000000000D+00  0.0000000000000D+00  0.0000000000000D+00
   312  3.1100000000000D+00  0.0000000000000D+00  0.0000000000000D+00
   313  3.1200000000000D+00  0.0000000000000D+00  0.0000000000000D+00
   314  3.1300000000000D+00  0.0000000000000D+00  0.0000000000000D+00
   315  3.1400000000000D+00  0.0000000000000D+00  0.0000000000000D+00
   316  3.1500000000000D+00  0.0000000000000D+00  0.0000000000000D+00
   317  3.1600000000000D+00  0.0000000000000D+00  0.0000000000000D+00
   318  3.1700000000000D+00  0.0000000000000D+00  0.0000000000000D+00
   319  3.1800000000000D+00  0.0000000000000D+00  0.0000000000000D+00
   320  3.1900000000000D+00  0.0000000000000D+00  0.0000000000000D+00
   321  3.2000000000000D+00  0.0000000000000D+00  0.0000000000000D+00
   322  3.2100000000000D+00  0.0000000000000D+00  0.0000000000000D+00
   323  3.2200000000000D+00  0.0000000000000D+00  0.0000000000000D+00
   324  3.2300000000000D+00  0.0000000000000D+00  0.0000000000000D+00
   325  3.2400000000000D+00  0.0000000000000D+00  0.0000000000000D+00
   326  3.2500000000000D+00  0.0000000000000D+00  0.0000000000000D+00
   327  3.2600000000000D+00  0.0000000000000D+00  0.0000000000000D+00
   328  3.2700000000000D+00  0.0000000000000D+00  0.0000000000000D+00
   329  3.2800000000000D+00  0.0000000000000D+00  0.0000000000000D+00
   330  3.2900000000000D+00  0.0000000000000D+00  0.0000000000000D+00
   331  3.3000000000000D+00  0.0000000000000D+00  0.0000000000000D+00
   332  3.3100000000000D+00  0.0000000000000D+00  0.0000000000000D+00
   333  3.3200000000000D+00  0.0000000000000D+00  0.0000000000000D+00
   334  3.3300000000000D+00  0.0000000000000D+00  0.0000000000000D+00
   335  3.3400000000000D+00  0.0000000000000D+00  0.0000000000000D+00
   336  3.3500000000000D+00  0.0000000000000D+00  0.0000000000000D+00
   337  3.3600000000000D+00  0.0000000000000D+00  0.0000000000000D+00
   338  3.3700000000000D+00  0.0000000000000D+00  0.0000000000000D+00
   339  3.3800000000000D+00  0.0000000000000D+00  0.0000000000000D+00
   340  3.3900000000000D+00  0.0000000000000D+00  0.0000000000000D+00
   341  3.4000000000000D+00  0.0000000000000D+00  0.0000000000000D+00
   342  3.4100000000000D+00  0.0000000000000D+00  0.0000000000000D+00
   343  3.4200000000000D+00  0.0000000000000D+00  0.0000000000000D+00
   344  3.4300000000000D+00  0.0000000000000D+00  0.0000000000000D+00
   345  3.4400000000000D+00  0.0000000000000D+00  0.0000000000000D+00
   346  3.4500000000000D+00  0.0000000000000D+00  0.0000000000000D+00
   347  3.4600000000000D+00  0.0000000000000D+00  0.0000000000000D+00
   348  3.4700000000000D+00  0.0000000000000D+00  0.0000000000000D+00
   349  3.4800000000000D+00  0.0000000000000D+00  0.0000000000000D+00
   350  3.4900000000000D+00  0.0000000000000D+00  0.0000000000000D+00
   351  3.5000000000000D+00  0.0000000000000D+00  0.0000000000000D+00
   352  3.5100000000000D+00  0.0000000000000D+00  0.0000000000000D+00
   353  3.5200000000000D+00  0.0000000000000D+00  0.0000000000000D+00
   354  3.5300000000000D+00  0.0000000000000D+00  0.0000000000000D+00
   355  3.5400000000000D+00  0.0000000000000D+00  0.0000000000000D+00
   356  3.5500000000000D+00  0.0000000000000D+00  0.0000000000000D+00
   357  3.5600000000000D+00  0.0000000000000D+00  0.0000000000000D+00
   358  3.5700000000000D+00  0.0000000000000D+00  0.0000000000000D+00
   359  3.5800000000000D+00  0.0000000000000D+00  0.0000000000000D+00
   360  3.5900000000000D+00  0.0000000000000D+00  0.0000000000000D+00
   361  3.6000000000000D+00  0.0000000000000D+00  0.0000000000000D+00
   362  3.6100000000000D+00  0.0000000000000D+00  0.0000000000000D+00
   363  3.6200000000000D+00  0.0000000000000D+00  0.0000000000000D+00
   364  3.6300000000000D+00  0.0000000000000D+00  0.0000000000000D+00
   365  3.6400000000000D+00  0.0000000000000D+00  0.0000000000000D+00
   366  3.6500000000000D+00  0.0000000000000D+00  0.0000000000000D+00
   367  3.6600000000000D+00  0.0000000000000D+00  0.0000000000000D+00
   368  3.6700000000000D+00  0.0000000000000D+00  0.0000000000000D+00
   369  3.6800000000000D+00  0.0000000000000D+00  0.0000000000000D+00
   370  3.6900000000000D+00  0.0000000000000D+00  0.0000000000000D+00
   371  3.7000000000000D+00  0.0000000000000D+00  0.0000000000000D+00
   372  3.7100000000000D+00  0.0000000000000D+00  0.0000000000000D+00
   373  3.7200000000000D+00  0.0000000000000D+00  0.0000000000000D+00
   374  3.7300000000000D+00  0.0000000000000D+00  0.0000000000000D+00
   375  3.7400000000000D+00  0.0000000000000D+00  0.0000000000000D+00
   376  3.7500000000000D+00  0.0000000000000D+00  0.0000000000000D+00
   377  3.7600000000000D+00  0.0000000000000D+00  0.0000000000000D+00
   378  3.7700000000000D+00  0.0000000000000D+00  0.0000000000000D+00
   379  3.7800000000000D+00  0.0000000000000D+00  0.0000000000000D+00
   380  3.7900000000000D+00  0.0000000000000D+00  0.0000000000000D+00
   381  3.8000000000000D+00  0.0000000000000D+00  0.0000000000000D+00
   382  3.8100000000000D+00  0.0000000000000D+00  0.0000000000000D+00
   383  3.8200000000000D+00  0.0000000000000D+00  0.0000000000000D+00
   384  3.8300000000000D+00  0.0000000000000D+00  0.0000000000000D+00
   385  3.8400000000000D+00  0.0000000000000D+00  0.0000000000000D+00
   386  3.8500000000000D+00  0.0000000000000D+00  0.0000000000000D+00
   387  3.8600000000000D+00  0.0000000000000D+00  0.0000000000000D+00
   388  3.8700000000000D+00  0.0000000000000D+00  0.0000000000000D+00
   389  3.8800000000000D+00  0.0000000000000D+00  0.0000000000000D+00
   390  3.8900000000000D+00  0.0000000000000D+00  0.0000000000000D+00
   391  3.9000000000000D+00  0.0000000000000D+00  0.0000000000000D+00
   392  3.9100000000000D+00  0.0000000000000D+00  0.0000000000000D+00
   393  3.9200000000000D+00  0.0000000000000D+00  0.0000000000000D+00
   394  3.9300000000000D+00  0.0000000000000D+00  0.0000000000000D+00
   395  3.9400000000000D+00  0.0000000000000D+00  0.0000000000000D+00
   396  3.9500000000000D+00  0.0000000000000D+00  0.0000000000000D+00
   397  3.9600000000000D+00  0.0000000000000D+00  0.0000000000000D+00
   398  3.9700000000000D+00  0.0000000000000D+00  0.0000000000000D+00
   399  3.9800000000000D+00  0.0000000000000D+00  0.0000000000000D+00
   400  3.9900000000000D+00  0.0000000000000D+00  0.0000000000000D+00
   401  4.0000000000000D+00  0.0000000000000D+00  0.0000000000000D+00
   402  4.0100000000000D+00  0.0000000000000D+00  0.0000000000000D+00
   403  4.0200000000000D+00  0.0000000000000D+00  0.0000000000000D+00
   404  4.0300000000000D+00  0.0000000000000D+00  0.0000000000000D+00
   405  4.0400000000000D+00  0.0000000000000D+00  0.0000000000000D+00
   406  4.0500000000000D+00  0.0000000000000D+00  0.0000000000000D+00
   407  4.0600000000000D+00  0.0000000000000D+00  0.0000000000000D+00
   408  4.0700000000000D+00  0.0000000000000D+00  0.0000000000000D+00
   409  4.0800000000000D+00  0.0000000000000D+00  0.0000000000000D+00
   410  4.0900000000000D+00  0.0000000000000D+00  0.0000000000000D+00
   411  4.1000000000000D+00  0.0000000000000D+00  0.0000000000000D+00
   412  4.1100000000000D+00  0.0000000000000D+00  0.0000000000000D+00
   413  4.1200000000000D+00  0.0000000000000D+00  0.0000000000000D+00
   414  4.1300000000000D+00  0.0000000000000D+00  0.0000000000000D+00
   415  4.1400000000000D+00  0.0000000000000D+00  0.0000000000000D+00
   416  4.1500000000000D+00  0.0000000000000D+00  0.0000000000000D+00
   417  4.1600000000000D+00  0.0000000000000D+00  0.0000000000000D+00
   418  4.1700000000000D+00  0.0000000000000D+00  0.0000000000000D+00
   419  4.1800000000000D+00  0.0000000000000D+00  0.0000000000000D+00
   420  4.1900000000000D+00  0.0000000000000D+00  0.0000000000000D+00
   421  4.2000000000000D+00  0.0000000000000D+00  0.0000000000000D+00
   422  4.2100000000000D+00  0.0000000000000D+00  0.0000000000000D+00