I     ONCVPSP-3.3.1  r_core=   2.41629   3.33444   3.21723
     53.0000     17.0000      210904    zatom,zion,pspd
     8      11   2     4   600     0    pspcod,pspxc,lmax,lloc,mmax,r2well
  5.99000000  0.00000000  0.00000000    rchrg fchrg qchrg
     2     2     2     0     0    nproj
     1     1           extension_switch
   0                         7.7216325330083D+00  1.8281005853109D+00
     1  0.0000000000000D+00  3.3583830161277D-12 -1.8839069193533D-11
     2  1.0000000000000D-02  1.1571039982810D-02  2.8181684039206D-02
     3  2.0000000000000D-02  2.3178643535119D-02  5.6239675063404D-02
     4  3.0000000000000D-02  3.4859216063841D-02  8.4050786182482D-02
     5  4.0000000000000D-02  4.6648847123755D-02  1.1149284096475D-01
     6  5.0000000000000D-02  5.8583153673200D-02  1.3844517419240D-01
     7  6.0000000000000D-02  7.0697124745559D-02  1.6478912726169D-01
     8  7.0000000000000D-02  8.3024968004591D-02  1.9040853646454D-01
     9  8.0000000000000D-02  9.5599958648308D-02  2.1519021240738D-01
    10  9.0000000000000D-02  1.0845429112189D-01  2.3902440884624D-01
    11  1.0000000000000D-01  1.2161893409507D-01  2.6180527924575D-01
    12  1.1000000000000D-01  1.3512348915332D-01  2.8343131940233D-01
    13  1.2000000000000D-01  1.4899605364545D-01  3.0380579451001D-01
    14  1.3000000000000D-01  1.6326308812222D-01  3.2283714908962D-01
    15  1.4000000000000D-01  1.7794928879168D-01  3.4043939824937D-01
    16  1.5000000000000D-01  1.9307746540739D-01  3.5653249879722D-01
    17  1.6000000000000D-01  2.0866842499448D-01  3.7104269878178D-01
    18  1.7000000000000D-01  2.2474086180697D-01  3.8390286410048D-01
    19  1.8000000000000D-01  2.4131125389634D-01  3.9505278087980D-01
    20  1.9000000000000D-01  2.5839376665770D-01  4.0443943240336D-01
    21  2.0000000000000D-01  2.7600016370441D-01  4.1201724943920D-01
    22  2.1000000000000D-01  2.9413972540577D-01  4.1774833289786D-01
    23  2.2000000000000D-01  3.1281917540477D-01  4.2160264783724D-01
    24  2.3000000000000D-01  3.3204261541431D-01  4.2355818791941D-01
    25  2.4000000000000D-01  3.5181146857031D-01  4.2360110951771D-01
    26  2.5000000000000D-01  3.7212443159921D-01  4.2172583476963D-01
    27  2.6000000000000D-01  3.9297743603481D-01  4.1793512297257D-01
    28  2.7000000000000D-01  4.1436361869637D-01  4.1224010982417D-01
    29  2.8000000000000D-01  4.3627330161486D-01  4.0466031411775D-01
    30  2.9000000000000D-01  4.5869398156885D-01  3.9522361161512D-01
    31  3.0000000000000D-01  4.8161032936450D-01  3.8396617593361D-01
    32  3.1000000000000D-01  5.0500419896615D-01  3.7093238640211D-01
    33  3.2000000000000D-01  5.2885464655527D-01  3.5617470296043D-01
    34  3.3000000000000D-01  5.5313795956537D-01  3.3975350829847D-01
    35  3.4000000000000D-01  5.7782769570970D-01  3.2173691755512D-01
    36  3.5000000000000D-01  6.0289473198702D-01  3.0220055602178D-01
    37  3.6000000000000D-01  6.2830732361821D-01  2.8122730542093D-01
    38  3.7000000000000D-01  6.5403117283330D-01  2.5890701945615D-01
    39  3.8000000000000D-01  6.8002950739502D-01  2.3533620945593D-01
    40  3.9000000000000D-01  7.0626316871082D-01  2.1061770105863D-01
    41  4.0000000000000D-01  7.3269070935074D-01  1.8486026301034D-01
    42  4.1000000000000D-01  7.5926849975399D-01  1.5817820926921D-01
    43  4.2000000000000D-01  7.8595084387214D-01  1.3069097573041D-01
    44  4.3000000000000D-01  8.1269010346241D-01  1.0252267300274D-01
    45  4.4000000000000D-01  8.3943683070966D-01  7.3801616781919D-02
    46  4.5000000000000D-01  8.6613990882172D-01  4.4659837475409D-02
    47  4.6000000000000D-01  8.9274670020905D-01  1.5232570838652D-02
    48  4.7000000000000D-01  9.1920320182651D-01 -1.4342268517060D-02
    49  4.8000000000000D-01  9.4545420722281D-01 -4.3924628790787D-02
    50  4.9000000000000D-01  9.7144347481226D-01 -7.3372875789945D-02
    51  5.0000000000000D-01  9.9711390185292D-01 -1.0254435873671D-01
    52  5.1000000000000D-01  1.0224077035867D+00 -1.3129598488602D-01
    53  5.2000000000000D-01  1.0472665969698D+00 -1.5948480069260D-01
    54  5.3000000000000D-01  1.0716319883955D+00 -1.8696857720759D-01
    55  5.4000000000000D-01  1.0954451647887D+00 -2.1360639733692D-01
    56  5.5000000000000D-01  1.1186474874281D+00 -2.3925924255525D-01
    57  5.6000000000000D-01  1.1411805878334D+00 -2.6379057664028D-01
    58  5.7000000000000D-01  1.1629865650367D+00 -2.8706692397340D-01
    59  5.8000000000000D-01  1.1840081835420D+00 -3.0895843994508D-01
    60  5.9000000000000D-01  1.2041890712643D+00 -3.2933947100544D-01
    61  6.0000000000000D-01  1.2234739167301D+00 -3.4808910191485D-01
    62  6.1000000000000D-01  1.2418086648126D+00 -3.6509168777399D-01
    63  6.2000000000000D-01  1.2591407102714D+00 -3.8023736844927D-01
    64  6.3000000000000D-01  1.2754190883654D+00 -3.9342256305754D-01
    65  6.4000000000000D-01  1.2905946618075D+00 -4.0455044223295D-01
    66  6.5000000000000D-01  1.3046203033360D+00 -4.1353137596944D-01
    67  6.6000000000000D-01  1.3174510731839D+00 -4.2028335491454D-01
    68  6.7000000000000D-01  1.3290443907384D+00 -4.2473238308283D-01
    69  6.8000000000000D-01  1.3393601996976D+00 -4.2681284006121D-01
    70  6.9000000000000D-01  1.3483611260474D+00 -4.2646781089251D-01
    71  7.0000000000000D-01  1.3560126282023D+00 -4.2364938194854D-01
    72  7.1000000000000D-01  1.3622831386770D+00 -4.1831890123775D-01
    73  7.2000000000000D-01  1.3671441966819D+00 -4.1044720173591D-01
    74  7.3000000000000D-01  1.3705705710654D+00 -4.0001478648039D-01
    75  7.4000000000000D-01  1.3725403730568D+00 -3.8701197432874D-01
    76  7.5000000000000D-01  1.3730351583006D+00 -3.7143900544948D-01
    77  7.6000000000000D-01  1.3720400177078D+00 -3.5330610578690D-01
    78  7.7000000000000D-01  1.3695436566925D+00 -3.3263350992181D-01
    79  7.8000000000000D-01  1.3655384624038D+00 -3.0945144193448D-01
    80  7.9000000000000D-01  1.3600205586058D+00 -2.8380005406510D-01
    81  8.0000000000000D-01  1.3529898479090D+00 -2.5572932315940D-01
    82  8.1000000000000D-01  1.3444500411002D+00 -2.2529890508094D-01
    83  8.2000000000000D-01  1.3344086733728D+00 -1.9257794746740D-01
    84  8.3000000000000D-01  1.3228771073076D+00 -1.5764486140414D-01
    85  8.4000000000000D-01  1.3098705225080D+00 -1.2058705278319D-01
    86  8.5000000000000D-01  1.2954078918481D+00 -8.1500614309306D-02
    87  8.6000000000000D-01  1.2795119443444D+00 -4.0489979305285D-02
    88  8.7000000000000D-01  1.2622091147185D+00  2.3324613446904D-03
    89  8.8000000000000D-01  1.2435294797728D+00  4.6846777592944D-02
    90  8.9000000000000D-01  1.2235066817544D+00  9.2925952270845D-02
    91  9.0000000000000D-01  1.2021778389401D+00  1.4043636491035D-01
    92  9.1000000000000D-01  1.1795834437249D+00  1.8923830531750D-01
    93  9.2000000000000D-01  1.1557672485542D+00  2.3918651471859D-01
    94  9.3000000000000D-01  1.1307761400885D+00  2.9013075215686D-01
    95  9.4000000000000D-01  1.1046600020408D+00  3.4191638368489D-01
    96  9.5000000000000D-01  1.0774715671756D+00  3.9438499177777D-01
    97  9.6000000000000D-01  1.0492662590060D+00  4.4737500228282D-01
    98  9.7000000000000D-01  1.0201020237701D+00  5.0072232612504D-01
    99  9.8000000000000D-01  9.9003915330836D-01  5.5426101290549D-01
   100  9.9000000000000D-01  9.5914009950696D-01  6.0782391346081D-01
   101  1.0000000000000D+00  9.2746928100570D-01  6.6124334839742D-01
   102  1.0100000000000D+00  8.9509288290567D-01  7.1435177957461D-01
   103  1.0200000000000D+00  8.6207865024158D-01  7.6698248148642D-01
   104  1.0300000000000D+00  8.2849567601097D-01  8.1897020948291D-01
   105  1.0400000000000D+00  7.9441418457766D-01  8.7015186177727D-01
   106  1.0500000000000D+00  7.5990531128682D-01  9.2036713220827D-01
   107  1.0600000000000D+00  7.2504087914556D-01  9.6945915076361D-01
   108  1.0700000000000D+00  6.8989317343672D-01  1.0172751089246D+00
   109  1.0800000000000D+00  6.5453471514172D-01  1.0636668669601D+00
   110  1.0900000000000D+00  6.1903803405469D-01  1.1084915403752D+00
   111  1.1000000000000D+00  5.8347544247079D-01  1.1516120628282D+00
   112  1.1100000000000D+00  5.4791881032953D-01  1.1928977229276D+00
   113  1.1200000000000D+00  5.1243934268564D-01  1.2322246724686D+00
   114  1.1300000000000D+00  4.7710736037306D-01  1.2694764037664D+00
   115  1.1400000000000D+00  4.4199208471008D-01  1.3045441939359D+00
   116  1.1500000000000D+00  4.0716142707780D-01  1.3373275140999D+00
   117  1.1600000000000D+00  3.7268178417805D-01  1.3677344017114D+00
   118  1.1700000000000D+00  3.3861783976126D-01  1.3956817942934D+00
   119  1.1800000000000D+00  3.0503237357558D-01  1.4210958231628D+00
   120  1.1900000000000D+00  2.7198607826166D-01  1.4439120658637D+00
   121  1.2000000000000D+00  2.3953738487980D-01  1.4640757562492D+00
   122  1.2100000000000D+00  2.0774229772847D-01  1.4815419513196D+00
   123  1.2200000000000D+00  1.7665423905739D-01  1.4962756542073D+00
   124  1.2300000000000D+00  1.4632390423615D-01  1.5082518929033D+00
   125  1.2400000000000D+00  1.1679912791990D-01  1.5174557544239D+00
   126  1.2500000000000D+00  8.8124761671458D-02  1.5238823744963D+00
   127  1.2600000000000D+00  6.0342563459438D-02  1.5275368830010D+00
   128  1.2700000000000D+00  3.3491099428437D-02  1.5284343055201D+00
   129  1.2800000000000D+00  7.6056582519060D-03  1.5265994216969D+00
   130  1.2900000000000D+00 -1.7281821676588D-02  1.5220665813048D+00
   131  1.3000000000000D+00 -4.1142811965826D-02  1.5148794789684D+00
   132  1.3100000000000D+00 -6.3952240718155D-02  1.5050908888584D+00
   133  1.3200000000000D+00 -8.5688525701866D-02  1.4927623608535D+00
   134  1.3300000000000D+00 -1.0633359409955D-01  1.4779638796251D+00
   135  1.3400000000000D+00 -1.2587288887455D-01  1.4607734885711D+00
   136  1.3500000000000D+00 -1.4429536181008D-01  1.4412768805235D+00
   137  1.3600000000000D+00 -1.6159345327496D-01  1.4195669571940D+00
   138  1.3700000000000D+00 -1.7776305893814D-01  1.3957433597493D+00
   139  1.3800000000000D+00 -1.9280348359396D-01  1.3699119727345D+00
   140  1.3900000000000D+00 -2.0671738234492D-01  1.3421844038064D+00
   141  1.4000000000000D+00 -2.1951068949669D-01  1.3126774418960D+00
   142  1.4100000000000D+00 -2.3119253542278D-01  1.2815124962787D+00
   143  1.4200000000000D+00 -2.4177515185960D-01  1.2488150193594D+00
   144  1.4300000000000D+00 -2.5127376602004D-01  1.2147139158068D+00
   145  1.4400000000000D+00 -2.5970648396677D-01  1.1793409408387D+00
   146  1.4500000000000D+00 -2.6709416380343D-01  1.1428300903922D+00
   147  1.4600000000000D+00 -2.7346027911832D-01  1.1053169859878D+00
   148  1.4700000000000D+00 -2.7883077331949D-01  1.0669382570002D+00
   149  1.4800000000000D+00 -2.8323390537848D-01  1.0278309230665D+00
   150  1.4900000000000D+00 -2.8670008760654D-01  9.8813177936920D-01
   151  1.5000000000000D+00 -2.8926171608567D-01  9.4797678723092D-01
   152  1.5100000000000D+00 -2.9095299436070D-01  9.0750047288342D-01
   153  1.5200000000000D+00 -2.9180975107225D-01  8.6683533639035D-01
   154  1.5300000000000D+00 -2.9186925214842D-01  8.2611127364737D-01
   155  1.5400000000000D+00 -2.9117000824059D-01  7.8545501311411D-01
   156  1.5500000000000D+00 -2.8975157804565D-01  7.4498956987598D-01
   157  1.5600000000000D+00 -2.8765436818704D-01  7.0483371869530D-01
   158  1.5700000000000D+00 -2.8491943029436D-01  6.6510148798713D-01
   159  1.5800000000000D+00 -2.8158825595697D-01  6.2590167654217D-01
   160  1.5900000000000D+00 -2.7770257014355D-01  5.8733739410135D-01
   161  1.6000000000000D+00 -2.7330412378796D-01  5.4950562783581D-01
   162  1.6100000000000D+00 -2.6843448604382D-01  5.1249683491468D-01
   163  1.6200000000000D+00 -2.6313483592587D-01  4.7639455947842D-01
   164  1.6300000000000D+00 -2.5744576088591D-01  4.4127510110759D-01
   165  1.6400000000000D+00 -2.5140703402076D-01  4.0720712698687D-01
   166  1.6500000000000D+00 -2.4505746096197D-01  3.7425155988548D-01
   167  1.6600000000000D+00 -2.3843461936729D-01  3.4246111070392D-01
   168  1.6700000000000D+00 -2.3157460301165D-01  3.1187978822643D-01
   169  1.6800000000000D+00 -2.2451209648973D-01  2.8254376163012D-01
   170  1.6900000000000D+00 -2.1728037516352D-01  2.5448193359524D-01
   171  1.7000000000000D+00 -2.0991141496675D-01  2.2771669241570D-01
   172  1.7100000000000D+00 -2.0243607731951D-01  2.0226499151815D-01
   173  1.7200000000000D+00 -1.9488397683497D-01  1.7813813769904D-01
   174  1.7300000000000D+00 -1.8728341037229D-01  1.5534176765433D-01
   175  1.7400000000000D+00 -1.7966136014313D-01  1.3387618918168D-01
   176  1.7500000000000D+00 -1.7204344745804D-01  1.1373648926720D-01
   177  1.7600000000000D+00 -1.6445391294053D-01  9.4912756240589D-02
   178  1.7700000000000D+00 -1.5691559566805D-01  7.7390292407589D-02
   179  1.7800000000000D+00 -1.4944991857971D-01  6.1149848808131D-02
   180  1.7900000000000D+00 -1.4207687888008D-01  4.6167874533406D-02
   181  1.8000000000000D+00 -1.3481504384396D-01  3.2416781444885D-02
   182  1.8100000000000D+00 -1.2768155152316D-01  1.9865221038278D-02
   183  1.8200000000000D+00 -1.2069211669032D-01  8.4783731913316D-03
   184  1.8300000000000D+00 -1.1386104160637D-01 -1.7817555977155D-03
   185  1.8400000000000D+00 -1.0720123165509D-01 -1.0956025970667D-02
   186  1.8500000000000D+00 -1.0072421565814D-01 -1.9087853121902D-02
   187  1.8600000000000D+00 -9.4440170539590D-02 -2.6222890071017D-02
   188  1.8700000000000D+00 -8.8357950408019D-02 -3.2408708309137D-02
   189  1.8800000000000D+00 -8.2485119407667D-02 -3.7694477799660D-02
   190  1.8900000000000D+00 -7.6827988550502D-02 -4.2130648596768D-02
   191  1.9000000000000D+00 -7.1391655776747D-02 -4.5768634896377D-02
   192  1.9100000000000D+00 -6.6180049346633D-02 -4.8660504954123D-02
   193  1.9200000000000D+00 -6.1195973989821D-02 -5.0858676672257D-02
   194  1.9300000000000D+00 -5.6441159627168D-02 -5.2415622365352D-02
   195  1.9400000000000D+00 -5.1916312329687D-02 -5.3383583060813D-02
   196  1.9500000000000D+00 -4.7621167171579D-02 -5.3814294027450D-02
   197  1.9600000000000D+00 -4.3554542646857D-02 -5.3758724251907D-02
   198  1.9700000000000D+00 -3.9714396459773D-02 -5.3266828046564D-02
   199  1.9800000000000D+00 -3.6097882113856D-02 -5.2387314654410D-02
   200  1.9900000000000D+00 -3.2701406372146D-02 -5.1167431550292D-02
   201  2.0000000000000D+00 -2.9520686912980D-02 -4.9652767125001D-02
   202  2.0100000000000D+00 -2.6550810182444D-02 -4.7887070496782D-02
   203  2.0200000000000D+00 -2.3786289121267D-02 -4.5912089624306D-02
   204  2.0300000000000D+00 -2.1221120254551D-02 -4.3767430696297D-02
   205  2.0400000000000D+00 -1.8848840513441D-02 -4.1490433861526D-02
   206  2.0500000000000D+00 -1.6662582720020D-02 -3.9116072628366D-02
   207  2.0600000000000D+00 -1.4655130372123D-02 -3.6676870297984D-02
   208  2.0700000000000D+00 -1.2818970996582D-02 -3.4202837616182D-02
   209  2.0800000000000D+00 -1.1146347958363D-02 -3.1721431046061D-02
   210  2.0900000000000D+00 -9.6293110729997D-03 -2.9257527855765D-02
   211  2.1000000000000D+00 -8.2597649595299D-03 -2.6833423976770D-02
   212  2.1100000000000D+00 -7.0295160571664D-03 -2.4468847187949D-02
   213  2.1200000000000D+00 -5.9303174500351D-03 -2.2180989863093D-02
   214  2.1300000000000D+00 -4.9539116258383D-03 -1.9984559212345D-02
   215  2.1400000000000D+00 -4.0920715472948D-03 -1.7891841580967D-02
   216  2.1500000000000D+00 -3.3366390601501D-03 -1.5912785107223D-02
   217  2.1600000000000D+00 -2.6795616234147D-03 -1.4055094139357D-02
   218  2.1700000000000D+00 -2.1129266816805D-03 -1.2324337763432D-02
   219  2.1800000000000D+00 -1.6289937445058D-03 -1.0724070837593D-02
   220  2.1900000000000D+00 -1.2202247194174D-03 -9.2559639988385D-03
   221  2.2000000000000D+00 -8.7931163847260D-04 -7.9199448350869D-03
   222  2.2100000000000D+00 -5.9920260936299D-04 -6.7143459473017D-03
   223  2.2200000000000D+00 -3.7312569673024D-04 -5.6360596919085D-03
   224  2.2300000000000D+00 -1.9461062409567D-04 -4.6806983986937D-03
   225  2.2400000000000D+00 -5.7508801854328D-05 -3.8427581976746D-03
   226  2.2500000000000D+00  4.3988675079275D-05 -3.1157849211964D-03
   227  2.2600000000000D+00  1.1533477960681D-04 -2.4925408160171D-03
   228  2.2700000000000D+00  1.6161192186456D-04 -1.9651716235694D-03
   229  2.2800000000000D+00  1.8751904188734D-04 -1.5253699195852D-03
   230  2.2900000000000D+00  1.9736018450352D-04 -1.1645366863353D-03
   231  2.3000000000000D+00  1.9503453300424D-04 -8.7393812744256D-04
   232  2.3100000000000D+00  1.8402776480783D-04 -6.4485472865382D-04
   233  2.3200000000000D+00  1.6740478758820D-04 -4.6872621190635D-04
   234  2.3300000000000D+00  1.4780357366024D-04 -3.3728595325464D-04
   235  2.3400000000000D+00  1.2751057113825D-04 -2.4283892508619D-04
   236  2.3500000000000D+00  1.0814865872694D-04 -1.7779214136758D-04
   237  2.3600000000000D+00  9.0936042458227D-05 -1.3528148770467D-04
   238  2.3700000000000D+00  7.6212636445669D-05 -1.0856814396518D-04
   239  2.3800000000000D+00  6.6098530858006D-05 -9.5097073996457D-05
   240  2.3900000000000D+00  6.1642757769321D-05 -9.2202445823100D-05
   241  2.4000000000000D+00  6.2327220916727D-05 -9.6370511473674D-05
   242  2.4100000000000D+00  6.0753296853049D-05 -9.5496677219988D-05
   243  2.4200000000000D+00  5.0478527391710D-05 -7.9819001835579D-05
   244  2.4300000000000D+00  3.0275618643918D-05 -4.8057281381152D-05
   245  2.4400000000000D+00  9.1783482561509D-06 -1.4592156736977D-05
   246  2.4500000000000D+00 -3.7824999419878D-06  6.0449961648619D-06
   247  2.4600000000000D+00 -5.7974089691745D-06  9.2813633975214D-06
   248  2.4700000000000D+00 -2.2975740546314D-06  3.6832777102067D-06
   249  2.4800000000000D+00  8.3432562175520D-07 -1.3262304817238D-06
   250  2.4900000000000D+00  1.3127360697295D-06 -2.0874925734967D-06
   251  2.5000000000000D+00  5.3141042136597D-07 -8.4530570348901D-07
   252  2.5100000000000D+00 -9.9283773607146D-08  1.5662063615287D-07
   253  2.5200000000000D+00 -1.5811029506700D-07  2.4941976010800D-07
   254  2.5300000000000D+00 -6.6639811317315D-08  1.0512462673834D-07
   255  2.5400000000000D+00  0.0000000000000D+00  0.0000000000000D+00
   256  2.5500000000000D+00  0.0000000000000D+00  0.0000000000000D+00
   257  2.5600000000000D+00  0.0000000000000D+00  0.0000000000000D+00
   258  2.5700000000000D+00  0.0000000000000D+00  0.0000000000000D+00
   259  2.5800000000000D+00  0.0000000000000D+00  0.0000000000000D+00
   260  2.5900000000000D+00  0.0000000000000D+00  0.0000000000000D+00
   261  2.6000000000000D+00  0.0000000000000D+00  0.0000000000000D+00
   262  2.6100000000000D+00  0.0000000000000D+00  0.0000000000000D+00
   263  2.6200000000000D+00  0.0000000000000D+00  0.0000000000000D+00
   264  2.6300000000000D+00  0.0000000000000D+00  0.0000000000000D+00
   265  2.6400000000000D+00  0.0000000000000D+00  0.0000000000000D+00
   266  2.6500000000000D+00  0.0000000000000D+00  0.0000000000000D+00
   267  2.6600000000000D+00  0.0000000000000D+00  0.0000000000000D+00
   268  2.6700000000000D+00  0.0000000000000D+00  0.0000000000000D+00
   269  2.6800000000000D+00  0.0000000000000D+00  0.0000000000000D+00
   270  2.6900000000000D+00  0.0000000000000D+00  0.0000000000000D+00
   271  2.7000000000000D+00  0.0000000000000D+00  0.0000000000000D+00
   272  2.7100000000000D+00  0.0000000000000D+00  0.0000000000000D+00
   273  2.7200000000000D+00  0.0000000000000D+00  0.0000000000000D+00
   274  2.7300000000000D+00  0.0000000000000D+00  0.0000000000000D+00
   275  2.7400000000000D+00  0.0000000000000D+00  0.0000000000000D+00
   276  2.7500000000000D+00  0.0000000000000D+00  0.0000000000000D+00
   277  2.7600000000000D+00  0.0000000000000D+00  0.0000000000000D+00
   278  2.7700000000000D+00  0.0000000000000D+00  0.0000000000000D+00
   279  2.7800000000000D+00  0.0000000000000D+00  0.0000000000000D+00
   280  2.7900000000000D+00  0.0000000000000D+00  0.0000000000000D+00
   281  2.8000000000000D+00  0.0000000000000D+00  0.0000000000000D+00
   282  2.8100000000000D+00  0.0000000000000D+00  0.0000000000000D+00
   283  2.8200000000000D+00  0.0000000000000D+00  0.0000000000000D+00
   284  2.8300000000000D+00  0.0000000000000D+00  0.0000000000000D+00
   285  2.8400000000000D+00  0.0000000000000D+00  0.0000000000000D+00
   286  2.8500000000000D+00  0.0000000000000D+00  0.0000000000000D+00
   287  2.8600000000000D+00  0.0000000000000D+00  0.0000000000000D+00
   288  2.8700000000000D+00  0.0000000000000D+00  0.0000000000000D+00
   289  2.8800000000000D+00  0.0000000000000D+00  0.0000000000000D+00
   290  2.8900000000000D+00  0.0000000000000D+00  0.0000000000000D+00
   291  2.9000000000000D+00  0.0000000000000D+00  0.0000000000000D+00
   292  2.9100000000000D+00  0.0000000000000D+00  0.0000000000000D+00
   293  2.9200000000000D+00  0.0000000000000D+00  0.0000000000000D+00
   294  2.9300000000000D+00  0.0000000000000D+00  0.0000000000000D+00
   295  2.9400000000000D+00  0.0000000000000D+00  0.0000000000000D+00
   296  2.9500000000000D+00  0.0000000000000D+00  0.0000000000000D+00
   297  2.9600000000000D+00  0.0000000000000D+00  0.0000000000000D+00
   298  2.9700000000000D+00  0.0000000000000D+00  0.0000000000000D+00
   299  2.9800000000000D+00  0.0000000000000D+00  0.0000000000000D+00
   300  2.9900000000000D+00  0.0000000000000D+00  0.0000000000000D+00
   301  3.0000000000000D+00  0.0000000000000D+00  0.0000000000000D+00
   302  3.0100000000000D+00  0.0000000000000D+00  0.0000000000000D+00
   303  3.0200000000000D+00  0.0000000000000D+00  0.0000000000000D+00
   304  3.0300000000000D+00  0.0000000000000D+00  0.0000000000000D+00
   305  3.0400000000000D+00  0.0000000000000D+00  0.0000000000000D+00
   306  3.0500000000000D+00  0.0000000000000D+00  0.0000000000000D+00
   307  3.0600000000000D+00  0.0000000000000D+00  0.0000000000000D+00
   308  3.0700000000000D+00  0.0000000000000D+00  0.0000000000000D+00
   309  3.0800000000000D+00  0.0000000000000D+00  0.0000000000000D+00
   310  3.0900000000000D+00  0.0000000000000D+00  0.0000000000000D+00
   311  3.1000000000000D+00  0.0000000000000D+00  0.0000000000000D+00
   312  3.1100000000000D+00  0.0000000000000D+00  0.0000000000000D+00
   313  3.1200000000000D+00  0.0000000000000D+00  0.0000000000000D+00
   314  3.1300000000000D+00  0.0000000000000D+00  0.0000000000000D+00
   315  3.1400000000000D+00  0.0000000000000D+00  0.0000000000000D+00
   316  3.1500000000000D+00  0.0000000000000D+00  0.0000000000000D+00
   317  3.1600000000000D+00  0.0000000000000D+00  0.0000000000000D+00
   318  3.1700000000000D+00  0.0000000000000D+00  0.0000000000000D+00
   319  3.1800000000000D+00  0.0000000000000D+00  0.0000000000000D+00
   320  3.1900000000000D+00  0.0000000000000D+00  0.0000000000000D+00
   321  3.2000000000000D+00  0.0000000000000D+00  0.0000000000000D+00
   322  3.2100000000000D+00  0.0000000000000D+00  0.0000000000000D+00
   323  3.2200000000000D+00  0.0000000000000D+00  0.0000000000000D+00
   324  3.2300000000000D+00  0.0000000000000D+00  0.0000000000000D+00
   325  3.2400000000000D+00  0.0000000000000D+00  0.0000000000000D+00
   326  3.2500000000000D+00  0.0000000000000D+00  0.0000000000000D+00
   327  3.2600000000000D+00  0.0000000000000D+00  0.0000000000000D+00
   328  3.2700000000000D+00  0.0000000000000D+00  0.0000000000000D+00
   329  3.2800000000000D+00  0.0000000000000D+00  0.0000000000000D+00
   330  3.2900000000000D+00  0.0000000000000D+00  0.0000000000000D+00
   331  3.3000000000000D+00  0.0000000000000D+00  0.0000000000000D+00
   332  3.3100000000000D+00  0.0000000000000D+00  0.0000000000000D+00
   333  3.3200000000000D+00  0.0000000000000D+00  0.0000000000000D+00
   334  3.3300000000000D+00  0.0000000000000D+00  0.0000000000000D+00
   335  3.3400000000000D+00  0.0000000000000D+00  0.0000000000000D+00
   336  3.3500000000000D+00  0.0000000000000D+00  0.0000000000000D+00
   337  3.3600000000000D+00  0.0000000000000D+00  0.0000000000000D+00
   338  3.3700000000000D+00  0.0000000000000D+00  0.0000000000000D+00
   339  3.3800000000000D+00  0.0000000000000D+00  0.0000000000000D+00
   340  3.3900000000000D+00  0.0000000000000D+00  0.0000000000000D+00
   341  3.4000000000000D+00  0.0000000000000D+00  0.0000000000000D+00
   342  3.4100000000000D+00  0.0000000000000D+00  0.0000000000000D+00
   343  3.4200000000000D+00  0.0000000000000D+00  0.0000000000000D+00
   344  3.4300000000000D+00  0.0000000000000D+00  0.0000000000000D+00
   345  3.4400000000000D+00  0.0000000000000D+00  0.0000000000000D+00
   346  3.4500000000000D+00  0.0000000000000D+00  0.0000000000000D+00
   347  3.4600000000000D+00  0.0000000000000D+00  0.0000000000000D+00
   348  3.4700000000000D+00  0.0000000000000D+00  0.0000000000000D+00
   349  3.4800000000000D+00  0.0000000000000D+00  0.0000000000000D+00
   350  3.4900000000000D+00  0.0000000000000D+00  0.0000000000000D+00
   351  3.5000000000000D+00  0.0000000000000D+00  0.0000000000000D+00
   352  3.5100000000000D+00  0.0000000000000D+00  0.0000000000000D+00
   353  3.5200000000000D+00  0.0000000000000D+00  0.0000000000000D+00
   354  3.5300000000000D+00  0.0000000000000D+00  0.0000000000000D+00
   355  3.5400000000000D+00  0.0000000000000D+00  0.0000000000000D+00
   356  3.5500000000000D+00  0.0000000000000D+00  0.0000000000000D+00
   357  3.5600000000000D+00  0.0000000000000D+00  0.0000000000000D+00
   358  3.5700000000000D+00  0.0000000000000D+00  0.0000000000000D+00
   359  3.5800000000000D+00  0.0000000000000D+00  0.0000000000000D+00
   360  3.5900000000000D+00  0.0000000000000D+00  0.0000000000000D+00
   361  3.6000000000000D+00  0.0000000000000D+00  0.0000000000000D+00
   362  3.6100000000000D+00  0.0000000000000D+00  0.0000000000000D+00
   363  3.6200000000000D+00  0.0000000000000D+00  0.0000000000000D+00
   364  3.6300000000000D+00  0.0000000000000D+00  0.0000000000000D+00
   365  3.6400000000000D+00  0.0000000000000D+00  0.0000000000000D+00
   366  3.6500000000000D+00  0.0000000000000D+00  0.0000000000000D+00
   367  3.6600000000000D+00  0.0000000000000D+00  0.0000000000000D+00
   368  3.6700000000000D+00  0.0000000000000D+00  0.0000000000000D+00
   369  3.6800000000000D+00  0.0000000000000D+00  0.0000000000000D+00
   370  3.6900000000000D+00  0.0000000000000D+00  0.0000000000000D+00
   371  3.7000000000000D+00  0.0000000000000D+00  0.0000000000000D+00
   372  3.7100000000000D+00  0.0000000000000D+00  0.0000000000000D+00
   373  3.7200000000000D+00  0.0000000000000D+00  0.0000000000000D+00
   374  3.7300000000000D+00  0.0000000000000D+00  0.0000000000000D+00
   375  3.7400000000000D+00  0.0000000000000D+00  0.0000000000000D+00
   376  3.7500000000000D+00  0.0000000000000D+00  0.0000000000000D+00
   377  3.7600000000000D+00  0.0000000000000D+00  0.0000000000000D+00
   378  3.7700000000000D+00  0.0000000000000D+00  0.0000000000000D+00
   379  3.7800000000000D+00  0.0000000000000D+00  0.0000000000000D+00
   380  3.7900000000000D+00  0.0000000000000D+00  0.0000000000000D+00
   381  3.8000000000000D+00  0.0000000000000D+00  0.0000000000000D+00
   382  3.8100000000000D+00  0.0000000000000D+00  0.0000000000000D+00
   383  3.8200000000000D+00  0.0000000000000D+00  0.0000000000000D+00
   384  3.8300000000000D+00  0.0000000000000D+00  0.0000000000000D+00
   385  3.8400000000000D+00  0.0000000000000D+00  0.0000000000000D+00
   386  3.8500000000000D+00  0.0000000000000D+00  0.0000000000000D+00
   387  3.8600000000000D+00  0.0000000000000D+00  0.0000000000000D+00
   388  3.8700000000000D+00  0.0000000000000D+00  0.0000000000000D+00
   389  3.8800000000000D+00  0.0000000000000D+00  0.0000000000000D+00
   390  3.8900000000000D+00  0.0000000000000D+00  0.0000000000000D+00
   391  3.9000000000000D+00  0.0000000000000D+00  0.0000000000000D+00
   392  3.9100000000000D+00  0.0000000000000D+00  0.0000000000000D+00
   393  3.9200000000000D+00  0.0000000000000D+00  0.0000000000000D+00
   394  3.9300000000000D+00  0.0000000000000D+00  0.0000000000000D+00
   395  3.9400000000000D+00  0.0000000000000D+00  0.0000000000000D+00
   396  3.9500000000000D+00  0.0000000000000D+00  0.0000000000000D+00
   397  3.9600000000000D+00  0.0000000000000D+00  0.0000000000000D+00
   398  3.9700000000000D+00  0.0000000000000D+00  0.0000000000000D+00
   399  3.9800000000000D+00  0.0000000000000D+00  0.0000000000000D+00
   400  3.9900000000000D+00  0.0000000000000D+00  0.0000000000000D+00
   401  4.0000000000000D+00  0.0000000000000D+00  0.0000000000000D+00
   402  4.0100000000000D+00  0.0000000000000D+00  0.0000000000000D+00
   403  4.0200000000000D+00  0.0000000000000D+00  0.0000000000000D+00
   404  4.0300000000000D+00  0.0000000000000D+00  0.0000000000000D+00
   405  4.0400000000000D+00  0.0000000000000D+00  0.0000000000000D+00
   406  4.0500000000000D+00  0.0000000000000D+00  0.0000000000000D+00
   407  4.0600000000000D+00  0.0000000000000D+00  0.0000000000000D+00
   408  4.0700000000000D+00  0.0000000000000D+00  0.0000000000000D+00
   409  4.0800000000000D+00  0.0000000000000D+00  0.0000000000000D+00
   410  4.0900000000000D+00  0.0000000000000D+00  0.0000000000000D+00
   411  4.1000000000000D+00  0.0000000000000D+00  0.0000000000000D+00
   412  4.1100000000000D+00  0.0000000000000D+00  0.0000000000000D+00
   413  4.1200000000000D+00  0.0000000000000D+00  0.0000000000000D+00
   414  4.1300000000000D+00  0.0000000000000D+00  0.0000000000000D+00
   415  4.1400000000000D+00  0.0000000000000D+00  0.0000000000000D+00
   416  4.1500000000000D+00  0.0000000000000D+00  0.0000000000000D+00
   417  4.1600000000000D+00  0.0000000000000D+00  0.0000000000000D+00
   418  4.1700000000000D+00  0.0000000000000D+00  0.0000000000000D+00
   419  4.1800000000000D+00  0.0000000000000D+00  0.0000000000000D+00
   420  4.1900000000000D+00  0.0000000000000D+00  0.0000000000000D+00
   421  4.2000000000000D+00  0.0000000000000D+00  0.0000000000000D+00
   422  4.2100000000000D+00  0.0000000000000D+00  0.0000000000000D+00