I     ONCVPSP-3.3.1  r_core=   2.41629   3.33444   3.21723
     53.0000     17.0000      210904    zatom,zion,pspd
     8      11   2     4   600     0    pspcod,pspxc,lmax,lloc,mmax,r2well
  5.99000000  0.00000000  0.00000000    rchrg fchrg qchrg
     2     3     3     0    nproj
     3     1           extension_switch
     4     3     0    nprojso
   0                         1.8259489470806D+00  7.7208914433280D+00
     1  0.0000000000000D+00 -1.8726825645743D-11  3.2948088701801D-12
     2  1.0000000000000D-02  2.8139189112612D-02  1.1579829585682D-02
     3  2.0000000000000D-02  5.6154785904662D-02  2.3196126135929D-02
     4  3.0000000000000D-02  8.3923703717944D-02  3.4885198955502D-02
     5  4.0000000000000D-02  1.1132386542974D-01  4.6683042500576D-02
     6  5.0000000000000D-02  1.3823470375223D-01  5.8625180131188D-02
     7  6.0000000000000D-02  1.6453765618293D-01  7.0746509273468D-02
     8  7.0000000000000D-02  1.9011665284529D-01  8.3081148457722D-02
     9  8.0000000000000D-02  2.1485859547691D-01  9.5662286695139D-02
    10  9.0000000000000D-02  2.3865382584681D-01  1.0852203565167D-01
    11  1.0000000000000D-01  2.6139658191106D-01  1.2169128507263D-01
    12  1.1000000000000D-01  2.8298544004925D-01  1.3519956190551D-01
    13  1.2000000000000D-01  3.0332374176186D-01  1.4907489356189D-01
    14  1.3000000000000D-01  3.2232000325111D-01  1.6334367575106D-01
    15  1.4000000000000D-01  3.3988830635520D-01  1.7803054530981D-01
    16  1.5000000000000D-01  3.5594866935747D-01  1.9315825844245D-01
    17  1.6000000000000D-01  3.7042739624929D-01  2.0874757477486D-01
    18  1.7000000000000D-01  3.8325740308635D-01  2.2481714761424D-01
    19  1.8000000000000D-01  3.9437852014473D-01  2.4138342079338D-01
    20  1.9000000000000D-01  4.0373776865349D-01  2.5846053246431D-01
    21  2.0000000000000D-01  4.1128961095641D-01  2.7606022619119D-01
    22  2.1000000000000D-01  4.1699617303512D-01  2.9419176967567D-01
    23  2.2000000000000D-01  4.2082743841061D-01  3.1286188143100D-01
    24  2.3000000000000D-01  4.2276141252890D-01  3.3207466570223D-01
    25  2.4000000000000D-01  4.2278425682959D-01  3.5183155591015D-01
    26  2.5000000000000D-01  4.2089039179328D-01  3.7213126687586D-01
    27  2.6000000000000D-01  4.1708256836510D-01  3.9296975606041D-01
    28  2.7000000000000D-01  4.1137190725616D-01  4.1434019403081D-01
    29  2.8000000000000D-01  4.0377790573335D-01  4.3623294433937D-01
    30  2.9000000000000D-01  3.9432841161935D-01  4.5863555297729D-01
    31  3.0000000000000D-01  3.8305956433971D-01  4.8153274753732D-01
    32  3.1000000000000D-01  3.7001570297075D-01  5.0490644619189D-01
    33  3.2000000000000D-01  3.5524924136220D-01  5.2873577656474D-01
    34  3.3000000000000D-01  3.3882051053017D-01  5.5299710454414D-01
    35  3.4000000000000D-01  3.2079756863922D-01  5.7766407305510D-01
    36  3.5000000000000D-01  3.0125597901751D-01  6.0270765077639D-01
    37  3.6000000000000D-01  2.8027855677384D-01  6.2809619075607D-01
    38  3.7000000000000D-01  2.5795508471186D-01  6.5379549884617D-01
    39  3.8000000000000D-01  2.3438199936202D-01  6.7976891184358D-01
    40  3.9000000000000D-01  2.0966204807700D-01  7.0597738519044D-01
    41  4.0000000000000D-01  1.8390391826037D-01  7.3237959005287D-01
    42  4.1000000000000D-01  1.5722183992046D-01  7.5893201956228D-01
    43  4.2000000000000D-01  1.2973516286115D-01  7.8558910396900D-01
    44  4.3000000000000D-01  1.0156790993865D-01  8.1230333442337D-01
    45  4.4000000000000D-01  7.2848307927078D-02  8.3902539506493D-01
    46  4.5000000000000D-01  4.3708297645146D-02  8.6570430306625D-01
    47  4.6000000000000D-01  1.4283025101685D-02  8.9228755624469D-01
    48  4.7000000000000D-01 -1.5289684482447D-02  9.1872128782187D-01
    49  4.8000000000000D-01 -4.4869867824216D-02  9.4495042787916D-01
    50  4.9000000000000D-01 -7.4315977860349D-02  9.7091887102579D-01
    51  5.0000000000000D-01 -1.0348544904056D-01  9.9656964976645D-01
    52  5.1000000000000D-01 -1.3223527143785D-01  1.0218451130266D+00
    53  5.2000000000000D-01 -1.6042257141600D-01  1.0466871092658D+00
    54  5.3000000000000D-01 -1.8790519653731D-01  1.0710371735856D+00
    55  5.4000000000000D-01 -2.1454230234554D-01  1.0948367182110D+00
    56  5.5000000000000D-01 -2.4019493862028D-01  1.1180272257076D+00
    57  5.6000000000000D-01 -2.6472663267004D-01  1.1405504442716D+00
    58  5.7000000000000D-01 -2.8800396721260D-01  1.1623485844173D+00
    59  5.8000000000000D-01 -3.0989715038341D-01  1.1833645163657D+00
    60  5.9000000000000D-01 -3.3028057541463D-01  1.2035419674319D+00
    61  6.0000000000000D-01 -3.4903336754201D-01  1.2228257186919D+00
    62  6.1000000000000D-01 -3.6603991572103D-01  1.2411618002084D+00
    63  6.2000000000000D-01 -3.8119038677035D-01  1.2584976840861D+00
    64  6.3000000000000D-01 -3.9438121960792D-01  1.2747824746269D+00
    65  6.4000000000000D-01 -4.0551559730481D-01  1.2899670948585D+00
    66  6.5000000000000D-01 -4.1450389475142D-01  1.3040044687109D+00
    67  6.6000000000000D-01 -4.2126409981316D-01  1.3168496981260D+00
    68  6.7000000000000D-01 -4.2572220594526D-01  1.3284602343940D+00
    69  6.8000000000000D-01 -4.2781257433971D-01  1.3387960430259D+00
    70  6.9000000000000D-01 -4.2747826379176D-01  1.3478197614853D+00
    71  7.0000000000000D-01 -4.2467132659756D-01  1.3554968491278D+00
    72  7.1000000000000D-01 -4.1935306892877D-01  1.3617957287132D+00
    73  7.2000000000000D-01 -4.1149427427226D-01  1.3666879188865D+00
    74  7.3000000000000D-01 -4.0107538867607D-01  1.3701481570517D+00
    75  7.4000000000000D-01 -3.8808666670149D-01  1.3721545120924D+00
    76  7.5000000000000D-01 -3.7252827714901D-01  1.3726884864306D+00
    77  7.6000000000000D-01 -3.5441036779929D-01  1.3717351069505D+00
    78  7.7000000000000D-01 -3.3375308858992D-01  1.3692830043557D+00
    79  7.8000000000000D-01 -3.1058657283332D-01  1.3653244805682D+00
    80  7.9000000000000D-01 -2.8495087626969D-01  1.3598555638240D+00
    81  8.0000000000000D-01 -2.5689587394093D-01  1.3528760511669D+00
    82  8.1000000000000D-01 -2.2648111506547D-01  1.3443895380868D+00
    83  8.2000000000000D-01 -1.9377563628941D-01  1.3344034351044D+00
    84  8.3000000000000D-01 -1.5885773388476D-01  1.3229289711498D+00
    85  8.4000000000000D-01 -1.2181469566091D-01  1.3099811836391D+00
    86  8.5000000000000D-01 -8.2742493548357D-02  1.2955788952048D+00
    87  8.6000000000000D-01 -4.1745438004045D-02  1.2797446770891D+00
    88  8.7000000000000D-01  1.0642044254711D-03  1.2625047992661D+00
    89  8.8000000000000D-01  4.5566628865552D-02  1.2438891674117D+00
    90  8.9000000000000D-01  9.1634943506043D-02  1.2239312468951D+00
    91  9.0000000000000D-01  1.3913565276244D-01  1.2026679740203D+00
    92  9.1000000000000D-01  1.8792917018203D-01  1.1801396548006D+00
    93  9.2000000000000D-01  2.3787035891892D-01  1.1563898515992D+00
    94  9.3000000000000D-01  2.8880909745937D-01  1.1314652580255D+00
    95  9.4000000000000D-01  3.4059086814618D-01  1.1054155625206D+00
    96  9.5000000000000D-01  3.9305736593034D-01  1.0782933011209D+00
    97  9.6000000000000D-01  4.4604712466961D-01  1.0501536999309D+00
    98  9.7000000000000D-01  4.9939615819653D-01  1.0210545078823D+00
    99  9.8000000000000D-01  5.5293861329653D-01  9.9105582040004D-01
   100  9.9000000000000D-01  6.0650743166773D-01  9.6021989463419D-01
   101  1.0000000000000D+00  6.5993501787942D-01  9.2861095695382D-01
   102  1.0100000000000D+00  7.1305391030646D-01  8.9629500343434D-01
   103  1.0200000000000D+00  7.6569745199291D-01  8.6333959409918D-01
   104  1.0300000000000D+00  8.1770045838826D-01  8.2981364170481D-01
   105  1.0400000000000D+00  8.6889987890584D-01  7.9578719588258D-01
   106  1.0500000000000D+00  9.1913544927521D-01  7.6133122347132D-01
   107  1.0600000000000D+00  9.6825033169715D-01  7.2651738589134D-01
   108  1.0700000000000D+00  1.0160917398635D+00  6.9141781442383D-01
   109  1.0800000000000D+00  1.0625115459725D+00  6.5610488426871D-01
   110  1.0900000000000D+00  1.1073668669462D+00  6.2065098825966D-01
   111  1.1000000000000D+00  1.1505206271658D+00  5.8512831111664D-01
   112  1.1100000000000D+00  1.1918420951389D+00  5.4960860511367D-01
   113  1.1200000000000D+00  1.2312073916562D+00  5.1416296803208D-01
   114  1.1300000000000D+00  1.2684999671006D+00  4.7886162426223D-01
   115  1.1400000000000D+00  1.3036110457543D+00  4.4377370989966D-01
   116  1.1500000000000D+00  1.3364400350901D+00  4.0896706266576D-01
   117  1.1600000000000D+00  1.3668948982291D+00  3.7450801745753D-01
   118  1.1700000000000D+00  1.3948924878721D+00  3.4046120831538D-01
   119  1.1800000000000D+00  1.4203588402669D+00  3.0688937755898D-01
   120  1.1900000000000D+00  1.4432294279382D+00  2.7385319281463D-01
   121  1.2000000000000D+00  1.4634493701184D+00  2.4141107262031D-01
   122  1.2100000000000D+00  1.4809735999840D+00  2.0961902126663D-01
   123  1.2200000000000D+00  1.4957669880889D+00  1.7853047347711D-01
   124  1.2300000000000D+00  1.5078044215852D+00  1.4819614948851D-01
   125  1.2400000000000D+00  1.5170708389298D+00  1.1866392107347D-01
   126  1.2500000000000D+00  1.5235612201519D+00  8.9978688965026D-02
   127  1.2600000000000D+00  1.5272805329178D+00  6.2182272104054D-02
   128  1.2700000000000D+00  1.5282436347383D+00  3.5313309106339D-02
   129  1.2800000000000D+00  1.5264751320218D+00  9.4071722616775D-03
   130  1.2900000000000D+00  1.5220091968676D+00 -1.5504105677700D-02
   131  1.3000000000000D+00  1.5148893425388D+00 -3.9391891669643D-02
   132  1.3100000000000D+00  1.5051681589331D+00 -6.2230999368342D-02
   133  1.3200000000000D+00  1.4929070095410D+00 -8.3999722834306D-02
   134  1.3300000000000D+00  1.4781756913428D+00 -1.0467985686048D-01
   135  1.3400000000000D+00  1.4610520595680D+00 -1.2425670395372D-01
   136  1.3500000000000D+00  1.4416216192365D+00 -1.4271906802320D-01
   137  1.3600000000000D+00  1.4199770854421D+00 -1.6005923482685D-01
   138  1.3700000000000D+00  1.3962179147673D+00 -1.7627293939447D-01
   139  1.3800000000000D+00  1.3704498100407D+00 -1.9135932058623D-01
   140  1.3900000000000D+00  1.3427842008980D+00 -2.0532086302999D-01
   141  1.4000000000000D+00  1.3133377027596D+00 -2.1816332678825D-01
   142  1.4100000000000D+00  1.2822315566998D+00 -2.2989566500899D-01
   143  1.4200000000000D+00  1.2495910530113D+00 -2.4052993001705D-01
   144  1.4300000000000D+00  1.2155449410951D+00 -2.5008116823072D-01
   145  1.4400000000000D+00  1.1802248284734D+00 -2.5856730434093D-01
   146  1.4500000000000D+00  1.1437645716567D+00 -2.6600901530756D-01
   147  1.4600000000000D+00  1.1062996616696D+00 -2.7242959460378D-01
   148  1.4700000000000D+00  1.0679666069460D+00 -2.7785480734370D-01
   149  1.4800000000000D+00  1.0289023163192D+00 -2.8231273680711D-01
   150  1.4900000000000D+00  9.8924348484439D-01 -2.8583362298156D-01
   151  1.5000000000000D+00  9.4912598488451D-01 -2.8844969374097D-01
   152  1.5100000000000D+00  9.0868426532212D-01 -2.9019498926339D-01
   153  1.5200000000000D+00  8.6805076087316D-01 -2.9110518036534D-01
   154  1.5300000000000D+00  8.2735531442417D-01 -2.9121738136669D-01
   155  1.5400000000000D+00  7.8672461404670D-01 -2.9056995816982D-01
   156  1.5500000000000D+00  7.4628164728437D-01 -2.8920233219178D-01
   157  1.5600000000000D+00  7.0614517437161D-01 -2.8715478082020D-01
   158  1.5700000000000D+00  6.6642922231831D-01 -2.8446823503018D-01
   159  1.5800000000000D+00  6.2724260168186D-01 -2.8118407483556D-01
   160  1.5900000000000D+00  5.8868844713172D-01 -2.7734392316533D-01
   161  1.6000000000000D+00  5.5086378385886D-01 -2.7298943886317D-01
   162  1.6100000000000D+00  5.1385912001442D-01 -2.6816210931235D-01
   163  1.6200000000000D+00  4.7775806350891D-01 -2.6290304240840D-01
   164  1.6300000000000D+00  4.4263699015976D-01 -2.5725276538174D-01
   165  1.6400000000000D+00  4.0856465580748D-01 -2.5125100235317D-01
   166  1.6500000000000D+00  3.7560208322311D-01 -2.4493652108772D-01
   167  1.6600000000000D+00  3.4380209501742D-01 -2.3834687299550D-01
   168  1.6700000000000D+00  3.1320882419783D-01 -2.3151813779450D-01
   169  1.6800000000000D+00  2.8385857160585D-01 -2.2448499636097D-01
   170  1.6900000000000D+00  2.5578037532102D-01 -2.1728072937160D-01
   171  1.7000000000000D+00  2.2899675963235D-01 -2.0993732552149D-01
   172  1.7100000000000D+00  2.0352481004375D-01 -2.0248566430505D-01
   173  1.7200000000000D+00  1.7937596273366D-01 -1.9495538393331D-01
   174  1.7300000000000D+00  1.5655598185642D-01 -1.8737481029102D-01
   175  1.7400000000000D+00  1.3506529996197D-01 -1.7977095941784D-01
   176  1.7500000000000D+00  1.1489912651625D-01 -1.7216949106978D-01
   177  1.7600000000000D+00  9.6047670071995D-02 -1.6459468860591D-01
   178  1.7700000000000D+00  7.8496351071380D-02 -1.5706943786139D-01
   179  1.7800000000000D+00  6.2226036714443D-02 -1.4961521228141D-01
   180  1.7900000000000D+00  4.7213290395202D-02 -1.4225206305964D-01
   181  1.8000000000000D+00  3.3430636483853D-02 -1.3499861466964D-01
   182  1.8100000000000D+00  2.0846837235882D-02 -1.2787206529946D-01
   183  1.8200000000000D+00  9.4271815322660D-03 -1.2088819251232D-01
   184  1.8300000000000D+00 -8.6621692516668D-04 -1.1406136372589D-01
   185  1.8400000000000D+00 -1.0074113458776D-02 -1.0740455154926D-01
   186  1.8500000000000D+00 -1.8239819953365D-02 -1.0092935379131D-01
   187  1.8600000000000D+00 -2.5408888283869D-02 -9.4646017813281D-02
   188  1.8700000000000D+00 -3.1628791152755D-02 -8.8563469289154D-02
   189  1.8800000000000D+00 -3.6948602301828D-02 -8.2689344733927D-02
   190  1.8900000000000D+00 -4.1418678364139D-02 -7.7030028006451D-02
   191  1.9000000000000D+00 -4.5090343162186D-02 -7.1590690042418D-02
   192  1.9100000000000D+00 -4.8015577879272D-02 -6.6375331918612D-02
   193  1.9200000000000D+00 -5.0246716906345D-02 -6.1386830678859D-02
   194  1.9300000000000D+00 -5.1836152862270D-02 -5.6626987738871D-02
   195  1.9400000000000D+00 -5.2836051143811D-02 -5.2096579536227D-02
   196  1.9500000000000D+00 -5.3298075693454D-02 -4.7795410085071D-02
   197  1.9600000000000D+00 -5.3273128695671D-02 -4.3722365108485D-02
   198  1.9700000000000D+00 -5.2811102393775D-02 -3.9875467556844D-02
   199  1.9800000000000D+00 -5.1960648872539D-02 -3.6251933945277D-02
   200  1.9900000000000D+00 -5.0768963522185D-02 -3.2848231576752D-02
   201  2.0000000000000D+00 -4.9281587852472D-02 -2.9660135983636D-02
   202  2.0100000000000D+00 -4.7542229409083D-02 -2.6682788585544D-02
   203  2.0200000000000D+00 -4.5592599963678D-02 -2.3910754243113D-02
   204  2.0300000000000D+00 -4.3472274945164D-02 -2.1338078200629D-02
   205  2.0400000000000D+00 -4.1218569188816D-02 -1.8958342779336D-02
   206  2.0500000000000D+00 -3.8866436315620D-02 -1.6764722763528D-02
   207  2.0600000000000D+00 -3.6448385120980D-02 -1.4750040106581D-02
   208  2.0700000000000D+00 -3.3994417149307D-02 -1.2906817231526D-02
   209  2.0800000000000D+00 -3.1531984858284D-02 -1.1227328812852D-02
   210  2.0900000000000D+00 -2.9085966574355D-02 -9.7036523817065D-03
   211  2.1000000000000D+00 -2.6678664185187D-02 -8.3277166998946D-03
   212  2.1100000000000D+00 -2.4329816136881D-02 -7.0913488159246D-03
   213  2.1200000000000D+00 -2.2056629967525D-02 -5.9863189531256D-03
   214  2.1300000000000D+00 -1.9873832311250D-02 -5.0043833529851D-03
   215  2.1400000000000D+00 -1.7793732941351D-02 -4.1373254481644D-03
   216  2.1500000000000D+00 -1.5826307149754D-02 -3.3769943943815D-03
   217  2.1600000000000D+00 -1.3979289871296D-02 -2.7153419385658D-03
   218  2.1700000000000D+00 -1.2258283902892D-02 -2.1444569460051D-03
   219  2.1800000000000D+00 -1.0666880615878D-02 -1.6565976494306D-03
   220  2.1900000000000D+00 -9.2067896315880D-03 -1.2442221623345D-03
   221  2.2000000000000D+00 -7.8779796531541D-03 -9.0001639879043D-04
   222  2.2100000000000D+00 -6.6788261819301D-03 -6.1692022580539D-04
   223  2.2200000000000D+00 -5.6062659106798D-03 -3.8815155343138D-04
   224  2.2300000000000D+00 -4.6559565915838D-03 -2.0722825142919D-04
   225  2.2400000000000D+00 -3.8224405130955D-03 -6.7988395913767D-05
   226  2.2500000000000D+00 -3.0993100570590D-03  3.5391512708476D-05
   227  2.2600000000000D+00 -2.4793740714079D-03  1.0838008150533D-04
   228  2.2700000000000D+00 -1.9548246165381D-03  1.5607617405282D-04
   229  2.2800000000000D+00 -1.5173999852557D-03  1.8319578824669D-04
   230  2.2900000000000D+00 -1.1585459639267D-03  1.9406041915126D-04
   231  2.3000000000000D+00 -8.6957235048087D-04  1.9258688724622D-04
   232  2.3100000000000D+00 -6.4180173771208D-04  1.8227849905514D-04
   233  2.3200000000000D+00 -4.6671420196286D-04  1.6621759393275D-04
   234  2.3300000000000D+00 -3.3608147877564D-04  1.4705920284606D-04
   235  2.3400000000000D+00 -2.4224586399743D-04  1.2710688500356D-04
   236  2.3500000000000D+00 -1.7764593721884D-04  1.0799827650127D-04
   237  2.3600000000000D+00 -1.3544723354564D-04  9.0965864522474D-05
   238  2.3700000000000D+00 -1.0893302630503D-04  7.6360582924946D-05
   239  2.3800000000000D+00 -9.5594006561941D-05  6.6325407161232D-05
   240  2.3900000000000D+00 -9.2799026335258D-05  6.1927159750792D-05
   241  2.4000000000000D+00 -9.7052034987501D-05  6.2657510164857D-05
   242  2.4100000000000D+00 -9.6190095272819D-05  6.1091011529694D-05
   243  2.4200000000000D+00 -8.0400952637536D-05  5.0762192107424D-05
   244  2.4300000000000D+00 -4.8406963693904D-05  3.0446072495888D-05
   245  2.4400000000000D+00 -1.4697937014679D-05  9.2298896635819D-06
   246  2.4500000000000D+00  6.0891962776682D-06 -3.8040785286380D-06
   247  2.4600000000000D+00  9.3491552666829D-06 -5.8305073139014D-06
   248  2.4700000000000D+00  3.7101495054001D-06 -2.3106939534445D-06
   249  2.4800000000000D+00 -1.3360596389182D-06  8.3912899792607D-07
   250  2.4900000000000D+00 -2.1029764598729D-06  1.3203038681210D-06
   251  2.5000000000000D+00 -8.5158000633742D-07  5.3447735337363D-07
   252  2.5100000000000D+00  1.5776201717824D-07 -9.9839980846218D-08
   253  2.5200000000000D+00  2.5123741957186D-07 -1.5899606005652D-07
   254  2.5300000000000D+00  1.0589072791891D-07 -6.7013140655216D-08
   255  2.5400000000000D+00  0.0000000000000D+00  0.0000000000000D+00
   256  2.5500000000000D+00  0.0000000000000D+00  0.0000000000000D+00
   257  2.5600000000000D+00  0.0000000000000D+00  0.0000000000000D+00
   258  2.5700000000000D+00  0.0000000000000D+00  0.0000000000000D+00
   259  2.5800000000000D+00  0.0000000000000D+00  0.0000000000000D+00
   260  2.5900000000000D+00  0.0000000000000D+00  0.0000000000000D+00
   261  2.6000000000000D+00  0.0000000000000D+00  0.0000000000000D+00
   262  2.6100000000000D+00  0.0000000000000D+00  0.0000000000000D+00
   263  2.6200000000000D+00  0.0000000000000D+00  0.0000000000000D+00
   264  2.6300000000000D+00  0.0000000000000D+00  0.0000000000000D+00
   265  2.6400000000000D+00  0.0000000000000D+00  0.0000000000000D+00
   266  2.6500000000000D+00  0.0000000000000D+00  0.0000000000000D+00
   267  2.6600000000000D+00  0.0000000000000D+00  0.0000000000000D+00
   268  2.6700000000000D+00  0.0000000000000D+00  0.0000000000000D+00
   269  2.6800000000000D+00  0.0000000000000D+00  0.0000000000000D+00
   270  2.6900000000000D+00  0.0000000000000D+00  0.0000000000000D+00
   271  2.7000000000000D+00  0.0000000000000D+00  0.0000000000000D+00
   272  2.7100000000000D+00  0.0000000000000D+00  0.0000000000000D+00
   273  2.7200000000000D+00  0.0000000000000D+00  0.0000000000000D+00
   274  2.7300000000000D+00  0.0000000000000D+00  0.0000000000000D+00
   275  2.7400000000000D+00  0.0000000000000D+00  0.0000000000000D+00
   276  2.7500000000000D+00  0.0000000000000D+00  0.0000000000000D+00
   277  2.7600000000000D+00  0.0000000000000D+00  0.0000000000000D+00
   278  2.7700000000000D+00  0.0000000000000D+00  0.0000000000000D+00
   279  2.7800000000000D+00  0.0000000000000D+00  0.0000000000000D+00
   280  2.7900000000000D+00  0.0000000000000D+00  0.0000000000000D+00
   281  2.8000000000000D+00  0.0000000000000D+00  0.0000000000000D+00
   282  2.8100000000000D+00  0.0000000000000D+00  0.0000000000000D+00
   283  2.8200000000000D+00  0.0000000000000D+00  0.0000000000000D+00
   284  2.8300000000000D+00  0.0000000000000D+00  0.0000000000000D+00
   285  2.8400000000000D+00  0.0000000000000D+00  0.0000000000000D+00
   286  2.8500000000000D+00  0.0000000000000D+00  0.0000000000000D+00
   287  2.8600000000000D+00  0.0000000000000D+00  0.0000000000000D+00
   288  2.8700000000000D+00  0.0000000000000D+00  0.0000000000000D+00
   289  2.8800000000000D+00  0.0000000000000D+00  0.0000000000000D+00
   290  2.8900000000000D+00  0.0000000000000D+00  0.0000000000000D+00
   291  2.9000000000000D+00  0.0000000000000D+00  0.0000000000000D+00
   292  2.9100000000000D+00  0.0000000000000D+00  0.0000000000000D+00
   293  2.9200000000000D+00  0.0000000000000D+00  0.0000000000000D+00
   294  2.9300000000000D+00  0.0000000000000D+00  0.0000000000000D+00
   295  2.9400000000000D+00  0.0000000000000D+00  0.0000000000000D+00
   296  2.9500000000000D+00  0.0000000000000D+00  0.0000000000000D+00
   297  2.9600000000000D+00  0.0000000000000D+00  0.0000000000000D+00
   298  2.9700000000000D+00  0.0000000000000D+00  0.0000000000000D+00
   299  2.9800000000000D+00  0.0000000000000D+00  0.0000000000000D+00
   300  2.9900000000000D+00  0.0000000000000D+00  0.0000000000000D+00
   301  3.0000000000000D+00  0.0000000000000D+00  0.0000000000000D+00
   302  3.0100000000000D+00  0.0000000000000D+00  0.0000000000000D+00
   303  3.0200000000000D+00  0.0000000000000D+00  0.0000000000000D+00
   304  3.0300000000000D+00  0.0000000000000D+00  0.0000000000000D+00
   305  3.0400000000000D+00  0.0000000000000D+00  0.0000000000000D+00
   306  3.0500000000000D+00  0.0000000000000D+00  0.0000000000000D+00
   307  3.0600000000000D+00  0.0000000000000D+00  0.0000000000000D+00
   308  3.0700000000000D+00  0.0000000000000D+00  0.0000000000000D+00
   309  3.0800000000000D+00  0.0000000000000D+00  0.0000000000000D+00
   310  3.0900000000000D+00  0.0000000000000D+00  0.0000000000000D+00
   311  3.1000000000000D+00  0.0000000000000D+00  0.0000000000000D+00
   312  3.1100000000000D+00  0.0000000000000D+00  0.0000000000000D+00
   313  3.1200000000000D+00  0.0000000000000D+00  0.0000000000000D+00
   314  3.1300000000000D+00  0.0000000000000D+00  0.0000000000000D+00
   315  3.1400000000000D+00  0.0000000000000D+00  0.0000000000000D+00
   316  3.1500000000000D+00  0.0000000000000D+00  0.0000000000000D+00
   317  3.1600000000000D+00  0.0000000000000D+00  0.0000000000000D+00
   318  3.1700000000000D+00  0.0000000000000D+00  0.0000000000000D+00
   319  3.1800000000000D+00  0.0000000000000D+00  0.0000000000000D+00
   320  3.1900000000000D+00  0.0000000000000D+00  0.0000000000000D+00
   321  3.2000000000000D+00  0.0000000000000D+00  0.0000000000000D+00
   322  3.2100000000000D+00  0.0000000000000D+00  0.0000000000000D+00
   323  3.2200000000000D+00  0.0000000000000D+00  0.0000000000000D+00
   324  3.2300000000000D+00  0.0000000000000D+00  0.0000000000000D+00
   325  3.2400000000000D+00  0.0000000000000D+00  0.0000000000000D+00
   326  3.2500000000000D+00  0.0000000000000D+00  0.0000000000000D+00
   327  3.2600000000000D+00  0.0000000000000D+00  0.0000000000000D+00
   328  3.2700000000000D+00  0.0000000000000D+00  0.0000000000000D+00
   329  3.2800000000000D+00  0.0000000000000D+00  0.0000000000000D+00
   330  3.2900000000000D+00  0.0000000000000D+00  0.0000000000000D+00
   331  3.3000000000000D+00  0.0000000000000D+00  0.0000000000000D+00
   332  3.3100000000000D+00  0.0000000000000D+00  0.0000000000000D+00
   333  3.3200000000000D+00  0.0000000000000D+00  0.0000000000000D+00
   334  3.3300000000000D+00  0.0000000000000D+00  0.0000000000000D+00
   335  3.3400000000000D+00  0.0000000000000D+00  0.0000000000000D+00
   336  3.3500000000000D+00  0.0000000000000D+00  0.0000000000000D+00
   337  3.3600000000000D+00  0.0000000000000D+00  0.0000000000000D+00
   338  3.3700000000000D+00  0.0000000000000D+00  0.0000000000000D+00
   339  3.3800000000000D+00  0.0000000000000D+00  0.0000000000000D+00
   340  3.3900000000000D+00  0.0000000000000D+00  0.0000000000000D+00
   341  3.4000000000000D+00  0.0000000000000D+00  0.0000000000000D+00
   342  3.4100000000000D+00  0.0000000000000D+00  0.0000000000000D+00
   343  3.4200000000000D+00  0.0000000000000D+00  0.0000000000000D+00
   344  3.4300000000000D+00  0.0000000000000D+00  0.0000000000000D+00
   345  3.4400000000000D+00  0.0000000000000D+00  0.0000000000000D+00
   346  3.4500000000000D+00  0.0000000000000D+00  0.0000000000000D+00
   347  3.4600000000000D+00  0.0000000000000D+00  0.0000000000000D+00
   348  3.4700000000000D+00  0.0000000000000D+00  0.0000000000000D+00
   349  3.4800000000000D+00  0.0000000000000D+00  0.0000000000000D+00
   350  3.4900000000000D+00  0.0000000000000D+00  0.0000000000000D+00
   351  3.5000000000000D+00  0.0000000000000D+00  0.0000000000000D+00
   352  3.5100000000000D+00  0.0000000000000D+00  0.0000000000000D+00
   353  3.5200000000000D+00  0.0000000000000D+00  0.0000000000000D+00
   354  3.5300000000000D+00  0.0000000000000D+00  0.0000000000000D+00
   355  3.5400000000000D+00  0.0000000000000D+00  0.0000000000000D+00
   356  3.5500000000000D+00  0.0000000000000D+00  0.0000000000000D+00
   357  3.5600000000000D+00  0.0000000000000D+00  0.0000000000000D+00
   358  3.5700000000000D+00  0.0000000000000D+00  0.0000000000000D+00
   359  3.5800000000000D+00  0.0000000000000D+00  0.0000000000000D+00
   360  3.5900000000000D+00  0.0000000000000D+00  0.0000000000000D+00
   361  3.6000000000000D+00  0.0000000000000D+00  0.0000000000000D+00
   362  3.6100000000000D+00  0.0000000000000D+00  0.0000000000000D+00
   363  3.6200000000000D+00  0.0000000000000D+00  0.0000000000000D+00
   364  3.6300000000000D+00  0.0000000000000D+00  0.0000000000000D+00
   365  3.6400000000000D+00  0.0000000000000D+00  0.0000000000000D+00
   366  3.6500000000000D+00  0.0000000000000D+00  0.0000000000000D+00
   367  3.6600000000000D+00  0.0000000000000D+00  0.0000000000000D+00
   368  3.6700000000000D+00  0.0000000000000D+00  0.0000000000000D+00
   369  3.6800000000000D+00  0.0000000000000D+00  0.0000000000000D+00
   370  3.6900000000000D+00  0.0000000000000D+00  0.0000000000000D+00
   371  3.7000000000000D+00  0.0000000000000D+00  0.0000000000000D+00
   372  3.7100000000000D+00  0.0000000000000D+00  0.0000000000000D+00
   373  3.7200000000000D+00  0.0000000000000D+00  0.0000000000000D+00
   374  3.7300000000000D+00  0.0000000000000D+00  0.0000000000000D+00
   375  3.7400000000000D+00  0.0000000000000D+00  0.0000000000000D+00
   376  3.7500000000000D+00  0.0000000000000D+00  0.0000000000000D+00
   377  3.7600000000000D+00  0.0000000000000D+00  0.0000000000000D+00
   378  3.7700000000000D+00  0.0000000000000D+00  0.0000000000000D+00
   379  3.7800000000000D+00  0.0000000000000D+00  0.0000000000000D+00
   380  3.7900000000000D+00  0.0000000000000D+00  0.0000000000000D+00
   381  3.8000000000000D+00  0.0000000000000D+00  0.0000000000000D+00
   382  3.8100000000000D+00  0.0000000000000D+00  0.0000000000000D+00
   383  3.8200000000000D+00  0.0000000000000D+00  0.0000000000000D+00
   384  3.8300000000000D+00  0.0000000000000D+00  0.0000000000000D+00
   385  3.8400000000000D+00  0.0000000000000D+00  0.0000000000000D+00
   386  3.8500000000000D+00  0.0000000000000D+00  0.0000000000000D+00
   387  3.8600000000000D+00  0.0000000000000D+00  0.0000000000000D+00
   388  3.8700000000000D+00  0.0000000000000D+00  0.0000000000000D+00
   389  3.8800000000000D+00  0.0000000000000D+00  0.0000000000000D+00
   390  3.8900000000000D+00  0.0000000000000D+00  0.0000000000000D+00
   391  3.9000000000000D+00  0.0000000000000D+00  0.0000000000000D+00
   392  3.9100000000000D+00  0.0000000000000D+00  0.0000000000000D+00
   393  3.9200000000000D+00  0.0000000000000D+00  0.0000000000000D+00
   394  3.9300000000000D+00  0.0000000000000D+00  0.0000000000000D+00
   395  3.9400000000000D+00  0.0000000000000D+00  0.0000000000000D+00
   396  3.9500000000000D+00  0.0000000000000D+00  0.0000000000000D+00
   397  3.9600000000000D+00  0.0000000000000D+00  0.0000000000000D+00
   398  3.9700000000000D+00  0.0000000000000D+00  0.0000000000000D+00
   399  3.9800000000000D+00  0.0000000000000D+00  0.0000000000000D+00
   400  3.9900000000000D+00  0.0000000000000D+00  0.0000000000000D+00
   401  4.0000000000000D+00  0.0000000000000D+00  0.0000000000000D+00
   402  4.0100000000000D+00  0.0000000000000D+00  0.0000000000000D+00
   403  4.0200000000000D+00  0.0000000000000D+00  0.0000000000000D+00
   404  4.0300000000000D+00  0.0000000000000D+00  0.0000000000000D+00
   405  4.0400000000000D+00  0.0000000000000D+00  0.0000000000000D+00
   406  4.0500000000000D+00  0.0000000000000D+00  0.0000000000000D+00
   407  4.0600000000000D+00  0.0000000000000D+00  0.0000000000000D+00
   408  4.0700000000000D+00  0.0000000000000D+00  0.0000000000000D+00
   409  4.0800000000000D+00  0.0000000000000D+00  0.0000000000000D+00
   410  4.0900000000000D+00  0.0000000000000D+00  0.0000000000000D+00
   411  4.1000000000000D+00  0.0000000000000D+00  0.0000000000000D+00
   412  4.1100000000000D+00  0.0000000000000D+00  0.0000000000000D+00
   413  4.1200000000000D+00  0.0000000000000D+00  0.0000000000000D+00
   414  4.1300000000000D+00  0.0000000000000D+00  0.0000000000000D+00
   415  4.1400000000000D+00  0.0000000000000D+00  0.0000000000000D+00
   416  4.1500000000000D+00  0.0000000000000D+00  0.0000000000000D+00
   417  4.1600000000000D+00  0.0000000000000D+00  0.0000000000000D+00
   418  4.1700000000000D+00  0.0000000000000D+00  0.0000000000000D+00
   419  4.1800000000000D+00  0.0000000000000D+00  0.0000000000000D+00
   420  4.1900000000000D+00  0.0000000000000D+00  0.0000000000000D+00
   421  4.2000000000000D+00  0.0000000000000D+00  0.0000000000000D+00
   422  4.2100000000000D+00  0.0000000000000D+00  0.0000000000000D+00