In    ONCVPSP-3.3.1  r_core=   3.39782   3.43859   2.67664
     49.0000     13.0000      210904    zatom,zion,pspd
     8      11   2     4   600     0    pspcod,pspxc,lmax,lloc,mmax,r2well
  5.99000000  0.00000000  0.00000000    rchrg fchrg qchrg
     2     4     2     0    nproj
     3     1           extension_switch
     4     3     0    nprojso
   0                         4.5443923688626D-01  4.8317068364221D+00
     1  0.0000000000000D+00  1.5203394099217D-12 -1.0771938896426D-13
     2  1.0000000000000D-02 -3.2502059428348D-03  1.4835820620688D-02
     3  2.0000000000000D-02 -6.5057133803805D-03  2.9675840914359D-02
     4  3.0000000000000D-02 -9.7718070439817D-03  4.4524240967141D-02
     5  4.0000000000000D-02 -1.3053738119354D-02  5.9385161721142D-02
     6  5.0000000000000D-02 -1.6356707426917D-02  7.4262685476695D-02
     7  6.0000000000000D-02 -1.9685848546978D-02  8.9160816483788D-02
     8  7.0000000000000D-02 -2.3046210873136D-02  1.0408346165251D-01
     9  8.0000000000000D-02 -2.6442742578834D-02  1.1903441141249D-01
    10  9.0000000000000D-02 -2.9880273483784D-02  1.3401732075138D-01
    11  1.0000000000000D-01 -3.3363497809257D-02  1.4903569046260D-01
    12  1.1000000000000D-01 -3.6896956813741D-02  1.6409284863272D-01
    13  1.2000000000000D-01 -4.0485021303329D-02  1.7919193239905D-01
    14  1.3000000000000D-01 -4.4131874014364D-02  1.9433587000812D-01
    15  1.4000000000000D-01 -4.7841491869289D-02  2.0952736320600D-01
    16  1.5000000000000D-01 -5.1617628110336D-02  2.2476886999159D-01
    17  1.6000000000000D-01 -5.5463794319577D-02  2.4006258776409D-01
    18  1.7000000000000D-01 -5.9383242338020D-02  2.5541043689622D-01
    19  1.8000000000000D-01 -6.3378946100666D-02  2.7081404476478D-01
    20  1.9000000000000D-01 -6.7453583408922D-02  2.8627473027033D-01
    21  2.0000000000000D-01 -7.1609517666279D-02  3.0179348887792D-01
    22  2.1000000000000D-01 -7.5848779607816D-02  3.1737097821085D-01
    23  2.2000000000000D-01 -8.0173049058781D-02  3.3300750422949D-01
    24  2.3000000000000D-01 -8.4583636762168D-02  3.4870300802733D-01
    25  2.4000000000000D-01 -8.9081466319971D-02  3.6445705327616D-01
    26  2.5000000000000D-01 -9.3667056297313D-02  3.8026881435236D-01
    27  2.6000000000000D-01 -9.8340502543356D-02  3.9613706517621D-01
    28  2.7000000000000D-01 -1.0310146078719D-01  4.1206016879558D-01
    29  2.8000000000000D-01 -1.0794912957129D-01  4.2803606774547D-01
    30  2.9000000000000D-01 -1.1288223358916D-01  4.4406227521420D-01
    31  3.0000000000000D-01 -1.1789900749773D-01  4.6013586704679D-01
    32  3.1000000000000D-01 -1.2299718027860D-01  4.7625347461538D-01
    33  3.2000000000000D-01 -1.2817396022575D-01  4.9241127858601D-01
    34  3.3000000000000D-01 -1.3342602064001D-01  5.0860500361029D-01
    35  3.4000000000000D-01 -1.3874948631381D-01  5.2482991396969D-01
    36  3.5000000000000D-01 -1.4413992089152D-01  5.4108081019914D-01
    37  3.6000000000000D-01 -1.4959231519282D-01  5.5735202671573D-01
    38  3.7000000000000D-01 -1.5510107658819D-01  5.7363743047696D-01
    39  3.8000000000000D-01 -1.6066001951630D-01  5.8993042069174D-01
    40  3.9000000000000D-01 -1.6626235723400D-01  6.0622392960606D-01
    41  4.0000000000000D-01 -1.7190069488943D-01  6.2251042438354D-01
    42  4.1000000000000D-01 -1.7756702400854D-01  6.3878191009941D-01
    43  4.2000000000000D-01 -1.8325271848427D-01  6.5502993386496D-01
    44  4.3000000000000D-01 -1.8894853215631D-01  6.7124559009722D-01
    45  4.4000000000000D-01 -1.9464459806700D-01  6.8741952694679D-01
    46  4.5000000000000D-01 -2.0033042947708D-01  7.0354195389477D-01
    47  4.6000000000000D-01 -2.0599492272099D-01  7.1960265052699D-01
    48  4.7000000000000D-01 -2.1162636197868D-01  7.3559097649201D-01
    49  4.8000000000000D-01 -2.1721242603602D-01  7.5149588264616D-01
    50  4.9000000000000D-01 -2.2274019710151D-01  7.6730592338687D-01
    51  5.0000000000000D-01 -2.2819617174166D-01  7.8300927017255D-01
    52  5.1000000000000D-01 -2.3356627399152D-01  7.9859372622444D-01
    53  5.2000000000000D-01 -2.3883587069069D-01  8.1404674240305D-01
    54  5.3000000000000D-01 -2.4398978908820D-01  8.2935543424891D-01
    55  5.4000000000000D-01 -2.4901233675241D-01  8.4450660017391D-01
    56  5.5000000000000D-01 -2.5388732381438D-01  8.5948674078691D-01
    57  5.6000000000000D-01 -2.5859808756498D-01  8.7428207933359D-01
    58  5.7000000000000D-01 -2.6312751941745D-01  8.8887858322754D-01
    59  5.8000000000000D-01 -2.6745809423813D-01  9.0326198664626D-01
    60  5.9000000000000D-01 -2.7157190203881D-01  9.1741781416222D-01
    61  6.0000000000000D-01 -2.7545068201478D-01  9.3133140537608D-01
    62  6.1000000000000D-01 -2.7907585890226D-01  9.4498794051541D-01
    63  6.2000000000000D-01 -2.8242858161957D-01  9.5837246695927D-01
    64  6.3000000000000D-01 -2.8548976414534D-01  9.7146992664522D-01
    65  6.4000000000000D-01 -2.8824012857722D-01  9.8426518431245D-01
    66  6.5000000000000D-01 -2.9066025030371D-01  9.9674305653101D-01
    67  6.6000000000000D-01 -2.9273060521120D-01  1.0088883414640D+00
    68  6.7000000000000D-01 -2.9443161883779D-01  1.0206858493063D+00
    69  6.8000000000000D-01 -2.9574371737482D-01  1.0321204333409D+00
    70  6.9000000000000D-01 -2.9664738040645D-01  1.0431770215494D+00
    71  7.0000000000000D-01 -2.9712319526760D-01  1.0538406487120D+00
    72  7.1000000000000D-01 -2.9715191289000D-01  1.0640964889285D+00
    73  7.2000000000000D-01 -2.9671450499649D-01  1.0739298884884D+00
    74  7.3000000000000D-01 -2.9579222249380D-01  1.0833263990186D+00
    75  7.4000000000000D-01 -2.9436665490497D-01  1.0922718108301D+00
    76  7.5000000000000D-01 -2.9241979067339D-01  1.1007521863875D+00
    77  7.6000000000000D-01 -2.8993407816210D-01  1.1087538938197D+00
    78  7.7000000000000D-01 -2.8689248716391D-01  1.1162636403901D+00
    79  7.8000000000000D-01 -2.8327857073036D-01  1.1232685058425D+00
    80  7.9000000000000D-01 -2.7907652712060D-01  1.1297559755363D+00
    81  8.0000000000000D-01 -2.7427126166503D-01  1.1357139732856D+00
    82  8.1000000000000D-01 -2.6884844833276D-01  1.1411308938135D+00
    83  8.2000000000000D-01 -2.6279459078704D-01  1.1459956347332D+00
    84  8.3000000000000D-01 -2.5609708270847D-01  1.1502976279671D+00
    85  8.4000000000000D-01 -2.4874426716254D-01  1.1540268705140D+00
    86  8.5000000000000D-01 -2.4072549478507D-01  1.1571739544758D+00
    87  8.6000000000000D-01 -2.3203118055752D-01  1.1597300962531D+00
    88  8.7000000000000D-01 -2.2265285894295D-01  1.1616871648225D+00
    89  8.8000000000000D-01 -2.1258323715364D-01  1.1630377090062D+00
    90  8.9000000000000D-01 -2.0181624632158D-01  1.1637749836487D+00
    91  9.0000000000000D-01 -1.9034709034545D-01  1.1638929746134D+00
    92  9.1000000000000D-01 -1.7817229218989D-01  1.1633864225164D+00
    93  9.2000000000000D-01 -1.6528973741652D-01  1.1622508451151D+00
    94  9.3000000000000D-01 -1.5169871473089D-01  1.1604825582721D+00
    95  9.4000000000000D-01 -1.3739995333503D-01  1.1580786954168D+00
    96  9.5000000000000D-01 -1.2239565688144D-01  1.1550372254313D+00
    97  9.6000000000000D-01 -1.0668953383217D-01  1.1513569688871D+00
    98  9.7000000000000D-01 -9.0286824034686D-02  1.1470376125682D+00
    99  9.8000000000000D-01 -7.3194321335930D-02  1.1420797222120D+00
   100  9.9000000000000D-01 -5.5420392065511D-02  1.1364847534114D+00
   101  1.0000000000000D+00 -3.6974989230794D-02  1.1302550606191D+00
   102  1.0100000000000D+00 -1.7869662278195D-02  1.1233939042036D+00
   103  1.0200000000000D+00  1.8824377120097D-03  1.1159054555094D+00
   104  1.0300000000000D+00  2.2266557516441D-02  1.1077947998784D+00
   105  1.0400000000000D+00  4.3266346049524D-02  1.0990679375970D+00
   106  1.0500000000000D+00  6.4863863523887D-02  1.0897317827340D+00
   107  1.0600000000000D+00  8.7039595564360D-02  1.0797941598467D+00
   108  1.0700000000000D+00  1.0977247233190D-01  1.0692637985302D+00
   109  1.0800000000000D+00  1.3303989269779D-01  1.0581503257991D+00
   110  1.0900000000000D+00  1.5681775348987D-01  1.0464642562898D+00
   111  1.1000000000000D+00  1.8108048381474D-01  1.0342169802818D+00
   112  1.1100000000000D+00  2.0580108444207D-01  1.0214207495414D+00
   113  1.1200000000000D+00  2.3095117221600D-01  1.0080886609980D+00
   114  1.1300000000000D+00  2.5650102944104D-01  9.9423463826851D-01
   115  1.1400000000000D+00  2.8241965816843D-01  9.7987341105362D-01
   116  1.1500000000000D+00  3.0867483929289D-01  9.6502049243454D-01
   117  1.1600000000000D+00  3.3523319634439D-01  9.4969215410647D-01
   118  1.1700000000000D+00  3.6206026384262D-01  9.3390539959168D-01
   119  1.1800000000000D+00  3.8912056006112D-01  9.1767793548101D-01
   120  1.1900000000000D+00  4.1637766403023D-01  9.0102814075892D-01
   121  1.2000000000000D+00  4.4379429658362D-01  8.8397503427490D-01
   122  1.2100000000000D+00  4.7133240523442D-01  8.6653824043032D-01
   123  1.2200000000000D+00  4.9895325265468D-01  8.4873795315372D-01
   124  1.2300000000000D+00  5.2661750850289D-01  8.3059489824690D-01
   125  1.2400000000000D+00  5.5428534432928D-01  8.1213029418932D-01
   126  1.2500000000000D+00  5.8191653127491D-01  7.9336581149242D-01
   127  1.2600000000000D+00  6.0947054025888D-01  7.7432353070288D-01
   128  1.2700000000000D+00  6.3690664432751D-01  7.5502589916030D-01
   129  1.2800000000000D+00  6.6418402283183D-01  7.3549568661731D-01
   130  1.2900000000000D+00  6.9126186708012D-01  7.1575593983667D-01
   131  1.3000000000000D+00  7.1809948709133D-01  6.9582993628652D-01
   132  1.3100000000000D+00  7.4465641907388D-01  6.7574113705581D-01
   133  1.3200000000000D+00  7.7089253323372D-01  6.5551313911841D-01
   134  1.3300000000000D+00  7.9676814149926D-01  6.3516962708002D-01
   135  1.3400000000000D+00  8.2224410475495D-01  6.1473432454083D-01
   136  1.3500000000000D+00  8.4728193915043D-01  5.9423094521492D-01
   137  1.3600000000000D+00  8.7184392104812D-01  5.7368314394926D-01
   138  1.3700000000000D+00  8.9589319017468D-01  5.5311446778419D-01
   139  1.3800000000000D+00  9.1939385051742D-01  5.3254830720576D-01
   140  1.3900000000000D+00  9.4231106851859D-01  5.1200784773677D-01
   141  1.4000000000000D+00  9.6461116810753D-01  4.9151602201736D-01
   142  1.4100000000000D+00  9.8626172211106D-01  4.7109546252741D-01
   143  1.4200000000000D+00  1.0072316395824D+00  4.5076845510179D-01
   144  1.4300000000000D+00  1.0274912485862D+00  4.3055689339244D-01
   145  1.4400000000000D+00  1.0470123739872D+00  4.1048223442791D-01
   146  1.4500000000000D+00  1.0657684097747D+00  3.9056545542510D-01
   147  1.4600000000000D+00  1.0837343854927D+00  3.7082701199995D-01
   148  1.4700000000000D+00  1.1008870263052D+00  3.5128679793226D-01
   149  1.4800000000000D+00  1.1172048062828D+00  3.3196410662724D-01
   150  1.4900000000000D+00  1.1326679944686D+00  3.1287759442274D-01
   151  1.5000000000000D+00  1.1472586933006D+00  2.9404524588627D-01
   152  1.5100000000000D+00  1.1609608690085D+00  2.7548434123553D-01
   153  1.5200000000000D+00  1.1737603735395D+00  2.5721142603275D-01
   154  1.5300000000000D+00  1.1856449577083D+00  2.3924228326536D-01
   155  1.5400000000000D+00  1.1966042751092D+00  2.2159190796822D-01
   156  1.5500000000000D+00  1.2066298765420D+00  2.0427448448414D-01
   157  1.5600000000000D+00  1.2157151945292D+00  1.8730336650740D-01
   158  1.5700000000000D+00  1.2238555176803D+00  1.7069106000547D-01
   159  1.5800000000000D+00  1.2310479545657D+00  1.5444920913981D-01
   160  1.5900000000000D+00  1.2372913868413D+00  1.3858858528552D-01
   161  1.6000000000000D+00  1.2425864113907D+00  1.2311907924064D-01
   162  1.6100000000000D+00  1.2469352712022D+00  1.0804969673209D-01
   163  1.6200000000000D+00  1.2503417748666D+00  9.3388557274702D-02
   164  1.6300000000000D+00  1.2528112043829D+00  7.9142896498967D-02
   165  1.6400000000000D+00  1.2543502112878D+00  6.5319071966841D-02
   166  1.6500000000000D+00  1.2549667007649D+00  5.1922572599755D-02
   167  1.6600000000000D+00  1.2546697038810D+00  3.8958031700306D-02
   168  1.6700000000000D+00  1.2534692375818D+00  2.6429243698660D-02
   169  1.6800000000000D+00  1.2513761527187D+00  1.4339184568098D-02
   170  1.6900000000000D+00  1.2484019658522D+00  2.6900360613001D-03
   171  1.7000000000000D+00  1.2445587015242D+00 -8.5167864348120D-03
   172  1.7100000000000D+00  1.2398586424282D+00 -1.9280601331546D-02
   173  1.7200000000000D+00  1.2343142854209D+00 -2.9601428461489D-02
   174  1.7300000000000D+00  1.2279379951883D+00 -3.9479944390636D-02
   175  1.7400000000000D+00  1.2207414754526D+00 -4.8917443133049D-02
   176  1.7500000000000D+00  1.2127362696199D+00 -5.7915790075190D-02
   177  1.7600000000000D+00  1.2039341593095D+00 -6.6477368268981D-02
   178  1.7700000000000D+00  1.1943476069094D+00 -7.4605059364465D-02
   179  1.7800000000000D+00  1.1839905395814D+00 -8.2302228181891D-02
   180  1.7900000000000D+00  1.1728783629390D+00 -8.9572708391340D-02
   181  1.8000000000000D+00  1.1610276962985D+00 -9.6420795577938D-02
   182  1.8100000000000D+00  1.1484563594049D+00 -1.0285123571433D-01
   183  1.8200000000000D+00  1.1351833757042D+00 -1.0886921068562D-01
   184  1.8300000000000D+00  1.1212288941693D+00 -1.1448032556983D-01
   185  1.8400000000000D+00  1.1066141511102D+00 -1.1969059435526D-01
   186  1.8500000000000D+00  1.0913614137606D+00 -1.2450642521380D-01
   187  1.8600000000000D+00  1.0754939251164D+00 -1.2893460510335D-01
   188  1.8700000000000D+00  1.0590358469748D+00 -1.3298228381043D-01
   189  1.8800000000000D+00  1.0420122012410D+00 -1.3665695743843D-01
   190  1.8900000000000D+00  1.0244488097682D+00 -1.3996645141846D-01
   191  1.9000000000000D+00  1.0063722328338D+00 -1.4291890305517D-01
   192  1.9100000000000D+00  9.8780970647150D-01 -1.4552274367358D-01
   193  1.9200000000000D+00  9.6878907882180D-01 -1.4778668039895D-01
   194  1.9300000000000D+00  9.4933874567850D-01 -1.4971967761875D-01
   195  1.9400000000000D+00  9.2948758541377D-01 -1.5133093817486D-01
   196  1.9500000000000D+00  9.0926489347274D-01 -1.5262988432750D-01
   197  1.9600000000000D+00  8.8870031656949D-01 -1.5362613853977D-01
   198  1.9700000000000D+00  8.6782378684349D-01 -1.5432950413195D-01
   199  1.9800000000000D+00  8.4666545603857D-01 -1.5474994584259D-01
   200  1.9900000000000D+00  8.2525562998743D-01 -1.5489757035559D-01
   201  2.0000000000000D+00  8.0362470348735D-01 -1.5478260682693D-01
   202  2.0100000000000D+00  7.8180309574514D-01 -1.5441538745882D-01
   203  2.0200000000000D+00  7.5982118662873D-01 -1.5380632817919D-01
   204  2.0300000000000D+00  7.3770925369096D-01 -1.5296590943426D-01
   205  2.0400000000000D+00  7.1549741038656D-01 -1.5190465719063D-01
   206  2.0500000000000D+00  6.9321554534530D-01 -1.5063312413021D-01
   207  2.0600000000000D+00  6.7089326303305D-01 -1.4916187111968D-01
   208  2.0700000000000D+00  6.4855982589110D-01 -1.4750144898426D-01
   209  2.0800000000000D+00  6.2624409793326D-01 -1.4566238058920D-01
   210  2.0900000000000D+00  6.0397449022671D-01 -1.4365514333745D-01
   211  2.1000000000000D+00  5.8177890799362D-01 -1.4149015202732D-01
   212  2.1100000000000D+00  5.5968469974946D-01 -1.3917774217876D-01
   213  2.1200000000000D+00  5.3771860844742D-01 -1.3672815382724D-01
   214  2.1300000000000D+00  5.1590672459813D-01 -1.3415151578250D-01
   215  2.1400000000000D+00  4.9427444179530D-01 -1.3145783046945D-01
   216  2.1500000000000D+00  4.7284641428544D-01 -1.2865695926148D-01
   217  2.1600000000000D+00  4.5164651700289D-01 -1.2575860842241D-01
   218  2.1700000000000D+00  4.3069780802859D-01 -1.2277231565098D-01
   219  2.1800000000000D+00  4.1002249330650D-01 -1.1970743718761D-01
   220  2.1900000000000D+00  3.8964189414766D-01 -1.1657313563173D-01
   221  2.2000000000000D+00  3.6957641704591D-01 -1.1337836834471D-01
   222  2.2100000000000D+00  3.4984552614545D-01 -1.1013187653539D-01
   223  2.2200000000000D+00  3.3046771843117D-01 -1.0684217505245D-01
   224  2.2300000000000D+00  3.1146050129716D-01 -1.0351754279315D-01
   225  2.2400000000000D+00  2.9284037302232D-01 -1.0016601387849D-01
   226  2.2500000000000D+00  2.7462280578006D-01 -9.6795369496475D-02
   227  2.2600000000000D+00  2.5682223119660D-01 -9.3413130421775D-02
   228  2.2700000000000D+00  2.3945202881881D-01 -9.0026550315592D-02
   229  2.2800000000000D+00  2.2252451696923D-01 -8.6642609666385D-02
   230  2.2900000000000D+00  2.0605094632230D-01 -8.3268010467674D-02
   231  2.3000000000000D+00  1.9004149618320D-01 -7.9909171632068D-02
   232  2.3100000000000D+00  1.7450527308282D-01 -7.6572225040045D-02
   233  2.3200000000000D+00  1.5945031215298D-01 -7.3263012354933D-02
   234  2.3300000000000D+00  1.4488358093965D-01 -6.9987082514696D-02
   235  2.3400000000000D+00  1.3081098545670D-01 -6.6749689851141D-02
   236  2.3500000000000D+00  1.1723737897184D-01 -6.3555792974704D-02
   237  2.3600000000000D+00  1.0416657291062D-01 -6.0410054261892D-02
   238  2.3700000000000D+00  9.1601350004923D-02 -5.7316839984068D-02
   239  2.3800000000000D+00  7.9543479873425D-02 -5.4280221133075D-02
   240  2.3900000000000D+00  6.7993736525143D-02 -5.1303974809130D-02
   241  2.4000000000000D+00  5.6951917985990D-02 -4.8391586229928D-02
   242  2.4100000000000D+00  4.6416868034086D-02 -4.5546251361516D-02
   243  2.4200000000000D+00  3.6386499640860D-02 -4.2770880064645D-02
   244  2.4300000000000D+00  2.6857820343497D-02 -4.0068099823507D-02
   245  2.4400000000000D+00  1.7826959384702D-02 -3.7440260016273D-02
   246  2.4500000000000D+00  9.2891963207685D-03 -3.4889436648179D-02
   247  2.4600000000000D+00  1.2389913018244D-03 -3.2417437610344D-02
   248  2.4700000000000D+00 -6.3299832250210D-03 -3.0025808399042D-02
   249  2.4800000000000D+00 -1.3424809600101D-02 -2.7715838238912D-02
   250  2.4900000000000D+00 -2.0053290684139D-02 -2.5488566659154D-02
   251  2.5000000000000D+00 -2.6223914507392D-02 -2.3344790449444D-02
   252  2.5100000000000D+00 -3.1945817975462D-02 -2.1285070956716D-02
   253  2.5200000000000D+00 -3.7228749595350D-02 -1.9309741748663D-02
   254  2.5300000000000D+00 -4.2083031445990D-02 -1.7418916578133D-02
   255  2.5400000000000D+00 -4.6519520484511D-02 -1.5612497621806D-02
   256  2.5500000000000D+00 -5.0549569276005D-02 -1.3890183990140D-02
   257  2.5600000000000D+00 -5.4184986287406D-02 -1.2251480460984D-02
   258  2.5700000000000D+00 -5.7437995796995D-02 -1.0695706419395D-02
   259  2.5800000000000D+00 -6.0321197645264D-02 -9.2220049682546D-03
   260  2.5900000000000D+00 -6.2847526863981D-02 -7.8293521861623D-03
   261  2.6000000000000D+00 -6.5030213199246D-02 -6.5165665228634D-03
   262  2.6100000000000D+00 -6.6882740874519D-02 -5.2823182672933D-03
   263  2.6200000000000D+00 -6.8418808554997D-02 -4.1251390843172D-03
   264  2.6300000000000D+00 -6.9652289474445D-02 -3.0434316215731D-03
   265  2.6400000000000D+00 -7.0597192151833D-02 -2.0354791001006D-03
   266  2.6500000000000D+00 -7.1267621656584D-02 -1.0994548893914D-03
   267  2.6600000000000D+00 -7.1677741294470D-02 -2.3343208668930D-04
   268  2.6700000000000D+00 -7.1841735139687D-02  5.6460698931176D-04
   269  2.6800000000000D+00 -7.1773771509340D-02  1.2967614154297D-03
   270  2.6900000000000D+00 -7.1487967104717D-02  1.9652023405203D-03
   271  2.7000000000000D+00 -7.0998352121913D-02  2.5721637880226D-03
   272  2.7100000000000D+00 -7.0318836765040D-02  3.1199336798424D-03
   273  2.7200000000000D+00 -6.9463178660541D-02  3.6108449815811D-03
   274  2.7300000000000D+00 -6.8444951196124D-02  4.0472669767013D-03
   275  2.7400000000000D+00 -6.7277513819129D-02  4.4315968954518D-03
   276  2.7500000000000D+00 -6.5973983350060D-02  4.7662517012714D-03
   277  2.7600000000000D+00 -6.4547206265749D-02  5.0536600265408D-03
   278  2.7700000000000D+00 -6.3009733235226D-02  5.2962545417093D-03
   279  2.7800000000000D+00 -6.1373794859250D-02  5.4964645333852D-03
   280  2.7900000000000D+00 -5.9651278612427D-02  5.6567086936192D-03
   281  2.8000000000000D+00 -5.7853707780062D-02  5.7793882994971D-03
   282  2.8100000000000D+00 -5.5992222153073D-02  5.8668807346905D-03
   283  2.8200000000000D+00 -5.4077560055306D-02  5.9215332622024D-03
   284  2.8300000000000D+00 -5.2120041859126D-02  5.9456570861343D-03
   285  2.8400000000000D+00 -5.0129555958381D-02  5.9415219237787D-03
   286  2.8500000000000D+00 -4.8115546052001D-02  5.9113508350155D-03
   287  2.8600000000000D+00 -4.6086999541875D-02  5.8573152662750D-03
   288  2.8700000000000D+00 -4.4052438746040D-02  5.7815306994274D-03
   289  2.8800000000000D+00 -4.2019913353939D-02  5.6860525523269D-03
   290  2.8900000000000D+00 -3.9996994294484D-02  5.5728723722436D-03
   291  2.9000000000000D+00 -3.7990769539378D-02  5.4439144462185D-03
   292  2.9100000000000D+00 -3.6007841930334D-02  5.3010328525788D-03
   293  2.9200000000000D+00 -3.4054328413716D-02  5.1460088160124D-03
   294  2.9300000000000D+00 -3.2135860209452D-02  4.9805482580030D-03
   295  2.9400000000000D+00 -3.0257585870907D-02  4.8062800035204D-03
   296  2.9500000000000D+00 -2.8424175182141D-02  4.6247541688973D-03
   297  2.9600000000000D+00 -2.6639824355398D-02  4.4374408408202D-03
   298  2.9700000000000D+00 -2.4908263016711D-02  4.2457291671063D-03
   299  2.9800000000000D+00 -2.3232762797783D-02  4.0509268200894D-03
   300  2.9900000000000D+00 -2.1616147121588D-02  3.8542597395241D-03
   301  3.0000000000000D+00 -2.0060801661714D-02  3.6568720304069D-03
   302  3.0100000000000D+00 -1.8568687165775D-02  3.4598264323453D-03
   303  3.0200000000000D+00 -1.7141352805052D-02  3.2641049177520D-03
   304  3.0300000000000D+00 -1.5779950580445D-02  3.0706095499062D-03
   305  3.0400000000000D+00 -1.4485250820149D-02  2.8801636164844D-03
   306  3.0500000000000D+00 -1.3257658932324D-02  2.6935130850883D-03
   307  3.0600000000000D+00 -1.2097232808387D-02  2.5113282340101D-03
   308  3.0700000000000D+00 -1.1003700801227D-02  2.3342054357473D-03
   309  3.0800000000000D+00 -9.9764808384102D-03  2.1626692570798D-03
   310  3.0900000000000D+00 -9.0146999957239D-03  1.9971746962087D-03
   311  3.1000000000000D+00 -8.1172146121827D-03  1.8381095863478D-03
   312  3.1100000000000D+00 -7.2826308056405D-03  1.6857971233290D-03
   313  3.1200000000000D+00 -6.5093255374322D-03  1.5404985946373D-03
   314  3.1300000000000D+00 -5.7954678436367D-03  1.4024161817825D-03
   315  3.1400000000000D+00 -5.1390403711631D-03  1.2716958806316D-03
   316  3.1500000000000D+00 -4.5378610104832D-03  1.1484305038929D-03
   317  3.1600000000000D+00 -3.9896044706600D-03  1.0326627424465D-03
   318  3.1700000000000D+00 -3.4918238536822D-03  9.2438827791303D-04
   319  3.1800000000000D+00 -3.0419723233392D-03  8.2355896571390D-04
   320  3.1900000000000D+00 -2.6374242628325D-03  7.3008598825241D-04
   321  3.2000000000000D+00 -2.2754962084788D-03  6.4384301955517D-04
   322  3.2100000000000D+00 -1.9534672625594D-03  5.6466934326913D-04
   323  3.2200000000000D+00 -1.6686000337615D-03  4.9237312700779D-04
   324  3.2300000000000D+00 -1.4181595484676D-03  4.2673436179391D-04
   325  3.2400000000000D+00 -1.1994323608921D-03  3.6750789190752D-04
   326  3.2500000000000D+00 -1.0097447777733D-03  3.1442632601934D-04
   327  3.2600000000000D+00 -8.4648112386100D-04  2.6720301018971D-04
   328  3.2700000000000D+00 -7.0709988045410D-04  2.2553463699896D-04
   329  3.2800000000000D+00 -5.8918905981325D-04  1.8911340253641D-04
   330  3.2900000000000D+00 -4.9053591404964D-04  1.5764273432413D-04
   331  3.3000000000000D+00 -4.0861071311564D-04  1.3071130910044D-04
   332  3.3100000000000D+00 -3.4125408153442D-04  1.0795844897737D-04
   333  3.3200000000000D+00 -2.8616666350507D-04  8.8940061974376D-05
   334  3.3300000000000D+00 -2.4102380918949D-04  7.3157982523783D-05
   335  3.3400000000000D+00 -2.0631495179565D-04  6.0821342264306D-05
   336  3.3500000000000D+00 -1.8122765747242D-04  5.1742727485259D-05
   337  3.3600000000000D+00 -1.6569299494436D-04  4.5900411277544D-05
   338  3.3700000000000D+00 -1.5950968781011D-04  4.3200907469371D-05
   339  3.3800000000000D+00 -1.5439774446422D-04  4.1276899857579D-05
   340  3.3900000000000D+00 -1.4567263828273D-04  3.8739707236027D-05
   341  3.4000000000000D+00 -1.2795161394686D-04  3.3996768876833D-05
   342  3.4100000000000D+00 -9.5968501288598D-05  2.5485897317358D-05
   343  3.4200000000000D+00 -5.9827340217669D-05  1.5895339942374D-05
   344  3.4300000000000D+00 -2.4898448743022D-05  6.6213457376732D-06
   345  3.4400000000000D+00  2.2516469538459D-06 -5.9542858950974D-07
   346  3.4500000000000D+00  1.2310596702338D-05 -3.2544578542888D-06
   347  3.4600000000000D+00  1.3226685612102D-05 -3.4960102165631D-06
   348  3.4700000000000D+00  7.8712219559980D-06 -2.0802741853071D-06
   349  3.4800000000000D+00 -4.4078314432399D-08  1.1632678308492D-08
   350  3.4900000000000D+00 -2.4065089382938D-06  6.3490837801403D-07
   351  3.5000000000000D+00 -3.0964539406853D-06  8.1672209998009D-07
   352  3.5100000000000D+00 -2.2016043922532D-06  5.8056270973077D-07
   353  3.5200000000000D+00 -3.3444742384447D-07  8.8175817013442D-08
   354  3.5300000000000D+00  2.4495160821431D-07 -6.5104332646725D-08
   355  3.5400000000000D+00  3.7690651935720D-07 -1.0017589838186D-07
   356  3.5500000000000D+00  3.1298185325529D-07 -8.3185715069455D-08
   357  3.5600000000000D+00  1.0144996944321D-07 -2.6963826062542D-08
   358  3.5700000000000D+00  0.0000000000000D+00  0.0000000000000D+00
   359  3.5800000000000D+00  0.0000000000000D+00  0.0000000000000D+00
   360  3.5900000000000D+00  0.0000000000000D+00  0.0000000000000D+00
   361  3.6000000000000D+00  0.0000000000000D+00  0.0000000000000D+00
   362  3.6100000000000D+00  0.0000000000000D+00  0.0000000000000D+00
   363  3.6200000000000D+00  0.0000000000000D+00  0.0000000000000D+00
   364  3.6300000000000D+00  0.0000000000000D+00  0.0000000000000D+00
   365  3.6400000000000D+00  0.0000000000000D+00  0.0000000000000D+00
   366  3.6500000000000D+00  0.0000000000000D+00  0.0000000000000D+00
   367  3.6600000000000D+00  0.0000000000000D+00  0.0000000000000D+00
   368  3.6700000000000D+00  0.0000000000000D+00  0.0000000000000D+00
   369  3.6800000000000D+00  0.0000000000000D+00  0.0000000000000D+00
   370  3.6900000000000D+00  0.0000000000000D+00  0.0000000000000D+00
   371  3.7000000000000D+00  0.0000000000000D+00  0.0000000000000D+00
   372  3.7100000000000D+00  0.0000000000000D+00  0.0000000000000D+00
   373  3.7200000000000D+00  0.0000000000000D+00  0.0000000000000D+00
   374  3.7300000000000D+00  0.0000000000000D+00  0.0000000000000D+00
   375  3.7400000000000D+00  0.0000000000000D+00  0.0000000000000D+00
   376  3.7500000000000D+00  0.0000000000000D+00  0.0000000000000D+00
   377  3.7600000000000D+00  0.0000000000000D+00  0.0000000000000D+00
   378  3.7700000000000D+00  0.0000000000000D+00  0.0000000000000D+00
   379  3.7800000000000D+00  0.0000000000000D+00  0.0000000000000D+00
   380  3.7900000000000D+00  0.0000000000000D+00  0.0000000000000D+00
   381  3.8000000000000D+00  0.0000000000000D+00  0.0000000000000D+00
   382  3.8100000000000D+00  0.0000000000000D+00  0.0000000000000D+00
   383  3.8200000000000D+00  0.0000000000000D+00  0.0000000000000D+00
   384  3.8300000000000D+00  0.0000000000000D+00  0.0000000000000D+00
   385  3.8400000000000D+00  0.0000000000000D+00  0.0000000000000D+00
   386  3.8500000000000D+00  0.0000000000000D+00  0.0000000000000D+00
   387  3.8600000000000D+00  0.0000000000000D+00  0.0000000000000D+00
   388  3.8700000000000D+00  0.0000000000000D+00  0.0000000000000D+00
   389  3.8800000000000D+00  0.0000000000000D+00  0.0000000000000D+00
   390  3.8900000000000D+00  0.0000000000000D+00  0.0000000000000D+00
   391  3.9000000000000D+00  0.0000000000000D+00  0.0000000000000D+00
   392  3.9100000000000D+00  0.0000000000000D+00  0.0000000000000D+00
   393  3.9200000000000D+00  0.0000000000000D+00  0.0000000000000D+00
   394  3.9300000000000D+00  0.0000000000000D+00  0.0000000000000D+00
   395  3.9400000000000D+00  0.0000000000000D+00  0.0000000000000D+00
   396  3.9500000000000D+00  0.0000000000000D+00  0.0000000000000D+00
   397  3.9600000000000D+00  0.0000000000000D+00  0.0000000000000D+00
   398  3.9700000000000D+00  0.0000000000000D+00  0.0000000000000D+00
   399  3.9800000000000D+00  0.0000000000000D+00  0.0000000000000D+00
   400  3.9900000000000D+00  0.0000000000000D+00  0.0000000000000D+00
   401  4.0000000000000D+00  0.0000000000000D+00  0.0000000000000D+00
   402  4.0100000000000D+00  0.0000000000000D+00  0.0000000000000D+00
   403  4.0200000000000D+00  0.0000000000000D+00  0.0000000000000D+00
   404  4.0300000000000D+00  0.0000000000000D+00  0.0000000000000D+00
   405  4.0400000000000D+00  0.0000000000000D+00  0.0000000000000D+00
   406  4.0500000000000D+00  0.0000000000000D+00  0.0000000000000D+00
   407  4.0600000000000D+00  0.0000000000000D+00  0.0000000000000D+00
   408  4.0700000000000D+00  0.0000000000000D+00  0.0000000000000D+00
   409  4.0800000000000D+00  0.0000000000000D+00  0.0000000000000D+00
   410  4.0900000000000D+00  0.0000000000000D+00  0.0000000000000D+00
   411  4.1000000000000D+00  0.0000000000000D+00  0.0000000000000D+00
   412  4.1100000000000D+00  0.0000000000000D+00  0.0000000000000D+00
   413  4.1200000000000D+00  0.0000000000000D+00  0.0000000000000D+00
   414  4.1300000000000D+00  0.0000000000000D+00  0.0000000000000D+00
   415  4.1400000000000D+00  0.0000000000000D+00  0.0000000000000D+00
   416  4.1500000000000D+00  0.0000000000000D+00  0.0000000000000D+00
   417  4.1600000000000D+00  0.0000000000000D+00  0.0000000000000D+00
   418  4.1700000000000D+00  0.0000000000000D+00  0.0000000000000D+00
   419  4.1800000000000D+00  0.0000000000000D+00  0.0000000000000D+00
   420  4.1900000000000D+00  0.0000000000000D+00  0.0000000000000D+00
   421  4.2000000000000D+00  0.0000000000000D+00  0.0000000000000D+00
   422  4.2100000000000D+00  0.0000000000000D+00  0.0000000000000D+00