Kr    ONCVPSP-3.3.1  r_core=   2.83591   2.86994   2.86994
     36.0000      8.0000      210904    zatom,zion,pspd
     8      11   2     4   600     0    pspcod,pspxc,lmax,lloc,mmax,r2well
  5.99000000  0.00000000  0.00000000    rchrg fchrg qchrg
     2     2     2     0     0    nproj
     1     1           extension_switch
   0                         2.0906747116440D+00 -8.4523235543663D-02
     1  0.0000000000000D+00 -1.3011813848607D-13  1.5638046413358D-12
     2  1.0000000000000D-02  3.8526764846537D-02  1.8566002295752D-02
     3  2.0000000000000D-02  7.7017518202419D-02  3.7104240748562D-02
     4  3.0000000000000D-02  1.1543628933295D-01  5.5586986454236D-02
     5  4.0000000000000D-02  1.5374718896861D-01  7.3986580405937D-02
     6  5.0000000000000D-02  1.9191444992086D-01  9.2275468492132D-02
     7  6.0000000000000D-02  2.2990246755782D-01  1.1042623655255D-01
     8  7.0000000000000D-02  2.6767584009345D-01  1.2841164550974D-01
     9  8.0000000000000D-02  3.0519940864361D-01  1.4620466659208D-01
    10  9.0000000000000D-02  3.4243829700310D-01  1.6377851666260D-01
    11  1.0000000000000D-01  3.7935795109733D-01  1.8110669366505D-01
    12  1.1000000000000D-01  4.1592417806319D-01  1.9816301219685D-01
    13  1.2000000000000D-01  4.5210318491343D-01  2.1492163921477D-01
    14  1.3000000000000D-01  4.8786161673951D-01  2.3135712987670D-01
    15  1.4000000000000D-01  5.2316659440813D-01  2.4744446351867D-01
    16  1.5000000000000D-01  5.5798575170697D-01  2.6315907976291D-01
    17  1.6000000000000D-01  5.9228727189587D-01  2.7847691474829D-01
    18  1.7000000000000D-01  6.2603992361976D-01  2.9337443747042D-01
    19  1.8000000000000D-01  6.5921309614059D-01  3.0782868621403D-01
    20  1.9000000000000D-01  6.9177683384568D-01  3.2181730505534D-01
    21  2.0000000000000D-01  7.2370186999095D-01  3.3531858040761D-01
    22  2.1000000000000D-01  7.5495965963759D-01  3.4831147757770D-01
    23  2.2000000000000D-01  7.8552241174199D-01  3.6077567729657D-01
    24  2.3000000000000D-01  8.1536312035906D-01  3.7269161218116D-01
    25  2.4000000000000D-01  8.4445559492007D-01  3.8404050308018D-01
    26  2.5000000000000D-01  8.7277448954682D-01  3.9480439525094D-01
    27  2.6000000000000D-01  9.0029533136509D-01  4.0496619430887D-01
    28  2.7000000000000D-01  9.2699454778086D-01  4.1450970188663D-01
    29  2.8000000000000D-01  9.5284949268403D-01  4.2341965093415D-01
    30  2.9000000000000D-01  9.7783847154546D-01  4.3168174058636D-01
    31  3.0000000000000D-01  1.0019407653738D+00  4.3928267052008D-01
    32  3.1000000000000D-01  1.0251366535004D+00  4.4621017471724D-01
    33  3.2000000000000D-01  1.0474074351607D+00  4.5245305454682D-01
    34  3.3000000000000D-01  1.0687354498431D+00  4.5800121107395D-01
    35  3.4000000000000D-01  1.0891040963764D+00  4.6284567650038D-01
    36  3.5000000000000D-01  1.1084978507290D+00  4.6697864463702D-01
    37  3.6000000000000D-01  1.1269022824930D+00  4.7039350030589D-01
    38  3.7000000000000D-01  1.1443040700312D+00  4.7308484756576D-01
    39  3.8000000000000D-01  1.1606910142610D+00  4.7504853665315D-01
    40  3.9000000000000D-01  1.1760520510572D+00  4.7628168952831D-01
    41  4.0000000000000D-01  1.1903772622509D+00  4.7678272391375D-01
    42  4.1000000000000D-01  1.2036578852085D+00  4.7655137571183D-01
    43  4.2000000000000D-01  1.2158863209734D+00  4.7558871968673D-01
    44  4.3000000000000D-01  1.2270561409558D+00  4.7389718829621D-01
    45  4.4000000000000D-01  1.2371620921577D+00  4.7148058855811D-01
    46  4.5000000000000D-01  1.2462001009220D+00  4.6834411683773D-01
    47  4.6000000000000D-01  1.2541672751959D+00  4.6449437144291D-01
    48  4.7000000000000D-01  1.2610619053023D+00  4.5993936291579D-01
    49  4.8000000000000D-01  1.2668834632123D+00  4.5468852191217D-01
    50  4.9000000000000D-01  1.2716326003162D+00  4.4875270456218D-01
    51  5.0000000000000D-01  1.2753111436915D+00  4.4214419520971D-01
    52  5.1000000000000D-01  1.2779220908682D+00  4.3487670643138D-01
    53  5.2000000000000D-01  1.2794696030935D+00  4.2696537624090D-01
    54  5.3000000000000D-01  1.2799589971016D+00  4.1842676238926D-01
    55  5.4000000000000D-01  1.2793967353954D+00  4.0927883367693D-01
    56  5.5000000000000D-01  1.2777904150473D+00  3.9954095820041D-01
    57  5.6000000000000D-01  1.2751487550331D+00  3.8923388846198D-01
    58  5.7000000000000D-01  1.2714815821092D+00  3.7837974327866D-01
    59  5.8000000000000D-01  1.2667998152520D+00  3.6700198643421D-01
    60  5.9000000000000D-01  1.2611154486732D+00  3.5512540202563D-01
    61  6.0000000000000D-01  1.2544415334347D+00  3.4277606646500D-01
    62  6.1000000000000D-01  1.2467921576831D+00  3.2998131710551D-01
    63  6.2000000000000D-01  1.2381824255276D+00  3.1676971747074D-01
    64  6.3000000000000D-01  1.2286284345899D+00  3.0317101907564D-01
    65  6.4000000000000D-01  1.2181472522524D+00  2.8921611983788D-01
    66  6.5000000000000D-01  1.2067568906373D+00  2.7493701908861D-01
    67  6.6000000000000D-01  1.1944762803483D+00  2.6036676920264D-01
    68  6.7000000000000D-01  1.1813252430106D+00  2.4553942387867D-01
    69  6.8000000000000D-01  1.1673244626456D+00  2.3048998311173D-01
    70  6.9000000000000D-01  1.1524954559207D+00  2.1525433491110D-01
    71  7.0000000000000D-01  1.1368605413135D+00  1.9986919382872D-01
    72  7.1000000000000D-01  1.1204428072354D+00  1.8437203637438D-01
    73  7.2000000000000D-01  1.1032660791582D+00  1.6880103340591D-01
    74  7.3000000000000D-01  1.0853548857906D+00  1.5319497959414D-01
    75  7.4000000000000D-01  1.0667344243543D+00  1.3759322007378D-01
    76  7.5000000000000D-01  1.0474305250089D+00  1.2203557440332D-01
    77  7.6000000000000D-01  1.0274696144780D+00  1.0656225796811D-01
    78  7.7000000000000D-01  1.0068786789298D+00  9.1213800971977D-02
    79  7.8000000000000D-01  9.8568522616789D-01  7.6030965174114D-02
    80  7.9000000000000D-01  9.6391724718800D-01  6.1054658538157D-02
    81  8.0000000000000D-01  9.4160317715880D-01  4.6325847971343D-02
    82  8.1000000000000D-01  9.1877185588576D-01  3.1885470341203D-02
    83  8.2000000000000D-01  8.9545248781830D-01  1.7774341967357D-02
    84  8.3000000000000D-01  8.7167460166135D-01  4.0330667947967D-03
    85  8.4000000000000D-01  8.4746800965349D-01 -9.2980565358262D-03
    86  8.5000000000000D-01  8.2286276657478D-01 -2.2179128497623D-02
    87  8.6000000000000D-01  7.9788912854781D-01 -3.4570743135253D-02
    88  8.7000000000000D-01  7.7257751169647D-01 -4.6434082932951D-02
    89  8.8000000000000D-01  7.4695845072720D-01 -5.7731013848361D-02
    90  8.9000000000000D-01  7.2106255749778D-01 -6.8424180261715D-02
    91  9.0000000000000D-01  6.9492047963947D-01 -7.8477099585273D-02
    92  9.1000000000000D-01  6.6856285929763D-01 -8.7854256273426D-02
    93  9.2000000000000D-01  6.4202029205683D-01 -9.6521194970614D-02
    94  9.3000000000000D-01  6.1532328611565D-01 -1.0444461253136D-01
    95  9.4000000000000D-01  5.8850222177656D-01 -1.1159244864497D-01
    96  9.5000000000000D-01  5.6158731131563D-01 -1.1793397479656D-01
    97  9.6000000000000D-01  5.3460855929651D-01 -1.2343988129570D-01
    98  9.7000000000000D-01  5.0759572339238D-01 -1.2808236210488D-01
    99  9.8000000000000D-01  4.8057827577877D-01 -1.3183519720175D-01
   100  9.9000000000000D-01  4.5358536515943D-01 -1.3467383221141D-01
   101  1.0000000000000D+00  4.2664577948612D-01 -1.3657545504867D-01
   102  1.0100000000000D+00  3.9978790943246D-01 -1.3751906931437D-01
   103  1.0200000000000D+00  3.7303971268022D-01 -1.3748556419552D-01
   104  1.0300000000000D+00  3.4642867907538D-01 -1.3645778062475D-01
   105  1.0400000000000D+00  3.1998179670976D-01 -1.3442057346199D-01
   106  1.0500000000000D+00  2.9372551898203D-01 -1.3136086946929D-01
   107  1.0600000000000D+00  2.6768573269065D-01 -1.2726772085841D-01
   108  1.0700000000000D+00  2.4188772720897D-01 -1.2213235420045D-01
   109  1.0800000000000D+00  2.1635616479108D-01 -1.1594821449772D-01
   110  1.0900000000000D+00  1.9111505205469D-01 -1.0871100422915D-01
   111  1.1000000000000D+00  1.6618771268503D-01 -1.0041871719340D-01
   112  1.1100000000000D+00  1.4159676140196D-01 -9.1071666985188D-02
   113  1.1200000000000D+00  1.1736407922943D-01 -8.0672509955728D-02
   114  1.1300000000000D+00  9.3510790104498D-02 -6.9226262521663D-02
   115  1.1400000000000D+00  7.0057238860067D-02 -5.6740312702745D-02
   116  1.1500000000000D+00  4.7022970613352D-02 -4.3224425782708D-02
   117  1.1600000000000D+00  2.4426711589085D-02 -2.8690744004510D-02
   118  1.1700000000000D+00  2.2863514036728D-03 -1.3153780228698D-02
   119  1.1800000000000D+00 -1.9381073166513D-02  3.3695944983463D-03
   120  1.1900000000000D+00 -4.0559392911633D-02  2.0860169506903D-02
   121  1.2000000000000D+00 -6.1233319392453D-02  3.9296419213966D-02
   122  1.2100000000000D+00 -8.1388456607510D-02  5.8654533981344D-02
   123  1.2200000000000D+00 -1.0101131111177D-01  7.8908457104322D-02
   124  1.2300000000000D+00 -1.2008930057775D-01  1.0002992789803D-01
   125  1.2400000000000D+00 -1.3861076079430D-01  1.2198853082234D-01
   126  1.2500000000000D+00 -1.5656495110107D-01  1.4475175056990D-01
   127  1.2600000000000D+00 -1.7394205825779D-01  1.6828503303316D-01
   128  1.2700000000000D+00 -1.9073319875377D-01  1.9255185203084D-01
   129  1.2800000000000D+00 -2.0693041956465D-01  2.1751378166172D-01
   130  1.2900000000000D+00 -2.2252669736448D-01  2.4313057414968D-01
   131  1.3000000000000D+00 -2.3751593620806D-01  2.6936024300077D-01
   132  1.3100000000000D+00 -2.5189296369962D-01  2.9615915128859D-01
   133  1.3200000000000D+00 -2.6565352566461D-01  3.2348210487803D-01
   134  1.3300000000000D+00 -2.7879427934911D-01  3.5128245035340D-01
   135  1.3400000000000D+00 -2.9131278517083D-01  3.7951217742134D-01
   136  1.3500000000000D+00 -3.0320749704763D-01  4.0812202554472D-01
   137  1.3600000000000D+00 -3.1447775133699D-01  4.3706159452520D-01
   138  1.3700000000000D+00 -3.2512375441672D-01  4.6627945876755D-01
   139  1.3800000000000D+00 -3.3514656894315D-01  4.9572328492719D-01
   140  1.3900000000000D+00 -3.4454809882706D-01  5.2533995262225D-01
   141  1.4000000000000D+00 -3.5333107296348D-01  5.5507567791224D-01
   142  1.4100000000000D+00 -3.6149902776259D-01  5.8487613918953D-01
   143  1.4200000000000D+00 -3.6905628852421D-01  6.1468660515609D-01
   144  1.4300000000000D+00 -3.7600794970251D-01  6.4445206453465D-01
   145  1.4400000000000D+00 -3.8235985411315D-01  6.7411735714476D-01
   146  1.4500000000000D+00 -3.8811857112878D-01  7.0362730599587D-01
   147  1.4600000000000D+00 -3.9329137392048D-01  7.3292685000836D-01
   148  1.4700000000000D+00 -3.9788621579591D-01  7.6196117699929D-01
   149  1.4800000000000D+00 -4.0191170569093D-01  7.9067585654572D-01
   150  1.4900000000000D+00 -4.0537708287274D-01  8.1901697234801D-01
   151  1.5000000000000D+00 -4.0829219090986D-01  8.4693125370555D-01
   152  1.5100000000000D+00 -4.1066745097193D-01  8.7436620572856D-01
   153  1.5200000000000D+00 -4.1251383451543D-01  9.0127023789486D-01
   154  1.5300000000000D+00 -4.1384283541961D-01  9.2759279058313D-01
   155  1.5400000000000D+00 -4.1466644163137D-01  9.5328445919943D-01
   156  1.5500000000000D+00 -4.1499710638277D-01  9.7829711552881D-01
   157  1.5600000000000D+00 -4.1484771904210D-01  1.0025840259572D+00
   158  1.5700000000000D+00 -4.1423157566178D-01  1.0260999661844D+00
   159  1.5800000000000D+00 -4.1316234928414D-01  1.0488013321232D+00
   160  1.5900000000000D+00 -4.1165406006921D-01  1.0706462465830D+00
   161  1.6000000000000D+00 -4.0972104530311D-01  1.0915946615030D+00
   162  1.6100000000000D+00 -4.0737792935323D-01  1.1116084553040D+00
   163  1.6200000000000D+00 -4.0463959362437D-01  1.1306515252016D+00
   164  1.6300000000000D+00 -4.0152114658428D-01  1.1486898740338D+00
   165  1.6400000000000D+00 -3.9803789390778D-01  1.1656916915077D+00
   166  1.6500000000000D+00 -3.9420530880884D-01  1.1816274294325D+00
   167  1.6600000000000D+00 -3.9003900260538D-01  1.1964698708863D+00
   168  1.6700000000000D+00 -3.8555469558562D-01  1.2101941929144D+00
   169  1.6800000000000D+00 -3.8076818821626D-01  1.2227780227516D+00
   170  1.6900000000000D+00 -3.7569533276041D-01  1.2342014871940D+00
   171  1.7000000000000D+00 -3.7035200533998D-01  1.2444472551715D+00
   172  1.7100000000000D+00 -3.6475407850996D-01  1.2535005731632D+00
   173  1.7200000000000D+00 -3.5891739437205D-01  1.2613492935836D+00
   174  1.7300000000000D+00 -3.5285773829610D-01  1.2679838957839D+00
   175  1.7400000000000D+00 -3.4659081326646D-01  1.2733974998966D+00
   176  1.7500000000000D+00 -3.4013221492552D-01  1.2775858731430D+00
   177  1.7600000000000D+00 -3.3349740731753D-01  1.2805474289651D+00
   178  1.7700000000000D+00 -3.2670169941200D-01  1.2822832185489D+00
   179  1.7800000000000D+00 -3.1976022239189D-01  1.2827969152571D+00
   180  1.7900000000000D+00 -3.1268790779449D-01  1.2820947914820D+00
   181  1.8000000000000D+00 -3.0549946647529D-01  1.2801856885537D+00
   182  1.8100000000000D+00 -2.9820936848161D-01  1.2770809792522D+00
   183  1.8200000000000D+00 -2.9083182380415D-01  1.2727945235517D+00
   184  1.8300000000000D+00 -2.8338076407932D-01  1.2673426172988D+00
   185  1.8400000000000D+00 -2.7586982521952D-01  1.2607439343491D+00
   186  1.8500000000000D+00 -2.6831233101967D-01  1.2530194620956D+00
   187  1.8600000000000D+00 -2.6072127773652D-01  1.2441924307376D+00
   188  1.8700000000000D+00 -2.5310931965409D-01  1.2342882365155D+00
   189  1.8800000000000D+00 -2.4548875566127D-01  1.2233343590277D+00
   190  1.8900000000000D+00 -2.3787151681091D-01  1.2113602731838D+00
   191  1.9000000000000D+00 -2.3026915492230D-01  1.1983973556644D+00
   192  1.9100000000000D+00 -2.2269283215237D-01  1.1844787867232D+00
   193  1.9200000000000D+00 -2.1515331162102D-01  1.1696394470865D+00
   194  1.9300000000000D+00 -2.0766094900427D-01  1.1539158108090D+00
   195  1.9400000000000D+00 -2.0022568515451D-01  1.1373458340601D+00
   196  1.9500000000000D+00 -1.9285703970120D-01  1.1199688404156D+00
   197  1.9600000000000D+00 -1.8556410562947D-01  1.1018254030047D+00
   198  1.9700000000000D+00 -1.7835554484844D-01  1.0829572237823D+00
   199  1.9800000000000D+00 -1.7123958467900D-01  1.0634070105673D+00
   200  1.9900000000000D+00 -1.6422401532230D-01  1.0432183519642D+00
   201  2.0000000000000D+00 -1.5731618820737D-01  1.0224355908508D+00
   202  2.0100000000000D+00 -1.5052301526527D-01  1.0011036966809D+00
   203  2.0200000000000D+00 -1.4385096906820D-01  9.7926813709802D-01
   204  2.0300000000000D+00 -1.3730608381402D-01  9.5697474928925D-01
   205  2.0400000000000D+00 -1.3089395716009D-01  9.3426961150609D-01
   206  2.0500000000000D+00 -1.2461975282385D-01  9.1119891512171D-01
   207  2.0600000000000D+00 -1.1848820398827D-01  8.8780883780710D-01
   208  2.0700000000000D+00 -1.1250361742581D-01  8.6414541804528D-01
   209  2.0800000000000D+00 -1.0666987834058D-01  8.4025443155985D-01
   210  2.0900000000000D+00 -1.0099045589816D-01  8.1618127009706D-01
   211  2.1000000000000D+00 -9.5468409383416D-02  7.9197082264668D-01
   212  2.1100000000000D+00 -9.0106394993225D-02  7.6766736010655D-01
   213  2.1200000000000D+00 -8.4906673193767D-02  7.4331442307345D-01
   214  2.1300000000000D+00 -7.9871116627867D-02  7.1895471363805D-01
   215  2.1400000000000D+00 -7.5001218534803D-02  6.9462999152322D-01
   216  2.1500000000000D+00 -7.0298101640925D-02  6.7038097427707D-01
   217  2.1600000000000D+00 -6.5762527491911D-02  6.4624724303290D-01
   218  2.1700000000000D+00 -6.1394906190466D-02  6.2226715289489D-01
   219  2.1800000000000D+00 -5.7195306501755D-02  5.9847774897836D-01
   220  2.1900000000000D+00 -5.3163466287708D-02  5.7491468854588D-01
   221  2.2000000000000D+00 -4.9298803254294D-02  5.5161216840050D-01
   222  2.2100000000000D+00 -4.5600425944129D-02  5.2860285938498D-01
   223  2.2200000000000D+00 -4.2067144970482D-02  5.0591784687860D-01
   224  2.2300000000000D+00 -3.8697484455087D-02  4.8358657770933D-01
   225  2.2400000000000D+00 -3.5489693604045D-02  4.6163681470310D-01
   226  2.2500000000000D+00 -3.2441758448317D-02  4.4009459722486D-01
   227  2.2600000000000D+00 -2.9551413663597D-02  4.1898420937098D-01
   228  2.2700000000000D+00 -2.6816154451289D-02  3.9832815554633D-01
   229  2.2800000000000D+00 -2.4233248505409D-02  3.7814714220361D-01
   230  2.2900000000000D+00 -2.1799747933246D-02  3.5846006820349D-01
   231  2.3000000000000D+00 -1.9512501194872D-02  3.3928402170715D-01
   232  2.3100000000000D+00 -1.7368165021131D-02  3.2063428396125D-01
   233  2.3200000000000D+00 -1.5363216208221D-02  3.0252434149098D-01
   234  2.3300000000000D+00 -1.3493963382832D-02  2.8496590430540D-01
   235  2.3400000000000D+00 -1.1756558637610D-02  2.6796893154137D-01
   236  2.3500000000000D+00 -1.0147009001954D-02  2.5154166466579D-01
   237  2.3600000000000D+00 -8.6611878314226D-03  2.3569066629710D-01
   238  2.3700000000000D+00 -7.2948459727781D-03  2.2042086661680D-01
   239  2.3800000000000D+00 -6.0436227420747D-03  2.0573561625817D-01
   240  2.3900000000000D+00 -4.9030567763711D-03  1.9163674430731D-01
   241  2.4000000000000D+00 -3.8685965640995D-03  1.7812462388785D-01
   242  2.4100000000000D+00 -2.9356102977059D-03  1.6519824874031D-01
   243  2.4200000000000D+00 -2.0993982421193D-03  1.5285528246670D-01
   244  2.4300000000000D+00 -1.3551991183616D-03  1.4109218085887D-01
   245  2.4400000000000D+00 -6.9819892380813D-04  1.2990428683984D-01
   246  2.4500000000000D+00 -1.2355373420702D-04  1.1928576846622D-01
   247  2.4600000000000D+00  3.7361660070657D-04  1.0922988509771D-01
   248  2.4700000000000D+00  7.9821842915045D-04  9.9729073896518D-02
   249  2.4800000000000D+00  1.1551966513512D-03  9.0775310048273D-02
   250  2.4900000000000D+00  1.4494762344454D-03  8.2359606534875D-02
   251  2.5000000000000D+00  1.6859450517959D-03  7.4472013554792D-02
   252  2.5100000000000D+00  1.8694262055770D-03  6.7101477258510D-02
   253  2.5200000000000D+00  2.0046535932195D-03  6.0235816985444D-02
   254  2.5300000000000D+00  2.0962389113171D-03  5.3861553540878D-02
   255  2.5400000000000D+00  2.1486300043690D-03  4.7963648939285D-02
   256  2.5500000000000D+00  2.1661315774893D-03  4.2525978575490D-02
   257  2.5600000000000D+00  2.1528904559497D-03  3.7531389238147D-02
   258  2.5700000000000D+00  2.1128987731856D-03  3.2961973558336D-02
   259  2.5800000000000D+00  2.0499719465677D-03  2.8799004593698D-02
   260  2.5900000000000D+00  1.9677458615928D-03  2.5023116815872D-02
   261  2.6000000000000D+00  1.8696719690459D-03  2.1614451569981D-02
   262  2.6100000000000D+00  1.7590090608007D-03  1.8552752605684D-02
   263  2.6200000000000D+00  1.6388180782288D-03  1.5817492643285D-02
   264  2.6300000000000D+00  1.5119568147696D-03  1.3387991419414D-02
   265  2.6400000000000D+00  1.3810751159406D-03  1.1243530172303D-02
   266  2.6500000000000D+00  1.2486105043952D-03  9.3634638328307D-03
   267  2.6600000000000D+00  1.1167842390162D-03  7.7273312225244D-03
   268  2.6700000000000D+00  9.8759780619970D-04  6.3149594825446D-03
   269  2.6800000000000D+00  8.6282981189613D-04  5.1065655635955D-03
   270  2.6900000000000D+00  7.4403328635000D-04  4.0828546934127D-03
   271  2.7000000000000D+00  6.3253335119988D-04  3.2251119771078D-03
   272  2.7100000000000D+00  5.2942526192690D-04  2.5152897133639D-03
   273  2.7200000000000D+00  4.3557283491842D-04  1.9360908935694D-03
   274  2.7300000000000D+00  3.5160719266224D-04  1.4710455336801D-03
   275  2.7400000000000D+00  2.7793395152724D-04  1.1047058868561D-03
   276  2.7500000000000D+00  2.1471556366585D-04  8.2244896226949D-04
   277  2.7600000000000D+00  1.6185538038594D-04  6.1029434812985D-04
   278  2.7700000000000D+00  1.1901021868006D-04  4.5546114831653D-04
   279  2.7800000000000D+00  8.5404369960935D-05  3.4512015111774D-04
   280  2.7900000000000D+00  6.0833101002144D-05  2.7298100011036D-04
   281  2.8000000000000D+00  4.4422605334687D-05  2.3111929205306D-04
   282  2.8100000000000D+00  3.5835470651491D-05  2.1674909908995D-04
   283  2.8200000000000D+00  3.1799309495033D-05  2.1242372187895D-04
   284  2.8300000000000D+00  2.9062136455706D-05  2.0222514502707D-04
   285  2.8400000000000D+00  2.4223820180927D-05  1.7013827901365D-04
   286  2.8500000000000D+00  1.6115452124400D-05  1.1352810161823D-04
   287  2.8600000000000D+00  7.4098868915480D-06  5.2043229552173D-05
   288  2.8700000000000D+00 -2.2596468087975D-08 -1.6300865695741D-07
   289  2.8800000000000D+00 -2.5163160905631D-06 -1.8199685242488D-05
   290  2.8900000000000D+00 -2.4526112887437D-06 -1.7766689971821D-05
   291  2.9000000000000D+00 -8.5766442045971D-07 -6.2185830899452D-06
   292  2.9100000000000D+00  3.4567427020140D-07  2.5199639541872D-06
   293  2.9200000000000D+00  6.0429171878635D-07  4.4135657570538D-06
   294  2.9300000000000D+00  4.1162669039638D-07  3.0112197840245D-06
   295  2.9400000000000D+00 -6.2793401154698D-09 -4.3908496017579D-08
   296  2.9500000000000D+00 -6.6386460914394D-08 -4.6420955085704D-07
   297  2.9600000000000D+00 -7.1846295615318D-08 -5.0238762782273D-07
   298  2.9700000000000D+00 -2.8190962420807D-08 -1.9712624868594D-07
   299  2.9800000000000D+00  0.0000000000000D+00  0.0000000000000D+00
   300  2.9900000000000D+00  0.0000000000000D+00  0.0000000000000D+00
   301  3.0000000000000D+00  0.0000000000000D+00  0.0000000000000D+00
   302  3.0100000000000D+00  0.0000000000000D+00  0.0000000000000D+00
   303  3.0200000000000D+00  0.0000000000000D+00  0.0000000000000D+00
   304  3.0300000000000D+00  0.0000000000000D+00  0.0000000000000D+00
   305  3.0400000000000D+00  0.0000000000000D+00  0.0000000000000D+00
   306  3.0500000000000D+00  0.0000000000000D+00  0.0000000000000D+00
   307  3.0600000000000D+00  0.0000000000000D+00  0.0000000000000D+00
   308  3.0700000000000D+00  0.0000000000000D+00  0.0000000000000D+00
   309  3.0800000000000D+00  0.0000000000000D+00  0.0000000000000D+00
   310  3.0900000000000D+00  0.0000000000000D+00  0.0000000000000D+00
   311  3.1000000000000D+00  0.0000000000000D+00  0.0000000000000D+00
   312  3.1100000000000D+00  0.0000000000000D+00  0.0000000000000D+00
   313  3.1200000000000D+00  0.0000000000000D+00  0.0000000000000D+00
   314  3.1300000000000D+00  0.0000000000000D+00  0.0000000000000D+00
   315  3.1400000000000D+00  0.0000000000000D+00  0.0000000000000D+00
   316  3.1500000000000D+00  0.0000000000000D+00  0.0000000000000D+00
   317  3.1600000000000D+00  0.0000000000000D+00  0.0000000000000D+00
   318  3.1700000000000D+00  0.0000000000000D+00  0.0000000000000D+00
   319  3.1800000000000D+00  0.0000000000000D+00  0.0000000000000D+00
   320  3.1900000000000D+00  0.0000000000000D+00  0.0000000000000D+00
   321  3.2000000000000D+00  0.0000000000000D+00  0.0000000000000D+00
   322  3.2100000000000D+00  0.0000000000000D+00  0.0000000000000D+00
   323  3.2200000000000D+00  0.0000000000000D+00  0.0000000000000D+00
   324  3.2300000000000D+00  0.0000000000000D+00  0.0000000000000D+00
   325  3.2400000000000D+00  0.0000000000000D+00  0.0000000000000D+00
   326  3.2500000000000D+00  0.0000000000000D+00  0.0000000000000D+00
   327  3.2600000000000D+00  0.0000000000000D+00  0.0000000000000D+00
   328  3.2700000000000D+00  0.0000000000000D+00  0.0000000000000D+00
   329  3.2800000000000D+00  0.0000000000000D+00  0.0000000000000D+00
   330  3.2900000000000D+00  0.0000000000000D+00  0.0000000000000D+00
   331  3.3000000000000D+00  0.0000000000000D+00  0.0000000000000D+00
   332  3.3100000000000D+00  0.0000000000000D+00  0.0000000000000D+00
   333  3.3200000000000D+00  0.0000000000000D+00  0.0000000000000D+00
   334  3.3300000000000D+00  0.0000000000000D+00  0.0000000000000D+00
   335  3.3400000000000D+00  0.0000000000000D+00  0.0000000000000D+00
   336  3.3500000000000D+00  0.0000000000000D+00  0.0000000000000D+00
   337  3.3600000000000D+00  0.0000000000000D+00  0.0000000000000D+00
   338  3.3700000000000D+00  0.0000000000000D+00  0.0000000000000D+00
   339  3.3800000000000D+00  0.0000000000000D+00  0.0000000000000D+00
   340  3.3900000000000D+00  0.0000000000000D+00  0.0000000000000D+00
   341  3.4000000000000D+00  0.0000000000000D+00  0.0000000000000D+00
   342  3.4100000000000D+00  0.0000000000000D+00  0.0000000000000D+00
   343  3.4200000000000D+00  0.0000000000000D+00  0.0000000000000D+00
   344  3.4300000000000D+00  0.0000000000000D+00  0.0000000000000D+00
   345  3.4400000000000D+00  0.0000000000000D+00  0.0000000000000D+00
   346  3.4500000000000D+00  0.0000000000000D+00  0.0000000000000D+00
   347  3.4600000000000D+00  0.0000000000000D+00  0.0000000000000D+00
   348  3.4700000000000D+00  0.0000000000000D+00  0.0000000000000D+00
   349  3.4800000000000D+00  0.0000000000000D+00  0.0000000000000D+00
   350  3.4900000000000D+00  0.0000000000000D+00  0.0000000000000D+00
   351  3.5000000000000D+00  0.0000000000000D+00  0.0000000000000D+00
   352  3.5100000000000D+00  0.0000000000000D+00  0.0000000000000D+00
   353  3.5200000000000D+00  0.0000000000000D+00  0.0000000000000D+00
   354  3.5300000000000D+00  0.0000000000000D+00  0.0000000000000D+00
   355  3.5400000000000D+00  0.0000000000000D+00  0.0000000000000D+00
   356  3.5500000000000D+00  0.0000000000000D+00  0.0000000000000D+00
   357  3.5600000000000D+00  0.0000000000000D+00  0.0000000000000D+00
   358  3.5700000000000D+00  0.0000000000000D+00  0.0000000000000D+00
   359  3.5800000000000D+00  0.0000000000000D+00  0.0000000000000D+00
   360  3.5900000000000D+00  0.0000000000000D+00  0.0000000000000D+00
   361  3.6000000000000D+00  0.0000000000000D+00  0.0000000000000D+00
   362  3.6100000000000D+00  0.0000000000000D+00  0.0000000000000D+00
   363  3.6200000000000D+00  0.0000000000000D+00  0.0000000000000D+00
   364  3.6300000000000D+00  0.0000000000000D+00  0.0000000000000D+00
   365  3.6400000000000D+00  0.0000000000000D+00  0.0000000000000D+00
   366  3.6500000000000D+00  0.0000000000000D+00  0.0000000000000D+00
   367  3.6600000000000D+00  0.0000000000000D+00  0.0000000000000D+00
   368  3.6700000000000D+00  0.0000000000000D+00  0.0000000000000D+00
   369  3.6800000000000D+00  0.0000000000000D+00  0.0000000000000D+00
   370  3.6900000000000D+00  0.0000000000000D+00  0.0000000000000D+00
   371  3.7000000000000D+00  0.0000000000000D+00  0.0000000000000D+00
   372  3.7100000000000D+00  0.0000000000000D+00  0.0000000000000D+00
   373  3.7200000000000D+00  0.0000000000000D+00  0.0000000000000D+00
   374  3.7300000000000D+00  0.0000000000000D+00  0.0000000000000D+00
   375  3.7400000000000D+00  0.0000000000000D+00  0.0000000000000D+00
   376  3.7500000000000D+00  0.0000000000000D+00  0.0000000000000D+00
   377  3.7600000000000D+00  0.0000000000000D+00  0.0000000000000D+00
   378  3.7700000000000D+00  0.0000000000000D+00  0.0000000000000D+00
   379  3.7800000000000D+00  0.0000000000000D+00  0.0000000000000D+00
   380  3.7900000000000D+00  0.0000000000000D+00  0.0000000000000D+00
   381  3.8000000000000D+00  0.0000000000000D+00  0.0000000000000D+00
   382  3.8100000000000D+00  0.0000000000000D+00  0.0000000000000D+00
   383  3.8200000000000D+00  0.0000000000000D+00  0.0000000000000D+00
   384  3.8300000000000D+00  0.0000000000000D+00  0.0000000000000D+00
   385  3.8400000000000D+00  0.0000000000000D+00  0.0000000000000D+00
   386  3.8500000000000D+00  0.0000000000000D+00  0.0000000000000D+00
   387  3.8600000000000D+00  0.0000000000000D+00  0.0000000000000D+00
   388  3.8700000000000D+00  0.0000000000000D+00  0.0000000000000D+00
   389  3.8800000000000D+00  0.0000000000000D+00  0.0000000000000D+00
   390  3.8900000000000D+00  0.0000000000000D+00  0.0000000000000D+00
   391  3.9000000000000D+00  0.0000000000000D+00  0.0000000000000D+00
   392  3.9100000000000D+00  0.0000000000000D+00  0.0000000000000D+00
   393  3.9200000000000D+00  0.0000000000000D+00  0.0000000000000D+00
   394  3.9300000000000D+00  0.0000000000000D+00  0.0000000000000D+00
   395  3.9400000000000D+00  0.0000000000000D+00  0.0000000000000D+00
   396  3.9500000000000D+00  0.0000000000000D+00  0.0000000000000D+00
   397  3.9600000000000D+00  0.0000000000000D+00  0.0000000000000D+00
   398  3.9700000000000D+00  0.0000000000000D+00  0.0000000000000D+00
   399  3.9800000000000D+00  0.0000000000000D+00  0.0000000000000D+00
   400  3.9900000000000D+00  0.0000000000000D+00  0.0000000000000D+00
   401  4.0000000000000D+00  0.0000000000000D+00  0.0000000000000D+00
   402  4.0100000000000D+00  0.0000000000000D+00  0.0000000000000D+00
   403  4.0200000000000D+00  0.0000000000000D+00  0.0000000000000D+00
   404  4.0300000000000D+00  0.0000000000000D+00  0.0000000000000D+00
   405  4.0400000000000D+00  0.0000000000000D+00  0.0000000000000D+00
   406  4.0500000000000D+00  0.0000000000000D+00  0.0000000000000D+00
   407  4.0600000000000D+00  0.0000000000000D+00  0.0000000000000D+00
   408  4.0700000000000D+00  0.0000000000000D+00  0.0000000000000D+00
   409  4.0800000000000D+00  0.0000000000000D+00  0.0000000000000D+00
   410  4.0900000000000D+00  0.0000000000000D+00  0.0000000000000D+00
   411  4.1000000000000D+00  0.0000000000000D+00  0.0000000000000D+00
   412  4.1100000000000D+00  0.0000000000000D+00  0.0000000000000D+00
   413  4.1200000000000D+00  0.0000000000000D+00  0.0000000000000D+00
   414  4.1300000000000D+00  0.0000000000000D+00  0.0000000000000D+00
   415  4.1400000000000D+00  0.0000000000000D+00  0.0000000000000D+00
   416  4.1500000000000D+00  0.0000000000000D+00  0.0000000000000D+00
   417  4.1600000000000D+00  0.0000000000000D+00  0.0000000000000D+00
   418  4.1700000000000D+00  0.0000000000000D+00  0.0000000000000D+00
   419  4.1800000000000D+00  0.0000000000000D+00  0.0000000000000D+00
   420  4.1900000000000D+00  0.0000000000000D+00  0.0000000000000D+00
   421  4.2000000000000D+00  0.0000000000000D+00  0.0000000000000D+00
   422  4.2100000000000D+00  0.0000000000000D+00  0.0000000000000D+00