Li    ONCVPSP-3.3.1  r_core=   1.76647   1.40824
      3.0000      3.0000      210904    zatom,zion,pspd
     8      11   1     4   600     0    pspcod,pspxc,lmax,lloc,mmax,r2well
  5.99000000  0.00000000  0.00000000    rchrg fchrg qchrg
     2     2     0     0    nproj
     3     1           extension_switch
     3     0     0    nprojso
   0                        -4.8307174638154D+00 -2.2074128097141D+00
     1  0.0000000000000D+00  6.0650462430090D-10 -4.8400880525712D-10
     2  1.0000000000000D-02  6.7313118323576D-02  1.9469488489150D-02
     3  2.0000000000000D-02  1.3455269307782D-01  3.8890396746654D-02
     4  3.0000000000000D-02  2.0164421499120D-01  5.8215082989678D-02
     5  4.0000000000000D-02  2.6851125813252D-01  7.7397770396942D-02
     6  5.0000000000000D-02  3.3507455828765D-01  9.6395449873115D-02
     7  6.0000000000000D-02  4.0125113495124D-01  1.1516874749904D-01
     8  7.0000000000000D-02  4.6695347075443D-01  1.3368274546886D-01
     9  8.0000000000000D-02  5.3208876154296D-01  1.5190774579912D-01
    10  9.0000000000000D-02  5.9655824957246D-01  1.6981996669156D-01
    11  1.0000000000000D-01  6.6025665140537D-01  1.8740216213535D-01
    12  1.1000000000000D-01  7.2307169108560D-01  2.0464415613927D-01
    13  1.2000000000000D-01  7.8488374804093D-01  2.2154328388247D-01
    14  1.3000000000000D-01  8.4556562793096D-01  2.3810473305597D-01
    15  1.4000000000000D-01  9.0498246333028D-01  2.5434177972637D-01
    16  1.5000000000000D-01  9.6299174972532D-01  2.7027591417899D-01
    17  1.6000000000000D-01  1.0194435208226D+00  2.8593685337905D-01
    18  1.7000000000000D-01  1.0741806656288D+00  3.0136243791505D-01
    19  1.8000000000000D-01  1.1270393881845D+00  3.1659841254795D-01
    20  1.9000000000000D-01  1.1778498092279D+00  3.3169809076872D-01
    21  2.0000000000000D-01  1.2264367074510D+00  3.4672190505575D-01
    22  2.1000000000000D-01  1.2726203963941D+00  3.6173684580752D-01
    23  2.2000000000000D-01  1.3162177314405D+00  3.7681579319364D-01
    24  2.3000000000000D-01  1.3570432398107D+00  3.9203674740606D-01
    25  2.4000000000000D-01  1.3949103649589D+00  4.0748196398859D-01
    26  2.5000000000000D-01  1.4296328153329D+00  4.2323700206607D-01
    27  2.6000000000000D-01  1.4610260061081D+00  4.3938969437098D-01
    28  2.7000000000000D-01  1.4889085812458D+00  4.5602904896546D-01
    29  2.8000000000000D-01  1.5131040020789D+00  4.7324409346775D-01
    30  2.9000000000000D-01  1.5334421876006D+00  4.9112267340593D-01
    31  3.0000000000000D-01  1.5497611907419D+00  5.0975021702713D-01
    32  3.1000000000000D-01  1.5619088941738D+00  5.2920847948040D-01
    33  3.2000000000000D-01  1.5697447085787D+00  5.4957427975773D-01
    34  3.3000000000000D-01  1.5731412559051D+00  5.7091824411379D-01
    35  3.4000000000000D-01  1.5719860198527D+00  5.9330356988671D-01
    36  3.5000000000000D-01  1.5661829457543D+00  6.1678482370402D-01
    37  3.6000000000000D-01  1.5556539721001D+00  6.4140678797878D-01
    38  3.7000000000000D-01  1.5403404762260D+00  6.6720336937796D-01
    39  3.8000000000000D-01  1.5202046171277D+00  6.9419658257951D-01
    40  3.9000000000000D-01  1.4952305589929D+00  7.2239562212720D-01
    41  4.0000000000000D-01  1.4654255598358D+00  7.5179603454595D-01
    42  4.1000000000000D-01  1.4308209105924D+00  7.8237900209959D-01
    43  4.2000000000000D-01  1.3914727111606D+00  8.1411074866356D-01
    44  4.3000000000000D-01  1.3474624711536D+00  8.4694207715318D-01
    45  4.4000000000000D-01  1.2988975245648D+00  8.8080804680375D-01
    46  4.5000000000000D-01  1.2459112490955D+00  9.1562779734965D-01
    47  4.6000000000000D-01  1.1886630825811D+00  9.5130452580857D-01
    48  4.7000000000000D-01  1.1273383307238D+00  9.8772562015462D-01
    49  4.8000000000000D-01  1.0621477622164D+00  1.0247629526739D+00
    50  4.9000000000000D-01  9.9332698927376D-01  1.0622733342521D+00
    51  5.0000000000000D-01  9.2113563358342D-01  1.1000991292619D+00
    52  5.1000000000000D-01  8.4585627971149D-01  1.1380690291096D+00
    53  5.2000000000000D-01  7.6779322003688D-01  1.1759989808868D+00
    54  5.3000000000000D-01  6.8727099732130D-01  1.2136932659686D+00
    55  5.4000000000000D-01  6.0463275302709D-01  1.2509457218165D+00
    56  5.5000000000000D-01  5.2023839145623D-01  1.2875410987064D+00
    57  5.6000000000000D-01  4.3446257167321D-01  1.3232565416215D+00
    58  5.7000000000000D-01  3.4769254098303D-01  1.3578631861407D+00
    59  5.8000000000000D-01  2.6032582543138D-01  1.3911278558366D+00
    60  5.9000000000000D-01  1.7276779437077D-01  1.4228148474843D+00
    61  6.0000000000000D-01  8.5429117565388D-02  1.4526877892860D+00
    62  6.1000000000000D-01 -1.2768654168486D-03  1.4805115563550D+00
    63  6.2000000000000D-01 -8.6936842681719D-02  1.5060542268821D+00
    64  6.3000000000000D-01 -1.7114027259674D-01  1.5290890617437D+00
    65  6.4000000000000D-01 -2.5348214902253D-01  1.5493964898070D+00
    66  6.5000000000000D-01 -3.3356576621508D-01  1.5667660808609D+00
    67  6.6000000000000D-01 -4.1100546014141D-01  1.5809984879440D+00
    68  6.7000000000000D-01 -4.8542930288825D-01  1.5919073408728D+00
    69  6.8000000000000D-01 -5.5648172700591D-01  1.5993210729827D+00
    70  6.9000000000000D-01 -6.2382605702107D-01  1.6030846634922D+00
    71  7.0000000000000D-01 -6.8714692597165D-01  1.6030612784807D+00
    72  7.1000000000000D-01 -7.4615255565275D-01  1.5991337942259D+00
    73  7.2000000000000D-01 -8.0057688032670D-01  1.5912061875829D+00
    74  7.3000000000000D-01 -8.5018149491465D-01  1.5792047791865D+00
    75  7.4000000000000D-01 -8.9475741015386D-01  1.5630793165141D+00
    76  7.5000000000000D-01 -9.3412659885940D-01  1.5428038852541D+00
    77  7.6000000000000D-01 -9.6814331925121D-01  1.5183776389601D+00
    78  7.7000000000000D-01 -9.9669520328624D-01  1.4898253386328D+00
    79  7.8000000000000D-01 -1.0197041000556D+00  1.4571976956338D+00
    80  7.9000000000000D-01 -1.0371266665345D+00  1.4205715131877D+00
    81  8.0000000000000D-01 -1.0489547003007D+00  1.3800496236454D+00
    82  8.1000000000000D-01 -1.0552152112381D+00  1.3357606206551D+00
    83  8.2000000000000D-01 -1.0559702316865D+00  1.2878583873862D+00
    84  8.3000000000000D-01 -1.0513163669724D+00  1.2365214239605D+00
    85  8.4000000000000D-01 -1.0413840907236D+00  1.1819519792468D+00
    86  8.5000000000000D-01 -1.0263367918144D+00  1.1243749941396D+00
    87  8.6000000000000D-01 -1.0063695821810D+00  1.0640368653593D+00
    88  8.7000000000000D-01 -9.8170787706054D-01  1.0012040406520D+00
    89  8.8000000000000D-01 -9.5260576174552D-01  9.3616145852175D-01
    90  8.9000000000000D-01 -9.1934416063489D-01  8.6921084645062D-01
    91  9.0000000000000D-01 -8.8222880858660D-01  8.0066886670909D-01
    92  9.1000000000000D-01 -8.4158814991175D-01  7.3086528971921D-01
    93  9.2000000000000D-01 -7.9777042072666D-01  6.6014001901176D-01
    94  9.3000000000000D-01 -7.5113973221053D-01  5.8883880098725D-01
    95  9.4000000000000D-01 -7.0207246128953D-01  5.1730972013229D-01
    96  9.5000000000000D-01 -6.5095436018528D-01  4.4590096308514D-01
    97  9.6000000000000D-01 -5.9817754478436D-01  3.7495843926942D-01
    98  9.7000000000000D-01 -5.4413747879395D-01  3.0482343323370D-01
    99  9.8000000000000D-01 -4.8922996152979D-01  2.3583027984503D-01
   100  9.9000000000000D-01 -4.3384814380232D-01  1.6830408230822D-01
   101  1.0000000000000D+00 -3.7837959637654D-01  1.0255849295665D-01
   102  1.0100000000000D+00 -3.2320345469818D-01  3.8893575811068D-02
   103  1.0200000000000D+00 -2.6868766286348D-01 -2.2406230765874D-02
   104  1.0300000000000D+00 -2.1518633888523D-01 -8.1074033834330D-02
   105  1.0400000000000D+00 -1.6303728216104D-01 -1.3686227160611D-01
   106  1.0500000000000D+00 -1.1255964282971D-01 -1.8954434976693D-01
   107  1.0600000000000D+00 -6.4051771102028D-02 -2.3891611442587D-01
   108  1.0700000000000D+00 -1.7789263103771D-02 -2.8479714907842D-01
   109  1.0800000000000D+00  2.5976782041636D-02 -3.2703188454090D-01
   110  1.0900000000000D+00  6.7021281156819D-02 -3.6549051253226D-01
   111  1.1000000000000D+00  1.0514645098412D-01 -4.0006969507637D-01
   112  1.1100000000000D+00  1.4018284868403D-01 -4.3069306402800D-01
   113  1.1200000000000D+00  1.7199016221512D-01 -4.5731150661173D-01
   114  1.1300000000000D+00  2.0045774646909D-01 -4.7990323500009D-01
   115  1.1400000000000D+00  2.2550490282135D-01 -4.9847363947131D-01
   116  1.1500000000000D+00  2.4708090251845D-01 -5.1305492701417D-01
   117  1.1600000000000D+00  2.6516475625734D-01 -5.2370554887109D-01
   118  1.1700000000000D+00  2.7976473483659D-01 -5.3050942262104D-01
   119  1.1800000000000D+00  2.9091764716855D-01 -5.3357495558100D-01
   120  1.1900000000000D+00  2.9868788497708D-01 -5.3303387882597D-01
   121  1.2000000000000D+00  3.0316624492647D-01 -5.2903990229307D-01
   122  1.2100000000000D+00  3.0446854080340D-01 -5.2176720297594D-01
   123  1.2200000000000D+00  3.0273402006003D-01 -5.1140875959858D-01
   124  1.2300000000000D+00  2.9812360100364D-01 -4.9817454875283D-01
   125  1.2400000000000D+00  2.9081794801866D-01 -4.8228961834935D-01
   126  1.2500000000000D+00  2.8101540310639D-01 -4.6399205496513D-01
   127  1.2600000000000D+00  2.6892979396004D-01 -4.4353086317122D-01
   128  1.2700000000000D+00  2.5478813897243D-01 -4.2116377500847D-01
   129  1.2800000000000D+00  2.3882827020519D-01 -3.9715500830000D-01
   130  1.2900000000000D+00  2.2129639641772D-01 -3.7177299320660D-01
   131  1.3000000000000D+00  2.0244462774239D-01 -3.4528808593783D-01
   132  1.3100000000000D+00  1.8252848424613D-01 -3.1797028908678D-01
   133  1.3200000000000D+00  1.6180441019422D-01 -2.9008699745077D-01
   134  1.3300000000000D+00  1.4052731515328D-01 -2.6190078761793D-01
   135  1.3400000000000D+00  1.1894816364889D-01 -2.3366727005639D-01
   136  1.3500000000000D+00  9.7311632854379D-02 -2.0563302028925D-01
   137  1.3600000000000D+00  7.5853858060700D-02 -1.7803360603615D-01
   138  1.3700000000000D+00  5.4800284962437D-02 -1.5109172646854D-01
   139  1.3800000000000D+00  3.4363644730149D-02 -1.2501547694210D-01
   140  1.3900000000000D+00  1.4742069920298D-02 -9.9996754458698D-02
   141  1.4000000000000D+00 -3.8826349396423D-03 -7.6209815263598D-02
   142  1.4100000000000D+00 -2.1346554226158D-02 -5.3809996032844D-02
   143  1.4200000000000D+00 -3.7505039397923D-02 -3.2932610353946D-02
   144  1.4300000000000D+00 -5.2233895108298D-02 -1.3692027890845D-02
   145  1.4400000000000D+00 -6.5430360371946D-02  3.8190532132247D-03
   146  1.4500000000000D+00 -7.7013876708768D-02  1.9530134457554D-02
   147  1.4600000000000D+00 -8.6926633778193D-02  3.3393238196885D-02
   148  1.4700000000000D+00 -9.5133883828565D-02  4.5383015112077D-02
   149  1.4800000000000D+00 -1.0162401837194D-01  5.5496633297635D-02
   150  1.4900000000000D+00 -1.0640839830673D-01  6.3753441987469D-02
   151  1.5000000000000D+00 -1.0952093179116D-01  7.0194406259881D-02
   152  1.5100000000000D+00 -1.1101739257657D-01  7.4881307283272D-02
   153  1.5200000000000D+00 -1.1097447193779D-01  7.7895703380147D-02
   154  1.5300000000000D+00 -1.0948856107557D-01  7.9337650718154D-02
   155  1.5400000000000D+00 -1.0667425323789D-01  7.9324175290740D-02
   156  1.5500000000000D+00 -1.0266257271344D-01  7.7987504834831D-02
   157  1.5600000000000D+00 -9.7598911681796D-02  7.5473044902976D-02
   158  1.5700000000000D+00 -9.1640700111210D-02  7.1937124281417D-02
   159  1.5800000000000D+00 -8.4954782218320D-02  6.7544487586181D-02
   160  1.5900000000000D+00 -7.7714543334323D-02  6.2465576807808D-02
   161  1.6000000000000D+00 -7.0096766550109D-02  5.6873585350349D-02
   162  1.6100000000000D+00 -6.2278274869693D-02  5.0941336593637D-02
   163  1.6200000000000D+00 -5.4432363801377D-02  4.4837993376688D-02
   164  1.6300000000000D+00 -4.6725086003959D-02  3.8725655490840D-02
   165  1.6400000000000D+00 -3.9311440526207D-02  3.2755893021797D-02
   166  1.6500000000000D+00 -3.2331532233076D-02  2.7066276371968D-02
   167  1.6600000000000D+00 -2.5906818132262D-02  2.1777005496977D-02
   168  1.6700000000000D+00 -2.0136526783312D-02  1.6987717993758D-02
   169  1.6800000000000D+00 -1.5094415931901D-02  1.2774617844093D-02
   170  1.6900000000000D+00 -1.0826036039322D-02  9.1880766984375D-03
   171  1.7000000000000D+00 -7.3466246734187D-03  6.2508100424904D-03
   172  1.7100000000000D+00 -4.6396059658740D-03  3.9566180614603D-03
   173  1.7200000000000D+00 -2.6579149392382D-03  2.2715759317019D-03
   174  1.7300000000000D+00 -1.3241903384367D-03  1.1342835478888D-03
   175  1.7400000000000D+00 -5.3060663280216D-04  4.5593907623962D-04
   176  1.7500000000000D+00 -1.4820858144709D-04  1.2849659511264D-04
   177  1.7600000000000D+00 -2.7402922309891D-05  2.4902911082553D-05
   178  1.7700000000000D+00 -1.2713563898282D-05  1.1959707191190D-05
   179  1.7800000000000D+00 -7.2107863179103D-06  6.5970536059600D-06
   180  1.7900000000000D+00  9.5717229515777D-08 -1.3855505398581D-07
   181  1.8000000000000D+00  2.1239435155541D-07 -2.8855063233137D-07
   182  1.8100000000000D+00  4.8410463087488D-08 -3.6674640528903D-08
   183  1.8200000000000D+00  3.4709148476141D-07 -2.6789353096294D-07
   184  1.8300000000000D+00  4.1570150677424D-08 -3.2438484107332D-08
   185  1.8400000000000D+00  4.5505852401010D-08 -4.2530559562908D-08
   186  1.8500000000000D+00  1.6971834156369D-08 -1.5862170806479D-08
   187  1.8600000000000D+00  0.0000000000000D+00  0.0000000000000D+00
   188  1.8700000000000D+00  0.0000000000000D+00  0.0000000000000D+00
   189  1.8800000000000D+00  0.0000000000000D+00  0.0000000000000D+00
   190  1.8900000000000D+00  0.0000000000000D+00  0.0000000000000D+00
   191  1.9000000000000D+00  0.0000000000000D+00  0.0000000000000D+00
   192  1.9100000000000D+00  0.0000000000000D+00  0.0000000000000D+00
   193  1.9200000000000D+00  0.0000000000000D+00  0.0000000000000D+00
   194  1.9300000000000D+00  0.0000000000000D+00  0.0000000000000D+00
   195  1.9400000000000D+00  0.0000000000000D+00  0.0000000000000D+00
   196  1.9500000000000D+00  0.0000000000000D+00  0.0000000000000D+00
   197  1.9600000000000D+00  0.0000000000000D+00  0.0000000000000D+00
   198  1.9700000000000D+00  0.0000000000000D+00  0.0000000000000D+00
   199  1.9800000000000D+00  0.0000000000000D+00  0.0000000000000D+00
   200  1.9900000000000D+00  0.0000000000000D+00  0.0000000000000D+00
   201  2.0000000000000D+00  0.0000000000000D+00  0.0000000000000D+00
   202  2.0100000000000D+00  0.0000000000000D+00  0.0000000000000D+00
   203  2.0200000000000D+00  0.0000000000000D+00  0.0000000000000D+00
   204  2.0300000000000D+00  0.0000000000000D+00  0.0000000000000D+00
   205  2.0400000000000D+00  0.0000000000000D+00  0.0000000000000D+00
   206  2.0500000000000D+00  0.0000000000000D+00  0.0000000000000D+00
   207  2.0600000000000D+00  0.0000000000000D+00  0.0000000000000D+00
   208  2.0700000000000D+00  0.0000000000000D+00  0.0000000000000D+00
   209  2.0800000000000D+00  0.0000000000000D+00  0.0000000000000D+00
   210  2.0900000000000D+00  0.0000000000000D+00  0.0000000000000D+00
   211  2.1000000000000D+00  0.0000000000000D+00  0.0000000000000D+00
   212  2.1100000000000D+00  0.0000000000000D+00  0.0000000000000D+00
   213  2.1200000000000D+00  0.0000000000000D+00  0.0000000000000D+00
   214  2.1300000000000D+00  0.0000000000000D+00  0.0000000000000D+00
   215  2.1400000000000D+00  0.0000000000000D+00  0.0000000000000D+00
   216  2.1500000000000D+00  0.0000000000000D+00  0.0000000000000D+00
   217  2.1600000000000D+00  0.0000000000000D+00  0.0000000000000D+00
   218  2.1700000000000D+00  0.0000000000000D+00  0.0000000000000D+00
   219  2.1800000000000D+00  0.0000000000000D+00  0.0000000000000D+00
   220  2.1900000000000D+00  0.0000000000000D+00  0.0000000000000D+00
   221  2.2000000000000D+00  0.0000000000000D+00  0.0000000000000D+00
   222  2.2100000000000D+00  0.0000000000000D+00  0.0000000000000D+00
   223  2.2200000000000D+00  0.0000000000000D+00  0.0000000000000D+00
   224  2.2300000000000D+00  0.0000000000000D+00  0.0000000000000D+00
   225  2.2400000000000D+00  0.0000000000000D+00  0.0000000000000D+00
   226  2.2500000000000D+00  0.0000000000000D+00  0.0000000000000D+00
   227  2.2600000000000D+00  0.0000000000000D+00  0.0000000000000D+00
   228  2.2700000000000D+00  0.0000000000000D+00  0.0000000000000D+00
   229  2.2800000000000D+00  0.0000000000000D+00  0.0000000000000D+00
   230  2.2900000000000D+00  0.0000000000000D+00  0.0000000000000D+00
   231  2.3000000000000D+00  0.0000000000000D+00  0.0000000000000D+00
   232  2.3100000000000D+00  0.0000000000000D+00  0.0000000000000D+00
   233  2.3200000000000D+00  0.0000000000000D+00  0.0000000000000D+00
   234  2.3300000000000D+00  0.0000000000000D+00  0.0000000000000D+00
   235  2.3400000000000D+00  0.0000000000000D+00  0.0000000000000D+00
   236  2.3500000000000D+00  0.0000000000000D+00  0.0000000000000D+00
   237  2.3600000000000D+00  0.0000000000000D+00  0.0000000000000D+00
   238  2.3700000000000D+00  0.0000000000000D+00  0.0000000000000D+00
   239  2.3800000000000D+00  0.0000000000000D+00  0.0000000000000D+00
   240  2.3900000000000D+00  0.0000000000000D+00  0.0000000000000D+00
   241  2.4000000000000D+00  0.0000000000000D+00  0.0000000000000D+00
   242  2.4100000000000D+00  0.0000000000000D+00  0.0000000000000D+00
   243  2.4200000000000D+00  0.0000000000000D+00  0.0000000000000D+00
   244  2.4300000000000D+00  0.0000000000000D+00  0.0000000000000D+00
   245  2.4400000000000D+00  0.0000000000000D+00  0.0000000000000D+00
   246  2.4500000000000D+00  0.0000000000000D+00  0.0000000000000D+00
   247  2.4600000000000D+00  0.0000000000000D+00  0.0000000000000D+00
   248  2.4700000000000D+00  0.0000000000000D+00  0.0000000000000D+00
   249  2.4800000000000D+00  0.0000000000000D+00  0.0000000000000D+00
   250  2.4900000000000D+00  0.0000000000000D+00  0.0000000000000D+00
   251  2.5000000000000D+00  0.0000000000000D+00  0.0000000000000D+00
   252  2.5100000000000D+00  0.0000000000000D+00  0.0000000000000D+00
   253  2.5200000000000D+00  0.0000000000000D+00  0.0000000000000D+00
   254  2.5300000000000D+00  0.0000000000000D+00  0.0000000000000D+00
   255  2.5400000000000D+00  0.0000000000000D+00  0.0000000000000D+00
   256  2.5500000000000D+00  0.0000000000000D+00  0.0000000000000D+00
   257  2.5600000000000D+00  0.0000000000000D+00  0.0000000000000D+00
   258  2.5700000000000D+00  0.0000000000000D+00  0.0000000000000D+00
   259  2.5800000000000D+00  0.0000000000000D+00  0.0000000000000D+00
   260  2.5900000000000D+00  0.0000000000000D+00  0.0000000000000D+00
   261  2.6000000000000D+00  0.0000000000000D+00  0.0000000000000D+00
   262  2.6100000000000D+00  0.0000000000000D+00  0.0000000000000D+00
   263  2.6200000000000D+00  0.0000000000000D+00  0.0000000000000D+00
   264  2.6300000000000D+00  0.0000000000000D+00  0.0000000000000D+00
   265  2.6400000000000D+00  0.0000000000000D+00  0.0000000000000D+00
   266  2.6500000000000D+00  0.0000000000000D+00  0.0000000000000D+00
   267  2.6600000000000D+00  0.0000000000000D+00  0.0000000000000D+00
   268  2.6700000000000D+00  0.0000000000000D+00  0.0000000000000D+00
   269  2.6800000000000D+00  0.0000000000000D+00  0.0000000000000D+00
   270  2.6900000000000D+00  0.0000000000000D+00  0.0000000000000D+00
   271  2.7000000000000D+00  0.0000000000000D+00  0.0000000000000D+00
   272  2.7100000000000D+00  0.0000000000000D+00  0.0000000000000D+00
   273  2.7200000000000D+00  0.0000000000000D+00  0.0000000000000D+00
   274  2.7300000000000D+00  0.0000000000000D+00  0.0000000000000D+00
   275  2.7400000000000D+00  0.0000000000000D+00  0.0000000000000D+00
   276  2.7500000000000D+00  0.0000000000000D+00  0.0000000000000D+00
   277  2.7600000000000D+00  0.0000000000000D+00  0.0000000000000D+00
   278  2.7700000000000D+00  0.0000000000000D+00  0.0000000000000D+00
   279  2.7800000000000D+00  0.0000000000000D+00  0.0000000000000D+00
   280  2.7900000000000D+00  0.0000000000000D+00  0.0000000000000D+00
   281  2.8000000000000D+00  0.0000000000000D+00  0.0000000000000D+00
   282  2.8100000000000D+00  0.0000000000000D+00  0.0000000000000D+00
   283  2.8200000000000D+00  0.0000000000000D+00  0.0000000000000D+00
   284  2.8300000000000D+00  0.0000000000000D+00  0.0000000000000D+00
   285  2.8400000000000D+00  0.0000000000000D+00  0.0000000000000D+00
   286  2.8500000000000D+00  0.0000000000000D+00  0.0000000000000D+00
   287  2.8600000000000D+00  0.0000000000000D+00  0.0000000000000D+00
   288  2.8700000000000D+00  0.0000000000000D+00  0.0000000000000D+00
   289  2.8800000000000D+00  0.0000000000000D+00  0.0000000000000D+00
   290  2.8900000000000D+00  0.0000000000000D+00  0.0000000000000D+00
   291  2.9000000000000D+00  0.0000000000000D+00  0.0000000000000D+00
   292  2.9100000000000D+00  0.0000000000000D+00  0.0000000000000D+00
   293  2.9200000000000D+00  0.0000000000000D+00  0.0000000000000D+00
   294  2.9300000000000D+00  0.0000000000000D+00  0.0000000000000D+00
   295  2.9400000000000D+00  0.0000000000000D+00  0.0000000000000D+00
   296  2.9500000000000D+00  0.0000000000000D+00  0.0000000000000D+00
   297  2.9600000000000D+00  0.0000000000000D+00  0.0000000000000D+00
   298  2.9700000000000D+00  0.0000000000000D+00  0.0000000000000D+00
   299  2.9800000000000D+00  0.0000000000000D+00  0.0000000000000D+00
   300  2.9900000000000D+00  0.0000000000000D+00  0.0000000000000D+00
   301  3.0000000000000D+00  0.0000000000000D+00  0.0000000000000D+00
   302  3.0100000000000D+00  0.0000000000000D+00  0.0000000000000D+00
   303  3.0200000000000D+00  0.0000000000000D+00  0.0000000000000D+00
   304  3.0300000000000D+00  0.0000000000000D+00  0.0000000000000D+00
   305  3.0400000000000D+00  0.0000000000000D+00  0.0000000000000D+00
   306  3.0500000000000D+00  0.0000000000000D+00  0.0000000000000D+00
   307  3.0600000000000D+00  0.0000000000000D+00  0.0000000000000D+00
   308  3.0700000000000D+00  0.0000000000000D+00  0.0000000000000D+00
   309  3.0800000000000D+00  0.0000000000000D+00  0.0000000000000D+00
   310  3.0900000000000D+00  0.0000000000000D+00  0.0000000000000D+00
   311  3.1000000000000D+00  0.0000000000000D+00  0.0000000000000D+00
   312  3.1100000000000D+00  0.0000000000000D+00  0.0000000000000D+00
   313  3.1200000000000D+00  0.0000000000000D+00  0.0000000000000D+00
   314  3.1300000000000D+00  0.0000000000000D+00  0.0000000000000D+00
   315  3.1400000000000D+00  0.0000000000000D+00  0.0000000000000D+00
   316  3.1500000000000D+00  0.0000000000000D+00  0.0000000000000D+00
   317  3.1600000000000D+00  0.0000000000000D+00  0.0000000000000D+00
   318  3.1700000000000D+00  0.0000000000000D+00  0.0000000000000D+00
   319  3.1800000000000D+00  0.0000000000000D+00  0.0000000000000D+00
   320  3.1900000000000D+00  0.0000000000000D+00  0.0000000000000D+00
   321  3.2000000000000D+00  0.0000000000000D+00  0.0000000000000D+00
   322  3.2100000000000D+00  0.0000000000000D+00  0.0000000000000D+00
   323  3.2200000000000D+00  0.0000000000000D+00  0.0000000000000D+00
   324  3.2300000000000D+00  0.0000000000000D+00  0.0000000000000D+00
   325  3.2400000000000D+00  0.0000000000000D+00  0.0000000000000D+00
   326  3.2500000000000D+00  0.0000000000000D+00  0.0000000000000D+00
   327  3.2600000000000D+00  0.0000000000000D+00  0.0000000000000D+00
   328  3.2700000000000D+00  0.0000000000000D+00  0.0000000000000D+00
   329  3.2800000000000D+00  0.0000000000000D+00  0.0000000000000D+00
   330  3.2900000000000D+00  0.0000000000000D+00  0.0000000000000D+00
   331  3.3000000000000D+00  0.0000000000000D+00  0.0000000000000D+00
   332  3.3100000000000D+00  0.0000000000000D+00  0.0000000000000D+00
   333  3.3200000000000D+00  0.0000000000000D+00  0.0000000000000D+00
   334  3.3300000000000D+00  0.0000000000000D+00  0.0000000000000D+00
   335  3.3400000000000D+00  0.0000000000000D+00  0.0000000000000D+00
   336  3.3500000000000D+00  0.0000000000000D+00  0.0000000000000D+00
   337  3.3600000000000D+00  0.0000000000000D+00  0.0000000000000D+00
   338  3.3700000000000D+00  0.0000000000000D+00  0.0000000000000D+00
   339  3.3800000000000D+00  0.0000000000000D+00  0.0000000000000D+00
   340  3.3900000000000D+00  0.0000000000000D+00  0.0000000000000D+00
   341  3.4000000000000D+00  0.0000000000000D+00  0.0000000000000D+00
   342  3.4100000000000D+00  0.0000000000000D+00  0.0000000000000D+00
   343  3.4200000000000D+00  0.0000000000000D+00  0.0000000000000D+00
   344  3.4300000000000D+00  0.0000000000000D+00  0.0000000000000D+00
   345  3.4400000000000D+00  0.0000000000000D+00  0.0000000000000D+00
   346  3.4500000000000D+00  0.0000000000000D+00  0.0000000000000D+00
   347  3.4600000000000D+00  0.0000000000000D+00  0.0000000000000D+00
   348  3.4700000000000D+00  0.0000000000000D+00  0.0000000000000D+00
   349  3.4800000000000D+00  0.0000000000000D+00  0.0000000000000D+00
   350  3.4900000000000D+00  0.0000000000000D+00  0.0000000000000D+00
   351  3.5000000000000D+00  0.0000000000000D+00  0.0000000000000D+00
   352  3.5100000000000D+00  0.0000000000000D+00  0.0000000000000D+00
   353  3.5200000000000D+00  0.0000000000000D+00  0.0000000000000D+00
   354  3.5300000000000D+00  0.0000000000000D+00  0.0000000000000D+00
   355  3.5400000000000D+00  0.0000000000000D+00  0.0000000000000D+00
   356  3.5500000000000D+00  0.0000000000000D+00  0.0000000000000D+00
   357  3.5600000000000D+00  0.0000000000000D+00  0.0000000000000D+00
   358  3.5700000000000D+00  0.0000000000000D+00  0.0000000000000D+00
   359  3.5800000000000D+00  0.0000000000000D+00  0.0000000000000D+00
   360  3.5900000000000D+00  0.0000000000000D+00  0.0000000000000D+00
   361  3.6000000000000D+00  0.0000000000000D+00  0.0000000000000D+00
   362  3.6100000000000D+00  0.0000000000000D+00  0.0000000000000D+00
   363  3.6200000000000D+00  0.0000000000000D+00  0.0000000000000D+00
   364  3.6300000000000D+00  0.0000000000000D+00  0.0000000000000D+00
   365  3.6400000000000D+00  0.0000000000000D+00  0.0000000000000D+00
   366  3.6500000000000D+00  0.0000000000000D+00  0.0000000000000D+00
   367  3.6600000000000D+00  0.0000000000000D+00  0.0000000000000D+00
   368  3.6700000000000D+00  0.0000000000000D+00  0.0000000000000D+00
   369  3.6800000000000D+00  0.0000000000000D+00  0.0000000000000D+00
   370  3.6900000000000D+00  0.0000000000000D+00  0.0000000000000D+00
   371  3.7000000000000D+00  0.0000000000000D+00  0.0000000000000D+00
   372  3.7100000000000D+00  0.0000000000000D+00  0.0000000000000D+00
   373  3.7200000000000D+00  0.0000000000000D+00  0.0000000000000D+00
   374  3.7300000000000D+00  0.0000000000000D+00  0.0000000000000D+00
   375  3.7400000000000D+00  0.0000000000000D+00  0.0000000000000D+00
   376  3.7500000000000D+00  0.0000000000000D+00  0.0000000000000D+00
   377  3.7600000000000D+00  0.0000000000000D+00  0.0000000000000D+00
   378  3.7700000000000D+00  0.0000000000000D+00  0.0000000000000D+00
   379  3.7800000000000D+00  0.0000000000000D+00  0.0000000000000D+00
   380  3.7900000000000D+00  0.0000000000000D+00  0.0000000000000D+00
   381  3.8000000000000D+00  0.0000000000000D+00  0.0000000000000D+00
   382  3.8100000000000D+00  0.0000000000000D+00  0.0000000000000D+00
   383  3.8200000000000D+00  0.0000000000000D+00  0.0000000000000D+00
   384  3.8300000000000D+00  0.0000000000000D+00  0.0000000000000D+00
   385  3.8400000000000D+00  0.0000000000000D+00  0.0000000000000D+00
   386  3.8500000000000D+00  0.0000000000000D+00  0.0000000000000D+00
   387  3.8600000000000D+00  0.0000000000000D+00  0.0000000000000D+00
   388  3.8700000000000D+00  0.0000000000000D+00  0.0000000000000D+00
   389  3.8800000000000D+00  0.0000000000000D+00  0.0000000000000D+00
   390  3.8900000000000D+00  0.0000000000000D+00  0.0000000000000D+00
   391  3.9000000000000D+00  0.0000000000000D+00  0.0000000000000D+00
   392  3.9100000000000D+00  0.0000000000000D+00  0.0000000000000D+00
   393  3.9200000000000D+00  0.0000000000000D+00  0.0000000000000D+00
   394  3.9300000000000D+00  0.0000000000000D+00  0.0000000000000D+00
   395  3.9400000000000D+00  0.0000000000000D+00  0.0000000000000D+00
   396  3.9500000000000D+00  0.0000000000000D+00  0.0000000000000D+00
   397  3.9600000000000D+00  0.0000000000000D+00  0.0000000000000D+00
   398  3.9700000000000D+00  0.0000000000000D+00  0.0000000000000D+00
   399  3.9800000000000D+00  0.0000000000000D+00  0.0000000000000D+00
   400  3.9900000000000D+00  0.0000000000000D+00  0.0000000000000D+00
   401  4.0000000000000D+00  0.0000000000000D+00  0.0000000000000D+00
   402  4.0100000000000D+00  0.0000000000000D+00  0.0000000000000D+00
   403  4.0200000000000D+00  0.0000000000000D+00  0.0000000000000D+00
   404  4.0300000000000D+00  0.0000000000000D+00  0.0000000000000D+00
   405  4.0400000000000D+00  0.0000000000000D+00  0.0000000000000D+00
   406  4.0500000000000D+00  0.0000000000000D+00  0.0000000000000D+00
   407  4.0600000000000D+00  0.0000000000000D+00  0.0000000000000D+00
   408  4.0700000000000D+00  0.0000000000000D+00  0.0000000000000D+00
   409  4.0800000000000D+00  0.0000000000000D+00  0.0000000000000D+00
   410  4.0900000000000D+00  0.0000000000000D+00  0.0000000000000D+00
   411  4.1000000000000D+00  0.0000000000000D+00  0.0000000000000D+00
   412  4.1100000000000D+00  0.0000000000000D+00  0.0000000000000D+00
   413  4.1200000000000D+00  0.0000000000000D+00  0.0000000000000D+00
   414  4.1300000000000D+00  0.0000000000000D+00  0.0000000000000D+00
   415  4.1400000000000D+00  0.0000000000000D+00  0.0000000000000D+00
   416  4.1500000000000D+00  0.0000000000000D+00  0.0000000000000D+00
   417  4.1600000000000D+00  0.0000000000000D+00  0.0000000000000D+00
   418  4.1700000000000D+00  0.0000000000000D+00  0.0000000000000D+00
   419  4.1800000000000D+00  0.0000000000000D+00  0.0000000000000D+00
   420  4.1900000000000D+00  0.0000000000000D+00  0.0000000000000D+00
   421  4.2000000000000D+00  0.0000000000000D+00  0.0000000000000D+00
   422  4.2100000000000D+00  0.0000000000000D+00  0.0000000000000D+00