Mg    ONCVPSP-3.3.1  r_core=   1.24667   2.52001
     12.0000     10.0000      210904    zatom,zion,pspd
     8      11   1     4   600     0    pspcod,pspxc,lmax,lloc,mmax,r2well
  5.99000000  0.00000000  0.00000000    rchrg fchrg qchrg
     2     2     0     0     0    nproj
     1     1           extension_switch
   0                         8.1329731208040D+00  1.2169167898230D+00
     1  0.0000000000000D+00  5.1176243243134D-09 -1.0213999340758D-08
     2  1.0000000000000D-02  1.2665873787304D-01  9.1611810547600D-03
     3  2.0000000000000D-02  2.5280266448560D-01  1.8301736806355D-02
     4  3.0000000000000D-02  3.7791713072165D-01  2.7405675491263D-02
     5  4.0000000000000D-02  5.0148786557589D-01  3.6466144252569D-02
     6  5.0000000000000D-02  6.2300129842002D-01  4.5489680837687D-02
     7  6.0000000000000D-02  7.4194503738615D-01  5.4500091433057D-02
     8  7.0000000000000D-02  8.5780854975760D-01  6.3541842272796D-02
     9  8.0000000000000D-02  9.7008408513931D-01  7.2682862872240D-02
    10  9.0000000000000D-02  1.0782678759721D+00  8.2016671143712D-02
    11  1.0000000000000D-01  1.1818616427767D+00  9.1663745019405D-02
    12  1.1000000000000D-01  1.2803744235049D+00  1.0177208126657D-01
    13  1.2000000000000D-01  1.3733247376956D+00  1.1251689962990D-01
    14  1.3000000000000D-01  1.4602430869549D+00  1.2409946894675D-01
    15  1.4000000000000D-01  1.5406747837791D+00  1.3674505109988D-01
    16  1.5000000000000D-01  1.6141830911229D+00  1.5069997823256D-01
    17  1.6000000000000D-01  1.6803526455606D+00  1.6622789817342D-01
    18  1.7000000000000D-01  1.7387931276092D+00  1.8360524212562D-01
    19  1.8000000000000D-01  1.7891431339651D+00  2.0311598698726D-01
    20  1.9000000000000D-01  1.8310741982420D+00  2.2504580182473D-01
    21  2.0000000000000D-01  1.8642948994684D+00  2.4967568366807D-01
    22  2.1000000000000D-01  1.8885549912749D+00  2.7727520161380D-01
    23  2.2000000000000D-01  1.9036494795221D+00  3.0809547991268D-01
    24  2.3000000000000D-01  1.9094225722272D+00  3.4236206002900D-01
    25  2.4000000000000D-01  1.9057714231457D+00  3.8026778836668D-01
    26  2.5000000000000D-01  1.8926495893412D+00  4.2196588029763D-01
    27  2.6000000000000D-01  1.8700701235897D+00  4.6756331217316D-01
    28  2.7000000000000D-01  1.8381082245515D+00  5.1711469108563D-01
    29  2.8000000000000D-01  1.7969033712931D+00  5.7061674725698D-01
    30  2.9000000000000D-01  1.7466608739427D+00  6.2800358610697D-01
    31  3.0000000000000D-01  1.6876527789460D+00  6.8914282639235D-01
    32  3.1000000000000D-01  1.6202180754712D+00  7.5383273746332D-01
    33  3.2000000000000D-01  1.5447621588861D+00  8.2180047285966D-01
    34  3.3000000000000D-01  1.4617555177407D+00  8.9270147942111D-01
    35  3.4000000000000D-01  1.3717316221884D+00  9.6612014111934D-01
    36  3.5000000000000D-01  1.2752840040603D+00  1.0415716952743D+00
    37  3.6000000000000D-01  1.1730625316830D+00  1.1185054360732D+00
    38  3.7000000000000D-01  1.0657688957681D+00  1.1963091967815D+00
    39  3.8000000000000D-01  9.5415133606580D-01  1.2743150781389D+00
    40  3.9000000000000D-01  8.3899865174012D-01  1.3518063666336D+00
    41  4.0000000000000D-01  7.2113355132640D-01  1.4280255630744D+00
    42  4.1000000000000D-01  6.0140541044694D-01  1.5021834195940D+00
    43  4.2000000000000D-01  4.8068251694392D-01  1.5734688623547D+00
    44  4.3000000000000D-01  3.5984389351850D-01  1.6410596581949D+00
    45  4.4000000000000D-01  2.3977079712958D-01  1.7041336666535D+00
    46  4.5000000000000D-01  1.2133800211786D-01  1.7618805045827D+00
    47  4.6000000000000D-01  5.4049801115688D-03  1.8135134392199D+00
    48  4.7000000000000D-01 -1.0719290589896D-01  1.8582813173920D+00
    49  4.8000000000000D-01 -2.1565307346804D-01  1.8954803336746D+00
    50  4.9000000000000D-01 -3.1921413821575D-01  1.9244654389625D+00
    51  5.0000000000000D-01 -4.1716395806585D-01  1.9446611931018D+00
    52  5.1000000000000D-01 -5.0884718876077D-01  1.9555718709954D+00
    53  5.2000000000000D-01 -5.9367224063189D-01  1.9567906408607D+00
    54  5.3000000000000D-01 -6.7111753391296D-01  1.9480076459674D+00
    55  5.4000000000000D-01 -7.4073695896423D-01  1.9290168369939D+00
    56  5.5000000000000D-01 -8.0216445851405D-01  1.8997214208892D+00
    57  5.6000000000000D-01 -8.5511766121998D-01  1.8601378134595D+00
    58  5.7000000000000D-01 -8.9940050930222D-01  1.8103980064236D+00
    59  5.8000000000000D-01 -9.3490483752510D-01  1.7507502850683D+00
    60  5.9000000000000D-01 -9.6161087604001D-01  1.6815582592302D+00
    61  6.0000000000000D-01 -9.7958666544307D-01  1.6032981979079D+00
    62  6.1000000000000D-01 -9.8898638837464D-01  1.5165546855329D+00
    63  6.2000000000000D-01 -9.9004763798214D-01  1.4220146455688D+00
    64  6.3000000000000D-01 -9.8308765917883D-01  1.3204598039401D+00
    65  6.4000000000000D-01 -9.6849861357136D-01  1.2127576902930D+00
    66  6.5000000000000D-01 -9.4674193304872D-01  1.0998512989758D+00
    67  6.6000000000000D-01 -9.1834183986772D-01  9.8274755308925D-01
    68  6.7000000000000D-01 -8.8387812255062D-01  8.6250473383692D-01
    69  6.8000000000000D-01 -8.4397826677572D-01  7.4021905325269D-01
    70  6.9000000000000D-01 -7.9930904844845D-01  6.1701056076862D-01
    71  7.0000000000000D-01 -7.5056770220328D-01  4.9400858288518D-01
    72  7.1000000000000D-01 -6.9847278258979D-01  3.7233690019361D-01
    73  7.2000000000000D-01 -6.4375483701978D-01  2.5309886701420D-01
    74  7.3000000000000D-01 -5.8714700921389D-01  1.3736267599381D-01
    75  7.4000000000000D-01 -5.2937568935974D-01  2.6146963125624D-02
    76  7.5000000000000D-01 -4.7115132259684D-01 -7.9593061921368D-02
    77  7.6000000000000D-01 -4.1315948076291D-01 -1.7897878957788D-01
    78  7.7000000000000D-01 -3.5605229382588D-01 -2.7122053516451D-01
    79  7.8000000000000D-01 -3.0044032718472D-01 -3.5562888211130D-01
    80  7.9000000000000D-01 -2.4688497928174D-01 -4.3162493407299D-01
    81  8.0000000000000D-01 -1.9589146096435D-01 -4.9874939154669D-01
    82  8.1000000000000D-01 -1.4790240402729D-01 -5.5667039532431D-01
    83  8.2000000000000D-01 -1.0329213163725D-01 -6.0519010688379D-01
    84  8.3000000000000D-01 -6.2361608186410D-02 -6.4425002408015D-01
    85  8.4000000000000D-01 -2.5334069259518D-02 -6.7393506230558D-01
    86  8.5000000000000D-01  7.6486802901987D-03 -6.9447645257397D-01
    87  8.6000000000000D-01  3.6529234603001D-02 -7.0625332810440D-01
    88  8.7000000000000D-01  6.1336439551594D-02 -7.0979211393022D-01
    89  8.8000000000000D-01  8.2169104329267D-02 -7.0572505579743D-01
    90  8.9000000000000D-01  9.9173099419033D-02 -6.9473658239183D-01
    91  9.0000000000000D-01  1.1253303021133D-01 -6.7754538545094D-01
    92  9.1000000000000D-01  1.2246776443647D-01 -6.5489599255013D-01
    93  9.2000000000000D-01  1.2922502902446D-01 -6.2754853778281D-01
    94  9.3000000000000D-01  1.3307588948334D-01 -5.9626861179050D-01
    95  9.4000000000000D-01  1.3430911035670D-01 -5.6181713153308D-01
    96  9.5000000000000D-01  1.3322549066562D-01 -5.2494040152304D-01
    97  9.6000000000000D-01  1.3013227993557D-01 -4.8636056334480D-01
    98  9.7000000000000D-01  1.2533777170482D-01 -4.4676660978889D-01
    99  9.8000000000000D-01  1.1914616581109D-01 -4.0680612744899D-01
   100  9.9000000000000D-01  1.1185278322516D-01 -3.6707791542655D-01
   101  1.0000000000000D+00  1.0373970851268D-01 -3.2812560948809D-01
   102  1.0100000000000D+00  9.5071924436923D-02 -2.9043241913844D-01
   103  1.0200000000000D+00  8.6093992200096D-02 -2.5441706254968D-01
   104  1.0300000000000D+00  7.7027318603979D-02 -2.2043095952994D-01
   105  1.0400000000000D+00  6.8068038786965D-02 -1.8875671735538D-01
   106  1.0500000000000D+00  5.9385529620158D-02 -1.5960791723846D-01
   107  1.0600000000000D+00  5.1121557076835D-02 -1.3313018587305D-01
   108  1.0700000000000D+00  4.3390046171428D-02 -1.0940350754011D-01
   109  1.0800000000000D+00  3.6277450859494D-02 -8.8445710389815D-02
   110  1.0900000000000D+00  2.9843688982633D-02 -7.0217036625931D-02
   111  1.1000000000000D+00  2.4123596323150D-02 -5.4625685172284D-02
   112  1.1100000000000D+00  1.9128845067612D-02 -4.1534198663339D-02
   113  1.1200000000000D+00  1.4850261882893D-02 -3.0766547670447D-02
   114  1.1300000000000D+00  1.1260475195675D-02 -2.2115754804855D-02
   115  1.1400000000000D+00  8.3168153636798D-03 -1.5351890927922D-02
   116  1.1500000000000D+00  5.9643881758910D-03 -1.0230270078967D-02
   117  1.1600000000000D+00  4.1392393653121D-03 -6.4996659494701D-03
   118  1.1700000000000D+00  2.7715284726339D-03 -3.9103750841270D-03
   119  1.1800000000000D+00  1.7886325132523D-03 -2.2219577633702D-03
   120  1.1900000000000D+00  1.1181011783764D-03 -1.2104910093230D-03
   121  1.2000000000000D+00  6.9039250727580D-04 -6.7518451188049D-04
   122  1.2100000000000D+00  4.4181830146398D-04 -4.4509948795354D-04
   123  1.2200000000000D+00  3.1190312672991D-04 -3.7600106842576D-04
   124  1.2300000000000D+00  2.5920596970791D-04 -3.7799347096763D-04
   125  1.2400000000000D+00  2.6879416150431D-04 -4.2729027230325D-04
   126  1.2500000000000D+00  1.9565248909998D-04 -3.1485346705055D-04
   127  1.2600000000000D+00  2.2465591768053D-05 -3.6158174929089D-05
   128  1.2700000000000D+00 -2.3902686619364D-05  3.8687382659063D-05
   129  1.2800000000000D+00  4.0561913889079D-06 -6.5698685717599D-06
   130  1.2900000000000D+00  2.1634540922990D-06 -3.5066724359697D-06
   131  1.3000000000000D+00 -6.8477458660569D-07  1.0999910655201D-06
   132  1.3100000000000D+00  0.0000000000000D+00  0.0000000000000D+00
   133  1.3200000000000D+00  0.0000000000000D+00  0.0000000000000D+00
   134  1.3300000000000D+00  0.0000000000000D+00  0.0000000000000D+00
   135  1.3400000000000D+00  0.0000000000000D+00  0.0000000000000D+00
   136  1.3500000000000D+00  0.0000000000000D+00  0.0000000000000D+00
   137  1.3600000000000D+00  0.0000000000000D+00  0.0000000000000D+00
   138  1.3700000000000D+00  0.0000000000000D+00  0.0000000000000D+00
   139  1.3800000000000D+00  0.0000000000000D+00  0.0000000000000D+00
   140  1.3900000000000D+00  0.0000000000000D+00  0.0000000000000D+00
   141  1.4000000000000D+00  0.0000000000000D+00  0.0000000000000D+00
   142  1.4100000000000D+00  0.0000000000000D+00  0.0000000000000D+00
   143  1.4200000000000D+00  0.0000000000000D+00  0.0000000000000D+00
   144  1.4300000000000D+00  0.0000000000000D+00  0.0000000000000D+00
   145  1.4400000000000D+00  0.0000000000000D+00  0.0000000000000D+00
   146  1.4500000000000D+00  0.0000000000000D+00  0.0000000000000D+00
   147  1.4600000000000D+00  0.0000000000000D+00  0.0000000000000D+00
   148  1.4700000000000D+00  0.0000000000000D+00  0.0000000000000D+00
   149  1.4800000000000D+00  0.0000000000000D+00  0.0000000000000D+00
   150  1.4900000000000D+00  0.0000000000000D+00  0.0000000000000D+00
   151  1.5000000000000D+00  0.0000000000000D+00  0.0000000000000D+00
   152  1.5100000000000D+00  0.0000000000000D+00  0.0000000000000D+00
   153  1.5200000000000D+00  0.0000000000000D+00  0.0000000000000D+00
   154  1.5300000000000D+00  0.0000000000000D+00  0.0000000000000D+00
   155  1.5400000000000D+00  0.0000000000000D+00  0.0000000000000D+00
   156  1.5500000000000D+00  0.0000000000000D+00  0.0000000000000D+00
   157  1.5600000000000D+00  0.0000000000000D+00  0.0000000000000D+00
   158  1.5700000000000D+00  0.0000000000000D+00  0.0000000000000D+00
   159  1.5800000000000D+00  0.0000000000000D+00  0.0000000000000D+00
   160  1.5900000000000D+00  0.0000000000000D+00  0.0000000000000D+00
   161  1.6000000000000D+00  0.0000000000000D+00  0.0000000000000D+00
   162  1.6100000000000D+00  0.0000000000000D+00  0.0000000000000D+00
   163  1.6200000000000D+00  0.0000000000000D+00  0.0000000000000D+00
   164  1.6300000000000D+00  0.0000000000000D+00  0.0000000000000D+00
   165  1.6400000000000D+00  0.0000000000000D+00  0.0000000000000D+00
   166  1.6500000000000D+00  0.0000000000000D+00  0.0000000000000D+00
   167  1.6600000000000D+00  0.0000000000000D+00  0.0000000000000D+00
   168  1.6700000000000D+00  0.0000000000000D+00  0.0000000000000D+00
   169  1.6800000000000D+00  0.0000000000000D+00  0.0000000000000D+00
   170  1.6900000000000D+00  0.0000000000000D+00  0.0000000000000D+00
   171  1.7000000000000D+00  0.0000000000000D+00  0.0000000000000D+00
   172  1.7100000000000D+00  0.0000000000000D+00  0.0000000000000D+00
   173  1.7200000000000D+00  0.0000000000000D+00  0.0000000000000D+00
   174  1.7300000000000D+00  0.0000000000000D+00  0.0000000000000D+00
   175  1.7400000000000D+00  0.0000000000000D+00  0.0000000000000D+00
   176  1.7500000000000D+00  0.0000000000000D+00  0.0000000000000D+00
   177  1.7600000000000D+00  0.0000000000000D+00  0.0000000000000D+00
   178  1.7700000000000D+00  0.0000000000000D+00  0.0000000000000D+00
   179  1.7800000000000D+00  0.0000000000000D+00  0.0000000000000D+00
   180  1.7900000000000D+00  0.0000000000000D+00  0.0000000000000D+00
   181  1.8000000000000D+00  0.0000000000000D+00  0.0000000000000D+00
   182  1.8100000000000D+00  0.0000000000000D+00  0.0000000000000D+00
   183  1.8200000000000D+00  0.0000000000000D+00  0.0000000000000D+00
   184  1.8300000000000D+00  0.0000000000000D+00  0.0000000000000D+00
   185  1.8400000000000D+00  0.0000000000000D+00  0.0000000000000D+00
   186  1.8500000000000D+00  0.0000000000000D+00  0.0000000000000D+00
   187  1.8600000000000D+00  0.0000000000000D+00  0.0000000000000D+00
   188  1.8700000000000D+00  0.0000000000000D+00  0.0000000000000D+00
   189  1.8800000000000D+00  0.0000000000000D+00  0.0000000000000D+00
   190  1.8900000000000D+00  0.0000000000000D+00  0.0000000000000D+00
   191  1.9000000000000D+00  0.0000000000000D+00  0.0000000000000D+00
   192  1.9100000000000D+00  0.0000000000000D+00  0.0000000000000D+00
   193  1.9200000000000D+00  0.0000000000000D+00  0.0000000000000D+00
   194  1.9300000000000D+00  0.0000000000000D+00  0.0000000000000D+00
   195  1.9400000000000D+00  0.0000000000000D+00  0.0000000000000D+00
   196  1.9500000000000D+00  0.0000000000000D+00  0.0000000000000D+00
   197  1.9600000000000D+00  0.0000000000000D+00  0.0000000000000D+00
   198  1.9700000000000D+00  0.0000000000000D+00  0.0000000000000D+00
   199  1.9800000000000D+00  0.0000000000000D+00  0.0000000000000D+00
   200  1.9900000000000D+00  0.0000000000000D+00  0.0000000000000D+00
   201  2.0000000000000D+00  0.0000000000000D+00  0.0000000000000D+00
   202  2.0100000000000D+00  0.0000000000000D+00  0.0000000000000D+00
   203  2.0200000000000D+00  0.0000000000000D+00  0.0000000000000D+00
   204  2.0300000000000D+00  0.0000000000000D+00  0.0000000000000D+00
   205  2.0400000000000D+00  0.0000000000000D+00  0.0000000000000D+00
   206  2.0500000000000D+00  0.0000000000000D+00  0.0000000000000D+00
   207  2.0600000000000D+00  0.0000000000000D+00  0.0000000000000D+00
   208  2.0700000000000D+00  0.0000000000000D+00  0.0000000000000D+00
   209  2.0800000000000D+00  0.0000000000000D+00  0.0000000000000D+00
   210  2.0900000000000D+00  0.0000000000000D+00  0.0000000000000D+00
   211  2.1000000000000D+00  0.0000000000000D+00  0.0000000000000D+00
   212  2.1100000000000D+00  0.0000000000000D+00  0.0000000000000D+00
   213  2.1200000000000D+00  0.0000000000000D+00  0.0000000000000D+00
   214  2.1300000000000D+00  0.0000000000000D+00  0.0000000000000D+00
   215  2.1400000000000D+00  0.0000000000000D+00  0.0000000000000D+00
   216  2.1500000000000D+00  0.0000000000000D+00  0.0000000000000D+00
   217  2.1600000000000D+00  0.0000000000000D+00  0.0000000000000D+00
   218  2.1700000000000D+00  0.0000000000000D+00  0.0000000000000D+00
   219  2.1800000000000D+00  0.0000000000000D+00  0.0000000000000D+00
   220  2.1900000000000D+00  0.0000000000000D+00  0.0000000000000D+00
   221  2.2000000000000D+00  0.0000000000000D+00  0.0000000000000D+00
   222  2.2100000000000D+00  0.0000000000000D+00  0.0000000000000D+00
   223  2.2200000000000D+00  0.0000000000000D+00  0.0000000000000D+00
   224  2.2300000000000D+00  0.0000000000000D+00  0.0000000000000D+00
   225  2.2400000000000D+00  0.0000000000000D+00  0.0000000000000D+00
   226  2.2500000000000D+00  0.0000000000000D+00  0.0000000000000D+00
   227  2.2600000000000D+00  0.0000000000000D+00  0.0000000000000D+00
   228  2.2700000000000D+00  0.0000000000000D+00  0.0000000000000D+00
   229  2.2800000000000D+00  0.0000000000000D+00  0.0000000000000D+00
   230  2.2900000000000D+00  0.0000000000000D+00  0.0000000000000D+00
   231  2.3000000000000D+00  0.0000000000000D+00  0.0000000000000D+00
   232  2.3100000000000D+00  0.0000000000000D+00  0.0000000000000D+00
   233  2.3200000000000D+00  0.0000000000000D+00  0.0000000000000D+00
   234  2.3300000000000D+00  0.0000000000000D+00  0.0000000000000D+00
   235  2.3400000000000D+00  0.0000000000000D+00  0.0000000000000D+00
   236  2.3500000000000D+00  0.0000000000000D+00  0.0000000000000D+00
   237  2.3600000000000D+00  0.0000000000000D+00  0.0000000000000D+00
   238  2.3700000000000D+00  0.0000000000000D+00  0.0000000000000D+00
   239  2.3800000000000D+00  0.0000000000000D+00  0.0000000000000D+00
   240  2.3900000000000D+00  0.0000000000000D+00  0.0000000000000D+00
   241  2.4000000000000D+00  0.0000000000000D+00  0.0000000000000D+00
   242  2.4100000000000D+00  0.0000000000000D+00  0.0000000000000D+00
   243  2.4200000000000D+00  0.0000000000000D+00  0.0000000000000D+00
   244  2.4300000000000D+00  0.0000000000000D+00  0.0000000000000D+00
   245  2.4400000000000D+00  0.0000000000000D+00  0.0000000000000D+00
   246  2.4500000000000D+00  0.0000000000000D+00  0.0000000000000D+00
   247  2.4600000000000D+00  0.0000000000000D+00  0.0000000000000D+00
   248  2.4700000000000D+00  0.0000000000000D+00  0.0000000000000D+00
   249  2.4800000000000D+00  0.0000000000000D+00  0.0000000000000D+00
   250  2.4900000000000D+00  0.0000000000000D+00  0.0000000000000D+00
   251  2.5000000000000D+00  0.0000000000000D+00  0.0000000000000D+00
   252  2.5100000000000D+00  0.0000000000000D+00  0.0000000000000D+00
   253  2.5200000000000D+00  0.0000000000000D+00  0.0000000000000D+00
   254  2.5300000000000D+00  0.0000000000000D+00  0.0000000000000D+00
   255  2.5400000000000D+00  0.0000000000000D+00  0.0000000000000D+00
   256  2.5500000000000D+00  0.0000000000000D+00  0.0000000000000D+00
   257  2.5600000000000D+00  0.0000000000000D+00  0.0000000000000D+00
   258  2.5700000000000D+00  0.0000000000000D+00  0.0000000000000D+00
   259  2.5800000000000D+00  0.0000000000000D+00  0.0000000000000D+00
   260  2.5900000000000D+00  0.0000000000000D+00  0.0000000000000D+00
   261  2.6000000000000D+00  0.0000000000000D+00  0.0000000000000D+00
   262  2.6100000000000D+00  0.0000000000000D+00  0.0000000000000D+00
   263  2.6200000000000D+00  0.0000000000000D+00  0.0000000000000D+00
   264  2.6300000000000D+00  0.0000000000000D+00  0.0000000000000D+00
   265  2.6400000000000D+00  0.0000000000000D+00  0.0000000000000D+00
   266  2.6500000000000D+00  0.0000000000000D+00  0.0000000000000D+00
   267  2.6600000000000D+00  0.0000000000000D+00  0.0000000000000D+00
   268  2.6700000000000D+00  0.0000000000000D+00  0.0000000000000D+00
   269  2.6800000000000D+00  0.0000000000000D+00  0.0000000000000D+00
   270  2.6900000000000D+00  0.0000000000000D+00  0.0000000000000D+00
   271  2.7000000000000D+00  0.0000000000000D+00  0.0000000000000D+00
   272  2.7100000000000D+00  0.0000000000000D+00  0.0000000000000D+00
   273  2.7200000000000D+00  0.0000000000000D+00  0.0000000000000D+00
   274  2.7300000000000D+00  0.0000000000000D+00  0.0000000000000D+00
   275  2.7400000000000D+00  0.0000000000000D+00  0.0000000000000D+00
   276  2.7500000000000D+00  0.0000000000000D+00  0.0000000000000D+00
   277  2.7600000000000D+00  0.0000000000000D+00  0.0000000000000D+00
   278  2.7700000000000D+00  0.0000000000000D+00  0.0000000000000D+00
   279  2.7800000000000D+00  0.0000000000000D+00  0.0000000000000D+00
   280  2.7900000000000D+00  0.0000000000000D+00  0.0000000000000D+00
   281  2.8000000000000D+00  0.0000000000000D+00  0.0000000000000D+00
   282  2.8100000000000D+00  0.0000000000000D+00  0.0000000000000D+00
   283  2.8200000000000D+00  0.0000000000000D+00  0.0000000000000D+00
   284  2.8300000000000D+00  0.0000000000000D+00  0.0000000000000D+00
   285  2.8400000000000D+00  0.0000000000000D+00  0.0000000000000D+00
   286  2.8500000000000D+00  0.0000000000000D+00  0.0000000000000D+00
   287  2.8600000000000D+00  0.0000000000000D+00  0.0000000000000D+00
   288  2.8700000000000D+00  0.0000000000000D+00  0.0000000000000D+00
   289  2.8800000000000D+00  0.0000000000000D+00  0.0000000000000D+00
   290  2.8900000000000D+00  0.0000000000000D+00  0.0000000000000D+00
   291  2.9000000000000D+00  0.0000000000000D+00  0.0000000000000D+00
   292  2.9100000000000D+00  0.0000000000000D+00  0.0000000000000D+00
   293  2.9200000000000D+00  0.0000000000000D+00  0.0000000000000D+00
   294  2.9300000000000D+00  0.0000000000000D+00  0.0000000000000D+00
   295  2.9400000000000D+00  0.0000000000000D+00  0.0000000000000D+00
   296  2.9500000000000D+00  0.0000000000000D+00  0.0000000000000D+00
   297  2.9600000000000D+00  0.0000000000000D+00  0.0000000000000D+00
   298  2.9700000000000D+00  0.0000000000000D+00  0.0000000000000D+00
   299  2.9800000000000D+00  0.0000000000000D+00  0.0000000000000D+00
   300  2.9900000000000D+00  0.0000000000000D+00  0.0000000000000D+00
   301  3.0000000000000D+00  0.0000000000000D+00  0.0000000000000D+00
   302  3.0100000000000D+00  0.0000000000000D+00  0.0000000000000D+00
   303  3.0200000000000D+00  0.0000000000000D+00  0.0000000000000D+00
   304  3.0300000000000D+00  0.0000000000000D+00  0.0000000000000D+00
   305  3.0400000000000D+00  0.0000000000000D+00  0.0000000000000D+00
   306  3.0500000000000D+00  0.0000000000000D+00  0.0000000000000D+00
   307  3.0600000000000D+00  0.0000000000000D+00  0.0000000000000D+00
   308  3.0700000000000D+00  0.0000000000000D+00  0.0000000000000D+00
   309  3.0800000000000D+00  0.0000000000000D+00  0.0000000000000D+00
   310  3.0900000000000D+00  0.0000000000000D+00  0.0000000000000D+00
   311  3.1000000000000D+00  0.0000000000000D+00  0.0000000000000D+00
   312  3.1100000000000D+00  0.0000000000000D+00  0.0000000000000D+00
   313  3.1200000000000D+00  0.0000000000000D+00  0.0000000000000D+00
   314  3.1300000000000D+00  0.0000000000000D+00  0.0000000000000D+00
   315  3.1400000000000D+00  0.0000000000000D+00  0.0000000000000D+00
   316  3.1500000000000D+00  0.0000000000000D+00  0.0000000000000D+00
   317  3.1600000000000D+00  0.0000000000000D+00  0.0000000000000D+00
   318  3.1700000000000D+00  0.0000000000000D+00  0.0000000000000D+00
   319  3.1800000000000D+00  0.0000000000000D+00  0.0000000000000D+00
   320  3.1900000000000D+00  0.0000000000000D+00  0.0000000000000D+00
   321  3.2000000000000D+00  0.0000000000000D+00  0.0000000000000D+00
   322  3.2100000000000D+00  0.0000000000000D+00  0.0000000000000D+00
   323  3.2200000000000D+00  0.0000000000000D+00  0.0000000000000D+00
   324  3.2300000000000D+00  0.0000000000000D+00  0.0000000000000D+00
   325  3.2400000000000D+00  0.0000000000000D+00  0.0000000000000D+00
   326  3.2500000000000D+00  0.0000000000000D+00  0.0000000000000D+00
   327  3.2600000000000D+00  0.0000000000000D+00  0.0000000000000D+00
   328  3.2700000000000D+00  0.0000000000000D+00  0.0000000000000D+00
   329  3.2800000000000D+00  0.0000000000000D+00  0.0000000000000D+00
   330  3.2900000000000D+00  0.0000000000000D+00  0.0000000000000D+00
   331  3.3000000000000D+00  0.0000000000000D+00  0.0000000000000D+00
   332  3.3100000000000D+00  0.0000000000000D+00  0.0000000000000D+00
   333  3.3200000000000D+00  0.0000000000000D+00  0.0000000000000D+00
   334  3.3300000000000D+00  0.0000000000000D+00  0.0000000000000D+00
   335  3.3400000000000D+00  0.0000000000000D+00  0.0000000000000D+00
   336  3.3500000000000D+00  0.0000000000000D+00  0.0000000000000D+00
   337  3.3600000000000D+00  0.0000000000000D+00  0.0000000000000D+00
   338  3.3700000000000D+00  0.0000000000000D+00  0.0000000000000D+00
   339  3.3800000000000D+00  0.0000000000000D+00  0.0000000000000D+00
   340  3.3900000000000D+00  0.0000000000000D+00  0.0000000000000D+00
   341  3.4000000000000D+00  0.0000000000000D+00  0.0000000000000D+00
   342  3.4100000000000D+00  0.0000000000000D+00  0.0000000000000D+00
   343  3.4200000000000D+00  0.0000000000000D+00  0.0000000000000D+00
   344  3.4300000000000D+00  0.0000000000000D+00  0.0000000000000D+00
   345  3.4400000000000D+00  0.0000000000000D+00  0.0000000000000D+00
   346  3.4500000000000D+00  0.0000000000000D+00  0.0000000000000D+00
   347  3.4600000000000D+00  0.0000000000000D+00  0.0000000000000D+00
   348  3.4700000000000D+00  0.0000000000000D+00  0.0000000000000D+00
   349  3.4800000000000D+00  0.0000000000000D+00  0.0000000000000D+00
   350  3.4900000000000D+00  0.0000000000000D+00  0.0000000000000D+00
   351  3.5000000000000D+00  0.0000000000000D+00  0.0000000000000D+00
   352  3.5100000000000D+00  0.0000000000000D+00  0.0000000000000D+00
   353  3.5200000000000D+00  0.0000000000000D+00  0.0000000000000D+00
   354  3.5300000000000D+00  0.0000000000000D+00  0.0000000000000D+00
   355  3.5400000000000D+00  0.0000000000000D+00  0.0000000000000D+00
   356  3.5500000000000D+00  0.0000000000000D+00  0.0000000000000D+00
   357  3.5600000000000D+00  0.0000000000000D+00  0.0000000000000D+00
   358  3.5700000000000D+00  0.0000000000000D+00  0.0000000000000D+00
   359  3.5800000000000D+00  0.0000000000000D+00  0.0000000000000D+00
   360  3.5900000000000D+00  0.0000000000000D+00  0.0000000000000D+00
   361  3.6000000000000D+00  0.0000000000000D+00  0.0000000000000D+00
   362  3.6100000000000D+00  0.0000000000000D+00  0.0000000000000D+00
   363  3.6200000000000D+00  0.0000000000000D+00  0.0000000000000D+00
   364  3.6300000000000D+00  0.0000000000000D+00  0.0000000000000D+00
   365  3.6400000000000D+00  0.0000000000000D+00  0.0000000000000D+00
   366  3.6500000000000D+00  0.0000000000000D+00  0.0000000000000D+00
   367  3.6600000000000D+00  0.0000000000000D+00  0.0000000000000D+00
   368  3.6700000000000D+00  0.0000000000000D+00  0.0000000000000D+00
   369  3.6800000000000D+00  0.0000000000000D+00  0.0000000000000D+00
   370  3.6900000000000D+00  0.0000000000000D+00  0.0000000000000D+00
   371  3.7000000000000D+00  0.0000000000000D+00  0.0000000000000D+00
   372  3.7100000000000D+00  0.0000000000000D+00  0.0000000000000D+00
   373  3.7200000000000D+00  0.0000000000000D+00  0.0000000000000D+00
   374  3.7300000000000D+00  0.0000000000000D+00  0.0000000000000D+00
   375  3.7400000000000D+00  0.0000000000000D+00  0.0000000000000D+00
   376  3.7500000000000D+00  0.0000000000000D+00  0.0000000000000D+00
   377  3.7600000000000D+00  0.0000000000000D+00  0.0000000000000D+00
   378  3.7700000000000D+00  0.0000000000000D+00  0.0000000000000D+00
   379  3.7800000000000D+00  0.0000000000000D+00  0.0000000000000D+00
   380  3.7900000000000D+00  0.0000000000000D+00  0.0000000000000D+00
   381  3.8000000000000D+00  0.0000000000000D+00  0.0000000000000D+00
   382  3.8100000000000D+00  0.0000000000000D+00  0.0000000000000D+00
   383  3.8200000000000D+00  0.0000000000000D+00  0.0000000000000D+00
   384  3.8300000000000D+00  0.0000000000000D+00  0.0000000000000D+00
   385  3.8400000000000D+00  0.0000000000000D+00  0.0000000000000D+00
   386  3.8500000000000D+00  0.0000000000000D+00  0.0000000000000D+00
   387  3.8600000000000D+00  0.0000000000000D+00  0.0000000000000D+00
   388  3.8700000000000D+00  0.0000000000000D+00  0.0000000000000D+00
   389  3.8800000000000D+00  0.0000000000000D+00  0.0000000000000D+00
   390  3.8900000000000D+00  0.0000000000000D+00  0.0000000000000D+00
   391  3.9000000000000D+00  0.0000000000000D+00  0.0000000000000D+00
   392  3.9100000000000D+00  0.0000000000000D+00  0.0000000000000D+00
   393  3.9200000000000D+00  0.0000000000000D+00  0.0000000000000D+00
   394  3.9300000000000D+00  0.0000000000000D+00  0.0000000000000D+00
   395  3.9400000000000D+00  0.0000000000000D+00  0.0000000000000D+00
   396  3.9500000000000D+00  0.0000000000000D+00  0.0000000000000D+00
   397  3.9600000000000D+00  0.0000000000000D+00  0.0000000000000D+00
   398  3.9700000000000D+00  0.0000000000000D+00  0.0000000000000D+00
   399  3.9800000000000D+00  0.0000000000000D+00  0.0000000000000D+00
   400  3.9900000000000D+00  0.0000000000000D+00  0.0000000000000D+00
   401  4.0000000000000D+00  0.0000000000000D+00  0.0000000000000D+00
   402  4.0100000000000D+00  0.0000000000000D+00  0.0000000000000D+00
   403  4.0200000000000D+00  0.0000000000000D+00  0.0000000000000D+00
   404  4.0300000000000D+00  0.0000000000000D+00  0.0000000000000D+00
   405  4.0400000000000D+00  0.0000000000000D+00  0.0000000000000D+00
   406  4.0500000000000D+00  0.0000000000000D+00  0.0000000000000D+00
   407  4.0600000000000D+00  0.0000000000000D+00  0.0000000000000D+00
   408  4.0700000000000D+00  0.0000000000000D+00  0.0000000000000D+00
   409  4.0800000000000D+00  0.0000000000000D+00  0.0000000000000D+00
   410  4.0900000000000D+00  0.0000000000000D+00  0.0000000000000D+00
   411  4.1000000000000D+00  0.0000000000000D+00  0.0000000000000D+00
   412  4.1100000000000D+00  0.0000000000000D+00  0.0000000000000D+00
   413  4.1200000000000D+00  0.0000000000000D+00  0.0000000000000D+00
   414  4.1300000000000D+00  0.0000000000000D+00  0.0000000000000D+00
   415  4.1400000000000D+00  0.0000000000000D+00  0.0000000000000D+00
   416  4.1500000000000D+00  0.0000000000000D+00  0.0000000000000D+00
   417  4.1600000000000D+00  0.0000000000000D+00  0.0000000000000D+00
   418  4.1700000000000D+00  0.0000000000000D+00  0.0000000000000D+00
   419  4.1800000000000D+00  0.0000000000000D+00  0.0000000000000D+00
   420  4.1900000000000D+00  0.0000000000000D+00  0.0000000000000D+00
   421  4.2000000000000D+00  0.0000000000000D+00  0.0000000000000D+00
   422  4.2100000000000D+00  0.0000000000000D+00  0.0000000000000D+00
   423  4.2200000000000D+00  0.0000000000000D+00  0.0000000000000D+00