Mg    ONCVPSP-3.3.1  r_core=   1.24667   2.52001
     12.0000     10.0000      210904    zatom,zion,pspd
     8      11   1     4   600     0    pspcod,pspxc,lmax,lloc,mmax,r2well
  5.99000000  0.00000000  0.00000000    rchrg fchrg qchrg
     2     2     0     0    nproj
     3     1           extension_switch
     3     0     0    nprojso
   0                         1.2168500342788D+00  8.1318180222192D+00
     1  0.0000000000000D+00 -1.0212984874469D-08  5.1160954361862D-09
     2  1.0000000000000D-02  9.1453881298622D-03  1.2665846980035D-01
     3  2.0000000000000D-02  1.8270244948463D-02  2.5280214060473D-01
     4  3.0000000000000D-02  2.7358671832423D-02  3.7791637603575D-01
     5  4.0000000000000D-02  3.6403907373509D-02  5.0148691875904D-01
     6  5.0000000000000D-02  4.5412578260605D-02  6.2300021317614D-01
     7  6.0000000000000D-02  5.4408576334030D-02  7.4194388418810D-01
     8  7.0000000000000D-02  6.3436449460110D-02  8.5780741790614D-01
     9  8.0000000000000D-02  7.2564204086906D-02  9.7008308506902D-01
    10  9.0000000000000D-02  8.1885429747694D-02  1.0782671417205D+00
    11  1.0000000000000D-01  9.1520670144944D-02  1.1818613345238D+00
    12  1.1000000000000D-01  1.0161798150697D-01  1.2803747300833D+00
    13  1.2000000000000D-01  1.1235263635723D-01  1.3733258789671D+00
    14  1.3000000000000D-01  1.2392594934625D-01  1.4602453159463D+00
    15  1.4000000000000D-01  1.3656322101310D-01  1.5406783884716D+00
    16  1.5000000000000D-01  1.5051081490206D-01  1.6141883957907D+00
    17  1.6000000000000D-01  1.6603240298150D-01  1.6803600115612D+00
    18  1.7000000000000D-01  1.8340443341713D-01  1.7388029535347D+00
    19  1.8000000000000D-01  2.0291089306270D-01  1.7891558550738D+00
    20  1.9000000000000D-01  2.2483745418513D-01  1.8310902851028D+00
    21  2.0000000000000D-01  2.4946511058618D-01  1.8643148557646D+00
    22  2.1000000000000D-01  2.7706342209870D-01  1.8885793507291D+00
    23  2.2000000000000D-01  3.0788349812624D-01  1.9036788019230D+00
    24  2.3000000000000D-01  3.4215086020245D-01  1.9094574385566D+00
    25  2.4000000000000D-01  3.8005833025579D-01  1.9058124298240D+00
    26  2.5000000000000D-01  4.2175909520373D-01  1.8926973416288D+00
    27  2.6000000000000D-01  4.6736009954581D-01  1.8701252282030D+00
    28  2.7000000000000D-01  5.1691591571179D-01  1.8381712815695D+00
    29  2.8000000000000D-01  5.7042323702999D-01  1.7969749654518D+00
    30  2.9000000000000D-01  6.2781613035768D-01  1.7467415654297D+00
    31  3.0000000000000D-01  6.8896217475448D-01  1.6877430938244D+00
    32  3.1000000000000D-01  7.5365959923553D-01  1.6203184958772D+00
    33  3.2000000000000D-01  8.2163551681749D-01  1.5448731131536D+00
    34  3.3000000000000D-01  8.9254533402519D-01  1.4618773706193D+00
    35  3.4000000000000D-01  9.6597339505901D-01  1.3718646653229D+00
    36  3.5000000000000D-01  1.0414348982812D+00  1.2754284469073D+00
    37  3.6000000000000D-01  1.1183790999362D+00  1.1732184930394D+00
    38  3.7000000000000D-01  1.1961937964903D+00  1.0659363960806D+00
    39  3.8000000000000D-01  1.2742110530874D+00  9.5433029068957D-01
    40  3.9000000000000D-01  1.3517141218102D+00  8.3918886529974D-01
    41  4.0000000000000D-01  1.4279454701732D+00  7.2133471332367D-01
    42  4.1000000000000D-01  1.5021158179838D+00  6.0161709224246D-01
    43  4.2000000000000D-01  1.5734140598475D+00  4.8090417022196D-01
    44  4.3000000000000D-01  1.6410179315649D+00  3.6007485032296D-01
    45  4.4000000000000D-01  1.7041052618641D+00  2.4001027153646D-01
    46  4.5000000000000D-01  1.7618656366897D+00  1.2158509358447D-01
    47  4.6000000000000D-01  1.8135122919284D+00  5.6586785162927D-03
    48  4.7000000000000D-01  1.8582940422558D+00 -1.0693371353964D-01
    49  4.8000000000000D-01  1.8955070489386D+00 -2.1538959464631D-01
    50  4.9000000000000D-01  1.9245062280592D+00 -3.1894766501208D-01
    51  5.0000000000000D-01  1.9447161028256D+00 -4.1689585575736D-01
    52  5.1000000000000D-01  1.9556409093877D+00 -5.0857888308089D-01
    53  5.2000000000000D-01  1.9568737748519D+00 -5.9340520382858D-01
    54  5.3000000000000D-01  1.9481047988289D+00 -6.7085326977513D-01
    55  5.4000000000000D-01  1.9291278856640D+00 -7.4047698700716D-01
    56  5.5000000000000D-01  1.8998461932436D+00 -8.0191029753158D-01
    57  5.6000000000000D-01  1.8602760856033D+00 -8.5487081242609D-01
    58  5.7000000000000D-01  1.8105495000858D+00 -8.9916243929553D-01
    59  5.8000000000000D-01  1.7509146651850D+00 -9.3467696131729D-01
    60  5.9000000000000D-01  1.6817351318008D+00 -9.6139454039252D-01
    61  6.0000000000000D-01  1.6034871082106D+00 -9.7938313275630D-01
    62  6.1000000000000D-01  1.5167551167831D+00 -9.8879682136924D-01
    63  6.2000000000000D-01  1.4222260180993D+00 -9.8987308540393D-01
    64  6.3000000000000D-01  1.3206814749766D+00 -9.8292904274669D-01
    65  6.4000000000000D-01  1.2129889543922D+00 -9.6835671637194D-01
    66  6.5000000000000D-01  1.1000913891833D+00 -9.4661738956299D-01
    67  6.6000000000000D-01  9.8299564286500D-01 -9.1823512779222D-01
    68  6.7000000000000D-01  8.6275993978620D-01 -8.8378955655226D-01
    69  6.8000000000000D-01  7.4048043868664D-01 -8.4390799429224D-01
    70  6.9000000000000D-01  6.1727714010801D-01 -7.9925704761863D-01
    71  7.0000000000000D-01  4.9427932690714D-01 -7.5053378198171D-01
    72  7.1000000000000D-01  3.7261074210893D-01 -6.9845658507158D-01
    73  7.2000000000000D-01  2.5337470935031D-01 -6.4375584197071D-01
    74  7.3000000000000D-01  1.3763939824628D-01 -5.8716454077254D-01
    75  7.4000000000000D-01  2.6423430130152D-02 -5.2940892485046D-01
    76  7.5000000000000D-01 -7.9317990954481D-02 -4.7119930336620D-01
    77  7.6000000000000D-01 -1.7870625143409D-01 -4.1322112492839D-01
    78  7.7000000000000D-01 -2.7095165247428D-01 -3.5612641080447D-01
    79  7.8000000000000D-01 -3.5536475275842D-01 -3.0052563385102D-01
    80  7.9000000000000D-01 -4.3136662024573D-01 -2.4698011759036D-01
    81  8.0000000000000D-01 -4.9849790851742D-01 -1.9599501686080D-01
    82  8.1000000000000D-01 -5.5642670004334D-01 -1.4801292746429D-01
    83  8.2000000000000D-01 -6.0495508647112D-01 -1.0340815751060D-01
    84  8.3000000000000D-01 -6.4402448429405D-01 -6.2481678006015D-02
    85  8.4000000000000D-01 -6.7371971606126D-01 -2.5456753376500D-02
    86  8.5000000000000D-01 -6.9427190857795D-01  7.5247600702824D-03
    87  8.6000000000000D-01 -7.0606007969451D-01  3.6405382213676D-02
    88  8.7000000000000D-01 -7.0961052840323D-01  6.1213862026465D-02
    89  8.8000000000000D-01 -7.0555537119837D-01  8.2048896436541D-02
    90  8.9000000000000D-01 -6.9457891338991D-01  9.9056237686437D-02
    91  9.0000000000000D-01 -6.7739973126377D-01  1.1242036991269D-01
    92  9.1000000000000D-01 -6.5476224490914D-01  1.2236003775111D-01
    93  9.2000000000000D-01 -6.2742648949115D-01  1.2912284478664D-01
    94  9.3000000000000D-01 -5.9615796569012D-01  1.3297973443257D-01
    95  9.4000000000000D-01 -5.6171750975418D-01  1.3421935182548D-01
    96  9.5000000000000D-01 -5.2485135503594D-01  1.3314238068651D-01
    97  9.6000000000000D-01 -4.8628158172785D-01  1.3005596068058D-01
    98  9.7000000000000D-01 -4.4669713114008D-01  1.2526828215636D-01
    99  9.8000000000000D-01 -4.0674554835474D-01  1.1908344953922D-01
   100  9.9000000000000D-01 -3.6702560089568D-01  1.1179669712676D-01
   101  1.0000000000000D+00 -3.2808090275271D-01  1.0369003235124D-01
   102  1.0100000000000D+00 -2.9039465121953D-01  9.5028371007692D-02
   103  1.0200000000000D+00 -2.5438556148388D-01  8.6056217935626D-02
   104  1.0300000000000D+00 -2.2040505915418D-01  7.6994934428382D-02
   105  1.0400000000000D+00 -1.8873576554825D-01  6.8040621024505D-02
   106  1.0500000000000D+00 -1.5959128352171D-01  5.9362630764955D-02
   107  1.0600000000000D+00 -1.3311726828394D-01  5.1102716235686D-02
   108  1.0700000000000D+00 -1.0939373869203D-01  4.3374798999586D-02
   109  1.0800000000000D+00 -8.8438562649346D-02  3.6265338821584D-02
   110  1.0900000000000D+00 -7.0212026346623D-02  2.9834267786295D-02
   111  1.1000000000000D+00 -5.4622375937640D-02  2.4116443390854D-02
   112  1.1100000000000D+00 -4.1532203504928D-02  1.9123565932258D-02
   113  1.1200000000000D+00 -3.0765530242877D-02  1.4846495416166D-02
   114  1.1300000000000D+00 -2.2115429514193D-02  1.1257897602127D-02
   115  1.1400000000000D+00 -1.5352022025171D-02  8.3151428986923D-03
   116  1.1500000000000D+00 -1.0230669746308D-02  5.9633785719834D-03
   117  1.1600000000000D+00 -6.5001914219985D-03  4.1386919774319D-03
   118  1.1700000000000D+00 -3.9109248643039D-03  2.7712831787391D-03
   119  1.1800000000000D+00 -2.2224669988106D-03  1.7885674310156D-03
   120  1.1900000000000D+00 -1.2109261175510D-03  1.1181292827841D-03
   121  1.2000000000000D+00 -6.7553714648899D-04  6.9045725504689D-04
   122  1.2100000000000D+00 -4.4538040960463D-04  4.4188852260503D-04
   123  1.2200000000000D+00 -3.7622908075497D-04  3.1196583704623D-04
   124  1.2300000000000D+00 -3.7819745339004D-04  2.5926268568820D-04
   125  1.2400000000000D+00 -4.2751699271007D-04  2.6885870783844D-04
   126  1.2500000000000D+00 -3.1502498280507D-04  1.9570237283023D-04
   127  1.2600000000000D+00 -3.6178134710515D-05  2.2471444059205D-05
   128  1.2700000000000D+00  3.8708519881759D-05 -2.3908856105913D-05
   129  1.2800000000000D+00 -6.5734345149067D-06  4.0572286885164D-06
   130  1.2900000000000D+00 -3.5085760772023D-06  2.1640080440411D-06
   131  1.3000000000000D+00  1.1005869511373D-06 -6.8494719032758D-07
   132  1.3100000000000D+00  0.0000000000000D+00  0.0000000000000D+00
   133  1.3200000000000D+00  0.0000000000000D+00  0.0000000000000D+00
   134  1.3300000000000D+00  0.0000000000000D+00  0.0000000000000D+00
   135  1.3400000000000D+00  0.0000000000000D+00  0.0000000000000D+00
   136  1.3500000000000D+00  0.0000000000000D+00  0.0000000000000D+00
   137  1.3600000000000D+00  0.0000000000000D+00  0.0000000000000D+00
   138  1.3700000000000D+00  0.0000000000000D+00  0.0000000000000D+00
   139  1.3800000000000D+00  0.0000000000000D+00  0.0000000000000D+00
   140  1.3900000000000D+00  0.0000000000000D+00  0.0000000000000D+00
   141  1.4000000000000D+00  0.0000000000000D+00  0.0000000000000D+00
   142  1.4100000000000D+00  0.0000000000000D+00  0.0000000000000D+00
   143  1.4200000000000D+00  0.0000000000000D+00  0.0000000000000D+00
   144  1.4300000000000D+00  0.0000000000000D+00  0.0000000000000D+00
   145  1.4400000000000D+00  0.0000000000000D+00  0.0000000000000D+00
   146  1.4500000000000D+00  0.0000000000000D+00  0.0000000000000D+00
   147  1.4600000000000D+00  0.0000000000000D+00  0.0000000000000D+00
   148  1.4700000000000D+00  0.0000000000000D+00  0.0000000000000D+00
   149  1.4800000000000D+00  0.0000000000000D+00  0.0000000000000D+00
   150  1.4900000000000D+00  0.0000000000000D+00  0.0000000000000D+00
   151  1.5000000000000D+00  0.0000000000000D+00  0.0000000000000D+00
   152  1.5100000000000D+00  0.0000000000000D+00  0.0000000000000D+00
   153  1.5200000000000D+00  0.0000000000000D+00  0.0000000000000D+00
   154  1.5300000000000D+00  0.0000000000000D+00  0.0000000000000D+00
   155  1.5400000000000D+00  0.0000000000000D+00  0.0000000000000D+00
   156  1.5500000000000D+00  0.0000000000000D+00  0.0000000000000D+00
   157  1.5600000000000D+00  0.0000000000000D+00  0.0000000000000D+00
   158  1.5700000000000D+00  0.0000000000000D+00  0.0000000000000D+00
   159  1.5800000000000D+00  0.0000000000000D+00  0.0000000000000D+00
   160  1.5900000000000D+00  0.0000000000000D+00  0.0000000000000D+00
   161  1.6000000000000D+00  0.0000000000000D+00  0.0000000000000D+00
   162  1.6100000000000D+00  0.0000000000000D+00  0.0000000000000D+00
   163  1.6200000000000D+00  0.0000000000000D+00  0.0000000000000D+00
   164  1.6300000000000D+00  0.0000000000000D+00  0.0000000000000D+00
   165  1.6400000000000D+00  0.0000000000000D+00  0.0000000000000D+00
   166  1.6500000000000D+00  0.0000000000000D+00  0.0000000000000D+00
   167  1.6600000000000D+00  0.0000000000000D+00  0.0000000000000D+00
   168  1.6700000000000D+00  0.0000000000000D+00  0.0000000000000D+00
   169  1.6800000000000D+00  0.0000000000000D+00  0.0000000000000D+00
   170  1.6900000000000D+00  0.0000000000000D+00  0.0000000000000D+00
   171  1.7000000000000D+00  0.0000000000000D+00  0.0000000000000D+00
   172  1.7100000000000D+00  0.0000000000000D+00  0.0000000000000D+00
   173  1.7200000000000D+00  0.0000000000000D+00  0.0000000000000D+00
   174  1.7300000000000D+00  0.0000000000000D+00  0.0000000000000D+00
   175  1.7400000000000D+00  0.0000000000000D+00  0.0000000000000D+00
   176  1.7500000000000D+00  0.0000000000000D+00  0.0000000000000D+00
   177  1.7600000000000D+00  0.0000000000000D+00  0.0000000000000D+00
   178  1.7700000000000D+00  0.0000000000000D+00  0.0000000000000D+00
   179  1.7800000000000D+00  0.0000000000000D+00  0.0000000000000D+00
   180  1.7900000000000D+00  0.0000000000000D+00  0.0000000000000D+00
   181  1.8000000000000D+00  0.0000000000000D+00  0.0000000000000D+00
   182  1.8100000000000D+00  0.0000000000000D+00  0.0000000000000D+00
   183  1.8200000000000D+00  0.0000000000000D+00  0.0000000000000D+00
   184  1.8300000000000D+00  0.0000000000000D+00  0.0000000000000D+00
   185  1.8400000000000D+00  0.0000000000000D+00  0.0000000000000D+00
   186  1.8500000000000D+00  0.0000000000000D+00  0.0000000000000D+00
   187  1.8600000000000D+00  0.0000000000000D+00  0.0000000000000D+00
   188  1.8700000000000D+00  0.0000000000000D+00  0.0000000000000D+00
   189  1.8800000000000D+00  0.0000000000000D+00  0.0000000000000D+00
   190  1.8900000000000D+00  0.0000000000000D+00  0.0000000000000D+00
   191  1.9000000000000D+00  0.0000000000000D+00  0.0000000000000D+00
   192  1.9100000000000D+00  0.0000000000000D+00  0.0000000000000D+00
   193  1.9200000000000D+00  0.0000000000000D+00  0.0000000000000D+00
   194  1.9300000000000D+00  0.0000000000000D+00  0.0000000000000D+00
   195  1.9400000000000D+00  0.0000000000000D+00  0.0000000000000D+00
   196  1.9500000000000D+00  0.0000000000000D+00  0.0000000000000D+00
   197  1.9600000000000D+00  0.0000000000000D+00  0.0000000000000D+00
   198  1.9700000000000D+00  0.0000000000000D+00  0.0000000000000D+00
   199  1.9800000000000D+00  0.0000000000000D+00  0.0000000000000D+00
   200  1.9900000000000D+00  0.0000000000000D+00  0.0000000000000D+00
   201  2.0000000000000D+00  0.0000000000000D+00  0.0000000000000D+00
   202  2.0100000000000D+00  0.0000000000000D+00  0.0000000000000D+00
   203  2.0200000000000D+00  0.0000000000000D+00  0.0000000000000D+00
   204  2.0300000000000D+00  0.0000000000000D+00  0.0000000000000D+00
   205  2.0400000000000D+00  0.0000000000000D+00  0.0000000000000D+00
   206  2.0500000000000D+00  0.0000000000000D+00  0.0000000000000D+00
   207  2.0600000000000D+00  0.0000000000000D+00  0.0000000000000D+00
   208  2.0700000000000D+00  0.0000000000000D+00  0.0000000000000D+00
   209  2.0800000000000D+00  0.0000000000000D+00  0.0000000000000D+00
   210  2.0900000000000D+00  0.0000000000000D+00  0.0000000000000D+00
   211  2.1000000000000D+00  0.0000000000000D+00  0.0000000000000D+00
   212  2.1100000000000D+00  0.0000000000000D+00  0.0000000000000D+00
   213  2.1200000000000D+00  0.0000000000000D+00  0.0000000000000D+00
   214  2.1300000000000D+00  0.0000000000000D+00  0.0000000000000D+00
   215  2.1400000000000D+00  0.0000000000000D+00  0.0000000000000D+00
   216  2.1500000000000D+00  0.0000000000000D+00  0.0000000000000D+00
   217  2.1600000000000D+00  0.0000000000000D+00  0.0000000000000D+00
   218  2.1700000000000D+00  0.0000000000000D+00  0.0000000000000D+00
   219  2.1800000000000D+00  0.0000000000000D+00  0.0000000000000D+00
   220  2.1900000000000D+00  0.0000000000000D+00  0.0000000000000D+00
   221  2.2000000000000D+00  0.0000000000000D+00  0.0000000000000D+00
   222  2.2100000000000D+00  0.0000000000000D+00  0.0000000000000D+00
   223  2.2200000000000D+00  0.0000000000000D+00  0.0000000000000D+00
   224  2.2300000000000D+00  0.0000000000000D+00  0.0000000000000D+00
   225  2.2400000000000D+00  0.0000000000000D+00  0.0000000000000D+00
   226  2.2500000000000D+00  0.0000000000000D+00  0.0000000000000D+00
   227  2.2600000000000D+00  0.0000000000000D+00  0.0000000000000D+00
   228  2.2700000000000D+00  0.0000000000000D+00  0.0000000000000D+00
   229  2.2800000000000D+00  0.0000000000000D+00  0.0000000000000D+00
   230  2.2900000000000D+00  0.0000000000000D+00  0.0000000000000D+00
   231  2.3000000000000D+00  0.0000000000000D+00  0.0000000000000D+00
   232  2.3100000000000D+00  0.0000000000000D+00  0.0000000000000D+00
   233  2.3200000000000D+00  0.0000000000000D+00  0.0000000000000D+00
   234  2.3300000000000D+00  0.0000000000000D+00  0.0000000000000D+00
   235  2.3400000000000D+00  0.0000000000000D+00  0.0000000000000D+00
   236  2.3500000000000D+00  0.0000000000000D+00  0.0000000000000D+00
   237  2.3600000000000D+00  0.0000000000000D+00  0.0000000000000D+00
   238  2.3700000000000D+00  0.0000000000000D+00  0.0000000000000D+00
   239  2.3800000000000D+00  0.0000000000000D+00  0.0000000000000D+00
   240  2.3900000000000D+00  0.0000000000000D+00  0.0000000000000D+00
   241  2.4000000000000D+00  0.0000000000000D+00  0.0000000000000D+00
   242  2.4100000000000D+00  0.0000000000000D+00  0.0000000000000D+00
   243  2.4200000000000D+00  0.0000000000000D+00  0.0000000000000D+00
   244  2.4300000000000D+00  0.0000000000000D+00  0.0000000000000D+00
   245  2.4400000000000D+00  0.0000000000000D+00  0.0000000000000D+00
   246  2.4500000000000D+00  0.0000000000000D+00  0.0000000000000D+00
   247  2.4600000000000D+00  0.0000000000000D+00  0.0000000000000D+00
   248  2.4700000000000D+00  0.0000000000000D+00  0.0000000000000D+00
   249  2.4800000000000D+00  0.0000000000000D+00  0.0000000000000D+00
   250  2.4900000000000D+00  0.0000000000000D+00  0.0000000000000D+00
   251  2.5000000000000D+00  0.0000000000000D+00  0.0000000000000D+00
   252  2.5100000000000D+00  0.0000000000000D+00  0.0000000000000D+00
   253  2.5200000000000D+00  0.0000000000000D+00  0.0000000000000D+00
   254  2.5300000000000D+00  0.0000000000000D+00  0.0000000000000D+00
   255  2.5400000000000D+00  0.0000000000000D+00  0.0000000000000D+00
   256  2.5500000000000D+00  0.0000000000000D+00  0.0000000000000D+00
   257  2.5600000000000D+00  0.0000000000000D+00  0.0000000000000D+00
   258  2.5700000000000D+00  0.0000000000000D+00  0.0000000000000D+00
   259  2.5800000000000D+00  0.0000000000000D+00  0.0000000000000D+00
   260  2.5900000000000D+00  0.0000000000000D+00  0.0000000000000D+00
   261  2.6000000000000D+00  0.0000000000000D+00  0.0000000000000D+00
   262  2.6100000000000D+00  0.0000000000000D+00  0.0000000000000D+00
   263  2.6200000000000D+00  0.0000000000000D+00  0.0000000000000D+00
   264  2.6300000000000D+00  0.0000000000000D+00  0.0000000000000D+00
   265  2.6400000000000D+00  0.0000000000000D+00  0.0000000000000D+00
   266  2.6500000000000D+00  0.0000000000000D+00  0.0000000000000D+00
   267  2.6600000000000D+00  0.0000000000000D+00  0.0000000000000D+00
   268  2.6700000000000D+00  0.0000000000000D+00  0.0000000000000D+00
   269  2.6800000000000D+00  0.0000000000000D+00  0.0000000000000D+00
   270  2.6900000000000D+00  0.0000000000000D+00  0.0000000000000D+00
   271  2.7000000000000D+00  0.0000000000000D+00  0.0000000000000D+00
   272  2.7100000000000D+00  0.0000000000000D+00  0.0000000000000D+00
   273  2.7200000000000D+00  0.0000000000000D+00  0.0000000000000D+00
   274  2.7300000000000D+00  0.0000000000000D+00  0.0000000000000D+00
   275  2.7400000000000D+00  0.0000000000000D+00  0.0000000000000D+00
   276  2.7500000000000D+00  0.0000000000000D+00  0.0000000000000D+00
   277  2.7600000000000D+00  0.0000000000000D+00  0.0000000000000D+00
   278  2.7700000000000D+00  0.0000000000000D+00  0.0000000000000D+00
   279  2.7800000000000D+00  0.0000000000000D+00  0.0000000000000D+00
   280  2.7900000000000D+00  0.0000000000000D+00  0.0000000000000D+00
   281  2.8000000000000D+00  0.0000000000000D+00  0.0000000000000D+00
   282  2.8100000000000D+00  0.0000000000000D+00  0.0000000000000D+00
   283  2.8200000000000D+00  0.0000000000000D+00  0.0000000000000D+00
   284  2.8300000000000D+00  0.0000000000000D+00  0.0000000000000D+00
   285  2.8400000000000D+00  0.0000000000000D+00  0.0000000000000D+00
   286  2.8500000000000D+00  0.0000000000000D+00  0.0000000000000D+00
   287  2.8600000000000D+00  0.0000000000000D+00  0.0000000000000D+00
   288  2.8700000000000D+00  0.0000000000000D+00  0.0000000000000D+00
   289  2.8800000000000D+00  0.0000000000000D+00  0.0000000000000D+00
   290  2.8900000000000D+00  0.0000000000000D+00  0.0000000000000D+00
   291  2.9000000000000D+00  0.0000000000000D+00  0.0000000000000D+00
   292  2.9100000000000D+00  0.0000000000000D+00  0.0000000000000D+00
   293  2.9200000000000D+00  0.0000000000000D+00  0.0000000000000D+00
   294  2.9300000000000D+00  0.0000000000000D+00  0.0000000000000D+00
   295  2.9400000000000D+00  0.0000000000000D+00  0.0000000000000D+00
   296  2.9500000000000D+00  0.0000000000000D+00  0.0000000000000D+00
   297  2.9600000000000D+00  0.0000000000000D+00  0.0000000000000D+00
   298  2.9700000000000D+00  0.0000000000000D+00  0.0000000000000D+00
   299  2.9800000000000D+00  0.0000000000000D+00  0.0000000000000D+00
   300  2.9900000000000D+00  0.0000000000000D+00  0.0000000000000D+00
   301  3.0000000000000D+00  0.0000000000000D+00  0.0000000000000D+00
   302  3.0100000000000D+00  0.0000000000000D+00  0.0000000000000D+00
   303  3.0200000000000D+00  0.0000000000000D+00  0.0000000000000D+00
   304  3.0300000000000D+00  0.0000000000000D+00  0.0000000000000D+00
   305  3.0400000000000D+00  0.0000000000000D+00  0.0000000000000D+00
   306  3.0500000000000D+00  0.0000000000000D+00  0.0000000000000D+00
   307  3.0600000000000D+00  0.0000000000000D+00  0.0000000000000D+00
   308  3.0700000000000D+00  0.0000000000000D+00  0.0000000000000D+00
   309  3.0800000000000D+00  0.0000000000000D+00  0.0000000000000D+00
   310  3.0900000000000D+00  0.0000000000000D+00  0.0000000000000D+00
   311  3.1000000000000D+00  0.0000000000000D+00  0.0000000000000D+00
   312  3.1100000000000D+00  0.0000000000000D+00  0.0000000000000D+00
   313  3.1200000000000D+00  0.0000000000000D+00  0.0000000000000D+00
   314  3.1300000000000D+00  0.0000000000000D+00  0.0000000000000D+00
   315  3.1400000000000D+00  0.0000000000000D+00  0.0000000000000D+00
   316  3.1500000000000D+00  0.0000000000000D+00  0.0000000000000D+00
   317  3.1600000000000D+00  0.0000000000000D+00  0.0000000000000D+00
   318  3.1700000000000D+00  0.0000000000000D+00  0.0000000000000D+00
   319  3.1800000000000D+00  0.0000000000000D+00  0.0000000000000D+00
   320  3.1900000000000D+00  0.0000000000000D+00  0.0000000000000D+00
   321  3.2000000000000D+00  0.0000000000000D+00  0.0000000000000D+00
   322  3.2100000000000D+00  0.0000000000000D+00  0.0000000000000D+00
   323  3.2200000000000D+00  0.0000000000000D+00  0.0000000000000D+00
   324  3.2300000000000D+00  0.0000000000000D+00  0.0000000000000D+00
   325  3.2400000000000D+00  0.0000000000000D+00  0.0000000000000D+00
   326  3.2500000000000D+00  0.0000000000000D+00  0.0000000000000D+00
   327  3.2600000000000D+00  0.0000000000000D+00  0.0000000000000D+00
   328  3.2700000000000D+00  0.0000000000000D+00  0.0000000000000D+00
   329  3.2800000000000D+00  0.0000000000000D+00  0.0000000000000D+00
   330  3.2900000000000D+00  0.0000000000000D+00  0.0000000000000D+00
   331  3.3000000000000D+00  0.0000000000000D+00  0.0000000000000D+00
   332  3.3100000000000D+00  0.0000000000000D+00  0.0000000000000D+00
   333  3.3200000000000D+00  0.0000000000000D+00  0.0000000000000D+00
   334  3.3300000000000D+00  0.0000000000000D+00  0.0000000000000D+00
   335  3.3400000000000D+00  0.0000000000000D+00  0.0000000000000D+00
   336  3.3500000000000D+00  0.0000000000000D+00  0.0000000000000D+00
   337  3.3600000000000D+00  0.0000000000000D+00  0.0000000000000D+00
   338  3.3700000000000D+00  0.0000000000000D+00  0.0000000000000D+00
   339  3.3800000000000D+00  0.0000000000000D+00  0.0000000000000D+00
   340  3.3900000000000D+00  0.0000000000000D+00  0.0000000000000D+00
   341  3.4000000000000D+00  0.0000000000000D+00  0.0000000000000D+00
   342  3.4100000000000D+00  0.0000000000000D+00  0.0000000000000D+00
   343  3.4200000000000D+00  0.0000000000000D+00  0.0000000000000D+00
   344  3.4300000000000D+00  0.0000000000000D+00  0.0000000000000D+00
   345  3.4400000000000D+00  0.0000000000000D+00  0.0000000000000D+00
   346  3.4500000000000D+00  0.0000000000000D+00  0.0000000000000D+00
   347  3.4600000000000D+00  0.0000000000000D+00  0.0000000000000D+00
   348  3.4700000000000D+00  0.0000000000000D+00  0.0000000000000D+00
   349  3.4800000000000D+00  0.0000000000000D+00  0.0000000000000D+00
   350  3.4900000000000D+00  0.0000000000000D+00  0.0000000000000D+00
   351  3.5000000000000D+00  0.0000000000000D+00  0.0000000000000D+00
   352  3.5100000000000D+00  0.0000000000000D+00  0.0000000000000D+00
   353  3.5200000000000D+00  0.0000000000000D+00  0.0000000000000D+00
   354  3.5300000000000D+00  0.0000000000000D+00  0.0000000000000D+00
   355  3.5400000000000D+00  0.0000000000000D+00  0.0000000000000D+00
   356  3.5500000000000D+00  0.0000000000000D+00  0.0000000000000D+00
   357  3.5600000000000D+00  0.0000000000000D+00  0.0000000000000D+00
   358  3.5700000000000D+00  0.0000000000000D+00  0.0000000000000D+00
   359  3.5800000000000D+00  0.0000000000000D+00  0.0000000000000D+00
   360  3.5900000000000D+00  0.0000000000000D+00  0.0000000000000D+00
   361  3.6000000000000D+00  0.0000000000000D+00  0.0000000000000D+00
   362  3.6100000000000D+00  0.0000000000000D+00  0.0000000000000D+00
   363  3.6200000000000D+00  0.0000000000000D+00  0.0000000000000D+00
   364  3.6300000000000D+00  0.0000000000000D+00  0.0000000000000D+00
   365  3.6400000000000D+00  0.0000000000000D+00  0.0000000000000D+00
   366  3.6500000000000D+00  0.0000000000000D+00  0.0000000000000D+00
   367  3.6600000000000D+00  0.0000000000000D+00  0.0000000000000D+00
   368  3.6700000000000D+00  0.0000000000000D+00  0.0000000000000D+00
   369  3.6800000000000D+00  0.0000000000000D+00  0.0000000000000D+00
   370  3.6900000000000D+00  0.0000000000000D+00  0.0000000000000D+00
   371  3.7000000000000D+00  0.0000000000000D+00  0.0000000000000D+00
   372  3.7100000000000D+00  0.0000000000000D+00  0.0000000000000D+00
   373  3.7200000000000D+00  0.0000000000000D+00  0.0000000000000D+00
   374  3.7300000000000D+00  0.0000000000000D+00  0.0000000000000D+00
   375  3.7400000000000D+00  0.0000000000000D+00  0.0000000000000D+00
   376  3.7500000000000D+00  0.0000000000000D+00  0.0000000000000D+00
   377  3.7600000000000D+00  0.0000000000000D+00  0.0000000000000D+00
   378  3.7700000000000D+00  0.0000000000000D+00  0.0000000000000D+00
   379  3.7800000000000D+00  0.0000000000000D+00  0.0000000000000D+00
   380  3.7900000000000D+00  0.0000000000000D+00  0.0000000000000D+00
   381  3.8000000000000D+00  0.0000000000000D+00  0.0000000000000D+00
   382  3.8100000000000D+00  0.0000000000000D+00  0.0000000000000D+00
   383  3.8200000000000D+00  0.0000000000000D+00  0.0000000000000D+00
   384  3.8300000000000D+00  0.0000000000000D+00  0.0000000000000D+00
   385  3.8400000000000D+00  0.0000000000000D+00  0.0000000000000D+00
   386  3.8500000000000D+00  0.0000000000000D+00  0.0000000000000D+00
   387  3.8600000000000D+00  0.0000000000000D+00  0.0000000000000D+00
   388  3.8700000000000D+00  0.0000000000000D+00  0.0000000000000D+00
   389  3.8800000000000D+00  0.0000000000000D+00  0.0000000000000D+00
   390  3.8900000000000D+00  0.0000000000000D+00  0.0000000000000D+00
   391  3.9000000000000D+00  0.0000000000000D+00  0.0000000000000D+00
   392  3.9100000000000D+00  0.0000000000000D+00  0.0000000000000D+00
   393  3.9200000000000D+00  0.0000000000000D+00  0.0000000000000D+00
   394  3.9300000000000D+00  0.0000000000000D+00  0.0000000000000D+00
   395  3.9400000000000D+00  0.0000000000000D+00  0.0000000000000D+00
   396  3.9500000000000D+00  0.0000000000000D+00  0.0000000000000D+00
   397  3.9600000000000D+00  0.0000000000000D+00  0.0000000000000D+00
   398  3.9700000000000D+00  0.0000000000000D+00  0.0000000000000D+00
   399  3.9800000000000D+00  0.0000000000000D+00  0.0000000000000D+00
   400  3.9900000000000D+00  0.0000000000000D+00  0.0000000000000D+00
   401  4.0000000000000D+00  0.0000000000000D+00  0.0000000000000D+00
   402  4.0100000000000D+00  0.0000000000000D+00  0.0000000000000D+00
   403  4.0200000000000D+00  0.0000000000000D+00  0.0000000000000D+00
   404  4.0300000000000D+00  0.0000000000000D+00  0.0000000000000D+00
   405  4.0400000000000D+00  0.0000000000000D+00  0.0000000000000D+00
   406  4.0500000000000D+00  0.0000000000000D+00  0.0000000000000D+00
   407  4.0600000000000D+00  0.0000000000000D+00  0.0000000000000D+00
   408  4.0700000000000D+00  0.0000000000000D+00  0.0000000000000D+00
   409  4.0800000000000D+00  0.0000000000000D+00  0.0000000000000D+00
   410  4.0900000000000D+00  0.0000000000000D+00  0.0000000000000D+00
   411  4.1000000000000D+00  0.0000000000000D+00  0.0000000000000D+00
   412  4.1100000000000D+00  0.0000000000000D+00  0.0000000000000D+00
   413  4.1200000000000D+00  0.0000000000000D+00  0.0000000000000D+00
   414  4.1300000000000D+00  0.0000000000000D+00  0.0000000000000D+00
   415  4.1400000000000D+00  0.0000000000000D+00  0.0000000000000D+00
   416  4.1500000000000D+00  0.0000000000000D+00  0.0000000000000D+00
   417  4.1600000000000D+00  0.0000000000000D+00  0.0000000000000D+00
   418  4.1700000000000D+00  0.0000000000000D+00  0.0000000000000D+00
   419  4.1800000000000D+00  0.0000000000000D+00  0.0000000000000D+00
   420  4.1900000000000D+00  0.0000000000000D+00  0.0000000000000D+00
   421  4.2000000000000D+00  0.0000000000000D+00  0.0000000000000D+00
   422  4.2100000000000D+00  0.0000000000000D+00  0.0000000000000D+00