Mn    ONCVPSP-3.3.1  r_core=   2.47442   2.47442   2.11898
     25.0000     15.0000      210904    zatom,zion,pspd
     8      11   2     4   600     0    pspcod,pspxc,lmax,lloc,mmax,r2well
  5.99000000  0.00000000  0.00000000    rchrg fchrg qchrg
     2     2     2     0     0    nproj
     1     1           extension_switch
   0                        -2.0259171224527D+00 -4.2731014965493D-01
     1  0.0000000000000D+00 -1.8185453143360D-13  1.1880607608816D-11
     2  1.0000000000000D-02  3.4086295135082D-02 -5.4435964375523D-02
     3  2.0000000000000D-02  6.8144649754089D-02 -1.0873716691760D-01
     4  3.0000000000000D-02  1.0214715578787D-01 -1.6276919567237D-01
     5  4.0000000000000D-02  1.3606597001884D-01 -2.1639833745907D-01
     6  5.0000000000000D-02  1.6987334640103D-01 -2.6949192479450D-01
     7  6.0000000000000D-02  2.0354166825357D-01 -3.2191867987132D-01
     8  7.0000000000000D-02  2.3704348028530D-01 -3.7354905462208D-01
     9  8.0000000000000D-02  2.7035152040898D-01 -4.2425556591278D-01
    10  9.0000000000000D-02  3.0343875130328D-01 -4.7391312492465D-01
    11  1.0000000000000D-01  3.3627839168129D-01 -5.2239935980016D-01
    12  1.1000000000000D-01  3.6884394722460D-01 -5.6959493065023D-01
    13  1.2000000000000D-01  4.0110924114223D-01 -6.1538383604236D-01
    14  1.3000000000000D-01  4.3304844431417D-01 -6.5965371011521D-01
    15  1.4000000000000D-01  4.6463610497992D-01 -7.0229610949424D-01
    16  1.5000000000000D-01  4.9584717793253D-01 -7.4320678921277D-01
    17  1.6000000000000D-01  5.2665705317970D-01 -7.8228596687717D-01
    18  1.7000000000000D-01  5.5704158403365D-01 -8.1943857434976D-01
    19  1.8000000000000D-01  5.8697711459239D-01 -8.5457449626093D-01
    20  1.9000000000000D-01  6.1644050657567D-01 -8.8760879470169D-01
    21  2.0000000000000D-01  6.4540916547956D-01 -9.1846191948938D-01
    22  2.1000000000000D-01  6.7386106601441D-01 -9.4705990344296D-01
    23  2.2000000000000D-01  7.0177477679200D-01 -9.7333454214907D-01
    24  2.3000000000000D-01  7.2912948422809D-01 -9.9722355774655D-01
    25  2.4000000000000D-01  7.5590501562821D-01 -1.0186707463052D+00
    26  2.5000000000000D-01  7.8208186142480D-01 -1.0376261084239D+00
    27  2.6000000000000D-01  8.0764119653533D-01 -1.0540459627219D+00
    28  2.7000000000000D-01  8.3256490081195D-01 -1.0678930419503D+00
    29  2.8000000000000D-01  8.5683557855436D-01 -1.0791365715005D+00
    30  2.9000000000000D-01  8.8043657705858D-01 -1.0877523301391D+00
    31  3.0000000000000D-01  9.0335200417601D-01 -1.0937226928528D+00
    32  3.1000000000000D-01  9.2556674485780D-01 -1.0970366557362D+00
    33  3.2000000000000D-01  9.4706647666133D-01 -1.0976898429129D+00
    34  3.3000000000000D-01  9.6783768419683D-01 -1.0956844955291D+00
    35  3.4000000000000D-01  9.8786767249338D-01 -1.0910294429132D+00
    36  3.5000000000000D-01  1.0071445792653D+00 -1.0837400560469D+00
    37  3.6000000000000D-01  1.0256573860612D+00 -1.0738381835443D+00
    38  3.7000000000000D-01  1.0433959282793D+00 -1.0613520703862D+00
    39  3.8000000000000D-01  1.0603509040347D+00 -1.0463162597063D+00
    40  3.9000000000000D-01  1.0765138818657D+00 -1.0287714779761D+00
    41  4.0000000000000D-01  1.0918773072670D+00 -1.0087645039799D+00
    42  4.1000000000000D-01  1.1064345080414D+00 -9.8634802202039D-01
    43  4.2000000000000D-01  1.1201796984603D+00 -9.6158045983812D-01
    44  4.3000000000000D-01  1.1331079822286D+00 -9.3452581177093D-01
    45  4.4000000000000D-01  1.1452153542476D+00 -9.0525344772172D-01
    46  4.5000000000000D-01  1.1564987011741D+00 -8.7383790854142D-01
    47  4.6000000000000D-01  1.1669558007753D+00 -8.4035868847097D-01
    48  4.7000000000000D-01  1.1765853200789D+00 -8.0490000532186D-01
    49  4.8000000000000D-01  1.1853868123217D+00 -7.6755055910777D-01
    50  4.9000000000000D-01  1.1933607127026D+00 -7.2840327986936D-01
    51  5.0000000000000D-01  1.2005083329433D+00 -6.8755506546384D-01
    52  5.1000000000000D-01  1.2068318546685D+00 -6.4510651011576D-01
    53  5.2000000000000D-01  1.2123343216127D+00 -6.0116162454875D-01
    54  5.3000000000000D-01  1.2170196306683D+00 -5.5582754853882D-01
    55  5.4000000000000D-01  1.2208925217860D+00 -5.0921425674730D-01
    56  5.5000000000000D-01  1.2239585667461D+00 -4.6143425870698D-01
    57  5.6000000000000D-01  1.2262241568161D+00 -4.1260229384723D-01
    58  5.7000000000000D-01  1.2276964893155D+00 -3.6283502245390D-01
    59  5.8000000000000D-01  1.2283835531080D+00 -3.1225071346595D-01
    60  5.9000000000000D-01  1.2282941130451D+00 -2.6096893001582D-01
    61  6.0000000000000D-01  1.2274376933850D+00 -2.0911021362110D-01
    62  6.1000000000000D-01  1.2258245602147D+00 -1.5679576793363D-01
    63  6.2000000000000D-01  1.2234657029021D+00 -1.0414714294841D-01
    64  6.3000000000000D-01  1.2203728146096D+00 -5.1285920566996D-02
    65  6.4000000000000D-01  1.2165582718993D+00  1.6665975992059D-03
    66  6.5000000000000D-01  1.2120351134649D+00  5.4589699312823D-02
    67  6.6000000000000D-01  1.2068170180232D+00  1.0736356682373D-01
    68  6.7000000000000D-01  1.2009182814032D+00  1.5986957717136D-01
    69  6.8000000000000D-01  1.1943537928688D+00  2.1199059685563D-01
    70  6.9000000000000D-01  1.1871390107165D+00  2.6361127007865D-01
    71  7.0000000000000D-01  1.1792899371857D+00  3.1461829978434D-01
    72  7.1000000000000D-01  1.1708230927261D+00  3.6490072074959D-01
    73  7.2000000000000D-01  1.1617554896628D+00  4.1435016401030D-01
    74  7.3000000000000D-01  1.1521046053044D+00  4.6286111193638D-01
    75  7.4000000000000D-01  1.1418883545390D+00  5.1033114330306D-01
    76  7.5000000000000D-01  1.1311250619632D+00  5.5666116774124D-01
    77  7.6000000000000D-01  1.1198334335913D+00  6.0175564898508D-01
    78  7.7000000000000D-01  1.1080325281934D+00  6.4552281637481D-01
    79  7.8000000000000D-01  1.0957417283083D+00  6.8787486411078D-01
    80  7.9000000000000D-01  1.0829807109821D+00  7.2872813779698D-01
    81  8.0000000000000D-01  1.0697694182809D+00  7.6800330785374D-01
    82  8.1000000000000D-01  1.0561280276278D+00  8.0562552942244D-01
    83  8.2000000000000D-01  1.0420769220130D+00  8.4152458842939D-01
    84  8.3000000000000D-01  1.0276366601296D+00  8.7563503352077D-01
    85  8.4000000000000D-01  1.0128279464823D+00  9.0789629362561D-01
    86  8.5000000000000D-01  9.9767160152270D-01  9.3825278094997D-01
    87  8.6000000000000D-01  9.8218853185852D-01  9.6665397925140D-01
    88  8.7000000000000D-01  9.6639970058853D-01  9.9305451728905D-01
    89  8.8000000000000D-01  9.5032609781230D-01  1.0174142273913D+00
    90  8.9000000000000D-01  9.3398871136409D-01  1.0396981891283D+00
    91  9.0000000000000D-01  9.1740849781978D-01  1.0598767581241D+00
    92  9.1000000000000D-01  9.0060635382479D-01  1.0779255800854D+00
    93  9.2000000000000D-01  8.8360308779076D-01  1.0938255901736D+00
    94  9.3000000000000D-01  8.6641939200722D-01  1.1075629978853D+00
    95  9.4000000000000D-01  8.4907581521435D-01  1.1191292576542D+00
    96  9.5000000000000D-01  8.3159273568109D-01  1.1285210254273D+00
    97  9.6000000000000D-01  8.1399033483261D-01  1.1357401015089D+00
    98  9.7000000000000D-01  7.9628857146906D-01  1.1407933600086D+00
    99  9.8000000000000D-01  7.7850715661702D-01  1.1436926652630D+00
   100  9.9000000000000D-01  7.6066552905312D-01  1.1444547756439D+00
   101  1.0000000000000D+00  7.4278283153808D-01  1.1431012351952D+00
   102  1.0100000000000D+00  7.2487788779791D-01  1.1396582535778D+00
   103  1.0200000000000D+00  7.0696918028710D-01  1.1341565748332D+00
   104  1.0300000000000D+00  6.8907482876741D-01  1.1266313355041D+00
   105  1.0400000000000D+00  6.7121256973349D-01  1.1171219126805D+00
   106  1.0500000000000D+00  6.5339973671538D-01  1.1056717625647D+00
   107  1.0600000000000D+00  6.3565324148534D-01  1.0923282501715D+00
   108  1.0700000000000D+00  6.1798955619527D-01  1.0771424708007D+00
   109  1.0800000000000D+00  6.0042469646816D-01  1.0601690639409D+00
   110  1.0900000000000D+00  5.8297420546571D-01  1.0414660202747D+00
   111  1.1000000000000D+00  5.6565313895174D-01  1.0210944824761D+00
   112  1.1100000000000D+00  5.4847605136878D-01  9.9911854049579D-01
   113  1.1200000000000D+00  5.3145698294345D-01  9.7560502204639D-01
   114  1.1300000000000D+00  5.1460944783388D-01  9.5062327899851D-01
   115  1.1400000000000D+00  4.9794642333008D-01  9.2424497040987D-01
   116  1.1500000000000D+00  4.8148034011614D-01  8.9654384290690D-01
   117  1.1600000000000D+00  4.6522307360070D-01  8.6759550913824D-01
   118  1.1700000000000D+00  4.4918593632028D-01  8.3747722501770D-01
   119  1.1800000000000D+00  4.3337967141752D-01  8.0626766646675D-01
   120  1.1900000000000D+00  4.1781444719402D-01  7.7404670635870D-01
   121  1.2000000000000D+00  4.0249985273561D-01  7.4089519235467D-01
   122  1.2100000000000D+00  3.8744489460592D-01  7.0689472631349D-01
   123  1.2200000000000D+00  3.7265799460109D-01  6.7212744593563D-01
   124  1.2300000000000D+00  3.5814698855683D-01  6.3667580928277D-01
   125  1.2400000000000D+00  3.4391912619775D-01  6.0062238280734D-01
   126  1.2500000000000D+00  3.2998107201528D-01  5.6404963348896D-01
   127  1.2600000000000D+00  3.1633890715930D-01  5.2703972565269D-01
   128  1.2700000000000D+00  3.0299813232731D-01  4.8967432303302D-01
   129  1.2800000000000D+00  2.8996367163189D-01  4.5203439660388D-01
   130  1.2900000000000D+00  2.7723987742564D-01  4.1420003866037D-01
   131  1.3000000000000D+00  2.6483053606208D-01  3.7625028363433D-01
   132  1.3100000000000D+00  2.5273887456797D-01  3.3826293606752D-01
   133  1.3200000000000D+00  2.4096756820102D-01  3.0031440612332D-01
   134  1.3300000000000D+00  2.2951874886701D-01  2.6247955303244D-01
   135  1.3400000000000D+00  2.1839401436661D-01  2.2483153677253D-01
   136  1.3500000000000D+00  2.0759443844192D-01  1.8744167826086D-01
   137  1.3600000000000D+00  1.9712058159266D-01  1.5037932835208D-01
   138  1.3700000000000D+00  1.8697250262779D-01  1.1371174579807D-01
   139  1.3800000000000D+00  1.7714977092022D-01  7.7503984369594D-02
   140  1.3900000000000D+00  1.6765147932980D-01  4.1818789282475D-02
   141  1.4000000000000D+00  1.5847625775834D-01  6.7165029604214D-03
   142  1.4100000000000D+00  1.4962228730157D-01 -2.7745019736796D-02
   143  1.4200000000000D+00  1.4108731495983D-01 -6.1510486880709D-02
   144  1.4300000000000D+00  1.3286866887052D-01 -9.4527235447019D-02
   145  1.4400000000000D+00  1.2496327402408D-01 -1.2674528793059D-01
   146  1.4500000000000D+00  1.1736766842451D-01 -1.5811739980626D-01
   147  1.4600000000000D+00  1.1007801965615D-01 -1.8859909786715D-01
   148  1.4700000000000D+00  1.0309014181701D-01 -2.1814870974500D-01
   149  1.4800000000000D+00  9.6399512779939D-02 -2.4672738476864D-01
   150  1.4900000000000D+00  9.0001291741925D-02 -2.7429910643881D-01
   151  1.5000000000000D+00  8.3890337023044D-02 -3.0083069686772D-01
   152  1.5100000000000D+00  7.8061224074962D-02 -3.2629181341525D-01
   153  1.5200000000000D+00  7.2508263662013D-02 -3.5065493803015D-01
   154  1.5300000000000D+00  6.7225520174356D-02 -3.7389535953723D-01
   155  1.5400000000000D+00  6.2206830037587D-02 -3.9599114944425D-01
   156  1.5500000000000D+00  5.7445820179601D-02 -4.1692313160905D-01
   157  1.5600000000000D+00  5.2935926519112D-02 -4.3667484632200D-01
   158  1.5700000000000D+00  4.8670412439801D-02 -4.5523250927314D-01
   159  1.5800000000000D+00  4.4642387213592D-02 -4.7258496593092D-01
   160  1.5900000000000D+00  4.0844824341555D-02 -4.8872364190562D-01
   161  1.6000000000000D+00  3.7270579774426D-02 -5.0364248981147D-01
   162  1.6100000000000D+00  3.3912409986844D-02 -5.1733793326759D-01
   163  1.6200000000000D+00  3.0762989865373D-02 -5.2980880855987D-01
   164  1.6300000000000D+00  2.7814930390815D-02 -5.4105630462952D-01
   165  1.6400000000000D+00  2.5060796072846D-02 -5.5108390194160D-01
   166  1.6500000000000D+00  2.2493122124095D-02 -5.5989731088254D-01
   167  1.6600000000000D+00  2.0104431330441D-02 -5.6750441029102D-01
   168  1.6700000000000D+00  1.7887250610190D-02 -5.7391518671952D-01
   169  1.6800000000000D+00  1.5834127219457D-02 -5.7914167509070D-01
   170  1.6900000000000D+00  1.3937644600816D-02 -5.8319790126989D-01
   171  1.7000000000000D+00  1.2190437833600D-02 -5.8609982727959D-01
   172  1.7100000000000D+00  1.0585208687864D-02 -5.8786529957790D-01
   173  1.7200000000000D+00  9.1147402406754D-03 -5.8851400119587D-01
   174  1.7300000000000D+00  7.7719110628453D-03 -5.8806740802287D-01
   175  1.7400000000000D+00  6.5497089339232D-03 -5.8654875012476D-01
   176  1.7500000000000D+00  5.4412441007448D-03 -5.8398297820804D-01
   177  1.7600000000000D+00  4.4397620363274D-03 -5.8039673621913D-01
   178  1.7700000000000D+00  3.5386557199357D-03 -5.7581834001416D-01
   179  1.7800000000000D+00  2.7314773978185D-03 -5.7027776313650D-01
   180  1.7900000000000D+00  2.0119498462791D-03 -5.6380662952609D-01
   181  1.8000000000000D+00  1.3739771034293D-03 -5.5643821415492D-01
   182  1.8100000000000D+00  8.1165468856865D-04 -5.4820745138277D-01
   183  1.8200000000000D+00  3.1927928560880D-04 -5.3915095187523D-01
   184  1.8300000000000D+00 -1.0864209671760D-04 -5.2930702796334D-01
   185  1.8400000000000D+00 -4.7738349804018D-04 -5.1871572798749D-01
   186  1.8500000000000D+00 -7.9199190987702D-04 -5.0741887974283D-01
   187  1.8600000000000D+00 -1.0572797032867D-03 -4.9546014309326D-01
   188  1.8700000000000D+00 -1.2778175901173D-03 -4.8288507228372D-01
   189  1.8800000000000D+00 -1.4579280935153D-03 -4.6974118736618D-01
   190  1.8900000000000D+00 -1.6016791364972D-03 -4.5607807298406D-01
   191  1.9000000000000D+00 -1.7128803786125D-03 -4.4194739238209D-01
   192  1.9100000000000D+00 -1.7950730354878D-03 -4.2740320575229D-01
   193  1.9200000000000D+00 -1.8515360227992D-03 -4.1250163099847D-01
   194  1.9300000000000D+00 -1.8852772019760D-03 -3.9730116845382D-01
   195  1.9400000000000D+00 -1.8990116163804D-03 -3.8186358616629D-01
   196  1.9500000000000D+00 -1.8951646600779D-03 -3.6625379240506D-01
   197  1.9600000000000D+00 -1.8759310015230D-03 -3.5053742575444D-01
   198  1.9700000000000D+00 -1.8433115217110D-03 -3.3477940774851D-01
   199  1.9800000000000D+00 -1.7991414686316D-03 -3.1904274849020D-01
   200  1.9900000000000D+00 -1.7451559627738D-03 -3.0338586529446D-01
   201  2.0000000000000D+00 -1.6829843751584D-03 -2.8786286934434D-01
   202  2.0100000000000D+00 -1.6141380201802D-03 -2.7252413730458D-01
   203  2.0200000000000D+00 -1.5400054605031D-03 -2.5741659160304D-01
   204  2.0300000000000D+00 -1.4618665816083D-03 -2.4258325589239D-01
   205  2.0400000000000D+00 -1.3808886371335D-03 -2.2806356207064D-01
   206  2.0500000000000D+00 -1.2981314099045D-03 -2.1389330895428D-01
   207  2.0600000000000D+00 -1.2145500250459D-03 -2.0010473831754D-01
   208  2.0700000000000D+00 -1.1309985655397D-03 -1.8672659757095D-01
   209  2.0800000000000D+00 -1.0482340162000D-03 -1.7378420702317D-01
   210  2.0900000000000D+00 -9.6692049637314D-04 -1.6129953215592D-01
   211  2.1000000000000D+00 -8.8763367409812D-04 -1.4929126320496D-01
   212  2.1100000000000D+00 -8.1086540806263D-04 -1.3777489941013D-01
   213  2.1200000000000D+00 -7.3702849517448D-04 -1.2676284089560D-01
   214  2.1300000000000D+00 -6.6646151284642D-04 -1.1626448736937D-01
   215  2.1400000000000D+00 -5.9943377694550D-04 -1.0628634171190D-01
   216  2.1500000000000D+00 -5.3615024213879D-04 -9.6832123259984D-02
   217  2.1600000000000D+00 -4.7675647914469D-04 -8.7902884945551D-02
   218  2.1700000000000D+00 -4.2134357957825D-04 -7.9497138204406D-02
   219  2.1800000000000D+00 -3.6995297755400D-04 -7.1610984809519D-02
   220  2.1900000000000D+00 -3.2258127337565D-04 -6.4238251745941D-02
   221  2.2000000000000D+00 -2.7918484269725D-04 -5.7370634828411D-02
   222  2.2100000000000D+00 -2.3968439937866D-04 -5.0997844767990D-02
   223  2.2200000000000D+00 -2.0396940854097D-04 -4.5107757707781D-02
   224  2.2300000000000D+00 -1.7190229720497D-04 -3.9686570499511D-02
   225  2.2400000000000D+00 -1.4332257399070D-04 -3.4718957003250D-02
   226  2.2500000000000D+00 -1.1805071311759D-04 -3.0188227570107D-02
   227  2.2600000000000D+00 -9.5891867184446D-05 -2.6076489391438D-02
   228  2.2700000000000D+00 -7.6639431999223D-05 -2.2364806736818D-02
   229  2.2800000000000D+00 -6.0078349157841D-05 -1.9033361071597D-02
   230  2.2900000000000D+00 -4.5988258758206D-05 -1.6061609602026D-02
   231  2.3000000000000D+00 -3.4146443678915D-05 -1.3428441530865D-02
   232  2.3100000000000D+00 -2.4330545119755D-05 -1.1112330645178D-02
   233  2.3200000000000D+00 -1.6321109788664D-05 -9.0914849194304D-03
   234  2.3300000000000D+00 -9.9039122484481D-06 -7.3439902795469D-03
   235  2.3400000000000D+00 -4.8720729404744D-06 -5.8479484405009D-03
   236  2.3500000000000D+00 -1.0279967272821D-06 -4.5816103394071D-03
   237  2.3600000000000D+00  1.8149123056006D-06 -3.5234997412458D-03
   238  2.3700000000000D+00  3.8307225261486D-06 -2.6525301508128D-03
   239  2.3800000000000D+00  5.1796320050269D-06 -1.9481151489055D-03
   240  2.3900000000000D+00  6.0095804409289D-06 -1.3902724398306D-03
   241  2.4000000000000D+00  6.4519175401224D-06 -9.5970676877772D-04
   242  2.4100000000000D+00  6.6037788103318D-06 -6.3785200680035D-04
   243  2.4200000000000D+00  6.5284761892317D-06 -4.0670697970320D-04
   244  2.4300000000000D+00  6.3267318677007D-06 -2.4962424745253D-04
   245  2.4400000000000D+00  6.1792113736860D-06 -1.5179870359643D-04
   246  2.4500000000000D+00  6.2590139812523D-06 -1.0001936405244D-04
   247  2.4600000000000D+00  6.3806862213831D-06 -7.8094757514668D-05
   248  2.4700000000000D+00  6.0406631459684D-06 -6.7738292151840D-05
   249  2.4800000000000D+00  4.7232745675160D-06 -5.2715866396617D-05
   250  2.4900000000000D+00  2.6698536240464D-06 -3.0237304482149D-05
   251  2.5000000000000D+00  6.6659446850907D-07 -7.7254953390541D-06
   252  2.5100000000000D+00 -4.3258976231435D-07  4.6803225651731D-06
   253  2.5200000000000D+00 -5.6268852754853D-07  6.1073991255206D-06
   254  2.5300000000000D+00 -2.0051205700844D-07  2.1853300233259D-06
   255  2.5400000000000D+00  8.7721893687020D-08 -8.8981086676048D-07
   256  2.5500000000000D+00  1.3163182271811D-07 -1.3286026248992D-06
   257  2.5600000000000D+00  5.5043977246683D-08 -5.5327107547666D-07
   258  2.5700000000000D+00 -9.4250274592461D-09  1.0541849315325D-07
   259  2.5800000000000D+00 -1.5983059435565D-08  1.7876977536263D-07
   260  2.5900000000000D+00 -7.8739652654995D-09  8.8069934758191D-08
   261  2.6000000000000D+00  0.0000000000000D+00  0.0000000000000D+00
   262  2.6100000000000D+00  0.0000000000000D+00  0.0000000000000D+00
   263  2.6200000000000D+00  0.0000000000000D+00  0.0000000000000D+00
   264  2.6300000000000D+00  0.0000000000000D+00  0.0000000000000D+00
   265  2.6400000000000D+00  0.0000000000000D+00  0.0000000000000D+00
   266  2.6500000000000D+00  0.0000000000000D+00  0.0000000000000D+00
   267  2.6600000000000D+00  0.0000000000000D+00  0.0000000000000D+00
   268  2.6700000000000D+00  0.0000000000000D+00  0.0000000000000D+00
   269  2.6800000000000D+00  0.0000000000000D+00  0.0000000000000D+00
   270  2.6900000000000D+00  0.0000000000000D+00  0.0000000000000D+00
   271  2.7000000000000D+00  0.0000000000000D+00  0.0000000000000D+00
   272  2.7100000000000D+00  0.0000000000000D+00  0.0000000000000D+00
   273  2.7200000000000D+00  0.0000000000000D+00  0.0000000000000D+00
   274  2.7300000000000D+00  0.0000000000000D+00  0.0000000000000D+00
   275  2.7400000000000D+00  0.0000000000000D+00  0.0000000000000D+00
   276  2.7500000000000D+00  0.0000000000000D+00  0.0000000000000D+00
   277  2.7600000000000D+00  0.0000000000000D+00  0.0000000000000D+00
   278  2.7700000000000D+00  0.0000000000000D+00  0.0000000000000D+00
   279  2.7800000000000D+00  0.0000000000000D+00  0.0000000000000D+00
   280  2.7900000000000D+00  0.0000000000000D+00  0.0000000000000D+00
   281  2.8000000000000D+00  0.0000000000000D+00  0.0000000000000D+00
   282  2.8100000000000D+00  0.0000000000000D+00  0.0000000000000D+00
   283  2.8200000000000D+00  0.0000000000000D+00  0.0000000000000D+00
   284  2.8300000000000D+00  0.0000000000000D+00  0.0000000000000D+00
   285  2.8400000000000D+00  0.0000000000000D+00  0.0000000000000D+00
   286  2.8500000000000D+00  0.0000000000000D+00  0.0000000000000D+00
   287  2.8600000000000D+00  0.0000000000000D+00  0.0000000000000D+00
   288  2.8700000000000D+00  0.0000000000000D+00  0.0000000000000D+00
   289  2.8800000000000D+00  0.0000000000000D+00  0.0000000000000D+00
   290  2.8900000000000D+00  0.0000000000000D+00  0.0000000000000D+00
   291  2.9000000000000D+00  0.0000000000000D+00  0.0000000000000D+00
   292  2.9100000000000D+00  0.0000000000000D+00  0.0000000000000D+00
   293  2.9200000000000D+00  0.0000000000000D+00  0.0000000000000D+00
   294  2.9300000000000D+00  0.0000000000000D+00  0.0000000000000D+00
   295  2.9400000000000D+00  0.0000000000000D+00  0.0000000000000D+00
   296  2.9500000000000D+00  0.0000000000000D+00  0.0000000000000D+00
   297  2.9600000000000D+00  0.0000000000000D+00  0.0000000000000D+00
   298  2.9700000000000D+00  0.0000000000000D+00  0.0000000000000D+00
   299  2.9800000000000D+00  0.0000000000000D+00  0.0000000000000D+00
   300  2.9900000000000D+00  0.0000000000000D+00  0.0000000000000D+00
   301  3.0000000000000D+00  0.0000000000000D+00  0.0000000000000D+00
   302  3.0100000000000D+00  0.0000000000000D+00  0.0000000000000D+00
   303  3.0200000000000D+00  0.0000000000000D+00  0.0000000000000D+00
   304  3.0300000000000D+00  0.0000000000000D+00  0.0000000000000D+00
   305  3.0400000000000D+00  0.0000000000000D+00  0.0000000000000D+00
   306  3.0500000000000D+00  0.0000000000000D+00  0.0000000000000D+00
   307  3.0600000000000D+00  0.0000000000000D+00  0.0000000000000D+00
   308  3.0700000000000D+00  0.0000000000000D+00  0.0000000000000D+00
   309  3.0800000000000D+00  0.0000000000000D+00  0.0000000000000D+00
   310  3.0900000000000D+00  0.0000000000000D+00  0.0000000000000D+00
   311  3.1000000000000D+00  0.0000000000000D+00  0.0000000000000D+00
   312  3.1100000000000D+00  0.0000000000000D+00  0.0000000000000D+00
   313  3.1200000000000D+00  0.0000000000000D+00  0.0000000000000D+00
   314  3.1300000000000D+00  0.0000000000000D+00  0.0000000000000D+00
   315  3.1400000000000D+00  0.0000000000000D+00  0.0000000000000D+00
   316  3.1500000000000D+00  0.0000000000000D+00  0.0000000000000D+00
   317  3.1600000000000D+00  0.0000000000000D+00  0.0000000000000D+00
   318  3.1700000000000D+00  0.0000000000000D+00  0.0000000000000D+00
   319  3.1800000000000D+00  0.0000000000000D+00  0.0000000000000D+00
   320  3.1900000000000D+00  0.0000000000000D+00  0.0000000000000D+00
   321  3.2000000000000D+00  0.0000000000000D+00  0.0000000000000D+00
   322  3.2100000000000D+00  0.0000000000000D+00  0.0000000000000D+00
   323  3.2200000000000D+00  0.0000000000000D+00  0.0000000000000D+00
   324  3.2300000000000D+00  0.0000000000000D+00  0.0000000000000D+00
   325  3.2400000000000D+00  0.0000000000000D+00  0.0000000000000D+00
   326  3.2500000000000D+00  0.0000000000000D+00  0.0000000000000D+00
   327  3.2600000000000D+00  0.0000000000000D+00  0.0000000000000D+00
   328  3.2700000000000D+00  0.0000000000000D+00  0.0000000000000D+00
   329  3.2800000000000D+00  0.0000000000000D+00  0.0000000000000D+00
   330  3.2900000000000D+00  0.0000000000000D+00  0.0000000000000D+00
   331  3.3000000000000D+00  0.0000000000000D+00  0.0000000000000D+00
   332  3.3100000000000D+00  0.0000000000000D+00  0.0000000000000D+00
   333  3.3200000000000D+00  0.0000000000000D+00  0.0000000000000D+00
   334  3.3300000000000D+00  0.0000000000000D+00  0.0000000000000D+00
   335  3.3400000000000D+00  0.0000000000000D+00  0.0000000000000D+00
   336  3.3500000000000D+00  0.0000000000000D+00  0.0000000000000D+00
   337  3.3600000000000D+00  0.0000000000000D+00  0.0000000000000D+00
   338  3.3700000000000D+00  0.0000000000000D+00  0.0000000000000D+00
   339  3.3800000000000D+00  0.0000000000000D+00  0.0000000000000D+00
   340  3.3900000000000D+00  0.0000000000000D+00  0.0000000000000D+00
   341  3.4000000000000D+00  0.0000000000000D+00  0.0000000000000D+00
   342  3.4100000000000D+00  0.0000000000000D+00  0.0000000000000D+00
   343  3.4200000000000D+00  0.0000000000000D+00  0.0000000000000D+00
   344  3.4300000000000D+00  0.0000000000000D+00  0.0000000000000D+00
   345  3.4400000000000D+00  0.0000000000000D+00  0.0000000000000D+00
   346  3.4500000000000D+00  0.0000000000000D+00  0.0000000000000D+00
   347  3.4600000000000D+00  0.0000000000000D+00  0.0000000000000D+00
   348  3.4700000000000D+00  0.0000000000000D+00  0.0000000000000D+00
   349  3.4800000000000D+00  0.0000000000000D+00  0.0000000000000D+00
   350  3.4900000000000D+00  0.0000000000000D+00  0.0000000000000D+00
   351  3.5000000000000D+00  0.0000000000000D+00  0.0000000000000D+00
   352  3.5100000000000D+00  0.0000000000000D+00  0.0000000000000D+00
   353  3.5200000000000D+00  0.0000000000000D+00  0.0000000000000D+00
   354  3.5300000000000D+00  0.0000000000000D+00  0.0000000000000D+00
   355  3.5400000000000D+00  0.0000000000000D+00  0.0000000000000D+00
   356  3.5500000000000D+00  0.0000000000000D+00  0.0000000000000D+00
   357  3.5600000000000D+00  0.0000000000000D+00  0.0000000000000D+00
   358  3.5700000000000D+00  0.0000000000000D+00  0.0000000000000D+00
   359  3.5800000000000D+00  0.0000000000000D+00  0.0000000000000D+00
   360  3.5900000000000D+00  0.0000000000000D+00  0.0000000000000D+00
   361  3.6000000000000D+00  0.0000000000000D+00  0.0000000000000D+00
   362  3.6100000000000D+00  0.0000000000000D+00  0.0000000000000D+00
   363  3.6200000000000D+00  0.0000000000000D+00  0.0000000000000D+00
   364  3.6300000000000D+00  0.0000000000000D+00  0.0000000000000D+00
   365  3.6400000000000D+00  0.0000000000000D+00  0.0000000000000D+00
   366  3.6500000000000D+00  0.0000000000000D+00  0.0000000000000D+00
   367  3.6600000000000D+00  0.0000000000000D+00  0.0000000000000D+00
   368  3.6700000000000D+00  0.0000000000000D+00  0.0000000000000D+00
   369  3.6800000000000D+00  0.0000000000000D+00  0.0000000000000D+00
   370  3.6900000000000D+00  0.0000000000000D+00  0.0000000000000D+00
   371  3.7000000000000D+00  0.0000000000000D+00  0.0000000000000D+00
   372  3.7100000000000D+00  0.0000000000000D+00  0.0000000000000D+00
   373  3.7200000000000D+00  0.0000000000000D+00  0.0000000000000D+00
   374  3.7300000000000D+00  0.0000000000000D+00  0.0000000000000D+00
   375  3.7400000000000D+00  0.0000000000000D+00  0.0000000000000D+00
   376  3.7500000000000D+00  0.0000000000000D+00  0.0000000000000D+00
   377  3.7600000000000D+00  0.0000000000000D+00  0.0000000000000D+00
   378  3.7700000000000D+00  0.0000000000000D+00  0.0000000000000D+00
   379  3.7800000000000D+00  0.0000000000000D+00  0.0000000000000D+00
   380  3.7900000000000D+00  0.0000000000000D+00  0.0000000000000D+00
   381  3.8000000000000D+00  0.0000000000000D+00  0.0000000000000D+00
   382  3.8100000000000D+00  0.0000000000000D+00  0.0000000000000D+00
   383  3.8200000000000D+00  0.0000000000000D+00  0.0000000000000D+00
   384  3.8300000000000D+00  0.0000000000000D+00  0.0000000000000D+00
   385  3.8400000000000D+00  0.0000000000000D+00  0.0000000000000D+00
   386  3.8500000000000D+00  0.0000000000000D+00  0.0000000000000D+00
   387  3.8600000000000D+00  0.0000000000000D+00  0.0000000000000D+00
   388  3.8700000000000D+00  0.0000000000000D+00  0.0000000000000D+00
   389  3.8800000000000D+00  0.0000000000000D+00  0.0000000000000D+00
   390  3.8900000000000D+00  0.0000000000000D+00  0.0000000000000D+00
   391  3.9000000000000D+00  0.0000000000000D+00  0.0000000000000D+00
   392  3.9100000000000D+00  0.0000000000000D+00  0.0000000000000D+00
   393  3.9200000000000D+00  0.0000000000000D+00  0.0000000000000D+00
   394  3.9300000000000D+00  0.0000000000000D+00  0.0000000000000D+00
   395  3.9400000000000D+00  0.0000000000000D+00  0.0000000000000D+00
   396  3.9500000000000D+00  0.0000000000000D+00  0.0000000000000D+00
   397  3.9600000000000D+00  0.0000000000000D+00  0.0000000000000D+00
   398  3.9700000000000D+00  0.0000000000000D+00  0.0000000000000D+00
   399  3.9800000000000D+00  0.0000000000000D+00  0.0000000000000D+00
   400  3.9900000000000D+00  0.0000000000000D+00  0.0000000000000D+00
   401  4.0000000000000D+00  0.0000000000000D+00  0.0000000000000D+00
   402  4.0100000000000D+00  0.0000000000000D+00  0.0000000000000D+00
   403  4.0200000000000D+00  0.0000000000000D+00  0.0000000000000D+00
   404  4.0300000000000D+00  0.0000000000000D+00  0.0000000000000D+00
   405  4.0400000000000D+00  0.0000000000000D+00  0.0000000000000D+00
   406  4.0500000000000D+00  0.0000000000000D+00  0.0000000000000D+00
   407  4.0600000000000D+00  0.0000000000000D+00  0.0000000000000D+00
   408  4.0700000000000D+00  0.0000000000000D+00  0.0000000000000D+00
   409  4.0800000000000D+00  0.0000000000000D+00  0.0000000000000D+00
   410  4.0900000000000D+00  0.0000000000000D+00  0.0000000000000D+00
   411  4.1000000000000D+00  0.0000000000000D+00  0.0000000000000D+00
   412  4.1100000000000D+00  0.0000000000000D+00  0.0000000000000D+00
   413  4.1200000000000D+00  0.0000000000000D+00  0.0000000000000D+00
   414  4.1300000000000D+00  0.0000000000000D+00  0.0000000000000D+00
   415  4.1400000000000D+00  0.0000000000000D+00  0.0000000000000D+00
   416  4.1500000000000D+00  0.0000000000000D+00  0.0000000000000D+00
   417  4.1600000000000D+00  0.0000000000000D+00  0.0000000000000D+00
   418  4.1700000000000D+00  0.0000000000000D+00  0.0000000000000D+00
   419  4.1800000000000D+00  0.0000000000000D+00  0.0000000000000D+00
   420  4.1900000000000D+00  0.0000000000000D+00  0.0000000000000D+00
   421  4.2000000000000D+00  0.0000000000000D+00  0.0000000000000D+00
   422  4.2100000000000D+00  0.0000000000000D+00  0.0000000000000D+00