Mo    ONCVPSP-3.3.1  r_core=   2.31752   2.51934   2.58017
     42.0000     14.0000      210904    zatom,zion,pspd
     8      11   2     4   600     0    pspcod,pspxc,lmax,lloc,mmax,r2well
  5.99000000  0.00000000  0.00000000    rchrg fchrg qchrg
     2     2     2     0     0    nproj
     1     1           extension_switch
   0                         5.6374179729998D+00  1.0758737581051D+00
     1  0.0000000000000D+00  6.8902661354286D-12 -1.6152357229515D-11
     2  1.0000000000000D-02  4.9212222771617D-02 -8.3817958060858D-03
     3  2.0000000000000D-02  9.8368200998375D-02 -1.6740926213799D-02
     4  3.0000000000000D-02  1.4741172592735D-01 -2.5054669870010D-02
     5  4.0000000000000D-02  1.9628666061115D-01 -3.3300194199826D-02
     6  5.0000000000000D-02  2.4493697636313D-01 -4.1454501511041D-02
     7  6.0000000000000D-02  2.9330678987064D-01 -4.9494377145579D-02
     8  7.0000000000000D-02  3.4134040117769D-01 -5.7396340341396D-02
     9  8.0000000000000D-02  3.8898233274127D-01 -6.5136598452104D-02
    10  9.0000000000000D-02  4.3617736975742D-01 -7.2691005151711D-02
    11  1.0000000000000D-01  4.8287060194261D-01 -8.0035023227948D-02
    12  1.1000000000000D-01  5.2900746694458D-01 -8.7143692540218D-02
    13  1.2000000000000D-01  5.7453379554347D-01 -9.3991603687147D-02
    14  1.3000000000000D-01  6.1939585878939D-01 -1.0055287789410D-01
    15  1.4000000000000D-01  6.6354041720658D-01 -1.0680115359338D-01
    16  1.5000000000000D-01  7.0691477217705D-01 -1.1270958012871D-01
    17  1.6000000000000D-01  7.4946681959810D-01 -1.1825081897197D-01
    18  1.7000000000000D-01  7.9114510588826D-01 -1.2339705279349D-01
    19  1.8000000000000D-01  8.3189888639597D-01 -1.2812000267808D-01
    20  1.9000000000000D-01  8.7167818624339D-01 -1.3239095372772D-01
    21  2.0000000000000D-01  9.1043386361568D-01 -1.3618078923840D-01
    22  2.1000000000000D-01  9.4811767548293D-01 -1.3946003358340D-01
    23  2.2000000000000D-01  9.8468234571850D-01 -1.4219890387869D-01
    24  2.3000000000000D-01  1.0200816355534D+00 -1.4436737044806D-01
    25  2.4000000000000D-01  1.0542704162820D+00 -1.4593522604684D-01
    26  2.5000000000000D-01  1.0872047441110D+00 -1.4687216374341D-01
    27  2.6000000000000D-01  1.1188419370161D+00 -1.4714786329786D-01
    28  2.7000000000000D-01  1.1491406534514D+00 -1.4673208581724D-01
    29  2.8000000000000D-01  1.1780609727271D+00 -1.4559477640700D-01
    30  2.9000000000000D-01  1.2055644768513D+00 -1.4370617447924D-01
    31  3.0000000000000D-01  1.2316143336065D+00 -1.4103693132023D-01
    32  3.1000000000000D-01  1.2561753806098D+00 -1.3755823446245D-01
    33  3.2000000000000D-01  1.2792142100837D+00 -1.3324193835127D-01
    34  3.3000000000000D-01  1.3006992540439D+00 -1.2806070074256D-01
    35  3.4000000000000D-01  1.3206008695902D+00 -1.2198812421626D-01
    36  3.5000000000000D-01  1.3388914239695D+00 -1.1499890214205D-01
    37  3.6000000000000D-01  1.3555453790621D+00 -1.0706896838705D-01
    38  3.7000000000000D-01  1.3705393749257D+00 -9.8175650012686D-02
    39  3.8000000000000D-01  1.3838523120208D+00 -8.8297822167849D-02
    40  3.9000000000000D-01  1.3954654317244D+00 -7.7416064349993D-02
    41  4.0000000000000D-01  1.4053623947338D+00 -6.5512817173290D-02
    42  4.1000000000000D-01  1.4135293569480D+00 -5.2572538755381D-02
    43  4.2000000000000D-01  1.4199550424134D+00 -3.8581859810562D-02
    44  4.3000000000000D-01  1.4246308129113D+00 -2.3529736518451D-02
    45  4.4000000000000D-01  1.4275507337655D+00 -7.4076002229666D-03
    46  4.5000000000000D-01  1.4287116354481D+00  9.7904969925852D-03
    47  4.6000000000000D-01  1.4281131705611D+00  2.8067741812645D-02
    48  4.7000000000000D-01  1.4257578657807D+00  4.7424425235838D-02
    49  4.8000000000000D-01  1.4216511683540D+00  6.7857815111246D-02
    50  4.9000000000000D-01  1.4158014867494D+00  8.9362036603125D-02
    51  5.0000000000000D-01  1.4082202250739D+00  1.1192796150524D-01
    52  5.1000000000000D-01  1.3989218108833D+00  1.3554310730312D-01
    53  5.2000000000000D-01  1.3879237160295D+00  1.6019154685423D-01
    54  5.3000000000000D-01  1.3752464702065D+00  1.8585382952229D-01
    55  5.4000000000000D-01  1.3609136668797D+00  2.1250691456280D-01
    56  5.5000000000000D-01  1.3449519613048D+00  2.4012411751272D-01
    57  5.6000000000000D-01  1.3273910603694D+00  2.6867507028762D-01
    58  5.7000000000000D-01  1.3082637040172D+00  2.9812569563527D-01
    59  5.8000000000000D-01  1.2876056380457D+00  3.2843819653580D-01
    60  5.9000000000000D-01  1.2654555780988D+00  3.5957106107458D-01
    61  6.0000000000000D-01  1.2418551647087D+00  3.9147908324642D-01
    62  6.1000000000000D-01  1.2168489092788D+00  4.2411340007779D-01
    63  6.2000000000000D-01  1.1904841309313D+00  4.5742154537816D-01
    64  6.3000000000000D-01  1.1628108841872D+00  4.9134752035313D-01
    65  6.4000000000000D-01  1.1338818774782D+00  5.2583188122982D-01
    66  6.5000000000000D-01  1.1037523825359D+00  5.6081184396134D-01
    67  6.6000000000000D-01  1.0724801347412D+00  5.9622140599011D-01
    68  6.7000000000000D-01  1.0401252245573D+00  6.3199148496247D-01
    69  6.8000000000000D-01  1.0067499802149D+00  6.6805007419693D-01
    70  6.9000000000000D-01  9.7241884185624D-01  7.0432241461879D-01
    71  7.0000000000000D-01  9.3719822738753D-01  7.4073118278354D-01
    72  7.1000000000000D-01  9.0115639033227D-01  7.7719669452070D-01
    73  7.2000000000000D-01  8.6436327001680D-01  8.1363712364090D-01
    74  7.3000000000000D-01  8.2689033446088D-01  8.4996873506028D-01
    75  7.4000000000000D-01  7.8881041638535D-01  8.8610613160980D-01
    76  7.5000000000000D-01  7.5019754278671D-01  9.2196251371297D-01
    77  7.6000000000000D-01  7.1112675856582D-01  9.5744995103343D-01
    78  7.7000000000000D-01  6.7167394473282D-01  9.9247966511573D-01
    79  7.8000000000000D-01  6.3191563174400D-01  1.0269623219679D+00
    80  7.9000000000000D-01  5.9192880855780D-01  1.0608083334641D+00
    81  8.0000000000000D-01  5.5179072802637D-01  1.0939281663789D+00
    82  8.1000000000000D-01  5.1157870926600D-01  1.1262326578061D+00
    83  8.2000000000000D-01  4.7136993767419D-01  1.1576333356569D+00
    84  8.3000000000000D-01  4.3124126328252D-01  1.1880427428851D+00
    85  8.4000000000000D-01  3.9126899815341D-01  1.2173747640434D+00
    86  8.5000000000000D-01  3.5152871354438D-01  1.2455449527382D+00
    87  8.6000000000000D-01  3.1209503757612D-01  1.2724708585202D+00
    88  8.7000000000000D-01  2.7304145414972D-01  1.2980723517271D+00
    89  8.8000000000000D-01  2.3444010386468D-01  1.3222719447789D+00
    90  8.9000000000000D-01  1.9636158769136D-01  1.3449951084177D+00
    91  9.0000000000000D-01  1.5887477415089D-01  1.3661705813880D+00
    92  9.1000000000000D-01  1.2204661075081D-01  1.3857306720558D+00
    93  9.2000000000000D-01  8.5941940416516D-02  1.4036115504872D+00
    94  9.3000000000000D-01  5.0623323647221D-02  1.4197535295263D+00
    95  9.4000000000000D-01  1.6150867109485D-02  1.4341013334456D+00
    96  9.5000000000000D-01 -1.7417940636980D-02  1.4466043527834D+00
    97  9.6000000000000D-01 -5.0028385608945D-02  1.4572168840267D+00
    98  9.7000000000000D-01 -8.1628676417894D-02  1.4658983528548D+00
    99  9.8000000000000D-01 -1.1217008321881D-01  1.4726135197211D+00
   100  9.9000000000000D-01 -1.4160706700402D-01  1.4773326666184D+00
   101  1.0000000000000D+00 -1.6989739869005D-01  1.4800317639475D+00
   102  1.0100000000000D+00 -1.9700226748543D-01  1.4806926164947D+00
   103  1.0200000000000D+00 -2.2288637806633D-01  1.4793029876066D+00
   104  1.0300000000000D+00 -2.4751803613069D-01  1.4758567007482D+00
   105  1.0400000000000D+00 -2.7086922194642D-01  1.4703537177245D+00
   106  1.0500000000000D+00 -2.9291565155867D-01  1.4628001929554D+00
   107  1.0600000000000D+00 -3.1363682536566D-01  1.4532085032877D+00
   108  1.0700000000000D+00 -3.3301606382933D-01  1.4415972529534D+00
   109  1.0800000000000D+00 -3.5104053013556D-01  1.4279912533838D+00
   110  1.0900000000000D+00 -3.6770123967262D-01  1.4124214777112D+00
   111  1.1000000000000D+00 -3.8299305625431D-01  1.3949249899087D+00
   112  1.1100000000000D+00 -3.9691467505905D-01  1.3755448486172D+00
   113  1.1200000000000D+00 -4.0946859232394D-01  1.3543299858550D+00
   114  1.1300000000000D+00 -4.2066106187789D-01  1.3313350608989D+00
   115  1.1400000000000D+00 -4.3050203866047D-01  1.3066202897607D+00
   116  1.1500000000000D+00 -4.3900510941429D-01  1.2802512507686D+00
   117  1.1600000000000D+00 -4.4618741080650D-01  1.2522986669085D+00
   118  1.1700000000000D+00 -4.5206953527717D-01  1.2228381656654D+00
   119  1.1800000000000D+00 -4.5667542497049D-01  1.1919500172279D+00
   120  1.1900000000000D+00 -4.6003225413592D-01  1.1597188519838D+00
   121  1.2000000000000D+00 -4.6217030045669D-01  1.1262333583787D+00
   122  1.2100000000000D+00 -4.6312280579366D-01  1.0915859622700D+00
   123  1.2200000000000D+00 -4.6292582687055D-01  1.0558724889864D+00
   124  1.2300000000000D+00 -4.6161807647327D-01  1.0191918093974D+00
   125  1.2400000000000D+00 -4.5924075577450D-01  9.8164547136711D-01
   126  1.2500000000000D+00 -4.5583737841843D-01  9.4333731801553D-01
   127  1.2600000000000D+00 -4.5145358703118D-01  9.0437309426715D-01
   128  1.2700000000000D+00 -4.4613696286060D-01  8.6486004323363D-01
   129  1.2800000000000D+00 -4.3993682925726D-01  8.2490649398859D-01
   130  1.2900000000000D+00 -4.3290404973019D-01  7.8462144233269D-01
   131  1.3000000000000D+00 -4.2509082133637D-01  7.4411412617874D-01
   132  1.3100000000000D+00 -4.1655046415873D-01  7.0349359717344D-01
   133  1.3200000000000D+00 -4.0733720764581D-01  6.6286829020359D-01
   134  1.3300000000000D+00 -3.9750597458527D-01  6.2234559240160D-01
   135  1.3400000000000D+00 -3.8711216347963D-01  5.8203141326189D-01
   136  1.3500000000000D+00 -3.7621143010041D-01  5.4202975747646D-01
   137  1.3600000000000D+00 -3.6485946896336D-01  5.0244230199483D-01
   138  1.3700000000000D+00 -3.5311179548877D-01  4.6336797887745D-01
   139  1.3800000000000D+00 -3.4102352956977D-01  4.2490256537568D-01
   140  1.3900000000000D+00 -3.2864918124267D-01  3.8713828260295D-01
   141  1.4000000000000D+00 -3.1604243918899D-01  3.5016340424750D-01
   142  1.4100000000000D+00 -3.0325596267571D-01  3.1406187644590D-01
   143  1.4200000000000D+00 -2.9034117760857D-01  2.7891295012235D-01
   144  1.4300000000000D+00 -2.7734807728926D-01  2.4479082686825D-01
   145  1.4400000000000D+00 -2.6432502839661D-01  2.1176431926679D-01
   146  1.4500000000000D+00 -2.5131858281231D-01  1.7989652681206D-01
   147  1.4600000000000D+00 -2.3837329565486D-01  1.4924452793226D-01
   148  1.4700000000000D+00 -2.2553155008244D-01  1.1985908911744D-01
   149  1.4800000000000D+00 -2.1283338918957D-01  9.1784391565652D-02
   150  1.4900000000000D+00 -2.0031635536250D-01  6.5057775871399D-02
   151  1.5000000000000D+00 -1.8801533607973D-01  3.9709500533193D-02
   152  1.5100000000000D+00 -1.7596242358597D-01  1.5762539549965D-02
   153  1.5200000000000D+00 -1.6418676808117D-01 -6.7676523470054D-03
   154  1.5300000000000D+00 -1.5271450290718D-01 -2.7873140137091D-02
   155  1.5400000000000D+00 -1.4156848423008D-01 -4.7554144214253D-02
   156  1.5500000000000D+00 -1.3076827539606D-01 -6.5818867103581D-02
   157  1.5600000000000D+00 -1.2033052920251D-01 -8.2681940384605D-02
   158  1.5700000000000D+00 -1.1026930555335D-01 -9.8163204263057D-02
   159  1.5800000000000D+00 -1.0059656866873D-01 -1.1228597192811D-01
   160  1.5900000000000D+00 -9.1322316238393D-02 -1.2507657233121D-01
   161  1.6000000000000D+00 -8.2454496024962D-02 -1.3656467345461D-01
   162  1.6100000000000D+00 -7.3999107434747D-02 -1.4678295232894D-01
   163  1.6200000000000D+00 -6.5960258563931D-02 -1.5576693233928D-01
   164  1.6300000000000D+00 -5.8340235234618D-02 -1.6355478888951D-01
   165  1.6400000000000D+00 -5.1139573008445D-02 -1.7018715251534D-01
   166  1.6500000000000D+00 -4.4357133847663D-02 -1.7570690387961D-01
   167  1.6600000000000D+00 -3.7990187104527D-02 -1.8015896111851D-01
   168  1.6700000000000D+00 -3.2034494297844D-02 -1.8359006122654D-01
   169  1.6800000000000D+00 -2.6484397089446D-02 -1.8604853689352D-01
   170  1.6900000000000D+00 -2.1332908086260D-02 -1.8758408982104D-01
   171  1.7000000000000D+00 -1.6571803939904D-02 -1.8824756174503D-01
   172  1.7100000000000D+00 -1.2191720297785D-02 -1.8809070437552D-01
   173  1.7200000000000D+00 -8.1822481424558D-03 -1.8716594928710D-01
   174  1.7300000000000D+00 -4.5320309935102D-03 -1.8552617918088D-01
   175  1.7400000000000D+00 -1.2288626080679D-03 -1.8322450126028D-01
   176  1.7500000000000D+00  1.7402154375023D-03 -1.8031402438427D-01
   177  1.7600000000000D+00  4.3888165278628D-03 -1.7684764039907D-01
   178  1.7700000000000D+00  6.7311128498192D-03 -1.7287781151492D-01
   179  1.7800000000000D+00  8.7817404245051D-03 -1.6845636382594D-01
   180  1.7900000000000D+00  1.0555706071661D-02 -1.6363428892239D-01
   181  1.8000000000000D+00  1.2068296359908D-02 -1.5846155350312D-01
   182  1.8100000000000D+00  1.3334989257522D-02 -1.5298691882589D-01
   183  1.8200000000000D+00  1.4371368530018D-02 -1.4725776990783D-01
   184  1.8300000000000D+00  1.5193041473823D-02 -1.4131995593222D-01
   185  1.8400000000000D+00  1.5815560127362D-02 -1.3521764205905D-01
   186  1.8500000000000D+00  1.6254346291559D-02 -1.2899317336061D-01
   187  1.8600000000000D+00  1.6524620727712D-02 -1.2268695171529D-01
   188  1.8700000000000D+00  1.6641336459857D-02 -1.1633732526116D-01
   189  1.8800000000000D+00  1.6619116915271D-02 -1.0998049223838D-01
   190  1.8900000000000D+00  1.6472198300974D-02 -1.0365041739024D-01
   191  1.9000000000000D+00  1.6214377328932D-02 -9.7378763760093D-02
   192  1.9100000000000D+00  1.5858963369496D-02 -9.1194837218029D-02
   193  1.9200000000000D+00  1.5418736049268D-02 -8.5125546264987D-02
   194  1.9300000000000D+00  1.4905907638830D-02 -7.9195375189913D-02
   195  1.9400000000000D+00  1.4332090642631D-02 -7.3426371492565D-02
   196  1.9500000000000D+00  1.3708270564322D-02 -6.7838147327179D-02
   197  1.9600000000000D+00  1.3044783425308D-02 -6.2447893676319D-02
   198  1.9700000000000D+00  1.2351298726244D-02 -5.7270408876522D-02
   199  1.9800000000000D+00  1.1636806731080D-02 -5.2318138410456D-02
   200  1.9900000000000D+00  1.0909611046771D-02 -4.7601228285451D-02
   201  2.0000000000000D+00  1.0177325430205D-02 -4.3127589085806D-02
   202  2.0100000000000D+00  9.4468751849942D-03 -3.8902971423992D-02
   203  2.0200000000000D+00  8.7245028777786D-03 -3.4931051920452D-02
   204  2.0300000000000D+00  8.0157777366477D-03 -3.1213527924030D-02
   205  2.0400000000000D+00  7.3256093285030D-03 -2.7750222253362D-02
   206  2.0500000000000D+00  6.6582644853369D-03 -2.4539195282884D-02
   207  2.0600000000000D+00  6.0173874487048D-03 -2.1576863909444D-02
   208  2.0700000000000D+00  5.4060228098665D-03 -1.8858126290226D-02
   209  2.0800000000000D+00  4.8266410577925D-03 -1.6376491702738D-02
   210  2.0900000000000D+00  4.2811671154625D-03 -1.4124216283092D-02
   211  2.1000000000000D+00  3.7710109225646D-03 -1.2092442280292D-02
   212  2.1100000000000D+00  3.2970989196241D-03 -1.0271337270642D-02
   213  2.1200000000000D+00  2.8599070438848D-03 -8.6502351632422D-03
   214  2.1300000000000D+00  2.4594947873809D-03 -7.2177776016034D-03
   215  2.1400000000000D+00  2.0955403609250D-03 -5.9620556376969D-03
   216  2.1500000000000D+00  1.7673762966525D-03 -4.8707501443054D-03
   217  2.1600000000000D+00  1.4740245794167D-03 -3.9312680156549D-03
   218  2.1700000000000D+00  1.2142317411763D-03 -3.1308755653780D-03
   219  2.1800000000000D+00  9.8650348994911D-04 -2.4568278705815D-03
   220  2.1900000000000D+00  7.8913816832212D-04 -1.8964918398577D-03
   221  2.2000000000000D+00  6.2025954727219D-04 -1.4374647625566D-03
   222  2.2100000000000D+00  4.7784779715268D-04 -1.0676847643622D-03
   223  2.2200000000000D+00  3.5976876572071D-04 -7.7553364524664D-04
   224  2.2300000000000D+00  2.6380200406332D-04 -5.4993348421953D-04
   225  2.2400000000000D+00  1.8767102931054D-04 -3.8046583329277D-04
   226  2.2500000000000D+00  1.2905301775804D-04 -2.5736127982847D-04
   227  2.2600000000000D+00  8.5593202592321D-05 -1.7152585227195D-04
   228  2.2700000000000D+00  5.4816001161841D-05 -1.1436829713920D-04
   229  2.2800000000000D+00  3.4652222466062D-05 -7.9489582911288D-05
   230  2.2900000000000D+00  2.3003260080883D-05 -6.1233859570373D-05
   231  2.3000000000000D+00  1.8198782485987D-05 -5.5785716544236D-05
   232  2.3100000000000D+00  1.6124728694204D-05 -5.2869640121233D-05
   233  2.3200000000000D+00  1.3450923614078D-05 -4.4665999288956D-05
   234  2.3300000000000D+00  8.1530546017717D-06 -2.7103360818660D-05
   235  2.3400000000000D+00  2.5094941096940D-06 -8.2965638913715D-06
   236  2.3500000000000D+00 -9.6943039821334D-07  3.2881750366060D-06
   237  2.3600000000000D+00 -1.4293407101242D-06  4.8526417943503D-06
   238  2.3700000000000D+00 -4.5265100770638D-07  1.5369975844210D-06
   239  2.3800000000000D+00  2.4139650643336D-07 -8.3002282345980D-07
   240  2.3900000000000D+00  3.0178412638838D-07 -1.0396728225382D-06
   241  2.4000000000000D+00  6.1715022308179D-08 -2.1295558270233D-07
   242  2.4100000000000D+00 -3.3863584724598D-08  1.1217664890408D-07
   243  2.4200000000000D+00 -3.6826344316122D-08  1.2199109841344D-07
   244  2.4300000000000D+00 -3.3014355691240D-09  1.0936348934378D-08
   245  2.4400000000000D+00  0.0000000000000D+00  0.0000000000000D+00
   246  2.4500000000000D+00  0.0000000000000D+00  0.0000000000000D+00
   247  2.4600000000000D+00  0.0000000000000D+00  0.0000000000000D+00
   248  2.4700000000000D+00  0.0000000000000D+00  0.0000000000000D+00
   249  2.4800000000000D+00  0.0000000000000D+00  0.0000000000000D+00
   250  2.4900000000000D+00  0.0000000000000D+00  0.0000000000000D+00
   251  2.5000000000000D+00  0.0000000000000D+00  0.0000000000000D+00
   252  2.5100000000000D+00  0.0000000000000D+00  0.0000000000000D+00
   253  2.5200000000000D+00  0.0000000000000D+00  0.0000000000000D+00
   254  2.5300000000000D+00  0.0000000000000D+00  0.0000000000000D+00
   255  2.5400000000000D+00  0.0000000000000D+00  0.0000000000000D+00
   256  2.5500000000000D+00  0.0000000000000D+00  0.0000000000000D+00
   257  2.5600000000000D+00  0.0000000000000D+00  0.0000000000000D+00
   258  2.5700000000000D+00  0.0000000000000D+00  0.0000000000000D+00
   259  2.5800000000000D+00  0.0000000000000D+00  0.0000000000000D+00
   260  2.5900000000000D+00  0.0000000000000D+00  0.0000000000000D+00
   261  2.6000000000000D+00  0.0000000000000D+00  0.0000000000000D+00
   262  2.6100000000000D+00  0.0000000000000D+00  0.0000000000000D+00
   263  2.6200000000000D+00  0.0000000000000D+00  0.0000000000000D+00
   264  2.6300000000000D+00  0.0000000000000D+00  0.0000000000000D+00
   265  2.6400000000000D+00  0.0000000000000D+00  0.0000000000000D+00
   266  2.6500000000000D+00  0.0000000000000D+00  0.0000000000000D+00
   267  2.6600000000000D+00  0.0000000000000D+00  0.0000000000000D+00
   268  2.6700000000000D+00  0.0000000000000D+00  0.0000000000000D+00
   269  2.6800000000000D+00  0.0000000000000D+00  0.0000000000000D+00
   270  2.6900000000000D+00  0.0000000000000D+00  0.0000000000000D+00
   271  2.7000000000000D+00  0.0000000000000D+00  0.0000000000000D+00
   272  2.7100000000000D+00  0.0000000000000D+00  0.0000000000000D+00
   273  2.7200000000000D+00  0.0000000000000D+00  0.0000000000000D+00
   274  2.7300000000000D+00  0.0000000000000D+00  0.0000000000000D+00
   275  2.7400000000000D+00  0.0000000000000D+00  0.0000000000000D+00
   276  2.7500000000000D+00  0.0000000000000D+00  0.0000000000000D+00
   277  2.7600000000000D+00  0.0000000000000D+00  0.0000000000000D+00
   278  2.7700000000000D+00  0.0000000000000D+00  0.0000000000000D+00
   279  2.7800000000000D+00  0.0000000000000D+00  0.0000000000000D+00
   280  2.7900000000000D+00  0.0000000000000D+00  0.0000000000000D+00
   281  2.8000000000000D+00  0.0000000000000D+00  0.0000000000000D+00
   282  2.8100000000000D+00  0.0000000000000D+00  0.0000000000000D+00
   283  2.8200000000000D+00  0.0000000000000D+00  0.0000000000000D+00
   284  2.8300000000000D+00  0.0000000000000D+00  0.0000000000000D+00
   285  2.8400000000000D+00  0.0000000000000D+00  0.0000000000000D+00
   286  2.8500000000000D+00  0.0000000000000D+00  0.0000000000000D+00
   287  2.8600000000000D+00  0.0000000000000D+00  0.0000000000000D+00
   288  2.8700000000000D+00  0.0000000000000D+00  0.0000000000000D+00
   289  2.8800000000000D+00  0.0000000000000D+00  0.0000000000000D+00
   290  2.8900000000000D+00  0.0000000000000D+00  0.0000000000000D+00
   291  2.9000000000000D+00  0.0000000000000D+00  0.0000000000000D+00
   292  2.9100000000000D+00  0.0000000000000D+00  0.0000000000000D+00
   293  2.9200000000000D+00  0.0000000000000D+00  0.0000000000000D+00
   294  2.9300000000000D+00  0.0000000000000D+00  0.0000000000000D+00
   295  2.9400000000000D+00  0.0000000000000D+00  0.0000000000000D+00
   296  2.9500000000000D+00  0.0000000000000D+00  0.0000000000000D+00
   297  2.9600000000000D+00  0.0000000000000D+00  0.0000000000000D+00
   298  2.9700000000000D+00  0.0000000000000D+00  0.0000000000000D+00
   299  2.9800000000000D+00  0.0000000000000D+00  0.0000000000000D+00
   300  2.9900000000000D+00  0.0000000000000D+00  0.0000000000000D+00
   301  3.0000000000000D+00  0.0000000000000D+00  0.0000000000000D+00
   302  3.0100000000000D+00  0.0000000000000D+00  0.0000000000000D+00
   303  3.0200000000000D+00  0.0000000000000D+00  0.0000000000000D+00
   304  3.0300000000000D+00  0.0000000000000D+00  0.0000000000000D+00
   305  3.0400000000000D+00  0.0000000000000D+00  0.0000000000000D+00
   306  3.0500000000000D+00  0.0000000000000D+00  0.0000000000000D+00
   307  3.0600000000000D+00  0.0000000000000D+00  0.0000000000000D+00
   308  3.0700000000000D+00  0.0000000000000D+00  0.0000000000000D+00
   309  3.0800000000000D+00  0.0000000000000D+00  0.0000000000000D+00
   310  3.0900000000000D+00  0.0000000000000D+00  0.0000000000000D+00
   311  3.1000000000000D+00  0.0000000000000D+00  0.0000000000000D+00
   312  3.1100000000000D+00  0.0000000000000D+00  0.0000000000000D+00
   313  3.1200000000000D+00  0.0000000000000D+00  0.0000000000000D+00
   314  3.1300000000000D+00  0.0000000000000D+00  0.0000000000000D+00
   315  3.1400000000000D+00  0.0000000000000D+00  0.0000000000000D+00
   316  3.1500000000000D+00  0.0000000000000D+00  0.0000000000000D+00
   317  3.1600000000000D+00  0.0000000000000D+00  0.0000000000000D+00
   318  3.1700000000000D+00  0.0000000000000D+00  0.0000000000000D+00
   319  3.1800000000000D+00  0.0000000000000D+00  0.0000000000000D+00
   320  3.1900000000000D+00  0.0000000000000D+00  0.0000000000000D+00
   321  3.2000000000000D+00  0.0000000000000D+00  0.0000000000000D+00
   322  3.2100000000000D+00  0.0000000000000D+00  0.0000000000000D+00
   323  3.2200000000000D+00  0.0000000000000D+00  0.0000000000000D+00
   324  3.2300000000000D+00  0.0000000000000D+00  0.0000000000000D+00
   325  3.2400000000000D+00  0.0000000000000D+00  0.0000000000000D+00
   326  3.2500000000000D+00  0.0000000000000D+00  0.0000000000000D+00
   327  3.2600000000000D+00  0.0000000000000D+00  0.0000000000000D+00
   328  3.2700000000000D+00  0.0000000000000D+00  0.0000000000000D+00
   329  3.2800000000000D+00  0.0000000000000D+00  0.0000000000000D+00
   330  3.2900000000000D+00  0.0000000000000D+00  0.0000000000000D+00
   331  3.3000000000000D+00  0.0000000000000D+00  0.0000000000000D+00
   332  3.3100000000000D+00  0.0000000000000D+00  0.0000000000000D+00
   333  3.3200000000000D+00  0.0000000000000D+00  0.0000000000000D+00
   334  3.3300000000000D+00  0.0000000000000D+00  0.0000000000000D+00
   335  3.3400000000000D+00  0.0000000000000D+00  0.0000000000000D+00
   336  3.3500000000000D+00  0.0000000000000D+00  0.0000000000000D+00
   337  3.3600000000000D+00  0.0000000000000D+00  0.0000000000000D+00
   338  3.3700000000000D+00  0.0000000000000D+00  0.0000000000000D+00
   339  3.3800000000000D+00  0.0000000000000D+00  0.0000000000000D+00
   340  3.3900000000000D+00  0.0000000000000D+00  0.0000000000000D+00
   341  3.4000000000000D+00  0.0000000000000D+00  0.0000000000000D+00
   342  3.4100000000000D+00  0.0000000000000D+00  0.0000000000000D+00
   343  3.4200000000000D+00  0.0000000000000D+00  0.0000000000000D+00
   344  3.4300000000000D+00  0.0000000000000D+00  0.0000000000000D+00
   345  3.4400000000000D+00  0.0000000000000D+00  0.0000000000000D+00
   346  3.4500000000000D+00  0.0000000000000D+00  0.0000000000000D+00
   347  3.4600000000000D+00  0.0000000000000D+00  0.0000000000000D+00
   348  3.4700000000000D+00  0.0000000000000D+00  0.0000000000000D+00
   349  3.4800000000000D+00  0.0000000000000D+00  0.0000000000000D+00
   350  3.4900000000000D+00  0.0000000000000D+00  0.0000000000000D+00
   351  3.5000000000000D+00  0.0000000000000D+00  0.0000000000000D+00
   352  3.5100000000000D+00  0.0000000000000D+00  0.0000000000000D+00
   353  3.5200000000000D+00  0.0000000000000D+00  0.0000000000000D+00
   354  3.5300000000000D+00  0.0000000000000D+00  0.0000000000000D+00
   355  3.5400000000000D+00  0.0000000000000D+00  0.0000000000000D+00
   356  3.5500000000000D+00  0.0000000000000D+00  0.0000000000000D+00
   357  3.5600000000000D+00  0.0000000000000D+00  0.0000000000000D+00
   358  3.5700000000000D+00  0.0000000000000D+00  0.0000000000000D+00
   359  3.5800000000000D+00  0.0000000000000D+00  0.0000000000000D+00
   360  3.5900000000000D+00  0.0000000000000D+00  0.0000000000000D+00
   361  3.6000000000000D+00  0.0000000000000D+00  0.0000000000000D+00
   362  3.6100000000000D+00  0.0000000000000D+00  0.0000000000000D+00
   363  3.6200000000000D+00  0.0000000000000D+00  0.0000000000000D+00
   364  3.6300000000000D+00  0.0000000000000D+00  0.0000000000000D+00
   365  3.6400000000000D+00  0.0000000000000D+00  0.0000000000000D+00
   366  3.6500000000000D+00  0.0000000000000D+00  0.0000000000000D+00
   367  3.6600000000000D+00  0.0000000000000D+00  0.0000000000000D+00
   368  3.6700000000000D+00  0.0000000000000D+00  0.0000000000000D+00
   369  3.6800000000000D+00  0.0000000000000D+00  0.0000000000000D+00
   370  3.6900000000000D+00  0.0000000000000D+00  0.0000000000000D+00
   371  3.7000000000000D+00  0.0000000000000D+00  0.0000000000000D+00
   372  3.7100000000000D+00  0.0000000000000D+00  0.0000000000000D+00
   373  3.7200000000000D+00  0.0000000000000D+00  0.0000000000000D+00
   374  3.7300000000000D+00  0.0000000000000D+00  0.0000000000000D+00
   375  3.7400000000000D+00  0.0000000000000D+00  0.0000000000000D+00
   376  3.7500000000000D+00  0.0000000000000D+00  0.0000000000000D+00
   377  3.7600000000000D+00  0.0000000000000D+00  0.0000000000000D+00
   378  3.7700000000000D+00  0.0000000000000D+00  0.0000000000000D+00
   379  3.7800000000000D+00  0.0000000000000D+00  0.0000000000000D+00
   380  3.7900000000000D+00  0.0000000000000D+00  0.0000000000000D+00
   381  3.8000000000000D+00  0.0000000000000D+00  0.0000000000000D+00
   382  3.8100000000000D+00  0.0000000000000D+00  0.0000000000000D+00
   383  3.8200000000000D+00  0.0000000000000D+00  0.0000000000000D+00
   384  3.8300000000000D+00  0.0000000000000D+00  0.0000000000000D+00
   385  3.8400000000000D+00  0.0000000000000D+00  0.0000000000000D+00
   386  3.8500000000000D+00  0.0000000000000D+00  0.0000000000000D+00
   387  3.8600000000000D+00  0.0000000000000D+00  0.0000000000000D+00
   388  3.8700000000000D+00  0.0000000000000D+00  0.0000000000000D+00
   389  3.8800000000000D+00  0.0000000000000D+00  0.0000000000000D+00
   390  3.8900000000000D+00  0.0000000000000D+00  0.0000000000000D+00
   391  3.9000000000000D+00  0.0000000000000D+00  0.0000000000000D+00
   392  3.9100000000000D+00  0.0000000000000D+00  0.0000000000000D+00
   393  3.9200000000000D+00  0.0000000000000D+00  0.0000000000000D+00
   394  3.9300000000000D+00  0.0000000000000D+00  0.0000000000000D+00
   395  3.9400000000000D+00  0.0000000000000D+00  0.0000000000000D+00
   396  3.9500000000000D+00  0.0000000000000D+00  0.0000000000000D+00
   397  3.9600000000000D+00  0.0000000000000D+00  0.0000000000000D+00
   398  3.9700000000000D+00  0.0000000000000D+00  0.0000000000000D+00
   399  3.9800000000000D+00  0.0000000000000D+00  0.0000000000000D+00
   400  3.9900000000000D+00  0.0000000000000D+00  0.0000000000000D+00
   401  4.0000000000000D+00  0.0000000000000D+00  0.0000000000000D+00
   402  4.0100000000000D+00  0.0000000000000D+00  0.0000000000000D+00
   403  4.0200000000000D+00  0.0000000000000D+00  0.0000000000000D+00
   404  4.0300000000000D+00  0.0000000000000D+00  0.0000000000000D+00
   405  4.0400000000000D+00  0.0000000000000D+00  0.0000000000000D+00
   406  4.0500000000000D+00  0.0000000000000D+00  0.0000000000000D+00
   407  4.0600000000000D+00  0.0000000000000D+00  0.0000000000000D+00
   408  4.0700000000000D+00  0.0000000000000D+00  0.0000000000000D+00
   409  4.0800000000000D+00  0.0000000000000D+00  0.0000000000000D+00
   410  4.0900000000000D+00  0.0000000000000D+00  0.0000000000000D+00
   411  4.1000000000000D+00  0.0000000000000D+00  0.0000000000000D+00
   412  4.1100000000000D+00  0.0000000000000D+00  0.0000000000000D+00
   413  4.1200000000000D+00  0.0000000000000D+00  0.0000000000000D+00
   414  4.1300000000000D+00  0.0000000000000D+00  0.0000000000000D+00
   415  4.1400000000000D+00  0.0000000000000D+00  0.0000000000000D+00
   416  4.1500000000000D+00  0.0000000000000D+00  0.0000000000000D+00
   417  4.1600000000000D+00  0.0000000000000D+00  0.0000000000000D+00
   418  4.1700000000000D+00  0.0000000000000D+00  0.0000000000000D+00
   419  4.1800000000000D+00  0.0000000000000D+00  0.0000000000000D+00
   420  4.1900000000000D+00  0.0000000000000D+00  0.0000000000000D+00
   421  4.2000000000000D+00  0.0000000000000D+00  0.0000000000000D+00
   422  4.2100000000000D+00  0.0000000000000D+00  0.0000000000000D+00