Mo    ONCVPSP-3.3.1  r_core=   2.31752   2.51934   2.58017
     42.0000     14.0000      210904    zatom,zion,pspd
     8      11   2     4   600     0    pspcod,pspxc,lmax,lloc,mmax,r2well
  5.99000000  0.00000000  0.00000000    rchrg fchrg qchrg
     2     3     3     0    nproj
     3     1           extension_switch
     4     4     0    nprojso
   0                         1.0763277922566D+00  5.6409284922721D+00
     1  0.0000000000000D+00 -1.6149415138500D-11  6.8909877803947D-12
     2  1.0000000000000D-02 -8.3949244235309D-03  4.9197851792812D-02
     3  2.0000000000000D-02 -1.6767185414298D-02  9.8339512339373D-02
     4  3.0000000000000D-02 -2.5094063519419D-02  1.4736882602806D-01
     5  4.0000000000000D-02 -3.3352727933857D-02  1.9622970873867D-01
     6  5.0000000000000D-02 -4.1520182540481D-02  2.4486618414172D-01
     7  6.0000000000000D-02 -4.9573213998099D-02  2.9322242065733D-01
     8  7.0000000000000D-02 -5.7488342541224D-02  3.4124276928522D-01
     9  8.0000000000000D-02 -6.5241776139185D-02  3.8887180251090D-01
    10  9.0000000000000D-02 -7.2809368642228D-02  4.3605435448431D-01
    11  1.0000000000000D-01 -8.0166582518429D-02  4.8273556265706D-01
    12  1.1000000000000D-01 -8.7288456757707D-02  5.2886091105280D-01
    13  1.2000000000000D-01 -9.4149580488205D-02  5.7437627533198D-01
    14  1.3000000000000D-01 -1.0072407281568D-01  6.1922796979757D-01
    15  1.4000000000000D-01 -1.0698556935882D-01  6.6336279647231D-01
    16  1.5000000000000D-01 -1.1290721591242D-01  7.0672809636070D-01
    17  1.6000000000000D-01 -1.1846166962658D-01  7.4927180299050D-01
    18  1.7000000000000D-01 -1.2362110804326D-01  7.9094249830870D-01
    19  1.8000000000000D-01 -1.2835724628294D-01  8.3168947098652D-01
    20  1.9000000000000D-01 -1.3264136262208D-01  8.7146277716620D-01
    21  2.0000000000000D-01 -1.3644433264931D-01  9.1021330366007D-01
    22  2.1000000000000D-01 -1.3973667213264D-01  9.4789283358961D-01
    23  2.2000000000000D-01 -1.4248858867351D-01  9.8445411442815D-01
    24  2.3000000000000D-01 -1.4467004216544D-01  1.0198509283874D+00
    25  2.4000000000000D-01 -1.4625081401605D-01  1.0540381650631D+00
    26  2.5000000000000D-01 -1.4720058503208D-01  1.0869718962316D+00
    27  2.6000000000000D-01 -1.4748902180625D-01  1.1186094526632D+00
    28  2.7000000000000D-01 -1.4708587138598D-01  1.1489095027950D+00
    29  2.8000000000000D-01 -1.4596106394310D-01  1.1778321330820D+00
    30  2.9000000000000D-01 -1.4408482310551D-01  1.2053389298192D+00
    31  3.0000000000000D-01 -1.4142778355291D-01  1.2313930622084D+00
    32  3.1000000000000D-01 -1.3796111542198D-01  1.2559593664157D+00
    33  3.2000000000000D-01 -1.3365665501087D-01  1.2790044303493D+00
    34  3.3000000000000D-01 -1.2848704121935D-01  1.3004966788615D+00
    35  3.4000000000000D-01 -1.2242585710941D-01  1.3204064590632D+00
    36  3.5000000000000D-01 -1.1544777592230D-01  1.3387061254187D+00
    37  3.6000000000000D-01 -1.0752871084176D-01  1.3553701242710D+00
    38  3.7000000000000D-01 -9.8645967750463D-02  1.3703750774339D+00
    39  3.8000000000000D-01 -8.8778400186561D-02  1.3836998644727D+00
    40  3.9000000000000D-01 -7.7906565671611D-02  1.3953257032817D+00
    41  4.0000000000000D-01 -6.6012882549055D-02  1.4052362285577D+00
    42  4.1000000000000D-01 -5.3081786444158D-02  1.4134175677607D+00
    43  4.2000000000000D-01 -3.9099885433388D-02  1.4198584141432D+00
    44  4.3000000000000D-01 -2.4056112991595D-02  1.4245500964305D+00
    45  4.4000000000000D-01 -7.9418777718340D-03  1.4274866447259D+00
    46  4.5000000000000D-01  9.2487907367862D-03  1.4286648522208D+00
    47  4.6000000000000D-01  2.7519101632027D-02  1.4280843322868D+00
    48  4.7000000000000D-01  4.6869368059303D-02  1.4257475705351D+00
    49  4.8000000000000D-01  6.7296879661479D-02  1.4216599714343D+00
    50  4.9000000000000D-01  8.8795782956502D-02  1.4158298990858D+00
    51  5.0000000000000D-01  1.1135697056436D-01  1.4082687117716D+00
    52  5.1000000000000D-01  1.3496798018215D-01  1.3989907898977D+00
    53  5.2000000000000D-01  1.5961290417738D-01  1.3880135569785D+00
    54  5.3000000000000D-01  1.8527231063632D-01  1.3753574933243D+00
    55  5.4000000000000D-01  2.1192317666471D-01  1.3610461421130D+00
    56  5.5000000000000D-01  2.3953883469404D-01  1.3451061075546D+00
    57  5.6000000000000D-01  2.6808893249718D-01  1.3275670448801D+00
    58  5.7000000000000D-01  2.9753940756268D-01  1.3084616419146D+00
    59  5.8000000000000D-01  3.2785247641807D-01  1.2878255920250D+00
    60  5.9000000000000D-01  3.5898663942880D-01  1.2656975582618D+00
    61  6.0000000000000D-01  3.9089670153159D-01  1.2421191285527D+00
    62  6.1000000000000D-01  4.2353380928931D-01  1.2171347618340D+00
    63  6.2000000000000D-01  4.5684550457880D-01  1.1907917250484D+00
    64  6.3000000000000D-01  4.9077579514437D-01  1.1631400209719D+00
    65  6.4000000000000D-01  5.2526524216812D-01  1.1342323068724D+00
    66  6.5000000000000D-01  5.6025106492371D-01  1.1041238040429D+00
    67  6.6000000000000D-01  5.9566726249396D-01  1.0728721982915D+00
    68  6.7000000000000D-01  6.3144475244469D-01  1.0405375315137D+00
    69  6.8000000000000D-01  6.6751152625757D-01  1.0071820845124D+00
    70  6.9000000000000D-01  7.0379282123472D-01  9.7287025127261D-01
    71  7.0000000000000D-01  7.4021130849772D-01  9.3766840494173D-01
    72  7.1000000000000D-01  7.7668729661294D-01  9.0164475580488D-01
    73  7.2000000000000D-01  8.1313895028587D-01  8.6486920158820D-01
    74  7.3000000000000D-01  8.4948252347900D-01  8.2741317046186D-01
    75  7.4000000000000D-01  8.8563260622053D-01  7.8934945715445D-01
    76  7.5000000000000D-01  9.2150238428780D-01  7.5075205262847D-01
    77  7.6000000000000D-01  9.5700391086680D-01  7.1169596780385D-01
    78  7.7000000000000D-01  9.9204838921113D-01  6.7225705185107D-01
    79  7.8000000000000D-01  1.0265464652490D+00  6.3251180560970D-01
    80  7.9000000000000D-01  1.0604085290164D+00  5.9253719071904D-01
    81  8.0000000000000D-01  1.0935450237287D+00  5.5241043507714D-01
    82  8.1000000000000D-01  1.1258667612417D+00  5.1220883527149D-01
    83  8.2000000000000D-01  1.1572852425995D+00  4.7200955664871D-01
    84  8.3000000000000D-01  1.1877129823145D+00  4.3188943171245D-01
    85  8.4000000000000D-01  1.2170638349840D+00  3.9192475755738D-01
    86  8.5000000000000D-01  1.2452533228118D+00  3.5219109306289D-01
    87  8.6000000000000D-01  1.2721989625704D+00  3.1276305658251D-01
    88  8.7000000000000D-01  1.2978205905209D+00  2.7371412487471D-01
    89  8.8000000000000D-01  1.3220406837899D+00  2.3511643402621D-01
    90  8.9000000000000D-01  1.3447846766968D+00  1.9704058312198D-01
    91  9.0000000000000D-01  1.3659812705247D+00  1.5955544141452D-01
    92  9.1000000000000D-01  1.3855627352359D+00  1.2272795974102D-01
    93  9.2000000000000D-01  1.4034652016494D+00  8.6622986928500D-02
    94  9.3000000000000D-01  1.4196289426220D+00  5.1303091915609D-02
    95  9.4000000000000D-01  1.4339986418058D+00  1.6828392304486D-02
    96  9.5000000000000D-01  1.4465236485944D+00 -1.6743609962658D-02
    97  9.6000000000000D-01  1.4571582179178D+00 -4.9358185129672D-02
    98  9.7000000000000D-01  1.4658617336011D+00 -8.0963523708298D-02
    99  9.8000000000000D-01  1.4725989140613D+00 -1.1151087549744D-01
   100  9.9000000000000D-01  1.4773399991913D+00 -1.4095467895412D-01
   101  1.0000000000000D+00  1.4800609173465D+00 -1.6925268036385D-01
   102  1.0100000000000D+00  1.4807434314420D+00 -1.9636604229795D-01
   103  1.0200000000000D+00  1.4793752632470D+00 -2.2225944088458D-01
   104  1.0300000000000D+00  1.4759501950624D+00 -2.4690115146370D-01
   105  1.0400000000000D+00  1.4704681480615D+00 -2.7026312224110D-01
   106  1.0500000000000D+00  1.4629352366829D+00 -2.9232103560639D-01
   107  1.0600000000000D+00  1.4533637985591D+00 -3.1305435682384D-01
   108  1.0700000000000D+00  1.4417723995895D+00 -3.3244636986206D-01
   109  1.0800000000000D+00  1.4281858138679D+00 -3.5048420017679D-01
   110  1.0900000000000D+00  1.4126349782936D+00 -3.6715882431512D-01
   111  1.1000000000000D+00  1.3951569218182D+00 -3.8246506626711D-01
   112  1.1100000000000D+00  1.3757946693773D+00 -3.9640158053566D-01
   113  1.1200000000000D+00  1.3545971206994D+00 -4.0897082196328D-01
   114  1.1300000000000D+00  1.3316189042830D+00 -4.2017900239921D-01
   115  1.1400000000000D+00  1.3069202069648D+00 -4.3003603435334D-01
   116  1.1500000000000D+00  1.2805665795877D+00 -4.3855546182411D-01
   117  1.1600000000000D+00  1.2526287194238D+00 -4.4575437855555D-01
   118  1.1700000000000D+00  1.2231822300915D+00 -4.5165333402090D-01
   119  1.1800000000000D+00  1.1923073598312D+00 -4.5627622748806D-01
   120  1.1900000000000D+00  1.1600887190649D+00 -4.5965019055376D-01
   121  1.2000000000000D+00  1.1266149783130D+00 -4.6180545860333D-01
   122  1.2100000000000D+00  1.0919785476004D+00 -4.6277523168362D-01
   123  1.2200000000000D+00  1.0562752385609D+00 -4.6259552531466D-01
   124  1.2300000000000D+00  1.0196039105454D+00 -4.6130501181248D-01
   125  1.2400000000000D+00  9.8206610210628D-01 -4.5894485273363D-01
   126  1.2500000000000D+00  9.4376564928376D-01 -4.5555852307612D-01
   127  1.2600000000000D+00  9.0480829217062D-01 -4.5119162790186D-01
   128  1.2700000000000D+00  8.6530127130479D-01 -4.4589171208386D-01
   129  1.2800000000000D+00  8.2535291544619D-01 -4.3970806388981D-01
   130  1.2900000000000D+00  7.8507222233647D-01 -4.3269151313512D-01
   131  1.3000000000000D+00  7.4456843407130D-01 -4.2489422466432D-01
   132  1.3100000000000D+00  7.0395060870192D-01 -4.1636948791508D-01
   133  1.3200000000000D+00  6.6332718971356D-01 -4.0717150333792D-01
   134  1.3300000000000D+00  6.2280557499600D-01 -3.9735516644349D-01
   135  1.3400000000000D+00  5.8249168691754D-01 -3.8697585024562D-01
   136  1.3500000000000D+00  5.4248954511112D-01 -3.7608918687616D-01
   137  1.3600000000000D+00  5.0290084347765D-01 -3.6475084911402D-01
   138  1.3700000000000D+00  4.6382453297598D-01 -3.5301633259251D-01
   139  1.3800000000000D+00  4.2535641163274D-01 -3.4094073940752D-01
   140  1.3900000000000D+00  3.8758872313676D-01 -3.2857856382080D-01
   141  1.4000000000000D+00  3.5060976546881D-01 -3.1598348078762D-01
   142  1.4100000000000D+00  3.1450351068609D-01 -3.0320813791570D-01
   143  1.4200000000000D+00  2.7934923716657D-01 -2.9030395152991D-01
   144  1.4300000000000D+00  2.4522117538811D-01 -2.7732090743390D-01
   145  1.4400000000000D+00  2.1218816814739D-01 -2.6430736688860D-01
   146  1.4500000000000D+00  1.8031334636829D-01 -2.5130987842839D-01
   147  1.4600000000000D+00  1.4965382100974D-01 -2.3837299587874D-01
   148  1.4700000000000D+00  1.2026039207374D-01 -2.2553910313599D-01
   149  1.4800000000000D+00  9.2177275127863D-02 -2.1284824603456D-01
   150  1.4900000000000D+00  6.5441845866294D-02 -2.0033797166654D-01
   151  1.5000000000000D+00  4.0084398503144D-02 -1.8804317414569D-01
   152  1.5100000000000D+00  1.6127943113436D-02 -1.7599595419636D-01
   153  1.5200000000000D+00 -6.4120290700257D-03 -1.6422547235216D-01
   154  1.5300000000000D+00 -2.7527545569035D-02 -1.5275787425854D-01
   155  1.5400000000000D+00 -4.7218790958217D-02 -1.4161602963018D-01
   156  1.5500000000000D+00 -6.5493934638595D-02 -1.3081951623344D-01
   157  1.5600000000000D+00 -8.2367569287173D-02 -1.2038500440682D-01
   158  1.5700000000000D+00 -9.7859491773284D-02 -1.1032657412857D-01
   159  1.5800000000000D+00 -1.1199298295187D-01 -1.0065620745785D-01
   160  1.5900000000000D+00 -1.2479434723082D-01 -9.1383918512493D-02
   161  1.6000000000000D+00 -1.3629322273385D-01 -8.2517673871313D-02
   162  1.6100000000000D+00 -1.4652225511330D-01 -7.4063492947075D-02
   163  1.6200000000000D+00 -1.5551694073635D-01 -6.6025503249936D-02
   164  1.6300000000000D+00 -1.6331543009167D-01 -5.8406010008791D-02
   165  1.6400000000000D+00 -1.6995832964282D-01 -5.1205568481448D-02
   166  1.6500000000000D+00 -1.7548849749659D-01 -4.4423060349888D-02
   167  1.6600000000000D+00 -1.7995083075374D-01 -3.8055774639708D-02
   168  1.6700000000000D+00 -1.8339204680333D-01 -3.2099492455392D-02
   169  1.6800000000000D+00 -1.8586046016587D-01 -2.6548574888700D-02
   170  1.6900000000000D+00 -1.8740575577964D-01 -2.1396053765133D-02
   171  1.7000000000000D+00 -1.8807875999641D-01 -1.6633724688626D-02
   172  1.7100000000000D+00 -1.8793121049890D-01 -1.2252241938188D-02
   173  1.7200000000000D+00 -1.8701552616513D-01 -8.2412147559456D-03
   174  1.7300000000000D+00 -1.8538457830264D-01 -4.5893045003867D-03
   175  1.7400000000000D+00 -1.8309146399581D-01 -1.2843223006104D-03
   176  1.7500000000000D+00 -1.8018928322967D-01  1.6866734054711D-03
   177  1.7600000000000D+00 -1.7673092019117D-01  4.3372796921926D-03
   178  1.7700000000000D+00 -1.7276883061459D-01  6.6816530251089D-03
   179  1.7800000000000D+00 -1.6835483526917D-01  8.7344143281443D-03
   180  1.7900000000000D+00 -1.6353992153828D-01  1.0510555979740D-02
   181  1.8000000000000D+00 -1.5837405299798D-01  1.2025350791939D-02
   182  1.8100000000000D+00 -1.5290598883252D-01  1.3294263686743D-02
   183  1.8200000000000D+00 -1.4718311299930D-01  1.4332866116082D-02
   184  1.8300000000000D+00 -1.4125127459924D-01  1.5156753814529D-02
   185  1.8400000000000D+00 -1.3515463965004D-01  1.5781468026112D-02
   186  1.8500000000000D+00 -1.2893555498373D-01  1.6222420537158D-02
   187  1.8600000000000D+00 -1.2263442510161D-01  1.6494822883106D-02
   188  1.8700000000000D+00 -1.1628960158804D-01  1.6613619656462D-02
   189  1.8800000000000D+00 -1.0993728691220D-01  1.6593426649333D-02
   190  1.8900000000000D+00 -1.0361145078766D-01  1.6448473228742D-02
   191  1.9000000000000D+00 -9.7343761926932D-02  1.6192550057073D-02
   192  1.9100000000000D+00 -9.1163532525075D-02  1.5838961237663D-02
   193  1.9200000000000D+00 -8.5097678019691D-02  1.5400481901288D-02
   194  1.9300000000000D+00 -7.9170690203123D-02  1.4889320579407D-02
   195  1.9400000000000D+00 -7.3404624599560D-02  1.4317086776401D-02
   196  1.9500000000000D+00 -6.7819101862420D-02  1.3694763714245D-02
   197  1.9600000000000D+00 -6.2431321901441D-02  1.3032685827661D-02
   198  1.9700000000000D+00 -5.7256092359964D-02  1.2340521698886D-02
   199  1.9800000000000D+00 -5.2305868357380D-02  1.1627261312241D-02
   200  1.9900000000000D+00 -4.7590805822356D-02  1.0901208603459D-02
   201  2.0000000000000D+00 -4.3118825489861D-02  1.0169978230457D-02
   202  2.0100000000000D+00 -3.8895688300998D-02  9.4404969333223D-03
   203  2.0200000000000D+00 -3.4925081340172D-02  8.7190092151143D-03
   204  2.0300000000000D+00 -3.1208712586246D-02  8.0110867302650D-03
   205  2.0400000000000D+00 -2.7746415539831D-02  7.3216418965828D-03
   206  2.0500000000000D+00 -2.4536260881360D-02  6.6549446386428D-03
   207  2.0600000000000D+00 -2.1574675668692D-02  6.0146425919961D-03
   208  2.0700000000000D+00 -1.8856568480097D-02  5.4037841664958D-03
   209  2.0800000000000D+00 -1.6375459645182D-02  4.8248442039797D-03
   210  2.0900000000000D+00 -1.4123616150135D-02  4.2797521775521D-03
   211  2.1000000000000D+00 -1.2092189292358D-02  3.7699221523406D-03
   212  2.1100000000000D+00 -1.0271355102945D-02  3.2962846881854D-03
   213  2.1200000000000D+00 -8.6504561351311D-03  2.8593200964214D-03
   214  2.1300000000000D+00 -7.2181435251481D-03  2.4590927129605D-03
   215  2.1400000000000D+00 -5.9625174896712D-03  2.0952855965702D-03
   216  2.1500000000000D+00 -4.8712667200637D-03  1.7672357244530D-03
   217  2.1600000000000D+00 -3.9318052439358D-03  1.4739693407547D-03
   218  2.1700000000000D+00 -3.1314060182266D-03  1.2142370958076D-03
   219  2.1800000000000D+00 -2.4573305638102D-03  9.8654875621252D-04
   220  2.1900000000000D+00 -1.8969516364017D-03  7.8920649026532D-04
   221  2.2000000000000D+00 -1.4378717253387D-03  6.2033761831373D-04
   222  2.2100000000000D+00 -1.0680335201991D-03  4.7792556472460D-04
   223  2.2200000000000D+00 -7.7582276204624D-04  3.5983911919616D-04
   224  2.2300000000000D+00 -5.5016484103141D-04  2.6386043960767D-04
   225  2.2400000000000D+00 -3.8064397094408D-04  1.8771527185429D-04
   226  2.2500000000000D+00 -2.5749273632864D-04  1.2908266531831D-04
   227  2.2600000000000D+00 -1.7161848930300D-04  8.5609373365613D-05
   228  2.2700000000000D+00 -1.1443044945741D-04  5.4820973919273D-05
   229  2.2800000000000D+00 -7.9529969585514D-05  3.4648675596142D-05
   230  2.2900000000000D+00 -6.1260844692599D-05  2.2993878086264D-05
   231  2.3000000000000D+00 -5.5807248253956D-05  1.8185773825657D-05
   232  2.3100000000000D+00 -5.2889009652255D-05  1.6110876039132D-05
   233  2.3200000000000D+00 -4.4682424936859D-05  1.3439180607706D-05
   234  2.3300000000000D+00 -2.7113375413051D-05  8.1460060536472D-06
   235  2.3400000000000D+00 -8.2996602000883D-06  2.5073788552383D-06
   236  2.3500000000000D+00  3.2893587862753D-06 -9.6854622195096D-07
   237  2.3600000000000D+00  4.8543864378433D-06 -1.4280380601372D-06
   238  2.3700000000000D+00  1.5375498384241D-06 -4.5223941081443D-07
   239  2.3800000000000D+00 -8.3031923226176D-07  2.4116482537911D-07
   240  2.3900000000000D+00 -1.0400435231324D-06  3.0149305846319D-07
   241  2.4000000000000D+00 -2.1303141536780D-07  6.1655255796901D-08
   242  2.4100000000000D+00  1.1221792832425D-07 -3.3834111594035D-08
   243  2.4200000000000D+00  1.2203598941222D-07 -3.6794292551284D-08
   244  2.4300000000000D+00  1.0940373356102D-08 -3.2985621686153D-09
   245  2.4400000000000D+00  0.0000000000000D+00  0.0000000000000D+00
   246  2.4500000000000D+00  0.0000000000000D+00  0.0000000000000D+00
   247  2.4600000000000D+00  0.0000000000000D+00  0.0000000000000D+00
   248  2.4700000000000D+00  0.0000000000000D+00  0.0000000000000D+00
   249  2.4800000000000D+00  0.0000000000000D+00  0.0000000000000D+00
   250  2.4900000000000D+00  0.0000000000000D+00  0.0000000000000D+00
   251  2.5000000000000D+00  0.0000000000000D+00  0.0000000000000D+00
   252  2.5100000000000D+00  0.0000000000000D+00  0.0000000000000D+00
   253  2.5200000000000D+00  0.0000000000000D+00  0.0000000000000D+00
   254  2.5300000000000D+00  0.0000000000000D+00  0.0000000000000D+00
   255  2.5400000000000D+00  0.0000000000000D+00  0.0000000000000D+00
   256  2.5500000000000D+00  0.0000000000000D+00  0.0000000000000D+00
   257  2.5600000000000D+00  0.0000000000000D+00  0.0000000000000D+00
   258  2.5700000000000D+00  0.0000000000000D+00  0.0000000000000D+00
   259  2.5800000000000D+00  0.0000000000000D+00  0.0000000000000D+00
   260  2.5900000000000D+00  0.0000000000000D+00  0.0000000000000D+00
   261  2.6000000000000D+00  0.0000000000000D+00  0.0000000000000D+00
   262  2.6100000000000D+00  0.0000000000000D+00  0.0000000000000D+00
   263  2.6200000000000D+00  0.0000000000000D+00  0.0000000000000D+00
   264  2.6300000000000D+00  0.0000000000000D+00  0.0000000000000D+00
   265  2.6400000000000D+00  0.0000000000000D+00  0.0000000000000D+00
   266  2.6500000000000D+00  0.0000000000000D+00  0.0000000000000D+00
   267  2.6600000000000D+00  0.0000000000000D+00  0.0000000000000D+00
   268  2.6700000000000D+00  0.0000000000000D+00  0.0000000000000D+00
   269  2.6800000000000D+00  0.0000000000000D+00  0.0000000000000D+00
   270  2.6900000000000D+00  0.0000000000000D+00  0.0000000000000D+00
   271  2.7000000000000D+00  0.0000000000000D+00  0.0000000000000D+00
   272  2.7100000000000D+00  0.0000000000000D+00  0.0000000000000D+00
   273  2.7200000000000D+00  0.0000000000000D+00  0.0000000000000D+00
   274  2.7300000000000D+00  0.0000000000000D+00  0.0000000000000D+00
   275  2.7400000000000D+00  0.0000000000000D+00  0.0000000000000D+00
   276  2.7500000000000D+00  0.0000000000000D+00  0.0000000000000D+00
   277  2.7600000000000D+00  0.0000000000000D+00  0.0000000000000D+00
   278  2.7700000000000D+00  0.0000000000000D+00  0.0000000000000D+00
   279  2.7800000000000D+00  0.0000000000000D+00  0.0000000000000D+00
   280  2.7900000000000D+00  0.0000000000000D+00  0.0000000000000D+00
   281  2.8000000000000D+00  0.0000000000000D+00  0.0000000000000D+00
   282  2.8100000000000D+00  0.0000000000000D+00  0.0000000000000D+00
   283  2.8200000000000D+00  0.0000000000000D+00  0.0000000000000D+00
   284  2.8300000000000D+00  0.0000000000000D+00  0.0000000000000D+00
   285  2.8400000000000D+00  0.0000000000000D+00  0.0000000000000D+00
   286  2.8500000000000D+00  0.0000000000000D+00  0.0000000000000D+00
   287  2.8600000000000D+00  0.0000000000000D+00  0.0000000000000D+00
   288  2.8700000000000D+00  0.0000000000000D+00  0.0000000000000D+00
   289  2.8800000000000D+00  0.0000000000000D+00  0.0000000000000D+00
   290  2.8900000000000D+00  0.0000000000000D+00  0.0000000000000D+00
   291  2.9000000000000D+00  0.0000000000000D+00  0.0000000000000D+00
   292  2.9100000000000D+00  0.0000000000000D+00  0.0000000000000D+00
   293  2.9200000000000D+00  0.0000000000000D+00  0.0000000000000D+00
   294  2.9300000000000D+00  0.0000000000000D+00  0.0000000000000D+00
   295  2.9400000000000D+00  0.0000000000000D+00  0.0000000000000D+00
   296  2.9500000000000D+00  0.0000000000000D+00  0.0000000000000D+00
   297  2.9600000000000D+00  0.0000000000000D+00  0.0000000000000D+00
   298  2.9700000000000D+00  0.0000000000000D+00  0.0000000000000D+00
   299  2.9800000000000D+00  0.0000000000000D+00  0.0000000000000D+00
   300  2.9900000000000D+00  0.0000000000000D+00  0.0000000000000D+00
   301  3.0000000000000D+00  0.0000000000000D+00  0.0000000000000D+00
   302  3.0100000000000D+00  0.0000000000000D+00  0.0000000000000D+00
   303  3.0200000000000D+00  0.0000000000000D+00  0.0000000000000D+00
   304  3.0300000000000D+00  0.0000000000000D+00  0.0000000000000D+00
   305  3.0400000000000D+00  0.0000000000000D+00  0.0000000000000D+00
   306  3.0500000000000D+00  0.0000000000000D+00  0.0000000000000D+00
   307  3.0600000000000D+00  0.0000000000000D+00  0.0000000000000D+00
   308  3.0700000000000D+00  0.0000000000000D+00  0.0000000000000D+00
   309  3.0800000000000D+00  0.0000000000000D+00  0.0000000000000D+00
   310  3.0900000000000D+00  0.0000000000000D+00  0.0000000000000D+00
   311  3.1000000000000D+00  0.0000000000000D+00  0.0000000000000D+00
   312  3.1100000000000D+00  0.0000000000000D+00  0.0000000000000D+00
   313  3.1200000000000D+00  0.0000000000000D+00  0.0000000000000D+00
   314  3.1300000000000D+00  0.0000000000000D+00  0.0000000000000D+00
   315  3.1400000000000D+00  0.0000000000000D+00  0.0000000000000D+00
   316  3.1500000000000D+00  0.0000000000000D+00  0.0000000000000D+00
   317  3.1600000000000D+00  0.0000000000000D+00  0.0000000000000D+00
   318  3.1700000000000D+00  0.0000000000000D+00  0.0000000000000D+00
   319  3.1800000000000D+00  0.0000000000000D+00  0.0000000000000D+00
   320  3.1900000000000D+00  0.0000000000000D+00  0.0000000000000D+00
   321  3.2000000000000D+00  0.0000000000000D+00  0.0000000000000D+00
   322  3.2100000000000D+00  0.0000000000000D+00  0.0000000000000D+00
   323  3.2200000000000D+00  0.0000000000000D+00  0.0000000000000D+00
   324  3.2300000000000D+00  0.0000000000000D+00  0.0000000000000D+00
   325  3.2400000000000D+00  0.0000000000000D+00  0.0000000000000D+00
   326  3.2500000000000D+00  0.0000000000000D+00  0.0000000000000D+00
   327  3.2600000000000D+00  0.0000000000000D+00  0.0000000000000D+00
   328  3.2700000000000D+00  0.0000000000000D+00  0.0000000000000D+00
   329  3.2800000000000D+00  0.0000000000000D+00  0.0000000000000D+00
   330  3.2900000000000D+00  0.0000000000000D+00  0.0000000000000D+00
   331  3.3000000000000D+00  0.0000000000000D+00  0.0000000000000D+00
   332  3.3100000000000D+00  0.0000000000000D+00  0.0000000000000D+00
   333  3.3200000000000D+00  0.0000000000000D+00  0.0000000000000D+00
   334  3.3300000000000D+00  0.0000000000000D+00  0.0000000000000D+00
   335  3.3400000000000D+00  0.0000000000000D+00  0.0000000000000D+00
   336  3.3500000000000D+00  0.0000000000000D+00  0.0000000000000D+00
   337  3.3600000000000D+00  0.0000000000000D+00  0.0000000000000D+00
   338  3.3700000000000D+00  0.0000000000000D+00  0.0000000000000D+00
   339  3.3800000000000D+00  0.0000000000000D+00  0.0000000000000D+00
   340  3.3900000000000D+00  0.0000000000000D+00  0.0000000000000D+00
   341  3.4000000000000D+00  0.0000000000000D+00  0.0000000000000D+00
   342  3.4100000000000D+00  0.0000000000000D+00  0.0000000000000D+00
   343  3.4200000000000D+00  0.0000000000000D+00  0.0000000000000D+00
   344  3.4300000000000D+00  0.0000000000000D+00  0.0000000000000D+00
   345  3.4400000000000D+00  0.0000000000000D+00  0.0000000000000D+00
   346  3.4500000000000D+00  0.0000000000000D+00  0.0000000000000D+00
   347  3.4600000000000D+00  0.0000000000000D+00  0.0000000000000D+00
   348  3.4700000000000D+00  0.0000000000000D+00  0.0000000000000D+00
   349  3.4800000000000D+00  0.0000000000000D+00  0.0000000000000D+00
   350  3.4900000000000D+00  0.0000000000000D+00  0.0000000000000D+00
   351  3.5000000000000D+00  0.0000000000000D+00  0.0000000000000D+00
   352  3.5100000000000D+00  0.0000000000000D+00  0.0000000000000D+00
   353  3.5200000000000D+00  0.0000000000000D+00  0.0000000000000D+00
   354  3.5300000000000D+00  0.0000000000000D+00  0.0000000000000D+00
   355  3.5400000000000D+00  0.0000000000000D+00  0.0000000000000D+00
   356  3.5500000000000D+00  0.0000000000000D+00  0.0000000000000D+00
   357  3.5600000000000D+00  0.0000000000000D+00  0.0000000000000D+00
   358  3.5700000000000D+00  0.0000000000000D+00  0.0000000000000D+00
   359  3.5800000000000D+00  0.0000000000000D+00  0.0000000000000D+00
   360  3.5900000000000D+00  0.0000000000000D+00  0.0000000000000D+00
   361  3.6000000000000D+00  0.0000000000000D+00  0.0000000000000D+00
   362  3.6100000000000D+00  0.0000000000000D+00  0.0000000000000D+00
   363  3.6200000000000D+00  0.0000000000000D+00  0.0000000000000D+00
   364  3.6300000000000D+00  0.0000000000000D+00  0.0000000000000D+00
   365  3.6400000000000D+00  0.0000000000000D+00  0.0000000000000D+00
   366  3.6500000000000D+00  0.0000000000000D+00  0.0000000000000D+00
   367  3.6600000000000D+00  0.0000000000000D+00  0.0000000000000D+00
   368  3.6700000000000D+00  0.0000000000000D+00  0.0000000000000D+00
   369  3.6800000000000D+00  0.0000000000000D+00  0.0000000000000D+00
   370  3.6900000000000D+00  0.0000000000000D+00  0.0000000000000D+00
   371  3.7000000000000D+00  0.0000000000000D+00  0.0000000000000D+00
   372  3.7100000000000D+00  0.0000000000000D+00  0.0000000000000D+00
   373  3.7200000000000D+00  0.0000000000000D+00  0.0000000000000D+00
   374  3.7300000000000D+00  0.0000000000000D+00  0.0000000000000D+00
   375  3.7400000000000D+00  0.0000000000000D+00  0.0000000000000D+00
   376  3.7500000000000D+00  0.0000000000000D+00  0.0000000000000D+00
   377  3.7600000000000D+00  0.0000000000000D+00  0.0000000000000D+00
   378  3.7700000000000D+00  0.0000000000000D+00  0.0000000000000D+00
   379  3.7800000000000D+00  0.0000000000000D+00  0.0000000000000D+00
   380  3.7900000000000D+00  0.0000000000000D+00  0.0000000000000D+00
   381  3.8000000000000D+00  0.0000000000000D+00  0.0000000000000D+00
   382  3.8100000000000D+00  0.0000000000000D+00  0.0000000000000D+00
   383  3.8200000000000D+00  0.0000000000000D+00  0.0000000000000D+00
   384  3.8300000000000D+00  0.0000000000000D+00  0.0000000000000D+00
   385  3.8400000000000D+00  0.0000000000000D+00  0.0000000000000D+00
   386  3.8500000000000D+00  0.0000000000000D+00  0.0000000000000D+00
   387  3.8600000000000D+00  0.0000000000000D+00  0.0000000000000D+00
   388  3.8700000000000D+00  0.0000000000000D+00  0.0000000000000D+00
   389  3.8800000000000D+00  0.0000000000000D+00  0.0000000000000D+00
   390  3.8900000000000D+00  0.0000000000000D+00  0.0000000000000D+00
   391  3.9000000000000D+00  0.0000000000000D+00  0.0000000000000D+00
   392  3.9100000000000D+00  0.0000000000000D+00  0.0000000000000D+00
   393  3.9200000000000D+00  0.0000000000000D+00  0.0000000000000D+00
   394  3.9300000000000D+00  0.0000000000000D+00  0.0000000000000D+00
   395  3.9400000000000D+00  0.0000000000000D+00  0.0000000000000D+00
   396  3.9500000000000D+00  0.0000000000000D+00  0.0000000000000D+00
   397  3.9600000000000D+00  0.0000000000000D+00  0.0000000000000D+00
   398  3.9700000000000D+00  0.0000000000000D+00  0.0000000000000D+00
   399  3.9800000000000D+00  0.0000000000000D+00  0.0000000000000D+00
   400  3.9900000000000D+00  0.0000000000000D+00  0.0000000000000D+00
   401  4.0000000000000D+00  0.0000000000000D+00  0.0000000000000D+00
   402  4.0100000000000D+00  0.0000000000000D+00  0.0000000000000D+00
   403  4.0200000000000D+00  0.0000000000000D+00  0.0000000000000D+00
   404  4.0300000000000D+00  0.0000000000000D+00  0.0000000000000D+00
   405  4.0400000000000D+00  0.0000000000000D+00  0.0000000000000D+00
   406  4.0500000000000D+00  0.0000000000000D+00  0.0000000000000D+00
   407  4.0600000000000D+00  0.0000000000000D+00  0.0000000000000D+00
   408  4.0700000000000D+00  0.0000000000000D+00  0.0000000000000D+00
   409  4.0800000000000D+00  0.0000000000000D+00  0.0000000000000D+00
   410  4.0900000000000D+00  0.0000000000000D+00  0.0000000000000D+00
   411  4.1000000000000D+00  0.0000000000000D+00  0.0000000000000D+00
   412  4.1100000000000D+00  0.0000000000000D+00  0.0000000000000D+00
   413  4.1200000000000D+00  0.0000000000000D+00  0.0000000000000D+00
   414  4.1300000000000D+00  0.0000000000000D+00  0.0000000000000D+00
   415  4.1400000000000D+00  0.0000000000000D+00  0.0000000000000D+00
   416  4.1500000000000D+00  0.0000000000000D+00  0.0000000000000D+00
   417  4.1600000000000D+00  0.0000000000000D+00  0.0000000000000D+00
   418  4.1700000000000D+00  0.0000000000000D+00  0.0000000000000D+00
   419  4.1800000000000D+00  0.0000000000000D+00  0.0000000000000D+00
   420  4.1900000000000D+00  0.0000000000000D+00  0.0000000000000D+00
   421  4.2000000000000D+00  0.0000000000000D+00  0.0000000000000D+00
   422  4.2100000000000D+00  0.0000000000000D+00  0.0000000000000D+00