N     ONCVPSP-3.3.1  r_core=   1.60510   1.53031
      7.0000      5.0000      210904    zatom,zion,pspd
     8      11   1     4   600     0    pspcod,pspxc,lmax,lloc,mmax,r2well
  5.99000000  0.00000000  0.00000000    rchrg fchrg qchrg
     2     2     0     0     0    nproj
     1     1           extension_switch
   0                         7.1407619413935D+00  1.0048088637205D+00
     1  0.0000000000000D+00  4.2737591243736D-11 -1.9560636443927D-10
     2  1.0000000000000D-02  8.6716418602837D-02 -3.8289414883872D-02
     3  2.0000000000000D-02  1.7320504019748D-01 -7.6353873866564D-02
     4  3.0000000000000D-02  2.5923874469938D-01 -1.1396917193688D-01
     5  4.0000000000000D-02  3.4459176463126D-01 -1.5091260638416D-01
     6  5.0000000000000D-02  4.2904035831561D-01 -1.8696372919911D-01
     7  6.0000000000000D-02  5.1236347930230D-01 -2.2190510083363D-01
     8  7.0000000000000D-02  5.9434344072521D-01 -2.5552304553920D-01
     9  8.0000000000000D-02  6.7476657323853D-01 -2.8760840830744D-01
    10  9.0000000000000D-02  7.5342387513202D-01 -3.1795731319810D-01
    11  1.0000000000000D-01  8.3011165316477D-01 -3.4637192256189D-01
    12  1.1000000000000D-01  9.0463215259093D-01 -3.7266119635237D-01
    13  1.2000000000000D-01  9.7679417477950D-01 -3.9664165037882D-01
    14  1.3000000000000D-01  1.0464136807554D+00 -4.1813811198487D-01
    15  1.4000000000000D-01  1.1133143789126D+00 -4.3698447125234D-01
    16  1.5000000000000D-01  1.1773282950743D+00 -4.5302442543273D-01
    17  1.6000000000000D-01  1.2382963229980D+00 -4.6611221390647D-01
    18  1.7000000000000D-01  1.2960687533584D+00 -4.7611334056941D-01
    19  1.8000000000000D-01  1.3505057791697D+00 -4.8290528015454D-01
    20  1.9000000000000D-01  1.4014779755591D+00 -4.8637816462118D-01
    21  2.0000000000000D-01  1.4488667517526D+00 -4.8643544539139D-01
    22  2.1000000000000D-01  1.4925647731035D+00 -4.8299452689075D-01
    23  2.2000000000000D-01  1.5324763509716D+00 -4.7598736656489D-01
    24  2.3000000000000D-01  1.5685177982573D+00 -4.6536103630042D-01
    25  2.4000000000000D-01  1.6006177484090D+00 -4.5107823998535D-01
    26  2.5000000000000D-01  1.6287174357519D+00 -4.3311778180495D-01
    27  2.6000000000000D-01  1.6527709350400D+00 -4.1147497978965D-01
    28  2.7000000000000D-01  1.6727453582037D+00 -3.8616201911545D-01
    29  2.8000000000000D-01  1.6886210063640D+00 -3.5720823970911D-01
    30  2.9000000000000D-01  1.7003914752968D+00 -3.2466035283151D-01
    31  3.0000000000000D-01  1.7080637126762D+00 -2.8858258150633D-01
    32  3.1000000000000D-01  1.7116580255858D+00 -2.4905671992751D-01
    33  3.2000000000000D-01  1.7112080369734D+00 -2.0618210731880D-01
    34  3.3000000000000D-01  1.7067605899360D+00 -1.6007551213070D-01
    35  3.4000000000000D-01  1.6983755989471D+00 -1.1087092294327D-01
    36  3.5000000000000D-01  1.6861258473932D+00 -5.8719242994295D-02
    37  3.6000000000000D-01  1.6700967310529D+00 -3.7878858677727D-03
    38  3.7000000000000D-01  1.6503859474398D+00  5.3739729446050D-02
    39  3.8000000000000D-01  1.6271031312337D+00  1.1366478517757D-01
    40  3.9000000000000D-01  1.6003694363376D+00  1.7577377337073D-01
    41  4.0000000000000D-01  1.5703170654281D+00  2.3983930589968D-01
    42  4.1000000000000D-01  1.5370887481994D+00  3.0562102451206D-01
    43  4.2000000000000D-01  1.5008371698427D+00  3.7286660862052D-01
    44  4.3000000000000D-01  1.4617243516454D+00  4.4131287766584D-01
    45  4.4000000000000D-01  1.4199209859390D+00  5.1068698396926D-01
    46  4.5000000000000D-01  1.3756057279617D+00  5.8070769108739D-01
    47  4.6000000000000D-01  1.3289644475355D+00  6.5108673179057D-01
    48  4.7000000000000D-01  1.2801894437800D+00  7.2153023891485D-01
    49  4.8000000000000D-01  1.2294786263920D+00  7.9174024149890D-01
    50  4.9000000000000D-01  1.1770346673151D+00  8.6141621781946D-01
    51  5.0000000000000D-01  1.1230641268933D+00  9.3025669619367D-01
    52  5.1000000000000D-01  1.0677765588532D+00  9.9796089373104D-01
    53  5.2000000000000D-01  1.0113835986823D+00  1.0642303826031D+00
    54  5.3000000000000D-01  9.5409804016722D-01  1.1287707728618D+00
    55  5.4000000000000D-01  8.9613290501814D-01  1.1912934003865D+00
    56  5.5000000000000D-01  8.3770051063764D-01  1.2515170081823D+00
    57  5.6000000000000D-01  7.7901154118681D-01  1.3091694089931D+00
    58  5.7000000000000D-01  7.2027412716062D-01  1.3639891170388D+00
    59  5.8000000000000D-01  6.6169293870430D-01  1.4157269366391D+00
    60  5.9000000000000D-01  6.0346829788359D-01  1.4641474955536D+00
    61  6.0000000000000D-01  5.4579531506264D-01  1.5090307110448D+00
    62  6.1000000000000D-01  4.8886305444400D-01  1.5501731769650D+00
    63  6.2000000000000D-01  4.3285373368673D-01  1.5873894605716D+00
    64  6.3000000000000D-01  3.7794196233861D-01  1.6205132982971D+00
    65  6.4000000000000D-01  3.2429402360317D-01  1.6493986803217D+00
    66  6.5000000000000D-01  2.7206720370665D-01  1.6739208145298D+00
    67  6.6000000000000D-01  2.2140917284063D-01  1.6939769612594D+00
    68  6.7000000000000D-01  1.7245742133406D-01  1.7094871311736D+00
    69  6.8000000000000D-01  1.2533875435368D-01  1.7203946395882D+00
    70  6.9000000000000D-01  8.0168848050856D-02  1.7266665116701D+00
    71  7.0000000000000D-01  3.7051869665385D-02  1.7282937340653D+00
    72  7.1000000000000D-01 -3.9198363287719D-03  1.7252913497120D+00
    73  7.2000000000000D-01 -4.2665994399496D-02  1.7176983938405D+00
    74  7.3000000000000D-01 -7.9118575275313D-02  1.7055776704332D+00
    75  7.4000000000000D-01 -1.1322190369794D-01  1.6890153697056D+00
    76  7.5000000000000D-01 -1.4493269637495D-01  1.6681205284707D+00
    77  7.6000000000000D-01 -1.7422003037356D-01  1.6430243365304D+00
    78  7.7000000000000D-01 -2.0106524267111D-01  1.6138792935083D+00
    79  7.8000000000000D-01 -2.2546176204286D-01  1.5808582217662D+00
    80  7.9000000000000D-01 -2.4741487492130D-01  1.5441531422315D+00
    81  8.0000000000000D-01 -2.6694142729948D-01  1.5039740210808D+00
    82  8.1000000000000D-01 -2.8406946516861D-01  1.4605473962783D+00
    83  8.2000000000000D-01 -2.9883781637405D-01  1.4141148939276D+00
    84  8.3000000000000D-01 -3.1129561714034D-01  1.3649316452662D+00
    85  8.4000000000000D-01 -3.2150178685105D-01  1.3132646158960D+00
    86  8.5000000000000D-01 -3.2952445497068D-01  1.2593908594910D+00
    87  8.6000000000000D-01 -3.3544034425984D-01  1.2035957087533D+00
    88  8.7000000000000D-01 -3.3933411466052D-01  1.1461709167887D+00
    89  8.8000000000000D-01 -3.4129767241175D-01  1.0874127623406D+00
    90  8.9000000000000D-01 -3.4142944909718D-01  1.0276201324545D+00
    91  9.0000000000000D-01 -3.3983365542350D-01  9.6709259613888D-01
    92  9.1000000000000D-01 -3.3661951458098D-01  9.0612848244362D-01
    93  9.2000000000000D-01 -3.3190048004574D-01  8.4502297609727D-01
    94  9.3000000000000D-01 -3.2579344264676D-01  7.8406624342763D-01
    95  9.4000000000000D-01 -3.1841793164052D-01  7.2354160074486D-01
    96  9.5000000000000D-01 -3.0989531441393D-01  6.6372373669550D-01
    97  9.6000000000000D-01 -3.0034799927341D-01  6.0487699931059D-01
    98  9.7000000000000D-01 -2.8989864557319D-01  5.4725375756287D-01
    99  9.8000000000000D-01 -2.7866938520425D-01  4.9109284627679D-01
   100  9.9000000000000D-01 -2.6678105918846D-01  4.3661810212889D-01
   101  1.0000000000000D+00 -2.5435247282369D-01  3.8403699732615D-01
   102  1.0100000000000D+00 -2.4149967249910D-01  3.3353937633066D-01
   103  1.0200000000000D+00 -2.2833524694940D-01  2.8529629972675D-01
   104  1.0300000000000D+00 -2.1496765535112D-01  2.3945899802857D-01
   105  1.0400000000000D+00 -2.0150058426811D-01  1.9615793685867D-01
   106  1.0500000000000D+00 -1.8803233509717D-01  1.5550199371689D-01
   107  1.0600000000000D+00 -1.7465524322139D-01  1.1757774508713D-01
   108  1.0700000000000D+00 -1.6145512971429D-01  8.2448861451831D-02
   109  1.0800000000000D+00 -1.4851078603542D-01  5.0155606502376D-02
   110  1.0900000000000D+00 -1.3589349084417D-01  2.0714431911344D-02
   111  1.1000000000000D+00 -1.2366655982419D-01 -5.8823325898126D-03
   112  1.1100000000000D+00 -1.1188495089246D-01 -2.9666613779051D-02
   113  1.1200000000000D+00 -1.0059482023439D-01 -5.0694963512818D-02
   114  1.1300000000000D+00 -8.9833219840917D-02 -6.9048422374929D-02
   115  1.1400000000000D+00 -7.9629043150258D-02 -8.4827393892960D-02
   116  1.1500000000000D+00 -7.0004335370705D-02 -9.8145577684770D-02
   117  1.1600000000000D+00 -6.0975181388618D-02 -1.0912598041143D-01
   118  1.1700000000000D+00 -5.2551805366746D-02 -1.1790034271644D-01
   119  1.1800000000000D+00 -4.4738943833430D-02 -1.2460749732981D-01
   120  1.1900000000000D+00 -3.7536179591623D-02 -1.2939199067340D-01
   121  1.2000000000000D+00 -3.0938310638698D-02 -1.3240264425977D-01
   122  1.2100000000000D+00 -2.4935732620165D-02 -1.3379114369956D-01
   123  1.2200000000000D+00 -1.9514835058828D-02 -1.3371065021964D-01
   124  1.2300000000000D+00 -1.4658406614062D-02 -1.3231445019017D-01
   125  1.2400000000000D+00 -1.0346045420589D-02 -1.2975465463723D-01
   126  1.2500000000000D+00 -6.5545705543526D-03 -1.2618096059094D-01
   127  1.2600000000000D+00 -3.2584309616910D-03 -1.2173948455639D-01
   128  1.2700000000000D+00 -4.3010839189122D-04 -1.1657167753578D-01
   129  1.2800000000000D+00  1.9594890996111D-03 -1.1081333080493D-01
   130  1.2900000000000D+00  3.9406460329732D-03 -1.0459367949197D-01
   131  1.3000000000000D+00  5.5444734424897D-03 -9.8034609879586D-02
   132  1.3100000000000D+00  6.8025606028027D-03 -9.1249976515492D-02
   133  1.3200000000000D+00  7.7466465072096D-03 -8.4345032047500D-02
   134  1.3300000000000D+00  8.4083128781090D-03 -7.7415972046897D-02
   135  1.3400000000000D+00  8.8187005554876D-03 -7.0549597247632D-02
   136  1.3500000000000D+00  9.0082500599705D-03 -6.3823091556625D-02
   137  1.3600000000000D+00  9.0064673327644D-03 -5.7303915047001D-02
   138  1.3700000000000D+00  8.8417153199950D-03 -5.1049809770425D-02
   139  1.3800000000000D+00  8.5410311802372D-03 -4.5108913002659D-02
   140  1.3900000000000D+00  8.1299694149033D-03 -3.9519974432599D-02
   141  1.4000000000000D+00  7.6324702235967D-03 -3.4312670136341D-02
   142  1.4100000000000D+00  7.0707522823176D-03 -2.9508005969758D-02
   143  1.4200000000000D+00  6.4652293376078D-03 -2.5118803516242D-02
   144  1.4300000000000D+00  5.8344488531497D-03 -2.1150257952213D-02
   145  1.4400000000000D+00  5.1950517166486D-03 -1.7600559735245D-02
   146  1.4500000000000D+00  4.5617510857726D-03 -1.4461568942480D-02
   147  1.4600000000000D+00  3.9473286268777D-03 -1.1719531983990D-02
   148  1.4700000000000D+00  3.3626463180221D-03 -9.3558296966189D-03
   149  1.4800000000000D+00  2.8166715855127D-03 -7.3477455199586D-03
   150  1.4900000000000D+00  2.3165138685901D-03 -5.6692425300936D-03
   151  1.5000000000000D+00  1.8674703143223D-03 -4.2917381698755D-03
   152  1.5100000000000D+00  1.4730786032892D-03 -3.1848658305822D-03
   153  1.5200000000000D+00  1.1351746155398D-03 -2.3172119767750D-03
   154  1.5300000000000D+00  8.5395319382596D-04 -1.6570201363961D-03
   155  1.5400000000000D+00  6.2802952957857D-04 -1.1728493583085D-03
   156  1.5500000000000D+00  4.5456951296045D-04 -8.3434696499516D-04
   157  1.5600000000000D+00  3.2933294101810D-04 -6.1275820881259D-04
   158  1.5700000000000D+00  2.4443139088005D-04 -4.7612573138635D-04
   159  1.5800000000000D+00  1.9453042399160D-04 -4.0382247215529D-04
   160  1.5900000000000D+00  1.8456930010056D-04 -4.0360987416136D-04
   161  1.6000000000000D+00  1.8667284005935D-04 -4.1604071149799D-04
   162  1.6100000000000D+00  1.3357277361435D-04 -2.9855461637908D-04
   163  1.6200000000000D+00  3.5878308988756D-05 -8.0196885026552D-05
   164  1.6300000000000D+00 -1.6691763340768D-05  3.7418968866369D-05
   165  1.6400000000000D+00 -8.8010625033397D-06  1.9736292531789D-05
   166  1.6500000000000D+00  3.6705315946477D-06 -8.2332884343236D-06
   167  1.6600000000000D+00  2.0062471092098D-06 -4.5014948552582D-06
   168  1.6700000000000D+00 -4.3584426900996D-07  9.7319064318588D-07
   169  1.6800000000000D+00 -2.4446347335446D-07  5.4585911020397D-07
   170  1.6900000000000D+00  0.0000000000000D+00  0.0000000000000D+00
   171  1.7000000000000D+00  0.0000000000000D+00  0.0000000000000D+00
   172  1.7100000000000D+00  0.0000000000000D+00  0.0000000000000D+00
   173  1.7200000000000D+00  0.0000000000000D+00  0.0000000000000D+00
   174  1.7300000000000D+00  0.0000000000000D+00  0.0000000000000D+00
   175  1.7400000000000D+00  0.0000000000000D+00  0.0000000000000D+00
   176  1.7500000000000D+00  0.0000000000000D+00  0.0000000000000D+00
   177  1.7600000000000D+00  0.0000000000000D+00  0.0000000000000D+00
   178  1.7700000000000D+00  0.0000000000000D+00  0.0000000000000D+00
   179  1.7800000000000D+00  0.0000000000000D+00  0.0000000000000D+00
   180  1.7900000000000D+00  0.0000000000000D+00  0.0000000000000D+00
   181  1.8000000000000D+00  0.0000000000000D+00  0.0000000000000D+00
   182  1.8100000000000D+00  0.0000000000000D+00  0.0000000000000D+00
   183  1.8200000000000D+00  0.0000000000000D+00  0.0000000000000D+00
   184  1.8300000000000D+00  0.0000000000000D+00  0.0000000000000D+00
   185  1.8400000000000D+00  0.0000000000000D+00  0.0000000000000D+00
   186  1.8500000000000D+00  0.0000000000000D+00  0.0000000000000D+00
   187  1.8600000000000D+00  0.0000000000000D+00  0.0000000000000D+00
   188  1.8700000000000D+00  0.0000000000000D+00  0.0000000000000D+00
   189  1.8800000000000D+00  0.0000000000000D+00  0.0000000000000D+00
   190  1.8900000000000D+00  0.0000000000000D+00  0.0000000000000D+00
   191  1.9000000000000D+00  0.0000000000000D+00  0.0000000000000D+00
   192  1.9100000000000D+00  0.0000000000000D+00  0.0000000000000D+00
   193  1.9200000000000D+00  0.0000000000000D+00  0.0000000000000D+00
   194  1.9300000000000D+00  0.0000000000000D+00  0.0000000000000D+00
   195  1.9400000000000D+00  0.0000000000000D+00  0.0000000000000D+00
   196  1.9500000000000D+00  0.0000000000000D+00  0.0000000000000D+00
   197  1.9600000000000D+00  0.0000000000000D+00  0.0000000000000D+00
   198  1.9700000000000D+00  0.0000000000000D+00  0.0000000000000D+00
   199  1.9800000000000D+00  0.0000000000000D+00  0.0000000000000D+00
   200  1.9900000000000D+00  0.0000000000000D+00  0.0000000000000D+00
   201  2.0000000000000D+00  0.0000000000000D+00  0.0000000000000D+00
   202  2.0100000000000D+00  0.0000000000000D+00  0.0000000000000D+00
   203  2.0200000000000D+00  0.0000000000000D+00  0.0000000000000D+00
   204  2.0300000000000D+00  0.0000000000000D+00  0.0000000000000D+00
   205  2.0400000000000D+00  0.0000000000000D+00  0.0000000000000D+00
   206  2.0500000000000D+00  0.0000000000000D+00  0.0000000000000D+00
   207  2.0600000000000D+00  0.0000000000000D+00  0.0000000000000D+00
   208  2.0700000000000D+00  0.0000000000000D+00  0.0000000000000D+00
   209  2.0800000000000D+00  0.0000000000000D+00  0.0000000000000D+00
   210  2.0900000000000D+00  0.0000000000000D+00  0.0000000000000D+00
   211  2.1000000000000D+00  0.0000000000000D+00  0.0000000000000D+00
   212  2.1100000000000D+00  0.0000000000000D+00  0.0000000000000D+00
   213  2.1200000000000D+00  0.0000000000000D+00  0.0000000000000D+00
   214  2.1300000000000D+00  0.0000000000000D+00  0.0000000000000D+00
   215  2.1400000000000D+00  0.0000000000000D+00  0.0000000000000D+00
   216  2.1500000000000D+00  0.0000000000000D+00  0.0000000000000D+00
   217  2.1600000000000D+00  0.0000000000000D+00  0.0000000000000D+00
   218  2.1700000000000D+00  0.0000000000000D+00  0.0000000000000D+00
   219  2.1800000000000D+00  0.0000000000000D+00  0.0000000000000D+00
   220  2.1900000000000D+00  0.0000000000000D+00  0.0000000000000D+00
   221  2.2000000000000D+00  0.0000000000000D+00  0.0000000000000D+00
   222  2.2100000000000D+00  0.0000000000000D+00  0.0000000000000D+00
   223  2.2200000000000D+00  0.0000000000000D+00  0.0000000000000D+00
   224  2.2300000000000D+00  0.0000000000000D+00  0.0000000000000D+00
   225  2.2400000000000D+00  0.0000000000000D+00  0.0000000000000D+00
   226  2.2500000000000D+00  0.0000000000000D+00  0.0000000000000D+00
   227  2.2600000000000D+00  0.0000000000000D+00  0.0000000000000D+00
   228  2.2700000000000D+00  0.0000000000000D+00  0.0000000000000D+00
   229  2.2800000000000D+00  0.0000000000000D+00  0.0000000000000D+00
   230  2.2900000000000D+00  0.0000000000000D+00  0.0000000000000D+00
   231  2.3000000000000D+00  0.0000000000000D+00  0.0000000000000D+00
   232  2.3100000000000D+00  0.0000000000000D+00  0.0000000000000D+00
   233  2.3200000000000D+00  0.0000000000000D+00  0.0000000000000D+00
   234  2.3300000000000D+00  0.0000000000000D+00  0.0000000000000D+00
   235  2.3400000000000D+00  0.0000000000000D+00  0.0000000000000D+00
   236  2.3500000000000D+00  0.0000000000000D+00  0.0000000000000D+00
   237  2.3600000000000D+00  0.0000000000000D+00  0.0000000000000D+00
   238  2.3700000000000D+00  0.0000000000000D+00  0.0000000000000D+00
   239  2.3800000000000D+00  0.0000000000000D+00  0.0000000000000D+00
   240  2.3900000000000D+00  0.0000000000000D+00  0.0000000000000D+00
   241  2.4000000000000D+00  0.0000000000000D+00  0.0000000000000D+00
   242  2.4100000000000D+00  0.0000000000000D+00  0.0000000000000D+00
   243  2.4200000000000D+00  0.0000000000000D+00  0.0000000000000D+00
   244  2.4300000000000D+00  0.0000000000000D+00  0.0000000000000D+00
   245  2.4400000000000D+00  0.0000000000000D+00  0.0000000000000D+00
   246  2.4500000000000D+00  0.0000000000000D+00  0.0000000000000D+00
   247  2.4600000000000D+00  0.0000000000000D+00  0.0000000000000D+00
   248  2.4700000000000D+00  0.0000000000000D+00  0.0000000000000D+00
   249  2.4800000000000D+00  0.0000000000000D+00  0.0000000000000D+00
   250  2.4900000000000D+00  0.0000000000000D+00  0.0000000000000D+00
   251  2.5000000000000D+00  0.0000000000000D+00  0.0000000000000D+00
   252  2.5100000000000D+00  0.0000000000000D+00  0.0000000000000D+00
   253  2.5200000000000D+00  0.0000000000000D+00  0.0000000000000D+00
   254  2.5300000000000D+00  0.0000000000000D+00  0.0000000000000D+00
   255  2.5400000000000D+00  0.0000000000000D+00  0.0000000000000D+00
   256  2.5500000000000D+00  0.0000000000000D+00  0.0000000000000D+00
   257  2.5600000000000D+00  0.0000000000000D+00  0.0000000000000D+00
   258  2.5700000000000D+00  0.0000000000000D+00  0.0000000000000D+00
   259  2.5800000000000D+00  0.0000000000000D+00  0.0000000000000D+00
   260  2.5900000000000D+00  0.0000000000000D+00  0.0000000000000D+00
   261  2.6000000000000D+00  0.0000000000000D+00  0.0000000000000D+00
   262  2.6100000000000D+00  0.0000000000000D+00  0.0000000000000D+00
   263  2.6200000000000D+00  0.0000000000000D+00  0.0000000000000D+00
   264  2.6300000000000D+00  0.0000000000000D+00  0.0000000000000D+00
   265  2.6400000000000D+00  0.0000000000000D+00  0.0000000000000D+00
   266  2.6500000000000D+00  0.0000000000000D+00  0.0000000000000D+00
   267  2.6600000000000D+00  0.0000000000000D+00  0.0000000000000D+00
   268  2.6700000000000D+00  0.0000000000000D+00  0.0000000000000D+00
   269  2.6800000000000D+00  0.0000000000000D+00  0.0000000000000D+00
   270  2.6900000000000D+00  0.0000000000000D+00  0.0000000000000D+00
   271  2.7000000000000D+00  0.0000000000000D+00  0.0000000000000D+00
   272  2.7100000000000D+00  0.0000000000000D+00  0.0000000000000D+00
   273  2.7200000000000D+00  0.0000000000000D+00  0.0000000000000D+00
   274  2.7300000000000D+00  0.0000000000000D+00  0.0000000000000D+00
   275  2.7400000000000D+00  0.0000000000000D+00  0.0000000000000D+00
   276  2.7500000000000D+00  0.0000000000000D+00  0.0000000000000D+00
   277  2.7600000000000D+00  0.0000000000000D+00  0.0000000000000D+00
   278  2.7700000000000D+00  0.0000000000000D+00  0.0000000000000D+00
   279  2.7800000000000D+00  0.0000000000000D+00  0.0000000000000D+00
   280  2.7900000000000D+00  0.0000000000000D+00  0.0000000000000D+00
   281  2.8000000000000D+00  0.0000000000000D+00  0.0000000000000D+00
   282  2.8100000000000D+00  0.0000000000000D+00  0.0000000000000D+00
   283  2.8200000000000D+00  0.0000000000000D+00  0.0000000000000D+00
   284  2.8300000000000D+00  0.0000000000000D+00  0.0000000000000D+00
   285  2.8400000000000D+00  0.0000000000000D+00  0.0000000000000D+00
   286  2.8500000000000D+00  0.0000000000000D+00  0.0000000000000D+00
   287  2.8600000000000D+00  0.0000000000000D+00  0.0000000000000D+00
   288  2.8700000000000D+00  0.0000000000000D+00  0.0000000000000D+00
   289  2.8800000000000D+00  0.0000000000000D+00  0.0000000000000D+00
   290  2.8900000000000D+00  0.0000000000000D+00  0.0000000000000D+00
   291  2.9000000000000D+00  0.0000000000000D+00  0.0000000000000D+00
   292  2.9100000000000D+00  0.0000000000000D+00  0.0000000000000D+00
   293  2.9200000000000D+00  0.0000000000000D+00  0.0000000000000D+00
   294  2.9300000000000D+00  0.0000000000000D+00  0.0000000000000D+00
   295  2.9400000000000D+00  0.0000000000000D+00  0.0000000000000D+00
   296  2.9500000000000D+00  0.0000000000000D+00  0.0000000000000D+00
   297  2.9600000000000D+00  0.0000000000000D+00  0.0000000000000D+00
   298  2.9700000000000D+00  0.0000000000000D+00  0.0000000000000D+00
   299  2.9800000000000D+00  0.0000000000000D+00  0.0000000000000D+00
   300  2.9900000000000D+00  0.0000000000000D+00  0.0000000000000D+00
   301  3.0000000000000D+00  0.0000000000000D+00  0.0000000000000D+00
   302  3.0100000000000D+00  0.0000000000000D+00  0.0000000000000D+00
   303  3.0200000000000D+00  0.0000000000000D+00  0.0000000000000D+00
   304  3.0300000000000D+00  0.0000000000000D+00  0.0000000000000D+00
   305  3.0400000000000D+00  0.0000000000000D+00  0.0000000000000D+00
   306  3.0500000000000D+00  0.0000000000000D+00  0.0000000000000D+00
   307  3.0600000000000D+00  0.0000000000000D+00  0.0000000000000D+00
   308  3.0700000000000D+00  0.0000000000000D+00  0.0000000000000D+00
   309  3.0800000000000D+00  0.0000000000000D+00  0.0000000000000D+00
   310  3.0900000000000D+00  0.0000000000000D+00  0.0000000000000D+00
   311  3.1000000000000D+00  0.0000000000000D+00  0.0000000000000D+00
   312  3.1100000000000D+00  0.0000000000000D+00  0.0000000000000D+00
   313  3.1200000000000D+00  0.0000000000000D+00  0.0000000000000D+00
   314  3.1300000000000D+00  0.0000000000000D+00  0.0000000000000D+00
   315  3.1400000000000D+00  0.0000000000000D+00  0.0000000000000D+00
   316  3.1500000000000D+00  0.0000000000000D+00  0.0000000000000D+00
   317  3.1600000000000D+00  0.0000000000000D+00  0.0000000000000D+00
   318  3.1700000000000D+00  0.0000000000000D+00  0.0000000000000D+00
   319  3.1800000000000D+00  0.0000000000000D+00  0.0000000000000D+00
   320  3.1900000000000D+00  0.0000000000000D+00  0.0000000000000D+00
   321  3.2000000000000D+00  0.0000000000000D+00  0.0000000000000D+00
   322  3.2100000000000D+00  0.0000000000000D+00  0.0000000000000D+00
   323  3.2200000000000D+00  0.0000000000000D+00  0.0000000000000D+00
   324  3.2300000000000D+00  0.0000000000000D+00  0.0000000000000D+00
   325  3.2400000000000D+00  0.0000000000000D+00  0.0000000000000D+00
   326  3.2500000000000D+00  0.0000000000000D+00  0.0000000000000D+00
   327  3.2600000000000D+00  0.0000000000000D+00  0.0000000000000D+00
   328  3.2700000000000D+00  0.0000000000000D+00  0.0000000000000D+00
   329  3.2800000000000D+00  0.0000000000000D+00  0.0000000000000D+00
   330  3.2900000000000D+00  0.0000000000000D+00  0.0000000000000D+00
   331  3.3000000000000D+00  0.0000000000000D+00  0.0000000000000D+00
   332  3.3100000000000D+00  0.0000000000000D+00  0.0000000000000D+00
   333  3.3200000000000D+00  0.0000000000000D+00  0.0000000000000D+00
   334  3.3300000000000D+00  0.0000000000000D+00  0.0000000000000D+00
   335  3.3400000000000D+00  0.0000000000000D+00  0.0000000000000D+00
   336  3.3500000000000D+00  0.0000000000000D+00  0.0000000000000D+00
   337  3.3600000000000D+00  0.0000000000000D+00  0.0000000000000D+00
   338  3.3700000000000D+00  0.0000000000000D+00  0.0000000000000D+00
   339  3.3800000000000D+00  0.0000000000000D+00  0.0000000000000D+00
   340  3.3900000000000D+00  0.0000000000000D+00  0.0000000000000D+00
   341  3.4000000000000D+00  0.0000000000000D+00  0.0000000000000D+00
   342  3.4100000000000D+00  0.0000000000000D+00  0.0000000000000D+00
   343  3.4200000000000D+00  0.0000000000000D+00  0.0000000000000D+00
   344  3.4300000000000D+00  0.0000000000000D+00  0.0000000000000D+00
   345  3.4400000000000D+00  0.0000000000000D+00  0.0000000000000D+00
   346  3.4500000000000D+00  0.0000000000000D+00  0.0000000000000D+00
   347  3.4600000000000D+00  0.0000000000000D+00  0.0000000000000D+00
   348  3.4700000000000D+00  0.0000000000000D+00  0.0000000000000D+00
   349  3.4800000000000D+00  0.0000000000000D+00  0.0000000000000D+00
   350  3.4900000000000D+00  0.0000000000000D+00  0.0000000000000D+00
   351  3.5000000000000D+00  0.0000000000000D+00  0.0000000000000D+00
   352  3.5100000000000D+00  0.0000000000000D+00  0.0000000000000D+00
   353  3.5200000000000D+00  0.0000000000000D+00  0.0000000000000D+00
   354  3.5300000000000D+00  0.0000000000000D+00  0.0000000000000D+00
   355  3.5400000000000D+00  0.0000000000000D+00  0.0000000000000D+00
   356  3.5500000000000D+00  0.0000000000000D+00  0.0000000000000D+00
   357  3.5600000000000D+00  0.0000000000000D+00  0.0000000000000D+00
   358  3.5700000000000D+00  0.0000000000000D+00  0.0000000000000D+00
   359  3.5800000000000D+00  0.0000000000000D+00  0.0000000000000D+00
   360  3.5900000000000D+00  0.0000000000000D+00  0.0000000000000D+00
   361  3.6000000000000D+00  0.0000000000000D+00  0.0000000000000D+00
   362  3.6100000000000D+00  0.0000000000000D+00  0.0000000000000D+00
   363  3.6200000000000D+00  0.0000000000000D+00  0.0000000000000D+00
   364  3.6300000000000D+00  0.0000000000000D+00  0.0000000000000D+00
   365  3.6400000000000D+00  0.0000000000000D+00  0.0000000000000D+00
   366  3.6500000000000D+00  0.0000000000000D+00  0.0000000000000D+00
   367  3.6600000000000D+00  0.0000000000000D+00  0.0000000000000D+00
   368  3.6700000000000D+00  0.0000000000000D+00  0.0000000000000D+00
   369  3.6800000000000D+00  0.0000000000000D+00  0.0000000000000D+00
   370  3.6900000000000D+00  0.0000000000000D+00  0.0000000000000D+00
   371  3.7000000000000D+00  0.0000000000000D+00  0.0000000000000D+00
   372  3.7100000000000D+00  0.0000000000000D+00  0.0000000000000D+00
   373  3.7200000000000D+00  0.0000000000000D+00  0.0000000000000D+00
   374  3.7300000000000D+00  0.0000000000000D+00  0.0000000000000D+00
   375  3.7400000000000D+00  0.0000000000000D+00  0.0000000000000D+00
   376  3.7500000000000D+00  0.0000000000000D+00  0.0000000000000D+00
   377  3.7600000000000D+00  0.0000000000000D+00  0.0000000000000D+00
   378  3.7700000000000D+00  0.0000000000000D+00  0.0000000000000D+00
   379  3.7800000000000D+00  0.0000000000000D+00  0.0000000000000D+00
   380  3.7900000000000D+00  0.0000000000000D+00  0.0000000000000D+00
   381  3.8000000000000D+00  0.0000000000000D+00  0.0000000000000D+00
   382  3.8100000000000D+00  0.0000000000000D+00  0.0000000000000D+00
   383  3.8200000000000D+00  0.0000000000000D+00  0.0000000000000D+00
   384  3.8300000000000D+00  0.0000000000000D+00  0.0000000000000D+00
   385  3.8400000000000D+00  0.0000000000000D+00  0.0000000000000D+00
   386  3.8500000000000D+00  0.0000000000000D+00  0.0000000000000D+00
   387  3.8600000000000D+00  0.0000000000000D+00  0.0000000000000D+00
   388  3.8700000000000D+00  0.0000000000000D+00  0.0000000000000D+00
   389  3.8800000000000D+00  0.0000000000000D+00  0.0000000000000D+00
   390  3.8900000000000D+00  0.0000000000000D+00  0.0000000000000D+00
   391  3.9000000000000D+00  0.0000000000000D+00  0.0000000000000D+00
   392  3.9100000000000D+00  0.0000000000000D+00  0.0000000000000D+00
   393  3.9200000000000D+00  0.0000000000000D+00  0.0000000000000D+00
   394  3.9300000000000D+00  0.0000000000000D+00  0.0000000000000D+00
   395  3.9400000000000D+00  0.0000000000000D+00  0.0000000000000D+00
   396  3.9500000000000D+00  0.0000000000000D+00  0.0000000000000D+00
   397  3.9600000000000D+00  0.0000000000000D+00  0.0000000000000D+00
   398  3.9700000000000D+00  0.0000000000000D+00  0.0000000000000D+00
   399  3.9800000000000D+00  0.0000000000000D+00  0.0000000000000D+00
   400  3.9900000000000D+00  0.0000000000000D+00  0.0000000000000D+00
   401  4.0000000000000D+00  0.0000000000000D+00  0.0000000000000D+00
   402  4.0100000000000D+00  0.0000000000000D+00  0.0000000000000D+00
   403  4.0200000000000D+00  0.0000000000000D+00  0.0000000000000D+00
   404  4.0300000000000D+00  0.0000000000000D+00  0.0000000000000D+00
   405  4.0400000000000D+00  0.0000000000000D+00  0.0000000000000D+00
   406  4.0500000000000D+00  0.0000000000000D+00  0.0000000000000D+00
   407  4.0600000000000D+00  0.0000000000000D+00  0.0000000000000D+00
   408  4.0700000000000D+00  0.0000000000000D+00  0.0000000000000D+00
   409  4.0800000000000D+00  0.0000000000000D+00  0.0000000000000D+00
   410  4.0900000000000D+00  0.0000000000000D+00  0.0000000000000D+00
   411  4.1000000000000D+00  0.0000000000000D+00  0.0000000000000D+00
   412  4.1100000000000D+00  0.0000000000000D+00  0.0000000000000D+00
   413  4.1200000000000D+00  0.0000000000000D+00  0.0000000000000D+00
   414  4.1300000000000D+00  0.0000000000000D+00  0.0000000000000D+00
   415  4.1400000000000D+00  0.0000000000000D+00  0.0000000000000D+00
   416  4.1500000000000D+00  0.0000000000000D+00  0.0000000000000D+00
   417  4.1600000000000D+00  0.0000000000000D+00  0.0000000000000D+00
   418  4.1700000000000D+00  0.0000000000000D+00  0.0000000000000D+00
   419  4.1800000000000D+00  0.0000000000000D+00  0.0000000000000D+00
   420  4.1900000000000D+00  0.0000000000000D+00  0.0000000000000D+00
   421  4.2000000000000D+00  0.0000000000000D+00  0.0000000000000D+00
   422  4.2100000000000D+00  0.0000000000000D+00  0.0000000000000D+00
   423  4.2200000000000D+00  0.0000000000000D+00  0.0000000000000D+00