Na    ONCVPSP-3.3.1  r_core=   1.47844   2.29870
     11.0000      9.0000      210904    zatom,zion,pspd
     8      11   1     4   600     0    pspcod,pspxc,lmax,lloc,mmax,r2well
  5.99000000  0.00000000  0.00000000    rchrg fchrg qchrg
     2     2     0     0    nproj
     3     1           extension_switch
     2     0     0    nprojso
   0                        -1.1951122104950D+00  2.6925398297452D+00
     1  0.0000000000000D+00  1.7661452855755D-10 -7.0843753086081D-10
     2  1.0000000000000D-02  2.3388853219830D-02  1.2824149976826D-01
     3  2.0000000000000D-02  4.6853374732691D-02  2.5582503858556D-01
     4  3.0000000000000D-02  7.0468475167009D-02  3.8209661091058D-01
     5  4.0000000000000D-02  9.4307555654526D-02  5.0641009581549D-01
     6  5.0000000000000D-02  1.1844176761819D-01  6.2813113395828D-01
     7  6.0000000000000D-02  1.4293928987780D-01  7.4664092665674D-01
     8  7.0000000000000D-02  1.6786462863728D-01  8.6133993193272D-01
     9  8.0000000000000D-02  1.9327794574121D-01  9.7165143310371D-01
    10  9.0000000000000D-02  2.1923442036961D-01  1.0770249563752D+00
    11  1.0000000000000D-01  2.4578364908253D-01  1.1769395149268D+00
    12  1.1000000000000D-01  2.7296908883015D-01  1.2709066581784D+00
    13  1.2000000000000D-01  3.0082754721323D-01  1.3584733062673D+00
    14  1.3000000000000D-01  3.2938872391506D-01  1.4392243512440D+00
    15  1.4000000000000D-01  3.5867480683240D-01  1.5127850081073D+00
    16  1.5000000000000D-01  3.8870012601313D-01  1.5788229005237D+00
    17  1.6000000000000D-01  4.1947086806401D-01  1.6370498679111D+00
    18  1.7000000000000D-01  4.5098485322931D-01  1.6872234824902D+00
    19  1.8000000000000D-01  4.8323137686086D-01  1.7291482669185D+00
    20  1.9000000000000D-01  5.1619111650829D-01  1.7626766051921D+00
    21  2.0000000000000D-01  5.4983610535788D-01  1.7877093416263D+00
    22  2.1000000000000D-01  5.8412977224302D-01  1.8041960648934D+00
    23  2.2000000000000D-01  6.1902704794405D-01  1.8121350762773D+00
    24  2.3000000000000D-01  6.5447453699279D-01  1.8115730435029D+00
    25  2.4000000000000D-01  6.9041075370231D-01  1.8026043436779D+00
    26  2.5000000000000D-01  7.2676642065880D-01  1.7853701010517D+00
    27  2.6000000000000D-01  7.6346482744369D-01  1.7600569274121D+00
    28  2.7000000000000D-01  8.0042224690424D-01  1.7268953750127D+00
    29  2.8000000000000D-01  8.3754840586270D-01  1.6861581139173D+00
    30  2.9000000000000D-01  8.7474700675181D-01  1.6381578475626D+00
    31  3.0000000000000D-01  9.1191629629001D-01  1.5832449821545D+00
    32  3.1000000000000D-01  9.4894967696752D-01  1.5218050672155D+00
    33  3.2000000000000D-01  9.8573635680497D-01  1.4542560261775D+00
    34  3.3000000000000D-01  1.0221620325741D+00  1.3810451973541D+00
    35  3.4000000000000D-01  1.0581096014356D+00  1.3026462069206D+00
    36  3.5000000000000D-01  1.0934598957540D+00  1.2195556966598D+00
    37  3.6000000000000D-01  1.1280924356969D+00  1.1322899302013D+00
    38  3.7000000000000D-01  1.1618861941152D+00  1.0413813022707D+00
    39  3.8000000000000D-01  1.1947203681304D+00  9.4737477607555D-01
    40  3.9000000000000D-01  1.2264751518342D+00  8.5082427437603D-01
    41  4.0000000000000D-01  1.2570325045190D+00  7.5228905001908D-01
    42  4.1000000000000D-01  1.2862769089248D+00  6.5233006175348D-01
    43  4.2000000000000D-01  1.3140961140852D+00  5.5150638098496D-01
    44  4.3000000000000D-01  1.3403818575039D+00  4.5037165478039D-01
    45  4.4000000000000D-01  1.3650305615761D+00  3.4947064988712D-01
    46  4.5000000000000D-01  1.3879439993889D+00  2.4933590180223D-01
    47  4.6000000000000D-01  1.4090299252957D+00  1.5048449201291D-01
    48  4.7000000000000D-01  1.4282026659492D+00  5.3414975437426D-02
    49  4.8000000000000D-01  1.4453836677997D+00 -4.1395521162301D-02
    50  4.9000000000000D-01  1.4605019974189D+00 -1.3349401044456D-01
    51  5.0000000000000D-01  1.4734947913819D+00 -2.2245414764219D-01
    52  5.1000000000000D-01  1.4843076528410D+00 -3.0787850952424D-01
    53  5.2000000000000D-01  1.4928949923416D+00 -3.8940063490710D-01
    54  5.3000000000000D-01  1.4992203108611D+00 -4.6668681438993D-01
    55  5.4000000000000D-01  1.5032564234983D+00 -5.3943761901561D-01
    56  5.5000000000000D-01  1.5049856226904D+00 -6.0738915966175D-01
    57  5.6000000000000D-01  1.5043997802929D+00 -6.7031407112425D-01
    58  5.7000000000000D-01  1.5015003883135D+00 -7.2802221706449D-01
    59  5.8000000000000D-01  1.4962985385463D+00 -7.8036111421058D-01
    60  5.9000000000000D-01  1.4888148417997D+00 -8.2721607644080D-01
    61  6.0000000000000D-01  1.4790792878473D+00 -8.6851008158642D-01
    62  6.1000000000000D-01  1.4671310476584D+00 -9.0420336598469D-01
    63  6.2000000000000D-01  1.4530182198667D+00 -9.3429275393395D-01
    64  6.3000000000000D-01  1.4367975238279D+00 -9.5881073127793D-01
    65  6.4000000000000D-01  1.4185339419765D+00 -9.7782427431430D-01
    66  6.5000000000000D-01  1.3983003145345D+00 -9.9143344709718D-01
    67  6.6000000000000D-01  1.3761768899330D+00 -9.9976978195793D-01
    68  6.7000000000000D-01  1.3522508345888D+00 -1.0029944596816D+00
    69  6.8000000000000D-01  1.3266157059268D+00 -1.0012963072436D+00
    70  6.9000000000000D-01  1.2993708927543D+00 -9.9488963231981D-01
    71  7.0000000000000D-01  1.2706210272719D+00 -9.8401191490981D-01
    72  7.1000000000000D-01  1.2404753731503D+00 -9.6892137736425D-01
    73  7.2000000000000D-01  1.2090471942099D+00 -9.4989445486104D-01
    74  7.3000000000000D-01  1.1764531083089D+00 -9.2722318893584D-01
    75  7.4000000000000D-01  1.1428124310802D+00 -9.0121256702555D-01
    76  7.5000000000000D-01  1.1082465141525D+00 -8.7217783113507D-01
    77  7.6000000000000D-01  1.0728780824513D+00 -8.4044177867925D-01
    78  7.7000000000000D-01  1.0368305751010D+00 -8.0633207829272D-01
    79  7.8000000000000D-01  1.0002274943379D+00 -7.7017862293392D-01
    80  7.9000000000000D-01  9.6319176670416D-01 -7.3231094194818D-01
    81  8.0000000000000D-01  9.2584512061725D-01 -6.9305569290284D-01
    82  8.1000000000000D-01  8.8830748420887D-01 -6.5273425297167D-01
    83  8.2000000000000D-01  8.5069640709715D-01 -6.1166042843950D-01
    84  8.3000000000000D-01  8.1312650950327D-01 -5.7013829953126D-01
    85  8.4000000000000D-01  7.7570896184741D-01 -5.2846021625638D-01
    86  8.5000000000000D-01  7.3855099766491D-01 -4.8690495931532D-01
    87  8.6000000000000D-01  7.0175546237239D-01 -4.4573607835525D-01
    88  8.7000000000000D-01  6.6542040008915D-01 -4.0520041800484D-01
    89  8.8000000000000D-01  6.2963868038462D-01 -3.6552684018126D-01
    90  8.9000000000000D-01  5.9449766648049D-01 -3.2692514916580D-01
    91  9.0000000000000D-01  5.6007892609001D-01 -2.8958522390672D-01
    92  9.1000000000000D-01  5.2645798572917D-01 -2.5367635995071D-01
    93  9.2000000000000D-01  4.9370412898906D-01 -2.1934682134534D-01
    94  9.3000000000000D-01  4.6188023891766D-01 -1.8672360081794D-01
    95  9.4000000000000D-01  4.3104268432582D-01 -1.5591238453770D-01
    96  9.5000000000000D-01  4.0124124950963D-01 -1.2699771583259D-01
    97  9.6000000000000D-01  3.7251910656919D-01 -1.0004335036021D-01
    98  9.7000000000000D-01  3.4491282921308D-01 -7.5092793496781D-02
    99  9.8000000000000D-01  3.1845244665646D-01 -5.2170009031711D-02
   100  9.9000000000000D-01  2.9316153596389D-01 -3.1280286746297D-02
   101  1.0000000000000D+00  2.6905735095263D-01 -1.2411255083865D-02
   102  1.0100000000000D+00  2.4615098555765D-01  4.4659761036360D-03
   103  1.0200000000000D+00  2.2444756937042D-01  1.9395558795263D-02
   104  1.0300000000000D+00  2.0394649289777D-01  3.2435552969647D-02
   105  1.0400000000000D+00  1.8464165995404D-01  4.3656493307534D-02
   106  1.0500000000000D+00  1.6652176448187D-01  5.3139894562873D-02
   107  1.0600000000000D+00  1.4957058901571D-01  6.0976714018681D-02
   108  1.0700000000000D+00  1.3376732194410D-01  6.7265789555528D-02
   109  1.0800000000000D+00  1.1908689069613D-01  7.2112271759374D-02
   110  1.0900000000000D+00  1.0550030797259D-01  7.5626068225142D-02
   111  1.1000000000000D+00  9.2975028159130D-02  7.7920317769943D-02
   112  1.1100000000000D+00  8.1475311108381D-02  7.9109911569025D-02
   113  1.1200000000000D+00  7.0962590542360D-02  7.9310077454425D-02
   114  1.1300000000000D+00  6.1395844427472D-02  7.8635042521743D-02
   115  1.1400000000000D+00  5.2731964754813D-02  7.7196788346481D-02
   116  1.1500000000000D+00  4.4926124323811D-02  7.5103911484090D-02
   117  1.1600000000000D+00  3.7932138249671D-02  7.2460600773395D-02
   118  1.1700000000000D+00  3.1702818092012D-02  6.9365741315223D-02
   119  1.1800000000000D+00  2.6190316630969D-02  6.5912153807124D-02
   120  1.1900000000000D+00  2.1346461559711D-02  6.2185975736214D-02
   121  1.2000000000000D+00  1.7123076531539D-02  5.8266189451470D-02
   122  1.2100000000000D+00  1.3472288154000D-02  5.4224300776568D-02
   123  1.2200000000000D+00  1.0346817771045D-02  5.0124169667789D-02
   124  1.2300000000000D+00  7.7002570797513D-03  4.6021992690118D-02
   125  1.2400000000000D+00  5.4873267957397D-03  4.1966435684222D-02
   126  1.2500000000000D+00  3.6641177554967D-03  3.7998913522272D-02
   127  1.2600000000000D+00  2.1883141288699D-03  3.4154011542416D-02
   128  1.2700000000000D+00  1.0193985264656D-03  3.0460042402347D-02
   129  1.2800000000000D+00  1.1883891584508D-04  2.6939731010272D-02
   130  1.2900000000000D+00 -5.4974193107219D-04  2.3611022667608D-02
   131  1.3000000000000D+00 -1.0204158519739D-03  2.0487990448685D-02
   132  1.3100000000000D+00 -1.3248181995876D-03  1.7581809462456D-02
   133  1.3200000000000D+00 -1.4920387552830D-03  1.4901783668184D-02
   134  1.3300000000000D+00 -1.5484423662515D-03  1.2457263483505D-02
   135  1.3400000000000D+00 -1.5178365754679D-03  1.0256434712837D-02
   136  1.3500000000000D+00 -1.4217119141229D-03  8.3043821291048D-03
   137  1.3600000000000D+00 -1.2794744665879D-03  6.6007330324601D-03
   138  1.3700000000000D+00 -1.1084685212046D-03  5.1393891658283D-03
   139  1.3800000000000D+00 -9.2381317414913D-04  3.9100103165579D-03
   140  1.3900000000000D+00 -7.3837781650870D-04  2.8984116297828D-03
   141  1.4000000000000D+00 -5.6272343236112D-04  2.0873401813197D-03
   142  1.4100000000000D+00 -4.0506850939570D-04  1.4571065121837D-03
   143  1.4200000000000D+00 -2.7126174546206D-04  9.8620541014869D-04
   144  1.4300000000000D+00 -1.6474479555344D-04  6.5208978359971D-04
   145  1.4400000000000D+00 -8.6620389711018D-05  4.3087810171133D-04
   146  1.4500000000000D+00 -3.5688578997142D-05  2.9534016271981D-04
   147  1.4600000000000D+00 -7.8621716615498D-06  2.3124924979304D-04
   148  1.4700000000000D+00  3.0584382580751D-06  2.2613609837756D-04
   149  1.4800000000000D+00  4.0749503075584D-06  1.8795816614477D-04
   150  1.4900000000000D+00  1.4694085870453D-06  6.7855051117066D-05
   151  1.5000000000000D+00 -4.1588752290214D-07 -1.6410241721748D-05
   152  1.5100000000000D+00 -3.0044541841163D-07 -1.1783861297434D-05
   153  1.5200000000000D+00  1.2030169418309D-07  4.3436390917802D-06
   154  1.5300000000000D+00  4.6783353749533D-08  1.6620466533336D-06
   155  1.5400000000000D+00 -1.1998595790552D-08 -5.6554800786416D-07
   156  1.5500000000000D+00 -1.3523076638164D-09 -6.3740367509760D-08
   157  1.5600000000000D+00  0.0000000000000D+00  0.0000000000000D+00
   158  1.5700000000000D+00  0.0000000000000D+00  0.0000000000000D+00
   159  1.5800000000000D+00  0.0000000000000D+00  0.0000000000000D+00
   160  1.5900000000000D+00  0.0000000000000D+00  0.0000000000000D+00
   161  1.6000000000000D+00  0.0000000000000D+00  0.0000000000000D+00
   162  1.6100000000000D+00  0.0000000000000D+00  0.0000000000000D+00
   163  1.6200000000000D+00  0.0000000000000D+00  0.0000000000000D+00
   164  1.6300000000000D+00  0.0000000000000D+00  0.0000000000000D+00
   165  1.6400000000000D+00  0.0000000000000D+00  0.0000000000000D+00
   166  1.6500000000000D+00  0.0000000000000D+00  0.0000000000000D+00
   167  1.6600000000000D+00  0.0000000000000D+00  0.0000000000000D+00
   168  1.6700000000000D+00  0.0000000000000D+00  0.0000000000000D+00
   169  1.6800000000000D+00  0.0000000000000D+00  0.0000000000000D+00
   170  1.6900000000000D+00  0.0000000000000D+00  0.0000000000000D+00
   171  1.7000000000000D+00  0.0000000000000D+00  0.0000000000000D+00
   172  1.7100000000000D+00  0.0000000000000D+00  0.0000000000000D+00
   173  1.7200000000000D+00  0.0000000000000D+00  0.0000000000000D+00
   174  1.7300000000000D+00  0.0000000000000D+00  0.0000000000000D+00
   175  1.7400000000000D+00  0.0000000000000D+00  0.0000000000000D+00
   176  1.7500000000000D+00  0.0000000000000D+00  0.0000000000000D+00
   177  1.7600000000000D+00  0.0000000000000D+00  0.0000000000000D+00
   178  1.7700000000000D+00  0.0000000000000D+00  0.0000000000000D+00
   179  1.7800000000000D+00  0.0000000000000D+00  0.0000000000000D+00
   180  1.7900000000000D+00  0.0000000000000D+00  0.0000000000000D+00
   181  1.8000000000000D+00  0.0000000000000D+00  0.0000000000000D+00
   182  1.8100000000000D+00  0.0000000000000D+00  0.0000000000000D+00
   183  1.8200000000000D+00  0.0000000000000D+00  0.0000000000000D+00
   184  1.8300000000000D+00  0.0000000000000D+00  0.0000000000000D+00
   185  1.8400000000000D+00  0.0000000000000D+00  0.0000000000000D+00
   186  1.8500000000000D+00  0.0000000000000D+00  0.0000000000000D+00
   187  1.8600000000000D+00  0.0000000000000D+00  0.0000000000000D+00
   188  1.8700000000000D+00  0.0000000000000D+00  0.0000000000000D+00
   189  1.8800000000000D+00  0.0000000000000D+00  0.0000000000000D+00
   190  1.8900000000000D+00  0.0000000000000D+00  0.0000000000000D+00
   191  1.9000000000000D+00  0.0000000000000D+00  0.0000000000000D+00
   192  1.9100000000000D+00  0.0000000000000D+00  0.0000000000000D+00
   193  1.9200000000000D+00  0.0000000000000D+00  0.0000000000000D+00
   194  1.9300000000000D+00  0.0000000000000D+00  0.0000000000000D+00
   195  1.9400000000000D+00  0.0000000000000D+00  0.0000000000000D+00
   196  1.9500000000000D+00  0.0000000000000D+00  0.0000000000000D+00
   197  1.9600000000000D+00  0.0000000000000D+00  0.0000000000000D+00
   198  1.9700000000000D+00  0.0000000000000D+00  0.0000000000000D+00
   199  1.9800000000000D+00  0.0000000000000D+00  0.0000000000000D+00
   200  1.9900000000000D+00  0.0000000000000D+00  0.0000000000000D+00
   201  2.0000000000000D+00  0.0000000000000D+00  0.0000000000000D+00
   202  2.0100000000000D+00  0.0000000000000D+00  0.0000000000000D+00
   203  2.0200000000000D+00  0.0000000000000D+00  0.0000000000000D+00
   204  2.0300000000000D+00  0.0000000000000D+00  0.0000000000000D+00
   205  2.0400000000000D+00  0.0000000000000D+00  0.0000000000000D+00
   206  2.0500000000000D+00  0.0000000000000D+00  0.0000000000000D+00
   207  2.0600000000000D+00  0.0000000000000D+00  0.0000000000000D+00
   208  2.0700000000000D+00  0.0000000000000D+00  0.0000000000000D+00
   209  2.0800000000000D+00  0.0000000000000D+00  0.0000000000000D+00
   210  2.0900000000000D+00  0.0000000000000D+00  0.0000000000000D+00
   211  2.1000000000000D+00  0.0000000000000D+00  0.0000000000000D+00
   212  2.1100000000000D+00  0.0000000000000D+00  0.0000000000000D+00
   213  2.1200000000000D+00  0.0000000000000D+00  0.0000000000000D+00
   214  2.1300000000000D+00  0.0000000000000D+00  0.0000000000000D+00
   215  2.1400000000000D+00  0.0000000000000D+00  0.0000000000000D+00
   216  2.1500000000000D+00  0.0000000000000D+00  0.0000000000000D+00
   217  2.1600000000000D+00  0.0000000000000D+00  0.0000000000000D+00
   218  2.1700000000000D+00  0.0000000000000D+00  0.0000000000000D+00
   219  2.1800000000000D+00  0.0000000000000D+00  0.0000000000000D+00
   220  2.1900000000000D+00  0.0000000000000D+00  0.0000000000000D+00
   221  2.2000000000000D+00  0.0000000000000D+00  0.0000000000000D+00
   222  2.2100000000000D+00  0.0000000000000D+00  0.0000000000000D+00
   223  2.2200000000000D+00  0.0000000000000D+00  0.0000000000000D+00
   224  2.2300000000000D+00  0.0000000000000D+00  0.0000000000000D+00
   225  2.2400000000000D+00  0.0000000000000D+00  0.0000000000000D+00
   226  2.2500000000000D+00  0.0000000000000D+00  0.0000000000000D+00
   227  2.2600000000000D+00  0.0000000000000D+00  0.0000000000000D+00
   228  2.2700000000000D+00  0.0000000000000D+00  0.0000000000000D+00
   229  2.2800000000000D+00  0.0000000000000D+00  0.0000000000000D+00
   230  2.2900000000000D+00  0.0000000000000D+00  0.0000000000000D+00
   231  2.3000000000000D+00  0.0000000000000D+00  0.0000000000000D+00
   232  2.3100000000000D+00  0.0000000000000D+00  0.0000000000000D+00
   233  2.3200000000000D+00  0.0000000000000D+00  0.0000000000000D+00
   234  2.3300000000000D+00  0.0000000000000D+00  0.0000000000000D+00
   235  2.3400000000000D+00  0.0000000000000D+00  0.0000000000000D+00
   236  2.3500000000000D+00  0.0000000000000D+00  0.0000000000000D+00
   237  2.3600000000000D+00  0.0000000000000D+00  0.0000000000000D+00
   238  2.3700000000000D+00  0.0000000000000D+00  0.0000000000000D+00
   239  2.3800000000000D+00  0.0000000000000D+00  0.0000000000000D+00
   240  2.3900000000000D+00  0.0000000000000D+00  0.0000000000000D+00
   241  2.4000000000000D+00  0.0000000000000D+00  0.0000000000000D+00
   242  2.4100000000000D+00  0.0000000000000D+00  0.0000000000000D+00
   243  2.4200000000000D+00  0.0000000000000D+00  0.0000000000000D+00
   244  2.4300000000000D+00  0.0000000000000D+00  0.0000000000000D+00
   245  2.4400000000000D+00  0.0000000000000D+00  0.0000000000000D+00
   246  2.4500000000000D+00  0.0000000000000D+00  0.0000000000000D+00
   247  2.4600000000000D+00  0.0000000000000D+00  0.0000000000000D+00
   248  2.4700000000000D+00  0.0000000000000D+00  0.0000000000000D+00
   249  2.4800000000000D+00  0.0000000000000D+00  0.0000000000000D+00
   250  2.4900000000000D+00  0.0000000000000D+00  0.0000000000000D+00
   251  2.5000000000000D+00  0.0000000000000D+00  0.0000000000000D+00
   252  2.5100000000000D+00  0.0000000000000D+00  0.0000000000000D+00
   253  2.5200000000000D+00  0.0000000000000D+00  0.0000000000000D+00
   254  2.5300000000000D+00  0.0000000000000D+00  0.0000000000000D+00
   255  2.5400000000000D+00  0.0000000000000D+00  0.0000000000000D+00
   256  2.5500000000000D+00  0.0000000000000D+00  0.0000000000000D+00
   257  2.5600000000000D+00  0.0000000000000D+00  0.0000000000000D+00
   258  2.5700000000000D+00  0.0000000000000D+00  0.0000000000000D+00
   259  2.5800000000000D+00  0.0000000000000D+00  0.0000000000000D+00
   260  2.5900000000000D+00  0.0000000000000D+00  0.0000000000000D+00
   261  2.6000000000000D+00  0.0000000000000D+00  0.0000000000000D+00
   262  2.6100000000000D+00  0.0000000000000D+00  0.0000000000000D+00
   263  2.6200000000000D+00  0.0000000000000D+00  0.0000000000000D+00
   264  2.6300000000000D+00  0.0000000000000D+00  0.0000000000000D+00
   265  2.6400000000000D+00  0.0000000000000D+00  0.0000000000000D+00
   266  2.6500000000000D+00  0.0000000000000D+00  0.0000000000000D+00
   267  2.6600000000000D+00  0.0000000000000D+00  0.0000000000000D+00
   268  2.6700000000000D+00  0.0000000000000D+00  0.0000000000000D+00
   269  2.6800000000000D+00  0.0000000000000D+00  0.0000000000000D+00
   270  2.6900000000000D+00  0.0000000000000D+00  0.0000000000000D+00
   271  2.7000000000000D+00  0.0000000000000D+00  0.0000000000000D+00
   272  2.7100000000000D+00  0.0000000000000D+00  0.0000000000000D+00
   273  2.7200000000000D+00  0.0000000000000D+00  0.0000000000000D+00
   274  2.7300000000000D+00  0.0000000000000D+00  0.0000000000000D+00
   275  2.7400000000000D+00  0.0000000000000D+00  0.0000000000000D+00
   276  2.7500000000000D+00  0.0000000000000D+00  0.0000000000000D+00
   277  2.7600000000000D+00  0.0000000000000D+00  0.0000000000000D+00
   278  2.7700000000000D+00  0.0000000000000D+00  0.0000000000000D+00
   279  2.7800000000000D+00  0.0000000000000D+00  0.0000000000000D+00
   280  2.7900000000000D+00  0.0000000000000D+00  0.0000000000000D+00
   281  2.8000000000000D+00  0.0000000000000D+00  0.0000000000000D+00
   282  2.8100000000000D+00  0.0000000000000D+00  0.0000000000000D+00
   283  2.8200000000000D+00  0.0000000000000D+00  0.0000000000000D+00
   284  2.8300000000000D+00  0.0000000000000D+00  0.0000000000000D+00
   285  2.8400000000000D+00  0.0000000000000D+00  0.0000000000000D+00
   286  2.8500000000000D+00  0.0000000000000D+00  0.0000000000000D+00
   287  2.8600000000000D+00  0.0000000000000D+00  0.0000000000000D+00
   288  2.8700000000000D+00  0.0000000000000D+00  0.0000000000000D+00
   289  2.8800000000000D+00  0.0000000000000D+00  0.0000000000000D+00
   290  2.8900000000000D+00  0.0000000000000D+00  0.0000000000000D+00
   291  2.9000000000000D+00  0.0000000000000D+00  0.0000000000000D+00
   292  2.9100000000000D+00  0.0000000000000D+00  0.0000000000000D+00
   293  2.9200000000000D+00  0.0000000000000D+00  0.0000000000000D+00
   294  2.9300000000000D+00  0.0000000000000D+00  0.0000000000000D+00
   295  2.9400000000000D+00  0.0000000000000D+00  0.0000000000000D+00
   296  2.9500000000000D+00  0.0000000000000D+00  0.0000000000000D+00
   297  2.9600000000000D+00  0.0000000000000D+00  0.0000000000000D+00
   298  2.9700000000000D+00  0.0000000000000D+00  0.0000000000000D+00
   299  2.9800000000000D+00  0.0000000000000D+00  0.0000000000000D+00
   300  2.9900000000000D+00  0.0000000000000D+00  0.0000000000000D+00
   301  3.0000000000000D+00  0.0000000000000D+00  0.0000000000000D+00
   302  3.0100000000000D+00  0.0000000000000D+00  0.0000000000000D+00
   303  3.0200000000000D+00  0.0000000000000D+00  0.0000000000000D+00
   304  3.0300000000000D+00  0.0000000000000D+00  0.0000000000000D+00
   305  3.0400000000000D+00  0.0000000000000D+00  0.0000000000000D+00
   306  3.0500000000000D+00  0.0000000000000D+00  0.0000000000000D+00
   307  3.0600000000000D+00  0.0000000000000D+00  0.0000000000000D+00
   308  3.0700000000000D+00  0.0000000000000D+00  0.0000000000000D+00
   309  3.0800000000000D+00  0.0000000000000D+00  0.0000000000000D+00
   310  3.0900000000000D+00  0.0000000000000D+00  0.0000000000000D+00
   311  3.1000000000000D+00  0.0000000000000D+00  0.0000000000000D+00
   312  3.1100000000000D+00  0.0000000000000D+00  0.0000000000000D+00
   313  3.1200000000000D+00  0.0000000000000D+00  0.0000000000000D+00
   314  3.1300000000000D+00  0.0000000000000D+00  0.0000000000000D+00
   315  3.1400000000000D+00  0.0000000000000D+00  0.0000000000000D+00
   316  3.1500000000000D+00  0.0000000000000D+00  0.0000000000000D+00
   317  3.1600000000000D+00  0.0000000000000D+00  0.0000000000000D+00
   318  3.1700000000000D+00  0.0000000000000D+00  0.0000000000000D+00
   319  3.1800000000000D+00  0.0000000000000D+00  0.0000000000000D+00
   320  3.1900000000000D+00  0.0000000000000D+00  0.0000000000000D+00
   321  3.2000000000000D+00  0.0000000000000D+00  0.0000000000000D+00
   322  3.2100000000000D+00  0.0000000000000D+00  0.0000000000000D+00
   323  3.2200000000000D+00  0.0000000000000D+00  0.0000000000000D+00
   324  3.2300000000000D+00  0.0000000000000D+00  0.0000000000000D+00
   325  3.2400000000000D+00  0.0000000000000D+00  0.0000000000000D+00
   326  3.2500000000000D+00  0.0000000000000D+00  0.0000000000000D+00
   327  3.2600000000000D+00  0.0000000000000D+00  0.0000000000000D+00
   328  3.2700000000000D+00  0.0000000000000D+00  0.0000000000000D+00
   329  3.2800000000000D+00  0.0000000000000D+00  0.0000000000000D+00
   330  3.2900000000000D+00  0.0000000000000D+00  0.0000000000000D+00
   331  3.3000000000000D+00  0.0000000000000D+00  0.0000000000000D+00
   332  3.3100000000000D+00  0.0000000000000D+00  0.0000000000000D+00
   333  3.3200000000000D+00  0.0000000000000D+00  0.0000000000000D+00
   334  3.3300000000000D+00  0.0000000000000D+00  0.0000000000000D+00
   335  3.3400000000000D+00  0.0000000000000D+00  0.0000000000000D+00
   336  3.3500000000000D+00  0.0000000000000D+00  0.0000000000000D+00
   337  3.3600000000000D+00  0.0000000000000D+00  0.0000000000000D+00
   338  3.3700000000000D+00  0.0000000000000D+00  0.0000000000000D+00
   339  3.3800000000000D+00  0.0000000000000D+00  0.0000000000000D+00
   340  3.3900000000000D+00  0.0000000000000D+00  0.0000000000000D+00
   341  3.4000000000000D+00  0.0000000000000D+00  0.0000000000000D+00
   342  3.4100000000000D+00  0.0000000000000D+00  0.0000000000000D+00
   343  3.4200000000000D+00  0.0000000000000D+00  0.0000000000000D+00
   344  3.4300000000000D+00  0.0000000000000D+00  0.0000000000000D+00
   345  3.4400000000000D+00  0.0000000000000D+00  0.0000000000000D+00
   346  3.4500000000000D+00  0.0000000000000D+00  0.0000000000000D+00
   347  3.4600000000000D+00  0.0000000000000D+00  0.0000000000000D+00
   348  3.4700000000000D+00  0.0000000000000D+00  0.0000000000000D+00
   349  3.4800000000000D+00  0.0000000000000D+00  0.0000000000000D+00
   350  3.4900000000000D+00  0.0000000000000D+00  0.0000000000000D+00
   351  3.5000000000000D+00  0.0000000000000D+00  0.0000000000000D+00
   352  3.5100000000000D+00  0.0000000000000D+00  0.0000000000000D+00
   353  3.5200000000000D+00  0.0000000000000D+00  0.0000000000000D+00
   354  3.5300000000000D+00  0.0000000000000D+00  0.0000000000000D+00
   355  3.5400000000000D+00  0.0000000000000D+00  0.0000000000000D+00
   356  3.5500000000000D+00  0.0000000000000D+00  0.0000000000000D+00
   357  3.5600000000000D+00  0.0000000000000D+00  0.0000000000000D+00
   358  3.5700000000000D+00  0.0000000000000D+00  0.0000000000000D+00
   359  3.5800000000000D+00  0.0000000000000D+00  0.0000000000000D+00
   360  3.5900000000000D+00  0.0000000000000D+00  0.0000000000000D+00
   361  3.6000000000000D+00  0.0000000000000D+00  0.0000000000000D+00
   362  3.6100000000000D+00  0.0000000000000D+00  0.0000000000000D+00
   363  3.6200000000000D+00  0.0000000000000D+00  0.0000000000000D+00
   364  3.6300000000000D+00  0.0000000000000D+00  0.0000000000000D+00
   365  3.6400000000000D+00  0.0000000000000D+00  0.0000000000000D+00
   366  3.6500000000000D+00  0.0000000000000D+00  0.0000000000000D+00
   367  3.6600000000000D+00  0.0000000000000D+00  0.0000000000000D+00
   368  3.6700000000000D+00  0.0000000000000D+00  0.0000000000000D+00
   369  3.6800000000000D+00  0.0000000000000D+00  0.0000000000000D+00
   370  3.6900000000000D+00  0.0000000000000D+00  0.0000000000000D+00
   371  3.7000000000000D+00  0.0000000000000D+00  0.0000000000000D+00
   372  3.7100000000000D+00  0.0000000000000D+00  0.0000000000000D+00
   373  3.7200000000000D+00  0.0000000000000D+00  0.0000000000000D+00
   374  3.7300000000000D+00  0.0000000000000D+00  0.0000000000000D+00
   375  3.7400000000000D+00  0.0000000000000D+00  0.0000000000000D+00
   376  3.7500000000000D+00  0.0000000000000D+00  0.0000000000000D+00
   377  3.7600000000000D+00  0.0000000000000D+00  0.0000000000000D+00
   378  3.7700000000000D+00  0.0000000000000D+00  0.0000000000000D+00
   379  3.7800000000000D+00  0.0000000000000D+00  0.0000000000000D+00
   380  3.7900000000000D+00  0.0000000000000D+00  0.0000000000000D+00
   381  3.8000000000000D+00  0.0000000000000D+00  0.0000000000000D+00
   382  3.8100000000000D+00  0.0000000000000D+00  0.0000000000000D+00
   383  3.8200000000000D+00  0.0000000000000D+00  0.0000000000000D+00
   384  3.8300000000000D+00  0.0000000000000D+00  0.0000000000000D+00
   385  3.8400000000000D+00  0.0000000000000D+00  0.0000000000000D+00
   386  3.8500000000000D+00  0.0000000000000D+00  0.0000000000000D+00
   387  3.8600000000000D+00  0.0000000000000D+00  0.0000000000000D+00
   388  3.8700000000000D+00  0.0000000000000D+00  0.0000000000000D+00
   389  3.8800000000000D+00  0.0000000000000D+00  0.0000000000000D+00
   390  3.8900000000000D+00  0.0000000000000D+00  0.0000000000000D+00
   391  3.9000000000000D+00  0.0000000000000D+00  0.0000000000000D+00
   392  3.9100000000000D+00  0.0000000000000D+00  0.0000000000000D+00
   393  3.9200000000000D+00  0.0000000000000D+00  0.0000000000000D+00
   394  3.9300000000000D+00  0.0000000000000D+00  0.0000000000000D+00
   395  3.9400000000000D+00  0.0000000000000D+00  0.0000000000000D+00
   396  3.9500000000000D+00  0.0000000000000D+00  0.0000000000000D+00
   397  3.9600000000000D+00  0.0000000000000D+00  0.0000000000000D+00
   398  3.9700000000000D+00  0.0000000000000D+00  0.0000000000000D+00
   399  3.9800000000000D+00  0.0000000000000D+00  0.0000000000000D+00
   400  3.9900000000000D+00  0.0000000000000D+00  0.0000000000000D+00
   401  4.0000000000000D+00  0.0000000000000D+00  0.0000000000000D+00
   402  4.0100000000000D+00  0.0000000000000D+00  0.0000000000000D+00
   403  4.0200000000000D+00  0.0000000000000D+00  0.0000000000000D+00
   404  4.0300000000000D+00  0.0000000000000D+00  0.0000000000000D+00
   405  4.0400000000000D+00  0.0000000000000D+00  0.0000000000000D+00
   406  4.0500000000000D+00  0.0000000000000D+00  0.0000000000000D+00
   407  4.0600000000000D+00  0.0000000000000D+00  0.0000000000000D+00
   408  4.0700000000000D+00  0.0000000000000D+00  0.0000000000000D+00
   409  4.0800000000000D+00  0.0000000000000D+00  0.0000000000000D+00
   410  4.0900000000000D+00  0.0000000000000D+00  0.0000000000000D+00
   411  4.1000000000000D+00  0.0000000000000D+00  0.0000000000000D+00
   412  4.1100000000000D+00  0.0000000000000D+00  0.0000000000000D+00
   413  4.1200000000000D+00  0.0000000000000D+00  0.0000000000000D+00
   414  4.1300000000000D+00  0.0000000000000D+00  0.0000000000000D+00
   415  4.1400000000000D+00  0.0000000000000D+00  0.0000000000000D+00
   416  4.1500000000000D+00  0.0000000000000D+00  0.0000000000000D+00
   417  4.1600000000000D+00  0.0000000000000D+00  0.0000000000000D+00
   418  4.1700000000000D+00  0.0000000000000D+00  0.0000000000000D+00
   419  4.1800000000000D+00  0.0000000000000D+00  0.0000000000000D+00
   420  4.1900000000000D+00  0.0000000000000D+00  0.0000000000000D+00
   421  4.2000000000000D+00  0.0000000000000D+00  0.0000000000000D+00
   422  4.2100000000000D+00  0.0000000000000D+00  0.0000000000000D+00