Nb    ONCVPSP-3.3.1  r_core=   1.67979   1.64019   1.65987
     41.0000     13.0000      210904    zatom,zion,pspd
     8      11   2     4   600     0    pspcod,pspxc,lmax,lloc,mmax,r2well
  5.99000000  0.00000000  0.00000000    rchrg fchrg qchrg
     2     2     2     0     0    nproj
     1     1           extension_switch
   0                         1.1227574745505D+01  1.1027057689796D+00
     1  0.0000000000000D+00  2.5047136587020D-10 -1.2228849044504D-09
     2  1.0000000000000D-02  5.0242435625778D-02  1.1718268859135D-02
     3  2.0000000000000D-02  1.0047726897035D-01  2.3177096574603D-02
     4  3.0000000000000D-02  1.5069627551664D-01  3.4120239378308D-02
     5  4.0000000000000D-02  2.0088999317352D-01  4.4297815707290D-02
     6  5.0000000000000D-02  2.5104712066906D-01  5.3469406254225D-02
     7  6.0000000000000D-02  3.0115393638134D-01  6.1407057628806D-02
     8  7.0000000000000D-02  3.5119374412327D-01  6.7898158947225D-02
     9  8.0000000000000D-02  4.0114635214722D-01  7.2748161889823D-02
    10  9.0000000000000D-02  4.5098759132658D-01  7.5783116274102D-02
    11  1.0000000000000D-01  5.0068887810657D-01  7.6851994967659D-02
    12  1.1000000000000D-01  5.5021682739957D-01  7.5828783996565D-02
    13  1.2000000000000D-01  5.9953292013447D-01  7.2614315970304D-02
    14  1.3000000000000D-01  6.4859322965899D-01  6.7137827423686D-02
    15  1.4000000000000D-01  6.9734821064343D-01  5.9358223345541D-02
    16  1.5000000000000D-01  7.4574255354825D-01  4.9265034998990D-02
    17  1.6000000000000D-01  7.9371510710265D-01  3.6879060111498D-02
    18  1.7000000000000D-01  8.4119887060056D-01  2.2252677597391D-02
    19  1.8000000000000D-01  8.8812105716185D-01  5.4698321415235D-03
    20  1.9000000000000D-01  9.3440322843459D-01 -1.3354312809288D-02
    21  2.0000000000000D-01  9.7996150053563D-01 -3.4074051861250D-02
    22  2.1000000000000D-01  1.0247068203474D+00 -5.6514139279077D-02
    23  2.2000000000000D-01  1.0685453106154D+00 -8.0471107176549D-02
    24  2.3000000000000D-01  1.1113786816267D+00 -1.0571488896711D-01
    25  2.4000000000000D-01  1.1531047066094D+00 -1.3199073373101D-01
    26  2.5000000000000D-01  1.1936177573642D+00 -1.5902139426603D-01
    27  2.6000000000000D-01  1.2328093960564D+00 -1.8650956885703D-01
    28  2.7000000000000D-01  1.2705690185289D+00 -2.1414057425163D-01
    29  2.8000000000000D-01  1.3067845439887D+00 -2.4158522499060D-01
    30  2.9000000000000D-01  1.3413431454367D+00 -2.6850289213415D-01
    31  3.0000000000000D-01  1.3741320147933D+00 -2.9454471257133D-01
    32  3.1000000000000D-01  1.4050391562961D+00 -3.1935691851680D-01
    33  3.2000000000000D-01  1.4339542014341D+00 -3.4258425550413D-01
    34  3.3000000000000D-01  1.4607692384228D+00 -3.6387345619006D-01
    35  3.4000000000000D-01  1.4853796490373D+00 -3.8287673660230D-01
    36  3.5000000000000D-01  1.5076849454852D+00 -3.9925528109864D-01
    37  3.6000000000000D-01  1.5275895999389D+00 -4.1268268226715D-01
    38  3.7000000000000D-01  1.5450038593519D+00 -4.2284830228188D-01
    39  3.8000000000000D-01  1.5598445382463D+00 -4.2946052283933D-01
    40  3.9000000000000D-01  1.5720357822991D+00 -4.3224985173016D-01
    41  4.0000000000000D-01  1.5815097957503D+00 -4.3097185534093D-01
    42  4.1000000000000D-01  1.5882075259217D+00 -4.2540988792331D-01
    43  4.2000000000000D-01  1.5920792984569D+00 -4.1537759029625D-01
    44  4.3000000000000D-01  1.5930853972790D+00 -4.0072113274578D-01
    45  4.4000000000000D-01  1.5911965836971D+00 -3.8132117923815D-01
    46  4.5000000000000D-01  1.5863945495863D+00 -3.5709455264046D-01
    47  4.6000000000000D-01  1.5786723000978D+00 -3.2799558342865D-01
    48  4.7000000000000D-01  1.5680344619402D+00 -2.9401712732550D-01
    49  4.8000000000000D-01  1.5544975138853D+00 -2.5519124042575D-01
    50  4.9000000000000D-01  1.5380899368015D+00 -2.1158950359985D-01
    51  5.0000000000000D-01  1.5188522811938D+00 -1.6332299129342D-01
    52  5.1000000000000D-01  1.4968371509201D+00 -1.1054188321958D-01
    53  5.2000000000000D-01  1.4721091024649D+00 -5.3434720850234D-02
    54  5.3000000000000D-01  1.4447444598640D+00  7.7726859907187D-03
    55  5.4000000000000D-01  1.4148310460903D+00  7.2818693774368D-02
    56  5.5000000000000D-01  1.3824678324223D+00  1.4140758921349D-01
    57  5.6000000000000D-01  1.3477645080120D+00  2.1321166739608D-01
    58  5.7000000000000D-01  1.3108409725496D+00  2.8787360596113D-01
    59  5.8000000000000D-01  1.2718267555765D+00  3.6500911430353D-01
    60  5.9000000000000D-01  1.2308603666214D+00  4.4420983413591D-01
    61  6.0000000000000D-01  1.1880885809197D+00  5.2504646528795D-01
    62  6.1000000000000D-01  1.1436656660232D+00  6.0707208844086D-01
    63  6.2000000000000D-01  1.0977525551025D+00  6.8982565457283D-01
    64  6.3000000000000D-01  1.0505159731932D+00  7.7283560926869D-01
    65  6.4000000000000D-01  1.0021275230247D+00  8.5562361873306D-01
    66  6.5000000000000D-01  9.5276273740297D-01  9.3770836335182D-01
    67  6.6000000000000D-01  9.0260010538962D-01  1.0186093639915D+00
    68  6.7000000000000D-01  8.5182007971924D-01  1.0978508059074D+00
    69  6.8000000000000D-01  8.0060407304043D-01  1.1749653251613D+00
    70  6.9000000000000D-01  7.4913345063277D-01  1.2494977228226D+00
    71  7.0000000000000D-01  6.9758852725581D-01  1.3210085729420D+00
    72  7.1000000000000D-01  6.4614757572067D-01  1.3890776913396D+00
    73  7.2000000000000D-01  5.9498585464186D-01  1.4533074336259D+00
    74  7.3000000000000D-01  5.4427466262890D-01  1.5133257925616D+00
    75  7.4000000000000D-01  4.9418042591465D-01  1.5687892668511D+00
    76  7.5000000000000D-01  4.4486382609607D-01  1.6193854757134D+00
    77  7.6000000000000D-01  3.9647897428056D-01  1.6648354960964D+00
    78  7.7000000000000D-01  3.4917263749775D-01  1.7048959021351D+00
    79  7.8000000000000D-01  3.0308352275257D-01  1.7393604893901D+00
    80  7.9000000000000D-01  2.5834162356663D-01  1.7680616695120D+00
    81  8.0000000000000D-01  2.1506763328681D-01  1.7908715242214D+00
    82  8.1000000000000D-01  1.7337242883828D-01  1.8077025108414D+00
    83  8.2000000000000D-01  1.3335662796888D-01  1.8185078150381D+00
    84  8.3000000000000D-01  9.5110222380323D-02  1.8232813498763D+00
    85  8.4000000000000D-01  5.8712288474394D-02  1.8220574037468D+00
    86  8.5000000000000D-01  2.4230776766442D-02  1.8149099431374D+00
    87  8.6000000000000D-01 -8.2776196603584D-03  1.8019515795565D+00
    88  8.7000000000000D-01 -3.8767517960545D-02  1.7833322131541D+00
    89  8.8000000000000D-01 -6.7204820556270D-02  1.7592373686766D+00
    90  8.9000000000000D-01 -9.3566614002991D-02  1.7298862423084D+00
    91  9.0000000000000D-01 -1.1784099392619D-01  1.6955294806729D+00
    92  9.1000000000000D-01 -1.4002681885952D-01  1.6564467157463D+00
    93  9.2000000000000D-01 -1.6013339637557D-01  1.6129438816666D+00
    94  9.3000000000000D-01 -1.7818010542143D-01  1.5653503413660D+00
    95  9.4000000000000D-01 -1.9419595924886D-01  1.5140158526037D+00
    96  9.5000000000000D-01 -2.0821911375714D-01  1.4593074043039D+00
    97  9.6000000000000D-01 -2.2029632644398D-01  1.4016059551064D+00
    98  9.7000000000000D-01 -2.3048237148120D-01  1.3413031066989D+00
    99  9.8000000000000D-01 -2.3883941669667D-01  1.2787977448129D+00
   100  9.9000000000000D-01 -2.4543636844738D-01  1.2144926807259D+00
   101  1.0000000000000D+00 -2.5034819051271D-01  1.1487913257591D+00
   102  1.0100000000000D+00 -2.5365520322147D-01  1.0820944305093D+00
   103  1.0200000000000D+00 -2.5544236904445D-01  1.0147969195223D+00
   104  1.0300000000000D+00 -2.5579857084644D-01  9.4728485073807D-01
   105  1.0400000000000D+00 -2.5481588889445D-01  8.7993252738573D-01
   106  1.0500000000000D+00 -2.5258888254912D-01  8.1309978793365D-01
   107  1.0600000000000D+00 -2.4921388238597D-01  7.4712949776093D-01
   108  1.0700000000000D+00 -2.4478829819341D-01  6.8234526342179D-01
   109  1.0800000000000D+00 -2.3940994800711D-01  6.1904938795344D-01
   110  1.0900000000000D+00 -2.3317641297721D-01  5.5752108276047D-01
   111  1.1000000000000D+00 -2.2618442244723D-01  4.9801494849584D-01
   112  1.1100000000000D+00 -2.1852927326266D-01  4.4075973472843D-01
   113  1.1200000000000D+00 -2.1030428677137D-01  3.8595738436922D-01
   114  1.1300000000000D+00 -2.0160030656978D-01  3.3378236614419D-01
   115  1.1400000000000D+00 -1.9250523946211D-01  2.8438129468279D-01
   116  1.1500000000000D+00 -1.8310364173059D-01  2.3787283547579D-01
   117  1.1600000000000D+00 -1.7347635211365D-01  1.9434788778248D-01
   118  1.1700000000000D+00 -1.6370017247627D-01  1.5387003624451D-01
   119  1.1800000000000D+00 -1.5384759655987D-01  1.1647625869219D-01
   120  1.1900000000000D+00 -1.4398658683954D-01  8.2177875649603D-02
   121  1.2000000000000D+00 -1.3418039880099D-01  5.0961723420236D-02
   122  1.2100000000000D+00 -1.2448745158766D-01  2.2791531013960D-02
   123  1.2200000000000D+00 -1.1496124359003D-01 -2.3905206208865D-03
   124  1.2300000000000D+00 -1.0565031099595D-01 -2.4662081015321D-02
   125  1.2400000000000D+00 -9.6598226946884D-02 -4.4118779471144D-02
   126  1.2500000000000D+00 -8.7843638682695D-02 -6.0872267302804D-02
   127  1.2600000000000D+00 -7.9420339704207D-02 -7.5048180381070D-02
   128  1.2700000000000D+00 -7.1357373619063D-02 -8.6784049854244D-02
   129  1.2800000000000D+00 -6.3679166260793D-02 -9.6227188718328D-02
   130  1.2900000000000D+00 -5.6405682420911D-02 -1.0353258255995D-01
   131  1.3000000000000D+00 -4.9552603346494D-02 -1.0886081161042D-01
   132  1.3100000000000D+00 -4.3131521201468D-02 -1.1237603072526D-01
   133  1.3200000000000D+00 -3.7150146510691D-02 -1.1424403379007D-01
   134  1.3300000000000D+00 -3.1612524729675D-02 -1.1463042568109D-01
   135  1.3400000000000D+00 -2.6519258080241D-02 -1.1369892543260D-01
   136  1.3500000000000D+00 -2.1867728809652D-02 -1.1160982198020D-01
   137  1.3600000000000D+00 -1.7652320456298D-02 -1.0851859911211D-01
   138  1.3700000000000D+00 -1.3864633403534D-02 -1.0457474945236D-01
   139  1.3800000000000D+00 -1.0493691658085D-02 -9.9920789231227D-02
   140  1.3900000000000D+00 -7.5261379352468D-03 -9.4691485092953D-02
   141  1.4000000000000D+00 -4.9464139289911D-03 -8.9013305195426D-02
   142  1.4100000000000D+00 -2.7369238852796D-03 -8.3004095536033D-02
   143  1.4200000000000D+00 -8.7817881819833D-04 -7.6772989638618D-02
   144  1.4300000000000D+00  6.5108266666101D-04 -7.0420560600872D-02
   145  1.4400000000000D+00  1.8737854077638D-03 -6.4039154453974D-02
   146  1.4500000000000D+00  2.8144580601421D-03 -5.7713564953613D-02
   147  1.4600000000000D+00  3.4990795887450D-03 -5.1521400036183D-02
   148  1.4700000000000D+00  3.9553545143433D-03 -4.5535440677416D-02
   149  1.4800000000000D+00  4.2123808154865D-03 -3.9823401677200D-02
   150  1.4900000000000D+00  4.2996191875517D-03 -3.4444612551177D-02
   151  1.5000000000000D+00  4.2459840941210D-03 -2.9447515993473D-02
   152  1.5100000000000D+00  4.0786351445073D-03 -2.4865980243074D-02
   153  1.5200000000000D+00  3.8229179546287D-03 -2.0720789885034D-02
   154  1.5300000000000D+00  3.5023681727139D-03 -1.7021476162486D-02
   155  1.5400000000000D+00  3.1384692476596D-03 -1.3766980515809D-02
   156  1.5500000000000D+00  2.7505831642523D-03 -1.0947088008880D-02
   157  1.5600000000000D+00  2.3558492851690D-03 -8.5436673913673D-03
   158  1.5700000000000D+00  1.9691162972170D-03 -6.5320001528994D-03
   159  1.5800000000000D+00  1.6028877049227D-03 -4.8820958301892D-03
   160  1.5900000000000D+00  1.2672826000106D-03 -3.5599849178620D-03
   161  1.6000000000000D+00  9.7001141255718D-04 -2.5289780000920D-03
   162  1.6100000000000D+00  7.1635977740552D-04 -1.7508437511674D-03
   163  1.6200000000000D+00  5.0917967864131D-04 -1.1868983227993D-03
   164  1.6300000000000D+00  3.4905082219446D-04 -7.9960841251713D-04
   165  1.6400000000000D+00  2.3353045862721D-04 -5.5059325048839D-04
   166  1.6500000000000D+00  1.5688237215644D-04 -4.0134037945066D-04
   167  1.6600000000000D+00  1.1775150018113D-04 -3.3758172647199D-04
   168  1.6700000000000D+00  1.1035715669571D-04 -3.4084109239514D-04
   169  1.6800000000000D+00  9.7172533347876D-05 -3.0559029238290D-04
   170  1.6900000000000D+00  4.8677427391039D-05 -1.5359388267696D-04
   171  1.7000000000000D+00 -1.3583941206659D-07  4.3150863932210D-07
   172  1.7100000000000D+00 -1.0035256227071D-05  3.1922593834433D-05
   173  1.7200000000000D+00 -4.2190609081400D-07  1.3430121737885D-06
   174  1.7300000000000D+00  2.2841532908821D-06 -7.2759739944010D-06
   175  1.7400000000000D+00  3.0504770820431D-07 -9.7242102203598D-07
   176  1.7500000000000D+00 -2.7530935979671D-07  8.6564151766609D-07
   177  1.7600000000000D+00 -7.2926281002657D-08  2.2929847576377D-07
   178  1.7700000000000D+00  0.0000000000000D+00  0.0000000000000D+00
   179  1.7800000000000D+00  0.0000000000000D+00  0.0000000000000D+00
   180  1.7900000000000D+00  0.0000000000000D+00  0.0000000000000D+00
   181  1.8000000000000D+00  0.0000000000000D+00  0.0000000000000D+00
   182  1.8100000000000D+00  0.0000000000000D+00  0.0000000000000D+00
   183  1.8200000000000D+00  0.0000000000000D+00  0.0000000000000D+00
   184  1.8300000000000D+00  0.0000000000000D+00  0.0000000000000D+00
   185  1.8400000000000D+00  0.0000000000000D+00  0.0000000000000D+00
   186  1.8500000000000D+00  0.0000000000000D+00  0.0000000000000D+00
   187  1.8600000000000D+00  0.0000000000000D+00  0.0000000000000D+00
   188  1.8700000000000D+00  0.0000000000000D+00  0.0000000000000D+00
   189  1.8800000000000D+00  0.0000000000000D+00  0.0000000000000D+00
   190  1.8900000000000D+00  0.0000000000000D+00  0.0000000000000D+00
   191  1.9000000000000D+00  0.0000000000000D+00  0.0000000000000D+00
   192  1.9100000000000D+00  0.0000000000000D+00  0.0000000000000D+00
   193  1.9200000000000D+00  0.0000000000000D+00  0.0000000000000D+00
   194  1.9300000000000D+00  0.0000000000000D+00  0.0000000000000D+00
   195  1.9400000000000D+00  0.0000000000000D+00  0.0000000000000D+00
   196  1.9500000000000D+00  0.0000000000000D+00  0.0000000000000D+00
   197  1.9600000000000D+00  0.0000000000000D+00  0.0000000000000D+00
   198  1.9700000000000D+00  0.0000000000000D+00  0.0000000000000D+00
   199  1.9800000000000D+00  0.0000000000000D+00  0.0000000000000D+00
   200  1.9900000000000D+00  0.0000000000000D+00  0.0000000000000D+00
   201  2.0000000000000D+00  0.0000000000000D+00  0.0000000000000D+00
   202  2.0100000000000D+00  0.0000000000000D+00  0.0000000000000D+00
   203  2.0200000000000D+00  0.0000000000000D+00  0.0000000000000D+00
   204  2.0300000000000D+00  0.0000000000000D+00  0.0000000000000D+00
   205  2.0400000000000D+00  0.0000000000000D+00  0.0000000000000D+00
   206  2.0500000000000D+00  0.0000000000000D+00  0.0000000000000D+00
   207  2.0600000000000D+00  0.0000000000000D+00  0.0000000000000D+00
   208  2.0700000000000D+00  0.0000000000000D+00  0.0000000000000D+00
   209  2.0800000000000D+00  0.0000000000000D+00  0.0000000000000D+00
   210  2.0900000000000D+00  0.0000000000000D+00  0.0000000000000D+00
   211  2.1000000000000D+00  0.0000000000000D+00  0.0000000000000D+00
   212  2.1100000000000D+00  0.0000000000000D+00  0.0000000000000D+00
   213  2.1200000000000D+00  0.0000000000000D+00  0.0000000000000D+00
   214  2.1300000000000D+00  0.0000000000000D+00  0.0000000000000D+00
   215  2.1400000000000D+00  0.0000000000000D+00  0.0000000000000D+00
   216  2.1500000000000D+00  0.0000000000000D+00  0.0000000000000D+00
   217  2.1600000000000D+00  0.0000000000000D+00  0.0000000000000D+00
   218  2.1700000000000D+00  0.0000000000000D+00  0.0000000000000D+00
   219  2.1800000000000D+00  0.0000000000000D+00  0.0000000000000D+00
   220  2.1900000000000D+00  0.0000000000000D+00  0.0000000000000D+00
   221  2.2000000000000D+00  0.0000000000000D+00  0.0000000000000D+00
   222  2.2100000000000D+00  0.0000000000000D+00  0.0000000000000D+00
   223  2.2200000000000D+00  0.0000000000000D+00  0.0000000000000D+00
   224  2.2300000000000D+00  0.0000000000000D+00  0.0000000000000D+00
   225  2.2400000000000D+00  0.0000000000000D+00  0.0000000000000D+00
   226  2.2500000000000D+00  0.0000000000000D+00  0.0000000000000D+00
   227  2.2600000000000D+00  0.0000000000000D+00  0.0000000000000D+00
   228  2.2700000000000D+00  0.0000000000000D+00  0.0000000000000D+00
   229  2.2800000000000D+00  0.0000000000000D+00  0.0000000000000D+00
   230  2.2900000000000D+00  0.0000000000000D+00  0.0000000000000D+00
   231  2.3000000000000D+00  0.0000000000000D+00  0.0000000000000D+00
   232  2.3100000000000D+00  0.0000000000000D+00  0.0000000000000D+00
   233  2.3200000000000D+00  0.0000000000000D+00  0.0000000000000D+00
   234  2.3300000000000D+00  0.0000000000000D+00  0.0000000000000D+00
   235  2.3400000000000D+00  0.0000000000000D+00  0.0000000000000D+00
   236  2.3500000000000D+00  0.0000000000000D+00  0.0000000000000D+00
   237  2.3600000000000D+00  0.0000000000000D+00  0.0000000000000D+00
   238  2.3700000000000D+00  0.0000000000000D+00  0.0000000000000D+00
   239  2.3800000000000D+00  0.0000000000000D+00  0.0000000000000D+00
   240  2.3900000000000D+00  0.0000000000000D+00  0.0000000000000D+00
   241  2.4000000000000D+00  0.0000000000000D+00  0.0000000000000D+00
   242  2.4100000000000D+00  0.0000000000000D+00  0.0000000000000D+00
   243  2.4200000000000D+00  0.0000000000000D+00  0.0000000000000D+00
   244  2.4300000000000D+00  0.0000000000000D+00  0.0000000000000D+00
   245  2.4400000000000D+00  0.0000000000000D+00  0.0000000000000D+00
   246  2.4500000000000D+00  0.0000000000000D+00  0.0000000000000D+00
   247  2.4600000000000D+00  0.0000000000000D+00  0.0000000000000D+00
   248  2.4700000000000D+00  0.0000000000000D+00  0.0000000000000D+00
   249  2.4800000000000D+00  0.0000000000000D+00  0.0000000000000D+00
   250  2.4900000000000D+00  0.0000000000000D+00  0.0000000000000D+00
   251  2.5000000000000D+00  0.0000000000000D+00  0.0000000000000D+00
   252  2.5100000000000D+00  0.0000000000000D+00  0.0000000000000D+00
   253  2.5200000000000D+00  0.0000000000000D+00  0.0000000000000D+00
   254  2.5300000000000D+00  0.0000000000000D+00  0.0000000000000D+00
   255  2.5400000000000D+00  0.0000000000000D+00  0.0000000000000D+00
   256  2.5500000000000D+00  0.0000000000000D+00  0.0000000000000D+00
   257  2.5600000000000D+00  0.0000000000000D+00  0.0000000000000D+00
   258  2.5700000000000D+00  0.0000000000000D+00  0.0000000000000D+00
   259  2.5800000000000D+00  0.0000000000000D+00  0.0000000000000D+00
   260  2.5900000000000D+00  0.0000000000000D+00  0.0000000000000D+00
   261  2.6000000000000D+00  0.0000000000000D+00  0.0000000000000D+00
   262  2.6100000000000D+00  0.0000000000000D+00  0.0000000000000D+00
   263  2.6200000000000D+00  0.0000000000000D+00  0.0000000000000D+00
   264  2.6300000000000D+00  0.0000000000000D+00  0.0000000000000D+00
   265  2.6400000000000D+00  0.0000000000000D+00  0.0000000000000D+00
   266  2.6500000000000D+00  0.0000000000000D+00  0.0000000000000D+00
   267  2.6600000000000D+00  0.0000000000000D+00  0.0000000000000D+00
   268  2.6700000000000D+00  0.0000000000000D+00  0.0000000000000D+00
   269  2.6800000000000D+00  0.0000000000000D+00  0.0000000000000D+00
   270  2.6900000000000D+00  0.0000000000000D+00  0.0000000000000D+00
   271  2.7000000000000D+00  0.0000000000000D+00  0.0000000000000D+00
   272  2.7100000000000D+00  0.0000000000000D+00  0.0000000000000D+00
   273  2.7200000000000D+00  0.0000000000000D+00  0.0000000000000D+00
   274  2.7300000000000D+00  0.0000000000000D+00  0.0000000000000D+00
   275  2.7400000000000D+00  0.0000000000000D+00  0.0000000000000D+00
   276  2.7500000000000D+00  0.0000000000000D+00  0.0000000000000D+00
   277  2.7600000000000D+00  0.0000000000000D+00  0.0000000000000D+00
   278  2.7700000000000D+00  0.0000000000000D+00  0.0000000000000D+00
   279  2.7800000000000D+00  0.0000000000000D+00  0.0000000000000D+00
   280  2.7900000000000D+00  0.0000000000000D+00  0.0000000000000D+00
   281  2.8000000000000D+00  0.0000000000000D+00  0.0000000000000D+00
   282  2.8100000000000D+00  0.0000000000000D+00  0.0000000000000D+00
   283  2.8200000000000D+00  0.0000000000000D+00  0.0000000000000D+00
   284  2.8300000000000D+00  0.0000000000000D+00  0.0000000000000D+00
   285  2.8400000000000D+00  0.0000000000000D+00  0.0000000000000D+00
   286  2.8500000000000D+00  0.0000000000000D+00  0.0000000000000D+00
   287  2.8600000000000D+00  0.0000000000000D+00  0.0000000000000D+00
   288  2.8700000000000D+00  0.0000000000000D+00  0.0000000000000D+00
   289  2.8800000000000D+00  0.0000000000000D+00  0.0000000000000D+00
   290  2.8900000000000D+00  0.0000000000000D+00  0.0000000000000D+00
   291  2.9000000000000D+00  0.0000000000000D+00  0.0000000000000D+00
   292  2.9100000000000D+00  0.0000000000000D+00  0.0000000000000D+00
   293  2.9200000000000D+00  0.0000000000000D+00  0.0000000000000D+00
   294  2.9300000000000D+00  0.0000000000000D+00  0.0000000000000D+00
   295  2.9400000000000D+00  0.0000000000000D+00  0.0000000000000D+00
   296  2.9500000000000D+00  0.0000000000000D+00  0.0000000000000D+00
   297  2.9600000000000D+00  0.0000000000000D+00  0.0000000000000D+00
   298  2.9700000000000D+00  0.0000000000000D+00  0.0000000000000D+00
   299  2.9800000000000D+00  0.0000000000000D+00  0.0000000000000D+00
   300  2.9900000000000D+00  0.0000000000000D+00  0.0000000000000D+00
   301  3.0000000000000D+00  0.0000000000000D+00  0.0000000000000D+00
   302  3.0100000000000D+00  0.0000000000000D+00  0.0000000000000D+00
   303  3.0200000000000D+00  0.0000000000000D+00  0.0000000000000D+00
   304  3.0300000000000D+00  0.0000000000000D+00  0.0000000000000D+00
   305  3.0400000000000D+00  0.0000000000000D+00  0.0000000000000D+00
   306  3.0500000000000D+00  0.0000000000000D+00  0.0000000000000D+00
   307  3.0600000000000D+00  0.0000000000000D+00  0.0000000000000D+00
   308  3.0700000000000D+00  0.0000000000000D+00  0.0000000000000D+00
   309  3.0800000000000D+00  0.0000000000000D+00  0.0000000000000D+00
   310  3.0900000000000D+00  0.0000000000000D+00  0.0000000000000D+00
   311  3.1000000000000D+00  0.0000000000000D+00  0.0000000000000D+00
   312  3.1100000000000D+00  0.0000000000000D+00  0.0000000000000D+00
   313  3.1200000000000D+00  0.0000000000000D+00  0.0000000000000D+00
   314  3.1300000000000D+00  0.0000000000000D+00  0.0000000000000D+00
   315  3.1400000000000D+00  0.0000000000000D+00  0.0000000000000D+00
   316  3.1500000000000D+00  0.0000000000000D+00  0.0000000000000D+00
   317  3.1600000000000D+00  0.0000000000000D+00  0.0000000000000D+00
   318  3.1700000000000D+00  0.0000000000000D+00  0.0000000000000D+00
   319  3.1800000000000D+00  0.0000000000000D+00  0.0000000000000D+00
   320  3.1900000000000D+00  0.0000000000000D+00  0.0000000000000D+00
   321  3.2000000000000D+00  0.0000000000000D+00  0.0000000000000D+00
   322  3.2100000000000D+00  0.0000000000000D+00  0.0000000000000D+00
   323  3.2200000000000D+00  0.0000000000000D+00  0.0000000000000D+00
   324  3.2300000000000D+00  0.0000000000000D+00  0.0000000000000D+00
   325  3.2400000000000D+00  0.0000000000000D+00  0.0000000000000D+00
   326  3.2500000000000D+00  0.0000000000000D+00  0.0000000000000D+00
   327  3.2600000000000D+00  0.0000000000000D+00  0.0000000000000D+00
   328  3.2700000000000D+00  0.0000000000000D+00  0.0000000000000D+00
   329  3.2800000000000D+00  0.0000000000000D+00  0.0000000000000D+00
   330  3.2900000000000D+00  0.0000000000000D+00  0.0000000000000D+00
   331  3.3000000000000D+00  0.0000000000000D+00  0.0000000000000D+00
   332  3.3100000000000D+00  0.0000000000000D+00  0.0000000000000D+00
   333  3.3200000000000D+00  0.0000000000000D+00  0.0000000000000D+00
   334  3.3300000000000D+00  0.0000000000000D+00  0.0000000000000D+00
   335  3.3400000000000D+00  0.0000000000000D+00  0.0000000000000D+00
   336  3.3500000000000D+00  0.0000000000000D+00  0.0000000000000D+00
   337  3.3600000000000D+00  0.0000000000000D+00  0.0000000000000D+00
   338  3.3700000000000D+00  0.0000000000000D+00  0.0000000000000D+00
   339  3.3800000000000D+00  0.0000000000000D+00  0.0000000000000D+00
   340  3.3900000000000D+00  0.0000000000000D+00  0.0000000000000D+00
   341  3.4000000000000D+00  0.0000000000000D+00  0.0000000000000D+00
   342  3.4100000000000D+00  0.0000000000000D+00  0.0000000000000D+00
   343  3.4200000000000D+00  0.0000000000000D+00  0.0000000000000D+00
   344  3.4300000000000D+00  0.0000000000000D+00  0.0000000000000D+00
   345  3.4400000000000D+00  0.0000000000000D+00  0.0000000000000D+00
   346  3.4500000000000D+00  0.0000000000000D+00  0.0000000000000D+00
   347  3.4600000000000D+00  0.0000000000000D+00  0.0000000000000D+00
   348  3.4700000000000D+00  0.0000000000000D+00  0.0000000000000D+00
   349  3.4800000000000D+00  0.0000000000000D+00  0.0000000000000D+00
   350  3.4900000000000D+00  0.0000000000000D+00  0.0000000000000D+00
   351  3.5000000000000D+00  0.0000000000000D+00  0.0000000000000D+00
   352  3.5100000000000D+00  0.0000000000000D+00  0.0000000000000D+00
   353  3.5200000000000D+00  0.0000000000000D+00  0.0000000000000D+00
   354  3.5300000000000D+00  0.0000000000000D+00  0.0000000000000D+00
   355  3.5400000000000D+00  0.0000000000000D+00  0.0000000000000D+00
   356  3.5500000000000D+00  0.0000000000000D+00  0.0000000000000D+00
   357  3.5600000000000D+00  0.0000000000000D+00  0.0000000000000D+00
   358  3.5700000000000D+00  0.0000000000000D+00  0.0000000000000D+00
   359  3.5800000000000D+00  0.0000000000000D+00  0.0000000000000D+00
   360  3.5900000000000D+00  0.0000000000000D+00  0.0000000000000D+00
   361  3.6000000000000D+00  0.0000000000000D+00  0.0000000000000D+00
   362  3.6100000000000D+00  0.0000000000000D+00  0.0000000000000D+00
   363  3.6200000000000D+00  0.0000000000000D+00  0.0000000000000D+00
   364  3.6300000000000D+00  0.0000000000000D+00  0.0000000000000D+00
   365  3.6400000000000D+00  0.0000000000000D+00  0.0000000000000D+00
   366  3.6500000000000D+00  0.0000000000000D+00  0.0000000000000D+00
   367  3.6600000000000D+00  0.0000000000000D+00  0.0000000000000D+00
   368  3.6700000000000D+00  0.0000000000000D+00  0.0000000000000D+00
   369  3.6800000000000D+00  0.0000000000000D+00  0.0000000000000D+00
   370  3.6900000000000D+00  0.0000000000000D+00  0.0000000000000D+00
   371  3.7000000000000D+00  0.0000000000000D+00  0.0000000000000D+00
   372  3.7100000000000D+00  0.0000000000000D+00  0.0000000000000D+00
   373  3.7200000000000D+00  0.0000000000000D+00  0.0000000000000D+00
   374  3.7300000000000D+00  0.0000000000000D+00  0.0000000000000D+00
   375  3.7400000000000D+00  0.0000000000000D+00  0.0000000000000D+00
   376  3.7500000000000D+00  0.0000000000000D+00  0.0000000000000D+00
   377  3.7600000000000D+00  0.0000000000000D+00  0.0000000000000D+00
   378  3.7700000000000D+00  0.0000000000000D+00  0.0000000000000D+00
   379  3.7800000000000D+00  0.0000000000000D+00  0.0000000000000D+00
   380  3.7900000000000D+00  0.0000000000000D+00  0.0000000000000D+00
   381  3.8000000000000D+00  0.0000000000000D+00  0.0000000000000D+00
   382  3.8100000000000D+00  0.0000000000000D+00  0.0000000000000D+00
   383  3.8200000000000D+00  0.0000000000000D+00  0.0000000000000D+00
   384  3.8300000000000D+00  0.0000000000000D+00  0.0000000000000D+00
   385  3.8400000000000D+00  0.0000000000000D+00  0.0000000000000D+00
   386  3.8500000000000D+00  0.0000000000000D+00  0.0000000000000D+00
   387  3.8600000000000D+00  0.0000000000000D+00  0.0000000000000D+00
   388  3.8700000000000D+00  0.0000000000000D+00  0.0000000000000D+00
   389  3.8800000000000D+00  0.0000000000000D+00  0.0000000000000D+00
   390  3.8900000000000D+00  0.0000000000000D+00  0.0000000000000D+00
   391  3.9000000000000D+00  0.0000000000000D+00  0.0000000000000D+00
   392  3.9100000000000D+00  0.0000000000000D+00  0.0000000000000D+00
   393  3.9200000000000D+00  0.0000000000000D+00  0.0000000000000D+00
   394  3.9300000000000D+00  0.0000000000000D+00  0.0000000000000D+00
   395  3.9400000000000D+00  0.0000000000000D+00  0.0000000000000D+00
   396  3.9500000000000D+00  0.0000000000000D+00  0.0000000000000D+00
   397  3.9600000000000D+00  0.0000000000000D+00  0.0000000000000D+00
   398  3.9700000000000D+00  0.0000000000000D+00  0.0000000000000D+00
   399  3.9800000000000D+00  0.0000000000000D+00  0.0000000000000D+00
   400  3.9900000000000D+00  0.0000000000000D+00  0.0000000000000D+00
   401  4.0000000000000D+00  0.0000000000000D+00  0.0000000000000D+00
   402  4.0100000000000D+00  0.0000000000000D+00  0.0000000000000D+00
   403  4.0200000000000D+00  0.0000000000000D+00  0.0000000000000D+00
   404  4.0300000000000D+00  0.0000000000000D+00  0.0000000000000D+00
   405  4.0400000000000D+00  0.0000000000000D+00  0.0000000000000D+00
   406  4.0500000000000D+00  0.0000000000000D+00  0.0000000000000D+00
   407  4.0600000000000D+00  0.0000000000000D+00  0.0000000000000D+00
   408  4.0700000000000D+00  0.0000000000000D+00  0.0000000000000D+00
   409  4.0800000000000D+00  0.0000000000000D+00  0.0000000000000D+00
   410  4.0900000000000D+00  0.0000000000000D+00  0.0000000000000D+00
   411  4.1000000000000D+00  0.0000000000000D+00  0.0000000000000D+00
   412  4.1100000000000D+00  0.0000000000000D+00  0.0000000000000D+00
   413  4.1200000000000D+00  0.0000000000000D+00  0.0000000000000D+00
   414  4.1300000000000D+00  0.0000000000000D+00  0.0000000000000D+00
   415  4.1400000000000D+00  0.0000000000000D+00  0.0000000000000D+00
   416  4.1500000000000D+00  0.0000000000000D+00  0.0000000000000D+00
   417  4.1600000000000D+00  0.0000000000000D+00  0.0000000000000D+00
   418  4.1700000000000D+00  0.0000000000000D+00  0.0000000000000D+00
   419  4.1800000000000D+00  0.0000000000000D+00  0.0000000000000D+00
   420  4.1900000000000D+00  0.0000000000000D+00  0.0000000000000D+00
   421  4.2000000000000D+00  0.0000000000000D+00  0.0000000000000D+00
   422  4.2100000000000D+00  0.0000000000000D+00  0.0000000000000D+00