Nb    ONCVPSP-3.3.1  r_core=   1.67979   1.64019   1.65987
     41.0000     13.0000      210904    zatom,zion,pspd
     8      11   2     4   600     0    pspcod,pspxc,lmax,lloc,mmax,r2well
  5.99000000  0.00000000  0.00000000    rchrg fchrg qchrg
     2     4     3     0    nproj
     3     1           extension_switch
     4     4     0    nprojso
   0                         1.1009267147036D+00  1.1226367622496D+01
     1  0.0000000000000D+00 -1.2217558492678D-09  2.4975105317182D-10
     2  1.0000000000000D-02  1.1687662940352D-02  5.0232453079148D-02
     3  2.0000000000000D-02  2.3116045097176D-02  1.0045723117472D-01
     4  3.0000000000000D-02  3.4029060963683D-02  1.5066603859458D-01
     5  4.0000000000000D-02  4.4176983065911D-02  2.0084934510940D-01
     6  5.0000000000000D-02  5.3319539990217D-02  2.5099578582011D-01
     7  6.0000000000000D-02  6.1228918096643D-02  3.0109158141029D-01
     8  7.0000000000000D-02  6.7692636259101D-02  3.5111998528339D-01
     9  8.0000000000000D-02  7.2516264195079D-02  4.0106076383445D-01
    10  9.0000000000000D-02  7.5525956453476D-02  4.5088971579842D-01
    11  1.0000000000000D-01  7.6570775904786D-02  5.0057823625327D-01
    12  1.1000000000000D-01  7.5524782607219D-02  5.5009293044028D-01
    13  1.2000000000000D-01  7.2288866185902D-02  5.9939528209946D-01
    14  1.3000000000000D-01  6.6792302339386D-02  6.4844138050871D-01
    15  1.4000000000000D-01  5.8994016754906D-02  6.9718170986665D-01
    16  1.5000000000000D-01  4.8883542546130D-02  7.4556100407468D-01
    17  1.6000000000000D-01  3.6481660298349D-02  7.9351816935972D-01
    18  1.7000000000000D-01  2.1840712887435D-02  8.4098627654093D-01
    19  1.8000000000000D-01  5.0445904026355D-03  8.8789262408630D-01
    20  1.9000000000000D-01 -1.3791616281842D-02  9.3415887243504D-01
    21  2.0000000000000D-01 -3.4522291504895D-02  9.7970124938506D-01
    22  2.1000000000000D-01 -5.6972295377384D-02  1.0244308256674D+00
    23  2.2000000000000D-01 -8.0938280705776D-02  1.0682538591570D+00
    24  2.3000000000000D-01 -1.0619031496810D-01  1.1110722055091D+00
    25  2.4000000000000D-01 -1.3247379301309D-01  1.1527837923677D+00
    26  2.5000000000000D-01 -1.5951162326659D-01  1.1932831536711D+00
    27  2.6000000000000D-01 -1.8700666749966D-01  1.2324620199911D+00
    28  2.7000000000000D-01 -2.1464441166682D-01  1.2702099602856D+00
    29  2.8000000000000D-01 -2.4209584298564D-01  1.3064150699250D+00
    30  2.9000000000000D-01 -2.6902050632346D-01  1.3409646993842D+00
    31  3.0000000000000D-01 -2.9506971110399D-01  1.3737462175672D+00
    32  3.1000000000000D-01 -3.1988985836474D-01  1.4046478033574D+00
    33  3.2000000000000D-01 -3.4312585630175D-01  1.4335592586785D+00
    34  3.3000000000000D-01 -3.6442459164424D-01  1.4603728360888D+00
    35  3.4000000000000D-01 -3.8343842351901D-01  1.4849840737440D+00
    36  3.5000000000000D-01 -3.9982866610141D-01  1.5072926304304D+00
    37  3.6000000000000D-01 -4.1326902630876D-01  1.5272031133088D+00
    38  3.7000000000000D-01 -4.2344896307842D-01  1.5446258910090D+00
    39  3.8000000000000D-01 -4.3007693538096D-01  1.5594778847845D+00
    40  3.9000000000000D-01 -4.3288350704698D-01  1.5716833305696D+00
    41  4.0000000000000D-01 -4.3162427772587D-01  1.5811745049807D+00
    42  4.1000000000000D-01 -4.2608261083427D-01  1.5878924085655D+00
    43  4.2000000000000D-01 -4.1607213117850D-01  1.5917873999261D+00
    44  4.3000000000000D-01 -4.0143896703273D-01  1.5928197747242D+00
    45  4.4000000000000D-01 -3.8206371380172D-01  1.5909602840143D+00
    46  4.5000000000000D-01 -3.5786309897431D-01  1.5861905868353D+00
    47  4.6000000000000D-01 -3.2879133085538D-01  1.5785036325304D+00
    48  4.7000000000000D-01 -2.9484111652470D-01  1.5679039688393D+00
    49  4.8000000000000D-01 -2.5604433758181D-01  1.5544079724220D+00
    50  4.9000000000000D-01 -2.1247237546804D-01  1.5380439991213D+00
    51  5.0000000000000D-01 -1.6423608147822D-01  1.5188524519402D+00
    52  5.1000000000000D-01 -1.1148538995291D-01  1.4968857654068D+00
    53  5.2000000000000D-01 -5.4408576545854D-02  1.4722083057010D+00
    54  5.3000000000000D-01  6.7688331426049D-03  1.4448961866325D+00
    55  5.4000000000000D-01  7.1785495925471D-02  1.4150370022734D+00
    56  5.5000000000000D-01  1.4034601246044D-01  1.3827294777557D+00
    57  5.6000000000000D-01  2.1212300266208D-01  1.3480830404417D+00
    58  5.7000000000000D-01  2.8675947697431D-01  1.3112173143490D+00
    59  5.8000000000000D-01  3.6387148251655D-01  1.2722615413698D+00
    60  5.9000000000000D-01  4.4305100046022D-01  1.2313539334404D+00
    61  6.0000000000000D-01  5.2386906854614D-01  1.1886409604055D+00
    62  6.1000000000000D-01  6.0587910047237D-01  1.1442765788654D+00
    63  6.2000000000000D-01  6.8862037196128D-01  1.0984214077881D+00
    64  6.3000000000000D-01  7.7162164169234D-01  1.0512418571173D+00
    65  6.4000000000000D-01  8.5440487397475D-01  1.0029092159933D+00
    66  6.5000000000000D-01  9.3648902903811D-01  9.5359870753898D-01
    67  6.6000000000000D-01  1.0173938861653D+00  9.0348851742730D-01
    68  6.7000000000000D-01  1.0966438645717D+00  8.5275880365445D-01
    69  6.8000000000000D-01  1.1737718069635D+00  8.0159069508016D-01
    70  6.9000000000000D-01  1.2483226910812D+00  7.5016528636695D-01
    71  7.0000000000000D-01  1.3198572352450D+00  6.9866263695395D-01
    72  7.1000000000000D-01  1.3879553649739D+00  6.4726078163606D-01
    73  7.2000000000000D-01  1.4522195091199D+00  5.9613476018744D-01
    74  7.3000000000000D-01  1.5122776956470D+00  5.4545567327155D-01
    75  7.4000000000000D-01  1.5677864191706D+00  4.9538977161862D-01
    76  7.5000000000000D-01  1.6184332546152D+00  4.4609758513181D-01
    77  7.6000000000000D-01  1.6639391938733D+00  3.9773309820254D-01
    78  7.7000000000000D-01  1.7040606850732D+00  3.5044297708403D-01
    79  7.8000000000000D-01  1.7385913569997D+00  3.0436585468989D-01
    80  7.9000000000000D-01  1.7673634143172D+00  2.5963167765798D-01
    81  8.0000000000000D-01  1.7902486924824D+00  2.1636111995381D-01
    82  8.1000000000000D-01  1.8071593645791D+00  1.7466506668807D-01
    83  8.2000000000000D-01  1.8180482957237D+00  1.3464417119480D-01
    84  8.3000000000000D-01  1.8229090441339D+00  9.6388487767765D-02
    85  8.4000000000000D-01  1.8217755114041D+00  5.9977181787228D-02
    86  8.5000000000000D-01  1.8147212479382D+00  2.5478318295393D-02
    87  8.6000000000000D-01  1.8018584228271D+00 -7.0512705972853D-03
    88  8.7000000000000D-01  1.7833364706905D+00 -3.7566039765424D-02
    89  8.8000000000000D-01  1.7593404310902D+00 -6.6031707533917D-02
    90  8.9000000000000D-01  1.7300889990370D+00 -9.2425156152342D-02
    91  9.0000000000000D-01  1.6958323078311D+00 -1.1673425849833D-01
    92  9.1000000000000D-01  1.6568494679533D+00 -1.3895763382292D-01
    93  9.2000000000000D-01  1.6134458879530D+00 -1.5910433591085D-01
    94  9.3000000000000D-01  1.5659504052235D+00 -1.7719347754834D-01
    95  9.4000000000000D-01  1.5147122562011D+00 -1.9325379566760D-01
    96  9.5000000000000D-01  1.4600979168558D+00 -2.0732316196526D-01
    97  9.6000000000000D-01  1.4024878453394D+00 -2.1944804416815D-01
    98  9.7000000000000D-01  1.3422731593222D+00 -2.2968292344144D-01
    99  9.8000000000000D-01  1.2798522808616D+00 -2.3808967369863D-01
   100  9.9000000000000D-01  1.2156275816086D+00 -2.4473690877662D-01
   101  1.0000000000000D+00  1.1500020608052D+00 -2.4969930358349D-01
   102  1.0100000000000D+00  1.0833760877778D+00 -2.5305689541194D-01
   103  1.0200000000000D+00  1.0161442396041D+00 -2.5489437163044D-01
   104  1.0300000000000D+00  9.4869226325306D-01 -2.5530034992710D-01
   105  1.0400000000000D+00  8.8139418985100D-01 -2.5436665718547D-01
   106  1.0500000000000D+00  8.1460962665784D-01 -2.5218761290342D-01
   107  1.0600000000000D+00  7.4868125039872D-01 -2.4885932288693D-01
   108  1.0700000000000D+00  6.8393252280854D-01 -2.4447898865299D-01
   109  1.0800000000000D+00  6.2066564682780D-01 -2.3914423769044D-01
   110  1.0900000000000D+00  5.5915977897537D-01 -2.3295247936595D-01
   111  1.1000000000000D+00  4.9966951031479D-01 -2.2600029084739D-01
   112  1.1100000000000D+00  4.4242362580417D-01 -2.1838283705732D-01
   113  1.1200000000000D+00  3.8762414800668D-01 -2.1019332811640D-01
   114  1.1300000000000D+00  3.3544566845803D-01 -2.0152251732967D-01
   115  1.1400000000000D+00  2.8603496627269D-01 -1.9245824218508D-01
   116  1.1500000000000D+00  2.3951091125818D-01 -1.8308501046524D-01
   117  1.1600000000000D+00  1.9596464463798D-01 -1.7348363287549D-01
   118  1.1700000000000D+00  1.5546002816323D-01 -1.6373090317996D-01
   119  1.1800000000000D+00  1.1803434912574D-01 -1.5389932624275D-01
   120  1.1900000000000D+00  8.3699266807195D-02 -1.4405689401282D-01
   121  1.2000000000000D+00  5.2441982278678D-02 -1.3426690877824D-01
   122  1.2100000000000D+00  2.4226611845151D-02 -1.2458785265454D-01
   123  1.2200000000000D+00 -1.0042573662805D-03 -1.1507330189444D-01
   124  1.2300000000000D+00 -2.3327853591690D-02 -1.0577188405470D-01
   125  1.2400000000000D+00 -4.2839373575039D-02 -9.6727275682600D-02
   126  1.2500000000000D+00 -5.9650028710839D-02 -8.7978237922561D-02
   127  1.2600000000000D+00 -7.3885011496994D-02 -7.9558687091149D-02
   128  1.2700000000000D+00 -8.5681410135386D-02 -7.1497796904832D-02
   129  1.2800000000000D+00 -9.5186098914238D-02 -6.3820128969226D-02
   130  1.2900000000000D+00 -1.0255363265871D-01 -5.6545787888746D-02
   131  1.3000000000000D+00 -1.0794417235401D-01 -4.9690597167209D-02
   132  1.3100000000000D+00 -1.1152146852228D-01 -4.3266292115420D-02
   133  1.3200000000000D+00 -1.1345092882197D-01 -3.7280725802300D-02
   134  1.3300000000000D+00 -1.1389779297241D-01 -3.1738084207542D-02
   135  1.3400000000000D+00 -1.1302543862861D-01 -2.6639106731548D-02
   136  1.3500000000000D+00 -1.1099383955305D-01 -2.1981308233992D-02
   137  1.3600000000000D+00 -1.0795819270150D-01 -1.7759199194554D-02
   138  1.3700000000000D+00 -1.0406773402672D-01 -1.3964500290136D-02
   139  1.3800000000000D+00 -9.9464754748265D-02 -1.0586348332023D-02
   140  1.3900000000000D+00 -9.4283829331499D-02 -7.6114906519803D-03
   141  1.4000000000000D+00 -8.8651267422473D-02 -5.0244648227831D-03
   142  1.4100000000000D+00 -8.2684790681207D-02 -2.8077618311831D-03
   143  1.4200000000000D+00 -7.6493442646092D-02 -9.4197004750227D-04
   144  1.4300000000000D+00 -7.0177740665251D-02  5.9410404729617D-04
   145  1.4400000000000D+00 -6.3830008652364D-02  1.8233268215009D-03
   146  1.4500000000000D+00 -5.7535051418905D-02  2.7701776979566D-03
   147  1.4600000000000D+00 -5.1370520809965D-02  3.4605956307087D-03
   148  1.4700000000000D+00 -4.5409270270334D-02  3.9222526948538D-03
   149  1.4800000000000D+00 -3.9719113602503D-02  4.1842218206985D-03
   150  1.4900000000000D+00 -3.4359513347983D-02  4.2759491767961D-03
   151  1.5000000000000D+00 -2.9379070566493D-02  4.2263444093778D-03
   152  1.5100000000000D+00 -2.4811817485785D-02  4.0625691838817D-03
   153  1.5200000000000D+00 -2.0678713354802D-02  3.8099787732550D-03
   154  1.5300000000000D+00 -1.6989478406200D-02  3.4921263604033D-03
   155  1.5400000000000D+00 -1.3743249563022D-02  3.1305189630368D-03
   156  1.5500000000000D+00 -1.0930010092535D-02  2.7445469300806D-03
   157  1.5600000000000D+00 -8.5318267416304D-03  2.3513817837227D-03
   158  1.5700000000000D+00 -6.5241753402652D-03  1.9659070111434D-03
   159  1.5800000000000D+00 -4.8772572053420D-03  1.6006634745441D-03
   160  1.5900000000000D+00 -3.5572875459903D-03  1.2658087628027D-03
   161  1.6000000000000D+00 -2.5277371008381D-03  9.6908843653670D-04
   162  1.6100000000000D+00 -1.7505174398288D-03  7.1582129701664D-04
   163  1.6200000000000D+00 -1.1871002250308D-03  5.0889732762015D-04
   164  1.6300000000000D+00 -8.0009548465158D-04  3.4893267256804D-04
   165  1.6400000000000D+00 -5.5120129387285D-04  2.3350762069478D-04
   166  1.6500000000000D+00 -4.0195180056698D-04  1.5690312838492D-04
   167  1.6600000000000D+00 -3.3818087610043D-04  1.1778837476280D-04
   168  1.6700000000000D+00 -3.4148007966203D-04  1.1040183923176D-04
   169  1.6800000000000D+00 -3.0616887105378D-04  9.7213429088307D-05
   170  1.6900000000000D+00 -1.5388406581602D-04  4.8697739533343D-05
   171  1.7000000000000D+00  4.3232516756737D-07 -1.3589689742353D-07
   172  1.7100000000000D+00  3.1982912664696D-05 -1.0039486598664D-05
   173  1.7200000000000D+00  1.3455463190656D-06 -4.2208319569567D-07
   174  1.7300000000000D+00 -7.2898652421066D-06  2.2851511627158D-06
   175  1.7400000000000D+00 -9.7427843351614D-07  3.0518125320107D-07
   176  1.7500000000000D+00  8.6728044551648D-07 -2.7542521830284D-07
   177  1.7600000000000D+00  2.2973260888968D-07 -7.2956970587569D-08
   178  1.7700000000000D+00  0.0000000000000D+00  0.0000000000000D+00
   179  1.7800000000000D+00  0.0000000000000D+00  0.0000000000000D+00
   180  1.7900000000000D+00  0.0000000000000D+00  0.0000000000000D+00
   181  1.8000000000000D+00  0.0000000000000D+00  0.0000000000000D+00
   182  1.8100000000000D+00  0.0000000000000D+00  0.0000000000000D+00
   183  1.8200000000000D+00  0.0000000000000D+00  0.0000000000000D+00
   184  1.8300000000000D+00  0.0000000000000D+00  0.0000000000000D+00
   185  1.8400000000000D+00  0.0000000000000D+00  0.0000000000000D+00
   186  1.8500000000000D+00  0.0000000000000D+00  0.0000000000000D+00
   187  1.8600000000000D+00  0.0000000000000D+00  0.0000000000000D+00
   188  1.8700000000000D+00  0.0000000000000D+00  0.0000000000000D+00
   189  1.8800000000000D+00  0.0000000000000D+00  0.0000000000000D+00
   190  1.8900000000000D+00  0.0000000000000D+00  0.0000000000000D+00
   191  1.9000000000000D+00  0.0000000000000D+00  0.0000000000000D+00
   192  1.9100000000000D+00  0.0000000000000D+00  0.0000000000000D+00
   193  1.9200000000000D+00  0.0000000000000D+00  0.0000000000000D+00
   194  1.9300000000000D+00  0.0000000000000D+00  0.0000000000000D+00
   195  1.9400000000000D+00  0.0000000000000D+00  0.0000000000000D+00
   196  1.9500000000000D+00  0.0000000000000D+00  0.0000000000000D+00
   197  1.9600000000000D+00  0.0000000000000D+00  0.0000000000000D+00
   198  1.9700000000000D+00  0.0000000000000D+00  0.0000000000000D+00
   199  1.9800000000000D+00  0.0000000000000D+00  0.0000000000000D+00
   200  1.9900000000000D+00  0.0000000000000D+00  0.0000000000000D+00
   201  2.0000000000000D+00  0.0000000000000D+00  0.0000000000000D+00
   202  2.0100000000000D+00  0.0000000000000D+00  0.0000000000000D+00
   203  2.0200000000000D+00  0.0000000000000D+00  0.0000000000000D+00
   204  2.0300000000000D+00  0.0000000000000D+00  0.0000000000000D+00
   205  2.0400000000000D+00  0.0000000000000D+00  0.0000000000000D+00
   206  2.0500000000000D+00  0.0000000000000D+00  0.0000000000000D+00
   207  2.0600000000000D+00  0.0000000000000D+00  0.0000000000000D+00
   208  2.0700000000000D+00  0.0000000000000D+00  0.0000000000000D+00
   209  2.0800000000000D+00  0.0000000000000D+00  0.0000000000000D+00
   210  2.0900000000000D+00  0.0000000000000D+00  0.0000000000000D+00
   211  2.1000000000000D+00  0.0000000000000D+00  0.0000000000000D+00
   212  2.1100000000000D+00  0.0000000000000D+00  0.0000000000000D+00
   213  2.1200000000000D+00  0.0000000000000D+00  0.0000000000000D+00
   214  2.1300000000000D+00  0.0000000000000D+00  0.0000000000000D+00
   215  2.1400000000000D+00  0.0000000000000D+00  0.0000000000000D+00
   216  2.1500000000000D+00  0.0000000000000D+00  0.0000000000000D+00
   217  2.1600000000000D+00  0.0000000000000D+00  0.0000000000000D+00
   218  2.1700000000000D+00  0.0000000000000D+00  0.0000000000000D+00
   219  2.1800000000000D+00  0.0000000000000D+00  0.0000000000000D+00
   220  2.1900000000000D+00  0.0000000000000D+00  0.0000000000000D+00
   221  2.2000000000000D+00  0.0000000000000D+00  0.0000000000000D+00
   222  2.2100000000000D+00  0.0000000000000D+00  0.0000000000000D+00
   223  2.2200000000000D+00  0.0000000000000D+00  0.0000000000000D+00
   224  2.2300000000000D+00  0.0000000000000D+00  0.0000000000000D+00
   225  2.2400000000000D+00  0.0000000000000D+00  0.0000000000000D+00
   226  2.2500000000000D+00  0.0000000000000D+00  0.0000000000000D+00
   227  2.2600000000000D+00  0.0000000000000D+00  0.0000000000000D+00
   228  2.2700000000000D+00  0.0000000000000D+00  0.0000000000000D+00
   229  2.2800000000000D+00  0.0000000000000D+00  0.0000000000000D+00
   230  2.2900000000000D+00  0.0000000000000D+00  0.0000000000000D+00
   231  2.3000000000000D+00  0.0000000000000D+00  0.0000000000000D+00
   232  2.3100000000000D+00  0.0000000000000D+00  0.0000000000000D+00
   233  2.3200000000000D+00  0.0000000000000D+00  0.0000000000000D+00
   234  2.3300000000000D+00  0.0000000000000D+00  0.0000000000000D+00
   235  2.3400000000000D+00  0.0000000000000D+00  0.0000000000000D+00
   236  2.3500000000000D+00  0.0000000000000D+00  0.0000000000000D+00
   237  2.3600000000000D+00  0.0000000000000D+00  0.0000000000000D+00
   238  2.3700000000000D+00  0.0000000000000D+00  0.0000000000000D+00
   239  2.3800000000000D+00  0.0000000000000D+00  0.0000000000000D+00
   240  2.3900000000000D+00  0.0000000000000D+00  0.0000000000000D+00
   241  2.4000000000000D+00  0.0000000000000D+00  0.0000000000000D+00
   242  2.4100000000000D+00  0.0000000000000D+00  0.0000000000000D+00
   243  2.4200000000000D+00  0.0000000000000D+00  0.0000000000000D+00
   244  2.4300000000000D+00  0.0000000000000D+00  0.0000000000000D+00
   245  2.4400000000000D+00  0.0000000000000D+00  0.0000000000000D+00
   246  2.4500000000000D+00  0.0000000000000D+00  0.0000000000000D+00
   247  2.4600000000000D+00  0.0000000000000D+00  0.0000000000000D+00
   248  2.4700000000000D+00  0.0000000000000D+00  0.0000000000000D+00
   249  2.4800000000000D+00  0.0000000000000D+00  0.0000000000000D+00
   250  2.4900000000000D+00  0.0000000000000D+00  0.0000000000000D+00
   251  2.5000000000000D+00  0.0000000000000D+00  0.0000000000000D+00
   252  2.5100000000000D+00  0.0000000000000D+00  0.0000000000000D+00
   253  2.5200000000000D+00  0.0000000000000D+00  0.0000000000000D+00
   254  2.5300000000000D+00  0.0000000000000D+00  0.0000000000000D+00
   255  2.5400000000000D+00  0.0000000000000D+00  0.0000000000000D+00
   256  2.5500000000000D+00  0.0000000000000D+00  0.0000000000000D+00
   257  2.5600000000000D+00  0.0000000000000D+00  0.0000000000000D+00
   258  2.5700000000000D+00  0.0000000000000D+00  0.0000000000000D+00
   259  2.5800000000000D+00  0.0000000000000D+00  0.0000000000000D+00
   260  2.5900000000000D+00  0.0000000000000D+00  0.0000000000000D+00
   261  2.6000000000000D+00  0.0000000000000D+00  0.0000000000000D+00
   262  2.6100000000000D+00  0.0000000000000D+00  0.0000000000000D+00
   263  2.6200000000000D+00  0.0000000000000D+00  0.0000000000000D+00
   264  2.6300000000000D+00  0.0000000000000D+00  0.0000000000000D+00
   265  2.6400000000000D+00  0.0000000000000D+00  0.0000000000000D+00
   266  2.6500000000000D+00  0.0000000000000D+00  0.0000000000000D+00
   267  2.6600000000000D+00  0.0000000000000D+00  0.0000000000000D+00
   268  2.6700000000000D+00  0.0000000000000D+00  0.0000000000000D+00
   269  2.6800000000000D+00  0.0000000000000D+00  0.0000000000000D+00
   270  2.6900000000000D+00  0.0000000000000D+00  0.0000000000000D+00
   271  2.7000000000000D+00  0.0000000000000D+00  0.0000000000000D+00
   272  2.7100000000000D+00  0.0000000000000D+00  0.0000000000000D+00
   273  2.7200000000000D+00  0.0000000000000D+00  0.0000000000000D+00
   274  2.7300000000000D+00  0.0000000000000D+00  0.0000000000000D+00
   275  2.7400000000000D+00  0.0000000000000D+00  0.0000000000000D+00
   276  2.7500000000000D+00  0.0000000000000D+00  0.0000000000000D+00
   277  2.7600000000000D+00  0.0000000000000D+00  0.0000000000000D+00
   278  2.7700000000000D+00  0.0000000000000D+00  0.0000000000000D+00
   279  2.7800000000000D+00  0.0000000000000D+00  0.0000000000000D+00
   280  2.7900000000000D+00  0.0000000000000D+00  0.0000000000000D+00
   281  2.8000000000000D+00  0.0000000000000D+00  0.0000000000000D+00
   282  2.8100000000000D+00  0.0000000000000D+00  0.0000000000000D+00
   283  2.8200000000000D+00  0.0000000000000D+00  0.0000000000000D+00
   284  2.8300000000000D+00  0.0000000000000D+00  0.0000000000000D+00
   285  2.8400000000000D+00  0.0000000000000D+00  0.0000000000000D+00
   286  2.8500000000000D+00  0.0000000000000D+00  0.0000000000000D+00
   287  2.8600000000000D+00  0.0000000000000D+00  0.0000000000000D+00
   288  2.8700000000000D+00  0.0000000000000D+00  0.0000000000000D+00
   289  2.8800000000000D+00  0.0000000000000D+00  0.0000000000000D+00
   290  2.8900000000000D+00  0.0000000000000D+00  0.0000000000000D+00
   291  2.9000000000000D+00  0.0000000000000D+00  0.0000000000000D+00
   292  2.9100000000000D+00  0.0000000000000D+00  0.0000000000000D+00
   293  2.9200000000000D+00  0.0000000000000D+00  0.0000000000000D+00
   294  2.9300000000000D+00  0.0000000000000D+00  0.0000000000000D+00
   295  2.9400000000000D+00  0.0000000000000D+00  0.0000000000000D+00
   296  2.9500000000000D+00  0.0000000000000D+00  0.0000000000000D+00
   297  2.9600000000000D+00  0.0000000000000D+00  0.0000000000000D+00
   298  2.9700000000000D+00  0.0000000000000D+00  0.0000000000000D+00
   299  2.9800000000000D+00  0.0000000000000D+00  0.0000000000000D+00
   300  2.9900000000000D+00  0.0000000000000D+00  0.0000000000000D+00
   301  3.0000000000000D+00  0.0000000000000D+00  0.0000000000000D+00
   302  3.0100000000000D+00  0.0000000000000D+00  0.0000000000000D+00
   303  3.0200000000000D+00  0.0000000000000D+00  0.0000000000000D+00
   304  3.0300000000000D+00  0.0000000000000D+00  0.0000000000000D+00
   305  3.0400000000000D+00  0.0000000000000D+00  0.0000000000000D+00
   306  3.0500000000000D+00  0.0000000000000D+00  0.0000000000000D+00
   307  3.0600000000000D+00  0.0000000000000D+00  0.0000000000000D+00
   308  3.0700000000000D+00  0.0000000000000D+00  0.0000000000000D+00
   309  3.0800000000000D+00  0.0000000000000D+00  0.0000000000000D+00
   310  3.0900000000000D+00  0.0000000000000D+00  0.0000000000000D+00
   311  3.1000000000000D+00  0.0000000000000D+00  0.0000000000000D+00
   312  3.1100000000000D+00  0.0000000000000D+00  0.0000000000000D+00
   313  3.1200000000000D+00  0.0000000000000D+00  0.0000000000000D+00
   314  3.1300000000000D+00  0.0000000000000D+00  0.0000000000000D+00
   315  3.1400000000000D+00  0.0000000000000D+00  0.0000000000000D+00
   316  3.1500000000000D+00  0.0000000000000D+00  0.0000000000000D+00
   317  3.1600000000000D+00  0.0000000000000D+00  0.0000000000000D+00
   318  3.1700000000000D+00  0.0000000000000D+00  0.0000000000000D+00
   319  3.1800000000000D+00  0.0000000000000D+00  0.0000000000000D+00
   320  3.1900000000000D+00  0.0000000000000D+00  0.0000000000000D+00
   321  3.2000000000000D+00  0.0000000000000D+00  0.0000000000000D+00
   322  3.2100000000000D+00  0.0000000000000D+00  0.0000000000000D+00
   323  3.2200000000000D+00  0.0000000000000D+00  0.0000000000000D+00
   324  3.2300000000000D+00  0.0000000000000D+00  0.0000000000000D+00
   325  3.2400000000000D+00  0.0000000000000D+00  0.0000000000000D+00
   326  3.2500000000000D+00  0.0000000000000D+00  0.0000000000000D+00
   327  3.2600000000000D+00  0.0000000000000D+00  0.0000000000000D+00
   328  3.2700000000000D+00  0.0000000000000D+00  0.0000000000000D+00
   329  3.2800000000000D+00  0.0000000000000D+00  0.0000000000000D+00
   330  3.2900000000000D+00  0.0000000000000D+00  0.0000000000000D+00
   331  3.3000000000000D+00  0.0000000000000D+00  0.0000000000000D+00
   332  3.3100000000000D+00  0.0000000000000D+00  0.0000000000000D+00
   333  3.3200000000000D+00  0.0000000000000D+00  0.0000000000000D+00
   334  3.3300000000000D+00  0.0000000000000D+00  0.0000000000000D+00
   335  3.3400000000000D+00  0.0000000000000D+00  0.0000000000000D+00
   336  3.3500000000000D+00  0.0000000000000D+00  0.0000000000000D+00
   337  3.3600000000000D+00  0.0000000000000D+00  0.0000000000000D+00
   338  3.3700000000000D+00  0.0000000000000D+00  0.0000000000000D+00
   339  3.3800000000000D+00  0.0000000000000D+00  0.0000000000000D+00
   340  3.3900000000000D+00  0.0000000000000D+00  0.0000000000000D+00
   341  3.4000000000000D+00  0.0000000000000D+00  0.0000000000000D+00
   342  3.4100000000000D+00  0.0000000000000D+00  0.0000000000000D+00
   343  3.4200000000000D+00  0.0000000000000D+00  0.0000000000000D+00
   344  3.4300000000000D+00  0.0000000000000D+00  0.0000000000000D+00
   345  3.4400000000000D+00  0.0000000000000D+00  0.0000000000000D+00
   346  3.4500000000000D+00  0.0000000000000D+00  0.0000000000000D+00
   347  3.4600000000000D+00  0.0000000000000D+00  0.0000000000000D+00
   348  3.4700000000000D+00  0.0000000000000D+00  0.0000000000000D+00
   349  3.4800000000000D+00  0.0000000000000D+00  0.0000000000000D+00
   350  3.4900000000000D+00  0.0000000000000D+00  0.0000000000000D+00
   351  3.5000000000000D+00  0.0000000000000D+00  0.0000000000000D+00
   352  3.5100000000000D+00  0.0000000000000D+00  0.0000000000000D+00
   353  3.5200000000000D+00  0.0000000000000D+00  0.0000000000000D+00
   354  3.5300000000000D+00  0.0000000000000D+00  0.0000000000000D+00
   355  3.5400000000000D+00  0.0000000000000D+00  0.0000000000000D+00
   356  3.5500000000000D+00  0.0000000000000D+00  0.0000000000000D+00
   357  3.5600000000000D+00  0.0000000000000D+00  0.0000000000000D+00
   358  3.5700000000000D+00  0.0000000000000D+00  0.0000000000000D+00
   359  3.5800000000000D+00  0.0000000000000D+00  0.0000000000000D+00
   360  3.5900000000000D+00  0.0000000000000D+00  0.0000000000000D+00
   361  3.6000000000000D+00  0.0000000000000D+00  0.0000000000000D+00
   362  3.6100000000000D+00  0.0000000000000D+00  0.0000000000000D+00
   363  3.6200000000000D+00  0.0000000000000D+00  0.0000000000000D+00
   364  3.6300000000000D+00  0.0000000000000D+00  0.0000000000000D+00
   365  3.6400000000000D+00  0.0000000000000D+00  0.0000000000000D+00
   366  3.6500000000000D+00  0.0000000000000D+00  0.0000000000000D+00
   367  3.6600000000000D+00  0.0000000000000D+00  0.0000000000000D+00
   368  3.6700000000000D+00  0.0000000000000D+00  0.0000000000000D+00
   369  3.6800000000000D+00  0.0000000000000D+00  0.0000000000000D+00
   370  3.6900000000000D+00  0.0000000000000D+00  0.0000000000000D+00
   371  3.7000000000000D+00  0.0000000000000D+00  0.0000000000000D+00
   372  3.7100000000000D+00  0.0000000000000D+00  0.0000000000000D+00
   373  3.7200000000000D+00  0.0000000000000D+00  0.0000000000000D+00
   374  3.7300000000000D+00  0.0000000000000D+00  0.0000000000000D+00
   375  3.7400000000000D+00  0.0000000000000D+00  0.0000000000000D+00
   376  3.7500000000000D+00  0.0000000000000D+00  0.0000000000000D+00
   377  3.7600000000000D+00  0.0000000000000D+00  0.0000000000000D+00
   378  3.7700000000000D+00  0.0000000000000D+00  0.0000000000000D+00
   379  3.7800000000000D+00  0.0000000000000D+00  0.0000000000000D+00
   380  3.7900000000000D+00  0.0000000000000D+00  0.0000000000000D+00
   381  3.8000000000000D+00  0.0000000000000D+00  0.0000000000000D+00
   382  3.8100000000000D+00  0.0000000000000D+00  0.0000000000000D+00
   383  3.8200000000000D+00  0.0000000000000D+00  0.0000000000000D+00
   384  3.8300000000000D+00  0.0000000000000D+00  0.0000000000000D+00
   385  3.8400000000000D+00  0.0000000000000D+00  0.0000000000000D+00
   386  3.8500000000000D+00  0.0000000000000D+00  0.0000000000000D+00
   387  3.8600000000000D+00  0.0000000000000D+00  0.0000000000000D+00
   388  3.8700000000000D+00  0.0000000000000D+00  0.0000000000000D+00
   389  3.8800000000000D+00  0.0000000000000D+00  0.0000000000000D+00
   390  3.8900000000000D+00  0.0000000000000D+00  0.0000000000000D+00
   391  3.9000000000000D+00  0.0000000000000D+00  0.0000000000000D+00
   392  3.9100000000000D+00  0.0000000000000D+00  0.0000000000000D+00
   393  3.9200000000000D+00  0.0000000000000D+00  0.0000000000000D+00
   394  3.9300000000000D+00  0.0000000000000D+00  0.0000000000000D+00
   395  3.9400000000000D+00  0.0000000000000D+00  0.0000000000000D+00
   396  3.9500000000000D+00  0.0000000000000D+00  0.0000000000000D+00
   397  3.9600000000000D+00  0.0000000000000D+00  0.0000000000000D+00
   398  3.9700000000000D+00  0.0000000000000D+00  0.0000000000000D+00
   399  3.9800000000000D+00  0.0000000000000D+00  0.0000000000000D+00
   400  3.9900000000000D+00  0.0000000000000D+00  0.0000000000000D+00
   401  4.0000000000000D+00  0.0000000000000D+00  0.0000000000000D+00
   402  4.0100000000000D+00  0.0000000000000D+00  0.0000000000000D+00
   403  4.0200000000000D+00  0.0000000000000D+00  0.0000000000000D+00
   404  4.0300000000000D+00  0.0000000000000D+00  0.0000000000000D+00
   405  4.0400000000000D+00  0.0000000000000D+00  0.0000000000000D+00
   406  4.0500000000000D+00  0.0000000000000D+00  0.0000000000000D+00
   407  4.0600000000000D+00  0.0000000000000D+00  0.0000000000000D+00
   408  4.0700000000000D+00  0.0000000000000D+00  0.0000000000000D+00
   409  4.0800000000000D+00  0.0000000000000D+00  0.0000000000000D+00
   410  4.0900000000000D+00  0.0000000000000D+00  0.0000000000000D+00
   411  4.1000000000000D+00  0.0000000000000D+00  0.0000000000000D+00
   412  4.1100000000000D+00  0.0000000000000D+00  0.0000000000000D+00
   413  4.1200000000000D+00  0.0000000000000D+00  0.0000000000000D+00
   414  4.1300000000000D+00  0.0000000000000D+00  0.0000000000000D+00
   415  4.1400000000000D+00  0.0000000000000D+00  0.0000000000000D+00
   416  4.1500000000000D+00  0.0000000000000D+00  0.0000000000000D+00
   417  4.1600000000000D+00  0.0000000000000D+00  0.0000000000000D+00
   418  4.1700000000000D+00  0.0000000000000D+00  0.0000000000000D+00
   419  4.1800000000000D+00  0.0000000000000D+00  0.0000000000000D+00
   420  4.1900000000000D+00  0.0000000000000D+00  0.0000000000000D+00
   421  4.2000000000000D+00  0.0000000000000D+00  0.0000000000000D+00
   422  4.2100000000000D+00  0.0000000000000D+00  0.0000000000000D+00