Ne    ONCVPSP-3.3.1  r_core=   2.65215   2.68397
     10.0000      8.0000      210904    zatom,zion,pspd
     8      11   1     4   600     0    pspcod,pspxc,lmax,lloc,mmax,r2well
  5.99000000  0.00000000  0.00000000    rchrg fchrg qchrg
     2     2     0     0    nproj
     3     1           extension_switch
     3     0     0    nprojso
   0                        -2.3000117584566D+00 -9.7868424232513D-01
     1  0.0000000000000D+00  3.0455360455761D-12  4.9504289556523D-12
     2  1.0000000000000D-02  2.3871181680198D-02 -4.4000533406442D-02
     3  2.0000000000000D-02  4.7741594287343D-02 -8.7912943105521D-02
     4  3.0000000000000D-02  7.1610423092444D-02 -1.3164929456712D-01
     5  4.0000000000000D-02  9.5476762255417D-02 -1.7512203115527D-01
     6  5.0000000000000D-02  1.1933956977070D-01 -2.1824416192561D-01
     7  6.0000000000000D-02  1.4319762301210D-01 -2.6092944804685D-01
     8  7.0000000000000D-02  1.6704947507310D-01 -3.0309258739325D-01
     9  8.0000000000000D-02  1.9089341209570D-01 -3.4464939686028D-01
    10  9.0000000000000D-02  2.1472741177715D-01 -3.8551699196165D-01
    11  1.0000000000000D-01  2.3854910323943D-01 -4.2561396327320D-01
    12  1.1000000000000D-01  2.6235572844114D-01 -4.6486054929790D-01
    13  1.2000000000000D-01  2.8614410530541D-01 -5.0317880533546D-01
    14  1.3000000000000D-01  3.0991059273107D-01 -5.4049276795130D-01
    15  1.4000000000000D-01  3.3365105764700D-01 -5.7672861465112D-01
    16  1.5000000000000D-01  3.5736084426173D-01 -6.1181481838034D-01
    17  1.6000000000000D-01  3.8103474565204D-01 -6.4568229648178D-01
    18  1.7000000000000D-01  4.0466697782531D-01 -6.7826455375939D-01
    19  1.8000000000000D-01  4.2825115638080D-01 -7.0949781931226D-01
    20  1.9000000000000D-01  4.5178027588534D-01 -7.3932117681932D-01
    21  2.0000000000000D-01  4.7524669206814D-01 -7.6767668797286D-01
    22  2.1000000000000D-01  4.9864210692899D-01 -7.9450950877751D-01
    23  2.2000000000000D-01  5.2195755684267D-01 -8.1976799844999D-01
    24  2.3000000000000D-01  5.4518340373109D-01 -8.4340382067485D-01
    25  2.4000000000000D-01  5.6830932936275D-01 -8.6537203699189D-01
    26  2.5000000000000D-01  5.9132433282730D-01 -8.8563119211142D-01
    27  2.6000000000000D-01  6.1421673122060D-01 -9.0414339097536D-01
    28  2.7000000000000D-01  6.3697416356342D-01 -9.2087436740367D-01
    29  2.8000000000000D-01  6.5958359796461D-01 -9.3579354418780D-01
    30  2.9000000000000D-01  6.8203134202691D-01 -9.4887408451559D-01
    31  3.0000000000000D-01  7.0430305648115D-01 -9.6009293463449D-01
    32  3.1000000000000D-01  7.2638377202233D-01 -9.6943085768292D-01
    33  3.2000000000000D-01  7.4825790930843D-01 -9.7687245864278D-01
    34  3.3000000000000D-01  7.6990930207088D-01 -9.8240620038902D-01
    35  3.4000000000000D-01  7.9132122327350D-01 -9.8602441083522D-01
    36  3.5000000000000D-01  8.1247641424483D-01 -9.8772328119715D-01
    37  3.6000000000000D-01  8.3335711669752D-01 -9.8750285541906D-01
    38  3.7000000000000D-01  8.5394510753697D-01 -9.8536701083002D-01
    39  3.8000000000000D-01  8.7422173635082D-01 -9.8132343011996D-01
    40  3.9000000000000D-01  8.9416796546038D-01 -9.7538356474706D-01
    41  4.0000000000000D-01  9.1376441240486D-01 -9.6756258990955D-01
    42  4.1000000000000D-01  9.3299139472035D-01 -9.5787935123642D-01
    43  4.2000000000000D-01  9.5182897686567D-01 -9.4635630337179D-01
    44  4.3000000000000D-01  9.7025701913953D-01 -9.3301944064780D-01
    45  4.4000000000000D-01  9.8825522842500D-01 -9.1789822006056D-01
    46  4.5000000000000D-01  1.0058032105904D+00 -9.0102547678189D-01
    47  4.6000000000000D-01  1.0228805243684D+00 -8.8243733245802D-01
    48  4.7000000000000D-01  1.0394667365307D+00 -8.6217309656341D-01
    49  4.8000000000000D-01  1.0555414781678D+00 -8.4027516109421D-01
    50  4.9000000000000D-01  1.0710845018812D+00 -8.1678888890153D-01
    51  5.0000000000000D-01  1.0860757396902D+00 -7.9176249597913D-01
    52  5.1000000000000D-01  1.1004953614527D+00 -7.6524692803397D-01
    53  5.2000000000000D-01  1.1143238335964D+00 -7.3729573168070D-01
    54  5.3000000000000D-01  1.1275419779555D+00 -7.0796492061268D-01
    55  5.4000000000000D-01  1.1401310305080D+00 -6.7731283711319D-01
    56  5.5000000000000D-01  1.1520726998059D+00 -6.4540000927960D-01
    57  5.6000000000000D-01  1.1633492248944D+00 -6.1228900434218D-01
    58  5.7000000000000D-01  1.1739434325152D+00 -5.7804427846643D-01
    59  5.8000000000000D-01  1.1838387933912D+00 -5.4273202343423D-01
    60  5.9000000000000D-01  1.1930194773944D+00 -5.0642001060422D-01
    61  6.0000000000000D-01  1.2014704074004D+00 -4.6917743255602D-01
    62  6.1000000000000D-01  1.2091773116382D+00 -4.3107474282571D-01
    63  6.2000000000000D-01  1.2161267743481D+00 -3.9218349414174D-01
    64  6.3000000000000D-01  1.2223062845668D+00 -3.5257617557138D-01
    65  6.4000000000000D-01  1.2277042828658D+00 -3.1232604898706D-01
    66  6.5000000000000D-01  1.2323102058727D+00 -2.7150698526048D-01
    67  6.6000000000000D-01  1.2361145284172D+00 -2.3019330058982D-01
    68  6.7000000000000D-01  1.2391088031480D+00 -1.8845959336141D-01
    69  6.8000000000000D-01  1.2412856974767D+00 -1.4638058194265D-01
    70  6.9000000000000D-01  1.2426390277138D+00 -1.0403094379667D-01
    71  7.0000000000000D-01  1.2431637902721D+00 -6.1485156302917D-02
    72  7.1000000000000D-01  1.2428561898206D+00 -1.8817339659374D-02
    73  7.2000000000000D-01  1.2417136642859D+00  2.3898897766308D-02
    74  7.3000000000000D-01  1.2397349066048D+00  6.6590611279530D-02
    75  7.4000000000000D-01  1.2369198831461D+00  1.0918566854864D-01
    76  7.5000000000000D-01  1.2332698487300D+00  1.5161289480686D-01
    77  7.6000000000000D-01  1.2287873581836D+00  1.9380221424361D-01
    78  7.7000000000000D-01  1.2234762743846D+00  2.3568478727539D-01
    79  7.8000000000000D-01  1.2173417727572D+00  2.7719314340071D-01
    80  7.9000000000000D-01  1.2103903421944D+00  3.1826130935759D-01
    81  8.0000000000000D-01  1.2026297823949D+00  3.5882493231781D-01
    82  8.1000000000000D-01  1.1940691976139D+00  3.9882139786742D-01
    83  8.2000000000000D-01  1.1847189868398D+00  4.3818994253974D-01
    84  8.3000000000000D-01  1.1745908304196D+00  4.7687176068339D-01
    85  8.4000000000000D-01  1.1636976731691D+00  5.1481010546561D-01
    86  8.5000000000000D-01  1.1520537040154D+00  5.5195038382837D-01
    87  8.6000000000000D-01  1.1396743322289D+00  5.8824024523274D-01
    88  8.7000000000000D-01  1.1265761603167D+00  6.2362966404532D-01
    89  8.8000000000000D-01  1.1127769536565D+00  6.5807101543881D-01
    90  8.9000000000000D-01  1.0982956069641D+00  6.9151914469737D-01
    91  9.0000000000000D-01  1.0831521076953D+00  7.2393142983608D-01
    92  9.1000000000000D-01  1.0673674964943D+00  7.5526783746255D-01
    93  9.2000000000000D-01  1.0509638248103D+00  7.8549097182744D-01
    94  9.3000000000000D-01  1.0339641098119D+00  8.1456611702914D-01
    95  9.4000000000000D-01  1.0163922867380D+00  8.4246127235673D-01
    96  9.5000000000000D-01  9.9827315883312D-01  8.6914718077318D-01
    97  9.6000000000000D-01  9.7963234501975D-01  8.9459735055955D-01
    98  9.7000000000000D-01  9.6049622547014D-01  9.1878807015818D-01
    99  9.8000000000000D-01  9.4089188524404D-01  9.4169841627077D-01
   100  9.9000000000000D-01  9.2084705616589D-01  9.6331025528449D-01
   101  1.0000000000000D+00  9.0039005711927D-01  9.8360823811594D-01
   102  1.0100000000000D+00  8.7954973294127D-01  1.0025797885790D+00
   103  1.0200000000000D+00  8.5835539210275D-01  1.0202150853983D+00
   104  1.0300000000000D+00  8.3683674336389D-01  1.0365070380071D+00
   105  1.0400000000000D+00  8.1502383159652D-01  1.0514512562787D+00
   106  1.0500000000000D+00  7.9294697296666D-01  1.0650460143606D+00
   107  1.0600000000000D+00  7.7063668967157D-01  1.0772922087890D+00
   108  1.0700000000000D+00  7.4812364442602D-01  1.0881933110770D+00
   109  1.0800000000000D+00  7.2543857489211D-01  1.0977553149806D+00
   110  1.0900000000000D+00  7.0261222824601D-01  1.1059866786585D+00
   111  1.1000000000000D+00  6.7967529607330D-01  1.1128982619516D+00
   112  1.1100000000000D+00  6.5665834978227D-01  1.1185032590200D+00
   113  1.1200000000000D+00  6.3359177672164D-01  1.1228171265801D+00
   114  1.1300000000000D+00  6.1050571718508D-01  1.1258575079994D+00
   115  1.1400000000000D+00  5.8743000248189D-01  1.1276441535048D+00
   116  1.1500000000000D+00  5.6439409424711D-01  1.1281988367763D+00
   117  1.1600000000000D+00  5.4142702515969D-01  1.1275452681968D+00
   118  1.1700000000000D+00  5.1855734123079D-01  1.1257090050375D+00
   119  1.1800000000000D+00  4.9581304581977D-01  1.1227173588587D+00
   120  1.1900000000000D+00  4.7322154552594D-01  1.1185993004137D+00
   121  1.2000000000000D+00  4.5080959809781D-01  1.1133853623422D+00
   122  1.2100000000000D+00  4.2860326249506D-01  1.1071075399412D+00
   123  1.2200000000000D+00  4.0662785122914D-01  1.0997991903047D+00
   124  1.2300000000000D+00  3.8490788509885D-01  1.0914949301199D+00
   125  1.2400000000000D+00  3.6346705042965D-01  1.0822305324092D+00
   126  1.2500000000000D+00  3.4232815891854D-01  1.0720428225035D+00
   127  1.2600000000000D+00  3.2151311017143D-01  1.0609695735318D+00
   128  1.2700000000000D+00  3.0104285701343D-01  1.0490494017059D+00
   129  1.2800000000000D+00  2.8093737364692D-01  1.0363216616776D+00
   130  1.2900000000000D+00  2.6121562671306D-01  1.0228263422404D+00
   131  1.3000000000000D+00  2.4189554930779D-01  1.0086039626375D+00
   132  1.3100000000000D+00  2.2299401799832D-01  9.9369546974242D-01
   133  1.3200000000000D+00  2.0452683286280D-01  9.7814213635854D-01
   134  1.3300000000000D+00  1.8650870057685D-01  9.6198546088472D-01
   135  1.3400000000000D+00  1.6895322056071D-01  9.4526706858814D-01
   136  1.3500000000000D+00  1.5187287417793D-01  9.2802861470435D-01
   137  1.3600000000000D+00  1.3527901698445D-01  9.1031168959159D-01
   138  1.3700000000000D+00  1.1918187400647D-01  8.9215772614840D-01
   139  1.3800000000000D+00  1.0359053800945D-01  8.7360790968342D-01
   140  1.3900000000000D+00  8.8512970736034D-02  8.5470309044599D-01
   141  1.4000000000000D+00  7.3956007049032D-02  8.3548369897686D-01
   142  1.4100000000000D+00  5.9925361930968D-02  8.1598966445413D-01
   143  1.4200000000000D+00  4.6425640278994D-02  7.9626033619803D-01
   144  1.4300000000000D+00  3.3460349407955D-02  7.7633440845525D-01
   145  1.4400000000000D+00  2.1031914200407D-02  7.5624984862631D-01
   146  1.4500000000000D+00  9.1416947971103D-03  7.3604382902696D-01
   147  1.4600000000000D+00 -2.2099932567551D-03  7.1575266230621D-01
   148  1.4700000000000D+00 -1.3023856511497D-02  6.9541174062101D-01
   149  1.4800000000000D+00 -2.3301598876799D-02  6.7505547862421D-01
   150  1.4900000000000D+00 -3.3045894745783D-02  6.5471726037963D-01
   151  1.5000000000000D+00 -4.2260360118032D-02  6.3442939021048D-01
   152  1.5100000000000D+00 -5.0949521826435D-02  6.1422304757505D-01
   153  1.5200000000000D+00 -5.9118785008976D-02  5.9412824596673D-01
   154  1.5300000000000D+00 -6.6774398948367D-02  5.7417379587784D-01
   155  1.5400000000000D+00 -7.3923421416525D-02  5.5438727183814D-01
   156  1.5500000000000D+00 -8.0573681661498D-02  5.3479498350265D-01
   157  1.5600000000000D+00 -8.6733742172227D-02  5.1542195081752D-01
   158  1.5700000000000D+00 -9.2412859365194D-02  4.9629188317631D-01
   159  1.5800000000000D+00 -9.7620943331124D-02  4.7742716260690D-01
   160  1.5900000000000D+00 -1.0236851678404D-01  4.5884883085678D-01
   161  1.6000000000000D+00 -1.0666667335625D-01  4.4057658040377D-01
   162  1.6100000000000D+00 -1.1052703537540D-01  4.2262874924560D-01
   163  1.6200000000000D+00 -1.1396171127020D-01  4.0502231946021D-01
   164  1.6300000000000D+00 -1.1698325273503D-01  3.8777291939116D-01
   165  1.6400000000000D+00 -1.1960461179821D-01  3.7089482941183D-01
   166  1.6500000000000D+00 -1.2183909791919D-01  3.5440099112426D-01
   167  1.6600000000000D+00 -1.2370033525327D-01  3.3830301991389D-01
   168  1.6700000000000D+00 -1.2520222020428D-01  3.2261122071449D-01
   169  1.6800000000000D+00 -1.2635887939500D-01  3.0733460687923D-01
   170  1.6900000000000D+00 -1.2718462816935D-01  2.9248092200736D-01
   171  1.7000000000000D+00 -1.2769392974665D-01  2.7805666460447D-01
   172  1.7100000000000D+00 -1.2790135513223D-01  2.6406711541787D-01
   173  1.7200000000000D+00 -1.2782154389712D-01  2.5051636731395D-01
   174  1.7300000000000D+00 -1.2746916591549D-01  2.3740735752942D-01
   175  1.7400000000000D+00 -1.2685888416980D-01  2.2474190215702D-01
   176  1.7500000000000D+00 -1.2600531868850D-01  2.1252073268865D-01
   177  1.7600000000000D+00 -1.2492301173116D-01  2.0074353447255D-01
   178  1.7700000000000D+00 -1.2362639425108D-01  1.8940898690237D-01
   179  1.7800000000000D+00 -1.2212975376603D-01  1.7851480518916D-01
   180  1.7900000000000D+00 -1.2044720361943D-01  1.6805778353727D-01
   181  1.8000000000000D+00 -1.1859265379054D-01  1.5803383956306D-01
   182  1.8100000000000D+00 -1.1657978317602D-01  1.4843805979414D-01
   183  1.8200000000000D+00 -1.1442201353679D-01  1.3926474606454D-01
   184  1.8300000000000D+00 -1.1213248497578D-01  1.3050746267491D-01
   185  1.8400000000000D+00 -1.0972403315431D-01  1.2215908410452D-01
   186  1.8500000000000D+00 -1.0720916809861D-01  1.1421184317406D-01
   187  1.8600000000000D+00 -1.0460005476094D-01  1.0665737943531D-01
   188  1.8700000000000D+00 -1.0190849523013D-01  9.9486787692306D-02
   189  1.8800000000000D+00 -9.9145912668681D-02  9.2690666453480D-02
   190  1.8900000000000D+00 -9.6323336945909D-02  8.6259166189613D-02
   191  1.9000000000000D+00 -9.3451391935238D-02  8.0182037263850D-02
   192  1.9100000000000D+00 -9.0540284536737D-02  7.4448677334824D-02
   193  1.9200000000000D+00 -8.7599795277359D-02  6.9048178212322D-02
   194  1.9300000000000D+00 -8.4639270629318D-02  6.3969371865562D-02
   195  1.9400000000000D+00 -8.1667616836024D-02  5.9200875662993D-02
   196  1.9500000000000D+00 -7.8693295372040D-02  5.4731136519247D-02
   197  1.9600000000000D+00 -7.5724319877584D-02  5.0548474005113D-02
   198  1.9700000000000D+00 -7.2768254583551D-02  4.6641122214890D-02
   199  1.9800000000000D+00 -6.9832214181010D-02  4.2997270291446D-02
   200  1.9900000000000D+00 -6.6922865022214D-02  3.9605101628755D-02
   201  2.0000000000000D+00 -6.4046427700520D-02  3.6452831441921D-02
   202  2.0100000000000D+00 -6.1208680831429D-02  3.3528742919826D-02
   203  2.0200000000000D+00 -5.8414966079089D-02  3.0821221584231D-02
   204  2.0300000000000D+00 -5.5670194295137D-02  2.8318788023310D-02
   205  2.0400000000000D+00 -5.2978852727681D-02  2.6010128844505D-02
   206  2.0500000000000D+00 -5.0345013249768D-02  2.3884125710700D-02
   207  2.0600000000000D+00 -4.7772341497943D-02  2.1929882689048D-02
   208  2.0700000000000D+00 -4.5264106895292D-02  2.0136751469331D-02
   209  2.0800000000000D+00 -4.2823193458629D-02  1.8494354831245D-02
   210  2.0900000000000D+00 -4.0452111328839D-02  1.6992608067672D-02
   211  2.1000000000000D+00 -3.8153008951861D-02  1.5621738394414D-02
   212  2.1100000000000D+00 -3.5927685854719D-02  1.4372302535715D-02
   213  2.1200000000000D+00 -3.3777605905363D-02  1.3235202104277D-02
   214  2.1300000000000D+00 -3.1703911047033D-02  1.2201697198727D-02
   215  2.1400000000000D+00 -2.9707435386686D-02  1.1263417940295D-02
   216  2.1500000000000D+00 -2.7788719579056D-02  1.0412374018984D-02
   217  2.1600000000000D+00 -2.5948025508076D-02  9.6409624920793D-03
   218  2.1700000000000D+00 -2.4185351065029D-02  8.9419734564270D-03
   219  2.1800000000000D+00 -2.2500445115887D-02  8.3085940484385D-03
   220  2.1900000000000D+00 -2.0892822504365D-02  7.7344105779436D-03
   221  2.2000000000000D+00 -1.9361779015770D-02  7.2134088166006D-03
   222  2.2100000000000D+00 -1.7906406389048D-02  6.7399727484684D-03
   223  2.2200000000000D+00 -1.6525607113573D-02  6.3088814876768D-03
   224  2.2300000000000D+00 -1.5218109135484D-02  5.9153046959834D-03
   225  2.2400000000000D+00 -1.3982480402579D-02  5.5547965190048D-03
   226  2.2500000000000D+00 -1.2817143060426D-02  5.2232879384603D-03
   227  2.2600000000000D+00 -1.1720387496055D-02  4.9170778806332D-03
   228  2.2700000000000D+00 -1.0690386000196D-02  4.6328229591047D-03
   229  2.2800000000000D+00 -9.7252060494510D-03  4.3675259720505D-03
   230  2.2900000000000D+00 -8.8228233472868D-03  4.1185233608550D-03
   231  2.3000000000000D+00 -7.9811343049160D-03  3.8834715173656D-03
   232  2.3100000000000D+00 -7.1979681731631D-03  3.6603321784715D-03
   233  2.3200000000000D+00 -6.4710987943073D-03  3.4473569746180D-03
   234  2.3300000000000D+00 -5.7982557399355D-03  3.2430711451055D-03
   235  2.3400000000000D+00 -5.1771351045839D-03  3.0462566058063D-03
   236  2.3500000000000D+00 -4.6054097898995D-03  2.8559344183981D-03
   237  2.3600000000000D+00 -4.0807392119268D-03  2.6713467596135D-03
   238  2.3700000000000D+00 -3.6007786350528D-03  2.4919384747440D-03
   239  2.3800000000000D+00 -3.1631879262363D-03  2.3173383388469D-03
   240  2.3900000000000D+00 -2.7656397865155D-03  2.1473401143152D-03
   241  2.4000000000000D+00 -2.4058275897350D-03  1.9818834187735D-03
   242  2.4100000000000D+00 -2.0814726183069D-03  1.8210346411851D-03
   243  2.4200000000000D+00 -1.7903308353930D-03  1.6649679063422D-03
   244  2.4300000000000D+00 -1.5301992557951D-03  1.5139460677163D-03
   245  2.4400000000000D+00 -1.2989217357507D-03  1.3683021073297D-03
   246  2.4500000000000D+00 -1.0943943550777D-03  1.2284207821584D-03
   247  2.4600000000000D+00 -9.1457039515441D-04  1.0947205222995D-03
   248  2.4700000000000D+00 -7.5746480415518D-04  9.6763607223760D-04
   249  2.4800000000000D+00 -6.2115829285853D-04  8.4760153378092D-04
   250  2.4900000000000D+00 -5.0380103797179D-04  7.3503390009148D-04
   251  2.5000000000000D+00 -4.0361596729273D-04  6.3031759359528D-04
   252  2.5100000000000D+00 -3.1890169735939D-04  5.3378956671029D-04
   253  2.5200000000000D+00 -2.4803511125784D-04  4.4572508399525D-04
   254  2.5300000000000D+00 -1.8947361029422D-04  3.6632474062433D-04
   255  2.5400000000000D+00 -1.4175704182593D-04  2.9570217811931D-04
   256  2.5500000000000D+00 -1.0350930215421D-04  2.3387261625607D-04
   257  2.5600000000000D+00 -7.3439603665022D-05  1.8074399177862D-04
   258  2.5700000000000D+00 -5.0343187015052D-05  1.3611189128351D-04
   259  2.5800000000000D+00 -3.3104480039311D-05  9.9623198106833D-05
   260  2.5900000000000D+00 -2.0694247072108D-05  7.0797705292745D-05
   261  2.6000000000000D+00 -1.2163792832301D-05  4.8864258462641D-05
   262  2.6100000000000D+00 -6.6738710125829D-06  3.3424153967209D-05
   263  2.6200000000000D+00 -3.4613503026410D-06  2.3655643931301D-05
   264  2.6300000000000D+00 -1.9018188744955D-06  1.9110355591692D-05
   265  2.6400000000000D+00 -1.2997251890782D-06  1.7090771028801D-05
   266  2.6500000000000D+00 -1.1187349178894D-06  1.5471016570083D-05
   267  2.6600000000000D+00 -8.7107409318198D-07  1.1651664659743D-05
   268  2.6700000000000D+00 -5.1677666864406D-07  6.5571533609102D-06
   269  2.6800000000000D+00 -1.3495817501382D-07  1.6231732643853D-06
   270  2.6900000000000D+00  7.9550902224478D-08 -1.0892906204461D-06
   271  2.7000000000000D+00  1.1133270540558D-07 -1.5003314593037D-06
   272  2.7100000000000D+00  5.4033044209228D-08 -7.1682344661974D-07
   273  2.7200000000000D+00 -8.8058373444445D-09  1.4662503627577D-07
   274  2.7300000000000D+00 -1.9842002995146D-08  3.3401780724430D-07
   275  2.7400000000000D+00 -1.3629406522545D-08  2.3158495653028D-07
   276  2.7500000000000D+00  4.3215305206999D-10 -5.9240834577340D-09
   277  2.7600000000000D+00  2.8452716303909D-09 -3.9003835603199D-08
   278  2.7700000000000D+00  2.6971775413259D-09 -3.6973717479503D-08
   279  2.7800000000000D+00  4.8680910751274D-10 -6.6733250339821D-09
   280  2.7900000000000D+00  0.0000000000000D+00  0.0000000000000D+00
   281  2.8000000000000D+00  0.0000000000000D+00  0.0000000000000D+00
   282  2.8100000000000D+00  0.0000000000000D+00  0.0000000000000D+00
   283  2.8200000000000D+00  0.0000000000000D+00  0.0000000000000D+00
   284  2.8300000000000D+00  0.0000000000000D+00  0.0000000000000D+00
   285  2.8400000000000D+00  0.0000000000000D+00  0.0000000000000D+00
   286  2.8500000000000D+00  0.0000000000000D+00  0.0000000000000D+00
   287  2.8600000000000D+00  0.0000000000000D+00  0.0000000000000D+00
   288  2.8700000000000D+00  0.0000000000000D+00  0.0000000000000D+00
   289  2.8800000000000D+00  0.0000000000000D+00  0.0000000000000D+00
   290  2.8900000000000D+00  0.0000000000000D+00  0.0000000000000D+00
   291  2.9000000000000D+00  0.0000000000000D+00  0.0000000000000D+00
   292  2.9100000000000D+00  0.0000000000000D+00  0.0000000000000D+00
   293  2.9200000000000D+00  0.0000000000000D+00  0.0000000000000D+00
   294  2.9300000000000D+00  0.0000000000000D+00  0.0000000000000D+00
   295  2.9400000000000D+00  0.0000000000000D+00  0.0000000000000D+00
   296  2.9500000000000D+00  0.0000000000000D+00  0.0000000000000D+00
   297  2.9600000000000D+00  0.0000000000000D+00  0.0000000000000D+00
   298  2.9700000000000D+00  0.0000000000000D+00  0.0000000000000D+00
   299  2.9800000000000D+00  0.0000000000000D+00  0.0000000000000D+00
   300  2.9900000000000D+00  0.0000000000000D+00  0.0000000000000D+00
   301  3.0000000000000D+00  0.0000000000000D+00  0.0000000000000D+00
   302  3.0100000000000D+00  0.0000000000000D+00  0.0000000000000D+00
   303  3.0200000000000D+00  0.0000000000000D+00  0.0000000000000D+00
   304  3.0300000000000D+00  0.0000000000000D+00  0.0000000000000D+00
   305  3.0400000000000D+00  0.0000000000000D+00  0.0000000000000D+00
   306  3.0500000000000D+00  0.0000000000000D+00  0.0000000000000D+00
   307  3.0600000000000D+00  0.0000000000000D+00  0.0000000000000D+00
   308  3.0700000000000D+00  0.0000000000000D+00  0.0000000000000D+00
   309  3.0800000000000D+00  0.0000000000000D+00  0.0000000000000D+00
   310  3.0900000000000D+00  0.0000000000000D+00  0.0000000000000D+00
   311  3.1000000000000D+00  0.0000000000000D+00  0.0000000000000D+00
   312  3.1100000000000D+00  0.0000000000000D+00  0.0000000000000D+00
   313  3.1200000000000D+00  0.0000000000000D+00  0.0000000000000D+00
   314  3.1300000000000D+00  0.0000000000000D+00  0.0000000000000D+00
   315  3.1400000000000D+00  0.0000000000000D+00  0.0000000000000D+00
   316  3.1500000000000D+00  0.0000000000000D+00  0.0000000000000D+00
   317  3.1600000000000D+00  0.0000000000000D+00  0.0000000000000D+00
   318  3.1700000000000D+00  0.0000000000000D+00  0.0000000000000D+00
   319  3.1800000000000D+00  0.0000000000000D+00  0.0000000000000D+00
   320  3.1900000000000D+00  0.0000000000000D+00  0.0000000000000D+00
   321  3.2000000000000D+00  0.0000000000000D+00  0.0000000000000D+00
   322  3.2100000000000D+00  0.0000000000000D+00  0.0000000000000D+00
   323  3.2200000000000D+00  0.0000000000000D+00  0.0000000000000D+00
   324  3.2300000000000D+00  0.0000000000000D+00  0.0000000000000D+00
   325  3.2400000000000D+00  0.0000000000000D+00  0.0000000000000D+00
   326  3.2500000000000D+00  0.0000000000000D+00  0.0000000000000D+00
   327  3.2600000000000D+00  0.0000000000000D+00  0.0000000000000D+00
   328  3.2700000000000D+00  0.0000000000000D+00  0.0000000000000D+00
   329  3.2800000000000D+00  0.0000000000000D+00  0.0000000000000D+00
   330  3.2900000000000D+00  0.0000000000000D+00  0.0000000000000D+00
   331  3.3000000000000D+00  0.0000000000000D+00  0.0000000000000D+00
   332  3.3100000000000D+00  0.0000000000000D+00  0.0000000000000D+00
   333  3.3200000000000D+00  0.0000000000000D+00  0.0000000000000D+00
   334  3.3300000000000D+00  0.0000000000000D+00  0.0000000000000D+00
   335  3.3400000000000D+00  0.0000000000000D+00  0.0000000000000D+00
   336  3.3500000000000D+00  0.0000000000000D+00  0.0000000000000D+00
   337  3.3600000000000D+00  0.0000000000000D+00  0.0000000000000D+00
   338  3.3700000000000D+00  0.0000000000000D+00  0.0000000000000D+00
   339  3.3800000000000D+00  0.0000000000000D+00  0.0000000000000D+00
   340  3.3900000000000D+00  0.0000000000000D+00  0.0000000000000D+00
   341  3.4000000000000D+00  0.0000000000000D+00  0.0000000000000D+00
   342  3.4100000000000D+00  0.0000000000000D+00  0.0000000000000D+00
   343  3.4200000000000D+00  0.0000000000000D+00  0.0000000000000D+00
   344  3.4300000000000D+00  0.0000000000000D+00  0.0000000000000D+00
   345  3.4400000000000D+00  0.0000000000000D+00  0.0000000000000D+00
   346  3.4500000000000D+00  0.0000000000000D+00  0.0000000000000D+00
   347  3.4600000000000D+00  0.0000000000000D+00  0.0000000000000D+00
   348  3.4700000000000D+00  0.0000000000000D+00  0.0000000000000D+00
   349  3.4800000000000D+00  0.0000000000000D+00  0.0000000000000D+00
   350  3.4900000000000D+00  0.0000000000000D+00  0.0000000000000D+00
   351  3.5000000000000D+00  0.0000000000000D+00  0.0000000000000D+00
   352  3.5100000000000D+00  0.0000000000000D+00  0.0000000000000D+00
   353  3.5200000000000D+00  0.0000000000000D+00  0.0000000000000D+00
   354  3.5300000000000D+00  0.0000000000000D+00  0.0000000000000D+00
   355  3.5400000000000D+00  0.0000000000000D+00  0.0000000000000D+00
   356  3.5500000000000D+00  0.0000000000000D+00  0.0000000000000D+00
   357  3.5600000000000D+00  0.0000000000000D+00  0.0000000000000D+00
   358  3.5700000000000D+00  0.0000000000000D+00  0.0000000000000D+00
   359  3.5800000000000D+00  0.0000000000000D+00  0.0000000000000D+00
   360  3.5900000000000D+00  0.0000000000000D+00  0.0000000000000D+00
   361  3.6000000000000D+00  0.0000000000000D+00  0.0000000000000D+00
   362  3.6100000000000D+00  0.0000000000000D+00  0.0000000000000D+00
   363  3.6200000000000D+00  0.0000000000000D+00  0.0000000000000D+00
   364  3.6300000000000D+00  0.0000000000000D+00  0.0000000000000D+00
   365  3.6400000000000D+00  0.0000000000000D+00  0.0000000000000D+00
   366  3.6500000000000D+00  0.0000000000000D+00  0.0000000000000D+00
   367  3.6600000000000D+00  0.0000000000000D+00  0.0000000000000D+00
   368  3.6700000000000D+00  0.0000000000000D+00  0.0000000000000D+00
   369  3.6800000000000D+00  0.0000000000000D+00  0.0000000000000D+00
   370  3.6900000000000D+00  0.0000000000000D+00  0.0000000000000D+00
   371  3.7000000000000D+00  0.0000000000000D+00  0.0000000000000D+00
   372  3.7100000000000D+00  0.0000000000000D+00  0.0000000000000D+00
   373  3.7200000000000D+00  0.0000000000000D+00  0.0000000000000D+00
   374  3.7300000000000D+00  0.0000000000000D+00  0.0000000000000D+00
   375  3.7400000000000D+00  0.0000000000000D+00  0.0000000000000D+00
   376  3.7500000000000D+00  0.0000000000000D+00  0.0000000000000D+00
   377  3.7600000000000D+00  0.0000000000000D+00  0.0000000000000D+00
   378  3.7700000000000D+00  0.0000000000000D+00  0.0000000000000D+00
   379  3.7800000000000D+00  0.0000000000000D+00  0.0000000000000D+00
   380  3.7900000000000D+00  0.0000000000000D+00  0.0000000000000D+00
   381  3.8000000000000D+00  0.0000000000000D+00  0.0000000000000D+00
   382  3.8100000000000D+00  0.0000000000000D+00  0.0000000000000D+00
   383  3.8200000000000D+00  0.0000000000000D+00  0.0000000000000D+00
   384  3.8300000000000D+00  0.0000000000000D+00  0.0000000000000D+00
   385  3.8400000000000D+00  0.0000000000000D+00  0.0000000000000D+00
   386  3.8500000000000D+00  0.0000000000000D+00  0.0000000000000D+00
   387  3.8600000000000D+00  0.0000000000000D+00  0.0000000000000D+00
   388  3.8700000000000D+00  0.0000000000000D+00  0.0000000000000D+00
   389  3.8800000000000D+00  0.0000000000000D+00  0.0000000000000D+00
   390  3.8900000000000D+00  0.0000000000000D+00  0.0000000000000D+00
   391  3.9000000000000D+00  0.0000000000000D+00  0.0000000000000D+00
   392  3.9100000000000D+00  0.0000000000000D+00  0.0000000000000D+00
   393  3.9200000000000D+00  0.0000000000000D+00  0.0000000000000D+00
   394  3.9300000000000D+00  0.0000000000000D+00  0.0000000000000D+00
   395  3.9400000000000D+00  0.0000000000000D+00  0.0000000000000D+00
   396  3.9500000000000D+00  0.0000000000000D+00  0.0000000000000D+00
   397  3.9600000000000D+00  0.0000000000000D+00  0.0000000000000D+00
   398  3.9700000000000D+00  0.0000000000000D+00  0.0000000000000D+00
   399  3.9800000000000D+00  0.0000000000000D+00  0.0000000000000D+00
   400  3.9900000000000D+00  0.0000000000000D+00  0.0000000000000D+00
   401  4.0000000000000D+00  0.0000000000000D+00  0.0000000000000D+00
   402  4.0100000000000D+00  0.0000000000000D+00  0.0000000000000D+00
   403  4.0200000000000D+00  0.0000000000000D+00  0.0000000000000D+00
   404  4.0300000000000D+00  0.0000000000000D+00  0.0000000000000D+00
   405  4.0400000000000D+00  0.0000000000000D+00  0.0000000000000D+00
   406  4.0500000000000D+00  0.0000000000000D+00  0.0000000000000D+00
   407  4.0600000000000D+00  0.0000000000000D+00  0.0000000000000D+00
   408  4.0700000000000D+00  0.0000000000000D+00  0.0000000000000D+00
   409  4.0800000000000D+00  0.0000000000000D+00  0.0000000000000D+00
   410  4.0900000000000D+00  0.0000000000000D+00  0.0000000000000D+00
   411  4.1000000000000D+00  0.0000000000000D+00  0.0000000000000D+00
   412  4.1100000000000D+00  0.0000000000000D+00  0.0000000000000D+00
   413  4.1200000000000D+00  0.0000000000000D+00  0.0000000000000D+00
   414  4.1300000000000D+00  0.0000000000000D+00  0.0000000000000D+00
   415  4.1400000000000D+00  0.0000000000000D+00  0.0000000000000D+00
   416  4.1500000000000D+00  0.0000000000000D+00  0.0000000000000D+00
   417  4.1600000000000D+00  0.0000000000000D+00  0.0000000000000D+00
   418  4.1700000000000D+00  0.0000000000000D+00  0.0000000000000D+00
   419  4.1800000000000D+00  0.0000000000000D+00  0.0000000000000D+00
   420  4.1900000000000D+00  0.0000000000000D+00  0.0000000000000D+00
   421  4.2000000000000D+00  0.0000000000000D+00  0.0000000000000D+00
   422  4.2100000000000D+00  0.0000000000000D+00  0.0000000000000D+00