Ni    ONCVPSP-3.3.1  r_core=   2.20931   2.20931   2.28980
     28.0000     18.0000      210904    zatom,zion,pspd
     8      11   2     4   600     0    pspcod,pspxc,lmax,lloc,mmax,r2well
  5.99000000  0.00000000  0.00000000    rchrg fchrg qchrg
     2     2     2     0    nproj
     3     1           extension_switch
     3     3     0    nprojso
   0                        -3.4385580138957D+00 -2.1504702787358D-01
     1  0.0000000000000D+00 -6.7373884249378D-13 -7.3382966370161D-12
     2  1.0000000000000D-02  4.1761734372078D-02 -3.3346523953804D-02
     3  2.0000000000000D-02  8.3478985202792D-02 -6.6624256904199D-02
     4  3.0000000000000D-02  1.2510733541638D-01 -9.9764505478362D-02
     5  4.0000000000000D-02  1.6660250075610D-01 -1.3269877163724D-01
     6  5.0000000000000D-02  2.0792039591336D-01 -1.6535885052210D-01
     7  6.0000000000000D-02  2.4901720032092D-01 -1.9767692851136D-01
     8  7.0000000000000D-02  2.8984942349892D-01 -2.2958568154920D-01
     9  8.0000000000000D-02  3.3037396984327D-01 -2.6101837379989D-01
    10  9.0000000000000D-02  3.7054820274662D-01 -2.9190895667286D-01
    11  1.0000000000000D-01  4.1033000794331D-01 -3.2219216825257D-01
    12  1.1000000000000D-01  4.4967785597083D-01 -3.5180363315503D-01
    13  1.2000000000000D-01  4.8855086364154D-01 -3.8067996281890D-01
    14  1.3000000000000D-01  5.2690885442007D-01 -4.0875885622388D-01
    15  1.4000000000000D-01  5.6471241760345D-01 -4.3597920101263D-01
    16  1.5000000000000D-01  6.0192296620289D-01 -4.6228117497488D-01
    17  1.6000000000000D-01  6.3850279342794D-01 -4.8760634783357D-01
    18  1.7000000000000D-01  6.7441512767638D-01 -5.1189778325383D-01
    19  1.8000000000000D-01  7.0962418593501D-01 -5.3510014097499D-01
    20  1.9000000000000D-01  7.4409522549938D-01 -5.5715977894535D-01
    21  2.0000000000000D-01  7.7779459392309D-01 -5.7802485531857D-01
    22  2.1000000000000D-01  8.1068977710999D-01 -5.9764543014898D-01
    23  2.2000000000000D-01  8.4274944546571D-01 -6.1597356660210D-01
    24  2.3000000000000D-01  8.7394349802816D-01 -6.3296343147564D-01
    25  2.4000000000000D-01  9.0424310449969D-01 -6.4857139480525D-01
    26  2.5000000000000D-01  9.3362074510740D-01 -6.6275612830953D-01
    27  2.6000000000000D-01  9.6205024822132D-01 -6.7547870240888D-01
    28  2.7000000000000D-01  9.8950682566429D-01 -6.8670268153455D-01
    29  2.8000000000000D-01  1.0159671056509D+00 -6.9639421742643D-01
    30  2.9000000000000D-01  1.0414091632974D+00 -7.0452214010204D-01
    31  3.0000000000000D-01  1.0658125486475D+00 -7.1105804616398D-01
    32  3.1000000000000D-01  1.0891583121653D+00 -7.1597638410000D-01
    33  3.2000000000000D-01  1.1114290276492D+00 -7.1925453621798D-01
    34  3.3000000000000D-01  1.1326088125246D+00 -7.2087289684815D-01
    35  3.4000000000000D-01  1.1526833454821D+00 -7.2081494643741D-01
    36  3.5000000000000D-01  1.1716398814254D+00 -7.1906732115400D-01
    37  3.6000000000000D-01  1.1894672637068D+00 -7.1561987761805D-01
    38  3.7000000000000D-01  1.2061559336239D+00 -7.1046575237133D-01
    39  3.8000000000000D-01  1.2216979371646D+00 -7.0360141570101D-01
    40  3.9000000000000D-01  1.2360869289863D+00 -6.9502671943543D-01
    41  4.0000000000000D-01  1.2493181736240D+00 -6.8474493833578D-01
    42  4.1000000000000D-01  1.2613885439255D+00 -6.7276280471588D-01
    43  4.2000000000000D-01  1.2722965167181D+00 -6.5909053593334D-01
    44  4.3000000000000D-01  1.2820421657164D+00 -6.4374185440861D-01
    45  4.4000000000000D-01  1.2906271516853D+00 -6.2673399984438D-01
    46  4.5000000000000D-01  1.2980547098785D+00 -6.0808773333648D-01
    47  4.6000000000000D-01  1.3043296347788D+00 -5.8782733308805D-01
    48  4.7000000000000D-01  1.3094582621701D+00 -5.6598058146203D-01
    49  4.8000000000000D-01  1.3134484485775D+00 -5.4257874313296D-01
    50  4.9000000000000D-01  1.3163095481177D+00 -5.1765653412644D-01
    51  5.0000000000000D-01  1.3180523868060D+00 -4.9125208156491D-01
    52  5.1000000000000D-01  1.3186892343719D+00 -4.6340687397027D-01
    53  5.2000000000000D-01  1.3182337736412D+00 -4.3416570200732D-01
    54  5.3000000000000D-01  1.3167010675461D+00 -4.0357658958833D-01
    55  5.4000000000000D-01  1.3141075238318D+00 -3.7169071529503D-01
    56  5.5000000000000D-01  1.3104708575302D+00 -3.3856232411390D-01
    57  5.6000000000000D-01  1.3058100512792D+00 -3.0424862951930D-01
    58  5.7000000000000D-01  1.3001453135689D+00 -2.6880970598045D-01
    59  5.8000000000000D-01  1.2934980350001D+00 -2.3230837200893D-01
    60  5.9000000000000D-01  1.2858907426463D+00 -1.9481006390632D-01
    61  6.0000000000000D-01  1.2773470526134D+00 -1.5638270041305D-01
    62  6.1000000000000D-01  1.2678916208965D+00 -1.1709653850276D-01
    63  6.2000000000000D-01  1.2575500926349D+00 -7.7024020608617D-02
    64  6.3000000000000D-01  1.2463490498719D+00 -3.6239613610259D-02
    65  6.4000000000000D-01  1.2343159579296D+00  5.1803600484243D-03
    66  6.5000000000000D-01  1.2214791105089D+00  4.7157898699640D-02
    67  6.6000000000000D-01  1.2078675736326D+00  8.9613504799324D-02
    68  6.7000000000000D-01  1.1935111285473D+00  1.3246637479285D-01
    69  6.8000000000000D-01  1.1784402137055D+00  1.7563459497217D-01
    70  6.9000000000000D-01  1.1626858659508D+00  2.1903534276299D-01
    71  7.0000000000000D-01  1.1462796610279D+00  2.6258509284650D-01
    72  7.1000000000000D-01  1.1292536535471D+00  3.0619982748941D-01
    73  7.2000000000000D-01  1.1116403165257D+00  3.4979525042657D-01
    74  7.3000000000000D-01  1.0934724806373D+00  3.9328700361448D-01
    75  7.4000000000000D-01  1.0747832732971D+00  4.3659088614971D-01
    76  7.5000000000000D-01  1.0556060577096D+00  4.7962307462567D-01
    77  7.6000000000000D-01  1.0359743720110D+00  5.2230034418306D-01
    78  7.7000000000000D-01  1.0159218686311D+00  5.6454028949450D-01
    79  7.8000000000000D-01  9.9548225400557D-01  6.0626154491256D-01
    80  7.9000000000000D-01  9.7468922876287D-01  6.4738400300191D-01
    81  8.0000000000000D-01  9.5357642851327D-01  6.8782903067178D-01
    82  8.1000000000000D-01  9.3217736536234D-01  7.2751968212388D-01
    83  8.2000000000000D-01  9.1052537027185D-01  7.6638090783297D-01
    84  8.3000000000000D-01  8.8865353638726D-01  8.0433975878369D-01
    85  8.4000000000000D-01  8.6659466344921D-01  8.4132558519642D-01
    86  8.5000000000000D-01  8.4438120340314D-01  8.7727022898887D-01
    87  8.6000000000000D-01  8.2204520731835D-01  9.1210820923623D-01
    88  8.7000000000000D-01  7.9961827372397D-01  9.4577689991359D-01
    89  8.8000000000000D-01  7.7713149846606D-01  9.7821669922816D-01
    90  8.9000000000000D-01  7.5461542618546D-01  1.0093711898761D+00
    91  9.0000000000000D-01  7.3210000351247D-01  1.0391872895891D+00
    92  9.1000000000000D-01  7.0961453406911D-01  1.0676153913706D+00
    93  9.2000000000000D-01  6.8718763536564D-01  1.0946094928571D+00
    94  9.3000000000000D-01  6.6484719767257D-01  1.1201273142804D+00
    95  9.4000000000000D-01  6.4262034494438D-01  1.1441304045500D+00
    96  9.5000000000000D-01  6.2053339786577D-01  1.1665842350180D+00
    97  9.6000000000000D-01  5.9861183908551D-01  1.1874582805377D+00
    98  9.7000000000000D-01  5.7688028069731D-01  1.2067260874767D+00
    99  9.8000000000000D-01  5.5536243402131D-01  1.2243653283943D+00
   100  9.9000000000000D-01  5.3408108173329D-01  1.2403578431511D+00
   101  1.0000000000000D+00  5.1305805238331D-01  1.2546896662661D+00
   102  1.0100000000000D+00  4.9231419733822D-01  1.2673510403994D+00
   103  1.0200000000000D+00  4.7186937017704D-01  1.2783364158893D+00
   104  1.0300000000000D+00  4.5174240856109D-01  1.2876444363344D+00
   105  1.0400000000000D+00  4.3195111859477D-01  1.2952779102637D+00
   106  1.0500000000000D+00  4.1251226168587D-01  1.3012437690029D+00
   107  1.0600000000000D+00  3.9344154390851D-01  1.3055530108909D+00
   108  1.0700000000000D+00  3.7475360786461D-01  1.3082206320701D+00
   109  1.0800000000000D+00  3.5646202703364D-01  1.3092655441208D+00
   110  1.0900000000000D+00  3.3857930259409D-01  1.3087104788683D+00
   111  1.1000000000000D+00  3.2111686269321D-01  1.3065818807494D+00
   112  1.1100000000000D+00  3.0408506413665D-01  1.3029097871639D+00
   113  1.1200000000000D+00  2.8749319646160D-01  1.2977276973047D+00
   114  1.1300000000000D+00  2.7134948835268D-01  1.2910724299935D+00
   115  1.1400000000000D+00  2.5566111635260D-01  1.2829839711058D+00
   116  1.1500000000000D+00  2.4043421581560D-01  1.2735053112014D+00
   117  1.1600000000000D+00  2.2567389404427D-01  1.2626822740266D+00
   118  1.1700000000000D+00  2.1138424554639D-01  1.2505633365885D+00
   119  1.1800000000000D+00  1.9756836934211D-01  1.2371994415368D+00
   120  1.1900000000000D+00  1.8422838824908D-01  1.2226438026143D+00
   121  1.2000000000000D+00  1.7136547006560D-01  1.2069517039746D+00
   122  1.2100000000000D+00  1.5897985056938D-01  1.1901802941847D+00
   123  1.2200000000000D+00  1.4707085824521D-01  1.1723883757473D+00
   124  1.2300000000000D+00  1.3563694065073D-01  1.1536361910001D+00
   125  1.2400000000000D+00  1.2467569232529D-01  1.1339852052605D+00
   126  1.2500000000000D+00  1.1418388414479D-01  1.1134978880906D+00
   127  1.2600000000000D+00  1.0415749402228D-01  1.0922374935644D+00
   128  1.2700000000000D+00  9.4591738850298D-02  1.0702678404228D+00
   129  1.2800000000000D+00  8.5481107579967D-02  1.0476530929894D+00
   130  1.2900000000000D+00  7.6819395329822D-02  1.0244575437294D+00
   131  1.3000000000000D+00  6.8599738414439D-02  1.0007453983063D+00
   132  1.3100000000000D+00  6.0814650183248D-02  9.7658056398292D-01
   133  1.3200000000000D+00  5.3456057558066D-02  9.5202644220953D-01
   134  1.3300000000000D+00  4.6515338157234D-02  9.2714572618774D-01
   135  1.3400000000000D+00  3.9983357894723D-02  9.0200020420330D-01
   136  1.3500000000000D+00  3.3850508941369D-02  8.7665056949287D-01
   137  1.3600000000000D+00  2.8106747937667D-02  8.5115623733207D-01
   138  1.3700000000000D+00  2.2741634346180D-02  8.2557517007588D-01
   139  1.3800000000000D+00  1.7744368833929D-02  7.9996371077781D-01
   140  1.3900000000000D+00  1.3103831577954D-02  7.7437642597605D-01
   141  1.4000000000000D+00  8.8086203838742D-03  7.4886595828224D-01
   142  1.4100000000000D+00  4.8470885170578D-03  7.2348288920800D-01
   143  1.4200000000000D+00  1.2073821409311D-03  6.9827561277380D-01
   144  1.4300000000000D+00 -2.1225227371847D-03  6.7329022031376D-01
   145  1.4400000000000D+00 -5.1547839051419D-03  6.4857039679684D-01
   146  1.4500000000000D+00 -7.9016572721518D-03  6.2415732911668D-01
   147  1.4600000000000D+00 -1.0375461961485D-02  6.0008962647012D-01
   148  1.4700000000000D+00 -1.2588546266006D-02  5.7640325319062D-01
   149  1.4800000000000D+00 -1.4553254543310D-02  5.5313147411977D-01
   150  1.4900000000000D+00 -1.6281895128391D-02  5.3030481264390D-01
   151  1.5000000000000D+00 -1.7786709346365D-02  5.0795102154583D-01
   152  1.5100000000000D+00 -1.9079841678276D-02  4.8609506651204D-01
   153  1.5200000000000D+00 -2.0173311168240D-02  4.6475912249989D-01
   154  1.5300000000000D+00 -2.1078984105950D-02  4.4396258261049D-01
   155  1.5400000000000D+00 -2.1808548064106D-02  4.2372207957403D-01
   156  1.5500000000000D+00 -2.2373487321620D-02  4.0405151947209D-01
   157  1.5600000000000D+00 -2.2785059729633D-02  3.8496212758766D-01
   158  1.5700000000000D+00 -2.3054275056130D-02  3.6646250605546D-01
   159  1.5800000000000D+00 -2.3191874838634D-02  3.4855870297626D-01
   160  1.5900000000000D+00 -2.3208313787814D-02  3.3125429271619D-01
   161  1.6000000000000D+00 -2.3113742742751D-02  3.1455046685773D-01
   162  1.6100000000000D+00 -2.2917993227771D-02  2.9844613555190D-01
   163  1.6200000000000D+00 -2.2630563583401D-02  2.8293803858598D-01
   164  1.6300000000000D+00 -2.2260606727232D-02  2.6802086591637D-01
   165  1.6400000000000D+00 -2.1816919491106D-02  2.5368738688133D-01
   166  1.6500000000000D+00 -2.1307933593196D-02  2.3992858780895D-01
   167  1.6600000000000D+00 -2.0741708171194D-02  2.2673381719864D-01
   168  1.6700000000000D+00 -2.0125923930265D-02  2.1409093811411D-01
   169  1.6800000000000D+00 -1.9467878820170D-02  2.0198648699001D-01
   170  1.6900000000000D+00 -1.8774485285335D-02  1.9040583839256D-01
   171  1.7000000000000D+00 -1.8052268993094D-02  1.7933337498962D-01
   172  1.7100000000000D+00 -1.7307369074821D-02  1.6875266217560D-01
   173  1.7200000000000D+00 -1.6545539775150D-02  1.5864662668069D-01
   174  1.7300000000000D+00 -1.5772153537451D-02  1.4899773851432D-01
   175  1.7400000000000D+00 -1.4992205409855D-02  1.3978819567607D-01
   176  1.7500000000000D+00 -1.4210318794620D-02  1.3100011087802D-01
   177  1.7600000000000D+00 -1.3430752417339D-02  1.2261569984570D-01
   178  1.7700000000000D+00 -1.2657408528413D-02  1.1461747033861D-01
   179  1.7800000000000D+00 -1.1893842215029D-02  1.0698841158960D-01
   180  1.7900000000000D+00 -1.1143271817172D-02  9.9712183245029D-02
   181  1.8000000000000D+00 -1.0408590336846D-02  9.2773303593066D-02
   182  1.8100000000000D+00 -9.6923779232454D-03  8.6157342288014D-02
   183  1.8200000000000D+00 -8.9969146668025D-03  7.9851081037732D-02
   184  1.8300000000000D+00 -8.3241957650255D-03  7.3842755210358D-02
   185  1.8400000000000D+00 -7.6759443447235D-03  6.8122129617233D-02
   186  1.8500000000000D+00 -7.0536262529142D-03  6.2680637311116D-02
   187  1.8600000000000D+00 -6.4584724832273D-03  5.7511893239692D-02
   188  1.8700000000000D+00 -5.8914972487094D-03  5.2611951797026D-02
   189  1.8800000000000D+00 -5.3534891392070D-03  4.7978072090295D-02
   190  1.8900000000000D+00 -4.8450129205380D-03  4.3608019157540D-02
   191  1.9000000000000D+00 -4.3664114568170D-03  3.9499454686996D-02
   192  1.9100000000000D+00 -3.9177946390582D-03  3.5648581648011D-02
   193  1.9200000000000D+00 -3.4990593149925D-03  3.2050460503105D-02
   194  1.9300000000000D+00 -3.1099103294551D-03  2.8699391727087D-02
   195  1.9400000000000D+00 -2.7498763529232D-03  2.5588995495788D-02
   196  1.9500000000000D+00 -2.4183234766301D-03  2.2712154191888D-02
   197  1.9600000000000D+00 -2.1144728309292D-03  2.0061179204841D-02
   198  1.9700000000000D+00 -1.8374159235866D-03  1.7627853078536D-02
   199  1.9800000000000D+00 -1.5861306681788D-03  1.5403512504276D-02
   200  1.9900000000000D+00 -1.3594969848389D-03  1.3379119195833D-02
   201  2.0000000000000D+00 -1.1563121586440D-03  1.1545327497492D-02
   202  2.0100000000000D+00 -9.7530582336296D-04  9.8925485004197D-03
   203  2.0200000000000D+00 -8.1515452616125D-04  8.4110106716550D-03
   204  2.0300000000000D+00 -6.7449586153775D-04  7.0908170658834D-03
   205  2.0400000000000D+00 -5.5194200855001D-04  5.9219989045505D-03
   206  2.0500000000000D+00 -4.4609277050369D-04  4.8945657410965D-03
   207  2.0600000000000D+00 -3.5554791424321D-04  3.9985519947947D-03
   208  2.0700000000000D+00 -2.7891887096263D-04  3.2240599756204D-03
   209  2.0800000000000D+00 -2.1483973521462D-04  2.5612993741461D-03
   210  2.0900000000000D+00 -1.6197743916602D-04  2.0006231332598D-03
   211  2.1000000000000D+00 -1.1904124285188D-04  1.5325598655866D-03
   212  2.1100000000000D+00 -8.4791291465573D-05  1.1478426467043D-03
   213  2.1200000000000D+00 -5.8046391799377D-05  8.3743432996568D-04
   214  2.1300000000000D+00 -3.7690918713246D-05  5.9254934974530D-04
   215  2.1400000000000D+00 -2.2673552958977D-05  4.0469017765855D-04
   216  2.1500000000000D+00 -1.2041015759894D-05  2.6558991945386D-04
   217  2.1600000000000D+00 -4.9280329666238D-06  1.6716937280347D-04
   218  2.1700000000000D+00 -5.2583930751968D-07  1.0178888407638D-04
   219  2.1800000000000D+00  1.9930895252549D-06  6.2891328221841D-05
   220  2.1900000000000D+00  3.3618200244009D-06  4.4625092188453D-05
   221  2.2000000000000D+00  3.8223773250144D-06  3.7422637237763D-05
   222  2.2100000000000D+00  3.4147228667879D-06  3.1744749416642D-05
   223  2.2200000000000D+00  2.1077415631361D-06  1.9690097227149D-05
   224  2.2300000000000D+00  6.7224672973292D-07  6.4535141918771D-06
   225  2.2400000000000D+00 -2.2941971337453D-07 -2.0445885664083D-06
   226  2.2500000000000D+00 -3.5016904356281D-07 -3.1312467754985D-06
   227  2.2600000000000D+00 -8.8755043105440D-08 -7.9756824475233D-07
   228  2.2700000000000D+00  7.1361343131785D-08  5.9156907539204D-07
   229  2.2800000000000D+00  7.3887093239558D-08  6.0886680529283D-07
   230  2.2900000000000D+00 -2.7601544888944D-10 -2.5697512292754D-09
   231  2.3000000000000D+00 -9.3956612833940D-09 -8.7475220064688D-08
   232  2.3100000000000D+00 -6.9563347101191D-09 -6.4764670762107D-08
   233  2.3200000000000D+00  0.0000000000000D+00  0.0000000000000D+00
   234  2.3300000000000D+00  0.0000000000000D+00  0.0000000000000D+00
   235  2.3400000000000D+00  0.0000000000000D+00  0.0000000000000D+00
   236  2.3500000000000D+00  0.0000000000000D+00  0.0000000000000D+00
   237  2.3600000000000D+00  0.0000000000000D+00  0.0000000000000D+00
   238  2.3700000000000D+00  0.0000000000000D+00  0.0000000000000D+00
   239  2.3800000000000D+00  0.0000000000000D+00  0.0000000000000D+00
   240  2.3900000000000D+00  0.0000000000000D+00  0.0000000000000D+00
   241  2.4000000000000D+00  0.0000000000000D+00  0.0000000000000D+00
   242  2.4100000000000D+00  0.0000000000000D+00  0.0000000000000D+00
   243  2.4200000000000D+00  0.0000000000000D+00  0.0000000000000D+00
   244  2.4300000000000D+00  0.0000000000000D+00  0.0000000000000D+00
   245  2.4400000000000D+00  0.0000000000000D+00  0.0000000000000D+00
   246  2.4500000000000D+00  0.0000000000000D+00  0.0000000000000D+00
   247  2.4600000000000D+00  0.0000000000000D+00  0.0000000000000D+00
   248  2.4700000000000D+00  0.0000000000000D+00  0.0000000000000D+00
   249  2.4800000000000D+00  0.0000000000000D+00  0.0000000000000D+00
   250  2.4900000000000D+00  0.0000000000000D+00  0.0000000000000D+00
   251  2.5000000000000D+00  0.0000000000000D+00  0.0000000000000D+00
   252  2.5100000000000D+00  0.0000000000000D+00  0.0000000000000D+00
   253  2.5200000000000D+00  0.0000000000000D+00  0.0000000000000D+00
   254  2.5300000000000D+00  0.0000000000000D+00  0.0000000000000D+00
   255  2.5400000000000D+00  0.0000000000000D+00  0.0000000000000D+00
   256  2.5500000000000D+00  0.0000000000000D+00  0.0000000000000D+00
   257  2.5600000000000D+00  0.0000000000000D+00  0.0000000000000D+00
   258  2.5700000000000D+00  0.0000000000000D+00  0.0000000000000D+00
   259  2.5800000000000D+00  0.0000000000000D+00  0.0000000000000D+00
   260  2.5900000000000D+00  0.0000000000000D+00  0.0000000000000D+00
   261  2.6000000000000D+00  0.0000000000000D+00  0.0000000000000D+00
   262  2.6100000000000D+00  0.0000000000000D+00  0.0000000000000D+00
   263  2.6200000000000D+00  0.0000000000000D+00  0.0000000000000D+00
   264  2.6300000000000D+00  0.0000000000000D+00  0.0000000000000D+00
   265  2.6400000000000D+00  0.0000000000000D+00  0.0000000000000D+00
   266  2.6500000000000D+00  0.0000000000000D+00  0.0000000000000D+00
   267  2.6600000000000D+00  0.0000000000000D+00  0.0000000000000D+00
   268  2.6700000000000D+00  0.0000000000000D+00  0.0000000000000D+00
   269  2.6800000000000D+00  0.0000000000000D+00  0.0000000000000D+00
   270  2.6900000000000D+00  0.0000000000000D+00  0.0000000000000D+00
   271  2.7000000000000D+00  0.0000000000000D+00  0.0000000000000D+00
   272  2.7100000000000D+00  0.0000000000000D+00  0.0000000000000D+00
   273  2.7200000000000D+00  0.0000000000000D+00  0.0000000000000D+00
   274  2.7300000000000D+00  0.0000000000000D+00  0.0000000000000D+00
   275  2.7400000000000D+00  0.0000000000000D+00  0.0000000000000D+00
   276  2.7500000000000D+00  0.0000000000000D+00  0.0000000000000D+00
   277  2.7600000000000D+00  0.0000000000000D+00  0.0000000000000D+00
   278  2.7700000000000D+00  0.0000000000000D+00  0.0000000000000D+00
   279  2.7800000000000D+00  0.0000000000000D+00  0.0000000000000D+00
   280  2.7900000000000D+00  0.0000000000000D+00  0.0000000000000D+00
   281  2.8000000000000D+00  0.0000000000000D+00  0.0000000000000D+00
   282  2.8100000000000D+00  0.0000000000000D+00  0.0000000000000D+00
   283  2.8200000000000D+00  0.0000000000000D+00  0.0000000000000D+00
   284  2.8300000000000D+00  0.0000000000000D+00  0.0000000000000D+00
   285  2.8400000000000D+00  0.0000000000000D+00  0.0000000000000D+00
   286  2.8500000000000D+00  0.0000000000000D+00  0.0000000000000D+00
   287  2.8600000000000D+00  0.0000000000000D+00  0.0000000000000D+00
   288  2.8700000000000D+00  0.0000000000000D+00  0.0000000000000D+00
   289  2.8800000000000D+00  0.0000000000000D+00  0.0000000000000D+00
   290  2.8900000000000D+00  0.0000000000000D+00  0.0000000000000D+00
   291  2.9000000000000D+00  0.0000000000000D+00  0.0000000000000D+00
   292  2.9100000000000D+00  0.0000000000000D+00  0.0000000000000D+00
   293  2.9200000000000D+00  0.0000000000000D+00  0.0000000000000D+00
   294  2.9300000000000D+00  0.0000000000000D+00  0.0000000000000D+00
   295  2.9400000000000D+00  0.0000000000000D+00  0.0000000000000D+00
   296  2.9500000000000D+00  0.0000000000000D+00  0.0000000000000D+00
   297  2.9600000000000D+00  0.0000000000000D+00  0.0000000000000D+00
   298  2.9700000000000D+00  0.0000000000000D+00  0.0000000000000D+00
   299  2.9800000000000D+00  0.0000000000000D+00  0.0000000000000D+00
   300  2.9900000000000D+00  0.0000000000000D+00  0.0000000000000D+00
   301  3.0000000000000D+00  0.0000000000000D+00  0.0000000000000D+00
   302  3.0100000000000D+00  0.0000000000000D+00  0.0000000000000D+00
   303  3.0200000000000D+00  0.0000000000000D+00  0.0000000000000D+00
   304  3.0300000000000D+00  0.0000000000000D+00  0.0000000000000D+00
   305  3.0400000000000D+00  0.0000000000000D+00  0.0000000000000D+00
   306  3.0500000000000D+00  0.0000000000000D+00  0.0000000000000D+00
   307  3.0600000000000D+00  0.0000000000000D+00  0.0000000000000D+00
   308  3.0700000000000D+00  0.0000000000000D+00  0.0000000000000D+00
   309  3.0800000000000D+00  0.0000000000000D+00  0.0000000000000D+00
   310  3.0900000000000D+00  0.0000000000000D+00  0.0000000000000D+00
   311  3.1000000000000D+00  0.0000000000000D+00  0.0000000000000D+00
   312  3.1100000000000D+00  0.0000000000000D+00  0.0000000000000D+00
   313  3.1200000000000D+00  0.0000000000000D+00  0.0000000000000D+00
   314  3.1300000000000D+00  0.0000000000000D+00  0.0000000000000D+00
   315  3.1400000000000D+00  0.0000000000000D+00  0.0000000000000D+00
   316  3.1500000000000D+00  0.0000000000000D+00  0.0000000000000D+00
   317  3.1600000000000D+00  0.0000000000000D+00  0.0000000000000D+00
   318  3.1700000000000D+00  0.0000000000000D+00  0.0000000000000D+00
   319  3.1800000000000D+00  0.0000000000000D+00  0.0000000000000D+00
   320  3.1900000000000D+00  0.0000000000000D+00  0.0000000000000D+00
   321  3.2000000000000D+00  0.0000000000000D+00  0.0000000000000D+00
   322  3.2100000000000D+00  0.0000000000000D+00  0.0000000000000D+00
   323  3.2200000000000D+00  0.0000000000000D+00  0.0000000000000D+00
   324  3.2300000000000D+00  0.0000000000000D+00  0.0000000000000D+00
   325  3.2400000000000D+00  0.0000000000000D+00  0.0000000000000D+00
   326  3.2500000000000D+00  0.0000000000000D+00  0.0000000000000D+00
   327  3.2600000000000D+00  0.0000000000000D+00  0.0000000000000D+00
   328  3.2700000000000D+00  0.0000000000000D+00  0.0000000000000D+00
   329  3.2800000000000D+00  0.0000000000000D+00  0.0000000000000D+00
   330  3.2900000000000D+00  0.0000000000000D+00  0.0000000000000D+00
   331  3.3000000000000D+00  0.0000000000000D+00  0.0000000000000D+00
   332  3.3100000000000D+00  0.0000000000000D+00  0.0000000000000D+00
   333  3.3200000000000D+00  0.0000000000000D+00  0.0000000000000D+00
   334  3.3300000000000D+00  0.0000000000000D+00  0.0000000000000D+00
   335  3.3400000000000D+00  0.0000000000000D+00  0.0000000000000D+00
   336  3.3500000000000D+00  0.0000000000000D+00  0.0000000000000D+00
   337  3.3600000000000D+00  0.0000000000000D+00  0.0000000000000D+00
   338  3.3700000000000D+00  0.0000000000000D+00  0.0000000000000D+00
   339  3.3800000000000D+00  0.0000000000000D+00  0.0000000000000D+00
   340  3.3900000000000D+00  0.0000000000000D+00  0.0000000000000D+00
   341  3.4000000000000D+00  0.0000000000000D+00  0.0000000000000D+00
   342  3.4100000000000D+00  0.0000000000000D+00  0.0000000000000D+00
   343  3.4200000000000D+00  0.0000000000000D+00  0.0000000000000D+00
   344  3.4300000000000D+00  0.0000000000000D+00  0.0000000000000D+00
   345  3.4400000000000D+00  0.0000000000000D+00  0.0000000000000D+00
   346  3.4500000000000D+00  0.0000000000000D+00  0.0000000000000D+00
   347  3.4600000000000D+00  0.0000000000000D+00  0.0000000000000D+00
   348  3.4700000000000D+00  0.0000000000000D+00  0.0000000000000D+00
   349  3.4800000000000D+00  0.0000000000000D+00  0.0000000000000D+00
   350  3.4900000000000D+00  0.0000000000000D+00  0.0000000000000D+00
   351  3.5000000000000D+00  0.0000000000000D+00  0.0000000000000D+00
   352  3.5100000000000D+00  0.0000000000000D+00  0.0000000000000D+00
   353  3.5200000000000D+00  0.0000000000000D+00  0.0000000000000D+00
   354  3.5300000000000D+00  0.0000000000000D+00  0.0000000000000D+00
   355  3.5400000000000D+00  0.0000000000000D+00  0.0000000000000D+00
   356  3.5500000000000D+00  0.0000000000000D+00  0.0000000000000D+00
   357  3.5600000000000D+00  0.0000000000000D+00  0.0000000000000D+00
   358  3.5700000000000D+00  0.0000000000000D+00  0.0000000000000D+00
   359  3.5800000000000D+00  0.0000000000000D+00  0.0000000000000D+00
   360  3.5900000000000D+00  0.0000000000000D+00  0.0000000000000D+00
   361  3.6000000000000D+00  0.0000000000000D+00  0.0000000000000D+00
   362  3.6100000000000D+00  0.0000000000000D+00  0.0000000000000D+00
   363  3.6200000000000D+00  0.0000000000000D+00  0.0000000000000D+00
   364  3.6300000000000D+00  0.0000000000000D+00  0.0000000000000D+00
   365  3.6400000000000D+00  0.0000000000000D+00  0.0000000000000D+00
   366  3.6500000000000D+00  0.0000000000000D+00  0.0000000000000D+00
   367  3.6600000000000D+00  0.0000000000000D+00  0.0000000000000D+00
   368  3.6700000000000D+00  0.0000000000000D+00  0.0000000000000D+00
   369  3.6800000000000D+00  0.0000000000000D+00  0.0000000000000D+00
   370  3.6900000000000D+00  0.0000000000000D+00  0.0000000000000D+00
   371  3.7000000000000D+00  0.0000000000000D+00  0.0000000000000D+00
   372  3.7100000000000D+00  0.0000000000000D+00  0.0000000000000D+00
   373  3.7200000000000D+00  0.0000000000000D+00  0.0000000000000D+00
   374  3.7300000000000D+00  0.0000000000000D+00  0.0000000000000D+00
   375  3.7400000000000D+00  0.0000000000000D+00  0.0000000000000D+00
   376  3.7500000000000D+00  0.0000000000000D+00  0.0000000000000D+00
   377  3.7600000000000D+00  0.0000000000000D+00  0.0000000000000D+00
   378  3.7700000000000D+00  0.0000000000000D+00  0.0000000000000D+00
   379  3.7800000000000D+00  0.0000000000000D+00  0.0000000000000D+00
   380  3.7900000000000D+00  0.0000000000000D+00  0.0000000000000D+00
   381  3.8000000000000D+00  0.0000000000000D+00  0.0000000000000D+00
   382  3.8100000000000D+00  0.0000000000000D+00  0.0000000000000D+00
   383  3.8200000000000D+00  0.0000000000000D+00  0.0000000000000D+00
   384  3.8300000000000D+00  0.0000000000000D+00  0.0000000000000D+00
   385  3.8400000000000D+00  0.0000000000000D+00  0.0000000000000D+00
   386  3.8500000000000D+00  0.0000000000000D+00  0.0000000000000D+00
   387  3.8600000000000D+00  0.0000000000000D+00  0.0000000000000D+00
   388  3.8700000000000D+00  0.0000000000000D+00  0.0000000000000D+00
   389  3.8800000000000D+00  0.0000000000000D+00  0.0000000000000D+00
   390  3.8900000000000D+00  0.0000000000000D+00  0.0000000000000D+00
   391  3.9000000000000D+00  0.0000000000000D+00  0.0000000000000D+00
   392  3.9100000000000D+00  0.0000000000000D+00  0.0000000000000D+00
   393  3.9200000000000D+00  0.0000000000000D+00  0.0000000000000D+00
   394  3.9300000000000D+00  0.0000000000000D+00  0.0000000000000D+00
   395  3.9400000000000D+00  0.0000000000000D+00  0.0000000000000D+00
   396  3.9500000000000D+00  0.0000000000000D+00  0.0000000000000D+00
   397  3.9600000000000D+00  0.0000000000000D+00  0.0000000000000D+00
   398  3.9700000000000D+00  0.0000000000000D+00  0.0000000000000D+00
   399  3.9800000000000D+00  0.0000000000000D+00  0.0000000000000D+00
   400  3.9900000000000D+00  0.0000000000000D+00  0.0000000000000D+00
   401  4.0000000000000D+00  0.0000000000000D+00  0.0000000000000D+00
   402  4.0100000000000D+00  0.0000000000000D+00  0.0000000000000D+00
   403  4.0200000000000D+00  0.0000000000000D+00  0.0000000000000D+00
   404  4.0300000000000D+00  0.0000000000000D+00  0.0000000000000D+00
   405  4.0400000000000D+00  0.0000000000000D+00  0.0000000000000D+00
   406  4.0500000000000D+00  0.0000000000000D+00  0.0000000000000D+00
   407  4.0600000000000D+00  0.0000000000000D+00  0.0000000000000D+00
   408  4.0700000000000D+00  0.0000000000000D+00  0.0000000000000D+00
   409  4.0800000000000D+00  0.0000000000000D+00  0.0000000000000D+00
   410  4.0900000000000D+00  0.0000000000000D+00  0.0000000000000D+00
   411  4.1000000000000D+00  0.0000000000000D+00  0.0000000000000D+00
   412  4.1100000000000D+00  0.0000000000000D+00  0.0000000000000D+00
   413  4.1200000000000D+00  0.0000000000000D+00  0.0000000000000D+00
   414  4.1300000000000D+00  0.0000000000000D+00  0.0000000000000D+00
   415  4.1400000000000D+00  0.0000000000000D+00  0.0000000000000D+00
   416  4.1500000000000D+00  0.0000000000000D+00  0.0000000000000D+00
   417  4.1600000000000D+00  0.0000000000000D+00  0.0000000000000D+00
   418  4.1700000000000D+00  0.0000000000000D+00  0.0000000000000D+00
   419  4.1800000000000D+00  0.0000000000000D+00  0.0000000000000D+00
   420  4.1900000000000D+00  0.0000000000000D+00  0.0000000000000D+00
   421  4.2000000000000D+00  0.0000000000000D+00  0.0000000000000D+00
   422  4.2100000000000D+00  0.0000000000000D+00  0.0000000000000D+00