O     ONCVPSP-3.3.1  r_core=   1.29195   1.47310
      8.0000      6.0000      210904    zatom,zion,pspd
     8      11   1     4   600     0    pspcod,pspxc,lmax,lloc,mmax,r2well
  5.99000000  0.00000000  0.00000000    rchrg fchrg qchrg
     2     2     0     0    nproj
     3     1           extension_switch
     3     0     0    nprojso
   0                         1.4031015478060D+00  9.8451572473462D+00
     1  0.0000000000000D+00 -9.9470229830700D-09  2.8612215929869D-09
     2  1.0000000000000D-02 -5.9603560552622D-03  8.9551104097680D-02
     3  2.0000000000000D-02 -1.2171361203455D-02  1.7895921101046D-01
     4  3.0000000000000D-02 -1.8875788796999D-02  2.6807960213790D-01
     5  4.0000000000000D-02 -2.6300812165785D-02  3.5676415907979D-01
     6  5.0000000000000D-02 -3.4650580660992D-02  4.4485977057003D-01
     7  6.0000000000000D-02 -4.4099239751886D-02  5.3220686553789D-01
     8  7.0000000000000D-02 -5.4784531297394D-02  6.1863811091945D-01
     9  8.0000000000000D-02 -6.6802100167247D-02  7.0397730998060D-01
    10  9.0000000000000D-02 -8.0200621261367D-02  7.8803853342315D-01
    11  1.0000000000000D-01 -9.4977846868730D-02  8.7062551148186D-01
    12  1.1000000000000D-01 -1.1107765844866D-01  9.5153131064860D-01
    13  1.2000000000000D-01 -1.2838818956835D-01  1.0305383136524D+00
    14  1.3000000000000D-01 -1.4674106817465D-01  1.1074185159621D+00
    15  1.4000000000000D-01 -1.6591180692171D-01  1.1819341464476D+00
    16  1.5000000000000D-01 -1.8562135023843D-01  1.2538386140253D+00
    17  1.6000000000000D-01 -2.0553876653478D-01  1.3228777762220D+00
    18  1.7000000000000D-01 -2.2528505374756D-01  1.3887915197088D+00
    19  1.8000000000000D-01 -2.4443800665399D-01  1.4513156370818D+00
    20  1.9000000000000D-01 -2.6253807536517D-01  1.5101839785970D+00
    21  2.0000000000000D-01 -2.7909512647121D-01  1.5651308522866D+00
    22  2.1000000000000D-01 -2.9359600175173D-01  1.6158936409918D+00
    23  2.2000000000000D-01 -3.0551275447067D-01  1.6622156004119D+00
    24  2.3000000000000D-01 -3.1431143030158D-01  1.7038487983826D+00
    25  2.4000000000000D-01 -3.1946124910582D-01  1.7405571523072D+00
    26  2.5000000000000D-01 -3.2044403530326D-01  1.7721195190474D+00
    27  2.6000000000000D-01 -3.1676373859098D-01  1.7983327896680D+00
    28  2.7000000000000D-01 -3.0795588339236D-01  1.8190149402728D+00
    29  2.8000000000000D-01 -2.9359678473247D-01  1.8340079897802D+00
    30  2.9000000000000D-01 -2.7331237026246D-01  1.8431808158866D+00
    31  3.0000000000000D-01 -2.4678645288076D-01  1.8464317816486D+00
    32  3.1000000000000D-01 -2.1376830576094D-01  1.8436911270765D+00
    33  3.2000000000000D-01 -1.7407940148999D-01  1.8349230828332D+00
    34  3.3000000000000D-01 -1.2761918929836D-01  1.8201276665545D+00
    35  3.4000000000000D-01 -7.4369798836093D-02  1.7993421263832D+00
    36  3.5000000000000D-01 -1.4399575389914D-02  1.7726420009951D+00
    37  3.6000000000000D-01  5.2134630414739D-02  1.7401417706073D+00
    38  3.7000000000000D-01  1.2498647582020D-01  1.7019950791309D+00
    39  3.8000000000000D-01  2.0382047878030D-01  1.6583945136648D+00
    40  3.9000000000000D-01  2.8821372574865D-01  1.6095709338414D+00
    41  4.0000000000000D-01  3.7765892788627D-01  1.5557923500163D+00
    42  4.1000000000000D-01  4.7156879728522D-01  1.4973623558630D+00
    43  4.2000000000000D-01  5.6928169324731D-01  1.4346181274595D+00
    44  4.3000000000000D-01  6.7006846777843D-01  1.3679280073614D+00
    45  4.4000000000000D-01  7.7314041961514D-01  1.2976886983171D+00
    46  4.5000000000000D-01  8.7765824762774D-01  1.2243220971223D+00
    47  4.6000000000000D-01  9.8274187765774D-01  1.1482718045167D+00
    48  4.7000000000000D-01  1.0874810220387D+00  1.0699993519243D+00
    49  4.8000000000000D-01  1.1909463184734D+00  9.8998019014632D-01
    50  4.9000000000000D-01  1.2922008848189D+00  9.0869948875791D-01
    51  5.0000000000000D-01  1.3903121188396D+00  8.2664779788804D-01
    52  5.1000000000000D-01  1.4843635672731D+00  7.4431662621684D-01
    53  5.2000000000000D-01  1.5734666866827D+00  6.6219399038252D-01
    54  5.3000000000000D-01  1.6567723196095D+00  5.8075999151992D-01
    55  5.4000000000000D-01  1.7334817134473D+00  5.0048247435315D-01
    56  5.5000000000000D-01  1.8028569162102D+00  4.2181282313688D-01
    57  5.6000000000000D-01  1.8642303928221D+00  3.4518194680468D-01
    58  5.7000000000000D-01  1.9170137175547D+00  2.7099650297672D-01
    59  5.8000000000000D-01  1.9607052126464D+00  1.9963540703123D-01
    60  5.9000000000000D-01  1.9948964195584D+00  1.3144666834493D-01
    61  6.0000000000000D-01  2.0192773077004D+00  6.6744591076100D-02
    62  6.1000000000000D-01  2.0336401452148D+00  5.8073716412323D-03
    63  6.2000000000000D-01  2.0378819774440D+00 -5.1124880653573D-02
    64  6.3000000000000D-01  2.0320056805086D+00 -1.0385167938449D-01
    65  6.4000000000000D-01  2.0161195795967D+00 -1.5221323899081D-01
    66  6.5000000000000D-01  1.9904356439286D+00 -1.9609108719759D-01
    67  6.6000000000000D-01  1.9552662922144D+00 -2.3540821052787D-01
    68  6.7000000000000D-01  1.9110198636317D+00 -2.7012873791588D-01
    69  6.8000000000000D-01  1.8581948294931D+00 -3.0025717363212D-01
    70  6.9000000000000D-01  1.7973728394038D+00 -3.2583719663181D-01
    71  7.0000000000000D-01  1.7292107125601D+00 -3.4695004896343D-01
    72  7.1000000000000D-01  1.6544314997302D+00 -3.6371254097137D-01
    73  7.2000000000000D-01  1.5738147539209D+00 -3.7627470554955D-01
    74  7.3000000000000D-01  1.4881861577243D+00 -3.8481713763266D-01
    75  7.4000000000000D-01  1.3984066626238D+00 -3.8954805837396D-01
    76  7.5000000000000D-01  1.3053613000089D+00 -3.9070014599726D-01
    77  7.6000000000000D-01  1.2099478252581D+00 -3.8852717712061D-01
    78  7.7000000000000D-01  1.1130653549474D+00 -3.8330052337250D-01
    79  7.8000000000000D-01  1.0156031531112D+00 -3.7530554838511D-01
    80  7.9000000000000D-01  9.1842971559189D-01 -3.6483794974343D-01
    81  8.0000000000000D-01  8.2238229201457D-01 -3.5220008922184D-01
    82  8.1000000000000D-01  7.2825697300249D-01 -3.3769735268271D-01
    83  8.2000000000000D-01  6.3679945614913D-01 -3.2163457839366D-01
    84  8.3000000000000D-01  5.4869658825144D-01 -3.0431258929837D-01
    85  8.4000000000000D-01  4.6456876370177D-01 -2.8602486101921D-01
    86  8.5000000000000D-01  3.8496324006791D-01 -2.6705435315527D-01
    87  8.6000000000000D-01  3.1034841212417D-01 -2.4767052685224D-01
    88  8.7000000000000D-01  2.4110906530440D-01 -2.2812656675000D-01
    89  8.8000000000000D-01  1.7754260911475D-01 -2.0865682035486D-01
    90  8.9000000000000D-01  1.1985626774471D-01 -1.8947446205650D-01
    91  9.0000000000000D-01  6.8165187329986D-02 -1.7076938394841D-01
    92  9.1000000000000D-01  2.2491612085161D-02 -1.5270635884235D-01
    93  9.2000000000000D-01 -1.7236081769772D-02 -1.3542321632745D-01
    94  9.3000000000000D-01 -5.1173206943233D-02 -1.1903151494098D-01
    95  9.4000000000000D-01 -7.9539406871571D-02 -1.0361958167413D-01
    96  9.5000000000000D-01 -1.0260564705015D-01 -8.9254604786712D-02
    97  9.6000000000000D-01 -1.2068831938967D-01 -7.5983393167479D-02
    98  9.7000000000000D-01 -1.3414181500991D-01 -6.3833579231763D-02
    99  9.8000000000000D-01 -1.4335103107914D-01 -5.2814966491320D-02
   100  9.9000000000000D-01 -1.4872373440449D-01 -4.2921031989129D-02
   101  1.0000000000000D+00 -1.5068291702096D-01 -3.4130551658339D-02
   102  1.0100000000000D+00 -1.4965928317784D-01 -2.6409314291825D-02
   103  1.0200000000000D+00 -1.4608399658407D-01 -1.9711891061650D-02
   104  1.0300000000000D+00 -1.4038180826881D-01 -1.3983428427275D-02
   105  1.0400000000000D+00 -1.3296467496585D-01 -9.1614337150803D-03
   106  1.0500000000000D+00 -1.2422596481201D-01 -5.1775247563728D-03
   107  1.0600000000000D+00 -1.1453533494561D-01 -1.9591170492225D-03
   108  1.0700000000000D+00 -1.0423434808253D-01  5.6897486816531D-04
   109  1.0800000000000D+00 -9.3632880366884D-02  2.4830422886323D-03
   110  1.0900000000000D+00 -8.3006355351832D-02  3.8591104415007D-03
   111  1.1000000000000D+00 -7.2593820849770D-02  4.7717030734110D-03
   112  1.1100000000000D+00 -6.2596870765115D-02  5.2927536833153D-03
   113  1.1200000000000D+00 -5.3179393269350D-02  5.4906690874185D-03
   114  1.1300000000000D+00 -4.4468113251488D-02  5.4295479923225D-03
   115  1.1400000000000D+00 -3.6553879436185D-02  5.1685532522045D-03
   116  1.1500000000000D+00 -2.9493635798209D-02  4.7614340011320D-03
   117  1.1600000000000D+00 -2.3312999960001D-02  4.2561897778532D-03
   118  1.1700000000000D+00 -1.8009363286520D-02  3.6948667208502D-03
   119  1.1800000000000D+00 -1.3555417635851D-02  3.1134733112455D-03
   120  1.1900000000000D+00 -9.9030076830699D-03  2.5420015463823D-03
   121  1.2000000000000D+00 -6.9872009612522D-03  2.0045372350932D-03
   122  1.2100000000000D+00 -4.7304680984339D-03  1.5194427318934D-03
   123  1.2200000000000D+00 -3.0468642722346D-03  1.0995946681322D-03
   124  1.2300000000000D+00 -1.8461042953073D-03  7.5265884259778D-04
   125  1.2400000000000D+00 -1.0374307629320D-03  4.8138530696016D-04
   126  1.2500000000000D+00 -5.3328608324328D-04  2.8395610680301D-04
   127  1.2600000000000D+00 -2.5201901211482D-04  1.5405764438327D-04
   128  1.2700000000000D+00 -1.1965754811052D-04  8.0518211823452D-05
   129  1.2800000000000D+00 -8.4535593842348D-05  5.4871915899423D-05
   130  1.2900000000000D+00 -8.4189482297238D-05  5.0993331827572D-05
   131  1.3000000000000D+00 -4.0589057141176D-05  2.4006849805414D-05
   132  1.3100000000000D+00  5.6364789981914D-06 -3.3113075226369D-06
   133  1.3200000000000D+00  4.3275831120749D-06 -2.5287357844517D-06
   134  1.3300000000000D+00 -1.9151965187344D-06  1.1361995318349D-06
   135  1.3400000000000D+00  5.1437350272695D-08 -3.0948349124955D-08
   136  1.3500000000000D+00  1.8506892611415D-07 -1.1135055960691D-07
   137  1.3600000000000D+00  0.0000000000000D+00  0.0000000000000D+00
   138  1.3700000000000D+00  0.0000000000000D+00  0.0000000000000D+00
   139  1.3800000000000D+00  0.0000000000000D+00  0.0000000000000D+00
   140  1.3900000000000D+00  0.0000000000000D+00  0.0000000000000D+00
   141  1.4000000000000D+00  0.0000000000000D+00  0.0000000000000D+00
   142  1.4100000000000D+00  0.0000000000000D+00  0.0000000000000D+00
   143  1.4200000000000D+00  0.0000000000000D+00  0.0000000000000D+00
   144  1.4300000000000D+00  0.0000000000000D+00  0.0000000000000D+00
   145  1.4400000000000D+00  0.0000000000000D+00  0.0000000000000D+00
   146  1.4500000000000D+00  0.0000000000000D+00  0.0000000000000D+00
   147  1.4600000000000D+00  0.0000000000000D+00  0.0000000000000D+00
   148  1.4700000000000D+00  0.0000000000000D+00  0.0000000000000D+00
   149  1.4800000000000D+00  0.0000000000000D+00  0.0000000000000D+00
   150  1.4900000000000D+00  0.0000000000000D+00  0.0000000000000D+00
   151  1.5000000000000D+00  0.0000000000000D+00  0.0000000000000D+00
   152  1.5100000000000D+00  0.0000000000000D+00  0.0000000000000D+00
   153  1.5200000000000D+00  0.0000000000000D+00  0.0000000000000D+00
   154  1.5300000000000D+00  0.0000000000000D+00  0.0000000000000D+00
   155  1.5400000000000D+00  0.0000000000000D+00  0.0000000000000D+00
   156  1.5500000000000D+00  0.0000000000000D+00  0.0000000000000D+00
   157  1.5600000000000D+00  0.0000000000000D+00  0.0000000000000D+00
   158  1.5700000000000D+00  0.0000000000000D+00  0.0000000000000D+00
   159  1.5800000000000D+00  0.0000000000000D+00  0.0000000000000D+00
   160  1.5900000000000D+00  0.0000000000000D+00  0.0000000000000D+00
   161  1.6000000000000D+00  0.0000000000000D+00  0.0000000000000D+00
   162  1.6100000000000D+00  0.0000000000000D+00  0.0000000000000D+00
   163  1.6200000000000D+00  0.0000000000000D+00  0.0000000000000D+00
   164  1.6300000000000D+00  0.0000000000000D+00  0.0000000000000D+00
   165  1.6400000000000D+00  0.0000000000000D+00  0.0000000000000D+00
   166  1.6500000000000D+00  0.0000000000000D+00  0.0000000000000D+00
   167  1.6600000000000D+00  0.0000000000000D+00  0.0000000000000D+00
   168  1.6700000000000D+00  0.0000000000000D+00  0.0000000000000D+00
   169  1.6800000000000D+00  0.0000000000000D+00  0.0000000000000D+00
   170  1.6900000000000D+00  0.0000000000000D+00  0.0000000000000D+00
   171  1.7000000000000D+00  0.0000000000000D+00  0.0000000000000D+00
   172  1.7100000000000D+00  0.0000000000000D+00  0.0000000000000D+00
   173  1.7200000000000D+00  0.0000000000000D+00  0.0000000000000D+00
   174  1.7300000000000D+00  0.0000000000000D+00  0.0000000000000D+00
   175  1.7400000000000D+00  0.0000000000000D+00  0.0000000000000D+00
   176  1.7500000000000D+00  0.0000000000000D+00  0.0000000000000D+00
   177  1.7600000000000D+00  0.0000000000000D+00  0.0000000000000D+00
   178  1.7700000000000D+00  0.0000000000000D+00  0.0000000000000D+00
   179  1.7800000000000D+00  0.0000000000000D+00  0.0000000000000D+00
   180  1.7900000000000D+00  0.0000000000000D+00  0.0000000000000D+00
   181  1.8000000000000D+00  0.0000000000000D+00  0.0000000000000D+00
   182  1.8100000000000D+00  0.0000000000000D+00  0.0000000000000D+00
   183  1.8200000000000D+00  0.0000000000000D+00  0.0000000000000D+00
   184  1.8300000000000D+00  0.0000000000000D+00  0.0000000000000D+00
   185  1.8400000000000D+00  0.0000000000000D+00  0.0000000000000D+00
   186  1.8500000000000D+00  0.0000000000000D+00  0.0000000000000D+00
   187  1.8600000000000D+00  0.0000000000000D+00  0.0000000000000D+00
   188  1.8700000000000D+00  0.0000000000000D+00  0.0000000000000D+00
   189  1.8800000000000D+00  0.0000000000000D+00  0.0000000000000D+00
   190  1.8900000000000D+00  0.0000000000000D+00  0.0000000000000D+00
   191  1.9000000000000D+00  0.0000000000000D+00  0.0000000000000D+00
   192  1.9100000000000D+00  0.0000000000000D+00  0.0000000000000D+00
   193  1.9200000000000D+00  0.0000000000000D+00  0.0000000000000D+00
   194  1.9300000000000D+00  0.0000000000000D+00  0.0000000000000D+00
   195  1.9400000000000D+00  0.0000000000000D+00  0.0000000000000D+00
   196  1.9500000000000D+00  0.0000000000000D+00  0.0000000000000D+00
   197  1.9600000000000D+00  0.0000000000000D+00  0.0000000000000D+00
   198  1.9700000000000D+00  0.0000000000000D+00  0.0000000000000D+00
   199  1.9800000000000D+00  0.0000000000000D+00  0.0000000000000D+00
   200  1.9900000000000D+00  0.0000000000000D+00  0.0000000000000D+00
   201  2.0000000000000D+00  0.0000000000000D+00  0.0000000000000D+00
   202  2.0100000000000D+00  0.0000000000000D+00  0.0000000000000D+00
   203  2.0200000000000D+00  0.0000000000000D+00  0.0000000000000D+00
   204  2.0300000000000D+00  0.0000000000000D+00  0.0000000000000D+00
   205  2.0400000000000D+00  0.0000000000000D+00  0.0000000000000D+00
   206  2.0500000000000D+00  0.0000000000000D+00  0.0000000000000D+00
   207  2.0600000000000D+00  0.0000000000000D+00  0.0000000000000D+00
   208  2.0700000000000D+00  0.0000000000000D+00  0.0000000000000D+00
   209  2.0800000000000D+00  0.0000000000000D+00  0.0000000000000D+00
   210  2.0900000000000D+00  0.0000000000000D+00  0.0000000000000D+00
   211  2.1000000000000D+00  0.0000000000000D+00  0.0000000000000D+00
   212  2.1100000000000D+00  0.0000000000000D+00  0.0000000000000D+00
   213  2.1200000000000D+00  0.0000000000000D+00  0.0000000000000D+00
   214  2.1300000000000D+00  0.0000000000000D+00  0.0000000000000D+00
   215  2.1400000000000D+00  0.0000000000000D+00  0.0000000000000D+00
   216  2.1500000000000D+00  0.0000000000000D+00  0.0000000000000D+00
   217  2.1600000000000D+00  0.0000000000000D+00  0.0000000000000D+00
   218  2.1700000000000D+00  0.0000000000000D+00  0.0000000000000D+00
   219  2.1800000000000D+00  0.0000000000000D+00  0.0000000000000D+00
   220  2.1900000000000D+00  0.0000000000000D+00  0.0000000000000D+00
   221  2.2000000000000D+00  0.0000000000000D+00  0.0000000000000D+00
   222  2.2100000000000D+00  0.0000000000000D+00  0.0000000000000D+00
   223  2.2200000000000D+00  0.0000000000000D+00  0.0000000000000D+00
   224  2.2300000000000D+00  0.0000000000000D+00  0.0000000000000D+00
   225  2.2400000000000D+00  0.0000000000000D+00  0.0000000000000D+00
   226  2.2500000000000D+00  0.0000000000000D+00  0.0000000000000D+00
   227  2.2600000000000D+00  0.0000000000000D+00  0.0000000000000D+00
   228  2.2700000000000D+00  0.0000000000000D+00  0.0000000000000D+00
   229  2.2800000000000D+00  0.0000000000000D+00  0.0000000000000D+00
   230  2.2900000000000D+00  0.0000000000000D+00  0.0000000000000D+00
   231  2.3000000000000D+00  0.0000000000000D+00  0.0000000000000D+00
   232  2.3100000000000D+00  0.0000000000000D+00  0.0000000000000D+00
   233  2.3200000000000D+00  0.0000000000000D+00  0.0000000000000D+00
   234  2.3300000000000D+00  0.0000000000000D+00  0.0000000000000D+00
   235  2.3400000000000D+00  0.0000000000000D+00  0.0000000000000D+00
   236  2.3500000000000D+00  0.0000000000000D+00  0.0000000000000D+00
   237  2.3600000000000D+00  0.0000000000000D+00  0.0000000000000D+00
   238  2.3700000000000D+00  0.0000000000000D+00  0.0000000000000D+00
   239  2.3800000000000D+00  0.0000000000000D+00  0.0000000000000D+00
   240  2.3900000000000D+00  0.0000000000000D+00  0.0000000000000D+00
   241  2.4000000000000D+00  0.0000000000000D+00  0.0000000000000D+00
   242  2.4100000000000D+00  0.0000000000000D+00  0.0000000000000D+00
   243  2.4200000000000D+00  0.0000000000000D+00  0.0000000000000D+00
   244  2.4300000000000D+00  0.0000000000000D+00  0.0000000000000D+00
   245  2.4400000000000D+00  0.0000000000000D+00  0.0000000000000D+00
   246  2.4500000000000D+00  0.0000000000000D+00  0.0000000000000D+00
   247  2.4600000000000D+00  0.0000000000000D+00  0.0000000000000D+00
   248  2.4700000000000D+00  0.0000000000000D+00  0.0000000000000D+00
   249  2.4800000000000D+00  0.0000000000000D+00  0.0000000000000D+00
   250  2.4900000000000D+00  0.0000000000000D+00  0.0000000000000D+00
   251  2.5000000000000D+00  0.0000000000000D+00  0.0000000000000D+00
   252  2.5100000000000D+00  0.0000000000000D+00  0.0000000000000D+00
   253  2.5200000000000D+00  0.0000000000000D+00  0.0000000000000D+00
   254  2.5300000000000D+00  0.0000000000000D+00  0.0000000000000D+00
   255  2.5400000000000D+00  0.0000000000000D+00  0.0000000000000D+00
   256  2.5500000000000D+00  0.0000000000000D+00  0.0000000000000D+00
   257  2.5600000000000D+00  0.0000000000000D+00  0.0000000000000D+00
   258  2.5700000000000D+00  0.0000000000000D+00  0.0000000000000D+00
   259  2.5800000000000D+00  0.0000000000000D+00  0.0000000000000D+00
   260  2.5900000000000D+00  0.0000000000000D+00  0.0000000000000D+00
   261  2.6000000000000D+00  0.0000000000000D+00  0.0000000000000D+00
   262  2.6100000000000D+00  0.0000000000000D+00  0.0000000000000D+00
   263  2.6200000000000D+00  0.0000000000000D+00  0.0000000000000D+00
   264  2.6300000000000D+00  0.0000000000000D+00  0.0000000000000D+00
   265  2.6400000000000D+00  0.0000000000000D+00  0.0000000000000D+00
   266  2.6500000000000D+00  0.0000000000000D+00  0.0000000000000D+00
   267  2.6600000000000D+00  0.0000000000000D+00  0.0000000000000D+00
   268  2.6700000000000D+00  0.0000000000000D+00  0.0000000000000D+00
   269  2.6800000000000D+00  0.0000000000000D+00  0.0000000000000D+00
   270  2.6900000000000D+00  0.0000000000000D+00  0.0000000000000D+00
   271  2.7000000000000D+00  0.0000000000000D+00  0.0000000000000D+00
   272  2.7100000000000D+00  0.0000000000000D+00  0.0000000000000D+00
   273  2.7200000000000D+00  0.0000000000000D+00  0.0000000000000D+00
   274  2.7300000000000D+00  0.0000000000000D+00  0.0000000000000D+00
   275  2.7400000000000D+00  0.0000000000000D+00  0.0000000000000D+00
   276  2.7500000000000D+00  0.0000000000000D+00  0.0000000000000D+00
   277  2.7600000000000D+00  0.0000000000000D+00  0.0000000000000D+00
   278  2.7700000000000D+00  0.0000000000000D+00  0.0000000000000D+00
   279  2.7800000000000D+00  0.0000000000000D+00  0.0000000000000D+00
   280  2.7900000000000D+00  0.0000000000000D+00  0.0000000000000D+00
   281  2.8000000000000D+00  0.0000000000000D+00  0.0000000000000D+00
   282  2.8100000000000D+00  0.0000000000000D+00  0.0000000000000D+00
   283  2.8200000000000D+00  0.0000000000000D+00  0.0000000000000D+00
   284  2.8300000000000D+00  0.0000000000000D+00  0.0000000000000D+00
   285  2.8400000000000D+00  0.0000000000000D+00  0.0000000000000D+00
   286  2.8500000000000D+00  0.0000000000000D+00  0.0000000000000D+00
   287  2.8600000000000D+00  0.0000000000000D+00  0.0000000000000D+00
   288  2.8700000000000D+00  0.0000000000000D+00  0.0000000000000D+00
   289  2.8800000000000D+00  0.0000000000000D+00  0.0000000000000D+00
   290  2.8900000000000D+00  0.0000000000000D+00  0.0000000000000D+00
   291  2.9000000000000D+00  0.0000000000000D+00  0.0000000000000D+00
   292  2.9100000000000D+00  0.0000000000000D+00  0.0000000000000D+00
   293  2.9200000000000D+00  0.0000000000000D+00  0.0000000000000D+00
   294  2.9300000000000D+00  0.0000000000000D+00  0.0000000000000D+00
   295  2.9400000000000D+00  0.0000000000000D+00  0.0000000000000D+00
   296  2.9500000000000D+00  0.0000000000000D+00  0.0000000000000D+00
   297  2.9600000000000D+00  0.0000000000000D+00  0.0000000000000D+00
   298  2.9700000000000D+00  0.0000000000000D+00  0.0000000000000D+00
   299  2.9800000000000D+00  0.0000000000000D+00  0.0000000000000D+00
   300  2.9900000000000D+00  0.0000000000000D+00  0.0000000000000D+00
   301  3.0000000000000D+00  0.0000000000000D+00  0.0000000000000D+00
   302  3.0100000000000D+00  0.0000000000000D+00  0.0000000000000D+00
   303  3.0200000000000D+00  0.0000000000000D+00  0.0000000000000D+00
   304  3.0300000000000D+00  0.0000000000000D+00  0.0000000000000D+00
   305  3.0400000000000D+00  0.0000000000000D+00  0.0000000000000D+00
   306  3.0500000000000D+00  0.0000000000000D+00  0.0000000000000D+00
   307  3.0600000000000D+00  0.0000000000000D+00  0.0000000000000D+00
   308  3.0700000000000D+00  0.0000000000000D+00  0.0000000000000D+00
   309  3.0800000000000D+00  0.0000000000000D+00  0.0000000000000D+00
   310  3.0900000000000D+00  0.0000000000000D+00  0.0000000000000D+00
   311  3.1000000000000D+00  0.0000000000000D+00  0.0000000000000D+00
   312  3.1100000000000D+00  0.0000000000000D+00  0.0000000000000D+00
   313  3.1200000000000D+00  0.0000000000000D+00  0.0000000000000D+00
   314  3.1300000000000D+00  0.0000000000000D+00  0.0000000000000D+00
   315  3.1400000000000D+00  0.0000000000000D+00  0.0000000000000D+00
   316  3.1500000000000D+00  0.0000000000000D+00  0.0000000000000D+00
   317  3.1600000000000D+00  0.0000000000000D+00  0.0000000000000D+00
   318  3.1700000000000D+00  0.0000000000000D+00  0.0000000000000D+00
   319  3.1800000000000D+00  0.0000000000000D+00  0.0000000000000D+00
   320  3.1900000000000D+00  0.0000000000000D+00  0.0000000000000D+00
   321  3.2000000000000D+00  0.0000000000000D+00  0.0000000000000D+00
   322  3.2100000000000D+00  0.0000000000000D+00  0.0000000000000D+00
   323  3.2200000000000D+00  0.0000000000000D+00  0.0000000000000D+00
   324  3.2300000000000D+00  0.0000000000000D+00  0.0000000000000D+00
   325  3.2400000000000D+00  0.0000000000000D+00  0.0000000000000D+00
   326  3.2500000000000D+00  0.0000000000000D+00  0.0000000000000D+00
   327  3.2600000000000D+00  0.0000000000000D+00  0.0000000000000D+00
   328  3.2700000000000D+00  0.0000000000000D+00  0.0000000000000D+00
   329  3.2800000000000D+00  0.0000000000000D+00  0.0000000000000D+00
   330  3.2900000000000D+00  0.0000000000000D+00  0.0000000000000D+00
   331  3.3000000000000D+00  0.0000000000000D+00  0.0000000000000D+00
   332  3.3100000000000D+00  0.0000000000000D+00  0.0000000000000D+00
   333  3.3200000000000D+00  0.0000000000000D+00  0.0000000000000D+00
   334  3.3300000000000D+00  0.0000000000000D+00  0.0000000000000D+00
   335  3.3400000000000D+00  0.0000000000000D+00  0.0000000000000D+00
   336  3.3500000000000D+00  0.0000000000000D+00  0.0000000000000D+00
   337  3.3600000000000D+00  0.0000000000000D+00  0.0000000000000D+00
   338  3.3700000000000D+00  0.0000000000000D+00  0.0000000000000D+00
   339  3.3800000000000D+00  0.0000000000000D+00  0.0000000000000D+00
   340  3.3900000000000D+00  0.0000000000000D+00  0.0000000000000D+00
   341  3.4000000000000D+00  0.0000000000000D+00  0.0000000000000D+00
   342  3.4100000000000D+00  0.0000000000000D+00  0.0000000000000D+00
   343  3.4200000000000D+00  0.0000000000000D+00  0.0000000000000D+00
   344  3.4300000000000D+00  0.0000000000000D+00  0.0000000000000D+00
   345  3.4400000000000D+00  0.0000000000000D+00  0.0000000000000D+00
   346  3.4500000000000D+00  0.0000000000000D+00  0.0000000000000D+00
   347  3.4600000000000D+00  0.0000000000000D+00  0.0000000000000D+00
   348  3.4700000000000D+00  0.0000000000000D+00  0.0000000000000D+00
   349  3.4800000000000D+00  0.0000000000000D+00  0.0000000000000D+00
   350  3.4900000000000D+00  0.0000000000000D+00  0.0000000000000D+00
   351  3.5000000000000D+00  0.0000000000000D+00  0.0000000000000D+00
   352  3.5100000000000D+00  0.0000000000000D+00  0.0000000000000D+00
   353  3.5200000000000D+00  0.0000000000000D+00  0.0000000000000D+00
   354  3.5300000000000D+00  0.0000000000000D+00  0.0000000000000D+00
   355  3.5400000000000D+00  0.0000000000000D+00  0.0000000000000D+00
   356  3.5500000000000D+00  0.0000000000000D+00  0.0000000000000D+00
   357  3.5600000000000D+00  0.0000000000000D+00  0.0000000000000D+00
   358  3.5700000000000D+00  0.0000000000000D+00  0.0000000000000D+00
   359  3.5800000000000D+00  0.0000000000000D+00  0.0000000000000D+00
   360  3.5900000000000D+00  0.0000000000000D+00  0.0000000000000D+00
   361  3.6000000000000D+00  0.0000000000000D+00  0.0000000000000D+00
   362  3.6100000000000D+00  0.0000000000000D+00  0.0000000000000D+00
   363  3.6200000000000D+00  0.0000000000000D+00  0.0000000000000D+00
   364  3.6300000000000D+00  0.0000000000000D+00  0.0000000000000D+00
   365  3.6400000000000D+00  0.0000000000000D+00  0.0000000000000D+00
   366  3.6500000000000D+00  0.0000000000000D+00  0.0000000000000D+00
   367  3.6600000000000D+00  0.0000000000000D+00  0.0000000000000D+00
   368  3.6700000000000D+00  0.0000000000000D+00  0.0000000000000D+00
   369  3.6800000000000D+00  0.0000000000000D+00  0.0000000000000D+00
   370  3.6900000000000D+00  0.0000000000000D+00  0.0000000000000D+00
   371  3.7000000000000D+00  0.0000000000000D+00  0.0000000000000D+00
   372  3.7100000000000D+00  0.0000000000000D+00  0.0000000000000D+00
   373  3.7200000000000D+00  0.0000000000000D+00  0.0000000000000D+00
   374  3.7300000000000D+00  0.0000000000000D+00  0.0000000000000D+00
   375  3.7400000000000D+00  0.0000000000000D+00  0.0000000000000D+00
   376  3.7500000000000D+00  0.0000000000000D+00  0.0000000000000D+00
   377  3.7600000000000D+00  0.0000000000000D+00  0.0000000000000D+00
   378  3.7700000000000D+00  0.0000000000000D+00  0.0000000000000D+00
   379  3.7800000000000D+00  0.0000000000000D+00  0.0000000000000D+00
   380  3.7900000000000D+00  0.0000000000000D+00  0.0000000000000D+00
   381  3.8000000000000D+00  0.0000000000000D+00  0.0000000000000D+00
   382  3.8100000000000D+00  0.0000000000000D+00  0.0000000000000D+00
   383  3.8200000000000D+00  0.0000000000000D+00  0.0000000000000D+00
   384  3.8300000000000D+00  0.0000000000000D+00  0.0000000000000D+00
   385  3.8400000000000D+00  0.0000000000000D+00  0.0000000000000D+00
   386  3.8500000000000D+00  0.0000000000000D+00  0.0000000000000D+00
   387  3.8600000000000D+00  0.0000000000000D+00  0.0000000000000D+00
   388  3.8700000000000D+00  0.0000000000000D+00  0.0000000000000D+00
   389  3.8800000000000D+00  0.0000000000000D+00  0.0000000000000D+00
   390  3.8900000000000D+00  0.0000000000000D+00  0.0000000000000D+00
   391  3.9000000000000D+00  0.0000000000000D+00  0.0000000000000D+00
   392  3.9100000000000D+00  0.0000000000000D+00  0.0000000000000D+00
   393  3.9200000000000D+00  0.0000000000000D+00  0.0000000000000D+00
   394  3.9300000000000D+00  0.0000000000000D+00  0.0000000000000D+00
   395  3.9400000000000D+00  0.0000000000000D+00  0.0000000000000D+00
   396  3.9500000000000D+00  0.0000000000000D+00  0.0000000000000D+00
   397  3.9600000000000D+00  0.0000000000000D+00  0.0000000000000D+00
   398  3.9700000000000D+00  0.0000000000000D+00  0.0000000000000D+00
   399  3.9800000000000D+00  0.0000000000000D+00  0.0000000000000D+00
   400  3.9900000000000D+00  0.0000000000000D+00  0.0000000000000D+00
   401  4.0000000000000D+00  0.0000000000000D+00  0.0000000000000D+00
   402  4.0100000000000D+00  0.0000000000000D+00  0.0000000000000D+00
   403  4.0200000000000D+00  0.0000000000000D+00  0.0000000000000D+00
   404  4.0300000000000D+00  0.0000000000000D+00  0.0000000000000D+00
   405  4.0400000000000D+00  0.0000000000000D+00  0.0000000000000D+00
   406  4.0500000000000D+00  0.0000000000000D+00  0.0000000000000D+00
   407  4.0600000000000D+00  0.0000000000000D+00  0.0000000000000D+00
   408  4.0700000000000D+00  0.0000000000000D+00  0.0000000000000D+00
   409  4.0800000000000D+00  0.0000000000000D+00  0.0000000000000D+00
   410  4.0900000000000D+00  0.0000000000000D+00  0.0000000000000D+00
   411  4.1000000000000D+00  0.0000000000000D+00  0.0000000000000D+00
   412  4.1100000000000D+00  0.0000000000000D+00  0.0000000000000D+00
   413  4.1200000000000D+00  0.0000000000000D+00  0.0000000000000D+00
   414  4.1300000000000D+00  0.0000000000000D+00  0.0000000000000D+00
   415  4.1400000000000D+00  0.0000000000000D+00  0.0000000000000D+00
   416  4.1500000000000D+00  0.0000000000000D+00  0.0000000000000D+00
   417  4.1600000000000D+00  0.0000000000000D+00  0.0000000000000D+00
   418  4.1700000000000D+00  0.0000000000000D+00  0.0000000000000D+00
   419  4.1800000000000D+00  0.0000000000000D+00  0.0000000000000D+00
   420  4.1900000000000D+00  0.0000000000000D+00  0.0000000000000D+00
   421  4.2000000000000D+00  0.0000000000000D+00  0.0000000000000D+00
   422  4.2100000000000D+00  0.0000000000000D+00  0.0000000000000D+00