Os    ONCVPSP-3.3.1  r_core=   1.76739   1.87601   1.51352   2.61993
     76.0000     16.0000      210904    zatom,zion,pspd
     8      11   3     4   600     0    pspcod,pspxc,lmax,lloc,mmax,r2well
  5.99000000  0.00000000  0.00000000    rchrg fchrg qchrg
     2     2     2     2     0    nproj
     1     1           extension_switch
   0                         1.4074871507281D+01  2.0605818563219D+00
     1  0.0000000000000D+00  1.3840661949871D-10 -3.1639892095203D-10
     2  1.0000000000000D-02  5.2880051334388D-02 -9.4661427735430D-03
     3  2.0000000000000D-02  1.0573072782387D-01 -1.8974939794008D-02
     4  3.0000000000000D-02  1.5852224719329D-01 -2.8568019481861D-02
     5  4.0000000000000D-02  2.1122401675743D-01 -3.8284968852360D-02
     6  5.0000000000000D-02  2.6380423930706D-01 -4.8162338351930D-02
     7  6.0000000000000D-02  3.1622953220603D-01 -5.8232677117029D-02
     8  7.0000000000000D-02  3.6846456393993D-01 -6.8523608423927D-02
     9  8.0000000000000D-02  4.2047171221873D-01 -7.9056954781416D-02
    10  9.0000000000000D-02  4.7221074756413D-01 -8.9847921726494D-02
    11  1.0000000000000D-01  5.2363854610944D-01 -1.0090434891782D-01
    12  1.1000000000000D-01  5.7470883510594D-01 -1.1222603658598D-01
    13  1.2000000000000D-01  6.2537197436746D-01 -1.2380415479689D-01
    14  1.3000000000000D-01  6.7557477659443D-01 -1.3562074231791D-01
    15  1.4000000000000D-01  7.2526036920432D-01 -1.4764830115101D-01
    16  1.5000000000000D-01  7.7436809995616D-01 -1.5984949201643D-01
    17  1.6000000000000D-01  8.2283348829851D-01 -1.7217693524045D-01
    18  1.7000000000000D-01  8.7058822399182D-01 -1.8457312062632D-01
    19  1.8000000000000D-01  9.1756021416315D-01 -1.9697042897456D-01
    20  1.9000000000000D-01  9.6367367954450D-01 -2.0929126697402D-01
    21  2.0000000000000D-01  1.0088493002294D+00 -2.2144831621420D-01
    22  2.1000000000000D-01  1.0530044108584D+00 -2.3334489608011D-01
    23  2.2000000000000D-01  1.0960532447167D+00 -2.4487543929006D-01
    24  2.3000000000000D-01  1.1379072257979D+00 -2.5592607783167D-01
    25  2.4000000000000D-01  1.1784753074619D+00 -2.6637533605022D-01
    26  2.5000000000000D-01  1.2176643558932D+00 -2.7609492665327D-01
    27  2.6000000000000D-01  1.2553795761575D+00 -2.8495064442516D-01
    28  2.7000000000000D-01  1.2915249782491D+00 -2.9280335150163D-01
    29  2.8000000000000D-01  1.3260038801444D+00 -2.9951004714731D-01
    30  2.9000000000000D-01  1.3587194445060D+00 -3.0492501411450D-01
    31  3.0000000000000D-01  1.3895752453422D+00 -3.0890103284878D-01
    32  3.1000000000000D-01  1.4184758606069D+00 -3.1129065405285D-01
    33  3.2000000000000D-01  1.4453274864324D+00 -3.1194751943272D-01
    34  3.3000000000000D-01  1.4700385684326D+00 -3.1072771983620D-01
    35  3.4000000000000D-01  1.4925204452796D+00 -3.0749117945941D-01
    36  3.5000000000000D-01  1.5126879995729D+00 -3.0210305435010D-01
    37  3.6000000000000D-01  1.5304603108591D+00 -2.9443513308040D-01
    38  3.7000000000000D-01  1.5457613055505D+00 -2.8436722720365D-01
    39  3.8000000000000D-01  1.5585203984141D+00 -2.7178853895242D-01
    40  3.9000000000000D-01  1.5686731202721D+00 -2.5659899358330D-01
    41  4.0000000000000D-01  1.5761617265656D+00 -2.3871052382891D-01
    42  4.1000000000000D-01  1.5809357814903D+00 -2.1804829408355D-01
    43  4.2000000000000D-01  1.5829527125094D+00 -1.9455185222434D-01
    44  4.3000000000000D-01  1.5821783301947D+00 -1.6817619735641D-01
    45  4.4000000000000D-01  1.5785873085336D+00 -1.3889275226665D-01
    46  4.5000000000000D-01  1.5721636210660D+00 -1.0669022997454D-01
    47  4.6000000000000D-01  1.5629009284910D+00 -7.1575384476796D-02
    48  4.7000000000000D-01  1.5508029136890D+00 -3.3573636591440D-02
    49  4.8000000000000D-01  1.5358835604559D+00  7.2704332883483D-03
    50  4.9000000000000D-01  1.5181673726315D+00  5.0892732727326D-02
    51  5.0000000000000D-01  1.4976895307158D+00  9.7209451188159D-02
    52  5.1000000000000D-01  1.4744959835210D+00  1.4611700534908D-01
    53  5.2000000000000D-01  1.4486434728737D+00  1.9749213955385D-01
    54  5.3000000000000D-01  1.4201994898813D+00  2.5119218387875D-01
    55  5.4000000000000D-01  1.3892421617921D+00  3.0705547098518D-01
    56  5.5000000000000D-01  1.3558600690060D+00  3.6490191157652D-01
    57  5.6000000000000D-01  1.3201519923361D+00  4.2453372690797D-01
    58  5.7000000000000D-01  1.2822265911676D+00  4.8573633541430D-01
    59  5.8000000000000D-01  1.2422020137065D+00  5.4827938914485D-01
    60  5.9000000000000D-01  1.2002054410596D+00  6.1191795432884D-01
    61  6.0000000000000D-01  1.1563725674213D+00  6.7639382906354D-01
    62  6.1000000000000D-01  1.1108470191695D+00  7.4143698981931D-01
    63  6.2000000000000D-01  1.0637797161780D+00  8.0676715722323D-01
    64  6.3000000000000D-01  1.0153281791425D+00  8.7209547040348D-01
    65  6.4000000000000D-01  9.6565578717126D-01  9.3712625808775D-01
    66  6.5000000000000D-01  9.1493099032547D-01  1.0015588936429D+00
    67  6.6000000000000D-01  8.6332648218548D-01  1.0650897203387D+00
    68  6.7000000000000D-01  8.1101833787672D-01  1.1274140323273D+00
    69  6.8000000000000D-01  7.5818512330292D-01  1.1882280961572D+00
    70  6.9000000000000D-01  7.0500698160472D-01  1.2472311970919D+00
    71  7.0000000000000D-01  6.5166470308350D-01  1.3041276940949D+00
    72  7.1000000000000D-01  5.9833878500305D-01  1.3586290670701D+00
    73  7.2000000000000D-01  5.4520848780293D-01  1.4104559398172D+00
    74  7.3000000000000D-01  4.9245089432553D-01  1.4593400621832D+00
    75  7.4000000000000D-01  4.4023997867332D-01  1.5050262350552D+00
    76  7.5000000000000D-01  3.8874569127283D-01  1.5472741621569D+00
    77  7.6000000000000D-01  3.3813306662835D-01  1.5858602130696D+00
    78  7.7000000000000D-01  2.8856136010176D-01  1.6205790825030D+00
    79  7.8000000000000D-01  2.4018321985466D-01  1.6512453315839D+00
    80  7.9000000000000D-01  1.9314389983990D-01  1.6776947978039D+00
    81  8.0000000000000D-01  1.4758051943116D-01  1.6997858612657D+00
    82  8.1000000000000D-01  1.0362137493522D-01  1.7174005559814D+00
    83  8.2000000000000D-01  6.1385307845003D-02  1.7304455161964D+00
    84  8.3000000000000D-01  2.0981134265377D-02  1.7388527490245D+00
    85  8.4000000000000D-01 -1.7492860517236D-02  1.7425802260759D+00
    86  8.5000000000000D-01 -5.3949358842992D-02  1.7416122882200D+00
    87  8.6000000000000D-01 -8.8312375904813D-02  1.7359598591451D+00
    88  8.7000000000000D-01 -1.2051755097366D-01  1.7256604649280D+00
    89  8.8000000000000D-01 -1.5051236276136D-01  1.7107780584110D+00
    90  8.9000000000000D-01 -1.7825626762871D-01  1.6914026487657D+00
    91  9.0000000000000D-01 -2.0372075992154D-01  1.6676497382052D+00
    92  9.1000000000000D-01 -2.2688935429459D-01  1.6396595693622D+00
    93  9.2000000000000D-01 -2.4775749045421D-01  1.6075961883638D+00
    94  9.3000000000000D-01 -2.6633236131425D-01  1.5716463300986D+00
    95  9.4000000000000D-01 -2.8263266610678D-01  1.5320181335614D+00
    96  9.5000000000000D-01 -2.9668829051710D-01  1.4889396964716D+00
    97  9.6000000000000D-01 -3.0853991641759D-01  1.4426574795745D+00
    98  9.7000000000000D-01 -3.1823856424780D-01  1.3934345721375D+00
    99  9.8000000000000D-01 -3.2584507152760D-01  1.3415488311318D+00
   100  9.9000000000000D-01 -3.3142951140120D-01  1.2872909074625D+00
   101  1.0000000000000D+00 -3.3507055546756D-01  1.2309621733110D+00
   102  1.0100000000000D+00 -3.3685478547598D-01  1.1728725652372D+00
   103  1.0200000000000D+00 -3.3687595874018D-01  1.1133383581131D+00
   104  1.0300000000000D+00 -3.3523423235244D-01  1.0526798852286D+00
   105  1.0400000000000D+00 -3.3203535145264D-01  9.9121922002820D-01
   106  1.0500000000000D+00 -3.2738980693910D-01  9.2927783491178D-01
   107  1.0600000000000D+00 -3.2141196808382D-01  8.6717425233025D-01
   108  1.0700000000000D+00 -3.1421919553850D-01  8.0522170307790D-01
   109  1.0800000000000D+00 -3.0593094019359D-01  7.4372580618826D-01
   110  1.0900000000000D+00 -2.9666783327596D-01  6.8298228421426D-01
   111  1.1000000000000D+00 -2.8655077296569D-01  6.2327472698617D-01
   112  1.1100000000000D+00 -2.7570001262501D-01  5.6487241596430D-01
   113  1.1200000000000D+00 -2.6423425554442D-01  5.0802822042378D-01
   114  1.1300000000000D+00 -2.5226976082197D-01  4.5297657546507D-01
   115  1.1400000000000D+00 -2.3991946479585D-01  3.9993155102087D-01
   116  1.1500000000000D+00 -2.2729212202893D-01  3.4908501938413D-01
   117  1.1600000000000D+00 -2.1449146957004D-01  3.0060492777763D-01
   118  1.1700000000000D+00 -2.0161541640713D-01  2.5463367468367D-01
   119  1.1800000000000D+00 -1.8875526678593D-01  2.1128662045936D-01
   120  1.1900000000000D+00 -1.7599497356044D-01  1.7065070098314D-01
   121  1.2000000000000D+00 -1.6341046779744D-01  1.3278335522117D-01
   122  1.2100000000000D+00 -1.5106872058402D-01  9.7710183908395D-02
   123  1.2200000000000D+00 -1.3902820078456D-01  6.5428926322052D-02
   124  1.2300000000000D+00 -1.2733992509315D-01  3.5915692594169D-02
   125  1.2400000000000D+00 -1.1604882183033D-01  9.1318914972215D-03
   126  1.2500000000000D+00 -1.0519382200674D-01 -1.4974920995027D-02
   127  1.2600000000000D+00 -9.4807896104147D-02 -3.6470593622579D-02
   128  1.2700000000000D+00 -8.4918254364431D-02 -5.5433203533557D-02
   129  1.2800000000000D+00 -7.5546532089479D-02 -7.1952049285668D-02
   130  1.2900000000000D+00 -6.6709009200863D-02 -8.6126561015705D-02
   131  1.3000000000000D+00 -5.8416860040318D-02 -9.8065147510439D-02
   132  1.3100000000000D+00 -5.0676422435932D-02 -1.0788402570183D-01
   133  1.3200000000000D+00 -4.3489487784885D-02 -1.1570602291119D-01
   134  1.3300000000000D+00 -3.6853609471085D-02 -1.2165936113765D-01
   135  1.3400000000000D+00 -3.0762424398725D-02 -1.2587644326534D-01
   136  1.3500000000000D+00 -2.5205985220843D-02 -1.2849264857643D-01
   137  1.3600000000000D+00 -2.0171100073547D-02 -1.2964514842581D-01
   138  1.3700000000000D+00 -1.5641676571624D-02 -1.2947175275644D-01
   139  1.3800000000000D+00 -1.1599067223721D-02 -1.2810979624555D-01
   140  1.3900000000000D+00 -8.0224131068941D-03 -1.2569507435726D-01
   141  1.4000000000000D+00 -4.8889832309592D-03 -1.2236083661745D-01
   142  1.4100000000000D+00 -2.1745069090338D-03 -1.1823684508618D-01
   143  1.4200000000000D+00  1.4650337875227D-04 -1.1344850519367D-01
   144  1.4300000000000D+00  2.1004402684907D-03 -1.0811607240377D-01
   145  1.4400000000000D+00  3.7143052025968D-03 -1.0235394819075D-01
   146  1.4500000000000D+00  5.0154263584675D-03 -9.6270058257282D-02
   147  1.4600000000000D+00  6.0311900598934D-03 -8.9965307748986D-02
   148  1.4700000000000D+00  6.7887960663962D-03 -8.3533148669815D-02
   149  1.4800000000000D+00  7.3150354248283D-03 -7.7059251723760D-02
   150  1.4900000000000D+00  7.6360793279256D-03 -7.0621237765778D-02
   151  1.5000000000000D+00  7.7772901480055D-03 -6.4288506399469D-02
   152  1.5100000000000D+00  7.7630600475552D-03 -5.8122178602345D-02
   153  1.5200000000000D+00  7.6166679012931D-03 -5.2175116426038D-02
   154  1.5300000000000D+00  7.3601556482709D-03 -4.6492020898171D-02
   155  1.5400000000000D+00  7.0142268456270D-03 -4.1109615066007D-02
   156  1.5500000000000D+00  6.5981651816756D-03 -3.6056901112096D-02
   157  1.5600000000000D+00  6.1297726485680D-03 -3.1355487183763D-02
   158  1.5700000000000D+00  5.6253256786920D-03 -2.7019975143115D-02
   159  1.5800000000000D+00  5.0995492074662D-03 -2.3058405669932D-02
   160  1.5900000000000D+00  4.5656062978068D-03 -1.9472749834397D-02
   161  1.6000000000000D+00  4.0351028971505D-03 -1.6259442151060D-02
   162  1.6100000000000D+00  3.5181054836857D-03 -1.3409944885404D-02
   163  1.6200000000000D+00  3.0231705912385D-03 -1.0911336744129D-02
   164  1.6300000000000D+00  2.5573841817532D-03 -8.7469166198354D-03
   165  1.6400000000000D+00  2.1264094832260D-03 -6.8968145526812D-03
   166  1.6500000000000D+00  1.7345414085631D-03 -5.3386012101732D-03
   167  1.6600000000000D+00  1.3847660420452D-03 -4.0478880498298D-03
   168  1.6700000000000D+00  1.0788234092909D-03 -2.9989099419431D-03
   169  1.6800000000000D+00  8.1727208646903D-04 -2.1650831835539D-03
   170  1.6900000000000D+00  5.9955396662399D-04 -1.5195312305678D-03
   171  1.7000000000000D+00  4.2405792826251D-04 -1.0355722483970D-03
   172  1.7100000000000D+00  2.8822210657266D-04 -6.8732897742543D-04
   173  1.7200000000000D+00  1.8844065199834D-04 -4.4951029182402D-04
   174  1.7300000000000D+00  1.1979172294029D-04 -2.9679386676417D-04
   175  1.7400000000000D+00  7.7769139472970D-05 -2.0970403243982D-04
   176  1.7500000000000D+00  5.9019739977475D-05 -1.7666902436393D-04
   177  1.7600000000000D+00  5.3678373962249D-05 -1.6998214577026D-04
   178  1.7700000000000D+00  4.2879242365602D-05 -1.3730079412178D-04
   179  1.7800000000000D+00  1.9015374912118D-05 -6.0957342095609D-05
   180  1.7900000000000D+00 -1.4777860557204D-06  4.7773474823542D-06
   181  1.8000000000000D+00 -4.7106089608727D-06  1.5246027205148D-05
   182  1.8100000000000D+00 -3.7296244040793D-08  1.2077093237644D-07
   183  1.8200000000000D+00  1.1018910946455D-06 -3.5765231924774D-06
   184  1.8300000000000D+00  2.5143251340254D-07 -8.1679403470366D-07
   185  1.8400000000000D+00 -1.2933674620039D-07  4.1341114243855D-07
   186  1.8500000000000D+00 -6.5716526926508D-08  2.1005588335807D-07
   187  1.8600000000000D+00  0.0000000000000D+00  0.0000000000000D+00
   188  1.8700000000000D+00  0.0000000000000D+00  0.0000000000000D+00
   189  1.8800000000000D+00  0.0000000000000D+00  0.0000000000000D+00
   190  1.8900000000000D+00  0.0000000000000D+00  0.0000000000000D+00
   191  1.9000000000000D+00  0.0000000000000D+00  0.0000000000000D+00
   192  1.9100000000000D+00  0.0000000000000D+00  0.0000000000000D+00
   193  1.9200000000000D+00  0.0000000000000D+00  0.0000000000000D+00
   194  1.9300000000000D+00  0.0000000000000D+00  0.0000000000000D+00
   195  1.9400000000000D+00  0.0000000000000D+00  0.0000000000000D+00
   196  1.9500000000000D+00  0.0000000000000D+00  0.0000000000000D+00
   197  1.9600000000000D+00  0.0000000000000D+00  0.0000000000000D+00
   198  1.9700000000000D+00  0.0000000000000D+00  0.0000000000000D+00
   199  1.9800000000000D+00  0.0000000000000D+00  0.0000000000000D+00
   200  1.9900000000000D+00  0.0000000000000D+00  0.0000000000000D+00
   201  2.0000000000000D+00  0.0000000000000D+00  0.0000000000000D+00
   202  2.0100000000000D+00  0.0000000000000D+00  0.0000000000000D+00
   203  2.0200000000000D+00  0.0000000000000D+00  0.0000000000000D+00
   204  2.0300000000000D+00  0.0000000000000D+00  0.0000000000000D+00
   205  2.0400000000000D+00  0.0000000000000D+00  0.0000000000000D+00
   206  2.0500000000000D+00  0.0000000000000D+00  0.0000000000000D+00
   207  2.0600000000000D+00  0.0000000000000D+00  0.0000000000000D+00
   208  2.0700000000000D+00  0.0000000000000D+00  0.0000000000000D+00
   209  2.0800000000000D+00  0.0000000000000D+00  0.0000000000000D+00
   210  2.0900000000000D+00  0.0000000000000D+00  0.0000000000000D+00
   211  2.1000000000000D+00  0.0000000000000D+00  0.0000000000000D+00
   212  2.1100000000000D+00  0.0000000000000D+00  0.0000000000000D+00
   213  2.1200000000000D+00  0.0000000000000D+00  0.0000000000000D+00
   214  2.1300000000000D+00  0.0000000000000D+00  0.0000000000000D+00
   215  2.1400000000000D+00  0.0000000000000D+00  0.0000000000000D+00
   216  2.1500000000000D+00  0.0000000000000D+00  0.0000000000000D+00
   217  2.1600000000000D+00  0.0000000000000D+00  0.0000000000000D+00
   218  2.1700000000000D+00  0.0000000000000D+00  0.0000000000000D+00
   219  2.1800000000000D+00  0.0000000000000D+00  0.0000000000000D+00
   220  2.1900000000000D+00  0.0000000000000D+00  0.0000000000000D+00
   221  2.2000000000000D+00  0.0000000000000D+00  0.0000000000000D+00
   222  2.2100000000000D+00  0.0000000000000D+00  0.0000000000000D+00
   223  2.2200000000000D+00  0.0000000000000D+00  0.0000000000000D+00
   224  2.2300000000000D+00  0.0000000000000D+00  0.0000000000000D+00
   225  2.2400000000000D+00  0.0000000000000D+00  0.0000000000000D+00
   226  2.2500000000000D+00  0.0000000000000D+00  0.0000000000000D+00
   227  2.2600000000000D+00  0.0000000000000D+00  0.0000000000000D+00
   228  2.2700000000000D+00  0.0000000000000D+00  0.0000000000000D+00
   229  2.2800000000000D+00  0.0000000000000D+00  0.0000000000000D+00
   230  2.2900000000000D+00  0.0000000000000D+00  0.0000000000000D+00
   231  2.3000000000000D+00  0.0000000000000D+00  0.0000000000000D+00
   232  2.3100000000000D+00  0.0000000000000D+00  0.0000000000000D+00
   233  2.3200000000000D+00  0.0000000000000D+00  0.0000000000000D+00
   234  2.3300000000000D+00  0.0000000000000D+00  0.0000000000000D+00
   235  2.3400000000000D+00  0.0000000000000D+00  0.0000000000000D+00
   236  2.3500000000000D+00  0.0000000000000D+00  0.0000000000000D+00
   237  2.3600000000000D+00  0.0000000000000D+00  0.0000000000000D+00
   238  2.3700000000000D+00  0.0000000000000D+00  0.0000000000000D+00
   239  2.3800000000000D+00  0.0000000000000D+00  0.0000000000000D+00
   240  2.3900000000000D+00  0.0000000000000D+00  0.0000000000000D+00
   241  2.4000000000000D+00  0.0000000000000D+00  0.0000000000000D+00
   242  2.4100000000000D+00  0.0000000000000D+00  0.0000000000000D+00
   243  2.4200000000000D+00  0.0000000000000D+00  0.0000000000000D+00
   244  2.4300000000000D+00  0.0000000000000D+00  0.0000000000000D+00
   245  2.4400000000000D+00  0.0000000000000D+00  0.0000000000000D+00
   246  2.4500000000000D+00  0.0000000000000D+00  0.0000000000000D+00
   247  2.4600000000000D+00  0.0000000000000D+00  0.0000000000000D+00
   248  2.4700000000000D+00  0.0000000000000D+00  0.0000000000000D+00
   249  2.4800000000000D+00  0.0000000000000D+00  0.0000000000000D+00
   250  2.4900000000000D+00  0.0000000000000D+00  0.0000000000000D+00
   251  2.5000000000000D+00  0.0000000000000D+00  0.0000000000000D+00
   252  2.5100000000000D+00  0.0000000000000D+00  0.0000000000000D+00
   253  2.5200000000000D+00  0.0000000000000D+00  0.0000000000000D+00
   254  2.5300000000000D+00  0.0000000000000D+00  0.0000000000000D+00
   255  2.5400000000000D+00  0.0000000000000D+00  0.0000000000000D+00
   256  2.5500000000000D+00  0.0000000000000D+00  0.0000000000000D+00
   257  2.5600000000000D+00  0.0000000000000D+00  0.0000000000000D+00
   258  2.5700000000000D+00  0.0000000000000D+00  0.0000000000000D+00
   259  2.5800000000000D+00  0.0000000000000D+00  0.0000000000000D+00
   260  2.5900000000000D+00  0.0000000000000D+00  0.0000000000000D+00
   261  2.6000000000000D+00  0.0000000000000D+00  0.0000000000000D+00
   262  2.6100000000000D+00  0.0000000000000D+00  0.0000000000000D+00
   263  2.6200000000000D+00  0.0000000000000D+00  0.0000000000000D+00
   264  2.6300000000000D+00  0.0000000000000D+00  0.0000000000000D+00
   265  2.6400000000000D+00  0.0000000000000D+00  0.0000000000000D+00
   266  2.6500000000000D+00  0.0000000000000D+00  0.0000000000000D+00
   267  2.6600000000000D+00  0.0000000000000D+00  0.0000000000000D+00
   268  2.6700000000000D+00  0.0000000000000D+00  0.0000000000000D+00
   269  2.6800000000000D+00  0.0000000000000D+00  0.0000000000000D+00
   270  2.6900000000000D+00  0.0000000000000D+00  0.0000000000000D+00
   271  2.7000000000000D+00  0.0000000000000D+00  0.0000000000000D+00
   272  2.7100000000000D+00  0.0000000000000D+00  0.0000000000000D+00
   273  2.7200000000000D+00  0.0000000000000D+00  0.0000000000000D+00
   274  2.7300000000000D+00  0.0000000000000D+00  0.0000000000000D+00
   275  2.7400000000000D+00  0.0000000000000D+00  0.0000000000000D+00
   276  2.7500000000000D+00  0.0000000000000D+00  0.0000000000000D+00
   277  2.7600000000000D+00  0.0000000000000D+00  0.0000000000000D+00
   278  2.7700000000000D+00  0.0000000000000D+00  0.0000000000000D+00
   279  2.7800000000000D+00  0.0000000000000D+00  0.0000000000000D+00
   280  2.7900000000000D+00  0.0000000000000D+00  0.0000000000000D+00
   281  2.8000000000000D+00  0.0000000000000D+00  0.0000000000000D+00
   282  2.8100000000000D+00  0.0000000000000D+00  0.0000000000000D+00
   283  2.8200000000000D+00  0.0000000000000D+00  0.0000000000000D+00
   284  2.8300000000000D+00  0.0000000000000D+00  0.0000000000000D+00
   285  2.8400000000000D+00  0.0000000000000D+00  0.0000000000000D+00
   286  2.8500000000000D+00  0.0000000000000D+00  0.0000000000000D+00
   287  2.8600000000000D+00  0.0000000000000D+00  0.0000000000000D+00
   288  2.8700000000000D+00  0.0000000000000D+00  0.0000000000000D+00
   289  2.8800000000000D+00  0.0000000000000D+00  0.0000000000000D+00
   290  2.8900000000000D+00  0.0000000000000D+00  0.0000000000000D+00
   291  2.9000000000000D+00  0.0000000000000D+00  0.0000000000000D+00
   292  2.9100000000000D+00  0.0000000000000D+00  0.0000000000000D+00
   293  2.9200000000000D+00  0.0000000000000D+00  0.0000000000000D+00
   294  2.9300000000000D+00  0.0000000000000D+00  0.0000000000000D+00
   295  2.9400000000000D+00  0.0000000000000D+00  0.0000000000000D+00
   296  2.9500000000000D+00  0.0000000000000D+00  0.0000000000000D+00
   297  2.9600000000000D+00  0.0000000000000D+00  0.0000000000000D+00
   298  2.9700000000000D+00  0.0000000000000D+00  0.0000000000000D+00
   299  2.9800000000000D+00  0.0000000000000D+00  0.0000000000000D+00
   300  2.9900000000000D+00  0.0000000000000D+00  0.0000000000000D+00
   301  3.0000000000000D+00  0.0000000000000D+00  0.0000000000000D+00
   302  3.0100000000000D+00  0.0000000000000D+00  0.0000000000000D+00
   303  3.0200000000000D+00  0.0000000000000D+00  0.0000000000000D+00
   304  3.0300000000000D+00  0.0000000000000D+00  0.0000000000000D+00
   305  3.0400000000000D+00  0.0000000000000D+00  0.0000000000000D+00
   306  3.0500000000000D+00  0.0000000000000D+00  0.0000000000000D+00
   307  3.0600000000000D+00  0.0000000000000D+00  0.0000000000000D+00
   308  3.0700000000000D+00  0.0000000000000D+00  0.0000000000000D+00
   309  3.0800000000000D+00  0.0000000000000D+00  0.0000000000000D+00
   310  3.0900000000000D+00  0.0000000000000D+00  0.0000000000000D+00
   311  3.1000000000000D+00  0.0000000000000D+00  0.0000000000000D+00
   312  3.1100000000000D+00  0.0000000000000D+00  0.0000000000000D+00
   313  3.1200000000000D+00  0.0000000000000D+00  0.0000000000000D+00
   314  3.1300000000000D+00  0.0000000000000D+00  0.0000000000000D+00
   315  3.1400000000000D+00  0.0000000000000D+00  0.0000000000000D+00
   316  3.1500000000000D+00  0.0000000000000D+00  0.0000000000000D+00
   317  3.1600000000000D+00  0.0000000000000D+00  0.0000000000000D+00
   318  3.1700000000000D+00  0.0000000000000D+00  0.0000000000000D+00
   319  3.1800000000000D+00  0.0000000000000D+00  0.0000000000000D+00
   320  3.1900000000000D+00  0.0000000000000D+00  0.0000000000000D+00
   321  3.2000000000000D+00  0.0000000000000D+00  0.0000000000000D+00
   322  3.2100000000000D+00  0.0000000000000D+00  0.0000000000000D+00
   323  3.2200000000000D+00  0.0000000000000D+00  0.0000000000000D+00
   324  3.2300000000000D+00  0.0000000000000D+00  0.0000000000000D+00
   325  3.2400000000000D+00  0.0000000000000D+00  0.0000000000000D+00
   326  3.2500000000000D+00  0.0000000000000D+00  0.0000000000000D+00
   327  3.2600000000000D+00  0.0000000000000D+00  0.0000000000000D+00
   328  3.2700000000000D+00  0.0000000000000D+00  0.0000000000000D+00
   329  3.2800000000000D+00  0.0000000000000D+00  0.0000000000000D+00
   330  3.2900000000000D+00  0.0000000000000D+00  0.0000000000000D+00
   331  3.3000000000000D+00  0.0000000000000D+00  0.0000000000000D+00
   332  3.3100000000000D+00  0.0000000000000D+00  0.0000000000000D+00
   333  3.3200000000000D+00  0.0000000000000D+00  0.0000000000000D+00
   334  3.3300000000000D+00  0.0000000000000D+00  0.0000000000000D+00
   335  3.3400000000000D+00  0.0000000000000D+00  0.0000000000000D+00
   336  3.3500000000000D+00  0.0000000000000D+00  0.0000000000000D+00
   337  3.3600000000000D+00  0.0000000000000D+00  0.0000000000000D+00
   338  3.3700000000000D+00  0.0000000000000D+00  0.0000000000000D+00
   339  3.3800000000000D+00  0.0000000000000D+00  0.0000000000000D+00
   340  3.3900000000000D+00  0.0000000000000D+00  0.0000000000000D+00
   341  3.4000000000000D+00  0.0000000000000D+00  0.0000000000000D+00
   342  3.4100000000000D+00  0.0000000000000D+00  0.0000000000000D+00
   343  3.4200000000000D+00  0.0000000000000D+00  0.0000000000000D+00
   344  3.4300000000000D+00  0.0000000000000D+00  0.0000000000000D+00
   345  3.4400000000000D+00  0.0000000000000D+00  0.0000000000000D+00
   346  3.4500000000000D+00  0.0000000000000D+00  0.0000000000000D+00
   347  3.4600000000000D+00  0.0000000000000D+00  0.0000000000000D+00
   348  3.4700000000000D+00  0.0000000000000D+00  0.0000000000000D+00
   349  3.4800000000000D+00  0.0000000000000D+00  0.0000000000000D+00
   350  3.4900000000000D+00  0.0000000000000D+00  0.0000000000000D+00
   351  3.5000000000000D+00  0.0000000000000D+00  0.0000000000000D+00
   352  3.5100000000000D+00  0.0000000000000D+00  0.0000000000000D+00
   353  3.5200000000000D+00  0.0000000000000D+00  0.0000000000000D+00
   354  3.5300000000000D+00  0.0000000000000D+00  0.0000000000000D+00
   355  3.5400000000000D+00  0.0000000000000D+00  0.0000000000000D+00
   356  3.5500000000000D+00  0.0000000000000D+00  0.0000000000000D+00
   357  3.5600000000000D+00  0.0000000000000D+00  0.0000000000000D+00
   358  3.5700000000000D+00  0.0000000000000D+00  0.0000000000000D+00
   359  3.5800000000000D+00  0.0000000000000D+00  0.0000000000000D+00
   360  3.5900000000000D+00  0.0000000000000D+00  0.0000000000000D+00
   361  3.6000000000000D+00  0.0000000000000D+00  0.0000000000000D+00
   362  3.6100000000000D+00  0.0000000000000D+00  0.0000000000000D+00
   363  3.6200000000000D+00  0.0000000000000D+00  0.0000000000000D+00
   364  3.6300000000000D+00  0.0000000000000D+00  0.0000000000000D+00
   365  3.6400000000000D+00  0.0000000000000D+00  0.0000000000000D+00
   366  3.6500000000000D+00  0.0000000000000D+00  0.0000000000000D+00
   367  3.6600000000000D+00  0.0000000000000D+00  0.0000000000000D+00
   368  3.6700000000000D+00  0.0000000000000D+00  0.0000000000000D+00
   369  3.6800000000000D+00  0.0000000000000D+00  0.0000000000000D+00
   370  3.6900000000000D+00  0.0000000000000D+00  0.0000000000000D+00
   371  3.7000000000000D+00  0.0000000000000D+00  0.0000000000000D+00
   372  3.7100000000000D+00  0.0000000000000D+00  0.0000000000000D+00
   373  3.7200000000000D+00  0.0000000000000D+00  0.0000000000000D+00
   374  3.7300000000000D+00  0.0000000000000D+00  0.0000000000000D+00
   375  3.7400000000000D+00  0.0000000000000D+00  0.0000000000000D+00
   376  3.7500000000000D+00  0.0000000000000D+00  0.0000000000000D+00
   377  3.7600000000000D+00  0.0000000000000D+00  0.0000000000000D+00
   378  3.7700000000000D+00  0.0000000000000D+00  0.0000000000000D+00
   379  3.7800000000000D+00  0.0000000000000D+00  0.0000000000000D+00
   380  3.7900000000000D+00  0.0000000000000D+00  0.0000000000000D+00
   381  3.8000000000000D+00  0.0000000000000D+00  0.0000000000000D+00
   382  3.8100000000000D+00  0.0000000000000D+00  0.0000000000000D+00
   383  3.8200000000000D+00  0.0000000000000D+00  0.0000000000000D+00
   384  3.8300000000000D+00  0.0000000000000D+00  0.0000000000000D+00
   385  3.8400000000000D+00  0.0000000000000D+00  0.0000000000000D+00
   386  3.8500000000000D+00  0.0000000000000D+00  0.0000000000000D+00
   387  3.8600000000000D+00  0.0000000000000D+00  0.0000000000000D+00
   388  3.8700000000000D+00  0.0000000000000D+00  0.0000000000000D+00
   389  3.8800000000000D+00  0.0000000000000D+00  0.0000000000000D+00
   390  3.8900000000000D+00  0.0000000000000D+00  0.0000000000000D+00
   391  3.9000000000000D+00  0.0000000000000D+00  0.0000000000000D+00
   392  3.9100000000000D+00  0.0000000000000D+00  0.0000000000000D+00
   393  3.9200000000000D+00  0.0000000000000D+00  0.0000000000000D+00
   394  3.9300000000000D+00  0.0000000000000D+00  0.0000000000000D+00
   395  3.9400000000000D+00  0.0000000000000D+00  0.0000000000000D+00
   396  3.9500000000000D+00  0.0000000000000D+00  0.0000000000000D+00
   397  3.9600000000000D+00  0.0000000000000D+00  0.0000000000000D+00
   398  3.9700000000000D+00  0.0000000000000D+00  0.0000000000000D+00
   399  3.9800000000000D+00  0.0000000000000D+00  0.0000000000000D+00
   400  3.9900000000000D+00  0.0000000000000D+00  0.0000000000000D+00
   401  4.0000000000000D+00  0.0000000000000D+00  0.0000000000000D+00
   402  4.0100000000000D+00  0.0000000000000D+00  0.0000000000000D+00
   403  4.0200000000000D+00  0.0000000000000D+00  0.0000000000000D+00
   404  4.0300000000000D+00  0.0000000000000D+00  0.0000000000000D+00
   405  4.0400000000000D+00  0.0000000000000D+00  0.0000000000000D+00
   406  4.0500000000000D+00  0.0000000000000D+00  0.0000000000000D+00
   407  4.0600000000000D+00  0.0000000000000D+00  0.0000000000000D+00
   408  4.0700000000000D+00  0.0000000000000D+00  0.0000000000000D+00
   409  4.0800000000000D+00  0.0000000000000D+00  0.0000000000000D+00
   410  4.0900000000000D+00  0.0000000000000D+00  0.0000000000000D+00
   411  4.1000000000000D+00  0.0000000000000D+00  0.0000000000000D+00
   412  4.1100000000000D+00  0.0000000000000D+00  0.0000000000000D+00
   413  4.1200000000000D+00  0.0000000000000D+00  0.0000000000000D+00
   414  4.1300000000000D+00  0.0000000000000D+00  0.0000000000000D+00
   415  4.1400000000000D+00  0.0000000000000D+00  0.0000000000000D+00
   416  4.1500000000000D+00  0.0000000000000D+00  0.0000000000000D+00
   417  4.1600000000000D+00  0.0000000000000D+00  0.0000000000000D+00
   418  4.1700000000000D+00  0.0000000000000D+00  0.0000000000000D+00
   419  4.1800000000000D+00  0.0000000000000D+00  0.0000000000000D+00
   420  4.1900000000000D+00  0.0000000000000D+00  0.0000000000000D+00
   421  4.2000000000000D+00  0.0000000000000D+00  0.0000000000000D+00
   422  4.2100000000000D+00  0.0000000000000D+00  0.0000000000000D+00