P     ONCVPSP-3.3.1  r_core=   2.62098   1.72641
     15.0000      5.0000      210904    zatom,zion,pspd
     8      11   1     4   600     0    pspcod,pspxc,lmax,lloc,mmax,r2well
  5.99000000  0.00000000  0.00000000    rchrg fchrg qchrg
     2     2     0     0     0    nproj
     1     1           extension_switch
   0                         8.6469632807474D+00  5.3699580343489D-01
     1  0.0000000000000D+00  2.0878798689949D-11  1.9710344467683D-11
     2  1.0000000000000D-02  3.5456580827965D-02 -5.3730533215288D-02
     3  2.0000000000000D-02  7.0905633516858D-02 -1.0729813303792D-01
     4  3.0000000000000D-02  1.0633948754663D-01 -1.6054034399389D-01
     5  4.0000000000000D-02  1.4175018864014D-01 -2.1329566507364D-01
     6  5.0000000000000D-02  1.7712935939139D-01 -2.6540402353736D-01
     7  6.0000000000000D-02  2.1246806288724D-01 -3.1670724462186D-01
     8  7.0000000000000D-02  2.4775667029596D-01 -3.6704951580660D-01
     9  8.0000000000000D-02  2.8298473337485D-01 -4.1627784431566D-01
    10  9.0000000000000D-02  3.1814086282382D-01 -4.6424250655737D-01
    11  1.0000000000000D-01  3.5321261338036D-01 -5.1079748823181D-01
    12  1.1000000000000D-01  3.8818637651607D-01 -5.5580091386958D-01
    13  1.2000000000000D-01  4.2304728155447D-01 -5.9911546460224D-01
    14  1.3000000000000D-01  4.5777910598500D-01 -6.4060878300520D-01
    15  1.4000000000000D-01  4.9236419569911D-01 -6.8015386389787D-01
    16  1.5000000000000D-01  5.2678339582107D-01 -7.1762943003253D-01
    17  1.6000000000000D-01  5.6101599274922D-01 -7.5292029165277D-01
    18  1.7000000000000D-01  5.9503966796274D-01 -7.8591768895367D-01
    19  1.8000000000000D-01  6.2883046408497D-01 -8.1651961652950D-01
    20  1.9000000000000D-01  6.6236276362751D-01 -8.4463112894885D-01
    21  2.0000000000000D-01  6.9560928076940D-01 -8.7016462665302D-01
    22  2.1000000000000D-01  7.2854106645356D-01 -8.9304012142976D-01
    23  2.2000000000000D-01  7.6112752700833D-01 -9.1318548076989D-01
    24  2.3000000000000D-01  7.9333645642589D-01 -9.3053665047186D-01
    25  2.4000000000000D-01  8.2513408235178D-01 -9.4503785491321D-01
    26  2.5000000000000D-01  8.5648512576109D-01 -9.5664177446363D-01
    27  2.6000000000000D-01  8.8735287421770D-01 -9.6530969956718D-01
    28  2.7000000000000D-01  9.1769926853316D-01 -9.7101166107302D-01
    29  2.8000000000000D-01  9.4748500256229D-01 -9.7372653644432D-01
    30  2.9000000000000D-01  9.7666963579344D-01 -9.7344213152286D-01
    31  3.0000000000000D-01  1.0052117183128D+00 -9.7015523757301D-01
    32  3.1000000000000D-01  1.0330689276453D+00 -9.6387166337245D-01
    33  3.2000000000000D-01  1.0601982168990D+00 -9.5460624215817D-01
    34  3.3000000000000D-01  1.0865559735658D+00 -9.4238281327595D-01
    35  3.4000000000000D-01  1.1120981882614D+00 -9.2723417841748D-01
    36  3.5000000000000D-01  1.1367806326171D+00 -9.0920203236438D-01
    37  3.6000000000000D-01  1.1605590454729D+00 -8.8833686819053D-01
    38  3.7000000000000D-01  1.1833893264575D+00 -8.6469785690518D-01
    39  3.8000000000000D-01  1.2052277359839D+00 -8.3835270154671D-01
    40  3.9000000000000D-01  1.2260311006361D+00 -8.0937746576672D-01
    41  4.0000000000000D-01  1.2457570228710D+00 -7.7785637696835D-01
    42  4.1000000000000D-01  1.2643640939178D+00 -7.4388160408980D-01
    43  4.2000000000000D-01  1.2818121087156D+00 -7.0755301014995D-01
    44  4.3000000000000D-01  1.2980622816979D+00 -6.6897787969755D-01
    45  4.4000000000000D-01  1.3130774622030D+00 -6.2827062133399D-01
    46  4.5000000000000D-01  1.3268223482678D+00 -5.8555244550643D-01
    47  4.6000000000000D-01  1.3392636975469D+00 -5.4095101779915D-01
    48  4.7000000000000D-01  1.3503705340878D+00 -4.9460008798317D-01
    49  4.8000000000000D-01  1.3601143496904D+00 -4.4663909512018D-01
    50  4.9000000000000D-01  1.3684692985838D+00 -3.9721274905729D-01
    51  5.0000000000000D-01  1.3754123841605D+00 -3.4647058869233D-01
    52  5.1000000000000D-01  1.3809236365290D+00 -2.9456651743999D-01
    53  5.2000000000000D-01  1.3849862796667D+00 -2.4165831638404D-01
    54  5.3000000000000D-01  1.3875868869871D+00 -1.8790713566236D-01
    55  5.4000000000000D-01  1.3887155241753D+00 -1.3347696470126D-01
    56  5.5000000000000D-01  1.3883658781864D+00 -7.8534081991691D-02
    57  5.6000000000000D-01  1.3865353713581D+00 -2.3246485184378D-02
    58  5.7000000000000D-01  1.3832252596442D+00  3.2216697623791D-02
    59  5.8000000000000D-01  1.3784407140416D+00  8.7685814438789D-02
    60  5.9000000000000D-01  1.3721908843572D+00  1.4299131266645D-01
    61  6.0000000000000D-01  1.3644889445363D+00  1.9796437794798D-01
    62  6.1000000000000D-01  1.3553521188610D+00  2.5243758719099D-01
    63  6.2000000000000D-01  1.3448016884154D+00  3.0624557430985D-01
    64  6.3000000000000D-01  1.3328629773117D+00  3.5922570703430D-01
    65  6.4000000000000D-01  1.3195653182709D+00  4.1121877298011D-01
    66  6.5000000000000D-01  1.3049419972591D+00  4.6206967299986D-01
    67  6.6000000000000D-01  1.2890301769892D+00  5.1162811964465D-01
    68  6.7000000000000D-01  1.2718707992143D+00  5.5974933837028D-01
    69  6.8000000000000D-01  1.2535084658561D+00  6.0629476891509D-01
    70  6.9000000000000D-01  1.2339912991336D+00  6.5113276405769D-01
    71  7.0000000000000D-01  1.2133707809827D+00  6.9413928273743D-01
    72  7.1000000000000D-01  1.1917015721820D+00  7.3519857428509D-01
    73  7.2000000000000D-01  1.1690413117317D+00  7.7420385026750D-01
    74  7.3000000000000D-01  1.1454503971593D+00  8.1105794019960D-01
    75  7.4000000000000D-01  1.1209917465588D+00  8.4567392712078D-01
    76  7.5000000000000D-01  1.0957305432995D+00  8.7797575876935D-01
    77  7.6000000000000D-01  1.0697339644720D+00  9.0789882982356D-01
    78  7.7000000000000D-01  1.0430708942667D+00  9.3539053040756D-01
    79  7.8000000000000D-01  1.0158116236117D+00  9.6041075578899D-01
    80  7.9000000000000D-01  9.8802753751727D-01  9.8293237192342D-01
    81  8.0000000000000D-01  9.5979079170411D-01  1.0029416312296D+00
    82  8.1000000000000D-01  9.3117398020626D-01  1.0204385327111D+00
    83  8.2000000000000D-01  9.0224979576003D-01  1.0354371202742D+00
    84  8.3000000000000D-01  8.7309068489992D-01  1.0479657128345D+00
    85  8.4000000000000D-01  8.4376849979017D-01  1.0580670595498D+00
    86  8.5000000000000D-01  8.1435414892172D-01  1.0657984132750D+00
    87  8.6000000000000D-01  7.8491724889971D-01  1.0712315151022D+00
    88  8.7000000000000D-01  7.5552577963580D-01  1.0744524826256D+00
    89  8.8000000000000D-01  7.2624574534122D-01  1.0755615943652D+00
    90  8.9000000000000D-01  6.9714084379131D-01  1.0746729625921D+00
    91  9.0000000000000D-01  6.6827214639872D-01  1.0719140866204D+00
    92  9.1000000000000D-01  6.3969779169112D-01  1.0674252784776D+00
    93  9.2000000000000D-01  6.1147269483905D-01  1.0613589527281D+00
    94  9.3000000000000D-01  5.8364827592031D-01  1.0538787721089D+00
    95  9.4000000000000D-01  5.5627220963926D-01  1.0451586405492D+00
    96  9.5000000000000D-01  5.2938819924146D-01  1.0353815350760D+00
    97  9.6000000000000D-01  5.0303577737634D-01  1.0247381680691D+00
    98  9.7000000000000D-01  4.7725013666372D-01  1.0134254713168D+00
    99  9.8000000000000D-01  4.5206199271201D-01  1.0016448933359D+00
   100  9.9000000000000D-01  4.2749748231901D-01  9.8960050146804D-01
   101  1.0000000000000D+00  4.0357809955774D-01  9.7749688033594D-01
   102  1.0100000000000D+00  3.8032067241275D-01  9.6553681835054D-01
   103  1.0200000000000D+00  3.5773738258386D-01  9.5391877409579D-01
   104  1.0300000000000D+00  3.3583583101506D-01  9.4283411459256D-01
   105  1.0400000000000D+00  3.1461915164126D-01  9.3246411763457D-01
   106  1.0500000000000D+00  2.9408617576561D-01  9.2297673063103D-01
   107  1.0600000000000D+00  2.7423164939241D-01  9.1452307865772D-01
   108  1.0700000000000D+00  2.5504650574652D-01  9.0723371471106D-01
   109  1.0800000000000D+00  2.3651819520658D-01  9.0121460748571D-01
   110  1.0900000000000D+00  2.1863107685682D-01  8.9654291181897D-01
   111  1.1000000000000D+00  2.0136684326824D-01  8.9326186836169D-01
   112  1.1100000000000D+00  1.8470511943317D-01  8.9137770414597D-01
   113  1.1200000000000D+00  1.6862395195934D-01  8.9085263633319D-01
   114  1.1300000000000D+00  1.5309973981155D-01  8.9158583460943D-01
   115  1.1400000000000D+00  1.3810846638014D-01  8.9341092809173D-01
   116  1.1500000000000D+00  1.2362738579643D-01  8.9610703805210D-01
   117  1.1600000000000D+00  1.0963667326408D-01  8.9941827034255D-01
   118  1.1700000000000D+00  9.6120409508777D-02  9.0307203100909D-01
   119  1.1800000000000D+00  8.3067048099770D-02  9.0679641070595D-01
   120  1.1900000000000D+00  7.0469392176502D-02  9.1033476733189D-01
   121  1.2000000000000D+00  5.8324177192589D-02  9.1345672257156D-01
   122  1.2100000000000D+00  4.6631386348086D-02  9.1596516566922D-01
   123  1.2200000000000D+00  3.5393433129175D-02  9.1769962072543D-01
   124  1.2300000000000D+00  2.4614311392854D-02  9.1853653059998D-01
   125  1.2400000000000D+00  1.4298799902097D-02  9.1838715664025D-01
   126  1.2500000000000D+00  4.4517785947560D-03  9.1719396343086D-01
   127  1.2600000000000D+00 -4.9223265353014D-03  9.1492614032462D-01
   128  1.2700000000000D+00 -1.3819957754446D-02  9.1157483480210D-01
   129  1.2800000000000D+00 -2.2238709730470D-02  9.0714858287209D-01
   130  1.2900000000000D+00 -3.0177504831601D-02  9.0166911914170D-01
   131  1.3000000000000D+00 -3.7636676562275D-02  8.9516776621004D-01
   132  1.3100000000000D+00 -4.4617986360973D-02  8.8768245677085D-01
   133  1.3200000000000D+00 -5.1124590302763D-02  8.7925533740750D-01
   134  1.3300000000000D+00 -5.7160972996721D-02  8.6993093707205D-01
   135  1.3400000000000D+00 -6.2732862371823D-02  8.5975480201160D-01
   136  1.3500000000000D+00 -6.7847132414662D-02  8.4877252729104D-01
   137  1.3600000000000D+00 -7.2511703526754D-02  8.3702910484039D-01
   138  1.3700000000000D+00 -7.6735443331886D-02  8.2456851129515D-01
   139  1.3800000000000D+00 -8.0528070784707D-02  8.1143348723809D-01
   140  1.3900000000000D+00 -8.3900066755066D-02  7.9766544312404D-01
   141  1.4000000000000D+00 -8.6862590033715D-02  7.8330446719211D-01
   142  1.4100000000000D+00 -8.9427400106340D-02  7.6838939200962D-01
   143  1.4200000000000D+00 -9.1606786063063D-02  7.5295789941090D-01
   144  1.4300000000000D+00 -9.3413501240160D-02  7.3704665150618D-01
   145  1.4400000000000D+00 -9.4860703166319D-02  7.2069142388424D-01
   146  1.4500000000000D+00 -9.5961898095008D-02  7.0392724190380D-01
   147  1.4600000000000D+00 -9.6730889648906D-02  6.8678850682501D-01
   148  1.4700000000000D+00 -9.7181730920443D-02  6.6930910990255D-01
   149  1.4800000000000D+00 -9.7328679674015D-02  6.5152253231192D-01
   150  1.4900000000000D+00 -9.7186155995429D-02  6.3346192687802D-01
   151  1.5000000000000D+00 -9.6768702245007D-02  6.1516018400583D-01
   152  1.5100000000000D+00 -9.6090944752258D-02  5.9664997910001D-01
   153  1.5200000000000D+00 -9.5167557164198D-02  5.7796380390953D-01
   154  1.5300000000000D+00 -9.4013225116838D-02  5.5913398144681D-01
   155  1.5400000000000D+00 -9.2642612090551D-02  5.4019266612297D-01
   156  1.5500000000000D+00 -9.1070326360930D-02  5.2117183014552D-01
   157  1.5600000000000D+00 -8.9310888857335D-02  5.0210323753077D-01
   158  1.5700000000000D+00 -8.7378702015958D-02  4.8301840716430D-01
   159  1.5800000000000D+00 -8.5288019432502D-02  4.6394856636053D-01
   160  1.5900000000000D+00 -8.3052916485052D-02  4.4492459620854D-01
   161  1.6000000000000D+00 -8.0687261788162D-02  4.2597697036434D-01
   162  1.6100000000000D+00 -7.8204689643586D-02  4.0713568828837D-01
   163  1.6200000000000D+00 -7.5618573434224D-02  3.8843020462150D-01
   164  1.6300000000000D+00 -7.2942000090879D-02  3.6988935552095D-01
   165  1.6400000000000D+00 -7.0187745645469D-02  3.5154128351370D-01
   166  1.6500000000000D+00 -6.7368251969610D-02  3.3341336156487D-01
   167  1.6600000000000D+00 -6.4495604746702D-02  3.1553211768969D-01
   168  1.6700000000000D+00 -6.1581512756498D-02  2.9792316072146D-01
   169  1.6800000000000D+00 -5.8637288532024D-02  2.8061110832301D-01
   170  1.6900000000000D+00 -5.5673830450630D-02  2.6361951774281D-01
   171  1.7000000000000D+00 -5.2701606318723D-02  2.4697082019989D-01
   172  1.7100000000000D+00 -4.9730638492511D-02  2.3068625925070D-01
   173  1.7200000000000D+00 -4.6770490590491D-02  2.1478583387601D-01
   174  1.7300000000000D+00 -4.3830255814665D-02  1.9928824645639D-01
   175  1.7400000000000D+00 -4.0918546936458D-02  1.8421085630304D-01
   176  1.7500000000000D+00 -3.8043487928501D-02  1.6956963867356D-01
   177  1.7600000000000D+00 -3.5212707305917D-02  1.5537914993148D-01
   178  1.7700000000000D+00 -3.2433333114000D-02  1.4165249852177D-01
   179  1.7800000000000D+00 -2.9711989642991D-02  1.2840132247262D-01
   180  1.7900000000000D+00 -2.7054795753477D-02  1.1563577280853D-01
   181  1.8000000000000D+00 -2.4467364916573D-02  1.0336450366466D-01
   182  1.8100000000000D+00 -2.1954806797911D-02  9.1594668224664D-02
   183  1.8200000000000D+00 -1.9521730510935D-02  8.0331921337226D-02
   184  1.8300000000000D+00 -1.7172249331873D-02  6.9580427775989D-02
   185  1.8400000000000D+00 -1.4909986989472D-02  5.9342876885946D-02
   186  1.8500000000000D+00 -1.2738085335427D-02  4.9620502690508D-02
   187  1.8600000000000D+00 -1.0659213447474D-02  4.0413109847331D-02
   188  1.8700000000000D+00 -8.6755780249465D-03  3.1719104829132D-02
   189  1.8800000000000D+00 -6.7889350500032D-03  2.3535532300034D-02
   190  1.8900000000000D+00 -5.0006026342463D-03  1.5858116377272D-02
   191  1.9000000000000D+00 -3.3114749521323D-03  8.6813063729972D-03
   192  1.9100000000000D+00 -1.7220372281083D-03  1.9983269552221D-03
   193  1.9200000000000D+00 -2.3238163308136D-04 -4.1987679261537D-03
   194  1.9300000000000D+00  1.1577759268169D-03 -9.9190373044085D-03
   195  1.9400000000000D+00  2.4490782734558D-03 -1.5172592333881D-02
   196  1.9500000000000D+00  3.6425087217721D-03 -1.9970532410386D-02
   197  1.9600000000000D+00  4.7393722509860D-03 -2.4324878754521D-02
   198  1.9700000000000D+00  5.7412761704469D-03 -2.8248505788095D-02
   199  1.9800000000000D+00  6.6501103666235D-03 -3.1755070650580D-02
   200  1.9900000000000D+00  7.4680272113714D-03 -3.4858941221124D-02
   201  2.0000000000000D+00  8.1974212505194D-03 -3.7575123074466D-02
   202  2.0100000000000D+00  8.8409087040845D-03 -3.9919185571939D-02
   203  2.0200000000000D+00  9.4013069340766D-03 -4.1907187671881D-02
   204  2.0300000000000D+00  9.8816139010723D-03 -4.3555603591342D-02
   205  2.0400000000000D+00  1.0284987717052D-02 -4.4881248754843D-02
   206  2.0500000000000D+00  1.0614726410633D-02 -4.5901206500795D-02
   207  2.0600000000000D+00  1.0874247864761D-02 -4.6632755423142D-02
   208  2.0700000000000D+00  1.1067070180636D-02 -4.7093298363775D-02
   209  2.0800000000000D+00  1.1196792348506D-02 -4.7300292604397D-02
   210  2.0900000000000D+00  1.1267075418703D-02 -4.7271182048578D-02
   211  2.1000000000000D+00  1.1281624225008D-02 -4.7023331621162D-02
   212  2.1100000000000D+00  1.1244169586232D-02 -4.6573963591388D-02
   213  2.1200000000000D+00  1.1158451290256D-02 -4.5940097090447D-02
   214  2.1300000000000D+00  1.1028201632769D-02 -4.5138489880295D-02
   215  2.1400000000000D+00  1.0857129747880D-02 -4.4185583376132D-02
   216  2.1500000000000D+00  1.0648906752423D-02 -4.3097451021991D-02
   217  2.1600000000000D+00  1.0407151550574D-02 -4.1889749366617D-02
   218  2.1700000000000D+00  1.0135417675375D-02 -4.0577673459961D-02
   219  2.1800000000000D+00  9.8371808420574D-03 -3.9175915170576D-02
   220  2.1900000000000D+00  9.5158274287550D-03 -3.7698625359012D-02
   221  2.2000000000000D+00  9.1746439451186D-03 -3.6159380174844D-02
   222  2.2100000000000D+00  8.8168072448340D-03 -3.4571150405800D-02
   223  2.2200000000000D+00  8.4453758386188D-03 -3.2946275451681D-02
   224  2.2300000000000D+00  8.0632820486229D-03 -3.1296440778418D-02
   225  2.2400000000000D+00  7.6733250243734D-03 -2.9632658939240D-02
   226  2.2500000000000D+00  7.2781648389895D-03 -2.7965255143404D-02
   227  2.2600000000000D+00  6.8803173226664D-03 -2.6303855833458D-02
   228  2.2700000000000D+00  6.4821498653593D-03 -2.4657381316211D-02
   229  2.2800000000000D+00  6.0858781359179D-03 -2.3034042207980D-02
   230  2.2900000000000D+00  5.6935635009495D-03 -2.1441338731182D-02
   231  2.3000000000000D+00  5.3071114197074D-03 -1.9886064082310D-02
   232  2.3100000000000D+00  4.9282705624869D-03 -1.8374310761330D-02
   233  2.3200000000000D+00  4.5586325789153D-03 -1.6911479422091D-02
   234  2.3300000000000D+00  4.1996327945878D-03 -1.5502291780739D-02
   235  2.3400000000000D+00  3.8525514731374D-03 -1.4150805755243D-02
   236  2.3500000000000D+00  3.5185157225731D-03 -1.2860433184094D-02
   237  2.3600000000000D+00  3.1985019531036D-03 -1.1633959459951D-02
   238  2.3700000000000D+00  2.8933387128965D-03 -1.0473564317303D-02
   239  2.3800000000000D+00  2.6037102759781D-03 -9.3808462724146D-03
   240  2.3900000000000D+00  2.3301606927961D-03 -8.3568488551177D-03
   241  2.4000000000000D+00  2.0730984047043D-03 -7.4020895848045D-03
   242  2.4100000000000D+00  1.8328007438383D-03 -6.5165868647990D-03
   243  2.4200000000000D+00  1.6094189001804D-03 -5.6998891469075D-03
   244  2.4300000000000D+00  1.4029828732099D-03 -4.9511029870617D-03
   245  2.4400000000000D+00  1.2134070910036D-03 -4.2689251300732D-03
   246  2.4500000000000D+00  1.0404958870659D-03 -3.6516728863159D-03
   247  2.4600000000000D+00  8.8394932053891D-04 -3.0973162304990D-03
   248  2.4700000000000D+00  7.4336861440504D-04 -2.6035070573631D-03
   249  2.4800000000000D+00  6.1826180247891D-04 -2.1676094780448D-03
   250  2.4900000000000D+00  5.0804931544654D-04 -1.7867292955158D-03
   251  2.5000000000000D+00  4.1206934888941D-04 -1.4577423218381D-03
   252  2.5100000000000D+00  3.2958312963015D-04 -1.1773217628929D-03
   253  2.5200000000000D+00  2.5978009139680D-04 -9.4196486400601D-04
   254  2.5300000000000D+00  2.0178978877211D-04 -7.4806187002890D-04
   255  2.5400000000000D+00  1.5470827553451D-04 -5.9205478367653D-04
   256  2.5500000000000D+00  1.1744257844256D-04 -4.6946515890493D-04
   257  2.5600000000000D+00  8.8881492884119D-05 -3.7597951796990D-04
   258  2.5700000000000D+00  6.7585959004456D-05 -3.0569610774621D-04
   259  2.5800000000000D+00  5.3348484010999D-05 -2.5984544912327D-04
   260  2.5900000000000D+00  4.5221400723064D-05 -2.3572642306791D-04
   261  2.6000000000000D+00  4.3256327502951D-05 -2.3608833006333D-04
   262  2.6100000000000D+00  4.2260561701514D-05 -2.3526878133157D-04
   263  2.6200000000000D+00  3.8867104321498D-05 -2.1729066031617D-04
   264  2.6300000000000D+00  2.8308115137115D-05 -1.5832748862099D-04
   265  2.6400000000000D+00  1.4904045629603D-05 -8.3252394005404D-05
   266  2.6500000000000D+00  2.4704334892629D-06 -1.3773015616316D-05
   267  2.6600000000000D+00 -3.3237652800995D-06  1.8668568887269D-05
   268  2.6700000000000D+00 -3.7447861610064D-06  2.1032145143573D-05
   269  2.6800000000000D+00 -1.3233628826220D-06  7.4312867616294D-06
   270  2.6900000000000D+00  5.5436269071801D-07 -3.1280062791321D-06
   271  2.7000000000000D+00  8.9223100592166D-07 -5.0366158438900D-06
   272  2.7100000000000D+00  4.8080899967568D-07 -2.7151402795133D-06
   273  2.7200000000000D+00 -4.1769607402889D-08  2.3350516054265D-07
   274  2.7300000000000D+00 -1.0685228029158D-07  5.9733764368844D-07
   275  2.7400000000000D+00 -7.9433305928130D-08  4.4405700715058D-07
   276  2.7500000000000D+00  0.0000000000000D+00  0.0000000000000D+00
   277  2.7600000000000D+00  0.0000000000000D+00  0.0000000000000D+00
   278  2.7700000000000D+00  0.0000000000000D+00  0.0000000000000D+00
   279  2.7800000000000D+00  0.0000000000000D+00  0.0000000000000D+00
   280  2.7900000000000D+00  0.0000000000000D+00  0.0000000000000D+00
   281  2.8000000000000D+00  0.0000000000000D+00  0.0000000000000D+00
   282  2.8100000000000D+00  0.0000000000000D+00  0.0000000000000D+00
   283  2.8200000000000D+00  0.0000000000000D+00  0.0000000000000D+00
   284  2.8300000000000D+00  0.0000000000000D+00  0.0000000000000D+00
   285  2.8400000000000D+00  0.0000000000000D+00  0.0000000000000D+00
   286  2.8500000000000D+00  0.0000000000000D+00  0.0000000000000D+00
   287  2.8600000000000D+00  0.0000000000000D+00  0.0000000000000D+00
   288  2.8700000000000D+00  0.0000000000000D+00  0.0000000000000D+00
   289  2.8800000000000D+00  0.0000000000000D+00  0.0000000000000D+00
   290  2.8900000000000D+00  0.0000000000000D+00  0.0000000000000D+00
   291  2.9000000000000D+00  0.0000000000000D+00  0.0000000000000D+00
   292  2.9100000000000D+00  0.0000000000000D+00  0.0000000000000D+00
   293  2.9200000000000D+00  0.0000000000000D+00  0.0000000000000D+00
   294  2.9300000000000D+00  0.0000000000000D+00  0.0000000000000D+00
   295  2.9400000000000D+00  0.0000000000000D+00  0.0000000000000D+00
   296  2.9500000000000D+00  0.0000000000000D+00  0.0000000000000D+00
   297  2.9600000000000D+00  0.0000000000000D+00  0.0000000000000D+00
   298  2.9700000000000D+00  0.0000000000000D+00  0.0000000000000D+00
   299  2.9800000000000D+00  0.0000000000000D+00  0.0000000000000D+00
   300  2.9900000000000D+00  0.0000000000000D+00  0.0000000000000D+00
   301  3.0000000000000D+00  0.0000000000000D+00  0.0000000000000D+00
   302  3.0100000000000D+00  0.0000000000000D+00  0.0000000000000D+00
   303  3.0200000000000D+00  0.0000000000000D+00  0.0000000000000D+00
   304  3.0300000000000D+00  0.0000000000000D+00  0.0000000000000D+00
   305  3.0400000000000D+00  0.0000000000000D+00  0.0000000000000D+00
   306  3.0500000000000D+00  0.0000000000000D+00  0.0000000000000D+00
   307  3.0600000000000D+00  0.0000000000000D+00  0.0000000000000D+00
   308  3.0700000000000D+00  0.0000000000000D+00  0.0000000000000D+00
   309  3.0800000000000D+00  0.0000000000000D+00  0.0000000000000D+00
   310  3.0900000000000D+00  0.0000000000000D+00  0.0000000000000D+00
   311  3.1000000000000D+00  0.0000000000000D+00  0.0000000000000D+00
   312  3.1100000000000D+00  0.0000000000000D+00  0.0000000000000D+00
   313  3.1200000000000D+00  0.0000000000000D+00  0.0000000000000D+00
   314  3.1300000000000D+00  0.0000000000000D+00  0.0000000000000D+00
   315  3.1400000000000D+00  0.0000000000000D+00  0.0000000000000D+00
   316  3.1500000000000D+00  0.0000000000000D+00  0.0000000000000D+00
   317  3.1600000000000D+00  0.0000000000000D+00  0.0000000000000D+00
   318  3.1700000000000D+00  0.0000000000000D+00  0.0000000000000D+00
   319  3.1800000000000D+00  0.0000000000000D+00  0.0000000000000D+00
   320  3.1900000000000D+00  0.0000000000000D+00  0.0000000000000D+00
   321  3.2000000000000D+00  0.0000000000000D+00  0.0000000000000D+00
   322  3.2100000000000D+00  0.0000000000000D+00  0.0000000000000D+00
   323  3.2200000000000D+00  0.0000000000000D+00  0.0000000000000D+00
   324  3.2300000000000D+00  0.0000000000000D+00  0.0000000000000D+00
   325  3.2400000000000D+00  0.0000000000000D+00  0.0000000000000D+00
   326  3.2500000000000D+00  0.0000000000000D+00  0.0000000000000D+00
   327  3.2600000000000D+00  0.0000000000000D+00  0.0000000000000D+00
   328  3.2700000000000D+00  0.0000000000000D+00  0.0000000000000D+00
   329  3.2800000000000D+00  0.0000000000000D+00  0.0000000000000D+00
   330  3.2900000000000D+00  0.0000000000000D+00  0.0000000000000D+00
   331  3.3000000000000D+00  0.0000000000000D+00  0.0000000000000D+00
   332  3.3100000000000D+00  0.0000000000000D+00  0.0000000000000D+00
   333  3.3200000000000D+00  0.0000000000000D+00  0.0000000000000D+00
   334  3.3300000000000D+00  0.0000000000000D+00  0.0000000000000D+00
   335  3.3400000000000D+00  0.0000000000000D+00  0.0000000000000D+00
   336  3.3500000000000D+00  0.0000000000000D+00  0.0000000000000D+00
   337  3.3600000000000D+00  0.0000000000000D+00  0.0000000000000D+00
   338  3.3700000000000D+00  0.0000000000000D+00  0.0000000000000D+00
   339  3.3800000000000D+00  0.0000000000000D+00  0.0000000000000D+00
   340  3.3900000000000D+00  0.0000000000000D+00  0.0000000000000D+00
   341  3.4000000000000D+00  0.0000000000000D+00  0.0000000000000D+00
   342  3.4100000000000D+00  0.0000000000000D+00  0.0000000000000D+00
   343  3.4200000000000D+00  0.0000000000000D+00  0.0000000000000D+00
   344  3.4300000000000D+00  0.0000000000000D+00  0.0000000000000D+00
   345  3.4400000000000D+00  0.0000000000000D+00  0.0000000000000D+00
   346  3.4500000000000D+00  0.0000000000000D+00  0.0000000000000D+00
   347  3.4600000000000D+00  0.0000000000000D+00  0.0000000000000D+00
   348  3.4700000000000D+00  0.0000000000000D+00  0.0000000000000D+00
   349  3.4800000000000D+00  0.0000000000000D+00  0.0000000000000D+00
   350  3.4900000000000D+00  0.0000000000000D+00  0.0000000000000D+00
   351  3.5000000000000D+00  0.0000000000000D+00  0.0000000000000D+00
   352  3.5100000000000D+00  0.0000000000000D+00  0.0000000000000D+00
   353  3.5200000000000D+00  0.0000000000000D+00  0.0000000000000D+00
   354  3.5300000000000D+00  0.0000000000000D+00  0.0000000000000D+00
   355  3.5400000000000D+00  0.0000000000000D+00  0.0000000000000D+00
   356  3.5500000000000D+00  0.0000000000000D+00  0.0000000000000D+00
   357  3.5600000000000D+00  0.0000000000000D+00  0.0000000000000D+00
   358  3.5700000000000D+00  0.0000000000000D+00  0.0000000000000D+00
   359  3.5800000000000D+00  0.0000000000000D+00  0.0000000000000D+00
   360  3.5900000000000D+00  0.0000000000000D+00  0.0000000000000D+00
   361  3.6000000000000D+00  0.0000000000000D+00  0.0000000000000D+00
   362  3.6100000000000D+00  0.0000000000000D+00  0.0000000000000D+00
   363  3.6200000000000D+00  0.0000000000000D+00  0.0000000000000D+00
   364  3.6300000000000D+00  0.0000000000000D+00  0.0000000000000D+00
   365  3.6400000000000D+00  0.0000000000000D+00  0.0000000000000D+00
   366  3.6500000000000D+00  0.0000000000000D+00  0.0000000000000D+00
   367  3.6600000000000D+00  0.0000000000000D+00  0.0000000000000D+00
   368  3.6700000000000D+00  0.0000000000000D+00  0.0000000000000D+00
   369  3.6800000000000D+00  0.0000000000000D+00  0.0000000000000D+00
   370  3.6900000000000D+00  0.0000000000000D+00  0.0000000000000D+00
   371  3.7000000000000D+00  0.0000000000000D+00  0.0000000000000D+00
   372  3.7100000000000D+00  0.0000000000000D+00  0.0000000000000D+00
   373  3.7200000000000D+00  0.0000000000000D+00  0.0000000000000D+00
   374  3.7300000000000D+00  0.0000000000000D+00  0.0000000000000D+00
   375  3.7400000000000D+00  0.0000000000000D+00  0.0000000000000D+00
   376  3.7500000000000D+00  0.0000000000000D+00  0.0000000000000D+00
   377  3.7600000000000D+00  0.0000000000000D+00  0.0000000000000D+00
   378  3.7700000000000D+00  0.0000000000000D+00  0.0000000000000D+00
   379  3.7800000000000D+00  0.0000000000000D+00  0.0000000000000D+00
   380  3.7900000000000D+00  0.0000000000000D+00  0.0000000000000D+00
   381  3.8000000000000D+00  0.0000000000000D+00  0.0000000000000D+00
   382  3.8100000000000D+00  0.0000000000000D+00  0.0000000000000D+00
   383  3.8200000000000D+00  0.0000000000000D+00  0.0000000000000D+00
   384  3.8300000000000D+00  0.0000000000000D+00  0.0000000000000D+00
   385  3.8400000000000D+00  0.0000000000000D+00  0.0000000000000D+00
   386  3.8500000000000D+00  0.0000000000000D+00  0.0000000000000D+00
   387  3.8600000000000D+00  0.0000000000000D+00  0.0000000000000D+00
   388  3.8700000000000D+00  0.0000000000000D+00  0.0000000000000D+00
   389  3.8800000000000D+00  0.0000000000000D+00  0.0000000000000D+00
   390  3.8900000000000D+00  0.0000000000000D+00  0.0000000000000D+00
   391  3.9000000000000D+00  0.0000000000000D+00  0.0000000000000D+00
   392  3.9100000000000D+00  0.0000000000000D+00  0.0000000000000D+00
   393  3.9200000000000D+00  0.0000000000000D+00  0.0000000000000D+00
   394  3.9300000000000D+00  0.0000000000000D+00  0.0000000000000D+00
   395  3.9400000000000D+00  0.0000000000000D+00  0.0000000000000D+00
   396  3.9500000000000D+00  0.0000000000000D+00  0.0000000000000D+00
   397  3.9600000000000D+00  0.0000000000000D+00  0.0000000000000D+00
   398  3.9700000000000D+00  0.0000000000000D+00  0.0000000000000D+00
   399  3.9800000000000D+00  0.0000000000000D+00  0.0000000000000D+00
   400  3.9900000000000D+00  0.0000000000000D+00  0.0000000000000D+00
   401  4.0000000000000D+00  0.0000000000000D+00  0.0000000000000D+00
   402  4.0100000000000D+00  0.0000000000000D+00  0.0000000000000D+00
   403  4.0200000000000D+00  0.0000000000000D+00  0.0000000000000D+00
   404  4.0300000000000D+00  0.0000000000000D+00  0.0000000000000D+00
   405  4.0400000000000D+00  0.0000000000000D+00  0.0000000000000D+00
   406  4.0500000000000D+00  0.0000000000000D+00  0.0000000000000D+00
   407  4.0600000000000D+00  0.0000000000000D+00  0.0000000000000D+00
   408  4.0700000000000D+00  0.0000000000000D+00  0.0000000000000D+00
   409  4.0800000000000D+00  0.0000000000000D+00  0.0000000000000D+00
   410  4.0900000000000D+00  0.0000000000000D+00  0.0000000000000D+00
   411  4.1000000000000D+00  0.0000000000000D+00  0.0000000000000D+00
   412  4.1100000000000D+00  0.0000000000000D+00  0.0000000000000D+00
   413  4.1200000000000D+00  0.0000000000000D+00  0.0000000000000D+00
   414  4.1300000000000D+00  0.0000000000000D+00  0.0000000000000D+00
   415  4.1400000000000D+00  0.0000000000000D+00  0.0000000000000D+00
   416  4.1500000000000D+00  0.0000000000000D+00  0.0000000000000D+00
   417  4.1600000000000D+00  0.0000000000000D+00  0.0000000000000D+00
   418  4.1700000000000D+00  0.0000000000000D+00  0.0000000000000D+00
   419  4.1800000000000D+00  0.0000000000000D+00  0.0000000000000D+00
   420  4.1900000000000D+00  0.0000000000000D+00  0.0000000000000D+00
   421  4.2000000000000D+00  0.0000000000000D+00  0.0000000000000D+00
   422  4.2100000000000D+00  0.0000000000000D+00  0.0000000000000D+00
   423  4.2200000000000D+00  0.0000000000000D+00  0.0000000000000D+00