Pd    ONCVPSP-3.3.1  r_core=   2.47094   2.44164   2.24604
     46.0000     18.0000      210904    zatom,zion,pspd
     8      11   2     4   600     0    pspcod,pspxc,lmax,lloc,mmax,r2well
  5.99000000  0.00000000  0.00000000    rchrg fchrg qchrg
     2     4     3     0    nproj
     3     1           extension_switch
     4     4     0    nprojso
   0                         8.7138041894318D-01  4.8991285656596D+00
     1  0.0000000000000D+00 -1.4454826224863D-12 -3.6511349499335D-12
     2  1.0000000000000D-02 -8.6181675896825D-03  5.7707683387386D-02
     3  2.0000000000000D-02 -1.7193022059440D-02  1.1532341663574D-01
     4  3.0000000000000D-02 -2.5681323545764D-02  1.7275542744074D-01
     5  4.0000000000000D-02 -3.4039978682729D-02  2.2991229878968D-01
     6  5.0000000000000D-02 -4.2226113812307D-02  2.8670314566381D-01
     7  6.0000000000000D-02 -5.0197148147487D-02  3.4303779061097D-01
     8  7.0000000000000D-02 -5.7910866870776D-02  3.9882693781637D-01
     9  8.0000000000000D-02 -6.5325494149180D-02  4.5398234530281D-01
    10  9.0000000000000D-02 -7.2399766044961D-02  5.0841699489626D-01
    11  1.0000000000000D-01 -7.9093003299222D-02  5.6204525959812D-01
    12  1.1000000000000D-01 -8.5365183962761D-02  6.1478306801168D-01
    13  1.2000000000000D-01 -9.1177015845736D-02  6.6654806547743D-01
    14  1.3000000000000D-01 -9.6490008754185D-02  7.1725977157958D-01
    15  1.4000000000000D-01 -1.0126654647777D-01  7.6683973369508D-01
    16  1.5000000000000D-01 -1.0546995848889D-01  8.1521167626542D-01
    17  1.6000000000000D-01 -1.0906459130870D-01  8.6230164548184D-01
    18  1.7000000000000D-01 -1.1201587949070D-01  9.0803814908530D-01
    19  1.8000000000000D-01 -1.1429041616697D-01  9.5235229099362D-01
    20  1.9000000000000D-01 -1.1585602309653D-01  9.9517790048067D-01
    21  2.0000000000000D-01 -1.1668182014896D-01  1.0364516556445D+00
    22  2.1000000000000D-01 -1.1673829414989D-01  1.0761132009147D+00
    23  2.2000000000000D-01 -1.1599736700816D-01  1.1141052583622D+00
    24  2.3000000000000D-01 -1.1443246303664D-01  1.1503737325895D+00
    25  2.4000000000000D-01 -1.1201857537182D-01  1.1848678089932D+00
    26  2.5000000000000D-01 -1.0873233138847D-01  1.2175400452039D+00
    27  2.6000000000000D-01 -1.0455205699813D-01  1.2483464555267D+00
    28  2.7000000000000D-01 -9.9457839711118D-02  1.2772465882175D+00
    29  2.8000000000000D-01 -9.3431590333411D-02  1.3042035954472D+00
    30  2.9000000000000D-01 -8.6457103160717D-02  1.3291842958214D+00
    31  3.0000000000000D-01 -7.8520114522995D-02  1.3521592293384D+00
    32  3.1000000000000D-01 -6.9608359523754D-02  1.3731027046844D+00
    33  3.2000000000000D-01 -5.9711626809345D-02  1.3919928387815D+00
    34  3.3000000000000D-01 -4.8821811194459D-02  1.4088115885170D+00
    35  3.4000000000000D-01 -3.6932963961200D-02  1.4235447746029D+00
    36  3.5000000000000D-01 -2.4041340640554D-02  1.4361820975262D+00
    37  3.6000000000000D-01 -1.0145446076635D-02  1.4467171455686D+00
    38  3.7000000000000D-01  4.7539234337878D-03  1.4551473948889D+00
    39  3.8000000000000D-01  2.0653641141389D-02  1.4614742016787D+00
    40  3.9000000000000D-01  3.7548214206023D-02  1.4657027864136D+00
    41  4.0000000000000D-01  5.5429751648003D-02  1.4678422102432D+00
    42  4.1000000000000D-01  7.4287936122724D-02  1.4679053435711D+00
    43  4.2000000000000D-01  9.4109999756621D-02  1.4659088268987D+00
    44  4.3000000000000D-01  1.1488070428649D-01  1.4618730240146D+00
    45  4.4000000000000D-01  1.3658232574651D-01  1.4558219676302D+00
    46  4.5000000000000D-01  1.5919464394898D-01  1.4477832975742D+00
    47  4.6000000000000D-01  1.8269493700472D-01  1.4377881916749D+00
    48  4.7000000000000D-01  2.0705798112833D-01  1.4258712894687D+00
    49  4.8000000000000D-01  2.3225605597034D-01  1.4120706088936D+00
    50  4.9000000000000D-01  2.5825895571492D-01  1.3964274561315D+00
    51  5.0000000000000D-01  2.8503400617524D-01  1.3789863287845D+00
    52  5.1000000000000D-01  3.1254608811206D-01  1.3597948125752D+00
    53  5.2000000000000D-01  3.4075766699138D-01  1.3389034717815D+00
    54  5.3000000000000D-01  3.6962882938627D-01  1.3163657336205D+00
    55  5.4000000000000D-01  3.9911732621535D-01  1.2922377668151D+00
    56  5.5000000000000D-01  4.2917862299561D-01  1.2665783545845D+00
    57  5.6000000000000D-01  4.5976595727068D-01  1.2394487623122D+00
    58  5.7000000000000D-01  4.9083040335727D-01  1.2109126001559D+00
    59  5.8000000000000D-01  5.2232094453203D-01  1.1810356808762D+00
    60  5.9000000000000D-01  5.5418455275881D-01  1.1498858731691D+00
    61  6.0000000000000D-01  5.8636627603191D-01  1.1175329507986D+00
    62  6.1000000000000D-01  6.1880933338504D-01  1.0840484378364D+00
    63  6.2000000000000D-01  6.5145521758765D-01  1.0495054503233D+00
    64  6.3000000000000D-01  6.8424380552075D-01  1.0139785346778D+00
    65  6.4000000000000D-01  7.1711347619283D-01  9.7754350318516D-01
    66  6.5000000000000D-01  7.5000123632404D-01  9.4027726690951D-01
    67  6.6000000000000D-01  7.8284285339200D-01  9.0225766637759D-01
    68  6.7000000000000D-01  8.1557299599727D-01  8.6356330039328D-01
    69  6.8000000000000D-01  8.4812538136956D-01  8.2427335334631D-01
    70  6.9000000000000D-01  8.8043292979785D-01  7.8446742138680D-01
    71  7.0000000000000D-01  9.1242792572902D-01  7.4422533784271D-01
    72  7.1000000000000D-01  9.4404218523981D-01  7.0362699826298D-01
    73  7.2000000000000D-01  9.7520722954740D-01  6.6275218547387D-01
    74  7.3000000000000D-01  1.0058544641834D+00  6.2168039504072D-01
    75  7.4000000000000D-01  1.0359153634160D+00  5.8049066153050D-01
    76  7.5000000000000D-01  1.0653216594637D+00  5.3926138597386D-01
    77  7.6000000000000D-01  1.0940055360074D+00  4.9807016492753D-01
    78  7.7000000000000D-01  1.1218998254630D+00  4.5699362153929D-01
    79  7.8000000000000D-01  1.1489382094452D+00  4.1610723901860D-01
    80  7.9000000000000D-01  1.1750554218084D+00  3.7548519691552D-01
    81  8.0000000000000D-01  1.2001874536224D+00  3.3520021060985D-01
    82  8.1000000000000D-01  1.2242717593990D+00  2.9532337441015D-01
    83  8.2000000000000D-01  1.2472474638590D+00  2.5592400865958D-01
    84  8.3000000000000D-01  1.2690555684943D+00  2.1706951124135D-01
    85  8.4000000000000D-01  1.2896391571555D+00  1.7882521387208D-01
    86  8.5000000000000D-01  1.3089435998655D+00  1.4125424356485D-01
    87  8.6000000000000D-01  1.3269167540416D+00  1.0441738963706D-01
    88  8.7000000000000D-01  1.3435091622850D+00  6.8372976630018D-02
    89  8.8000000000000D-01  1.3586742458815D+00  3.3176743497687D-02
    90  8.9000000000000D-01  1.3723684931449D+00 -1.1182705880781D-03
    91  9.0000000000000D-01  1.3845516417225D+00 -3.4461833480220D-02
    92  9.1000000000000D-01  1.3951868539794D+00 -6.6806620024151D-02
    93  9.2000000000000D-01  1.4042408845728D+00 -9.8108304441291D-02
    94  9.3000000000000D-01  1.4116842393326D+00 -1.2832564483439D-01
    95  9.4000000000000D-01  1.4174913245683D+00 -1.5742055953669D-01
    96  9.5000000000000D-01  1.4216405859341D+00 -1.8535819504419D-01
    97  9.6000000000000D-01  1.4241146359963D+00 -2.1210698528891D-01
    98  9.7000000000000D-01  1.4249003696699D+00 -2.3763870203001D-01
    99  9.8000000000000D-01  1.4239890667086D+00 -2.6192849616053D-01
   100  9.9000000000000D-01  1.4213764804657D+00 -2.8495492974907D-01
   101  1.0000000000000D+00  1.4170629121693D+00 -3.0669999865766D-01
   102  1.0100000000000D+00  1.4110532699964D+00 -3.2714914560110D-01
   103  1.0200000000000D+00  1.4033571122643D+00 -3.4629126353649D-01
   104  1.0300000000000D+00  1.3939886741084D+00 -3.6411868929802D-01
   105  1.0400000000000D+00  1.3829668770546D+00 -3.8062718741517D-01
   106  1.0500000000000D+00  1.3703153209544D+00 -3.9581592408191D-01
   107  1.0600000000000D+00  1.3560622577980D+00 -4.0968743126905D-01
   108  1.0700000000000D+00  1.3402405469838D+00 -4.2224756099987D-01
   109  1.0800000000000D+00  1.3228875916831D+00 -4.3350542983786D-01
   110  1.0900000000000D+00  1.3040452559954D+00 -4.4347335366044D-01
   111  1.1000000000000D+00  1.2837597626671D+00 -4.5216677282364D-01
   112  1.1100000000000D+00  1.2620815712047D+00 -4.5960416784906D-01
   113  1.1200000000000D+00  1.2390652362919D+00 -4.6580696579340D-01
   114  1.1300000000000D+00  1.2147692464849D+00 -4.7079943748784D-01
   115  1.1400000000000D+00  1.1892558432323D+00 -4.7460858586067D-01
   116  1.1500000000000D+00  1.1625908203484D+00 -4.7726402558750D-01
   117  1.1600000000000D+00  1.1348433041351D+00 -4.7879785433714D-01
   118  1.1700000000000D+00  1.1060855144241D+00 -4.7924451590695D-01
   119  1.1800000000000D+00  1.0763925068768D+00 -4.7864065556593D-01
   120  1.1900000000000D+00  1.0458418969685D+00 -4.7702496795107D-01
   121  1.2000000000000D+00  1.0145135661494D+00 -4.7443803788530D-01
   122  1.2100000000000D+00  9.8248935072530D-01 -4.7092217449982D-01
   123  1.2200000000000D+00  9.4985271409903D-01 -4.6652123907538D-01
   124  1.2300000000000D+00  9.1668840307079D-01 -4.6128046703130D-01
   125  1.2400000000000D+00  8.8308208894310D-01 -4.5524628450611D-01
   126  1.2500000000000D+00  8.4911999425031D-01 -4.4846611999370D-01
   127  1.2600000000000D+00  8.1488850600024D-01 -4.4098821151591D-01
   128  1.2700000000000D+00  7.8047377634664D-01 -4.3286140981932D-01
   129  1.2800000000000D+00  7.4596131166551D-01 -4.2413497809837D-01
   130  1.2900000000000D+00  7.1143555107821D-01 -4.1485838875979D-01
   131  1.3000000000000D+00  6.7697943547127D-01 -4.0508111774379D-01
   132  1.3100000000000D+00  6.4267396811309D-01 -3.9485243692832D-01
   133  1.3200000000000D+00  6.0859776801576D-01 -3.8422120514508D-01
   134  1.3300000000000D+00  5.7482661718227D-01 -3.7323565833461D-01
   135  1.3400000000000D+00  5.4143300292881D-01 -3.6194319937353D-01
   136  1.3500000000000D+00  5.0848565647798D-01 -3.5039018809416D-01
   137  1.3600000000000D+00  4.7604908901918D-01 -3.3862173202461D-01
   138  1.3700000000000D+00  4.4418312645871D-01 -3.2668147836260D-01
   139  1.3800000000000D+00  4.1294244135105D-01 -3.1461140708318D-01
   140  1.3900000000000D+00  3.8237609783717D-01 -3.0245162892706D-01
   141  1.4000000000000D+00  3.5252705025070D-01 -2.9024017497851D-01
   142  1.4100000000000D+00  3.2343183392862D-01 -2.7801283331226D-01
   143  1.4200000000000D+00  2.9511999226308D-01 -2.6580292477343D-01
   144  1.4300000000000D+00  2.6761297188132D-01 -2.5364097115574D-01
   145  1.4400000000000D+00  2.4092635749516D-01 -2.4155509629075D-01
   146  1.4500000000000D+00  2.1507193720997D-01 -2.2957141642748D-01
   147  1.4600000000000D+00  1.9006029638806D-01 -2.1771460856558D-01
   148  1.4700000000000D+00  1.6590177429440D-01 -2.0600812405934D-01
   149  1.4800000000000D+00  1.4260556342630D-01 -1.9447401241134D-01
   150  1.4900000000000D+00  1.2017985624130D-01 -1.8313296701406D-01
   151  1.5000000000000D+00  9.8631725927300D-02 -1.7200431547605D-01
   152  1.5100000000000D+00  7.7967071336299D-02 -1.6110602525341D-01
   153  1.5200000000000D+00  5.8190540156329D-02 -1.5045470559892D-01
   154  1.5300000000000D+00  3.9305466702481D-02 -1.4006561371267D-01
   155  1.5400000000000D+00  2.1313817205019D-02 -1.2995266355125D-01
   156  1.5500000000000D+00  4.2161427567822D-03 -1.2012843730238D-01
   157  1.5600000000000D+00 -1.1988459880425D-02 -1.1060419954321D-01
   158  1.5700000000000D+00 -2.7302379709610D-02 -1.0138991401521D-01
   159  1.5800000000000D+00 -4.1729514863901D-02 -9.2494263064265D-02
   160  1.5900000000000D+00 -5.5275287865953D-02 -8.3924669706509D-02
   161  1.6000000000000D+00 -6.7946653618356D-02 -7.5687322075151D-02
   162  1.6100000000000D+00 -7.9752100305826D-02 -6.7787200147092D-02
   163  1.6200000000000D+00 -9.0701639303214D-02 -6.0228105723155D-02
   164  1.6300000000000D+00 -1.0080678786626D-01 -5.3012694633796D-02
   165  1.6400000000000D+00 -1.1008055004784D-01 -4.6142509733638D-02
   166  1.6500000000000D+00 -1.1853738883527D-01 -3.9618016431333D-02
   167  1.6600000000000D+00 -1.2619318470276D-01 -3.3438641952490D-02
   168  1.6700000000000D+00 -1.3306519014485D-01 -2.7602815816231D-02
   169  1.6800000000000D+00 -1.3917198235869D-01 -2.2108010922581D-02
   170  1.6900000000000D+00 -1.4453340789472D-01 -1.6950786787517D-02
   171  1.7000000000000D+00 -1.4917051947050D-01 -1.2126834828916D-02
   172  1.7100000000000D+00 -1.5310550855791D-01 -7.6310247182506D-03
   173  1.7200000000000D+00 -1.5636163344820D-01 -3.4574518247272D-03
   174  1.7300000000000D+00 -1.5896314254464D-01  4.0051423599252D-04
   175  1.7400000000000D+00 -1.6093519344009D-01  3.9501801442255D-03
   176  1.7500000000000D+00 -1.6230376846832D-01  7.1994787358125D-03
   177  1.7600000000000D+00 -1.6309558697864D-01  1.0156918299384D-02
   178  1.7700000000000D+00 -1.6333801493722D-01  1.2831531507441D-02
   179  1.7800000000000D+00 -1.6305897222167D-01  1.5232824139287D-02
   180  1.7900000000000D+00 -1.6228683816351D-01  1.7370723766468D-02
   181  1.8000000000000D+00 -1.6105035578606D-01  1.9255528590540D-02
   182  1.8100000000000D+00 -1.5937853519773D-01  2.0897856562963D-02
   183  1.8200000000000D+00 -1.5730055670420D-01  2.2308595016682D-02
   184  1.8300000000000D+00 -1.5484567397633D-01  2.3498850895666D-02
   185  1.8400000000000D+00 -1.5204311792122D-01  2.4479901832575D-02
   186  1.8500000000000D+00 -1.4892200152131D-01  2.5263148142888D-02
   187  1.8600000000000D+00 -1.4551122627678D-01  2.5860065967304D-02
   188  1.8700000000000D+00 -1.4183939055194D-01  2.6282161654114D-02
   189  1.8800000000000D+00 -1.3793470029375D-01  2.6540927539190D-02
   190  1.8900000000000D+00 -1.3382488262102D-01  2.6647799296587D-02
   191  1.9000000000000D+00 -1.2953710239406D-01  2.6614114876509D-02
   192  1.9100000000000D+00 -1.2509788262927D-01  2.6451075342352D-02
   193  1.9200000000000D+00 -1.2053302838781D-01  2.6169707444497D-02
   194  1.9300000000000D+00 -1.1586755532790D-01  2.5780828359148D-02
   195  1.9400000000000D+00 -1.1112562234686D-01  2.5295012360156D-02
   196  1.9500000000000D+00 -1.0633046929096D-01  2.4722559767600D-02
   197  1.9600000000000D+00 -1.0150435956980D-01  2.4073468097213D-02
   198  1.9700000000000D+00 -9.6668527902526D-02  2.3357405476779D-02
   199  1.9800000000000D+00 -9.1843133851730D-02  2.2583686551322D-02
   200  1.9900000000000D+00 -8.7047220326789D-02  2.1761250568236D-02
   201  2.0000000000000D+00 -8.2298678542480D-02  2.0898642158105D-02
   202  2.0100000000000D+00 -7.7614218114914D-02  2.0003994328203D-02
   203  2.0200000000000D+00 -7.3009343460219D-02  1.9085014066390D-02
   204  2.0300000000000D+00 -6.8498336012116D-02  1.8148970370854D-02
   205  2.0400000000000D+00 -6.4094242082958D-02  1.7202684629743D-02
   206  2.0500000000000D+00 -5.9808867201818D-02  1.6252523627181D-02
   207  2.0600000000000D+00 -5.5652775530080D-02  1.5304394675201D-02
   208  2.0700000000000D+00 -5.1635295734397D-02  1.4363743334245D-02
   209  2.0800000000000D+00 -4.7764532071356D-02  1.3435553278518D-02
   210  2.0900000000000D+00 -4.4047380960924D-02  1.2524348386457D-02
   211  2.1000000000000D+00 -4.0489553303019D-02  1.1634197127896D-02
   212  2.1100000000000D+00 -3.7095601206509D-02  1.0768718780612D-02
   213  2.1200000000000D+00 -3.3868950368391D-02  9.9310918789363D-03
   214  2.1300000000000D+00 -3.0811936628043D-02  9.1240643817504D-03
   215  2.1400000000000D+00 -2.7925846960436D-02  8.3499656319680D-03
   216  2.1500000000000D+00 -2.5210964906093D-02  7.6107200890092D-03
   217  2.1600000000000D+00 -2.2666619244078D-02  6.9078624232425D-03
   218  2.1700000000000D+00 -2.0291236649140D-02  6.2425541950577D-03
   219  2.1800000000000D+00 -1.8082397211490D-02  5.6156017356623D-03
   220  2.1900000000000D+00 -1.6036892661991D-02  5.0274751588854D-03
   221  2.2000000000000D+00 -1.4150787265361D-02  4.4783284669042D-03
   222  2.2100000000000D+00 -1.2419480473017D-02  3.9680204483738D-03
   223  2.2200000000000D+00 -1.0837771360881D-02  3.4961363423501D-03
   224  2.2300000000000D+00 -9.3999242995141D-03  3.0620100772653D-03
   225  2.2400000000000D+00 -8.0997354723721D-03  2.6647469540508D-03
   226  2.2500000000000D+00 -6.9305998129225D-03  2.3032465828090D-03
   227  2.2600000000000D+00 -5.8855781020856D-03  1.9762260094893D-03
   228  2.2700000000000D+00 -4.9574637268121D-03  1.6822428327621D-03
   229  2.2800000000000D+00 -4.1388485442389D-03  1.4197181025179D-03
   230  2.2900000000000D+00 -3.4221880577587D-03  1.1869590913732D-03
   231  2.3000000000000D+00 -2.7998647548565D-03  9.8218150204152D-04
   232  2.3100000000000D+00 -2.2642495945517D-03  8.0353111303595D-04
   233  2.3200000000000D+00 -1.8077620175796D-03  6.4910500244953D-04
   234  2.3300000000000D+00 -1.4229264326362D-03  5.1697159303354D-04
   235  2.3400000000000D+00 -1.1024265342628D-03  4.0519002120977D-04
   236  2.3500000000000D+00 -8.3915680264897D-04  3.1182858946944D-04
   237  2.3600000000000D+00 -6.2626957857564D-04  2.3498171744235D-04
   238  2.3700000000000D+00 -4.5721953595425D-04  1.7278605363533D-04
   239  2.3800000000000D+00 -3.2580403130494D-04  1.2343519543982D-04
   240  2.3900000000000D+00 -2.2621748916130D-04  8.5191514960308D-05
   241  2.4000000000000D+00 -1.5302296048998D-04  5.6402243227265D-05
   242  2.4100000000000D+00 -1.0121245185153D-04  3.5507574284057D-05
   243  2.4200000000000D+00 -6.6092117958389D-05  2.1033715550823D-05
   244  2.4300000000000D+00 -4.3959330405065D-05  1.1643933805827D-05
   245  2.4400000000000D+00 -3.1534116916120D-05  6.1089565151866D-06
   246  2.4500000000000D+00 -2.6432305765274D-05  3.3901329264513D-06
   247  2.4600000000000D+00 -2.4354832731238D-05  2.3137771667906D-06
   248  2.4700000000000D+00 -2.1868521375053D-05  1.9256884017282D-06
   249  2.4800000000000D+00 -1.5436262737353D-05  1.3666483382555D-06
   250  2.4900000000000D+00 -7.4560794055306D-06  6.8411654135859D-07
   251  2.5000000000000D+00 -3.4310709160193D-07  3.2835848608688D-08
   252  2.5100000000000D+00  2.1163657896320D-06 -1.7640151787962D-07
   253  2.5200000000000D+00  1.7924887695753D-06 -1.5054969422084D-07
   254  2.5300000000000D+00  1.0941617077208D-07 -9.2697440550773D-09
   255  2.5400000000000D+00 -4.3811383503444D-07  3.1635595876509D-08
   256  2.5500000000000D+00 -4.1979236533003D-07  3.0003205961601D-08
   257  2.5600000000000D+00 -4.3348118450924D-08  3.0712755281301D-09
   258  2.5700000000000D+00  5.1760101044004D-08 -4.5643026406526D-09
   259  2.5800000000000D+00  5.5055596625332D-08 -4.8549056124538D-09
   260  2.5900000000000D+00  9.9056063070995D-09 -8.7349491428393D-10
   261  2.6000000000000D+00  0.0000000000000D+00  0.0000000000000D+00
   262  2.6100000000000D+00  0.0000000000000D+00  0.0000000000000D+00
   263  2.6200000000000D+00  0.0000000000000D+00  0.0000000000000D+00
   264  2.6300000000000D+00  0.0000000000000D+00  0.0000000000000D+00
   265  2.6400000000000D+00  0.0000000000000D+00  0.0000000000000D+00
   266  2.6500000000000D+00  0.0000000000000D+00  0.0000000000000D+00
   267  2.6600000000000D+00  0.0000000000000D+00  0.0000000000000D+00
   268  2.6700000000000D+00  0.0000000000000D+00  0.0000000000000D+00
   269  2.6800000000000D+00  0.0000000000000D+00  0.0000000000000D+00
   270  2.6900000000000D+00  0.0000000000000D+00  0.0000000000000D+00
   271  2.7000000000000D+00  0.0000000000000D+00  0.0000000000000D+00
   272  2.7100000000000D+00  0.0000000000000D+00  0.0000000000000D+00
   273  2.7200000000000D+00  0.0000000000000D+00  0.0000000000000D+00
   274  2.7300000000000D+00  0.0000000000000D+00  0.0000000000000D+00
   275  2.7400000000000D+00  0.0000000000000D+00  0.0000000000000D+00
   276  2.7500000000000D+00  0.0000000000000D+00  0.0000000000000D+00
   277  2.7600000000000D+00  0.0000000000000D+00  0.0000000000000D+00
   278  2.7700000000000D+00  0.0000000000000D+00  0.0000000000000D+00
   279  2.7800000000000D+00  0.0000000000000D+00  0.0000000000000D+00
   280  2.7900000000000D+00  0.0000000000000D+00  0.0000000000000D+00
   281  2.8000000000000D+00  0.0000000000000D+00  0.0000000000000D+00
   282  2.8100000000000D+00  0.0000000000000D+00  0.0000000000000D+00
   283  2.8200000000000D+00  0.0000000000000D+00  0.0000000000000D+00
   284  2.8300000000000D+00  0.0000000000000D+00  0.0000000000000D+00
   285  2.8400000000000D+00  0.0000000000000D+00  0.0000000000000D+00
   286  2.8500000000000D+00  0.0000000000000D+00  0.0000000000000D+00
   287  2.8600000000000D+00  0.0000000000000D+00  0.0000000000000D+00
   288  2.8700000000000D+00  0.0000000000000D+00  0.0000000000000D+00
   289  2.8800000000000D+00  0.0000000000000D+00  0.0000000000000D+00
   290  2.8900000000000D+00  0.0000000000000D+00  0.0000000000000D+00
   291  2.9000000000000D+00  0.0000000000000D+00  0.0000000000000D+00
   292  2.9100000000000D+00  0.0000000000000D+00  0.0000000000000D+00
   293  2.9200000000000D+00  0.0000000000000D+00  0.0000000000000D+00
   294  2.9300000000000D+00  0.0000000000000D+00  0.0000000000000D+00
   295  2.9400000000000D+00  0.0000000000000D+00  0.0000000000000D+00
   296  2.9500000000000D+00  0.0000000000000D+00  0.0000000000000D+00
   297  2.9600000000000D+00  0.0000000000000D+00  0.0000000000000D+00
   298  2.9700000000000D+00  0.0000000000000D+00  0.0000000000000D+00
   299  2.9800000000000D+00  0.0000000000000D+00  0.0000000000000D+00
   300  2.9900000000000D+00  0.0000000000000D+00  0.0000000000000D+00
   301  3.0000000000000D+00  0.0000000000000D+00  0.0000000000000D+00
   302  3.0100000000000D+00  0.0000000000000D+00  0.0000000000000D+00
   303  3.0200000000000D+00  0.0000000000000D+00  0.0000000000000D+00
   304  3.0300000000000D+00  0.0000000000000D+00  0.0000000000000D+00
   305  3.0400000000000D+00  0.0000000000000D+00  0.0000000000000D+00
   306  3.0500000000000D+00  0.0000000000000D+00  0.0000000000000D+00
   307  3.0600000000000D+00  0.0000000000000D+00  0.0000000000000D+00
   308  3.0700000000000D+00  0.0000000000000D+00  0.0000000000000D+00
   309  3.0800000000000D+00  0.0000000000000D+00  0.0000000000000D+00
   310  3.0900000000000D+00  0.0000000000000D+00  0.0000000000000D+00
   311  3.1000000000000D+00  0.0000000000000D+00  0.0000000000000D+00
   312  3.1100000000000D+00  0.0000000000000D+00  0.0000000000000D+00
   313  3.1200000000000D+00  0.0000000000000D+00  0.0000000000000D+00
   314  3.1300000000000D+00  0.0000000000000D+00  0.0000000000000D+00
   315  3.1400000000000D+00  0.0000000000000D+00  0.0000000000000D+00
   316  3.1500000000000D+00  0.0000000000000D+00  0.0000000000000D+00
   317  3.1600000000000D+00  0.0000000000000D+00  0.0000000000000D+00
   318  3.1700000000000D+00  0.0000000000000D+00  0.0000000000000D+00
   319  3.1800000000000D+00  0.0000000000000D+00  0.0000000000000D+00
   320  3.1900000000000D+00  0.0000000000000D+00  0.0000000000000D+00
   321  3.2000000000000D+00  0.0000000000000D+00  0.0000000000000D+00
   322  3.2100000000000D+00  0.0000000000000D+00  0.0000000000000D+00
   323  3.2200000000000D+00  0.0000000000000D+00  0.0000000000000D+00
   324  3.2300000000000D+00  0.0000000000000D+00  0.0000000000000D+00
   325  3.2400000000000D+00  0.0000000000000D+00  0.0000000000000D+00
   326  3.2500000000000D+00  0.0000000000000D+00  0.0000000000000D+00
   327  3.2600000000000D+00  0.0000000000000D+00  0.0000000000000D+00
   328  3.2700000000000D+00  0.0000000000000D+00  0.0000000000000D+00
   329  3.2800000000000D+00  0.0000000000000D+00  0.0000000000000D+00
   330  3.2900000000000D+00  0.0000000000000D+00  0.0000000000000D+00
   331  3.3000000000000D+00  0.0000000000000D+00  0.0000000000000D+00
   332  3.3100000000000D+00  0.0000000000000D+00  0.0000000000000D+00
   333  3.3200000000000D+00  0.0000000000000D+00  0.0000000000000D+00
   334  3.3300000000000D+00  0.0000000000000D+00  0.0000000000000D+00
   335  3.3400000000000D+00  0.0000000000000D+00  0.0000000000000D+00
   336  3.3500000000000D+00  0.0000000000000D+00  0.0000000000000D+00
   337  3.3600000000000D+00  0.0000000000000D+00  0.0000000000000D+00
   338  3.3700000000000D+00  0.0000000000000D+00  0.0000000000000D+00
   339  3.3800000000000D+00  0.0000000000000D+00  0.0000000000000D+00
   340  3.3900000000000D+00  0.0000000000000D+00  0.0000000000000D+00
   341  3.4000000000000D+00  0.0000000000000D+00  0.0000000000000D+00
   342  3.4100000000000D+00  0.0000000000000D+00  0.0000000000000D+00
   343  3.4200000000000D+00  0.0000000000000D+00  0.0000000000000D+00
   344  3.4300000000000D+00  0.0000000000000D+00  0.0000000000000D+00
   345  3.4400000000000D+00  0.0000000000000D+00  0.0000000000000D+00
   346  3.4500000000000D+00  0.0000000000000D+00  0.0000000000000D+00
   347  3.4600000000000D+00  0.0000000000000D+00  0.0000000000000D+00
   348  3.4700000000000D+00  0.0000000000000D+00  0.0000000000000D+00
   349  3.4800000000000D+00  0.0000000000000D+00  0.0000000000000D+00
   350  3.4900000000000D+00  0.0000000000000D+00  0.0000000000000D+00
   351  3.5000000000000D+00  0.0000000000000D+00  0.0000000000000D+00
   352  3.5100000000000D+00  0.0000000000000D+00  0.0000000000000D+00
   353  3.5200000000000D+00  0.0000000000000D+00  0.0000000000000D+00
   354  3.5300000000000D+00  0.0000000000000D+00  0.0000000000000D+00
   355  3.5400000000000D+00  0.0000000000000D+00  0.0000000000000D+00
   356  3.5500000000000D+00  0.0000000000000D+00  0.0000000000000D+00
   357  3.5600000000000D+00  0.0000000000000D+00  0.0000000000000D+00
   358  3.5700000000000D+00  0.0000000000000D+00  0.0000000000000D+00
   359  3.5800000000000D+00  0.0000000000000D+00  0.0000000000000D+00
   360  3.5900000000000D+00  0.0000000000000D+00  0.0000000000000D+00
   361  3.6000000000000D+00  0.0000000000000D+00  0.0000000000000D+00
   362  3.6100000000000D+00  0.0000000000000D+00  0.0000000000000D+00
   363  3.6200000000000D+00  0.0000000000000D+00  0.0000000000000D+00
   364  3.6300000000000D+00  0.0000000000000D+00  0.0000000000000D+00
   365  3.6400000000000D+00  0.0000000000000D+00  0.0000000000000D+00
   366  3.6500000000000D+00  0.0000000000000D+00  0.0000000000000D+00
   367  3.6600000000000D+00  0.0000000000000D+00  0.0000000000000D+00
   368  3.6700000000000D+00  0.0000000000000D+00  0.0000000000000D+00
   369  3.6800000000000D+00  0.0000000000000D+00  0.0000000000000D+00
   370  3.6900000000000D+00  0.0000000000000D+00  0.0000000000000D+00
   371  3.7000000000000D+00  0.0000000000000D+00  0.0000000000000D+00
   372  3.7100000000000D+00  0.0000000000000D+00  0.0000000000000D+00
   373  3.7200000000000D+00  0.0000000000000D+00  0.0000000000000D+00
   374  3.7300000000000D+00  0.0000000000000D+00  0.0000000000000D+00
   375  3.7400000000000D+00  0.0000000000000D+00  0.0000000000000D+00
   376  3.7500000000000D+00  0.0000000000000D+00  0.0000000000000D+00
   377  3.7600000000000D+00  0.0000000000000D+00  0.0000000000000D+00
   378  3.7700000000000D+00  0.0000000000000D+00  0.0000000000000D+00
   379  3.7800000000000D+00  0.0000000000000D+00  0.0000000000000D+00
   380  3.7900000000000D+00  0.0000000000000D+00  0.0000000000000D+00
   381  3.8000000000000D+00  0.0000000000000D+00  0.0000000000000D+00
   382  3.8100000000000D+00  0.0000000000000D+00  0.0000000000000D+00
   383  3.8200000000000D+00  0.0000000000000D+00  0.0000000000000D+00
   384  3.8300000000000D+00  0.0000000000000D+00  0.0000000000000D+00
   385  3.8400000000000D+00  0.0000000000000D+00  0.0000000000000D+00
   386  3.8500000000000D+00  0.0000000000000D+00  0.0000000000000D+00
   387  3.8600000000000D+00  0.0000000000000D+00  0.0000000000000D+00
   388  3.8700000000000D+00  0.0000000000000D+00  0.0000000000000D+00
   389  3.8800000000000D+00  0.0000000000000D+00  0.0000000000000D+00
   390  3.8900000000000D+00  0.0000000000000D+00  0.0000000000000D+00
   391  3.9000000000000D+00  0.0000000000000D+00  0.0000000000000D+00
   392  3.9100000000000D+00  0.0000000000000D+00  0.0000000000000D+00
   393  3.9200000000000D+00  0.0000000000000D+00  0.0000000000000D+00
   394  3.9300000000000D+00  0.0000000000000D+00  0.0000000000000D+00
   395  3.9400000000000D+00  0.0000000000000D+00  0.0000000000000D+00
   396  3.9500000000000D+00  0.0000000000000D+00  0.0000000000000D+00
   397  3.9600000000000D+00  0.0000000000000D+00  0.0000000000000D+00
   398  3.9700000000000D+00  0.0000000000000D+00  0.0000000000000D+00
   399  3.9800000000000D+00  0.0000000000000D+00  0.0000000000000D+00
   400  3.9900000000000D+00  0.0000000000000D+00  0.0000000000000D+00
   401  4.0000000000000D+00  0.0000000000000D+00  0.0000000000000D+00
   402  4.0100000000000D+00  0.0000000000000D+00  0.0000000000000D+00
   403  4.0200000000000D+00  0.0000000000000D+00  0.0000000000000D+00
   404  4.0300000000000D+00  0.0000000000000D+00  0.0000000000000D+00
   405  4.0400000000000D+00  0.0000000000000D+00  0.0000000000000D+00
   406  4.0500000000000D+00  0.0000000000000D+00  0.0000000000000D+00
   407  4.0600000000000D+00  0.0000000000000D+00  0.0000000000000D+00
   408  4.0700000000000D+00  0.0000000000000D+00  0.0000000000000D+00
   409  4.0800000000000D+00  0.0000000000000D+00  0.0000000000000D+00
   410  4.0900000000000D+00  0.0000000000000D+00  0.0000000000000D+00
   411  4.1000000000000D+00  0.0000000000000D+00  0.0000000000000D+00
   412  4.1100000000000D+00  0.0000000000000D+00  0.0000000000000D+00
   413  4.1200000000000D+00  0.0000000000000D+00  0.0000000000000D+00
   414  4.1300000000000D+00  0.0000000000000D+00  0.0000000000000D+00
   415  4.1400000000000D+00  0.0000000000000D+00  0.0000000000000D+00
   416  4.1500000000000D+00  0.0000000000000D+00  0.0000000000000D+00
   417  4.1600000000000D+00  0.0000000000000D+00  0.0000000000000D+00
   418  4.1700000000000D+00  0.0000000000000D+00  0.0000000000000D+00
   419  4.1800000000000D+00  0.0000000000000D+00  0.0000000000000D+00
   420  4.1900000000000D+00  0.0000000000000D+00  0.0000000000000D+00
   421  4.2000000000000D+00  0.0000000000000D+00  0.0000000000000D+00
   422  4.2100000000000D+00  0.0000000000000D+00  0.0000000000000D+00