Pt    ONCVPSP-3.3.1  r_core=   2.32041   2.32041   2.23884   3.01673
     78.0000     18.0000      210904    zatom,zion,pspd
     8      11   3     4   600     0    pspcod,pspxc,lmax,lloc,mmax,r2well
  5.99000000  0.00000000  0.00000000    rchrg fchrg qchrg
     2     4     4     3    nproj
     3     1           extension_switch
     4     4     4    nprojso
   0                         1.2842721733874D+00  6.4172945219729D+00
     1  0.0000000000000D+00 -2.0783583187800D-11  5.5527249465115D-12
     2  1.0000000000000D-02 -8.4469331997995D-03  5.8125581807592D-02
     3  2.0000000000000D-02 -1.6854431566107D-02  1.1616107216394D-01
     4  3.0000000000000D-02 -2.5183069649903D-02  1.7401652122747D-01
     5  4.0000000000000D-02 -3.3393441368161D-02  2.3160226231451D-01
     6  5.0000000000000D-02 -4.1446171174170D-02  2.8882905332330D-01
     7  6.0000000000000D-02 -4.9301926997891D-02  3.4560821796800D-01
     8  7.0000000000000D-02 -5.6921435521856D-02  4.0185178675297D-01
     9  8.0000000000000D-02 -6.4265500337360D-02  4.5747263761167D-01
    10  9.0000000000000D-02 -7.1295023499941D-02  5.1238463612804D-01
    11  1.0000000000000D-01 -7.7971030972725D-02  5.6650277524986D-01
    12  1.1000000000000D-01 -8.4254702411155D-02  6.1974331439444D-01
    13  1.2000000000000D-01 -9.0107405703306D-02  6.7202391783671D-01
    14  1.3000000000000D-01 -9.5490736636623D-02  7.2326379225843D-01
    15  1.4000000000000D-01 -1.0036656401477D-01  7.7338382332496D-01
    16  1.5000000000000D-01 -1.0469708049778D-01  8.2230671114339D-01
    17  1.6000000000000D-01 -1.0844485938496D-01  8.6995710444191D-01
    18  1.7000000000000D-01 -1.1157291750381D-01  9.1626173329650D-01
    19  1.8000000000000D-01 -1.1404478430946D-01  9.6114954021649D-01
    20  1.9000000000000D-01 -1.1582457723847D-01  1.0045518093858D+00
    21  2.0000000000000D-01 -1.1687708329901D-01  1.0464022938419D+00
    22  2.1000000000000D-01 -1.1716784681590D-01  1.0866373403607D+00
    23  2.2000000000000D-01 -1.1666326318565D-01  1.1251960117989D+00
    24  2.3000000000000D-01 -1.1533067843237D-01  1.1620202066347D+00
    25  2.4000000000000D-01 -1.1313849429190D-01  1.1970547754304D+00
    26  2.5000000000000D-01 -1.1005627848849D-01  1.2302476339318D+00
    27  2.6000000000000D-01 -1.0605487980678D-01  1.2615498725024D+00
    28  2.7000000000000D-01 -1.0110654750146D-01  1.2909158615845D+00
    29  2.8000000000000D-01 -9.5185054529200D-02  1.3183033528658D+00
    30  2.9000000000000D-01 -8.8265824031706D-02  1.3436735758231D+00
    31  3.0000000000000D-01 -8.0326058446240D-02  1.3669913293072D+00
    32  3.1000000000000D-01 -7.1344870570597D-02  1.3882250678279D+00
    33  3.2000000000000D-01 -6.1303415863980D-02  1.4073469821933D+00
    34  3.3000000000000D-01 -5.0185025223577D-02  1.4243330741565D+00
    35  3.4000000000000D-01 -3.7975337439677D-02  1.4391632247217D+00
    36  3.5000000000000D-01 -2.4662430499532D-02  1.4518212557629D+00
    37  3.6000000000000D-01 -1.0236950882979D-02  1.4622949846147D+00
    38  3.7000000000000D-01  5.3077600295039D-03  1.4705762712968D+00
    39  3.8000000000000D-01  2.1975543332180D-02  1.4766610580452D+00
    40  3.9000000000000D-01  3.9767304659848D-02  1.4805494008308D+00
    41  4.0000000000000D-01  5.8680901856142D-02  1.4822454925609D+00
    42  4.1000000000000D-01  7.8711039155651D-02  1.4817576776709D+00
    43  4.2000000000000D-01  9.9849168784373D-02  1.4790984578339D+00
    44  4.3000000000000D-01  1.2208340087018D-01  1.4742844885314D+00
    45  4.4000000000000D-01  1.4539842253580D-01  1.4673365662528D+00
    46  4.5000000000000D-01  1.6977542702212D-01  1.4582796061129D+00
    47  4.6000000000000D-01  1.9519205365796D-01  1.4471426097024D+00
    48  4.7000000000000D-01  2.2162233945638D-01  1.4339586230155D+00
    49  4.8000000000000D-01  2.4903668307391D-01  1.4187646843254D+00
    50  4.9000000000000D-01  2.7740182182170D-01  1.4016017619122D+00
    51  5.0000000000000D-01  3.0668082236332D-01  1.3825146815797D+00
    52  5.1000000000000D-01  3.3683308567569D-01  1.3615520439320D+00
    53  5.2000000000000D-01  3.6781436678559D-01  1.3387661314161D+00
    54  5.3000000000000D-01  3.9957680972672D-01  1.3142128051757D+00
    55  5.4000000000000D-01  4.3206899808954D-01  1.2879513917978D+00
    56  5.5000000000000D-01  4.6523602146054D-01  1.2600445600726D+00
    57  5.6000000000000D-01  4.9901955796803D-01  1.2305581879297D+00
    58  5.7000000000000D-01  5.3335797306935D-01  1.1995612197502D+00
    59  5.8000000000000D-01  5.6818643462950D-01  1.1671255142981D+00
    60  5.9000000000000D-01  6.0343704425471D-01  1.1333256835525D+00
    61  6.0000000000000D-01  6.3903898475559D-01  1.0982389227663D+00
    62  6.1000000000000D-01  6.7491868352567D-01  1.0619448321127D+00
    63  6.2000000000000D-01  7.1099999153095D-01  1.0245252303252D+00
    64  6.3000000000000D-01  7.4720437751613D-01  9.8606396077232D-01
    65  6.4000000000000D-01  7.8345113694416D-01  9.4664669044856D-01
    66  6.5000000000000D-01  8.1965761509690D-01  9.0636070239911D-01
    67  6.6000000000000D-01  8.5573944367837D-01  8.6529468213082D-01
    68  6.7000000000000D-01  8.9161079017716D-01  8.2353849859658D-01
    69  6.8000000000000D-01  9.2718461916260D-01  7.8118298037166D-01
    70  6.9000000000000D-01  9.6237296461015D-01  7.3831968767086D-01
    71  7.0000000000000D-01  9.9708721227632D-01  6.9504068088273D-01
    72  7.1000000000000D-01  1.0312383910721D+00  6.5143828632252D-01
    73  7.2000000000000D-01  1.0647374723170D+00  6.0760485992850D-01
    74  7.3000000000000D-01  1.0974956756933D+00  5.6363254964592D-01
    75  7.4000000000000D-01  1.1294247806657D+00  5.1961305726025D-01
    76  7.5000000000000D-01  1.1604374420774D+00  4.7563740045541D-01
    77  7.6000000000000D-01  1.1904475085926D+00  4.3179567588365D-01
    78  7.7000000000000D-01  1.2193703426134D+00  3.8817682404142D-01
    79  7.8000000000000D-01  1.2471231402716D+00  3.4486839675017D-01
    80  7.9000000000000D-01  1.2736252500655D+00  3.0195632804193D-01
    81  8.0000000000000D-01  1.2987984886997D+00  2.5952470924699D-01
    82  8.1000000000000D-01  1.3225674526724D+00  2.1765556907550D-01
    83  8.2000000000000D-01  1.3448598241507D+00  1.7642865947483D-01
    84  8.3000000000000D-01  1.3656066696814D+00  1.3592124803231D-01
    85  8.4000000000000D-01  1.3847427302949D+00  9.6207917676056D-02
    86  8.5000000000000D-01  1.4022067015786D+00  5.7360374407121D-02
    87  8.6000000000000D-01  1.4179415023251D+00  1.9447263773001D-02
    88  8.7000000000000D-01  1.4318945303912D+00 -1.7466003234029D-02
    89  8.8000000000000D-01  1.4440179044486D+00 -5.3317414199819D-02
    90  8.9000000000000D-01  1.4542686903518D+00 -8.8048508611327D-02
    91  9.0000000000000D-01  1.4626091109075D+00 -1.2160451989424D-01
    92  9.1000000000000D-01  1.4690067378867D+00 -1.5393450561826D-01
    93  9.2000000000000D-01  1.4734346651940D+00 -1.8499146536419D-01
    94  9.3000000000000D-01  1.4758716621768D+00 -2.1473244579068D-01
    95  9.4000000000000D-01  1.4763023061407D+00 -2.4311863248419D-01
    96  9.5000000000000D-01  1.4747170932187D+00 -2.7011542822374D-01
    97  9.6000000000000D-01  1.4711125268328D+00 -2.9569251734191D-01
    98  9.7000000000000D-01  1.4654911830781D+00 -3.1982391591445D-01
    99  9.8000000000000D-01  1.4578617524592D+00 -3.4248800756483D-01
   100  9.9000000000000D-01  1.4482390575046D+00 -3.6366756472172D-01
   101  1.0000000000000D+00  1.4366440458915D+00 -3.8334975522448D-01
   102  1.0100000000000D+00  1.4231037588175D+00 -4.0152613422567D-01
   103  1.0200000000000D+00  1.4076512744607D+00 -4.1819262139556D-01
   104  1.0300000000000D+00  1.3903256264784D+00 -4.3334946348923D-01
   105  1.0400000000000D+00  1.3711716976044D+00 -4.4700118239313D-01
   106  1.0500000000000D+00  1.3502400885085D+00 -4.5915650882161D-01
   107  1.0600000000000D+00  1.3275869621918D+00 -4.6982830188848D-01
   108  1.0700000000000D+00  1.3032738642971D+00 -4.7903345483353D-01
   109  1.0800000000000D+00  1.2773675198166D+00 -4.8679278723364D-01
   110  1.0900000000000D+00  1.2499396067834D+00 -4.9313092408086D-01
   111  1.1000000000000D+00  1.2210665076244D+00 -4.9807616215577D-01
   112  1.1100000000000D+00  1.1908290389542D+00 -5.0166032417219D-01
   113  1.1200000000000D+00  1.1593121606785D+00 -5.0391860121550D-01
   114  1.1300000000000D+00  1.1266046653612D+00 -5.0488938403641D-01
   115  1.1400000000000D+00  1.0927988488921D+00 -5.0461408380268D-01
   116  1.1500000000000D+00  1.0579901635587D+00 -5.0313694294388D-01
   117  1.1600000000000D+00  1.0222768547128D+00 -5.0050483676455D-01
   118  1.1700000000000D+00  9.8575958227416D-01 -4.9676706652635D-01
   119  1.1800000000000D+00  9.4854102837090D-01 -4.9197514472647D-01
   120  1.1900000000000D+00  9.1072549246934D-01 -4.8618257332389D-01
   121  1.2000000000000D+00  8.7241847539336D-01 -4.7944461568736D-01
   122  1.2100000000000D+00  8.3372625366537D-01 -4.7181806305209D-01
   123  1.2200000000000D+00  7.9475544562329D-01 -4.6336099628308D-01
   124  1.2300000000000D+00  7.5561257080557D-01 -4.5413254375828D-01
   125  1.2400000000000D+00  7.1640360409476D-01 -4.4419263618284D-01
   126  1.2500000000000D+00  6.7723352612159D-01 -4.3360175915025D-01
   127  1.2600000000000D+00  6.3820587143570D-01 -4.2242070426577D-01
   128  1.2700000000000D+00  5.9942227592693D-01 -4.1071031963478D-01
   129  1.2800000000000D+00  5.6098202497603D-01 -3.9853126051553D-01
   130  1.2900000000000D+00  5.2298160379402D-01 -3.8594374092373D-01
   131  1.3000000000000D+00  4.8551425135077D-01 -3.7300728694541D-01
   132  1.3100000000000D+00  4.4866951929381D-01 -3.5978049251489D-01
   133  1.3200000000000D+00  4.1253283720069D-01 -3.4632077838324D-01
   134  1.3300000000000D+00  3.7718508541364D-01 -3.3268415495449D-01
   135  1.3400000000000D+00  3.4270217674401D-01 -3.1892498968640D-01
   136  1.3500000000000D+00  3.0915464818736D-01 -3.0509577967679D-01
   137  1.3600000000000D+00  2.7660726371249D-01 -2.9124693001744D-01
   138  1.3700000000000D+00  2.4511862925897D-01 -2.7742653853331D-01
   139  1.3800000000000D+00  2.1474082078298D-01 -2.6368018737491D-01
   140  1.3900000000000D+00  1.8551902568867D-01 -2.5005074181066D-01
   141  1.4000000000000D+00  1.5749119780013D-01 -2.3657815649166D-01
   142  1.4100000000000D+00  1.3068772621682D-01 -2.2329928921103D-01
   143  1.4200000000000D+00  1.0513117185006D-01 -2.1024773908061D-01
   144  1.4300000000000D+00  8.0836030341899D-02 -1.9745369393311D-01
   145  1.4400000000000D+00  5.7807764831959D-02 -1.8494357754463D-01
   146  1.4500000000000D+00  3.6044164226646D-02 -1.7274035915554D-01
   147  1.4600000000000D+00  1.5537389032565D-02 -1.6086406098739D-01
   148  1.4700000000000D+00 -3.7239367057334D-03 -1.4933234910031D-01
   149  1.4800000000000D+00 -2.1753032644628D-02 -1.3816101951568D-01
   150  1.4900000000000D+00 -3.8565579820557D-02 -1.2736385171646D-01
   151  1.5000000000000D+00 -5.4179651954350D-02 -1.1695265639591D-01
   152  1.5100000000000D+00 -6.8615548552931D-02 -1.0693734808017D-01
   153  1.5200000000000D+00 -8.1895737339366D-02 -9.7325991513047D-02
   154  1.5300000000000D+00 -9.4044755713158D-02 -8.8124860593155D-02
   155  1.5400000000000D+00 -1.0508911389094D-01 -7.9338498453703D-02
   156  1.5500000000000D+00 -1.1505718851570D-01 -7.0969781612294D-02
   157  1.5600000000000D+00 -1.2397910971390D-01 -6.3019987270250D-02
   158  1.5700000000000D+00 -1.3188664231795D-01 -5.5488863428854D-02
   159  1.5800000000000D+00 -1.3881306183074D-01 -4.8374701547535D-02
   160  1.5900000000000D+00 -1.4479302582815D-01 -4.1674411420322D-02
   161  1.6000000000000D+00 -1.4986244143279D-01 -3.5383597973326D-02
   162  1.6100000000000D+00 -1.5405832954520D-01 -2.9496639663067D-02
   163  1.6200000000000D+00 -1.5741868647969D-01 -2.4006768174449D-02
   164  1.6300000000000D+00 -1.5998234370637D-01 -1.8906149091490D-02
   165  1.6400000000000D+00 -1.6178882631806D-01 -1.4185963253868D-02
   166  1.6500000000000D+00 -1.6287821095146D-01 -9.8364884598171D-03
   167  1.6600000000000D+00 -1.6329098371579D-01 -5.8471812585607D-03
   168  1.6700000000000D+00 -1.6306789890469D-01 -2.2067584730441D-03
   169  1.6800000000000D+00 -1.6224983894541D-01  1.0967217595959D-03
   170  1.6900000000000D+00 -1.6087767640938D-01  4.0757798100190D-03
   171  1.7000000000000D+00 -1.5899213842089D-01  6.7434354014073D-03
   172  1.7100000000000D+00 -1.5663367433167D-01  9.1131298758665D-03
   173  1.7200000000000D+00 -1.5384232687106D-01  1.1198649986841D-02
   174  1.7300000000000D+00 -1.5065760766961D-01  1.3014053628592D-02
   175  1.7400000000000D+00 -1.4711837724690D-01  1.4573597555055D-02
   176  1.7500000000000D+00 -1.4326273034566D-01  1.5891667492190D-02
   177  1.7600000000000D+00 -1.3912788663794D-01  1.6982710665750D-02
   178  1.7700000000000D+00 -1.3475008760389D-01  1.7861171113454D-02
   179  1.7800000000000D+00 -1.3016449945717D-01  1.8541427748608D-02
   180  1.7900000000000D+00 -1.2540512303008D-01  1.9037735568697D-02
   181  1.8000000000000D+00 -1.2050471084010D-01  1.9364170101125D-02
   182  1.8100000000000D+00 -1.1549469102551D-01  1.9534575032684D-02
   183  1.8200000000000D+00 -1.1040509799025D-01  1.9562512998004D-02
   184  1.8300000000000D+00 -1.0526451114246D-01  1.9461220024843D-02
   185  1.8400000000000D+00 -1.0010000302183D-01  1.9243564139306D-02
   186  1.8500000000000D+00 -9.4937094618264D-02  1.8922007345959D-02
   187  1.8600000000000D+00 -8.9799717116303D-02  1.8508570811673D-02
   188  1.8700000000000D+00 -8.4710181553434D-02  1.8014803689924D-02
   189  1.8800000000000D+00 -7.9689158072895D-02  1.7451756279987D-02
   190  1.8900000000000D+00 -7.4755661361240D-02  1.6829956241010D-02
   191  1.9000000000000D+00 -6.9927045749328D-02  1.6159389186420D-02
   192  1.9100000000000D+00 -6.5219008393167D-02  1.5449483026795D-02
   193  1.9200000000000D+00 -6.0645598592833D-02  1.4709095420391D-02
   194  1.9300000000000D+00 -5.6219233163744D-02  1.3946504287765D-02
   195  1.9400000000000D+00 -5.1950719236530D-02  1.3169401843783D-02
   196  1.9500000000000D+00 -4.7849286299755D-02  1.2384892834269D-02
   197  1.9600000000000D+00 -4.3922623912217D-02  1.1599495618940D-02
   198  1.9700000000000D+00 -4.0176924637706D-02  1.0819146033829D-02
   199  1.9800000000000D+00 -3.6616932963670D-02  1.0049204184561D-02
   200  1.9900000000000D+00 -3.3246000111850D-02  9.2944641886120D-03
   201  2.0000000000000D+00 -3.0066143926555D-02  8.5591665268775D-03
   202  2.0100000000000D+00 -2.7078113211631D-02  7.8470127507474D-03
   203  2.0200000000000D+00 -2.4281456533248D-02  7.1611825665587D-03
   204  2.0300000000000D+00 -2.1674594514383D-02  6.5043528637094D-03
   205  2.0400000000000D+00 -1.9254895700087D-02  5.8787187528073D-03
   206  2.0500000000000D+00 -1.7018755099617D-02  5.2860162156159D-03
   207  2.0600000000000D+00 -1.4961675102931D-02  4.7275462547766D-03
   208  2.0700000000000D+00 -1.3078348283061D-02  4.2042003403633D-03
   209  2.0800000000000D+00 -1.1362741537148D-02  3.7164869074598D-03
   210  2.0900000000000D+00 -9.8081810381884D-03  3.2645587101174D-03
   211  2.1000000000000D+00 -8.4074376551883D-03  2.8482408587612D-03
   212  2.1100000000000D+00 -7.1528121508462D-03  2.4670592695864D-03
   213  2.1200000000000D+00 -6.0362197225077D-03  2.1202693375399D-03
   214  2.1300000000000D+00 -5.0492737243117D-03  1.8068847504038D-03
   215  2.1400000000000D+00 -4.1833673638249D-03  1.5257059598264D-03
   216  2.1500000000000D+00 -3.4297538642122D-03  1.2753484852917D-03
   217  2.1600000000000D+00 -2.7796239295227D-03  1.0542705778720D-03
   218  2.1700000000000D+00 -2.2241801402749D-03  8.6080008162737D-04
   219  2.1800000000000D+00 -1.7547088230954D-03  6.9316070101429D-04
   220  2.1900000000000D+00 -1.3626472505629D-03  5.4949679740461D-04
   221  2.2000000000000D+00 -1.0396476284755D-03  4.2789729521279D-04
   222  2.2100000000000D+00 -7.7763663083603D-04  3.2641818473110D-04
   223  2.2200000000000D+00 -5.6886968699574D-04  2.4310328745835D-04
   224  2.2300000000000D+00 -4.0598148575384D-04  1.7600387437286D-04
   225  2.2400000000000D+00 -2.8203494000469D-04  1.2319583775145D-04
   226  2.2500000000000D+00 -1.9057255840746D-04  8.2794699624603D-05
   227  2.2600000000000D+00 -1.2554640696991D-04  5.2976496308925D-05
   228  2.2700000000000D+00 -8.1350670150137D-05  3.1962103078777D-05
   229  2.2800000000000D+00 -5.3228818886243D-05  1.8076401834780D-05
   230  2.2900000000000D+00 -3.7346051696075D-05  9.7660743306745D-06
   231  2.3000000000000D+00 -3.0695381355921D-05  5.6557878055417D-06
   232  2.3100000000000D+00 -2.8171731943745D-05  4.0395379280199D-06
   233  2.3200000000000D+00 -2.5053558879710D-05  3.3725390533040D-06
   234  2.3300000000000D+00 -1.6783605964728D-05  2.2541546143620D-06
   235  2.3400000000000D+00 -6.9609177309400D-06  9.5686689083473D-07
   236  2.3500000000000D+00  7.3520427776651D-07 -9.3530350091954D-08
   237  2.3600000000000D+00  2.5936159925075D-06 -3.3031282653775D-07
   238  2.3700000000000D+00  1.4250147326260D-06 -1.8211413436124D-07
   239  2.3800000000000D+00 -2.6154028756471D-07  3.0834168833010D-08
   240  2.3900000000000D+00 -5.6630194195412D-07  6.6234713220928D-08
   241  2.4000000000000D+00 -2.6618798675473D-07  3.0928181771483D-08
   242  2.4100000000000D+00  4.1092729241027D-08 -5.5333076458545D-09
   243  2.4200000000000D+00  6.9652487730255D-08 -9.3789984269485D-09
   244  2.4300000000000D+00  2.6783307270364D-08 -3.6064842038385D-09
   245  2.4400000000000D+00  0.0000000000000D+00  0.0000000000000D+00
   246  2.4500000000000D+00  0.0000000000000D+00  0.0000000000000D+00
   247  2.4600000000000D+00  0.0000000000000D+00  0.0000000000000D+00
   248  2.4700000000000D+00  0.0000000000000D+00  0.0000000000000D+00
   249  2.4800000000000D+00  0.0000000000000D+00  0.0000000000000D+00
   250  2.4900000000000D+00  0.0000000000000D+00  0.0000000000000D+00
   251  2.5000000000000D+00  0.0000000000000D+00  0.0000000000000D+00
   252  2.5100000000000D+00  0.0000000000000D+00  0.0000000000000D+00
   253  2.5200000000000D+00  0.0000000000000D+00  0.0000000000000D+00
   254  2.5300000000000D+00  0.0000000000000D+00  0.0000000000000D+00
   255  2.5400000000000D+00  0.0000000000000D+00  0.0000000000000D+00
   256  2.5500000000000D+00  0.0000000000000D+00  0.0000000000000D+00
   257  2.5600000000000D+00  0.0000000000000D+00  0.0000000000000D+00
   258  2.5700000000000D+00  0.0000000000000D+00  0.0000000000000D+00
   259  2.5800000000000D+00  0.0000000000000D+00  0.0000000000000D+00
   260  2.5900000000000D+00  0.0000000000000D+00  0.0000000000000D+00
   261  2.6000000000000D+00  0.0000000000000D+00  0.0000000000000D+00
   262  2.6100000000000D+00  0.0000000000000D+00  0.0000000000000D+00
   263  2.6200000000000D+00  0.0000000000000D+00  0.0000000000000D+00
   264  2.6300000000000D+00  0.0000000000000D+00  0.0000000000000D+00
   265  2.6400000000000D+00  0.0000000000000D+00  0.0000000000000D+00
   266  2.6500000000000D+00  0.0000000000000D+00  0.0000000000000D+00
   267  2.6600000000000D+00  0.0000000000000D+00  0.0000000000000D+00
   268  2.6700000000000D+00  0.0000000000000D+00  0.0000000000000D+00
   269  2.6800000000000D+00  0.0000000000000D+00  0.0000000000000D+00
   270  2.6900000000000D+00  0.0000000000000D+00  0.0000000000000D+00
   271  2.7000000000000D+00  0.0000000000000D+00  0.0000000000000D+00
   272  2.7100000000000D+00  0.0000000000000D+00  0.0000000000000D+00
   273  2.7200000000000D+00  0.0000000000000D+00  0.0000000000000D+00
   274  2.7300000000000D+00  0.0000000000000D+00  0.0000000000000D+00
   275  2.7400000000000D+00  0.0000000000000D+00  0.0000000000000D+00
   276  2.7500000000000D+00  0.0000000000000D+00  0.0000000000000D+00
   277  2.7600000000000D+00  0.0000000000000D+00  0.0000000000000D+00
   278  2.7700000000000D+00  0.0000000000000D+00  0.0000000000000D+00
   279  2.7800000000000D+00  0.0000000000000D+00  0.0000000000000D+00
   280  2.7900000000000D+00  0.0000000000000D+00  0.0000000000000D+00
   281  2.8000000000000D+00  0.0000000000000D+00  0.0000000000000D+00
   282  2.8100000000000D+00  0.0000000000000D+00  0.0000000000000D+00
   283  2.8200000000000D+00  0.0000000000000D+00  0.0000000000000D+00
   284  2.8300000000000D+00  0.0000000000000D+00  0.0000000000000D+00
   285  2.8400000000000D+00  0.0000000000000D+00  0.0000000000000D+00
   286  2.8500000000000D+00  0.0000000000000D+00  0.0000000000000D+00
   287  2.8600000000000D+00  0.0000000000000D+00  0.0000000000000D+00
   288  2.8700000000000D+00  0.0000000000000D+00  0.0000000000000D+00
   289  2.8800000000000D+00  0.0000000000000D+00  0.0000000000000D+00
   290  2.8900000000000D+00  0.0000000000000D+00  0.0000000000000D+00
   291  2.9000000000000D+00  0.0000000000000D+00  0.0000000000000D+00
   292  2.9100000000000D+00  0.0000000000000D+00  0.0000000000000D+00
   293  2.9200000000000D+00  0.0000000000000D+00  0.0000000000000D+00
   294  2.9300000000000D+00  0.0000000000000D+00  0.0000000000000D+00
   295  2.9400000000000D+00  0.0000000000000D+00  0.0000000000000D+00
   296  2.9500000000000D+00  0.0000000000000D+00  0.0000000000000D+00
   297  2.9600000000000D+00  0.0000000000000D+00  0.0000000000000D+00
   298  2.9700000000000D+00  0.0000000000000D+00  0.0000000000000D+00
   299  2.9800000000000D+00  0.0000000000000D+00  0.0000000000000D+00
   300  2.9900000000000D+00  0.0000000000000D+00  0.0000000000000D+00
   301  3.0000000000000D+00  0.0000000000000D+00  0.0000000000000D+00
   302  3.0100000000000D+00  0.0000000000000D+00  0.0000000000000D+00
   303  3.0200000000000D+00  0.0000000000000D+00  0.0000000000000D+00
   304  3.0300000000000D+00  0.0000000000000D+00  0.0000000000000D+00
   305  3.0400000000000D+00  0.0000000000000D+00  0.0000000000000D+00
   306  3.0500000000000D+00  0.0000000000000D+00  0.0000000000000D+00
   307  3.0600000000000D+00  0.0000000000000D+00  0.0000000000000D+00
   308  3.0700000000000D+00  0.0000000000000D+00  0.0000000000000D+00
   309  3.0800000000000D+00  0.0000000000000D+00  0.0000000000000D+00
   310  3.0900000000000D+00  0.0000000000000D+00  0.0000000000000D+00
   311  3.1000000000000D+00  0.0000000000000D+00  0.0000000000000D+00
   312  3.1100000000000D+00  0.0000000000000D+00  0.0000000000000D+00
   313  3.1200000000000D+00  0.0000000000000D+00  0.0000000000000D+00
   314  3.1300000000000D+00  0.0000000000000D+00  0.0000000000000D+00
   315  3.1400000000000D+00  0.0000000000000D+00  0.0000000000000D+00
   316  3.1500000000000D+00  0.0000000000000D+00  0.0000000000000D+00
   317  3.1600000000000D+00  0.0000000000000D+00  0.0000000000000D+00
   318  3.1700000000000D+00  0.0000000000000D+00  0.0000000000000D+00
   319  3.1800000000000D+00  0.0000000000000D+00  0.0000000000000D+00
   320  3.1900000000000D+00  0.0000000000000D+00  0.0000000000000D+00
   321  3.2000000000000D+00  0.0000000000000D+00  0.0000000000000D+00
   322  3.2100000000000D+00  0.0000000000000D+00  0.0000000000000D+00
   323  3.2200000000000D+00  0.0000000000000D+00  0.0000000000000D+00
   324  3.2300000000000D+00  0.0000000000000D+00  0.0000000000000D+00
   325  3.2400000000000D+00  0.0000000000000D+00  0.0000000000000D+00
   326  3.2500000000000D+00  0.0000000000000D+00  0.0000000000000D+00
   327  3.2600000000000D+00  0.0000000000000D+00  0.0000000000000D+00
   328  3.2700000000000D+00  0.0000000000000D+00  0.0000000000000D+00
   329  3.2800000000000D+00  0.0000000000000D+00  0.0000000000000D+00
   330  3.2900000000000D+00  0.0000000000000D+00  0.0000000000000D+00
   331  3.3000000000000D+00  0.0000000000000D+00  0.0000000000000D+00
   332  3.3100000000000D+00  0.0000000000000D+00  0.0000000000000D+00
   333  3.3200000000000D+00  0.0000000000000D+00  0.0000000000000D+00
   334  3.3300000000000D+00  0.0000000000000D+00  0.0000000000000D+00
   335  3.3400000000000D+00  0.0000000000000D+00  0.0000000000000D+00
   336  3.3500000000000D+00  0.0000000000000D+00  0.0000000000000D+00
   337  3.3600000000000D+00  0.0000000000000D+00  0.0000000000000D+00
   338  3.3700000000000D+00  0.0000000000000D+00  0.0000000000000D+00
   339  3.3800000000000D+00  0.0000000000000D+00  0.0000000000000D+00
   340  3.3900000000000D+00  0.0000000000000D+00  0.0000000000000D+00
   341  3.4000000000000D+00  0.0000000000000D+00  0.0000000000000D+00
   342  3.4100000000000D+00  0.0000000000000D+00  0.0000000000000D+00
   343  3.4200000000000D+00  0.0000000000000D+00  0.0000000000000D+00
   344  3.4300000000000D+00  0.0000000000000D+00  0.0000000000000D+00
   345  3.4400000000000D+00  0.0000000000000D+00  0.0000000000000D+00
   346  3.4500000000000D+00  0.0000000000000D+00  0.0000000000000D+00
   347  3.4600000000000D+00  0.0000000000000D+00  0.0000000000000D+00
   348  3.4700000000000D+00  0.0000000000000D+00  0.0000000000000D+00
   349  3.4800000000000D+00  0.0000000000000D+00  0.0000000000000D+00
   350  3.4900000000000D+00  0.0000000000000D+00  0.0000000000000D+00
   351  3.5000000000000D+00  0.0000000000000D+00  0.0000000000000D+00
   352  3.5100000000000D+00  0.0000000000000D+00  0.0000000000000D+00
   353  3.5200000000000D+00  0.0000000000000D+00  0.0000000000000D+00
   354  3.5300000000000D+00  0.0000000000000D+00  0.0000000000000D+00
   355  3.5400000000000D+00  0.0000000000000D+00  0.0000000000000D+00
   356  3.5500000000000D+00  0.0000000000000D+00  0.0000000000000D+00
   357  3.5600000000000D+00  0.0000000000000D+00  0.0000000000000D+00
   358  3.5700000000000D+00  0.0000000000000D+00  0.0000000000000D+00
   359  3.5800000000000D+00  0.0000000000000D+00  0.0000000000000D+00
   360  3.5900000000000D+00  0.0000000000000D+00  0.0000000000000D+00
   361  3.6000000000000D+00  0.0000000000000D+00  0.0000000000000D+00
   362  3.6100000000000D+00  0.0000000000000D+00  0.0000000000000D+00
   363  3.6200000000000D+00  0.0000000000000D+00  0.0000000000000D+00
   364  3.6300000000000D+00  0.0000000000000D+00  0.0000000000000D+00
   365  3.6400000000000D+00  0.0000000000000D+00  0.0000000000000D+00
   366  3.6500000000000D+00  0.0000000000000D+00  0.0000000000000D+00
   367  3.6600000000000D+00  0.0000000000000D+00  0.0000000000000D+00
   368  3.6700000000000D+00  0.0000000000000D+00  0.0000000000000D+00
   369  3.6800000000000D+00  0.0000000000000D+00  0.0000000000000D+00
   370  3.6900000000000D+00  0.0000000000000D+00  0.0000000000000D+00
   371  3.7000000000000D+00  0.0000000000000D+00  0.0000000000000D+00
   372  3.7100000000000D+00  0.0000000000000D+00  0.0000000000000D+00
   373  3.7200000000000D+00  0.0000000000000D+00  0.0000000000000D+00
   374  3.7300000000000D+00  0.0000000000000D+00  0.0000000000000D+00
   375  3.7400000000000D+00  0.0000000000000D+00  0.0000000000000D+00
   376  3.7500000000000D+00  0.0000000000000D+00  0.0000000000000D+00
   377  3.7600000000000D+00  0.0000000000000D+00  0.0000000000000D+00
   378  3.7700000000000D+00  0.0000000000000D+00  0.0000000000000D+00
   379  3.7800000000000D+00  0.0000000000000D+00  0.0000000000000D+00
   380  3.7900000000000D+00  0.0000000000000D+00  0.0000000000000D+00
   381  3.8000000000000D+00  0.0000000000000D+00  0.0000000000000D+00
   382  3.8100000000000D+00  0.0000000000000D+00  0.0000000000000D+00
   383  3.8200000000000D+00  0.0000000000000D+00  0.0000000000000D+00
   384  3.8300000000000D+00  0.0000000000000D+00  0.0000000000000D+00
   385  3.8400000000000D+00  0.0000000000000D+00  0.0000000000000D+00
   386  3.8500000000000D+00  0.0000000000000D+00  0.0000000000000D+00
   387  3.8600000000000D+00  0.0000000000000D+00  0.0000000000000D+00
   388  3.8700000000000D+00  0.0000000000000D+00  0.0000000000000D+00
   389  3.8800000000000D+00  0.0000000000000D+00  0.0000000000000D+00
   390  3.8900000000000D+00  0.0000000000000D+00  0.0000000000000D+00
   391  3.9000000000000D+00  0.0000000000000D+00  0.0000000000000D+00
   392  3.9100000000000D+00  0.0000000000000D+00  0.0000000000000D+00
   393  3.9200000000000D+00  0.0000000000000D+00  0.0000000000000D+00
   394  3.9300000000000D+00  0.0000000000000D+00  0.0000000000000D+00
   395  3.9400000000000D+00  0.0000000000000D+00  0.0000000000000D+00
   396  3.9500000000000D+00  0.0000000000000D+00  0.0000000000000D+00
   397  3.9600000000000D+00  0.0000000000000D+00  0.0000000000000D+00
   398  3.9700000000000D+00  0.0000000000000D+00  0.0000000000000D+00
   399  3.9800000000000D+00  0.0000000000000D+00  0.0000000000000D+00
   400  3.9900000000000D+00  0.0000000000000D+00  0.0000000000000D+00
   401  4.0000000000000D+00  0.0000000000000D+00  0.0000000000000D+00
   402  4.0100000000000D+00  0.0000000000000D+00  0.0000000000000D+00
   403  4.0200000000000D+00  0.0000000000000D+00  0.0000000000000D+00
   404  4.0300000000000D+00  0.0000000000000D+00  0.0000000000000D+00
   405  4.0400000000000D+00  0.0000000000000D+00  0.0000000000000D+00
   406  4.0500000000000D+00  0.0000000000000D+00  0.0000000000000D+00
   407  4.0600000000000D+00  0.0000000000000D+00  0.0000000000000D+00
   408  4.0700000000000D+00  0.0000000000000D+00  0.0000000000000D+00
   409  4.0800000000000D+00  0.0000000000000D+00  0.0000000000000D+00
   410  4.0900000000000D+00  0.0000000000000D+00  0.0000000000000D+00
   411  4.1000000000000D+00  0.0000000000000D+00  0.0000000000000D+00
   412  4.1100000000000D+00  0.0000000000000D+00  0.0000000000000D+00
   413  4.1200000000000D+00  0.0000000000000D+00  0.0000000000000D+00
   414  4.1300000000000D+00  0.0000000000000D+00  0.0000000000000D+00
   415  4.1400000000000D+00  0.0000000000000D+00  0.0000000000000D+00
   416  4.1500000000000D+00  0.0000000000000D+00  0.0000000000000D+00
   417  4.1600000000000D+00  0.0000000000000D+00  0.0000000000000D+00
   418  4.1700000000000D+00  0.0000000000000D+00  0.0000000000000D+00
   419  4.1800000000000D+00  0.0000000000000D+00  0.0000000000000D+00
   420  4.1900000000000D+00  0.0000000000000D+00  0.0000000000000D+00
   421  4.2000000000000D+00  0.0000000000000D+00  0.0000000000000D+00
   422  4.2100000000000D+00  0.0000000000000D+00  0.0000000000000D+00