Pt    ONCVPSP-3.3.1  r_core=   2.32041   2.32041   2.23884   3.01673
     78.0000     18.0000      210904    zatom,zion,pspd
     8      11   3     4   600     0    pspcod,pspxc,lmax,lloc,mmax,r2well
  5.99000000  0.00000000  0.00000000    rchrg fchrg qchrg
     2     2     2     2     0    nproj
     1     1           extension_switch
   0                         6.4027714837142D+00  1.2815620763673D+00
     1  0.0000000000000D+00  5.4705129315380D-12 -2.0759421959227D-11
     2  1.0000000000000D-02  5.8209383136503D-02 -8.3781300934623D-03
     3  2.0000000000000D-02  1.1632829484568D-01 -1.6716819014127D-02
     4  3.0000000000000D-02  1.7426640672300D-01 -2.4976635402696D-02
     5  4.0000000000000D-02  2.3193367634259D-01 -3.3118168121374D-02
     6  5.0000000000000D-02  2.8924049007781D-01 -4.1102037845631D-02
     7  6.0000000000000D-02  3.4609780571544D-01 -4.8888910418429D-02
     8  7.0000000000000D-02  4.0241729478824D-01 -5.6439512529990D-02
     9  8.0000000000000D-02  4.5811148454500D-01 -6.3714650265422D-02
    10  9.0000000000000D-02  5.1309389947080D-01 -7.0675231036875D-02
    11  1.0000000000000D-01  5.6727920226189D-01 -7.7282289386521D-02
    12  1.1000000000000D-01  6.2058333415064D-01 -8.3497017111670D-02
    13  1.2000000000000D-01  6.7292365446599D-01 -8.9280798124180D-02
    14  1.3000000000000D-01  7.2421907930353D-01 -9.4595248412976D-02
    15  1.4000000000000D-01  7.7439021916742D-01 -9.9402261431503D-02
    16  1.5000000000000D-01  8.2335951543379D-01 -1.0366405918158D-01
    17  1.6000000000000D-01  8.7105137547181D-01 -1.0734324921152D-01
    18  1.7000000000000D-01  9.1739230624486D-01 -1.1040288769025D-01
    19  1.8000000000000D-01  9.6231104619997D-01 -1.1280654866070D-01
    20  1.9000000000000D-01  1.0057386952397D+00 -1.1451839951509D-01
    21  2.0000000000000D-01  1.0476088425554D+00 -1.1550328267319D-01
    22  2.1000000000000D-01  1.0878576920880D+00 -1.1572680338124D-01
    23  2.2000000000000D-01  1.1264241853654D+00 -1.1515542348586D-01
    24  2.3000000000000D-01  1.1632501214566D+00 -1.1375656097362D-01
    25  2.4000000000000D-01  1.1982802737632D+00 -1.1149869500302D-01
    26  2.5000000000000D-01  1.2314625033637D+00 -1.0835147609338D-01
    27  2.6000000000000D-01  1.2627478686065D+00 -1.0428584107325D-01
    28  2.7000000000000D-01  1.2920907306451D+00 -9.9274132331090D-02
    29  2.8000000000000D-01  1.3194488545917D+00 -9.3290220853222D-02
    30  2.9000000000000D-01  1.3447835059634D+00 -8.6309632478421D-02
    31  3.0000000000000D-01  1.3680595420849D+00 -7.8309676746434D-02
    32  3.1000000000000D-01  1.3892454981069D+00 -6.9269577668277D-02
    33  3.2000000000000D-01  1.4083136672972D+00 -5.9170605700848D-02
    34  3.3000000000000D-01  1.4252401752583D+00 -4.7996210167045D-02
    35  3.4000000000000D-01  1.4400050477249D+00 -3.5732151325599D-02
    36  3.5000000000000D-01  1.4525922715994D+00 -2.2366631262445D-02
    37  3.6000000000000D-01  1.4629898488842D+00 -7.8904227484197D-03
    38  3.7000000000000D-01  1.4711898431774D+00  7.7030048142497D-03
    39  3.8000000000000D-01  1.4771884184076D+00  2.4417363250447D-02
    40  3.9000000000000D-01  1.4809858694917D+00  4.2253428180572D-02
    41  4.0000000000000D-01  1.4825866446149D+00  6.1208927208675D-02
    42  4.1000000000000D-01  1.4819993588445D+00  8.1278434639385D-02
    43  4.2000000000000D-01  1.4792367988086D+00  1.0245327362566D-01
    44  4.3000000000000D-01  1.4743159181874D+00  1.2472142663660D-01
    45  4.4000000000000D-01  1.4672578237905D+00  1.4806745511531D-01
    46  4.5000000000000D-01  1.4580877520109D+00  1.7247242917185D-01
    47  4.6000000000000D-01  1.4468350354801D+00  1.9791386812520D-01
    48  4.7000000000000D-01  1.4335330597676D+00  2.2436569267102D-01
    49  4.8000000000000D-01  1.4182192100061D+00  2.5179818940956D-01
    50  4.9000000000000D-01  1.4009348073479D+00  2.8017798841961D-01
    51  5.0000000000000D-01  1.3817250351959D+00  3.0946805451064D-01
    52  5.1000000000000D-01  1.3606388551845D+00  3.3962769272717D-01
    53  5.2000000000000D-01  1.3377289129226D+00  3.7061256861489D-01
    54  5.3000000000000D-01  1.3130514335473D+00  4.0237474369122D-01
    55  5.4000000000000D-01  1.2866661071767D+00  4.3486272648984D-01
    56  5.5000000000000D-01  1.2586359643866D+00  4.6802153947354D-01
    57  5.6000000000000D-01  1.2290272418781D+00  5.0179280203002D-01
    58  5.7000000000000D-01  1.1979092385418D+00  5.3611482968338D-01
    59  5.8000000000000D-01  1.1653541621661D+00  5.7092274956910D-01
    60  5.9000000000000D-01  1.1314369670763D+00  6.0614863213388D-01
    61  6.0000000000000D-01  1.0962351830326D+00  6.4172163893331D-01
    62  6.1000000000000D-01  1.0598287357553D+00  6.7756818631111D-01
    63  6.2000000000000D-01  1.0222997594845D+00  7.1361212465416D-01
    64  6.3000000000000D-01  9.8373240202099D-01  7.4977493282721D-01
    65  6.4000000000000D-01  9.4421262273310D-01  7.8597592730286D-01
    66  6.5000000000000D-01  9.0382798404922D-01  8.2213248541319D-01
    67  6.6000000000000D-01  8.6266743699336D-01  8.5816028206354D-01
    68  6.7000000000000D-01  8.2082110135270D-01  8.9397353916425D-01
    69  6.8000000000000D-01  7.7838004109874D-01  9.2948528695413D-01
    70  6.9000000000000D-01  7.3543603571301D-01  9.6460763631078D-01
    71  7.0000000000000D-01  6.9208134809581D-01  9.9925206106760D-01
    72  7.1000000000000D-01  6.4840848976149D-01  1.0333296892864D+00
    73  7.2000000000000D-01  6.0450998404627D-01  1.0667516023677D+00
    74  7.3000000000000D-01  5.6047812807415D-01  1.0994291408188D+00
    75  7.4000000000000D-01  5.1640475424348D-01  1.1312742154446D+00
    76  7.5000000000000D-01  4.7238099201053D-01  1.1621996226735D+00
    77  7.6000000000000D-01  4.2849703075693D-01  1.1921193626886D+00
    78  7.7000000000000D-01  3.8484188453552D-01  1.2209489589940D+00
    79  7.8000000000000D-01  3.4150315949326D-01  1.2486057780156D+00
    80  7.9000000000000D-01  2.9856682477024D-01  1.2750093473112D+00
    81  8.0000000000000D-01  2.5611698767181D-01  1.3000816709460D+00
    82  8.1000000000000D-01  2.1423567390392D-01  1.3237475405818D+00
    83  8.2000000000000D-01  1.7300261365272D-01  1.3459348408208D+00
    84  8.3000000000000D-01  1.3249503427600D-01  1.3665748473549D+00
    85  8.4000000000000D-01  9.2787460357473D-02  1.3856025164778D+00
    86  8.5000000000000D-01  5.3951521855067D-02  1.4029567645410D+00
    87  8.6000000000000D-01  1.6055771050770D-02  1.4185807359592D+00
    88  8.7000000000000D-01 -2.0834491016916D-02  1.4324220584050D+00
    89  8.8000000000000D-01 -5.6657377986825D-02  1.4444330838749D+00
    90  8.9000000000000D-01 -9.1354570857011D-02  1.4545711143555D+00
    91  9.0000000000000D-01 -1.2487145933237D-01  1.4627986108768D+00
    92  9.1000000000000D-01 -1.5715727129431D-01  1.4690833847961D+00
    93  9.2000000000000D-01 -1.8816518988999D-01  1.4733987702297D+00
    94  9.3000000000000D-01 -2.1785245778252D-01  1.4757237766184D+00
    95  9.4000000000000D-01 -2.4618046814940D-01  1.4760432204955D+00
    96  9.5000000000000D-01 -2.7311484206442D-01  1.4743478356071D+00
    97  9.6000000000000D-01 -2.9862549194838D-01  1.4706343606282D+00
    98  9.7000000000000D-01 -3.2268667082479D-01  1.4649056038044D+00
    99  9.8000000000000D-01 -3.4527700717088D-01  1.4571704839551D+00
   100  9.9000000000000D-01 -3.6637952520578D-01  1.4474440473636D+00
   101  1.0000000000000D+00 -3.8598165051494D-01  1.4357474601923D+00
   102  1.0100000000000D+00 -4.0407520096376D-01  1.4221079761588D+00
   103  1.0200000000000D+00 -4.2065636290925D-01  1.4065588793203D+00
   104  1.0300000000000D+00 -4.3572565277421D-01  1.3891394019169D+00
   105  1.0400000000000D+00 -4.4928786410473D-01  1.3698946173365D+00
   106  1.0500000000000D+00 -4.6135200028503D-01  1.3488753083687D+00
   107  1.0600000000000D+00 -4.7193119313853D-01  1.3261378110210D+00
   108  1.0700000000000D+00 -4.8104260769866D-01  1.3017438342821D+00
   109  1.0800000000000D+00 -4.8870733348220D-01  1.2757602563128D+00
   110  1.0900000000000D+00 -4.9495026265122D-01  1.2482588976560D+00
   111  1.1000000000000D+00 -4.9979995549477D-01  1.2193162721434D+00
   112  1.1100000000000D+00 -5.0328849370952D-01  1.1890133162808D+00
   113  1.1200000000000D+00 -5.0545132200454D-01  1.1574350979813D+00
   114  1.1300000000000D+00 -5.0632707859455D-01  1.1246705056035D+00
   115  1.1400000000000D+00 -5.0595741518680D-01  1.0908119183297D+00
   116  1.1500000000000D+00 -5.0438680709881D-01  1.0559548589922D+00
   117  1.1600000000000D+00 -5.0166235418457D-01  1.0201976305367D+00
   118  1.1700000000000D+00 -4.9783357327170D-01  9.8364093736626D-01
   119  1.1800000000000D+00 -4.9295218283824D-01  9.4638749286671D-01
   120  1.1900000000000D+00 -4.8707188068266D-01  9.0854161446501D-01
   121  1.2000000000000D+00 -4.8024811536169D-01  8.7020880762243D-01
   122  1.2100000000000D+00 -4.7253785218437D-01  8.3149534019320D-01
   123  1.2200000000000D+00 -4.6399933456091D-01  7.9250780860347D-01
   124  1.2300000000000D+00 -4.5469184152024D-01  7.5335269734195D-01
   125  1.2400000000000D+00 -4.4467544220782D-01  7.1413593325211D-01
   126  1.2500000000000D+00 -4.3401074817978D-01  6.7496243612718D-01
   127  1.2600000000000D+00 -4.2275866430875D-01  6.3593566711316D-01
   128  1.2700000000000D+00 -4.1098013910368D-01  5.9715717640251D-01
   129  1.2800000000000D+00 -3.9873591524280D-01  5.5872615169625D-01
   130  1.2900000000000D+00 -3.8608628110641D-01  5.2073896889228D-01
   131  1.3000000000000D+00 -3.7309082406525D-01  4.8328874639872D-01
   132  1.3100000000000D+00 -3.5980818628009D-01  4.4646490447190D-01
   133  1.3200000000000D+00 -3.4629582373687D-01  4.1035273092028D-01
   134  1.3300000000000D+00 -3.3260976919324D-01  3.7503295442117D-01
   135  1.3400000000000D+00 -3.1880439973174D-01  3.4058132673564D-01
   136  1.3500000000000D+00 -3.0493220953910D-01  3.0706821496043D-01
   137  1.3600000000000D+00 -2.9104358849166D-01  2.7455820487773D-01
   138  1.3700000000000D+00 -2.7718660716290D-01  2.4310971653527D-01
   139  1.3800000000000D+00 -2.6340680871879D-01  2.1277463289399D-01
   140  1.3900000000000D+00 -2.4974700804519D-01  1.8359794187728D-01
   141  1.4000000000000D+00 -2.3624709837690D-01  1.5561739197365D-01
   142  1.4100000000000D+00 -2.2294386544272D-01  1.2886316171392D-01
   143  1.4200000000000D+00 -2.0987082612100D-01  1.0335759699940D-01
   144  1.4300000000000D+00 -1.9705807633871D-01  7.9114974790532D-02
   145  1.4400000000000D+00 -1.8453193802980D-01  5.6140534990357D-02
   146  1.4500000000000D+00 -1.7231527067765D-01  3.4431842419469D-02
   147  1.4600000000000D+00 -1.6042798155950D-01  1.3980837821551D-02
   148  1.4700000000000D+00 -1.4888761894421D-01 -5.2240666384100D-03
   149  1.4800000000000D+00 -1.3770986020759D-01 -2.3196291664505D-02
   150  1.4900000000000D+00 -1.2690836516802D-01 -3.9951709719447D-02
   151  1.5000000000000D+00 -1.1649482427797D-01 -5.5508576363280D-02
   152  1.5100000000000D+00 -1.0647903178893D-01 -6.9887363109018D-02
   153  1.5200000000000D+00 -9.6868932523954D-02 -8.3110699937683D-02
   154  1.5300000000000D+00 -8.7670681213122D-02 -9.5203276803397D-02
   155  1.5400000000000D+00 -7.8888702946417D-02 -1.0619174684055D-01
   156  1.5500000000000D+00 -7.0525757676668D-02 -1.1610462005968D-01
   157  1.5600000000000D+00 -6.2583007850077D-02 -1.2497215051151D-01
   158  1.5700000000000D+00 -5.5060088832431D-02 -1.3282621763413D-01
   159  1.5800000000000D+00 -4.7955181855477D-02 -1.3970020235959D-01
   160  1.5900000000000D+00 -4.1265089159995D-02 -1.4562885867505D-01
   161  1.6000000000000D+00 -3.4985311038372D-02 -1.5064818127048D-01
   162  1.6100000000000D+00 -2.9110124456474D-02 -1.5479526995875D-01
   163  1.6200000000000D+00 -2.3632662953917D-02 -1.5810819151428D-01
   164  1.6300000000000D+00 -1.8544997495991D-02 -1.6062583963082D-01
   165  1.6400000000000D+00 -1.3838217990803D-02 -1.6238779361602D-01
   166  1.6500000000000D+00 -9.5025151321326D-03 -1.6343417655181D-01
   167  1.6600000000000D+00 -5.5272623119771D-03 -1.6380551347264D-01
   168  1.6700000000000D+00 -1.9010972436456D-03 -1.6354259033636D-01
   169  1.6800000000000D+00  1.3879969162901D-03 -1.6268631424101D-01
   170  1.6900000000000D+00  4.3526113273101D-03 -1.6127757571081D-01
   171  1.7000000000000D+00  7.0058322647385D-03 -1.5935711338690D-01
   172  1.7100000000000D+00  9.3611633588279D-03 -1.5696538199002D-01
   173  1.7200000000000D+00  1.1432449376567D-02 -1.5414242376423D-01
   174  1.7300000000000D+00  1.3233801956458D-02 -1.5092774429717D-01
   175  1.7400000000000D+00  1.4779527347553D-02 -1.4736019280662D-01
   176  1.7500000000000D+00  1.6084056558768D-02 -1.4347784778168D-01
   177  1.7600000000000D+00  1.7161877931881D-02 -1.3931790798130D-01
   178  1.7700000000000D+00  1.8027472511207D-02 -1.3491658960318D-01
   179  1.7800000000000D+00  1.8695252225705D-02 -1.3030902963967D-01
   180  1.7900000000000D+00  1.9179501179109D-02 -1.2552919605166D-01
   181  1.8000000000000D+00  1.9494319997430D-02 -1.2060980457171D-01
   182  1.8100000000000D+00  1.9653573585362D-02 -1.1558224299517D-01
   183  1.8200000000000D+00  1.9670842559809D-02 -1.1047650364579D-01
   184  1.8300000000000D+00  1.9559377984466D-02 -1.0532112287973D-01
   185  1.8400000000000D+00  1.9332059138597D-02 -1.0014312670403D-01
   186  1.8500000000000D+00  1.9001354834762D-02 -9.4967984063462D-02
   187  1.8600000000000D+00  1.8579290003222D-02 -8.9819572477278D-02
   188  1.8700000000000D+00  1.8077416114741D-02 -8.4720152141274D-02
   189  1.8800000000000D+00  1.7506783168610D-02 -7.9690341613506D-02
   190  1.8900000000000D+00  1.6877915416790D-02 -7.4749101622690D-02
   191  1.9000000000000D+00  1.6200792386570D-02 -6.9913731188802D-02
   192  1.9100000000000D+00  1.5484833434794D-02 -6.5199871190713D-02
   193  1.9200000000000D+00  1.4738885425948D-02 -6.0621514085395D-02
   194  1.9300000000000D+00  1.3971213652841D-02 -5.6191020165358D-02
   195  1.9400000000000D+00  1.3189496273244D-02 -5.1919141236586D-02
   196  1.9500000000000D+00  1.2400822416573D-02 -4.7815052014775D-02
   197  1.9600000000000D+00  1.1611693141843D-02 -4.3886387193483D-02
   198  1.9700000000000D+00  1.0828025700031D-02 -4.0139285220677D-02
   199  1.9800000000000D+00  1.0055160538819D-02 -3.6578437517816D-02
   200  1.9900000000000D+00  9.2978711985983D-03 -3.3207143423160D-02
   201  2.0000000000000D+00  8.5603767987821D-03 -3.0027370155829D-02
   202  2.0100000000000D+00  7.8463569040380D-03 -2.7039817296147D-02
   203  2.0200000000000D+00  7.1589687741704D-03 -2.4243985750088D-02
   204  2.0300000000000D+00  6.5008665434836D-03 -2.1638250164928D-02
   205  2.0400000000000D+00  5.8742224079342D-03 -1.9219934912441D-02
   206  2.0500000000000D+00  5.2807494203712D-03 -1.6985392740629D-02
   207  2.0600000000000D+00  4.7217257807234D-03 -1.4930085790547D-02
   208  2.0700000000000D+00  4.1980204178130D-03 -1.3048668489717D-02
   209  2.0800000000000D+00  3.7101196175632D-03 -1.1335071776002D-02
   210  2.0900000000000D+00  3.2581545015392D-03 -9.7825881234626D-03
   211  2.1000000000000D+00  2.8419291837943D-03 -8.3839570284624D-03
   212  2.1100000000000D+00  2.4609493335192D-03 -7.1314502650064D-03
   213  2.1200000000000D+00  2.1144509550869D-03 -6.0169564753291D-03
   214  2.1300000000000D+00  1.8014293034020D-03 -5.0320649340711D-03
   215  2.1400000000000D+00  1.5206674490819D-03 -4.1681472791204D-03
   216  2.1500000000000D+00  1.2707646706113D-03 -3.4164377008135D-03
   217  2.1600000000000D+00  1.0501641993212D-03 -2.7681104270128D-03
   218  2.1700000000000D+00  8.5718015504759D-04 -2.2143541314979D-03
   219  2.1800000000000D+00  6.9002388155725D-04 -1.7464438098710D-03
   220  2.1900000000000D+00  5.4682880335518D-04 -1.3558079789847D-03
   221  2.2000000000000D+00  4.2567438571157D-04 -1.0340926576941D-03
   222  2.2100000000000D+00  3.2460868431485D-04 -7.7322088931177D-04
   223  2.2200000000000D+00  2.4166915004277D-04 -5.6544701040924D-04
   224  2.2300000000000D+00  1.7490228032853D-04 -4.0340713115907D-04
   225  2.2400000000000D+00  1.2238082681853D-04 -2.8016809207800D-04
   226  2.2500000000000D+00  8.2218849344788D-05 -1.8927885666695D-04
   227  2.2600000000000D+00  5.2592382765976D-05 -1.2469996031286D-04
   228  2.2700000000000D+00  3.1724181581371D-05 -8.0836839852604D-05
   229  2.2800000000000D+00  1.7942632771533D-05 -5.2946549830847D-05
   230  2.2900000000000D+00  9.6994636648145D-06 -3.7210014190098D-05
   231  2.3000000000000D+00  5.6252023281922D-06 -3.0636549514836D-05
   232  2.3100000000000D+00  4.0238794528960D-06 -2.8144154179440D-05
   233  2.3200000000000D+00  3.3611831312855D-06 -2.5034123693194D-05
   234  2.3300000000000D+00  2.2468327566666D-06 -1.6770926331280D-05
   235  2.3400000000000D+00  9.5366544889955D-07 -6.9552215193829D-06
   236  2.3500000000000D+00 -9.3276246844579D-08  7.3478362499821D-07
   237  2.3600000000000D+00 -3.2942969716007D-07  2.5921449850672D-06
   238  2.3700000000000D+00 -1.8163002558211D-07  1.4242018432731D-06
   239  2.3800000000000D+00  3.0761993935718D-08 -2.6143655912726D-07
   240  2.3900000000000D+00  6.6084042577575D-08 -5.6608935044468D-07
   241  2.4000000000000D+00  3.0859533477329D-08 -2.6609271454597D-07
   242  2.4100000000000D+00 -5.5146711169720D-09  4.1060805072558D-08
   243  2.4200000000000D+00 -9.3474093691445D-09  6.9598376022573D-08
   244  2.4300000000000D+00 -3.5943373377449D-09  2.6762499822690D-08
   245  2.4400000000000D+00  0.0000000000000D+00  0.0000000000000D+00
   246  2.4500000000000D+00  0.0000000000000D+00  0.0000000000000D+00
   247  2.4600000000000D+00  0.0000000000000D+00  0.0000000000000D+00
   248  2.4700000000000D+00  0.0000000000000D+00  0.0000000000000D+00
   249  2.4800000000000D+00  0.0000000000000D+00  0.0000000000000D+00
   250  2.4900000000000D+00  0.0000000000000D+00  0.0000000000000D+00
   251  2.5000000000000D+00  0.0000000000000D+00  0.0000000000000D+00
   252  2.5100000000000D+00  0.0000000000000D+00  0.0000000000000D+00
   253  2.5200000000000D+00  0.0000000000000D+00  0.0000000000000D+00
   254  2.5300000000000D+00  0.0000000000000D+00  0.0000000000000D+00
   255  2.5400000000000D+00  0.0000000000000D+00  0.0000000000000D+00
   256  2.5500000000000D+00  0.0000000000000D+00  0.0000000000000D+00
   257  2.5600000000000D+00  0.0000000000000D+00  0.0000000000000D+00
   258  2.5700000000000D+00  0.0000000000000D+00  0.0000000000000D+00
   259  2.5800000000000D+00  0.0000000000000D+00  0.0000000000000D+00
   260  2.5900000000000D+00  0.0000000000000D+00  0.0000000000000D+00
   261  2.6000000000000D+00  0.0000000000000D+00  0.0000000000000D+00
   262  2.6100000000000D+00  0.0000000000000D+00  0.0000000000000D+00
   263  2.6200000000000D+00  0.0000000000000D+00  0.0000000000000D+00
   264  2.6300000000000D+00  0.0000000000000D+00  0.0000000000000D+00
   265  2.6400000000000D+00  0.0000000000000D+00  0.0000000000000D+00
   266  2.6500000000000D+00  0.0000000000000D+00  0.0000000000000D+00
   267  2.6600000000000D+00  0.0000000000000D+00  0.0000000000000D+00
   268  2.6700000000000D+00  0.0000000000000D+00  0.0000000000000D+00
   269  2.6800000000000D+00  0.0000000000000D+00  0.0000000000000D+00
   270  2.6900000000000D+00  0.0000000000000D+00  0.0000000000000D+00
   271  2.7000000000000D+00  0.0000000000000D+00  0.0000000000000D+00
   272  2.7100000000000D+00  0.0000000000000D+00  0.0000000000000D+00
   273  2.7200000000000D+00  0.0000000000000D+00  0.0000000000000D+00
   274  2.7300000000000D+00  0.0000000000000D+00  0.0000000000000D+00
   275  2.7400000000000D+00  0.0000000000000D+00  0.0000000000000D+00
   276  2.7500000000000D+00  0.0000000000000D+00  0.0000000000000D+00
   277  2.7600000000000D+00  0.0000000000000D+00  0.0000000000000D+00
   278  2.7700000000000D+00  0.0000000000000D+00  0.0000000000000D+00
   279  2.7800000000000D+00  0.0000000000000D+00  0.0000000000000D+00
   280  2.7900000000000D+00  0.0000000000000D+00  0.0000000000000D+00
   281  2.8000000000000D+00  0.0000000000000D+00  0.0000000000000D+00
   282  2.8100000000000D+00  0.0000000000000D+00  0.0000000000000D+00
   283  2.8200000000000D+00  0.0000000000000D+00  0.0000000000000D+00
   284  2.8300000000000D+00  0.0000000000000D+00  0.0000000000000D+00
   285  2.8400000000000D+00  0.0000000000000D+00  0.0000000000000D+00
   286  2.8500000000000D+00  0.0000000000000D+00  0.0000000000000D+00
   287  2.8600000000000D+00  0.0000000000000D+00  0.0000000000000D+00
   288  2.8700000000000D+00  0.0000000000000D+00  0.0000000000000D+00
   289  2.8800000000000D+00  0.0000000000000D+00  0.0000000000000D+00
   290  2.8900000000000D+00  0.0000000000000D+00  0.0000000000000D+00
   291  2.9000000000000D+00  0.0000000000000D+00  0.0000000000000D+00
   292  2.9100000000000D+00  0.0000000000000D+00  0.0000000000000D+00
   293  2.9200000000000D+00  0.0000000000000D+00  0.0000000000000D+00
   294  2.9300000000000D+00  0.0000000000000D+00  0.0000000000000D+00
   295  2.9400000000000D+00  0.0000000000000D+00  0.0000000000000D+00
   296  2.9500000000000D+00  0.0000000000000D+00  0.0000000000000D+00
   297  2.9600000000000D+00  0.0000000000000D+00  0.0000000000000D+00
   298  2.9700000000000D+00  0.0000000000000D+00  0.0000000000000D+00
   299  2.9800000000000D+00  0.0000000000000D+00  0.0000000000000D+00
   300  2.9900000000000D+00  0.0000000000000D+00  0.0000000000000D+00
   301  3.0000000000000D+00  0.0000000000000D+00  0.0000000000000D+00
   302  3.0100000000000D+00  0.0000000000000D+00  0.0000000000000D+00
   303  3.0200000000000D+00  0.0000000000000D+00  0.0000000000000D+00
   304  3.0300000000000D+00  0.0000000000000D+00  0.0000000000000D+00
   305  3.0400000000000D+00  0.0000000000000D+00  0.0000000000000D+00
   306  3.0500000000000D+00  0.0000000000000D+00  0.0000000000000D+00
   307  3.0600000000000D+00  0.0000000000000D+00  0.0000000000000D+00
   308  3.0700000000000D+00  0.0000000000000D+00  0.0000000000000D+00
   309  3.0800000000000D+00  0.0000000000000D+00  0.0000000000000D+00
   310  3.0900000000000D+00  0.0000000000000D+00  0.0000000000000D+00
   311  3.1000000000000D+00  0.0000000000000D+00  0.0000000000000D+00
   312  3.1100000000000D+00  0.0000000000000D+00  0.0000000000000D+00
   313  3.1200000000000D+00  0.0000000000000D+00  0.0000000000000D+00
   314  3.1300000000000D+00  0.0000000000000D+00  0.0000000000000D+00
   315  3.1400000000000D+00  0.0000000000000D+00  0.0000000000000D+00
   316  3.1500000000000D+00  0.0000000000000D+00  0.0000000000000D+00
   317  3.1600000000000D+00  0.0000000000000D+00  0.0000000000000D+00
   318  3.1700000000000D+00  0.0000000000000D+00  0.0000000000000D+00
   319  3.1800000000000D+00  0.0000000000000D+00  0.0000000000000D+00
   320  3.1900000000000D+00  0.0000000000000D+00  0.0000000000000D+00
   321  3.2000000000000D+00  0.0000000000000D+00  0.0000000000000D+00
   322  3.2100000000000D+00  0.0000000000000D+00  0.0000000000000D+00
   323  3.2200000000000D+00  0.0000000000000D+00  0.0000000000000D+00
   324  3.2300000000000D+00  0.0000000000000D+00  0.0000000000000D+00
   325  3.2400000000000D+00  0.0000000000000D+00  0.0000000000000D+00
   326  3.2500000000000D+00  0.0000000000000D+00  0.0000000000000D+00
   327  3.2600000000000D+00  0.0000000000000D+00  0.0000000000000D+00
   328  3.2700000000000D+00  0.0000000000000D+00  0.0000000000000D+00
   329  3.2800000000000D+00  0.0000000000000D+00  0.0000000000000D+00
   330  3.2900000000000D+00  0.0000000000000D+00  0.0000000000000D+00
   331  3.3000000000000D+00  0.0000000000000D+00  0.0000000000000D+00
   332  3.3100000000000D+00  0.0000000000000D+00  0.0000000000000D+00
   333  3.3200000000000D+00  0.0000000000000D+00  0.0000000000000D+00
   334  3.3300000000000D+00  0.0000000000000D+00  0.0000000000000D+00
   335  3.3400000000000D+00  0.0000000000000D+00  0.0000000000000D+00
   336  3.3500000000000D+00  0.0000000000000D+00  0.0000000000000D+00
   337  3.3600000000000D+00  0.0000000000000D+00  0.0000000000000D+00
   338  3.3700000000000D+00  0.0000000000000D+00  0.0000000000000D+00
   339  3.3800000000000D+00  0.0000000000000D+00  0.0000000000000D+00
   340  3.3900000000000D+00  0.0000000000000D+00  0.0000000000000D+00
   341  3.4000000000000D+00  0.0000000000000D+00  0.0000000000000D+00
   342  3.4100000000000D+00  0.0000000000000D+00  0.0000000000000D+00
   343  3.4200000000000D+00  0.0000000000000D+00  0.0000000000000D+00
   344  3.4300000000000D+00  0.0000000000000D+00  0.0000000000000D+00
   345  3.4400000000000D+00  0.0000000000000D+00  0.0000000000000D+00
   346  3.4500000000000D+00  0.0000000000000D+00  0.0000000000000D+00
   347  3.4600000000000D+00  0.0000000000000D+00  0.0000000000000D+00
   348  3.4700000000000D+00  0.0000000000000D+00  0.0000000000000D+00
   349  3.4800000000000D+00  0.0000000000000D+00  0.0000000000000D+00
   350  3.4900000000000D+00  0.0000000000000D+00  0.0000000000000D+00
   351  3.5000000000000D+00  0.0000000000000D+00  0.0000000000000D+00
   352  3.5100000000000D+00  0.0000000000000D+00  0.0000000000000D+00
   353  3.5200000000000D+00  0.0000000000000D+00  0.0000000000000D+00
   354  3.5300000000000D+00  0.0000000000000D+00  0.0000000000000D+00
   355  3.5400000000000D+00  0.0000000000000D+00  0.0000000000000D+00
   356  3.5500000000000D+00  0.0000000000000D+00  0.0000000000000D+00
   357  3.5600000000000D+00  0.0000000000000D+00  0.0000000000000D+00
   358  3.5700000000000D+00  0.0000000000000D+00  0.0000000000000D+00
   359  3.5800000000000D+00  0.0000000000000D+00  0.0000000000000D+00
   360  3.5900000000000D+00  0.0000000000000D+00  0.0000000000000D+00
   361  3.6000000000000D+00  0.0000000000000D+00  0.0000000000000D+00
   362  3.6100000000000D+00  0.0000000000000D+00  0.0000000000000D+00
   363  3.6200000000000D+00  0.0000000000000D+00  0.0000000000000D+00
   364  3.6300000000000D+00  0.0000000000000D+00  0.0000000000000D+00
   365  3.6400000000000D+00  0.0000000000000D+00  0.0000000000000D+00
   366  3.6500000000000D+00  0.0000000000000D+00  0.0000000000000D+00
   367  3.6600000000000D+00  0.0000000000000D+00  0.0000000000000D+00
   368  3.6700000000000D+00  0.0000000000000D+00  0.0000000000000D+00
   369  3.6800000000000D+00  0.0000000000000D+00  0.0000000000000D+00
   370  3.6900000000000D+00  0.0000000000000D+00  0.0000000000000D+00
   371  3.7000000000000D+00  0.0000000000000D+00  0.0000000000000D+00
   372  3.7100000000000D+00  0.0000000000000D+00  0.0000000000000D+00
   373  3.7200000000000D+00  0.0000000000000D+00  0.0000000000000D+00
   374  3.7300000000000D+00  0.0000000000000D+00  0.0000000000000D+00
   375  3.7400000000000D+00  0.0000000000000D+00  0.0000000000000D+00
   376  3.7500000000000D+00  0.0000000000000D+00  0.0000000000000D+00
   377  3.7600000000000D+00  0.0000000000000D+00  0.0000000000000D+00
   378  3.7700000000000D+00  0.0000000000000D+00  0.0000000000000D+00
   379  3.7800000000000D+00  0.0000000000000D+00  0.0000000000000D+00
   380  3.7900000000000D+00  0.0000000000000D+00  0.0000000000000D+00
   381  3.8000000000000D+00  0.0000000000000D+00  0.0000000000000D+00
   382  3.8100000000000D+00  0.0000000000000D+00  0.0000000000000D+00
   383  3.8200000000000D+00  0.0000000000000D+00  0.0000000000000D+00
   384  3.8300000000000D+00  0.0000000000000D+00  0.0000000000000D+00
   385  3.8400000000000D+00  0.0000000000000D+00  0.0000000000000D+00
   386  3.8500000000000D+00  0.0000000000000D+00  0.0000000000000D+00
   387  3.8600000000000D+00  0.0000000000000D+00  0.0000000000000D+00
   388  3.8700000000000D+00  0.0000000000000D+00  0.0000000000000D+00
   389  3.8800000000000D+00  0.0000000000000D+00  0.0000000000000D+00
   390  3.8900000000000D+00  0.0000000000000D+00  0.0000000000000D+00
   391  3.9000000000000D+00  0.0000000000000D+00  0.0000000000000D+00
   392  3.9100000000000D+00  0.0000000000000D+00  0.0000000000000D+00
   393  3.9200000000000D+00  0.0000000000000D+00  0.0000000000000D+00
   394  3.9300000000000D+00  0.0000000000000D+00  0.0000000000000D+00
   395  3.9400000000000D+00  0.0000000000000D+00  0.0000000000000D+00
   396  3.9500000000000D+00  0.0000000000000D+00  0.0000000000000D+00
   397  3.9600000000000D+00  0.0000000000000D+00  0.0000000000000D+00
   398  3.9700000000000D+00  0.0000000000000D+00  0.0000000000000D+00
   399  3.9800000000000D+00  0.0000000000000D+00  0.0000000000000D+00
   400  3.9900000000000D+00  0.0000000000000D+00  0.0000000000000D+00
   401  4.0000000000000D+00  0.0000000000000D+00  0.0000000000000D+00
   402  4.0100000000000D+00  0.0000000000000D+00  0.0000000000000D+00
   403  4.0200000000000D+00  0.0000000000000D+00  0.0000000000000D+00
   404  4.0300000000000D+00  0.0000000000000D+00  0.0000000000000D+00
   405  4.0400000000000D+00  0.0000000000000D+00  0.0000000000000D+00
   406  4.0500000000000D+00  0.0000000000000D+00  0.0000000000000D+00
   407  4.0600000000000D+00  0.0000000000000D+00  0.0000000000000D+00
   408  4.0700000000000D+00  0.0000000000000D+00  0.0000000000000D+00
   409  4.0800000000000D+00  0.0000000000000D+00  0.0000000000000D+00
   410  4.0900000000000D+00  0.0000000000000D+00  0.0000000000000D+00
   411  4.1000000000000D+00  0.0000000000000D+00  0.0000000000000D+00
   412  4.1100000000000D+00  0.0000000000000D+00  0.0000000000000D+00
   413  4.1200000000000D+00  0.0000000000000D+00  0.0000000000000D+00
   414  4.1300000000000D+00  0.0000000000000D+00  0.0000000000000D+00
   415  4.1400000000000D+00  0.0000000000000D+00  0.0000000000000D+00
   416  4.1500000000000D+00  0.0000000000000D+00  0.0000000000000D+00
   417  4.1600000000000D+00  0.0000000000000D+00  0.0000000000000D+00
   418  4.1700000000000D+00  0.0000000000000D+00  0.0000000000000D+00
   419  4.1800000000000D+00  0.0000000000000D+00  0.0000000000000D+00
   420  4.1900000000000D+00  0.0000000000000D+00  0.0000000000000D+00
   421  4.2000000000000D+00  0.0000000000000D+00  0.0000000000000D+00
   422  4.2100000000000D+00  0.0000000000000D+00  0.0000000000000D+00