Re    ONCVPSP-3.3.1  r_core=   1.99393   2.09138   1.81245   2.65487
     75.0000     15.0000      210904    zatom,zion,pspd
     8      11   3     4   600     0    pspcod,pspxc,lmax,lloc,mmax,r2well
  5.99000000  0.00000000  0.00000000    rchrg fchrg qchrg
     2     3     3     4    nproj
     3     1           extension_switch
     4     3     4    nprojso
   0                         2.0030820697306D+00  1.2084984905326D+01
     1  0.0000000000000D+00 -1.0806450179146D-10  4.7960024840421D-11
     2  1.0000000000000D-02 -1.0699445263733D-02  5.1939521665885D-02
     3  2.0000000000000D-02 -2.1403449357697D-02  1.0383171548464D-01
     4  3.0000000000000D-02 -3.2116121314492D-02  1.5562912143132D-01
     5  4.0000000000000D-02 -4.2840674686277D-02  2.0728401683467D-01
     6  5.0000000000000D-02 -5.3578990064258D-02  2.5874828931546D-01
     7  6.0000000000000D-02 -6.4331189833448D-02  3.0997331480431D-01
     8  7.0000000000000D-02 -7.5095229114152D-02  3.6090984227612D-01
     9  8.0000000000000D-02 -8.5866506733633D-02  4.1150788678979D-01
    10  9.0000000000000D-02 -9.6637499937312D-02  4.6171663236260D-01
    11  1.0000000000000D-01 -1.0739742638938D-01  5.1148434613815D-01
    12  1.1000000000000D-01 -1.1813193682859D-01  5.6075830522507D-01
    13  1.2000000000000D-01 -1.2882284153719D-01  6.0948473749212D-01
    14  1.3000000000000D-01 -1.3944787355034D-01  6.5760877750399D-01
    15  1.4000000000000D-01 -1.4998049128143D-01  7.0507443867076D-01
    16  1.5000000000000D-01 -1.6038972296623D-01  7.5182460256532D-01
    17  1.6000000000000D-01 -1.7064005503778D-01  7.9780102623504D-01
    18  1.7000000000000D-01 -1.8069136623515D-01  8.4294436820014D-01
    19  1.8000000000000D-01 -1.9049890892553D-01  8.8719423368980D-01
    20  1.9000000000000D-01 -2.0001333878036D-01  9.3048923952099D-01
    21  2.0000000000000D-01 -2.0918079359674D-01  9.7276709887368D-01
    22  2.1000000000000D-01 -2.1794302169475D-01  1.0139647260613D+00
    23  2.2000000000000D-01 -2.2623755995354D-01  1.0540183612377D+00
    24  2.3000000000000D-01 -2.3399796117493D-01  1.0928637148221D+00
    25  2.4000000000000D-01 -2.4115407008599D-01  1.1304361312640D+00
    26  2.5000000000000D-01 -2.4763234691361D-01  1.1666707716083D+00
    27  2.6000000000000D-01 -2.5335623708663D-01  1.2015028141647D+00
    28  2.7000000000000D-01 -2.5824658524767D-01  1.2348676724259D+00
    29  2.8000000000000D-01 -2.6222209138927D-01  1.2667012292293D+00
    30  2.9000000000000D-01 -2.6519980657068D-01  1.2969400860056D+00
    31  3.0000000000000D-01 -2.6709566532398D-01  1.3255218258164D+00
    32  3.1000000000000D-01 -2.6782505152520D-01  1.3523852887463D+00
    33  3.2000000000000D-01 -2.6730339418874D-01  1.3774708580855D+00
    34  3.3000000000000D-01 -2.6544678934551D-01  1.4007207556188D+00
    35  3.4000000000000D-01 -2.6217264388847D-01  1.4220793442284D+00
    36  3.5000000000000D-01 -2.5740033701587D-01  1.4414934359129D+00
    37  3.6000000000000D-01 -2.5105189467560D-01  1.4589126032433D+00
    38  3.7000000000000D-01 -2.4305267221520D-01  1.4742894921916D+00
    39  3.8000000000000D-01 -2.3333204027292D-01  1.4875801342123D+00
    40  3.9000000000000D-01 -2.2182406880863D-01  1.4987442554005D+00
    41  4.0000000000000D-01 -2.0846820407054D-01  1.5077455805183D+00
    42  4.1000000000000D-01 -1.9320993322564D-01  1.5145521296577D+00
    43  4.2000000000000D-01 -1.7600143135059D-01  1.5191365053035D+00
    44  4.3000000000000D-01 -1.5680218548658D-01  1.5214761675684D+00
    45  4.4000000000000D-01 -1.3557959050627D-01  1.5215536953972D+00
    46  4.5000000000000D-01 -1.1230951162498D-01  1.5193570315791D+00
    47  4.6000000000000D-01 -8.6976808512017D-02  1.5148797094618D+00
    48  4.7000000000000D-01 -5.9575816120345D-02  1.5081210593364D+00
    49  4.8000000000000D-01 -3.0110777555009D-02  1.4990863925468D+00
    50  4.9000000000000D-01  1.4037754587571D-03  1.4877871614829D+00
    51  5.0000000000000D-01  3.4942698668836D-02  1.4742410937353D+00
    52  5.1000000000000D-01  7.0469971797175D-02  1.4584722988178D+00
    53  5.2000000000000D-01  1.0793849894486D-01  1.4405113460164D+00
    54  5.3000000000000D-01  1.4728997601503D-01  1.4203953120747D+00
    55  5.4000000000000D-01  1.8845482785296D-01  1.3981677976035D+00
    56  5.5000000000000D-01  2.3135221735994D-01  1.3738789112783D+00
    57  5.6000000000000D-01  2.7589012836868D-01  1.3475852210845D+00
    58  5.7000000000000D-01  3.2196552357539D-01  1.3193496720665D+00
    59  5.8000000000000D-01  3.6946457831239D-01  1.2892414702497D+00
    60  5.9000000000000D-01  4.1826299041510D-01  1.2573359326124D+00
    61  6.0000000000000D-01  4.6822636589752D-01  1.2237143032086D+00
    62  6.1000000000000D-01  5.1921067959684D-01  1.1884635357627D+00
    63  6.2000000000000D-01  5.7106280939476D-01  1.1516760432789D+00
    64  6.3000000000000D-01  6.2362114206368D-01  1.1134494154367D+00
    65  6.4000000000000D-01  6.7671624823227D-01  1.0738861047618D+00
    66  6.5000000000000D-01  7.3017162341997D-01  1.0330930827853D+00
    67  6.6000000000000D-01  7.8380449155191D-01  9.9118146761487D-01
    68  6.7000000000000D-01  8.3742666684810D-01  9.4826612455689D-01
    69  6.8000000000000D-01  8.9084546948218D-01  9.0446524162158D-01
    70  6.9000000000000D-01  9.4386468992773D-01  8.5989988194270D-01
    71  7.0000000000000D-01  9.9628559646487D-01  8.1469351531975D-01
    72  7.1000000000000D-01  1.0479079799045D+00  7.6897153126150D-01
    73  7.2000000000000D-01  1.0985312292091D+00  7.2286073606449D-01
    74  7.3000000000000D-01  1.1479554313482D+00  6.7648883660121D-01
    75  7.4000000000000D-01  1.1959824884293D+00  6.2998391361690D-01
    76  7.5000000000000D-01  1.2424172448934D+00  5.8347388744149D-01
    77  7.6000000000000D-01  1.2870686173607D+00  5.3708597911276D-01
    78  7.7000000000000D-01  1.3297507195540D+00  4.9094616997747D-01
    79  7.8000000000000D-01  1.3702839746306D+00  4.4517866288813D-01
    80  7.9000000000000D-01  1.4084962071987D+00  3.9990534814419D-01
    81  8.0000000000000D-01  1.4442237073045D+00  3.5524527733702D-01
    82  8.1000000000000D-01  1.4773122587321D+00  3.1131414824739D-01
    83  8.2000000000000D-01  1.5076181240770D+00  2.6822380391358D-01
    84  8.3000000000000D-01  1.5350089792222D+00  2.2608174893585D-01
    85  8.4000000000000D-01  1.5593647900701D+00  1.8499068601100D-01
    86  8.5000000000000D-01  1.5805786246612D+00  1.4504807559782D-01
    87  8.6000000000000D-01  1.5985573941378D+00  1.0634572150231D-01
    88  8.7000000000000D-01  1.6132225163871D+00  6.8969385040373D-02
    89  8.8000000000000D-01  1.6245104966235D+00  3.2998430286518D-02
    90  8.9000000000000D-01  1.6323734196350D+00 -1.4944972489499D-03
    91  9.0000000000000D-01  1.6367793489253D+00 -3.4443756353799D-02
    92  9.1000000000000D-01  1.6377126285292D+00 -6.5790958295042D-02
    93  9.2000000000000D-01  1.6351740838506D+00 -9.5485175693486D-02
    94  9.3000000000000D-01  1.6291811184795D+00 -1.2348311055929D-01
    95  9.4000000000000D-01  1.6197677045694D+00 -1.4974922018773D-01
    96  9.5000000000000D-01  1.6069842650049D+00 -1.7425579985508D-01
    97  9.6000000000000D-01  1.5908974462455D+00 -1.9698302150103D-01
    98  9.7000000000000D-01  1.5715897813969D+00 -2.1791892783367D-01
    99  9.8000000000000D-01  1.5491592437407D+00 -2.3705938155215D-01
   100  9.9000000000000D-01  1.5237186916123D+00 -2.5440796963369D-01
   101  1.0000000000000D+00  1.4953952061831D+00 -2.6997586288896D-01
   102  1.0100000000000D+00  1.4643293243480D+00 -2.8378163124101D-01
   103  1.0200000000000D+00  1.4306741695512D+00 -2.9585101543122D-01
   104  1.0300000000000D+00  1.3945944839990D+00 -3.0621665610134D-01
   105  1.0400000000000D+00  1.3562655662557D+00 -3.1491778142044D-01
   106  1.0500000000000D+00  1.3158721188133D+00 -3.2199985466898D-01
   107  1.0600000000000D+00  1.2736070106984D+00 -3.2751418338958D-01
   108  1.0700000000000D+00  1.2296699606635D+00 -3.3151749191793D-01
   109  1.0800000000000D+00  1.1842661469460D+00 -3.3407145929899D-01
   110  1.0900000000000D+00  1.1376047499156D+00 -3.3524222474390D-01
   111  1.1000000000000D+00  1.0898974343132D+00 -3.3509986296004D-01
   112  1.1100000000000D+00  1.0413567780214D+00 -3.3371783180567D-01
   113  1.1200000000000D+00  9.9219465453986D-01 -3.3117239484355D-01
   114  1.1300000000000D+00  9.4262057649214D-01 -3.2754202145924D-01
   115  1.1400000000000D+00  8.9284000761276D-01 -3.2290676729201D-01
   116  1.1500000000000D+00  8.4305265070965D-01 -3.1734763778627D-01
   117  1.1600000000000D+00  7.9345071907452D-01 -3.1094593770080D-01
   118  1.1700000000000D+00  7.4421719486159D-01 -3.0378260871706D-01
   119  1.1800000000000D+00  6.9552410681895D-01 -2.9593756257021D-01
   120  1.1900000000000D+00  6.4753074223607D-01 -2.8748899544857D-01
   121  1.2000000000000D+00  6.0038221089839D-01 -2.7851276366886D-01
   122  1.2100000000000D+00  5.5420672595261D-01 -2.6908151724891D-01
   123  1.2200000000000D+00  5.0911684573042D-01 -2.5926455752273D-01
   124  1.2300000000000D+00  4.6521322932619D-01 -2.4912819967431D-01
   125  1.2400000000000D+00  4.2258897410357D-01 -2.3873639198081D-01
   126  1.2500000000000D+00  3.8133014690771D-01 -2.2815068820870D-01
   127  1.2600000000000D+00  3.4151483648710D-01 -2.1742998299461D-01
   128  1.2700000000000D+00  3.0321314751893D-01 -2.0663040942528D-01
   129  1.2800000000000D+00  2.6648696353378D-01 -1.9580520836513D-01
   130  1.2900000000000D+00  2.3138981539530D-01 -1.8500462383577D-01
   131  1.3000000000000D+00  1.9796679771097D-01 -1.7427581556318D-01
   132  1.3100000000000D+00  1.6625452987135D-01 -1.6366278763417D-01
   133  1.3200000000000D+00  1.3628116814156D-01 -1.5320633479657D-01
   134  1.3300000000000D+00  1.0806648278854D-01 -1.4294400943464D-01
   135  1.3400000000000D+00  8.1621974234691D-02 -1.3291010380527D-01
   136  1.3500000000000D+00  5.6951032714908D-02 -1.2313564844466D-01
   137  1.3600000000000D+00  3.4049149633440D-02 -1.1364842846652D-01
   138  1.3700000000000D+00  1.2904169721620D-02 -1.0447301535594D-01
   139  1.3800000000000D+00 -6.5034172776858D-03 -9.5630813882377D-02
   140  1.3900000000000D+00 -2.4200146835767D-02 -8.7140123725324D-02
   141  1.4000000000000D+00 -4.0219215641940D-02 -7.9016214774117D-02
   142  1.4100000000000D+00 -5.4600087608878D-02 -7.1271415010407D-02
   143  1.4200000000000D+00 -6.7388070106888D-02 -6.3915210782630D-02
   144  1.4300000000000D+00 -7.8633862876866D-02 -5.6954358724126D-02
   145  1.4400000000000D+00 -8.8393093261208D-02 -5.0393005885404D-02
   146  1.4500000000000D+00 -9.6725833054288D-02 -4.4232818996717D-02
   147  1.4600000000000D+00 -1.0369609336061D-01 -3.8473123583619D-02
   148  1.4700000000000D+00 -1.0937131422855D-01 -3.3111048639573D-02
   149  1.4800000000000D+00 -1.1382185154863D-01 -2.8141676035909D-02
   150  1.4900000000000D+00 -1.1712045756210D-01 -2.3558195341622D-02
   151  1.5000000000000D+00 -1.1934176122054D-01 -1.9352062283941D-02
   152  1.5100000000000D+00 -1.2056175641950D-01 -1.5513158638513D-02
   153  1.5200000000000D+00 -1.2085729712305D-01 -1.2029953549605D-02
   154  1.5300000000000D+00 -1.2030559751929D-01 -8.8896666070405D-03
   155  1.5400000000000D+00 -1.1898375138307D-01 -6.0784287537541D-03
   156  1.5500000000000D+00 -1.1696827789443D-01 -3.5814389313040D-03
   157  1.5600000000000D+00 -1.1433467721310D-01 -1.3831206150484D-03
   158  1.5700000000000D+00 -1.1115700154552D-01  5.3272347432516D-04
   159  1.5800000000000D+00 -1.0750746322013D-01  2.1827643261547D-03
   160  1.5900000000000D+00 -1.0345607089399D-01  3.5840051556425D-03
   161  1.6000000000000D+00 -9.9070289712125D-02  4.7536446096797D-03
   162  1.6100000000000D+00 -9.4414732017265D-02  5.7089465930222D-03
   163  1.6200000000000D+00 -8.9550883297630D-02  6.4671181754081D-03
   164  1.6300000000000D+00 -8.4536859533977D-02  7.0451947621582D-03
   165  1.6400000000000D+00 -7.9427199997149D-02  7.4599338284416D-03
   166  1.6500000000000D+00 -7.4272693662873D-02  7.7277169082970D-03
   167  1.6600000000000D+00 -6.9120241827911D-02  7.8644607534101D-03
   168  1.6700000000000D+00 -6.4012754642105D-02  7.8855372188971D-03
   169  1.6800000000000D+00 -5.8989083492167D-02  7.8057026166811D-03
   170  1.6900000000000D+00 -5.4083986529554D-02  7.6390359648076D-03
   171  1.7000000000000D+00 -4.9328128642491D-02  7.3988867015643D-03
   172  1.7100000000000D+00 -4.4748112696632D-02  7.0978311472315D-03
   173  1.7200000000000D+00 -4.0366542865974D-02  6.7476381546661D-03
   174  1.7300000000000D+00 -3.6202116336813D-02  6.3592430591755D-03
   175  1.7400000000000D+00 -3.2269743880948D-02  5.9427302876434D-03
   176  1.7500000000000D+00 -2.8580695039229D-02  5.5073235552181D-03
   177  1.7600000000000D+00 -2.5142768153160D-02  5.0613839546897D-03
   178  1.7700000000000D+00 -2.1960480590763D-02  4.6124147122887D-03
   179  1.7800000000000D+00 -1.9035279060600D-02  4.1670728480508D-03
   180  1.7900000000000D+00 -1.6365765317292D-02  3.7311864426167D-03
   181  1.8000000000000D+00 -1.3947936490261D-02  3.3097776001069D-03
   182  1.8100000000000D+00 -1.1775435938857D-02  2.9070899213143D-03
   183  1.8200000000000D+00 -9.8398126725000D-03  2.5266202520930D-03
   184  1.8300000000000D+00 -8.1307864026503D-03  2.1711538313829D-03
   185  1.8400000000000D+00 -6.6365150570748D-03  1.8428022277178D-03
   186  1.8500000000000D+00 -5.3438627732359D-03  1.5430434827032D-03
   187  1.8600000000000D+00 -4.2386647671594D-03  1.2727636474283D-03
   188  1.8700000000000D+00 -3.3059871252131D-03  1.0322992082535D-03
   189  1.8800000000000D+00 -2.5303788827714D-03  8.2147973383987D-04
   190  1.8900000000000D+00 -1.8961129899789D-03  6.3966994705532D-04
   191  1.9000000000000D+00 -1.3874162952692D-03  4.8581116236789D-04
   192  1.9100000000000D+00 -9.8868222660048D-04  3.5846061109599D-04
   193  1.9200000000000D+00 -6.8466993923401D-04  2.5582946227853D-04
   194  1.9300000000000D+00 -4.6076950242548D-04  1.7583371298459D-04
   195  1.9400000000000D+00 -3.0283085465796D-04  1.1606576274532D-04
   196  1.9500000000000D+00 -1.9715088709989D-04  7.3757217943275D-05
   197  1.9600000000000D+00 -1.3185817065468D-04  4.6126327049234D-05
   198  1.9700000000000D+00 -9.8242146528193D-05  3.0755626350427D-05
   199  1.9800000000000D+00 -8.9072933641950D-05  2.5252992346248D-05
   200  1.9900000000000D+00 -8.2560876554389D-05  2.2537695797977D-05
   201  2.0000000000000D+00 -5.9538856816537D-05  1.6157353014049D-05
   202  2.0100000000000D+00 -2.4253205236309D-05  6.5894259042166D-06
   203  2.0200000000000D+00  3.1560926979009D-06 -8.4615224044749D-07
   204  2.0300000000000D+00  7.8654873034818D-06 -2.1062422342229D-06
   205  2.0400000000000D+00  1.6995436551962D-06 -4.5490218420452D-07
   206  2.0500000000000D+00 -1.6328983332827D-06  4.3480449979167D-07
   207  2.0600000000000D+00 -1.2327169593246D-06  3.2784093377285D-07
   208  2.0700000000000D+00  1.0445445912269D-07 -2.8442092032065D-08
   209  2.0800000000000D+00  2.1405538082319D-07 -5.8285523590535D-08
   210  2.0900000000000D+00  3.5772475690309D-08 -9.7405515699771D-09
   211  2.1000000000000D+00  0.0000000000000D+00  0.0000000000000D+00
   212  2.1100000000000D+00  0.0000000000000D+00  0.0000000000000D+00
   213  2.1200000000000D+00  0.0000000000000D+00  0.0000000000000D+00
   214  2.1300000000000D+00  0.0000000000000D+00  0.0000000000000D+00
   215  2.1400000000000D+00  0.0000000000000D+00  0.0000000000000D+00
   216  2.1500000000000D+00  0.0000000000000D+00  0.0000000000000D+00
   217  2.1600000000000D+00  0.0000000000000D+00  0.0000000000000D+00
   218  2.1700000000000D+00  0.0000000000000D+00  0.0000000000000D+00
   219  2.1800000000000D+00  0.0000000000000D+00  0.0000000000000D+00
   220  2.1900000000000D+00  0.0000000000000D+00  0.0000000000000D+00
   221  2.2000000000000D+00  0.0000000000000D+00  0.0000000000000D+00
   222  2.2100000000000D+00  0.0000000000000D+00  0.0000000000000D+00
   223  2.2200000000000D+00  0.0000000000000D+00  0.0000000000000D+00
   224  2.2300000000000D+00  0.0000000000000D+00  0.0000000000000D+00
   225  2.2400000000000D+00  0.0000000000000D+00  0.0000000000000D+00
   226  2.2500000000000D+00  0.0000000000000D+00  0.0000000000000D+00
   227  2.2600000000000D+00  0.0000000000000D+00  0.0000000000000D+00
   228  2.2700000000000D+00  0.0000000000000D+00  0.0000000000000D+00
   229  2.2800000000000D+00  0.0000000000000D+00  0.0000000000000D+00
   230  2.2900000000000D+00  0.0000000000000D+00  0.0000000000000D+00
   231  2.3000000000000D+00  0.0000000000000D+00  0.0000000000000D+00
   232  2.3100000000000D+00  0.0000000000000D+00  0.0000000000000D+00
   233  2.3200000000000D+00  0.0000000000000D+00  0.0000000000000D+00
   234  2.3300000000000D+00  0.0000000000000D+00  0.0000000000000D+00
   235  2.3400000000000D+00  0.0000000000000D+00  0.0000000000000D+00
   236  2.3500000000000D+00  0.0000000000000D+00  0.0000000000000D+00
   237  2.3600000000000D+00  0.0000000000000D+00  0.0000000000000D+00
   238  2.3700000000000D+00  0.0000000000000D+00  0.0000000000000D+00
   239  2.3800000000000D+00  0.0000000000000D+00  0.0000000000000D+00
   240  2.3900000000000D+00  0.0000000000000D+00  0.0000000000000D+00
   241  2.4000000000000D+00  0.0000000000000D+00  0.0000000000000D+00
   242  2.4100000000000D+00  0.0000000000000D+00  0.0000000000000D+00
   243  2.4200000000000D+00  0.0000000000000D+00  0.0000000000000D+00
   244  2.4300000000000D+00  0.0000000000000D+00  0.0000000000000D+00
   245  2.4400000000000D+00  0.0000000000000D+00  0.0000000000000D+00
   246  2.4500000000000D+00  0.0000000000000D+00  0.0000000000000D+00
   247  2.4600000000000D+00  0.0000000000000D+00  0.0000000000000D+00
   248  2.4700000000000D+00  0.0000000000000D+00  0.0000000000000D+00
   249  2.4800000000000D+00  0.0000000000000D+00  0.0000000000000D+00
   250  2.4900000000000D+00  0.0000000000000D+00  0.0000000000000D+00
   251  2.5000000000000D+00  0.0000000000000D+00  0.0000000000000D+00
   252  2.5100000000000D+00  0.0000000000000D+00  0.0000000000000D+00
   253  2.5200000000000D+00  0.0000000000000D+00  0.0000000000000D+00
   254  2.5300000000000D+00  0.0000000000000D+00  0.0000000000000D+00
   255  2.5400000000000D+00  0.0000000000000D+00  0.0000000000000D+00
   256  2.5500000000000D+00  0.0000000000000D+00  0.0000000000000D+00
   257  2.5600000000000D+00  0.0000000000000D+00  0.0000000000000D+00
   258  2.5700000000000D+00  0.0000000000000D+00  0.0000000000000D+00
   259  2.5800000000000D+00  0.0000000000000D+00  0.0000000000000D+00
   260  2.5900000000000D+00  0.0000000000000D+00  0.0000000000000D+00
   261  2.6000000000000D+00  0.0000000000000D+00  0.0000000000000D+00
   262  2.6100000000000D+00  0.0000000000000D+00  0.0000000000000D+00
   263  2.6200000000000D+00  0.0000000000000D+00  0.0000000000000D+00
   264  2.6300000000000D+00  0.0000000000000D+00  0.0000000000000D+00
   265  2.6400000000000D+00  0.0000000000000D+00  0.0000000000000D+00
   266  2.6500000000000D+00  0.0000000000000D+00  0.0000000000000D+00
   267  2.6600000000000D+00  0.0000000000000D+00  0.0000000000000D+00
   268  2.6700000000000D+00  0.0000000000000D+00  0.0000000000000D+00
   269  2.6800000000000D+00  0.0000000000000D+00  0.0000000000000D+00
   270  2.6900000000000D+00  0.0000000000000D+00  0.0000000000000D+00
   271  2.7000000000000D+00  0.0000000000000D+00  0.0000000000000D+00
   272  2.7100000000000D+00  0.0000000000000D+00  0.0000000000000D+00
   273  2.7200000000000D+00  0.0000000000000D+00  0.0000000000000D+00
   274  2.7300000000000D+00  0.0000000000000D+00  0.0000000000000D+00
   275  2.7400000000000D+00  0.0000000000000D+00  0.0000000000000D+00
   276  2.7500000000000D+00  0.0000000000000D+00  0.0000000000000D+00
   277  2.7600000000000D+00  0.0000000000000D+00  0.0000000000000D+00
   278  2.7700000000000D+00  0.0000000000000D+00  0.0000000000000D+00
   279  2.7800000000000D+00  0.0000000000000D+00  0.0000000000000D+00
   280  2.7900000000000D+00  0.0000000000000D+00  0.0000000000000D+00
   281  2.8000000000000D+00  0.0000000000000D+00  0.0000000000000D+00
   282  2.8100000000000D+00  0.0000000000000D+00  0.0000000000000D+00
   283  2.8200000000000D+00  0.0000000000000D+00  0.0000000000000D+00
   284  2.8300000000000D+00  0.0000000000000D+00  0.0000000000000D+00
   285  2.8400000000000D+00  0.0000000000000D+00  0.0000000000000D+00
   286  2.8500000000000D+00  0.0000000000000D+00  0.0000000000000D+00
   287  2.8600000000000D+00  0.0000000000000D+00  0.0000000000000D+00
   288  2.8700000000000D+00  0.0000000000000D+00  0.0000000000000D+00
   289  2.8800000000000D+00  0.0000000000000D+00  0.0000000000000D+00
   290  2.8900000000000D+00  0.0000000000000D+00  0.0000000000000D+00
   291  2.9000000000000D+00  0.0000000000000D+00  0.0000000000000D+00
   292  2.9100000000000D+00  0.0000000000000D+00  0.0000000000000D+00
   293  2.9200000000000D+00  0.0000000000000D+00  0.0000000000000D+00
   294  2.9300000000000D+00  0.0000000000000D+00  0.0000000000000D+00
   295  2.9400000000000D+00  0.0000000000000D+00  0.0000000000000D+00
   296  2.9500000000000D+00  0.0000000000000D+00  0.0000000000000D+00
   297  2.9600000000000D+00  0.0000000000000D+00  0.0000000000000D+00
   298  2.9700000000000D+00  0.0000000000000D+00  0.0000000000000D+00
   299  2.9800000000000D+00  0.0000000000000D+00  0.0000000000000D+00
   300  2.9900000000000D+00  0.0000000000000D+00  0.0000000000000D+00
   301  3.0000000000000D+00  0.0000000000000D+00  0.0000000000000D+00
   302  3.0100000000000D+00  0.0000000000000D+00  0.0000000000000D+00
   303  3.0200000000000D+00  0.0000000000000D+00  0.0000000000000D+00
   304  3.0300000000000D+00  0.0000000000000D+00  0.0000000000000D+00
   305  3.0400000000000D+00  0.0000000000000D+00  0.0000000000000D+00
   306  3.0500000000000D+00  0.0000000000000D+00  0.0000000000000D+00
   307  3.0600000000000D+00  0.0000000000000D+00  0.0000000000000D+00
   308  3.0700000000000D+00  0.0000000000000D+00  0.0000000000000D+00
   309  3.0800000000000D+00  0.0000000000000D+00  0.0000000000000D+00
   310  3.0900000000000D+00  0.0000000000000D+00  0.0000000000000D+00
   311  3.1000000000000D+00  0.0000000000000D+00  0.0000000000000D+00
   312  3.1100000000000D+00  0.0000000000000D+00  0.0000000000000D+00
   313  3.1200000000000D+00  0.0000000000000D+00  0.0000000000000D+00
   314  3.1300000000000D+00  0.0000000000000D+00  0.0000000000000D+00
   315  3.1400000000000D+00  0.0000000000000D+00  0.0000000000000D+00
   316  3.1500000000000D+00  0.0000000000000D+00  0.0000000000000D+00
   317  3.1600000000000D+00  0.0000000000000D+00  0.0000000000000D+00
   318  3.1700000000000D+00  0.0000000000000D+00  0.0000000000000D+00
   319  3.1800000000000D+00  0.0000000000000D+00  0.0000000000000D+00
   320  3.1900000000000D+00  0.0000000000000D+00  0.0000000000000D+00
   321  3.2000000000000D+00  0.0000000000000D+00  0.0000000000000D+00
   322  3.2100000000000D+00  0.0000000000000D+00  0.0000000000000D+00
   323  3.2200000000000D+00  0.0000000000000D+00  0.0000000000000D+00
   324  3.2300000000000D+00  0.0000000000000D+00  0.0000000000000D+00
   325  3.2400000000000D+00  0.0000000000000D+00  0.0000000000000D+00
   326  3.2500000000000D+00  0.0000000000000D+00  0.0000000000000D+00
   327  3.2600000000000D+00  0.0000000000000D+00  0.0000000000000D+00
   328  3.2700000000000D+00  0.0000000000000D+00  0.0000000000000D+00
   329  3.2800000000000D+00  0.0000000000000D+00  0.0000000000000D+00
   330  3.2900000000000D+00  0.0000000000000D+00  0.0000000000000D+00
   331  3.3000000000000D+00  0.0000000000000D+00  0.0000000000000D+00
   332  3.3100000000000D+00  0.0000000000000D+00  0.0000000000000D+00
   333  3.3200000000000D+00  0.0000000000000D+00  0.0000000000000D+00
   334  3.3300000000000D+00  0.0000000000000D+00  0.0000000000000D+00
   335  3.3400000000000D+00  0.0000000000000D+00  0.0000000000000D+00
   336  3.3500000000000D+00  0.0000000000000D+00  0.0000000000000D+00
   337  3.3600000000000D+00  0.0000000000000D+00  0.0000000000000D+00
   338  3.3700000000000D+00  0.0000000000000D+00  0.0000000000000D+00
   339  3.3800000000000D+00  0.0000000000000D+00  0.0000000000000D+00
   340  3.3900000000000D+00  0.0000000000000D+00  0.0000000000000D+00
   341  3.4000000000000D+00  0.0000000000000D+00  0.0000000000000D+00
   342  3.4100000000000D+00  0.0000000000000D+00  0.0000000000000D+00
   343  3.4200000000000D+00  0.0000000000000D+00  0.0000000000000D+00
   344  3.4300000000000D+00  0.0000000000000D+00  0.0000000000000D+00
   345  3.4400000000000D+00  0.0000000000000D+00  0.0000000000000D+00
   346  3.4500000000000D+00  0.0000000000000D+00  0.0000000000000D+00
   347  3.4600000000000D+00  0.0000000000000D+00  0.0000000000000D+00
   348  3.4700000000000D+00  0.0000000000000D+00  0.0000000000000D+00
   349  3.4800000000000D+00  0.0000000000000D+00  0.0000000000000D+00
   350  3.4900000000000D+00  0.0000000000000D+00  0.0000000000000D+00
   351  3.5000000000000D+00  0.0000000000000D+00  0.0000000000000D+00
   352  3.5100000000000D+00  0.0000000000000D+00  0.0000000000000D+00
   353  3.5200000000000D+00  0.0000000000000D+00  0.0000000000000D+00
   354  3.5300000000000D+00  0.0000000000000D+00  0.0000000000000D+00
   355  3.5400000000000D+00  0.0000000000000D+00  0.0000000000000D+00
   356  3.5500000000000D+00  0.0000000000000D+00  0.0000000000000D+00
   357  3.5600000000000D+00  0.0000000000000D+00  0.0000000000000D+00
   358  3.5700000000000D+00  0.0000000000000D+00  0.0000000000000D+00
   359  3.5800000000000D+00  0.0000000000000D+00  0.0000000000000D+00
   360  3.5900000000000D+00  0.0000000000000D+00  0.0000000000000D+00
   361  3.6000000000000D+00  0.0000000000000D+00  0.0000000000000D+00
   362  3.6100000000000D+00  0.0000000000000D+00  0.0000000000000D+00
   363  3.6200000000000D+00  0.0000000000000D+00  0.0000000000000D+00
   364  3.6300000000000D+00  0.0000000000000D+00  0.0000000000000D+00
   365  3.6400000000000D+00  0.0000000000000D+00  0.0000000000000D+00
   366  3.6500000000000D+00  0.0000000000000D+00  0.0000000000000D+00
   367  3.6600000000000D+00  0.0000000000000D+00  0.0000000000000D+00
   368  3.6700000000000D+00  0.0000000000000D+00  0.0000000000000D+00
   369  3.6800000000000D+00  0.0000000000000D+00  0.0000000000000D+00
   370  3.6900000000000D+00  0.0000000000000D+00  0.0000000000000D+00
   371  3.7000000000000D+00  0.0000000000000D+00  0.0000000000000D+00
   372  3.7100000000000D+00  0.0000000000000D+00  0.0000000000000D+00
   373  3.7200000000000D+00  0.0000000000000D+00  0.0000000000000D+00
   374  3.7300000000000D+00  0.0000000000000D+00  0.0000000000000D+00
   375  3.7400000000000D+00  0.0000000000000D+00  0.0000000000000D+00
   376  3.7500000000000D+00  0.0000000000000D+00  0.0000000000000D+00
   377  3.7600000000000D+00  0.0000000000000D+00  0.0000000000000D+00
   378  3.7700000000000D+00  0.0000000000000D+00  0.0000000000000D+00
   379  3.7800000000000D+00  0.0000000000000D+00  0.0000000000000D+00
   380  3.7900000000000D+00  0.0000000000000D+00  0.0000000000000D+00
   381  3.8000000000000D+00  0.0000000000000D+00  0.0000000000000D+00
   382  3.8100000000000D+00  0.0000000000000D+00  0.0000000000000D+00
   383  3.8200000000000D+00  0.0000000000000D+00  0.0000000000000D+00
   384  3.8300000000000D+00  0.0000000000000D+00  0.0000000000000D+00
   385  3.8400000000000D+00  0.0000000000000D+00  0.0000000000000D+00
   386  3.8500000000000D+00  0.0000000000000D+00  0.0000000000000D+00
   387  3.8600000000000D+00  0.0000000000000D+00  0.0000000000000D+00
   388  3.8700000000000D+00  0.0000000000000D+00  0.0000000000000D+00
   389  3.8800000000000D+00  0.0000000000000D+00  0.0000000000000D+00
   390  3.8900000000000D+00  0.0000000000000D+00  0.0000000000000D+00
   391  3.9000000000000D+00  0.0000000000000D+00  0.0000000000000D+00
   392  3.9100000000000D+00  0.0000000000000D+00  0.0000000000000D+00
   393  3.9200000000000D+00  0.0000000000000D+00  0.0000000000000D+00
   394  3.9300000000000D+00  0.0000000000000D+00  0.0000000000000D+00
   395  3.9400000000000D+00  0.0000000000000D+00  0.0000000000000D+00
   396  3.9500000000000D+00  0.0000000000000D+00  0.0000000000000D+00
   397  3.9600000000000D+00  0.0000000000000D+00  0.0000000000000D+00
   398  3.9700000000000D+00  0.0000000000000D+00  0.0000000000000D+00
   399  3.9800000000000D+00  0.0000000000000D+00  0.0000000000000D+00
   400  3.9900000000000D+00  0.0000000000000D+00  0.0000000000000D+00
   401  4.0000000000000D+00  0.0000000000000D+00  0.0000000000000D+00
   402  4.0100000000000D+00  0.0000000000000D+00  0.0000000000000D+00
   403  4.0200000000000D+00  0.0000000000000D+00  0.0000000000000D+00
   404  4.0300000000000D+00  0.0000000000000D+00  0.0000000000000D+00
   405  4.0400000000000D+00  0.0000000000000D+00  0.0000000000000D+00
   406  4.0500000000000D+00  0.0000000000000D+00  0.0000000000000D+00
   407  4.0600000000000D+00  0.0000000000000D+00  0.0000000000000D+00
   408  4.0700000000000D+00  0.0000000000000D+00  0.0000000000000D+00
   409  4.0800000000000D+00  0.0000000000000D+00  0.0000000000000D+00
   410  4.0900000000000D+00  0.0000000000000D+00  0.0000000000000D+00
   411  4.1000000000000D+00  0.0000000000000D+00  0.0000000000000D+00
   412  4.1100000000000D+00  0.0000000000000D+00  0.0000000000000D+00
   413  4.1200000000000D+00  0.0000000000000D+00  0.0000000000000D+00
   414  4.1300000000000D+00  0.0000000000000D+00  0.0000000000000D+00
   415  4.1400000000000D+00  0.0000000000000D+00  0.0000000000000D+00
   416  4.1500000000000D+00  0.0000000000000D+00  0.0000000000000D+00
   417  4.1600000000000D+00  0.0000000000000D+00  0.0000000000000D+00
   418  4.1700000000000D+00  0.0000000000000D+00  0.0000000000000D+00
   419  4.1800000000000D+00  0.0000000000000D+00  0.0000000000000D+00
   420  4.1900000000000D+00  0.0000000000000D+00  0.0000000000000D+00
   421  4.2000000000000D+00  0.0000000000000D+00  0.0000000000000D+00
   422  4.2100000000000D+00  0.0000000000000D+00  0.0000000000000D+00