Re    ONCVPSP-3.3.1  r_core=   1.99393   2.09138   1.81245   2.65487
     75.0000     15.0000      210904    zatom,zion,pspd
     8      11   3     4   600     0    pspcod,pspxc,lmax,lloc,mmax,r2well
  5.99000000  0.00000000  0.00000000    rchrg fchrg qchrg
     2     2     2     2     0    nproj
     1     1           extension_switch
   0                         1.2070886178573D+01  2.0054249434835D+00
     1  0.0000000000000D+00  4.7751413934094D-11 -1.0759546031913D-10
     2  1.0000000000000D-02  5.2044610099550D-02 -1.0715934224908D-02
     3  2.0000000000000D-02  1.0404141528348D-01 -2.1436021129046D-02
     4  3.0000000000000D-02  1.5594248055515D-01 -3.2163966373766D-02
     5  4.0000000000000D-02  2.0769961245523D-01 -4.2902585682387D-02
     6  5.0000000000000D-02  2.5926423406673D-01 -5.3653370088235D-02
     7  6.0000000000000D-02  3.1058726506972D-01 -6.4416063367067D-02
     8  7.0000000000000D-02  3.6161900847297D-01 -7.5188255588831D-02
     9  8.0000000000000D-02  4.1230904560177D-01 -8.5964996616139D-02
    10  9.0000000000000D-02  4.6260614086197D-01 -9.6738433243205D-02
    11  1.0000000000000D-01  5.1245815773026D-01 -1.0749747351015D-01
    12  1.1000000000000D-01  5.6181198733917D-01 -1.1822748154411D-01
    13  1.2000000000000D-01  6.1061349093445D-01 -1.2891000607149D-01
    14  1.3000000000000D-01  6.5880745738093D-01 -1.3952254551628D-01
    15  1.4000000000000D-01  7.0633757678302D-01 -1.5003835234762D-01
    16  1.5000000000000D-01  7.5314643116693D-01 -1.6042627906923D-01
    17  1.6000000000000D-01  7.9917550304502D-01 -1.7065066795257D-01
    18  1.7000000000000D-01  8.4436520254870D-01 -1.8067128630855D-01
    19  1.8000000000000D-01  8.8865491367615D-01 -1.9044330876948D-01
    20  1.9000000000000D-01  9.3198306005530D-01 -1.9991734771615D-01
    21  2.0000000000000D-01  9.7428719047188D-01 -2.0903953263608D-01
    22  2.1000000000000D-01  1.0155040842584D+00 -2.1775163884006D-01
    23  2.2000000000000D-01  1.0555698764829D+00 -2.2599126559737D-01
    24  2.3000000000000D-01  1.0944202027170D+00 -2.3369206337758D-01
    25  2.4000000000000D-01  1.1319903630039D+00 -2.4078400951059D-01
    26  2.5000000000000D-01  1.1682155044879D+00 -2.4719373119969D-01
    27  2.6000000000000D-01  1.2030308220069D+00 -2.5284487444613D-01
    28  2.7000000000000D-01  1.2363717757966D+00 -2.5765851707168D-01
    29  2.8000000000000D-01  1.2681743253000D+00 -2.6155362365940D-01
    30  2.9000000000000D-01  1.2983751779300D+00 -2.6444753987582D-01
    31  3.0000000000000D-01  1.3269120514896D+00 -2.6625652329130D-01
    32  3.1000000000000D-01  1.3537239488184D+00 -2.6689630748341D-01
    33  3.2000000000000D-01  1.3787514431060D+00 -2.6628269589214D-01
    34  3.3000000000000D-01  1.4019369721934D+00 -2.6433218159875D-01
    35  3.4000000000000D-01  1.4232251400747D+00 -2.6096258892421D-01
    36  3.5000000000000D-01  1.4425630237078D+00 -2.5609373249117D-01
    37  3.6000000000000D-01  1.4599004831607D+00 -2.4964808916689D-01
    38  3.7000000000000D-01  1.4751904730373D+00 -2.4155147810659D-01
    39  3.8000000000000D-01  1.4883893530684D+00 -2.3173374394827D-01
    40  3.9000000000000D-01  1.4994571957006D+00 -2.2012943807430D-01
    41  4.0000000000000D-01  1.5083580884830D+00 -2.0667849275187D-01
    42  4.1000000000000D-01  1.5150604290267D+00 -1.9132688289768D-01
    43  4.2000000000000D-01  1.5195372103112D+00 -1.7402727018103D-01
    44  4.3000000000000D-01  1.5217662941165D+00 -1.5473962418597D-01
    45  4.4000000000000D-01  1.5217306703893D+00 -1.3343181539850D-01
    46  4.5000000000000D-01  1.5194187003884D+00 -1.1008017486870D-01
    47  4.6000000000000D-01  1.5148243415148D+00 -8.4670015520672D-02
    48  4.7000000000000D-01  1.5079473518029D+00 -5.7196110246083D-02
    49  4.8000000000000D-01  1.4987934721360D+00 -2.7663122118434D-02
    50  4.9000000000000D-01  1.4873745843555D+00  3.9140176947413D-03
    51  5.0000000000000D-01  1.4737088435482D+00  3.7509788466821D-02
    52  5.1000000000000D-01  1.4578207829298D+00  7.3087818725397D-02
    53  5.2000000000000D-01  1.4397413898885D+00  1.1060068882582D-01
    54  5.3000000000000D-01  1.4195081519104D+00  1.4998980038523D-01
    55  5.4000000000000D-01  1.3971650712788D+00  1.9118531526373D-01
    56  5.5000000000000D-01  1.3727626476233D+00  2.3410616633735D-01
    57  5.6000000000000D-01  1.3463578275808D+00  2.7866014184044D-01
    58  5.7000000000000D-01  1.3180139210371D+00  3.2474404456255D-01
    59  5.8000000000000D-01  1.2878004836193D+00  3.7224392667592D-01
    60  5.9000000000000D-01  1.2557931653263D+00  4.2103540044013D-01
    61  6.0000000000000D-01  1.2220735254026D+00  4.7098402449216D-01
    62  6.1000000000000D-01  1.1867288137801D+00  5.2194576487861D-01
    63  6.2000000000000D-01  1.1498517196385D+00  5.7376752943416D-01
    64  6.3000000000000D-01  1.1115400878567D+00  6.2628777355313D-01
    65  6.4000000000000D-01  1.0718966043508D+00  6.7933717484831D-01
    66  6.5000000000000D-01  1.0310284515113D+00  7.3273937364799D-01
    67  6.6000000000000D-01  9.8904693517028D-01  7.8631177574518D-01
    68  6.7000000000000D-01  9.4606708473412D-01  8.3986641329705D-01
    69  6.8000000000000D-01  9.0220722831922D-01  8.9321085927534D-01
    70  6.9000000000000D-01  8.5758854492069D-01  9.4614919039241D-01
    71  7.0000000000000D-01  8.1233459582274D-01  9.9848299298408D-01
    72  7.1000000000000D-01  7.6657083762900D-01  1.0500124059159D+00
    73  7.2000000000000D-01  7.2042411944520D-01  1.1005371942023D+00
    74  7.3000000000000D-01  6.7402216688728D-01  1.1498578466893D+00
    75  7.4000000000000D-01  6.2749305571151D-01  1.1977766908534D+00
    76  7.5000000000000D-01  5.8096467797040D-01  1.2440990175216D+00
    77  7.6000000000000D-01  5.3456420368707D-01  1.2886342081107D+00
    78  7.7000000000000D-01  4.8841754111087D-01  1.3311968568320D+00
    79  7.8000000000000D-01  4.4264879866758D-01  1.3716078802074D+00
    80  7.9000000000000D-01  3.9737975174814D-01  1.4096956061908D+00
    81  8.0000000000000D-01  3.5272931748973D-01  1.4452968351983D+00
    82  8.1000000000000D-01  3.0881304069244D-01  1.4782578654102D+00
    83  8.2000000000000D-01  2.6574259398311D-01  1.5084354748215D+00
    84  8.3000000000000D-01  2.2362529528593D-01  1.5356978526922D+00
    85  8.4000000000000D-01  1.8256364558620D-01  1.5599254732685D+00
    86  8.5000000000000D-01  1.4265488988127D-01  1.5810119049262D+00
    87  8.6000000000000D-01  1.0399060409973D-01  1.5988645482141D+00
    88  8.7000000000000D-01  6.6656310638924D-02  1.6134052966516D+00
    89  8.8000000000000D-01  3.0731125021509D-02  1.6245711145601D+00
    90  8.9000000000000D-01 -3.7125639947106D-03  1.6323145266708D+00
    91  9.0000000000000D-01 -3.6609378701398D-02  1.6366040147624D+00
    92  9.1000000000000D-01 -6.7901199163297D-02  1.6374243171201D+00
    93  9.2000000000000D-01 -9.7537370635323D-02  1.6347766271871D+00
    94  9.3000000000000D-01 -1.2547487014916D-01  1.6286786883799D+00
    95  9.4000000000000D-01 -1.5167843097689D-01  1.6191647826651D+00
    96  9.5000000000000D-01 -1.7612062391999D-01  1.6062856111435D+00
    97  9.6000000000000D-01 -1.9878189461813D-01  1.5901080655421D+00
    98  9.7000000000000D-01 -2.1965055632216D-01  1.5707148901777D+00
    99  9.8000000000000D-01 -2.3872273783398D-01  1.5482042346376D+00
   100  9.9000000000000D-01 -2.5600228656800D-01  1.5226890980761D+00
   101  1.0000000000000D+00 -2.7150062694529D-01  1.4942966666950D+00
   102  1.0100000000000D+00 -2.8523657458319D-01  1.4631675466179D+00
   103  1.0200000000000D+00 -2.9723610699026D-01  1.4294548949976D+00
   104  1.0300000000000D+00 -3.0753209172263D-01  1.3933234528146D+00
   105  1.0400000000000D+00 -3.1616397317625D-01  1.3549484833658D+00
   106  1.0500000000000D+00 -3.2317741943337D-01  1.3145146210385D+00
   107  1.0600000000000D+00 -3.2862393077797D-01  1.2722146354380D+00
   108  1.0700000000000D+00 -3.3256041169849D-01  1.2282481164142D+00
   109  1.0800000000000D+00 -3.3504870838736D-01  1.1828200859728D+00
   110  1.0900000000000D+00 -3.3615511389683D-01  1.1361395433910D+00
   111  1.1000000000000D+00 -3.3594984328673D-01  1.0884179502376D+00
   112  1.1100000000000D+00 -3.3450648121864D-01  1.0398676622333D+00
   113  1.1200000000000D+00 -3.3190140457311D-01  9.9070031512263D-01
   114  1.1300000000000D+00 -3.2821318275757D-01  9.4112517187535D-01
   115  1.1400000000000D+00 -3.2352195845403D-01  8.9134743866110D-01
   116  1.1500000000000D+00 -3.1790881161511D-01  8.4156655708379D-01
   117  1.1600000000000D+00 -3.1145510954619D-01  7.9197448013961D-01
   118  1.1700000000000D+00 -3.0424184521484D-01  7.4275393542285D-01
   119  1.1800000000000D+00 -2.9634897120571D-01  6.9407670786735D-01
   120  1.1900000000000D+00 -2.8785471508515D-01  6.4610185719336D-01
   121  1.2000000000000D+00 -2.7883495608294D-01  5.9897428641044D-01
   122  1.2100000000000D+00 -2.6936236009246D-01  5.5282203196824D-01
   123  1.2200000000000D+00 -2.5950623798155D-01  5.0775750151876D-01
   124  1.2300000000000D+00 -2.4933290817681D-01  4.6388121677040D-01
   125  1.2400000000000D+00 -2.3890631521693D-01  4.2128613559231D-01
   126  1.2500000000000D+00 -2.2828800211428D-01  3.8005818080183D-01
   127  1.2600000000000D+00 -2.1753684594154D-01  3.4027529527525D-01
   128  1.2700000000000D+00 -2.0670895556317D-01  3.0200743580810D-01
   129  1.2800000000000D+00 -1.9585754115827D-01  2.6531633670964D-01
   130  1.2900000000000D+00 -1.8503280983592D-01  2.3025537884245D-01
   131  1.3000000000000D+00 -1.7428187852858D-01  1.9686950698677D-01
   132  1.3100000000000D+00 -1.6364870292652D-01  1.6519519136709D-01
   133  1.3200000000000D+00 -1.5317402407577D-01  1.3526044018644D-01
   134  1.3300000000000D+00 -1.4289533576347D-01  1.0708487758239D-01
   135  1.3400000000000D+00 -1.3284686714918D-01  8.0679860430045D-02
   136  1.3500000000000D+00 -1.2305958157830D-01  5.6048638598576D-02
   137  1.3600000000000D+00 -1.1356119330534D-01  3.3186566886292D-02
   138  1.3700000000000D+00 -1.0437619972327D-01  1.2081357722041D-02
   139  1.3800000000000D+00 -9.5525928735939D-02 -7.2866265742718D-03
   140  1.3900000000000D+00 -8.7028600804715D-02 -2.4944043662272D-02
   141  1.4000000000000D+00 -7.8899404659746D-02 -4.0924206917297D-02
   142  1.4100000000000D+00 -7.1150585930198D-02 -5.5266689818758D-02
   143  1.4200000000000D+00 -6.3791547713304D-02 -6.8016902467026D-02
   144  1.4300000000000D+00 -5.6828962094830D-02 -7.9225643654945D-02
   145  1.4400000000000D+00 -5.0266891663775D-02 -8.8948631918163D-02
   146  1.4500000000000D+00 -4.4106919858308D-02 -9.7246019431502D-02
   147  1.4600000000000D+00 -3.8348289360232D-02 -1.0418189138461D-01
   148  1.4700000000000D+00 -3.2988046991161D-02 -1.0982375617507D-01
   149  1.4800000000000D+00 -2.8021193377310D-02 -1.1424203253227D-01
   150  1.4900000000000D+00 -2.3440838811787D-02 -1.1750952732654D-01
   151  1.5000000000000D+00 -1.9238363808300D-02 -1.1970090908350D-01
   152  1.5100000000000D+00 -1.5403576786040D-02 -1.2089220610451D-01
   153  1.5200000000000D+00 -1.1924874345249D-02 -1.2116030689981D-01
   154  1.5300000000000D+00 -8.7894065528121D-03 -1.2058245275263D-01
   155  1.5400000000000D+00 -5.9832385698740D-03 -1.1923575534014D-01
   156  1.5500000000000D+00 -3.4915077957235D-03 -1.1719674179754D-01
   157  1.5600000000000D+00 -1.2985802237459D-03 -1.1454091188543D-01
   158  1.5700000000000D+00  6.1179627604302D-04 -1.1134231530785D-01
   159  1.5800000000000D+00  2.2563442238838D-03 -1.0767315792498D-01
   160  1.5900000000000D+00  3.6521138670669D-03 -1.0360343413745D-01
   161  1.6000000000000D+00  4.8163467966449D-03 -9.9200589202703D-02
   162  1.6100000000000D+00  5.7663459965248D-03 -9.4529211302884D-02
   163  1.6200000000000D+00  6.5193535696614D-03 -8.9650757217899D-02
   164  1.6300000000000D+00  7.0924359145242D-03 -8.4623310026816D-02
   165  1.6400000000000D+00  7.5023775097800D-03 -7.9501372341229D-02
   166  1.6500000000000D+00  7.7655829527552D-03 -7.4335693068237D-02
   167  1.6600000000000D+00  7.8979881974802D-03 -6.9173130401277D-02
   168  1.6700000000000D+00  7.9149805398587D-03 -6.4056548722990D-02
   169  1.6800000000000D+00  7.8313280897746D-03 -5.9024751351315D-02
   170  1.6900000000000D+00  7.6611181587080D-03 -5.4112446428367D-02
   171  1.7000000000000D+00  7.4177051305865D-03 -4.9350247247446D-02
   172  1.7100000000000D+00  7.1136670967911D-03 -4.4764703842632D-02
   173  1.7200000000000D+00  6.7607716958822D-03 -4.0378366660632D-02
   174  1.7300000000000D+00  6.3699502666711D-03 -3.6209878598608D-02
   175  1.7400000000000D+00  5.9512806737610D-03 -3.2274095902170D-02
   176  1.7500000000000D+00  5.5139777319011D-03 -2.8582233665780D-02
   177  1.7600000000000D+00  5.0663915334357D-03 -2.5142036171690D-02
   178  1.7700000000000D+00  4.6160124504399D-03 -2.1957967414646D-02
   179  1.7800000000000D+00  4.1694830488158D-03 -1.9031421705208D-02
   180  1.7900000000000D+00  3.7326156139855D-03 -1.6360949655524D-02
   181  1.8000000000000D+00  3.3104153768549D-03 -1.3942498779151D-02
   182  1.8100000000000D+00  2.9071082521352D-03 -1.1769664607638D-02
   183  1.8200000000000D+00  2.5261728526106D-03 -9.8339503631530D-03
   184  1.8300000000000D+00  2.1703759019768D-03 -8.1250322528430D-03
   185  1.8400000000000D+00  1.8418104333896D-03 -6.6310272163141D-03
   186  1.8500000000000D+00  1.5419361907482D-03 -5.3387611418015D-03
   187  1.8600000000000D+00  1.2716214167324D-03 -4.2340339478483D-03
   188  1.8700000000000D+00  1.0311855226680D-03 -3.3018795772073D-03
   189  1.8800000000000D+00  8.2044197040695D-04 -2.5268182663313D-03
   190  1.8900000000000D+00  6.3874056793464D-04 -1.8930976907488D-03
   191  1.9000000000000D+00  4.8500911882661D-04 -1.3849231154498D-03
   192  1.9100000000000D+00  3.5779294462613D-04 -9.8667023079778D-04
   193  1.9200000000000D+00  2.5529308927216D-04 -6.8308444117195D-04
   194  1.9300000000000D+00  1.7541726001450D-04 -4.5954570914222D-04
   195  1.9400000000000D+00  1.1575198216362D-04 -3.0189938596602D-04
   196  1.9500000000000D+00  7.3525819740882D-05 -1.9644422207431D-04
   197  1.9600000000000D+00  4.5955053596761D-05 -1.3131032430967D-04
   198  1.9700000000000D+00  3.0619497767513D-05 -9.7781700379193D-05
   199  1.9800000000000D+00  2.5126180994008D-05 -8.8626110883292D-05
   200  1.9900000000000D+00  2.2419737036475D-05 -8.2138992656527D-05
   201  2.0000000000000D+00  1.6072525108868D-05 -5.9234533358139D-05
   202  2.0100000000000D+00  6.5550036731872D-06 -2.4129676052991D-05
   203  2.0200000000000D+00 -8.4166936689564D-07  3.1399318896556D-06
   204  2.0300000000000D+00 -2.0950915631541D-06  7.8252607713834D-06
   205  2.0400000000000D+00 -4.5249675998742D-07  1.6908625978837D-06
   206  2.0500000000000D+00  4.3246239649974D-07 -1.6244442867476D-06
   207  2.0600000000000D+00  3.2607240414471D-07 -1.2263305584906D-06
   208  2.0700000000000D+00 -2.8292916582684D-08  1.0392022906961D-07
   209  2.0800000000000D+00 -5.7979822829698D-08  2.1296059924642D-07
   210  2.0900000000000D+00 -9.6894635151312D-09  3.5589518143572D-08
   211  2.1000000000000D+00  0.0000000000000D+00  0.0000000000000D+00
   212  2.1100000000000D+00  0.0000000000000D+00  0.0000000000000D+00
   213  2.1200000000000D+00  0.0000000000000D+00  0.0000000000000D+00
   214  2.1300000000000D+00  0.0000000000000D+00  0.0000000000000D+00
   215  2.1400000000000D+00  0.0000000000000D+00  0.0000000000000D+00
   216  2.1500000000000D+00  0.0000000000000D+00  0.0000000000000D+00
   217  2.1600000000000D+00  0.0000000000000D+00  0.0000000000000D+00
   218  2.1700000000000D+00  0.0000000000000D+00  0.0000000000000D+00
   219  2.1800000000000D+00  0.0000000000000D+00  0.0000000000000D+00
   220  2.1900000000000D+00  0.0000000000000D+00  0.0000000000000D+00
   221  2.2000000000000D+00  0.0000000000000D+00  0.0000000000000D+00
   222  2.2100000000000D+00  0.0000000000000D+00  0.0000000000000D+00
   223  2.2200000000000D+00  0.0000000000000D+00  0.0000000000000D+00
   224  2.2300000000000D+00  0.0000000000000D+00  0.0000000000000D+00
   225  2.2400000000000D+00  0.0000000000000D+00  0.0000000000000D+00
   226  2.2500000000000D+00  0.0000000000000D+00  0.0000000000000D+00
   227  2.2600000000000D+00  0.0000000000000D+00  0.0000000000000D+00
   228  2.2700000000000D+00  0.0000000000000D+00  0.0000000000000D+00
   229  2.2800000000000D+00  0.0000000000000D+00  0.0000000000000D+00
   230  2.2900000000000D+00  0.0000000000000D+00  0.0000000000000D+00
   231  2.3000000000000D+00  0.0000000000000D+00  0.0000000000000D+00
   232  2.3100000000000D+00  0.0000000000000D+00  0.0000000000000D+00
   233  2.3200000000000D+00  0.0000000000000D+00  0.0000000000000D+00
   234  2.3300000000000D+00  0.0000000000000D+00  0.0000000000000D+00
   235  2.3400000000000D+00  0.0000000000000D+00  0.0000000000000D+00
   236  2.3500000000000D+00  0.0000000000000D+00  0.0000000000000D+00
   237  2.3600000000000D+00  0.0000000000000D+00  0.0000000000000D+00
   238  2.3700000000000D+00  0.0000000000000D+00  0.0000000000000D+00
   239  2.3800000000000D+00  0.0000000000000D+00  0.0000000000000D+00
   240  2.3900000000000D+00  0.0000000000000D+00  0.0000000000000D+00
   241  2.4000000000000D+00  0.0000000000000D+00  0.0000000000000D+00
   242  2.4100000000000D+00  0.0000000000000D+00  0.0000000000000D+00
   243  2.4200000000000D+00  0.0000000000000D+00  0.0000000000000D+00
   244  2.4300000000000D+00  0.0000000000000D+00  0.0000000000000D+00
   245  2.4400000000000D+00  0.0000000000000D+00  0.0000000000000D+00
   246  2.4500000000000D+00  0.0000000000000D+00  0.0000000000000D+00
   247  2.4600000000000D+00  0.0000000000000D+00  0.0000000000000D+00
   248  2.4700000000000D+00  0.0000000000000D+00  0.0000000000000D+00
   249  2.4800000000000D+00  0.0000000000000D+00  0.0000000000000D+00
   250  2.4900000000000D+00  0.0000000000000D+00  0.0000000000000D+00
   251  2.5000000000000D+00  0.0000000000000D+00  0.0000000000000D+00
   252  2.5100000000000D+00  0.0000000000000D+00  0.0000000000000D+00
   253  2.5200000000000D+00  0.0000000000000D+00  0.0000000000000D+00
   254  2.5300000000000D+00  0.0000000000000D+00  0.0000000000000D+00
   255  2.5400000000000D+00  0.0000000000000D+00  0.0000000000000D+00
   256  2.5500000000000D+00  0.0000000000000D+00  0.0000000000000D+00
   257  2.5600000000000D+00  0.0000000000000D+00  0.0000000000000D+00
   258  2.5700000000000D+00  0.0000000000000D+00  0.0000000000000D+00
   259  2.5800000000000D+00  0.0000000000000D+00  0.0000000000000D+00
   260  2.5900000000000D+00  0.0000000000000D+00  0.0000000000000D+00
   261  2.6000000000000D+00  0.0000000000000D+00  0.0000000000000D+00
   262  2.6100000000000D+00  0.0000000000000D+00  0.0000000000000D+00
   263  2.6200000000000D+00  0.0000000000000D+00  0.0000000000000D+00
   264  2.6300000000000D+00  0.0000000000000D+00  0.0000000000000D+00
   265  2.6400000000000D+00  0.0000000000000D+00  0.0000000000000D+00
   266  2.6500000000000D+00  0.0000000000000D+00  0.0000000000000D+00
   267  2.6600000000000D+00  0.0000000000000D+00  0.0000000000000D+00
   268  2.6700000000000D+00  0.0000000000000D+00  0.0000000000000D+00
   269  2.6800000000000D+00  0.0000000000000D+00  0.0000000000000D+00
   270  2.6900000000000D+00  0.0000000000000D+00  0.0000000000000D+00
   271  2.7000000000000D+00  0.0000000000000D+00  0.0000000000000D+00
   272  2.7100000000000D+00  0.0000000000000D+00  0.0000000000000D+00
   273  2.7200000000000D+00  0.0000000000000D+00  0.0000000000000D+00
   274  2.7300000000000D+00  0.0000000000000D+00  0.0000000000000D+00
   275  2.7400000000000D+00  0.0000000000000D+00  0.0000000000000D+00
   276  2.7500000000000D+00  0.0000000000000D+00  0.0000000000000D+00
   277  2.7600000000000D+00  0.0000000000000D+00  0.0000000000000D+00
   278  2.7700000000000D+00  0.0000000000000D+00  0.0000000000000D+00
   279  2.7800000000000D+00  0.0000000000000D+00  0.0000000000000D+00
   280  2.7900000000000D+00  0.0000000000000D+00  0.0000000000000D+00
   281  2.8000000000000D+00  0.0000000000000D+00  0.0000000000000D+00
   282  2.8100000000000D+00  0.0000000000000D+00  0.0000000000000D+00
   283  2.8200000000000D+00  0.0000000000000D+00  0.0000000000000D+00
   284  2.8300000000000D+00  0.0000000000000D+00  0.0000000000000D+00
   285  2.8400000000000D+00  0.0000000000000D+00  0.0000000000000D+00
   286  2.8500000000000D+00  0.0000000000000D+00  0.0000000000000D+00
   287  2.8600000000000D+00  0.0000000000000D+00  0.0000000000000D+00
   288  2.8700000000000D+00  0.0000000000000D+00  0.0000000000000D+00
   289  2.8800000000000D+00  0.0000000000000D+00  0.0000000000000D+00
   290  2.8900000000000D+00  0.0000000000000D+00  0.0000000000000D+00
   291  2.9000000000000D+00  0.0000000000000D+00  0.0000000000000D+00
   292  2.9100000000000D+00  0.0000000000000D+00  0.0000000000000D+00
   293  2.9200000000000D+00  0.0000000000000D+00  0.0000000000000D+00
   294  2.9300000000000D+00  0.0000000000000D+00  0.0000000000000D+00
   295  2.9400000000000D+00  0.0000000000000D+00  0.0000000000000D+00
   296  2.9500000000000D+00  0.0000000000000D+00  0.0000000000000D+00
   297  2.9600000000000D+00  0.0000000000000D+00  0.0000000000000D+00
   298  2.9700000000000D+00  0.0000000000000D+00  0.0000000000000D+00
   299  2.9800000000000D+00  0.0000000000000D+00  0.0000000000000D+00
   300  2.9900000000000D+00  0.0000000000000D+00  0.0000000000000D+00
   301  3.0000000000000D+00  0.0000000000000D+00  0.0000000000000D+00
   302  3.0100000000000D+00  0.0000000000000D+00  0.0000000000000D+00
   303  3.0200000000000D+00  0.0000000000000D+00  0.0000000000000D+00
   304  3.0300000000000D+00  0.0000000000000D+00  0.0000000000000D+00
   305  3.0400000000000D+00  0.0000000000000D+00  0.0000000000000D+00
   306  3.0500000000000D+00  0.0000000000000D+00  0.0000000000000D+00
   307  3.0600000000000D+00  0.0000000000000D+00  0.0000000000000D+00
   308  3.0700000000000D+00  0.0000000000000D+00  0.0000000000000D+00
   309  3.0800000000000D+00  0.0000000000000D+00  0.0000000000000D+00
   310  3.0900000000000D+00  0.0000000000000D+00  0.0000000000000D+00
   311  3.1000000000000D+00  0.0000000000000D+00  0.0000000000000D+00
   312  3.1100000000000D+00  0.0000000000000D+00  0.0000000000000D+00
   313  3.1200000000000D+00  0.0000000000000D+00  0.0000000000000D+00
   314  3.1300000000000D+00  0.0000000000000D+00  0.0000000000000D+00
   315  3.1400000000000D+00  0.0000000000000D+00  0.0000000000000D+00
   316  3.1500000000000D+00  0.0000000000000D+00  0.0000000000000D+00
   317  3.1600000000000D+00  0.0000000000000D+00  0.0000000000000D+00
   318  3.1700000000000D+00  0.0000000000000D+00  0.0000000000000D+00
   319  3.1800000000000D+00  0.0000000000000D+00  0.0000000000000D+00
   320  3.1900000000000D+00  0.0000000000000D+00  0.0000000000000D+00
   321  3.2000000000000D+00  0.0000000000000D+00  0.0000000000000D+00
   322  3.2100000000000D+00  0.0000000000000D+00  0.0000000000000D+00
   323  3.2200000000000D+00  0.0000000000000D+00  0.0000000000000D+00
   324  3.2300000000000D+00  0.0000000000000D+00  0.0000000000000D+00
   325  3.2400000000000D+00  0.0000000000000D+00  0.0000000000000D+00
   326  3.2500000000000D+00  0.0000000000000D+00  0.0000000000000D+00
   327  3.2600000000000D+00  0.0000000000000D+00  0.0000000000000D+00
   328  3.2700000000000D+00  0.0000000000000D+00  0.0000000000000D+00
   329  3.2800000000000D+00  0.0000000000000D+00  0.0000000000000D+00
   330  3.2900000000000D+00  0.0000000000000D+00  0.0000000000000D+00
   331  3.3000000000000D+00  0.0000000000000D+00  0.0000000000000D+00
   332  3.3100000000000D+00  0.0000000000000D+00  0.0000000000000D+00
   333  3.3200000000000D+00  0.0000000000000D+00  0.0000000000000D+00
   334  3.3300000000000D+00  0.0000000000000D+00  0.0000000000000D+00
   335  3.3400000000000D+00  0.0000000000000D+00  0.0000000000000D+00
   336  3.3500000000000D+00  0.0000000000000D+00  0.0000000000000D+00
   337  3.3600000000000D+00  0.0000000000000D+00  0.0000000000000D+00
   338  3.3700000000000D+00  0.0000000000000D+00  0.0000000000000D+00
   339  3.3800000000000D+00  0.0000000000000D+00  0.0000000000000D+00
   340  3.3900000000000D+00  0.0000000000000D+00  0.0000000000000D+00
   341  3.4000000000000D+00  0.0000000000000D+00  0.0000000000000D+00
   342  3.4100000000000D+00  0.0000000000000D+00  0.0000000000000D+00
   343  3.4200000000000D+00  0.0000000000000D+00  0.0000000000000D+00
   344  3.4300000000000D+00  0.0000000000000D+00  0.0000000000000D+00
   345  3.4400000000000D+00  0.0000000000000D+00  0.0000000000000D+00
   346  3.4500000000000D+00  0.0000000000000D+00  0.0000000000000D+00
   347  3.4600000000000D+00  0.0000000000000D+00  0.0000000000000D+00
   348  3.4700000000000D+00  0.0000000000000D+00  0.0000000000000D+00
   349  3.4800000000000D+00  0.0000000000000D+00  0.0000000000000D+00
   350  3.4900000000000D+00  0.0000000000000D+00  0.0000000000000D+00
   351  3.5000000000000D+00  0.0000000000000D+00  0.0000000000000D+00
   352  3.5100000000000D+00  0.0000000000000D+00  0.0000000000000D+00
   353  3.5200000000000D+00  0.0000000000000D+00  0.0000000000000D+00
   354  3.5300000000000D+00  0.0000000000000D+00  0.0000000000000D+00
   355  3.5400000000000D+00  0.0000000000000D+00  0.0000000000000D+00
   356  3.5500000000000D+00  0.0000000000000D+00  0.0000000000000D+00
   357  3.5600000000000D+00  0.0000000000000D+00  0.0000000000000D+00
   358  3.5700000000000D+00  0.0000000000000D+00  0.0000000000000D+00
   359  3.5800000000000D+00  0.0000000000000D+00  0.0000000000000D+00
   360  3.5900000000000D+00  0.0000000000000D+00  0.0000000000000D+00
   361  3.6000000000000D+00  0.0000000000000D+00  0.0000000000000D+00
   362  3.6100000000000D+00  0.0000000000000D+00  0.0000000000000D+00
   363  3.6200000000000D+00  0.0000000000000D+00  0.0000000000000D+00
   364  3.6300000000000D+00  0.0000000000000D+00  0.0000000000000D+00
   365  3.6400000000000D+00  0.0000000000000D+00  0.0000000000000D+00
   366  3.6500000000000D+00  0.0000000000000D+00  0.0000000000000D+00
   367  3.6600000000000D+00  0.0000000000000D+00  0.0000000000000D+00
   368  3.6700000000000D+00  0.0000000000000D+00  0.0000000000000D+00
   369  3.6800000000000D+00  0.0000000000000D+00  0.0000000000000D+00
   370  3.6900000000000D+00  0.0000000000000D+00  0.0000000000000D+00
   371  3.7000000000000D+00  0.0000000000000D+00  0.0000000000000D+00
   372  3.7100000000000D+00  0.0000000000000D+00  0.0000000000000D+00
   373  3.7200000000000D+00  0.0000000000000D+00  0.0000000000000D+00
   374  3.7300000000000D+00  0.0000000000000D+00  0.0000000000000D+00
   375  3.7400000000000D+00  0.0000000000000D+00  0.0000000000000D+00
   376  3.7500000000000D+00  0.0000000000000D+00  0.0000000000000D+00
   377  3.7600000000000D+00  0.0000000000000D+00  0.0000000000000D+00
   378  3.7700000000000D+00  0.0000000000000D+00  0.0000000000000D+00
   379  3.7800000000000D+00  0.0000000000000D+00  0.0000000000000D+00
   380  3.7900000000000D+00  0.0000000000000D+00  0.0000000000000D+00
   381  3.8000000000000D+00  0.0000000000000D+00  0.0000000000000D+00
   382  3.8100000000000D+00  0.0000000000000D+00  0.0000000000000D+00
   383  3.8200000000000D+00  0.0000000000000D+00  0.0000000000000D+00
   384  3.8300000000000D+00  0.0000000000000D+00  0.0000000000000D+00
   385  3.8400000000000D+00  0.0000000000000D+00  0.0000000000000D+00
   386  3.8500000000000D+00  0.0000000000000D+00  0.0000000000000D+00
   387  3.8600000000000D+00  0.0000000000000D+00  0.0000000000000D+00
   388  3.8700000000000D+00  0.0000000000000D+00  0.0000000000000D+00
   389  3.8800000000000D+00  0.0000000000000D+00  0.0000000000000D+00
   390  3.8900000000000D+00  0.0000000000000D+00  0.0000000000000D+00
   391  3.9000000000000D+00  0.0000000000000D+00  0.0000000000000D+00
   392  3.9100000000000D+00  0.0000000000000D+00  0.0000000000000D+00
   393  3.9200000000000D+00  0.0000000000000D+00  0.0000000000000D+00
   394  3.9300000000000D+00  0.0000000000000D+00  0.0000000000000D+00
   395  3.9400000000000D+00  0.0000000000000D+00  0.0000000000000D+00
   396  3.9500000000000D+00  0.0000000000000D+00  0.0000000000000D+00
   397  3.9600000000000D+00  0.0000000000000D+00  0.0000000000000D+00
   398  3.9700000000000D+00  0.0000000000000D+00  0.0000000000000D+00
   399  3.9800000000000D+00  0.0000000000000D+00  0.0000000000000D+00
   400  3.9900000000000D+00  0.0000000000000D+00  0.0000000000000D+00
   401  4.0000000000000D+00  0.0000000000000D+00  0.0000000000000D+00
   402  4.0100000000000D+00  0.0000000000000D+00  0.0000000000000D+00
   403  4.0200000000000D+00  0.0000000000000D+00  0.0000000000000D+00
   404  4.0300000000000D+00  0.0000000000000D+00  0.0000000000000D+00
   405  4.0400000000000D+00  0.0000000000000D+00  0.0000000000000D+00
   406  4.0500000000000D+00  0.0000000000000D+00  0.0000000000000D+00
   407  4.0600000000000D+00  0.0000000000000D+00  0.0000000000000D+00
   408  4.0700000000000D+00  0.0000000000000D+00  0.0000000000000D+00
   409  4.0800000000000D+00  0.0000000000000D+00  0.0000000000000D+00
   410  4.0900000000000D+00  0.0000000000000D+00  0.0000000000000D+00
   411  4.1000000000000D+00  0.0000000000000D+00  0.0000000000000D+00
   412  4.1100000000000D+00  0.0000000000000D+00  0.0000000000000D+00
   413  4.1200000000000D+00  0.0000000000000D+00  0.0000000000000D+00
   414  4.1300000000000D+00  0.0000000000000D+00  0.0000000000000D+00
   415  4.1400000000000D+00  0.0000000000000D+00  0.0000000000000D+00
   416  4.1500000000000D+00  0.0000000000000D+00  0.0000000000000D+00
   417  4.1600000000000D+00  0.0000000000000D+00  0.0000000000000D+00
   418  4.1700000000000D+00  0.0000000000000D+00  0.0000000000000D+00
   419  4.1800000000000D+00  0.0000000000000D+00  0.0000000000000D+00
   420  4.1900000000000D+00  0.0000000000000D+00  0.0000000000000D+00
   421  4.2000000000000D+00  0.0000000000000D+00  0.0000000000000D+00
   422  4.2100000000000D+00  0.0000000000000D+00  0.0000000000000D+00