Rh    ONCVPSP-3.3.1  r_core=   2.40816   2.58683   2.58683
     45.0000     17.0000      210904    zatom,zion,pspd
     8      11   2     4   600     0    pspcod,pspxc,lmax,lloc,mmax,r2well
  5.99000000  0.00000000  0.00000000    rchrg fchrg qchrg
     2     2     2     0     0    nproj
     1     1           extension_switch
   0                         4.2753772612422D+00  7.7591147109197D-01
     1  0.0000000000000D+00  4.9937831647640D-13 -9.0490887352801D-12
     2  1.0000000000000D-02  5.3667221162297D-02 -9.1064533987156D-04
     3  2.0000000000000D-02  1.0725799445654D-01 -1.8065712396930D-03
     4  3.0000000000000D-02  1.6069598571720D-01 -2.6730162936872D-03
     5  4.0000000000000D-02  2.1390508806851D-01 -3.4951356227001D-03
     6  5.0000000000000D-02  2.6680953528112D-01 -4.2579602804264D-03
     7  6.0000000000000D-02  3.1933401478249D-01 -4.9463580247555D-03
     8  7.0000000000000D-02  3.7140378020505D-01 -5.5449958986672D-03
     9  8.0000000000000D-02  4.2294476335555D-01 -6.0383050560562D-03
    10  9.0000000000000D-02  4.7388368548862D-01 -6.4104482565710D-03
    11  1.0000000000000D-01  5.2414816776643D-01 -6.6452904401330D-03
    12  1.1000000000000D-01  5.7366684078601D-01 -6.7263727761103D-03
    13  1.2000000000000D-01  6.2236945305416D-01 -6.6368905645045D-03
    14  1.3000000000000D-01  6.7018697828948D-01 -6.3596753466329D-03
    15  1.4000000000000D-01  7.1705172142910D-01 -5.8771815610752D-03
    16  1.5000000000000D-01  7.6289742321712D-01 -5.1714780569619D-03
    17  1.6000000000000D-01  8.0765936324976D-01 -4.2242447510101D-03
    18  1.7000000000000D-01  8.5127446135104D-01 -3.0167746875085D-03
    19  1.8000000000000D-01  8.9368137715109D-01 -1.5299817312793D-03
    20  1.9000000000000D-01  9.3482060773763D-01  2.5558590691892D-04
    21  2.0000000000000D-01  9.7463458324925D-01  2.3597261453137D-03
    22  2.1000000000000D-01  1.0130677602776D+00  4.8025573725635D-03
    23  2.2000000000000D-01  1.0500667129435D+00  7.6044865568017D-03
    24  2.3000000000000D-01  1.0855802215104D+00  1.0786171059313D-02
    25  2.4000000000000D-01  1.1195593583967D+00  1.4368474126784D-02
    26  2.5000000000000D-01  1.1519575714462D+00  1.8372414073873D-02
    27  2.6000000000000D-01  1.1827307643153D+00  2.2819107206553D-02
    28  2.7000000000000D-01  1.2118373738322D+00  2.7729704575491D-02
    29  2.8000000000000D-01  1.2392384441838D+00  3.3125322688538D-02
    30  2.9000000000000D-01  1.2648976977821D+00  3.9026968350873D-02
    31  3.0000000000000D-01  1.2887816026625D+00  4.5455457841282D-02
    32  3.1000000000000D-01  1.3108594362648D+00  5.2431330672503D-02
    33  3.2000000000000D-01  1.3311033454453D+00  5.9974758223043D-02
    34  3.3000000000000D-01  1.3494884025706D+00  6.8105447566532D-02
    35  3.4000000000000D-01  1.3659926575401D+00  7.6842540862667D-02
    36  3.5000000000000D-01  1.3805971855857D+00  8.6204510711036D-02
    37  3.6000000000000D-01  1.3932861306985D+00  9.6209051905063D-02
    38  3.7000000000000D-01  1.4040467445304D+00  1.0687297005783D-01
    39  3.8000000000000D-01  1.4128694206223D+00  1.1821206760481D-01
    40  3.9000000000000D-01  1.4197477238099D+00  1.3024102771974D-01
    41  4.0000000000000D-01  1.4246784146621D+00  1.4297329670934D-01
    42  4.1000000000000D-01  1.4276614688089D+00  1.5642096547965D-01
    43  4.2000000000000D-01  1.4287000910190D+00  1.7059465069185D-01
    44  4.3000000000000D-01  1.4278007238913D+00  1.8550337624746D-01
    45  4.4000000000000D-01  1.4249730510296D+00  2.0115445576265D-01
    46  4.5000000000000D-01  1.4202299945751D+00  2.1755337670759D-01
    47  4.6000000000000D-01  1.4135877069767D+00  2.3470368690097D-01
    48  4.7000000000000D-01  1.4050655568873D+00  2.5260688405939D-01
    49  4.8000000000000D-01  1.3946861090818D+00  2.7126230910866D-01
    50  4.9000000000000D-01  1.3824750982994D+00  2.9066704396747D-01
    51  5.0000000000000D-01  1.3684613969257D+00  3.1081581451303D-01
    52  5.1000000000000D-01  1.3526769764371D+00  3.3170089943494D-01
    53  5.2000000000000D-01  1.3351568625434D+00  3.5331204567517D-01
    54  5.3000000000000D-01  1.3159390839761D+00  3.7563639114027D-01
    55  5.4000000000000D-01  1.2950646148820D+00  3.9865839535642D-01
    56  5.5000000000000D-01  1.2725773107985D+00  4.2235977871772D-01
    57  5.6000000000000D-01  1.2485238381978D+00  4.4671947095482D-01
    58  5.7000000000000D-01  1.2229535976062D+00  4.7171356942284D-01
    59  5.8000000000000D-01  1.1959186403210D+00  4.9731530777586D-01
    60  5.9000000000000D-01  1.1674735787626D+00  5.2349503556002D-01
    61  6.0000000000000D-01  1.1376754905195D+00  5.5022020921730D-01
    62  6.1000000000000D-01  1.1065838161635D+00  5.7745539494920D-01
    63  6.2000000000000D-01  1.0742602509296D+00  6.0516228384307D-01
    64  6.3000000000000D-01  1.0407686303772D+00  6.3329971961305D-01
    65  6.4000000000000D-01  1.0061748101695D+00  6.6182373925496D-01
    66  6.5000000000000D-01  9.7054654012853D-01  6.9068762685760D-01
    67  6.6000000000000D-01  9.3395333274684D-01  7.1984198075382D-01
    68  6.7000000000000D-01  8.9646632635585D-01  7.4923479413296D-01
    69  6.8000000000000D-01  8.5815814317614D-01  7.7881154917218D-01
    70  6.9000000000000D-01  8.1910274249530D-01  8.0851532467809D-01
    71  7.0000000000000D-01  7.7937526924217D-01  8.3828691716209D-01
    72  7.1000000000000D-01  7.3905189824829D-01  8.6806497520407D-01
    73  7.2000000000000D-01  6.9820967450965D-01  8.9778614688857D-01
    74  7.3000000000000D-01  6.5692634978345D-01  9.2738524002647D-01
    75  7.4000000000000D-01  6.1528021587615D-01  9.5679539480455D-01
    76  7.5000000000000D-01  5.7334993499963D-01  9.8594826843364D-01
    77  7.6000000000000D-01  5.3121436759263D-01  1.0147742312957D+00
    78  7.7000000000000D-01  4.8895239802381D-01  1.0432025740201D+00
    79  7.8000000000000D-01  4.4664275861133D-01  1.0711617248511D+00
    80  7.9000000000000D-01  4.0436385241089D-01  1.0985794766010D+00
    81  8.0000000000000D-01  3.6219357524090D-01  1.1253832224195D+00
    82  8.1000000000000D-01  3.2020913742750D-01  1.1515001995465D+00
    83  8.2000000000000D-01  2.7848688576652D-01  1.1768577401563D+00
    84  8.3000000000000D-01  2.3710212621056D-01  1.2013835283451D+00
    85  8.4000000000000D-01  1.9612894780015D-01  1.2250058622610D+00
    86  8.5000000000000D-01  1.5564004836640D-01  1.2476539203256D+00
    87  8.6000000000000D-01  1.1570656253892D-01  1.2692580304544D+00
    88  8.7000000000000D-01  7.6397892597906D-02  1.2897499411411D+00
    89  8.8000000000000D-01  3.7781542711724D-02  1.3090630932366D+00
    90  8.9000000000000D-01 -7.7042897992138D-05  1.3271328912258D+00
    91  9.0000000000000D-01 -3.7114637323264D-02  1.3438969727765D+00
    92  9.1000000000000D-01 -7.3270383332090D-02  1.3592954753236D+00
    93  9.2000000000000D-01 -1.0848594019557D-01  1.3732712984306D+00
    94  9.3000000000000D-01 -1.4270562445760D-01  1.3857703606722D+00
    95  9.4000000000000D-01 -1.7587654413558D-01  1.3967418497752D+00
    96  9.5000000000000D-01 -2.0794872585362D-01  1.4061384647668D+00
    97  9.6000000000000D-01 -2.3887523442505D-01  1.4139166488851D+00
    98  9.7000000000000D-01 -2.6861228441879D-01  1.4200368120346D+00
    99  9.8000000000000D-01 -2.9711934326371D-01  1.4244635415851D+00
   100  9.9000000000000D-01 -3.2435922546786D-01  1.4271658003538D+00
   101  1.0000000000000D+00 -3.5029817755322D-01  1.4281171106401D+00
   102  1.0100000000000D+00 -3.7490595333351D-01  1.4272957232341D+00
   103  1.0200000000000D+00 -3.9815587919090D-01  1.4246847703659D+00
   104  1.0300000000000D+00 -4.2002490903757D-01  1.4202724016191D+00
   105  1.0400000000000D+00 -4.4049366868182D-01  1.4140519019001D+00
   106  1.0500000000000D+00 -4.5954648934910D-01  1.4060217906092D+00
   107  1.0600000000000D+00 -4.7717143014769D-01  1.3961859012472D+00
   108  1.0700000000000D+00 -4.9336028930318D-01  1.3845534407564D+00
   109  1.0800000000000D+00 -5.0810860402442D-01  1.3711390279817D+00
   110  1.0900000000000D+00 -5.2141563890563D-01  1.3559627107261D+00
   111  1.1000000000000D+00 -5.3328436280249D-01  1.3390499609497D+00
   112  1.1100000000000D+00 -5.4372141417007D-01  1.3204316477718D+00
   113  1.1200000000000D+00 -5.5273705488506D-01  1.3001439880174D+00
   114  1.1300000000000D+00 -5.6034511262196D-01  1.2782284741547D+00
   115  1.1400000000000D+00 -5.6656291188771D-01  1.2547317795548D+00
   116  1.1500000000000D+00 -5.7141119386815D-01  1.2297056411189D+00
   117  1.1600000000000D+00 -5.7491402527802D-01  1.2032067194101D+00
   118  1.1700000000000D+00 -5.7709869645172D-01  1.1752964365374D+00
   119  1.1800000000000D+00 -5.7799560894072D-01  1.1460407921098D+00
   120  1.1900000000000D+00 -5.7763815293806D-01  1.1155101577120D+00
   121  1.2000000000000D+00 -5.7606257488153D-01  1.0837790504328D+00
   122  1.2100000000000D+00 -5.7330783562457D-01  1.0509258860713D+00
   123  1.2200000000000D+00 -5.6941545959538D-01  1.0170327127250D+00
   124  1.2300000000000D+00 -5.6442937540996D-01  9.8218492558276D-01
   125  1.2400000000000D+00 -5.5839574843254D-01  9.4647096381700D-01
   126  1.2500000000000D+00 -5.5136280579206D-01  9.0998199051100D-01
   127  1.2600000000000D+00 -5.4338065441736D-01  8.7281155669995D-01
   128  1.2700000000000D+00 -5.3450109266474D-01  8.3505525063879D-01
   129  1.2800000000000D+00 -5.2477741612520D-01  7.9681033344455D-01
   130  1.2900000000000D+00 -5.1426421824106D-01  7.5817536238241D-01
   131  1.3000000000000D+00 -5.0301718636647D-01  7.1924980308317D-01
   132  1.3100000000000D+00 -4.9109289391378D-01  6.8013363199845D-01
   133  1.3200000000000D+00 -4.7854858925936D-01  6.4092693050084D-01
   134  1.3300000000000D+00 -4.6544198207359D-01  6.0172947201917D-01
   135  1.3400000000000D+00 -4.5183102775286D-01  5.6264030363063D-01
   136  1.3500000000000D+00 -4.3777371063586D-01  5.2375732357409D-01
   137  1.3600000000000D+00 -4.2332782667737D-01  4.8517685612021D-01
   138  1.3700000000000D+00 -4.0855076626512D-01  4.4699322527511D-01
   139  1.3800000000000D+00 -3.9349929783365D-01  4.0929832874618D-01
   140  1.3900000000000D+00 -3.7822935294805D-01  3.7218121362656D-01
   141  1.4000000000000D+00 -3.6279581350008D-01  3.3572765521556D-01
   142  1.4100000000000D+00 -3.4725230162890D-01  3.0001974032334D-01
   143  1.4200000000000D+00 -3.3165097301863D-01  2.6513545649634D-01
   144  1.4300000000000D+00 -3.1604231410948D-01  2.3114828836650D-01
   145  1.4400000000000D+00 -3.0047494383499D-01  1.9812682248021D-01
   146  1.4500000000000D+00 -2.8499542040528D-01  1.6613436177627D-01
   147  1.4600000000000D+00 -2.6964805362257D-01  1.3522855080296D-01
   148  1.4700000000000D+00 -2.5447472328205D-01  1.0546101291543D-01
   149  1.4800000000000D+00 -2.3951470311008D-01  7.6876997100704D-02
   150  1.4900000000000D+00 -2.2480449562338D-01  4.9515052755045D-02
   151  1.5000000000000D+00 -2.1037765976513D-01  2.3406669142436D-02
   152  1.5100000000000D+00 -1.9626469408109D-01 -1.4239066789751D-03
   153  1.5200000000000D+00 -1.8249287946807D-01 -2.4959992907107D-02
   154  1.5300000000000D+00 -1.6908594968928D-01 -4.7193431885188D-02
   155  1.5400000000000D+00 -1.5606441928590D-01 -6.8123232459408D-02
   156  1.5500000000000D+00 -1.4344601977348D-01 -8.7753829035994D-02
   157  1.5600000000000D+00 -1.3124616369363D-01 -1.0609345389140D-01
   158  1.5700000000000D+00 -1.1947849363983D-01 -1.2315222882573D-01
   159  1.5800000000000D+00 -1.0815473389414D-01 -1.3894277391669D-01
   160  1.5900000000000D+00 -9.7284672136416D-02 -1.5348038346607D-01
   161  1.6000000000000D+00 -8.6876254901890D-02 -1.6678276744381D-01
   162  1.6100000000000D+00 -7.6935604127723D-02 -1.7887009664372D-01
   163  1.6200000000000D+00 -6.7467069509983D-02 -1.8976492063391D-01
   164  1.6300000000000D+00 -5.8473276319524D-02 -1.9949210719950D-01
   165  1.6400000000000D+00 -4.9955179413874D-02 -2.0807876381586D-01
   166  1.6500000000000D+00 -4.1912121498224D-02 -2.1555414793382D-01
   167  1.6600000000000D+00 -3.4341895347985D-02 -2.2194956677561D-01
   168  1.6700000000000D+00 -2.7240809746267D-02 -2.2729826721573D-01
   169  1.6800000000000D+00 -2.0603758891734D-02 -2.3163531629480D-01
   170  1.6900000000000D+00 -1.4424294825314D-02 -2.3499747358020D-01
   171  1.7000000000000D+00 -8.6947023260273D-03 -2.3742305688160D-01
   172  1.7100000000000D+00 -3.4060767242553D-03 -2.3895179967829D-01
   173  1.7200000000000D+00  1.4515955347649D-03 -2.3962470056024D-01
   174  1.7300000000000D+00  5.8893555588238D-03 -2.3948387071185D-01
   175  1.7400000000000D+00  9.9191902076777D-03 -2.3857238016607D-01
   176  1.7500000000000D+00  1.3553947956057D-02 -2.3693409668363D-01
   177  1.7600000000000D+00  1.6807253001864D-02 -2.3461351888389D-01
   178  1.7700000000000D+00  1.9693420056351D-02 -2.3165561108764D-01
   179  1.7800000000000D+00  2.2227369939127D-02 -2.2810564004678D-01
   180  1.7900000000000D+00  2.4424544935443D-02 -2.2400901005299D-01
   181  1.8000000000000D+00  2.6300824396868D-02 -2.1941109771318D-01
   182  1.8100000000000D+00  2.7872441574279D-02 -2.1435708935512D-01
   183  1.8200000000000D+00  2.9155902011612D-02 -2.0889182181806D-01
   184  1.8300000000000D+00  3.0167903395270D-02 -2.0305962623234D-01
   185  1.8400000000000D+00  3.0925257507938D-02 -1.9690417647140D-01
   186  1.8500000000000D+00  3.1444814247910D-02 -1.9046834221314D-01
   187  1.8600000000000D+00  3.1743388412273D-02 -1.8379404837103D-01
   188  1.8700000000000D+00  3.1837689033499D-02 -1.7692214036524D-01
   189  1.8800000000000D+00  3.1744251958863D-02 -1.6989225699489D-01
   190  1.8900000000000D+00  3.1479375533400D-02 -1.6274271055352D-01
   191  1.9000000000000D+00  3.1059059835356D-02 -1.5551037533947D-01
   192  1.9100000000000D+00  3.0498949576966D-02 -1.4823058484691D-01
   193  1.9200000000000D+00  2.9814280702675D-02 -1.4093703771713D-01
   194  1.9300000000000D+00  2.9019831213635D-02 -1.3366171381081D-01
   195  1.9400000000000D+00  2.8129875697184D-02 -1.2643479904636D-01
   196  1.9500000000000D+00  2.7158144511418D-02 -1.1928462146134D-01
   197  1.9600000000000D+00  2.6117786812953D-02 -1.1223759638268D-01
   198  1.9700000000000D+00  2.5021338234766D-02 -1.0531818279654D-01
   199  1.9800000000000D+00  2.3880692779885D-02 -9.8548849780529D-02
   200  1.9900000000000D+00  2.2707079050944D-02 -9.1950053304451D-02
   201  2.0000000000000D+00  2.1511041107039D-02 -8.5540224151976D-02
   202  2.0100000000000D+00  2.0302423208556D-02 -7.9335765027690D-02
   203  2.0200000000000D+00  1.9090359387957D-02 -7.3351059291271D-02
   204  2.0300000000000D+00  1.7883266760407D-02 -6.7598488475343D-02
   205  2.0400000000000D+00  1.6688843225763D-02 -6.2088460282515D-02
   206  2.0500000000000D+00  1.5514069138952D-02 -5.6829445949478D-02
   207  2.0600000000000D+00  1.4365212637335D-02 -5.1828026157567D-02
   208  2.0700000000000D+00  1.3247839061387D-02 -4.7088946623902D-02
   209  2.0800000000000D+00  1.2166823494069D-02 -4.2615180818767D-02
   210  2.0900000000000D+00  1.1126366996775D-02 -3.8408001312557D-02
   211  2.1000000000000D+00  1.0130015858987D-02 -3.4467057961561D-02
   212  2.1100000000000D+00  9.1806837158116D-03 -3.0790462544655D-02
   213  2.1200000000000D+00  8.2806766213561D-03 -2.7374880071701D-02
   214  2.1300000000000D+00  7.4317203194772D-03 -2.4215624780992D-02
   215  2.1400000000000D+00  6.6349899684797D-03 -2.1306761480590D-02
   216  2.1500000000000D+00  5.8911417598859D-03 -1.8641210771896D-02
   217  2.1600000000000D+00  5.2003462099186D-03 -1.6210857570402D-02
   218  2.1700000000000D+00  4.5623229989697D-03 -1.4006662580244D-02
   219  2.1800000000000D+00  3.9763769240636D-03 -1.2018775602526D-02
   220  2.1900000000000D+00  3.4414347667576D-03 -1.0236650130928D-02
   221  2.2000000000000D+00  2.9560827902140D-03 -8.6491584945989D-03
   222  2.2100000000000D+00  2.5186046716437D-03 -7.2447070512693D-03
   223  2.2200000000000D+00  2.1270193554463D-03 -6.0113500400643D-03
   224  2.2300000000000D+00  1.7791189197936D-03 -4.9369023853222D-03
   225  2.2400000000000D+00  1.4725059258864D-03 -4.0090500275823D-03
   226  2.2500000000000D+00  1.2046299240055D-03 -3.2154569228014D-03
   227  2.2600000000000D+00  9.7282342067897D-04 -2.5438695554840D-03
   228  2.2700000000000D+00  7.7433621820847D-04 -1.9822160448197D-03
   229  2.2800000000000D+00  6.0636852340120D-04 -1.5187009358069D-03
   230  2.2900000000000D+00  4.6610279066013D-04 -1.1418955989461D-03
   231  2.3000000000000D+00  3.5073304130023D-04 -8.4082087147935D-04
   232  2.3100000000000D+00  2.5749281512783D-04 -6.0502506842441D-04
   233  2.3200000000000D+00  1.8368082962152D-04 -4.2465489503863D-04
   234  2.3300000000000D+00  1.2668505197817D-04 -2.9055552693151D-04
   235  2.3400000000000D+00  8.3999765059334D-05 -1.9419904404259D-04
   236  2.3500000000000D+00  5.3246526336030D-05 -1.2782297291556D-04
   237  2.3600000000000D+00  3.2137746520043D-05 -8.4198346345765D-05
   238  2.3700000000000D+00  1.8696329024249D-05 -5.7991785651633D-05
   239  2.3800000000000D+00  1.1061291671371D-05 -4.4403431852950D-05
   240  2.3900000000000D+00  7.6912797152683D-06 -4.0012962518607D-05
   241  2.4000000000000D+00  6.3630566732594D-06 -3.7732551570159D-05
   242  2.4100000000000D+00  5.3588269229406D-06 -3.2444121414748D-05
   243  2.4200000000000D+00  3.4359623745817D-06 -2.0710827876039D-05
   244  2.4300000000000D+00  1.3019482532792D-06 -7.7167160459992D-06
   245  2.4400000000000D+00 -2.5084854967943D-07  1.5674778512895D-06
   246  2.4500000000000D+00 -5.7574486941198D-07  3.5928168387152D-06
   247  2.4600000000000D+00 -3.0103562609903D-07  1.8737660080640D-06
   248  2.4700000000000D+00  5.5295409089750D-08 -3.6295936564786D-07
   249  2.4800000000000D+00  1.1940791090993D-07 -7.8743374621018D-07
   250  2.4900000000000D+00  6.3353841010424D-08 -4.1940128779767D-07
   251  2.5000000000000D+00 -7.6035465887142D-09  4.5933024553020D-08
   252  2.5100000000000D+00 -1.6032104646324D-08  9.6849943347384D-08
   253  2.5200000000000D+00 -8.7359116929804D-09  5.2773642089900D-08
   254  2.5300000000000D+00  0.0000000000000D+00  0.0000000000000D+00
   255  2.5400000000000D+00  0.0000000000000D+00  0.0000000000000D+00
   256  2.5500000000000D+00  0.0000000000000D+00  0.0000000000000D+00
   257  2.5600000000000D+00  0.0000000000000D+00  0.0000000000000D+00
   258  2.5700000000000D+00  0.0000000000000D+00  0.0000000000000D+00
   259  2.5800000000000D+00  0.0000000000000D+00  0.0000000000000D+00
   260  2.5900000000000D+00  0.0000000000000D+00  0.0000000000000D+00
   261  2.6000000000000D+00  0.0000000000000D+00  0.0000000000000D+00
   262  2.6100000000000D+00  0.0000000000000D+00  0.0000000000000D+00
   263  2.6200000000000D+00  0.0000000000000D+00  0.0000000000000D+00
   264  2.6300000000000D+00  0.0000000000000D+00  0.0000000000000D+00
   265  2.6400000000000D+00  0.0000000000000D+00  0.0000000000000D+00
   266  2.6500000000000D+00  0.0000000000000D+00  0.0000000000000D+00
   267  2.6600000000000D+00  0.0000000000000D+00  0.0000000000000D+00
   268  2.6700000000000D+00  0.0000000000000D+00  0.0000000000000D+00
   269  2.6800000000000D+00  0.0000000000000D+00  0.0000000000000D+00
   270  2.6900000000000D+00  0.0000000000000D+00  0.0000000000000D+00
   271  2.7000000000000D+00  0.0000000000000D+00  0.0000000000000D+00
   272  2.7100000000000D+00  0.0000000000000D+00  0.0000000000000D+00
   273  2.7200000000000D+00  0.0000000000000D+00  0.0000000000000D+00
   274  2.7300000000000D+00  0.0000000000000D+00  0.0000000000000D+00
   275  2.7400000000000D+00  0.0000000000000D+00  0.0000000000000D+00
   276  2.7500000000000D+00  0.0000000000000D+00  0.0000000000000D+00
   277  2.7600000000000D+00  0.0000000000000D+00  0.0000000000000D+00
   278  2.7700000000000D+00  0.0000000000000D+00  0.0000000000000D+00
   279  2.7800000000000D+00  0.0000000000000D+00  0.0000000000000D+00
   280  2.7900000000000D+00  0.0000000000000D+00  0.0000000000000D+00
   281  2.8000000000000D+00  0.0000000000000D+00  0.0000000000000D+00
   282  2.8100000000000D+00  0.0000000000000D+00  0.0000000000000D+00
   283  2.8200000000000D+00  0.0000000000000D+00  0.0000000000000D+00
   284  2.8300000000000D+00  0.0000000000000D+00  0.0000000000000D+00
   285  2.8400000000000D+00  0.0000000000000D+00  0.0000000000000D+00
   286  2.8500000000000D+00  0.0000000000000D+00  0.0000000000000D+00
   287  2.8600000000000D+00  0.0000000000000D+00  0.0000000000000D+00
   288  2.8700000000000D+00  0.0000000000000D+00  0.0000000000000D+00
   289  2.8800000000000D+00  0.0000000000000D+00  0.0000000000000D+00
   290  2.8900000000000D+00  0.0000000000000D+00  0.0000000000000D+00
   291  2.9000000000000D+00  0.0000000000000D+00  0.0000000000000D+00
   292  2.9100000000000D+00  0.0000000000000D+00  0.0000000000000D+00
   293  2.9200000000000D+00  0.0000000000000D+00  0.0000000000000D+00
   294  2.9300000000000D+00  0.0000000000000D+00  0.0000000000000D+00
   295  2.9400000000000D+00  0.0000000000000D+00  0.0000000000000D+00
   296  2.9500000000000D+00  0.0000000000000D+00  0.0000000000000D+00
   297  2.9600000000000D+00  0.0000000000000D+00  0.0000000000000D+00
   298  2.9700000000000D+00  0.0000000000000D+00  0.0000000000000D+00
   299  2.9800000000000D+00  0.0000000000000D+00  0.0000000000000D+00
   300  2.9900000000000D+00  0.0000000000000D+00  0.0000000000000D+00
   301  3.0000000000000D+00  0.0000000000000D+00  0.0000000000000D+00
   302  3.0100000000000D+00  0.0000000000000D+00  0.0000000000000D+00
   303  3.0200000000000D+00  0.0000000000000D+00  0.0000000000000D+00
   304  3.0300000000000D+00  0.0000000000000D+00  0.0000000000000D+00
   305  3.0400000000000D+00  0.0000000000000D+00  0.0000000000000D+00
   306  3.0500000000000D+00  0.0000000000000D+00  0.0000000000000D+00
   307  3.0600000000000D+00  0.0000000000000D+00  0.0000000000000D+00
   308  3.0700000000000D+00  0.0000000000000D+00  0.0000000000000D+00
   309  3.0800000000000D+00  0.0000000000000D+00  0.0000000000000D+00
   310  3.0900000000000D+00  0.0000000000000D+00  0.0000000000000D+00
   311  3.1000000000000D+00  0.0000000000000D+00  0.0000000000000D+00
   312  3.1100000000000D+00  0.0000000000000D+00  0.0000000000000D+00
   313  3.1200000000000D+00  0.0000000000000D+00  0.0000000000000D+00
   314  3.1300000000000D+00  0.0000000000000D+00  0.0000000000000D+00
   315  3.1400000000000D+00  0.0000000000000D+00  0.0000000000000D+00
   316  3.1500000000000D+00  0.0000000000000D+00  0.0000000000000D+00
   317  3.1600000000000D+00  0.0000000000000D+00  0.0000000000000D+00
   318  3.1700000000000D+00  0.0000000000000D+00  0.0000000000000D+00
   319  3.1800000000000D+00  0.0000000000000D+00  0.0000000000000D+00
   320  3.1900000000000D+00  0.0000000000000D+00  0.0000000000000D+00
   321  3.2000000000000D+00  0.0000000000000D+00  0.0000000000000D+00
   322  3.2100000000000D+00  0.0000000000000D+00  0.0000000000000D+00
   323  3.2200000000000D+00  0.0000000000000D+00  0.0000000000000D+00
   324  3.2300000000000D+00  0.0000000000000D+00  0.0000000000000D+00
   325  3.2400000000000D+00  0.0000000000000D+00  0.0000000000000D+00
   326  3.2500000000000D+00  0.0000000000000D+00  0.0000000000000D+00
   327  3.2600000000000D+00  0.0000000000000D+00  0.0000000000000D+00
   328  3.2700000000000D+00  0.0000000000000D+00  0.0000000000000D+00
   329  3.2800000000000D+00  0.0000000000000D+00  0.0000000000000D+00
   330  3.2900000000000D+00  0.0000000000000D+00  0.0000000000000D+00
   331  3.3000000000000D+00  0.0000000000000D+00  0.0000000000000D+00
   332  3.3100000000000D+00  0.0000000000000D+00  0.0000000000000D+00
   333  3.3200000000000D+00  0.0000000000000D+00  0.0000000000000D+00
   334  3.3300000000000D+00  0.0000000000000D+00  0.0000000000000D+00
   335  3.3400000000000D+00  0.0000000000000D+00  0.0000000000000D+00
   336  3.3500000000000D+00  0.0000000000000D+00  0.0000000000000D+00
   337  3.3600000000000D+00  0.0000000000000D+00  0.0000000000000D+00
   338  3.3700000000000D+00  0.0000000000000D+00  0.0000000000000D+00
   339  3.3800000000000D+00  0.0000000000000D+00  0.0000000000000D+00
   340  3.3900000000000D+00  0.0000000000000D+00  0.0000000000000D+00
   341  3.4000000000000D+00  0.0000000000000D+00  0.0000000000000D+00
   342  3.4100000000000D+00  0.0000000000000D+00  0.0000000000000D+00
   343  3.4200000000000D+00  0.0000000000000D+00  0.0000000000000D+00
   344  3.4300000000000D+00  0.0000000000000D+00  0.0000000000000D+00
   345  3.4400000000000D+00  0.0000000000000D+00  0.0000000000000D+00
   346  3.4500000000000D+00  0.0000000000000D+00  0.0000000000000D+00
   347  3.4600000000000D+00  0.0000000000000D+00  0.0000000000000D+00
   348  3.4700000000000D+00  0.0000000000000D+00  0.0000000000000D+00
   349  3.4800000000000D+00  0.0000000000000D+00  0.0000000000000D+00
   350  3.4900000000000D+00  0.0000000000000D+00  0.0000000000000D+00
   351  3.5000000000000D+00  0.0000000000000D+00  0.0000000000000D+00
   352  3.5100000000000D+00  0.0000000000000D+00  0.0000000000000D+00
   353  3.5200000000000D+00  0.0000000000000D+00  0.0000000000000D+00
   354  3.5300000000000D+00  0.0000000000000D+00  0.0000000000000D+00
   355  3.5400000000000D+00  0.0000000000000D+00  0.0000000000000D+00
   356  3.5500000000000D+00  0.0000000000000D+00  0.0000000000000D+00
   357  3.5600000000000D+00  0.0000000000000D+00  0.0000000000000D+00
   358  3.5700000000000D+00  0.0000000000000D+00  0.0000000000000D+00
   359  3.5800000000000D+00  0.0000000000000D+00  0.0000000000000D+00
   360  3.5900000000000D+00  0.0000000000000D+00  0.0000000000000D+00
   361  3.6000000000000D+00  0.0000000000000D+00  0.0000000000000D+00
   362  3.6100000000000D+00  0.0000000000000D+00  0.0000000000000D+00
   363  3.6200000000000D+00  0.0000000000000D+00  0.0000000000000D+00
   364  3.6300000000000D+00  0.0000000000000D+00  0.0000000000000D+00
   365  3.6400000000000D+00  0.0000000000000D+00  0.0000000000000D+00
   366  3.6500000000000D+00  0.0000000000000D+00  0.0000000000000D+00
   367  3.6600000000000D+00  0.0000000000000D+00  0.0000000000000D+00
   368  3.6700000000000D+00  0.0000000000000D+00  0.0000000000000D+00
   369  3.6800000000000D+00  0.0000000000000D+00  0.0000000000000D+00
   370  3.6900000000000D+00  0.0000000000000D+00  0.0000000000000D+00
   371  3.7000000000000D+00  0.0000000000000D+00  0.0000000000000D+00
   372  3.7100000000000D+00  0.0000000000000D+00  0.0000000000000D+00
   373  3.7200000000000D+00  0.0000000000000D+00  0.0000000000000D+00
   374  3.7300000000000D+00  0.0000000000000D+00  0.0000000000000D+00
   375  3.7400000000000D+00  0.0000000000000D+00  0.0000000000000D+00
   376  3.7500000000000D+00  0.0000000000000D+00  0.0000000000000D+00
   377  3.7600000000000D+00  0.0000000000000D+00  0.0000000000000D+00
   378  3.7700000000000D+00  0.0000000000000D+00  0.0000000000000D+00
   379  3.7800000000000D+00  0.0000000000000D+00  0.0000000000000D+00
   380  3.7900000000000D+00  0.0000000000000D+00  0.0000000000000D+00
   381  3.8000000000000D+00  0.0000000000000D+00  0.0000000000000D+00
   382  3.8100000000000D+00  0.0000000000000D+00  0.0000000000000D+00
   383  3.8200000000000D+00  0.0000000000000D+00  0.0000000000000D+00
   384  3.8300000000000D+00  0.0000000000000D+00  0.0000000000000D+00
   385  3.8400000000000D+00  0.0000000000000D+00  0.0000000000000D+00
   386  3.8500000000000D+00  0.0000000000000D+00  0.0000000000000D+00
   387  3.8600000000000D+00  0.0000000000000D+00  0.0000000000000D+00
   388  3.8700000000000D+00  0.0000000000000D+00  0.0000000000000D+00
   389  3.8800000000000D+00  0.0000000000000D+00  0.0000000000000D+00
   390  3.8900000000000D+00  0.0000000000000D+00  0.0000000000000D+00
   391  3.9000000000000D+00  0.0000000000000D+00  0.0000000000000D+00
   392  3.9100000000000D+00  0.0000000000000D+00  0.0000000000000D+00
   393  3.9200000000000D+00  0.0000000000000D+00  0.0000000000000D+00
   394  3.9300000000000D+00  0.0000000000000D+00  0.0000000000000D+00
   395  3.9400000000000D+00  0.0000000000000D+00  0.0000000000000D+00
   396  3.9500000000000D+00  0.0000000000000D+00  0.0000000000000D+00
   397  3.9600000000000D+00  0.0000000000000D+00  0.0000000000000D+00
   398  3.9700000000000D+00  0.0000000000000D+00  0.0000000000000D+00
   399  3.9800000000000D+00  0.0000000000000D+00  0.0000000000000D+00
   400  3.9900000000000D+00  0.0000000000000D+00  0.0000000000000D+00
   401  4.0000000000000D+00  0.0000000000000D+00  0.0000000000000D+00
   402  4.0100000000000D+00  0.0000000000000D+00  0.0000000000000D+00
   403  4.0200000000000D+00  0.0000000000000D+00  0.0000000000000D+00
   404  4.0300000000000D+00  0.0000000000000D+00  0.0000000000000D+00
   405  4.0400000000000D+00  0.0000000000000D+00  0.0000000000000D+00
   406  4.0500000000000D+00  0.0000000000000D+00  0.0000000000000D+00
   407  4.0600000000000D+00  0.0000000000000D+00  0.0000000000000D+00
   408  4.0700000000000D+00  0.0000000000000D+00  0.0000000000000D+00
   409  4.0800000000000D+00  0.0000000000000D+00  0.0000000000000D+00
   410  4.0900000000000D+00  0.0000000000000D+00  0.0000000000000D+00
   411  4.1000000000000D+00  0.0000000000000D+00  0.0000000000000D+00
   412  4.1100000000000D+00  0.0000000000000D+00  0.0000000000000D+00
   413  4.1200000000000D+00  0.0000000000000D+00  0.0000000000000D+00
   414  4.1300000000000D+00  0.0000000000000D+00  0.0000000000000D+00
   415  4.1400000000000D+00  0.0000000000000D+00  0.0000000000000D+00
   416  4.1500000000000D+00  0.0000000000000D+00  0.0000000000000D+00
   417  4.1600000000000D+00  0.0000000000000D+00  0.0000000000000D+00
   418  4.1700000000000D+00  0.0000000000000D+00  0.0000000000000D+00
   419  4.1800000000000D+00  0.0000000000000D+00  0.0000000000000D+00
   420  4.1900000000000D+00  0.0000000000000D+00  0.0000000000000D+00
   421  4.2000000000000D+00  0.0000000000000D+00  0.0000000000000D+00
   422  4.2100000000000D+00  0.0000000000000D+00  0.0000000000000D+00