Ru    ONCVPSP-3.3.1  r_core=   2.58325   2.55262   2.61425
     44.0000     16.0000      210904    zatom,zion,pspd
     8      11   2     4   600     0    pspcod,pspxc,lmax,lloc,mmax,r2well
  5.99000000  0.00000000  0.00000000    rchrg fchrg qchrg
     2     4     3     0    nproj
     3     1           extension_switch
     4     4     0    nprojso
   0                         7.7828638051281D-01  4.1541964842352D+00
     1  0.0000000000000D+00 -3.7852290746265D-12 -7.3774319986342D-13
     2  1.0000000000000D-02 -5.7341200700580D-03  5.1839715051503D-02
     3  2.0000000000000D-02 -1.1440344573307D-02  1.0360831978017D-01
     4  3.0000000000000D-02 -1.7090799773740D-02  1.5523481615435D-01
     5  4.0000000000000D-02 -2.2657655733880D-02  2.0664843055497D-01
     6  5.0000000000000D-02 -2.8113148555389D-02  2.5777872555778D-01
     7  6.0000000000000D-02 -3.3429603026641D-02  3.0855571120695D-01
     8  7.0000000000000D-02 -3.8579455808452D-02  3.5890995561179D-01
     9  8.0000000000000D-02 -4.3535279285436D-02  4.0877269469841D-01
    10  9.0000000000000D-02 -4.8269806205688D-02  4.5807594094951D-01
    11  1.0000000000000D-01 -5.2755955225960D-02  5.0675259096648D-01
    12  1.1000000000000D-01 -5.6966857472984D-02  5.5473653168920D-01
    13  1.2000000000000D-01 -6.0875884224240D-02  6.0196274511056D-01
    14  1.3000000000000D-01 -6.4456675803349D-02  6.4836741132419D-01
    15  1.4000000000000D-01 -6.7683171776250D-02  6.9388800974598D-01
    16  1.5000000000000D-01 -7.0529642524652D-02  7.3846341835168D-01
    17  1.6000000000000D-01 -7.2970722262707D-02  7.8203401077532D-01
    18  1.7000000000000D-01 -7.4981443551848D-02  8.2454175111546D-01
    19  1.8000000000000D-01 -7.6537273356775D-02  8.6593028629881D-01
    20  1.9000000000000D-01 -7.7614150673374D-02  9.0614503585340D-01
    21  2.0000000000000D-01 -7.8188525746322D-02  9.4513327894673D-01
    22  2.1000000000000D-01 -7.8237400880724D-02  9.8284423854680D-01
    23  2.2000000000000D-01 -7.7738372838393D-02  1.0192291625677D+00
    24  2.3000000000000D-01 -7.6669676795019D-02  1.0542414018648D+00
    25  2.4000000000000D-01 -7.5010231820039D-02  1.0878364849474D+00
    26  2.5000000000000D-01 -7.2739687826244D-02  1.1199721892817D+00
    27  2.6000000000000D-01 -6.9838473921157D-02  1.1506086090599D+00
    28  2.7000000000000D-01 -6.6287848077157D-02  1.1797082193161D+00
    29  2.8000000000000D-01 -6.2069948022256D-02  1.2072359362722D+00
    30  2.9000000000000D-01 -5.7167843238292D-02  1.2331591738044D+00
    31  3.0000000000000D-01 -5.1565587938389D-02  1.2574478959233D+00
    32  3.1000000000000D-01 -4.5248274880711D-02  1.2800746651646D+00
    33  3.2000000000000D-01 -3.8202089861033D-02  1.3010146867961D+00
    34  3.3000000000000D-01 -3.0414366712410D-02  1.3202458487473D+00
    35  3.4000000000000D-01 -2.1873642626579D-02  1.3377487571764D+00
    36  3.5000000000000D-01 -1.2569713598267D-02  1.3535067675945D+00
    37  3.6000000000000D-01 -2.4936897810785D-03  1.3675060114699D+00
    38  3.7000000000000D-01  8.3619494685967D-03  1.3797354182461D+00
    39  3.8000000000000D-01  2.0003301094327D-02  1.3901867327083D+00
    40  3.9000000000000D-01  3.2434984634434D-02  1.3988545276422D+00
    41  4.0000000000000D-01  4.5660089563655D-02  1.4057362117355D+00
    42  4.1000000000000D-01  5.9680123945287D-02  1.4108320326765D+00
    43  4.2000000000000D-01  7.4494964664977D-02  1.4141450754157D+00
    44  4.3000000000000D-01  9.0102809523917D-02  1.4156812555569D+00
    45  4.4000000000000D-01  1.0650013147453D-01  1.4154493078590D+00
    46  4.5000000000000D-01  1.2368163528590D-01  1.4134607698302D+00
    47  4.6000000000000D-01  1.4164021692903D-01  1.4097299604082D+00
    48  4.7000000000000D-01  1.6036692597363D-01  1.4042739537274D+00
    49  4.8000000000000D-01  1.7985093128811D-01  1.3971125479797D+00
    50  4.9000000000000D-01  2.0007949033329D-01  1.3882682293859D+00
    51  5.0000000000000D-01  2.2103792233755D-01  1.3777661313034D+00
    52  5.1000000000000D-01  2.4270958563688D-01  1.3656339885018D+00
    53  5.2000000000000D-01  2.6507585945732D-01  1.3519020866494D+00
    54  5.3000000000000D-01  2.8811613041029D-01  1.3366032070620D+00
    55  5.4000000000000D-01  3.1180778396202D-01  1.3197725667725D+00
    56  5.5000000000000D-01  3.3612620112803D-01  1.3014477539912D+00
    57  5.6000000000000D-01  3.6104476063154D-01  1.2816686590357D+00
    58  5.7000000000000D-01  3.8653484675097D-01  1.2604774008174D+00
    59  5.8000000000000D-01  4.1256586306659D-01  1.2379182489822D+00
    60  5.9000000000000D-01  4.3910525229984D-01  1.2140375418123D+00
    61  6.0000000000000D-01  4.6611852242042D-01  1.1888836000068D+00
    62  6.1000000000000D-01  4.9356927917684D-01  1.1625066364658D+00
    63  6.2000000000000D-01  5.2141926518510D-01  1.1349586622158D+00
    64  6.3000000000000D-01  5.4962840568773D-01  1.1062933886212D+00
    65  6.4000000000000D-01  5.7815486107185D-01  1.0765661260386D+00
    66  6.5000000000000D-01  6.0695508621022D-01  1.0458336790789D+00
    67  6.6000000000000D-01  6.3598389666305D-01  1.0141542386519D+00
    68  6.7000000000000D-01  6.6519454175164D-01  9.8158727097953D-01
    69  6.8000000000000D-01  6.9453878448697D-01  9.4819340376930D-01
    70  6.9000000000000D-01  7.2396698830736D-01  9.1403430975424D-01
    71  7.0000000000000D-01  7.5342821055040D-01  8.7917258780927D-01
    72  7.1000000000000D-01  7.8287030255378D-01  8.4367164186648D-01
    73  7.2000000000000D-01  8.1224001624946D-01  8.0759555785865D-01
    74  7.3000000000000D-01  8.4148311708481D-01  7.7100897892905D-01
    75  7.4000000000000D-01  8.7054450307280D-01  7.3397697915356D-01
    76  7.5000000000000D-01  8.9936832974281D-01  6.9656493602824D-01
    77  7.6000000000000D-01  9.2789814073219D-01  6.5883840198334D-01
    78  7.7000000000000D-01  9.5607700372778D-01  6.2086297519058D-01
    79  7.8000000000000D-01  9.8384765143633D-01  5.8270416993737D-01
    80  7.9000000000000D-01  1.0111526272327D+00  5.4442728684696D-01
    81  8.0000000000000D-01  1.0379344351050D+00  5.0609728322857D-01
    82  8.1000000000000D-01  1.0641356934889D+00  4.6777864384628D-01
    83  8.2000000000000D-01  1.0896992925525D+00  4.2953525239902D-01
    84  8.3000000000000D-01  1.1145685544710D+00  3.9143026400735D-01
    85  8.4000000000000D-01  1.1386873962023D+00  3.5352597900505D-01
    86  8.5000000000000D-01  1.1620004942515D+00  3.1588371833548D-01
    87  8.6000000000000D-01  1.1844534508905D+00  2.7856370085330D-01
    88  8.7000000000000D-01  1.2059929612792D+00  2.4162492283258D-01
    89  8.8000000000000D-01  1.2265669809142D+00  2.0512503998148D-01
    90  8.9000000000000D-01  1.2461248928158D+00  1.6912025226230D-01
    91  9.0000000000000D-01  1.2646176738493D+00  1.3366519181318D-01
    92  9.1000000000000D-01  1.2819980595634D+00  9.8812814264525D-02
    93  9.2000000000000D-01  1.2982207069191D+00  6.4614293739138D-02
    94  9.3000000000000D-01  1.3132423542746D+00  3.1118921819744D-02
    95  9.4000000000000D-01  1.3270219779861D+00 -1.6259892381712D-03
    96  9.5000000000000D-01  1.3395209449820D+00 -3.3575198777375D-02
    97  9.6000000000000D-01  1.3507031606675D+00 -6.4685625230713D-02
    98  9.7000000000000D-01  1.3605352115192D+00 -9.4916428579470D-02
    99  9.8000000000000D-01  1.3689865017351D+00 -1.2422908753382D-01
   100  9.9000000000000D-01  1.3760293833122D+00 -1.5258747120119D-01
   101  1.0000000000000D+00  1.3816392789343D+00 -1.7995790502017D-01
   102  1.0100000000000D+00  1.3857947970687D+00 -2.0630923074981D-01
   103  1.0200000000000D+00  1.3884778386822D+00 -2.3161286031738D-01
   104  1.0300000000000D+00  1.3896736950090D+00 -2.5584282334143D-01
   105  1.0400000000000D+00  1.3893711358234D+00 -2.7897580816232D-01
   106  1.0500000000000D+00  1.3875624876929D+00 -3.0099119622735D-01
   107  1.0600000000000D+00  1.3842437017157D+00 -3.2187108969386D-01
   108  1.0700000000000D+00  1.3794144102743D+00 -3.4160033213119D-01
   109  1.0800000000000D+00  1.3730779723680D+00 -3.6016652221895D-01
   110  1.0900000000000D+00  1.3652415071218D+00 -3.7756002035842D-01
   111  1.1000000000000D+00  1.3559159151036D+00 -3.9377394813078D-01
   112  1.1100000000000D+00  1.3451158871169D+00 -4.0880418055565D-01
   113  1.1200000000000D+00  1.3328599001821D+00 -4.2264933112347D-01
   114  1.1300000000000D+00  1.3191702004528D+00 -4.3531072959382D-01
   115  1.1400000000000D+00  1.3040727728634D+00 -4.4679239257307D-01
   116  1.1500000000000D+00  1.2875972973377D+00 -4.5710098690130D-01
   117  1.1600000000000D+00  1.2697770914454D+00 -4.6624578590380D-01
   118  1.1700000000000D+00  1.2506490394331D+00 -4.7423861857933D-01
   119  1.1800000000000D+00  1.2302535076012D+00 -4.8109381181792D-01
   120  1.1900000000000D+00  1.2086342460459D+00 -4.8682812575951D-01
   121  1.2000000000000D+00  1.1858382768372D+00 -4.9146068242822D-01
   122  1.2100000000000D+00  1.1619157687554D+00 -4.9501288779627D-01
   123  1.2200000000000D+00  1.1369198987317D+00 -4.9750834744219D-01
   124  1.2300000000000D+00  1.1109067002186D+00 -4.9897277599909D-01
   125  1.2400000000000D+00  1.0839348987469D+00 -4.9943390060091D-01
   126  1.2500000000000D+00  1.0560657349624D+00 -4.9892135854808D-01
   127  1.2600000000000D+00  1.0273627754937D+00 -4.9746658943689D-01
   128  1.2700000000000D+00  9.9789171205263D-01 -4.9510272201405D-01
   129  1.2800000000000D+00  9.6772014918689D-01 -4.9186445602515D-01
   130  1.2900000000000D+00  9.3691738116151D-01 -4.8778793934598D-01
   131  1.3000000000000D+00  9.0555415849658D-01 -4.8291064070273D-01
   132  1.3100000000000D+00  8.7370244469206D-01 -4.7727121828820D-01
   133  1.3200000000000D+00  8.4143516373116D-01 -4.7090938460173D-01
   134  1.3300000000000D+00  8.0882593899322D-01 -4.6386576785188D-01
   135  1.3400000000000D+00  7.7594882419685D-01 -4.5618177025813D-01
   136  1.3500000000000D+00  7.4287802706691D-01 -4.4789942361007D-01
   137  1.3600000000000D+00  7.0968762642557D-01 -4.3906124244147D-01
   138  1.3700000000000D+00  6.7645128340554D-01 -4.2971007517892D-01
   139  1.3800000000000D+00  6.4324194755186D-01 -4.1988895363873D-01
   140  1.3900000000000D+00  6.1013155854635D-01 -4.0964094123712D-01
   141  1.4000000000000D+00  5.7719074432769D-01 -3.9900898028956D-01
   142  1.4100000000000D+00  5.4448851638508D-01 -3.8803573876613D-01
   143  1.4200000000000D+00  5.1209196299887D-01 -3.7676345687802D-01
   144  1.4300000000000D+00  4.8006594122038D-01 -3.6523379385897D-01
   145  1.4400000000000D+00  4.4847276836119D-01 -3.5348767530267D-01
   146  1.4500000000000D+00  4.1737191379060D-01 -3.4156514142530D-01
   147  1.4600000000000D+00  3.8681969177684D-01 -3.2950519658080D-01
   148  1.4700000000000D+00  3.5686895618038D-01 -3.1734566040440D-01
   149  1.4800000000000D+00  3.2756879769524D-01 -3.0512302088452D-01
   150  1.4900000000000D+00  2.9896424440271D-01 -2.9287228971022D-01
   151  1.5000000000000D+00  2.7109596127534D-01 -2.8062685890904D-01
   152  1.5100000000000D+00  2.4399998446828D-01 -2.6841836802079D-01
   153  1.5200000000000D+00  2.1770735287193D-01 -2.5627654652279D-01
   154  1.5300000000000D+00  1.9224408485077D-01 -2.4422914836195D-01
   155  1.5400000000000D+00  1.6763049536712D-01 -2.3230171497468D-01
   156  1.5500000000000D+00  1.4388084069991D-01 -2.2051743158131D-01
   157  1.5600000000000D+00  1.2100495850505D-01 -2.0889748446307D-01
   158  1.5700000000000D+00  9.9009474388945D-02 -1.9746132999803D-01
   159  1.5800000000000D+00  7.7899437847597D-02 -1.8622711187788D-01
   160  1.5900000000000D+00  5.7679084827629D-02 -1.7521185786882D-01
   161  1.6000000000000D+00  3.8351213923927D-02 -1.6443133800989D-01
   162  1.6100000000000D+00  1.9917213652950D-02 -1.5390008527419D-01
   163  1.6200000000000D+00  2.3770990179160D-03 -1.4363141711880D-01
   164  1.6300000000000D+00 -1.4270536942369D-02 -1.3363743846813D-01
   165  1.6400000000000D+00 -3.0028530267174D-02 -1.2392905545451D-01
   166  1.6500000000000D+00 -4.4901158826642D-02 -1.1451598866034D-01
   167  1.6600000000000D+00 -5.8894145719526D-02 -1.0540678949331D-01
   168  1.6700000000000D+00 -7.2014656158963D-02 -9.6608858983682D-02
   169  1.6800000000000D+00 -8.4271288211065D-02 -8.8128468856089D-02
   170  1.6900000000000D+00 -9.5674057235382D-02 -7.9970784898440D-02
   171  1.7000000000000D+00 -1.0623437446526D-01 -7.2139892456272D-02
   172  1.7100000000000D+00 -1.1596501961547D-01 -6.4638824062394D-02
   173  1.7200000000000D+00 -1.2488010799935D-01 -5.7469589015888D-02
   174  1.7300000000000D+00 -1.3299505209411D-01 -5.0633204902559D-02
   175  1.7400000000000D+00 -1.4032651806784D-01 -4.4129730862077D-02
   176  1.7500000000000D+00 -1.4689237726700D-01 -3.7958302572657D-02
   177  1.7600000000000D+00 -1.5271165309794D-01 -3.2117168784214D-02
   178  1.7700000000000D+00 -1.5780446357899D-01 -2.6603729284069D-02
   179  1.7800000000000D+00 -1.6219196003541D-01 -2.1414574117494D-02
   180  1.7900000000000D+00 -1.6589626175424D-01 -1.6545524080580D-02
   181  1.8000000000000D+00 -1.6894038708885D-01 -1.1991672303989D-02
   182  1.8100000000000D+00 -1.7134818176434D-01 -7.7474266670228D-03
   183  1.8200000000000D+00 -1.7314424455667D-01 -3.8065529571449D-03
   184  1.8300000000000D+00 -1.7435385056081D-01 -1.6221867128122D-04
   185  1.8400000000000D+00 -1.7500287266543D-01  3.1929627655980D-03
   186  1.8500000000000D+00 -1.7511770145071D-01  6.2668874523567D-03
   187  1.8600000000000D+00 -1.7472516288736D-01  9.0679159892500D-03
   188  1.8700000000000D+00 -1.7385243490216D-01  1.1604828319008D-02
   189  1.8800000000000D+00 -1.7252696493136D-01  1.3886779132218D-02
   190  1.8900000000000D+00 -1.7077638694781D-01  1.5923253375653D-02
   191  1.9000000000000D+00 -1.6862843806554D-01  1.7724021955345D-02
   192  1.9100000000000D+00 -1.6611087563067D-01  1.9299097911114D-02
   193  1.9200000000000D+00 -1.6325139540467D-01  2.0658693291318D-02
   194  1.9300000000000D+00 -1.6007755100995D-01  2.1813176798294D-02
   195  1.9400000000000D+00 -1.5661667476198D-01  2.2773032257440D-02
   196  1.9500000000000D+00 -1.5289580047863D-01  2.3548818139351D-02
   197  1.9600000000000D+00 -1.4894158819860D-01  2.4151128088643D-02
   198  1.9700000000000D+00 -1.4478025164367D-01  2.4590552794134D-02
   199  1.9800000000000D+00 -1.4043748809683D-01  2.4877643056191D-02
   200  1.9900000000000D+00 -1.3593841145833D-01  2.5022874349132D-02
   201  2.0000000000000D+00 -1.3130748845541D-01  2.5036612860905D-02
   202  2.0100000000000D+00 -1.2656847819280D-01  2.4929083076165D-02
   203  2.0200000000000D+00 -1.2174437565916D-01  2.4710337138172D-02
   204  2.0300000000000D+00 -1.1685735864040D-01  2.4390225768150D-02
   205  2.0400000000000D+00 -1.1192873915573D-01  2.3978371170065D-02
   206  2.0500000000000D+00 -1.0697891869762D-01  2.3484141636722D-02
   207  2.0600000000000D+00 -1.0202734793533D-01  2.2916628105798D-02
   208  2.0700000000000D+00 -9.7092491019088D-02  2.2284622712944D-02
   209  2.0800000000000D+00 -9.2191793947253D-02  2.1596599131729D-02
   210  2.0900000000000D+00 -8.7341658177753D-02  2.0860695144574D-02
   211  2.1000000000000D+00 -8.2557418321000D-02  2.0084696998973D-02
   212  2.1100000000000D+00 -7.7853324831207D-02  1.9276025890537D-02
   213  2.1200000000000D+00 -7.3242531476000D-02  1.8441726484984D-02
   214  2.1300000000000D+00 -6.8737087023712D-02  1.7588457264204D-02
   215  2.1400000000000D+00 -6.4347932286563D-02  1.6722483117034D-02
   216  2.1500000000000D+00 -6.0084901151082D-02  1.5849669659332D-02
   217  2.1600000000000D+00 -5.5956726434290D-02  1.4975479590435D-02
   218  2.1700000000000D+00 -5.1971050354993D-02  1.4104971002515D-02
   219  2.1800000000000D+00 -4.8134438729145D-02  1.3242797308517D-02
   220  2.1900000000000D+00 -4.4452400156238D-02  1.2393209250567D-02
   221  2.2000000000000D+00 -4.0929408693800D-02  1.1560058430175D-02
   222  2.2100000000000D+00 -3.7568930527497D-02  1.0746802541405D-02
   223  2.2200000000000D+00 -3.4373454672890D-02  9.9565123142090D-03
   224  2.2300000000000D+00 -3.1344526646904D-02  9.1918797744873D-03
   225  2.2400000000000D+00 -2.8482785915418D-02  8.4552281082632D-03
   226  2.2500000000000D+00 -2.5788006268175D-02  7.7485228152928D-03
   227  2.2600000000000D+00 -2.3259138774025D-02  7.0733840205330D-03
   228  2.2700000000000D+00 -2.0894357785542D-02  6.4311001051329D-03
   229  2.2800000000000D+00 -1.8691108906769D-02  5.8226422597585D-03
   230  2.2900000000000D+00 -1.6646159108403D-02  5.2486800185717D-03
   231  2.3000000000000D+00 -1.4755648763299D-02  4.7095976841657D-03
   232  2.3100000000000D+00 -1.3015144974039D-02  4.2055114145916D-03
   233  2.3200000000000D+00 -1.1419696242992D-02  3.7362869777337D-03
   234  2.3300000000000D+00 -9.9638880291292D-03  3.3015580051255D-03
   235  2.3400000000000D+00 -8.6418989323324D-03  2.9007446502129D-03
   236  2.3500000000000D+00 -7.4475571624754D-03  2.5330725085613D-03
   237  2.3600000000000D+00 -6.3743970791759D-03  2.1975917284792D-03
   238  2.3700000000000D+00 -5.4157155668960D-03  1.8931962190432D-03
   239  2.3800000000000D+00 -4.5646276020118D-03  1.6186427071414D-03
   240  2.3900000000000D+00 -3.8141212552120D-03  1.3725697403395D-03
   241  2.4000000000000D+00 -3.1571115591402D-03  1.1535164163414D-03
   242  2.4100000000000D+00 -2.5864926550402D-03  9.5994061638516D-04
   243  2.4200000000000D+00 -2.0951888070353D-03  7.9023696485291D-04
   244  2.4300000000000D+00 -1.6762032431211D-03  6.4275412099487D-04
   245  2.4400000000000D+00 -1.3226645663812D-03  5.1581130539193D-04
   246  2.4500000000000D+00 -1.0278715413947D-03  4.0771436134740D-04
   247  2.4600000000000D+00 -7.8533468223390D-04  3.1677076024784D-04
   248  2.4700000000000D+00 -5.8881490427397D-04  2.4130364744677D-04
   249  2.4800000000000D+00 -4.3236014592244D-04  1.7966526456583D-04
   250  2.4900000000000D+00 -3.1033787374623D-04  1.3024896827317D-04
   251  2.5000000000000D+00 -2.1748826176668D-04  9.1499207663713D-05
   252  2.5100000000000D+00 -1.4886677867715D-04  6.1925070192461D-05
   253  2.5200000000000D+00 -9.9939282029555D-05  4.0105882963009D-05
   254  2.5300000000000D+00 -6.6428756982733D-05  2.4675830904265D-05
   255  2.5400000000000D+00 -4.5012020003036D-05  1.4407450512635D-05
   256  2.5500000000000D+00 -3.2714172263438D-05  8.1498668374336D-06
   257  2.5600000000000D+00 -2.7377104654259D-05  4.9315286083724D-06
   258  2.5700000000000D+00 -2.5314639875872D-05  3.5688100575404D-06
   259  2.5800000000000D+00 -2.3232669798601D-05  3.0166521122853D-06
   260  2.5900000000000D+00 -1.7901323662158D-05  2.3171362463235D-06
   261  2.6000000000000D+00 -1.0213268344912D-05  1.3467378638719D-06
   262  2.6100000000000D+00 -2.6512857572610D-06  3.5934345428062D-07
   263  2.6200000000000D+00  1.6187628168924D-06 -2.0024855512333D-07
   264  2.6300000000000D+00  2.2609349173988D-06 -2.8062336784943D-07
   265  2.6400000000000D+00  1.0167789752178D-06 -1.2678597338010D-07
   266  2.6500000000000D+00 -2.5379969584316D-07  2.8820417818237D-08
   267  2.6600000000000D+00 -5.0593778269338D-07  5.7040070033538D-08
   268  2.6700000000000D+00 -3.0843741485654D-07  3.4562521655936D-08
   269  2.6800000000000D+00  1.8640918572033D-08 -2.4200765677633D-09
   270  2.6900000000000D+00  6.0934402454786D-08 -7.9108719337860D-09
   271  2.7000000000000D+00  4.8137808342618D-08 -6.2495408444211D-09
   272  2.7100000000000D+00  0.0000000000000D+00  0.0000000000000D+00
   273  2.7200000000000D+00  0.0000000000000D+00  0.0000000000000D+00
   274  2.7300000000000D+00  0.0000000000000D+00  0.0000000000000D+00
   275  2.7400000000000D+00  0.0000000000000D+00  0.0000000000000D+00
   276  2.7500000000000D+00  0.0000000000000D+00  0.0000000000000D+00
   277  2.7600000000000D+00  0.0000000000000D+00  0.0000000000000D+00
   278  2.7700000000000D+00  0.0000000000000D+00  0.0000000000000D+00
   279  2.7800000000000D+00  0.0000000000000D+00  0.0000000000000D+00
   280  2.7900000000000D+00  0.0000000000000D+00  0.0000000000000D+00
   281  2.8000000000000D+00  0.0000000000000D+00  0.0000000000000D+00
   282  2.8100000000000D+00  0.0000000000000D+00  0.0000000000000D+00
   283  2.8200000000000D+00  0.0000000000000D+00  0.0000000000000D+00
   284  2.8300000000000D+00  0.0000000000000D+00  0.0000000000000D+00
   285  2.8400000000000D+00  0.0000000000000D+00  0.0000000000000D+00
   286  2.8500000000000D+00  0.0000000000000D+00  0.0000000000000D+00
   287  2.8600000000000D+00  0.0000000000000D+00  0.0000000000000D+00
   288  2.8700000000000D+00  0.0000000000000D+00  0.0000000000000D+00
   289  2.8800000000000D+00  0.0000000000000D+00  0.0000000000000D+00
   290  2.8900000000000D+00  0.0000000000000D+00  0.0000000000000D+00
   291  2.9000000000000D+00  0.0000000000000D+00  0.0000000000000D+00
   292  2.9100000000000D+00  0.0000000000000D+00  0.0000000000000D+00
   293  2.9200000000000D+00  0.0000000000000D+00  0.0000000000000D+00
   294  2.9300000000000D+00  0.0000000000000D+00  0.0000000000000D+00
   295  2.9400000000000D+00  0.0000000000000D+00  0.0000000000000D+00
   296  2.9500000000000D+00  0.0000000000000D+00  0.0000000000000D+00
   297  2.9600000000000D+00  0.0000000000000D+00  0.0000000000000D+00
   298  2.9700000000000D+00  0.0000000000000D+00  0.0000000000000D+00
   299  2.9800000000000D+00  0.0000000000000D+00  0.0000000000000D+00
   300  2.9900000000000D+00  0.0000000000000D+00  0.0000000000000D+00
   301  3.0000000000000D+00  0.0000000000000D+00  0.0000000000000D+00
   302  3.0100000000000D+00  0.0000000000000D+00  0.0000000000000D+00
   303  3.0200000000000D+00  0.0000000000000D+00  0.0000000000000D+00
   304  3.0300000000000D+00  0.0000000000000D+00  0.0000000000000D+00
   305  3.0400000000000D+00  0.0000000000000D+00  0.0000000000000D+00
   306  3.0500000000000D+00  0.0000000000000D+00  0.0000000000000D+00
   307  3.0600000000000D+00  0.0000000000000D+00  0.0000000000000D+00
   308  3.0700000000000D+00  0.0000000000000D+00  0.0000000000000D+00
   309  3.0800000000000D+00  0.0000000000000D+00  0.0000000000000D+00
   310  3.0900000000000D+00  0.0000000000000D+00  0.0000000000000D+00
   311  3.1000000000000D+00  0.0000000000000D+00  0.0000000000000D+00
   312  3.1100000000000D+00  0.0000000000000D+00  0.0000000000000D+00
   313  3.1200000000000D+00  0.0000000000000D+00  0.0000000000000D+00
   314  3.1300000000000D+00  0.0000000000000D+00  0.0000000000000D+00
   315  3.1400000000000D+00  0.0000000000000D+00  0.0000000000000D+00
   316  3.1500000000000D+00  0.0000000000000D+00  0.0000000000000D+00
   317  3.1600000000000D+00  0.0000000000000D+00  0.0000000000000D+00
   318  3.1700000000000D+00  0.0000000000000D+00  0.0000000000000D+00
   319  3.1800000000000D+00  0.0000000000000D+00  0.0000000000000D+00
   320  3.1900000000000D+00  0.0000000000000D+00  0.0000000000000D+00
   321  3.2000000000000D+00  0.0000000000000D+00  0.0000000000000D+00
   322  3.2100000000000D+00  0.0000000000000D+00  0.0000000000000D+00
   323  3.2200000000000D+00  0.0000000000000D+00  0.0000000000000D+00
   324  3.2300000000000D+00  0.0000000000000D+00  0.0000000000000D+00
   325  3.2400000000000D+00  0.0000000000000D+00  0.0000000000000D+00
   326  3.2500000000000D+00  0.0000000000000D+00  0.0000000000000D+00
   327  3.2600000000000D+00  0.0000000000000D+00  0.0000000000000D+00
   328  3.2700000000000D+00  0.0000000000000D+00  0.0000000000000D+00
   329  3.2800000000000D+00  0.0000000000000D+00  0.0000000000000D+00
   330  3.2900000000000D+00  0.0000000000000D+00  0.0000000000000D+00
   331  3.3000000000000D+00  0.0000000000000D+00  0.0000000000000D+00
   332  3.3100000000000D+00  0.0000000000000D+00  0.0000000000000D+00
   333  3.3200000000000D+00  0.0000000000000D+00  0.0000000000000D+00
   334  3.3300000000000D+00  0.0000000000000D+00  0.0000000000000D+00
   335  3.3400000000000D+00  0.0000000000000D+00  0.0000000000000D+00
   336  3.3500000000000D+00  0.0000000000000D+00  0.0000000000000D+00
   337  3.3600000000000D+00  0.0000000000000D+00  0.0000000000000D+00
   338  3.3700000000000D+00  0.0000000000000D+00  0.0000000000000D+00
   339  3.3800000000000D+00  0.0000000000000D+00  0.0000000000000D+00
   340  3.3900000000000D+00  0.0000000000000D+00  0.0000000000000D+00
   341  3.4000000000000D+00  0.0000000000000D+00  0.0000000000000D+00
   342  3.4100000000000D+00  0.0000000000000D+00  0.0000000000000D+00
   343  3.4200000000000D+00  0.0000000000000D+00  0.0000000000000D+00
   344  3.4300000000000D+00  0.0000000000000D+00  0.0000000000000D+00
   345  3.4400000000000D+00  0.0000000000000D+00  0.0000000000000D+00
   346  3.4500000000000D+00  0.0000000000000D+00  0.0000000000000D+00
   347  3.4600000000000D+00  0.0000000000000D+00  0.0000000000000D+00
   348  3.4700000000000D+00  0.0000000000000D+00  0.0000000000000D+00
   349  3.4800000000000D+00  0.0000000000000D+00  0.0000000000000D+00
   350  3.4900000000000D+00  0.0000000000000D+00  0.0000000000000D+00
   351  3.5000000000000D+00  0.0000000000000D+00  0.0000000000000D+00
   352  3.5100000000000D+00  0.0000000000000D+00  0.0000000000000D+00
   353  3.5200000000000D+00  0.0000000000000D+00  0.0000000000000D+00
   354  3.5300000000000D+00  0.0000000000000D+00  0.0000000000000D+00
   355  3.5400000000000D+00  0.0000000000000D+00  0.0000000000000D+00
   356  3.5500000000000D+00  0.0000000000000D+00  0.0000000000000D+00
   357  3.5600000000000D+00  0.0000000000000D+00  0.0000000000000D+00
   358  3.5700000000000D+00  0.0000000000000D+00  0.0000000000000D+00
   359  3.5800000000000D+00  0.0000000000000D+00  0.0000000000000D+00
   360  3.5900000000000D+00  0.0000000000000D+00  0.0000000000000D+00
   361  3.6000000000000D+00  0.0000000000000D+00  0.0000000000000D+00
   362  3.6100000000000D+00  0.0000000000000D+00  0.0000000000000D+00
   363  3.6200000000000D+00  0.0000000000000D+00  0.0000000000000D+00
   364  3.6300000000000D+00  0.0000000000000D+00  0.0000000000000D+00
   365  3.6400000000000D+00  0.0000000000000D+00  0.0000000000000D+00
   366  3.6500000000000D+00  0.0000000000000D+00  0.0000000000000D+00
   367  3.6600000000000D+00  0.0000000000000D+00  0.0000000000000D+00
   368  3.6700000000000D+00  0.0000000000000D+00  0.0000000000000D+00
   369  3.6800000000000D+00  0.0000000000000D+00  0.0000000000000D+00
   370  3.6900000000000D+00  0.0000000000000D+00  0.0000000000000D+00
   371  3.7000000000000D+00  0.0000000000000D+00  0.0000000000000D+00
   372  3.7100000000000D+00  0.0000000000000D+00  0.0000000000000D+00
   373  3.7200000000000D+00  0.0000000000000D+00  0.0000000000000D+00
   374  3.7300000000000D+00  0.0000000000000D+00  0.0000000000000D+00
   375  3.7400000000000D+00  0.0000000000000D+00  0.0000000000000D+00
   376  3.7500000000000D+00  0.0000000000000D+00  0.0000000000000D+00
   377  3.7600000000000D+00  0.0000000000000D+00  0.0000000000000D+00
   378  3.7700000000000D+00  0.0000000000000D+00  0.0000000000000D+00
   379  3.7800000000000D+00  0.0000000000000D+00  0.0000000000000D+00
   380  3.7900000000000D+00  0.0000000000000D+00  0.0000000000000D+00
   381  3.8000000000000D+00  0.0000000000000D+00  0.0000000000000D+00
   382  3.8100000000000D+00  0.0000000000000D+00  0.0000000000000D+00
   383  3.8200000000000D+00  0.0000000000000D+00  0.0000000000000D+00
   384  3.8300000000000D+00  0.0000000000000D+00  0.0000000000000D+00
   385  3.8400000000000D+00  0.0000000000000D+00  0.0000000000000D+00
   386  3.8500000000000D+00  0.0000000000000D+00  0.0000000000000D+00
   387  3.8600000000000D+00  0.0000000000000D+00  0.0000000000000D+00
   388  3.8700000000000D+00  0.0000000000000D+00  0.0000000000000D+00
   389  3.8800000000000D+00  0.0000000000000D+00  0.0000000000000D+00
   390  3.8900000000000D+00  0.0000000000000D+00  0.0000000000000D+00
   391  3.9000000000000D+00  0.0000000000000D+00  0.0000000000000D+00
   392  3.9100000000000D+00  0.0000000000000D+00  0.0000000000000D+00
   393  3.9200000000000D+00  0.0000000000000D+00  0.0000000000000D+00
   394  3.9300000000000D+00  0.0000000000000D+00  0.0000000000000D+00
   395  3.9400000000000D+00  0.0000000000000D+00  0.0000000000000D+00
   396  3.9500000000000D+00  0.0000000000000D+00  0.0000000000000D+00
   397  3.9600000000000D+00  0.0000000000000D+00  0.0000000000000D+00
   398  3.9700000000000D+00  0.0000000000000D+00  0.0000000000000D+00
   399  3.9800000000000D+00  0.0000000000000D+00  0.0000000000000D+00
   400  3.9900000000000D+00  0.0000000000000D+00  0.0000000000000D+00
   401  4.0000000000000D+00  0.0000000000000D+00  0.0000000000000D+00
   402  4.0100000000000D+00  0.0000000000000D+00  0.0000000000000D+00
   403  4.0200000000000D+00  0.0000000000000D+00  0.0000000000000D+00
   404  4.0300000000000D+00  0.0000000000000D+00  0.0000000000000D+00
   405  4.0400000000000D+00  0.0000000000000D+00  0.0000000000000D+00
   406  4.0500000000000D+00  0.0000000000000D+00  0.0000000000000D+00
   407  4.0600000000000D+00  0.0000000000000D+00  0.0000000000000D+00
   408  4.0700000000000D+00  0.0000000000000D+00  0.0000000000000D+00
   409  4.0800000000000D+00  0.0000000000000D+00  0.0000000000000D+00
   410  4.0900000000000D+00  0.0000000000000D+00  0.0000000000000D+00
   411  4.1000000000000D+00  0.0000000000000D+00  0.0000000000000D+00
   412  4.1100000000000D+00  0.0000000000000D+00  0.0000000000000D+00
   413  4.1200000000000D+00  0.0000000000000D+00  0.0000000000000D+00
   414  4.1300000000000D+00  0.0000000000000D+00  0.0000000000000D+00
   415  4.1400000000000D+00  0.0000000000000D+00  0.0000000000000D+00
   416  4.1500000000000D+00  0.0000000000000D+00  0.0000000000000D+00
   417  4.1600000000000D+00  0.0000000000000D+00  0.0000000000000D+00
   418  4.1700000000000D+00  0.0000000000000D+00  0.0000000000000D+00
   419  4.1800000000000D+00  0.0000000000000D+00  0.0000000000000D+00
   420  4.1900000000000D+00  0.0000000000000D+00  0.0000000000000D+00
   421  4.2000000000000D+00  0.0000000000000D+00  0.0000000000000D+00
   422  4.2100000000000D+00  0.0000000000000D+00  0.0000000000000D+00