Ru    ONCVPSP-3.3.1  r_core=   2.58325   2.55262   2.61425
     44.0000     16.0000      210904    zatom,zion,pspd
     8      11   2     4   600     0    pspcod,pspxc,lmax,lloc,mmax,r2well
  5.99000000  0.00000000  0.00000000    rchrg fchrg qchrg
     2     2     2     0     0    nproj
     1     1           extension_switch
   0                         4.1508548054613D+00  7.7704081760044D-01
     1  0.0000000000000D+00 -7.6522121972289D-13 -3.7454969681328D-12
     2  1.0000000000000D-02  5.1858817917107D-02 -5.7200141468269D-03
     3  2.0000000000000D-02  1.0364645285620D-01 -1.1412126973086D-02
     4  3.0000000000000D-02  1.5529183434953D-01 -1.7048459060605D-02
     5  4.0000000000000D-02  2.0672411677952D-01 -2.2601174932637D-02
     6  5.0000000000000D-02  2.5787279137794D-01 -2.8042505365200D-02
     7  6.0000000000000D-02  3.0866779771467D-01 -3.3344770104513D-02
     8  7.0000000000000D-02  3.5903963450666D-01 -3.8480401121449D-02
     9  8.0000000000000D-02  4.0891946957857D-01 -4.3421966530186D-02
    10  9.0000000000000D-02  4.5823924880755D-01 -4.8142195293488D-02
    11  1.0000000000000D-01  5.0693180388563D-01 -5.2614002831525D-02
    12  1.1000000000000D-01  5.5493095873455D-01 -5.6810517644588D-02
    13  1.2000000000000D-01  6.0217163440946D-01 -6.0705109052800D-02
    14  1.3000000000000D-01  6.4858995232943D-01 -6.4271416147705D-02
    15  1.4000000000000D-01  6.9412333567456D-01 -6.7483378041684D-02
    16  1.5000000000000D-01  7.3871060879185D-01 -7.0315265491475D-02
    17  1.6000000000000D-01  7.8229209445366D-01 -7.2741713961496D-02
    18  1.7000000000000D-01  8.2480970881547D-01 -7.4737758181740D-02
    19  1.8000000000000D-01  8.6620705392200D-01 -7.6278868243025D-02
    20  1.9000000000000D-01  9.0642950761349D-01 -7.7340987260224D-02
    21  2.0000000000000D-01  9.4542431068697D-01 -7.7900570621009D-02
    22  2.1000000000000D-01  9.8314065117029D-01 -7.7934626824406D-02
    23  2.2000000000000D-01  1.0195297455702D+00 -7.7420759899531D-02
    24  2.3000000000000D-01  1.0545449169588D+00 -7.6337213380699D-02
    25  2.4000000000000D-01  1.0881416697671D+00 -7.4662915800631D-02
    26  2.5000000000000D-01  1.1202777611565D+00 -7.2377527648628D-02
    27  2.6000000000000D-01  1.1509132688461D+00 -6.9461489725769D-02
    28  2.7000000000000D-01  1.1800106552733D+00 -6.5896072813998D-02
    29  2.8000000000000D-01  1.2075348279748D+00 -6.1663428560992D-02
    30  2.9000000000000D-01  1.2334531960746D+00 -5.6746641467539D-02
    31  3.0000000000000D-01  1.2577357227740D+00 -5.1129781849315D-02
    32  3.1000000000000D-01  1.2803549737408D+00 -4.4797959630050D-02
    33  3.2000000000000D-01  1.3012861613023D+00 -3.7737378808661D-02
    34  3.3000000000000D-01  1.3205071843492D+00 -2.9935392428736D-02
    35  3.4000000000000D-01  1.3379986638655D+00 -2.1380557864946D-02
    36  3.5000000000000D-01  1.3537439740031D+00 -1.2062692227799D-02
    37  3.6000000000000D-01  1.3677292686262D+00 -1.9729276753703D-03
    38  3.7000000000000D-01  1.3799435032574D+00  8.8962335913021D-03
    39  3.8000000000000D-01  1.3903784523613D+00  2.0550864883859D-02
    40  3.9000000000000D-01  1.3990287219109D+00  3.2995561378364D-02
    41  4.0000000000000D-01  1.4058917571843D+00  4.6233387517931D-02
    42  4.1000000000000D-01  1.4109678457511D+00  6.0265825729634D-02
    43  4.2000000000000D-01  1.4142601156095D+00  7.5092726726648D-02
    44  4.3000000000000D-01  1.4157745284460D+00  9.0712261673211D-02
    45  4.4000000000000D-01  1.4155198679955D+00  1.0712087649527D-01
    46  4.5000000000000D-01  1.4135077234861D+00  1.2431324862376D-01
    47  4.6000000000000D-01  1.4097524681630D+00  1.4228224646051D-01
    48  4.7000000000000D-01  1.4042712328900D+00  1.6101889185806D-01
    49  4.8000000000000D-01  1.3970838748397D+00  1.8051232590485D-01
    50  4.9000000000000D-01  1.3882129412881D+00  2.0074977830623D-01
    51  5.0000000000000D-01  1.3776836285385D+00  2.2171654064831D-01
    52  5.1000000000000D-01  1.3655237360094D+00  2.4339594382817D-01
    53  5.2000000000000D-01  1.3517636155294D+00  2.6576933992765D-01
    54  5.3000000000000D-01  1.3364361158887D+00  2.8881608880056D-01
    55  5.4000000000000D-01  1.3195765227105D+00  3.1251354963470D-01
    56  5.5000000000000D-01  1.3012224937088D+00  3.3683707773892D-01
    57  5.6000000000000D-01  1.2814139894153D+00  3.6176002679402D-01
    58  5.7000000000000D-01  1.2601931994602D+00  3.8725375679236D-01
    59  5.8000000000000D-01  1.2376044645081D+00  4.1328764787578D-01
    60  5.9000000000000D-01  1.2136941939543D+00  4.3982912026521D-01
    61  6.0000000000000D-01  1.1885107795000D+00  4.6684366045656D-01
    62  6.1000000000000D-01  1.1621045047339D+00  4.9429485383862D-01
    63  6.2000000000000D-01  1.1345274508553D+00  5.2214442386689D-01
    64  6.3000000000000D-01  1.1058333986871D+00  5.5035227790566D-01
    65  6.4000000000000D-01  1.0760777271344D+00  5.7887655982660D-01
    66  6.5000000000000D-01  1.0453173082541D+00  6.0767370942737D-01
    67  6.6000000000000D-01  1.0136103991126D+00  6.3669852870811D-01
    68  6.7000000000000D-01  9.8101653061519D-01  6.6590425501623D-01
    69  6.8000000000000D-01  9.4759639350342D-01  6.9524264104263D-01
    70  6.9000000000000D-01  9.1341172172265D-01  7.2466404162316D-01
    71  7.0000000000000D-01  8.7852517337387D-01  7.5411750727018D-01
    72  7.1000000000000D-01  8.4300020947092D-01  7.8355088432889D-01
    73  7.2000000000000D-01  8.0690097073335D-01  8.1291092162235D-01
    74  7.3000000000000D-01  7.7029215265337D-01  8.4214338341875D-01
    75  7.4000000000000D-01  7.3323887908319D-01  8.7119316852304D-01
    76  7.5000000000000D-01  6.9580657459662D-01  9.0000443526396D-01
    77  7.6000000000000D-01  6.5806083588568D-01  9.2852073211667D-01
    78  7.7000000000000D-01  6.2006730245991D-01  9.5668513367005D-01
    79  7.8000000000000D-01  5.8189152692196D-01  9.8444038161740D-01
    80  7.9000000000000D-01  5.4359884509879D-01  1.0117290304194D+00
    81  8.0000000000000D-01  5.0525424631283D-01  1.0384935972585D+00
    82  8.1000000000000D-01  4.6692224408192D-01  1.0646767158762D+00
    83  8.2000000000000D-01  4.2866674754058D-01  1.0902212938560D+00
    84  8.3000000000000D-01  3.9055093387833D-01  1.1150706728899D+00
    85  8.4000000000000D-01  3.5263712209336D-01  1.1391687915396D+00
    86  8.5000000000000D-01  3.1498664836120D-01  1.1624603499813D+00
    87  8.6000000000000D-01  2.7765974331930D-01  1.1848909762000D+00
    88  8.7000000000000D-01  2.4071541156835D-01  1.2064073930788D+00
    89  8.8000000000000D-01  2.0421131369051D-01  1.2269575858107D+00
    90  8.9000000000000D-01  1.6820365108326D-01  1.2464909690426D+00
    91  9.0000000000000D-01  1.3274705390495D-01  1.2649585531481D+00
    92  9.1000000000000D-01  9.7894472425088D-02  1.2823131090118D+00
    93  9.2000000000000D-01  6.3697072067986D-02  1.2985093306992D+00
    94  9.3000000000000D-01  3.0204132433447D-02  1.3135039953766D+00
    95  9.4000000000000D-01 -2.5370494280426D-03  1.3272561198418D+00
    96  9.5000000000000D-01 -3.4481251214940D-02  1.3397271130239D+00
    97  9.6000000000000D-01 -6.5585412786392D-02  1.3508809238080D+00
    98  9.7000000000000D-01 -9.5808718532128D-02  1.3606841835453D+00
    99  9.8000000000000D-01 -1.2511267445645D-01  1.3691063426147D+00
   100  9.9000000000000D-01 -1.5346117974248D-01  1.3761198004062D+00
   101  1.0000000000000D+00 -1.8082059257464D-01  1.3817000281127D+00
   102  1.0100000000000D+00 -2.0715979000985D-01  1.3858256837246D+00
   103  1.0200000000000D+00 -2.3245022170053D-01  1.3884787186415D+00
   104  1.0300000000000D+00 -2.5666595728715D-01  1.3896444753315D+00
   105  1.0400000000000D+00 -2.7978372729266D-01  1.3893117754925D+00
   106  1.0500000000000D+00 -3.0178295736644D-01  1.3874729981911D+00
   107  1.0600000000000D+00 -3.2264579574178D-01  1.3841241474828D+00
   108  1.0700000000000D+00 -3.4235713378800D-01  1.3792649090460D+00
   109  1.0800000000000D+00 -3.6090461955550D-01  1.3728986953923D+00
   110  1.0900000000000D+00 -3.7827866423068D-01  1.3650326792521D+00
   111  1.1000000000000D+00 -3.9447244143525D-01  1.3556778147655D+00
   112  1.1100000000000D+00 -4.0948187932379D-01  1.3448488461489D+00
   113  1.1200000000000D+00 -4.2330564545347D-01  1.3325643035469D+00
   114  1.1300000000000D+00 -4.3594512441883D-01  1.3188464858200D+00
   115  1.1400000000000D+00 -4.4740438826517D-01  1.3037214300619D+00
   116  1.1500000000000D+00 -4.5769015971127D-01  1.2872188676776D+00
   117  1.1600000000000D+00 -4.6681176823697D-01  1.2693721669088D+00
   118  1.1700000000000D+00 -4.7478109910856D-01  1.2502182617343D+00
   119  1.1800000000000D+00 -4.8161253543489D-01  1.2297975671159D+00
   120  1.1900000000000D+00 -4.8732289336625D-01  1.2081538806103D+00
   121  1.2000000000000D+00 -4.9193135057109D-01  1.1853342704172D+00
   122  1.2100000000000D+00 -4.9545936814492D-01  1.1613889499865D+00
   123  1.2200000000000D+00 -4.9793060611681D-01  1.1363711393316D+00
   124  1.2300000000000D+00 -4.9937083274913D-01  1.1103369132723D+00
   125  1.2400000000000D+00 -4.9980782783928D-01  1.0833450368665D+00
   126  1.2500000000000D+00 -4.9927128024493D-01  1.0554567883231D+00
   127  1.2600000000000D+00 -4.9779267987740D-01  1.0267357697469D+00
   128  1.2700000000000D+00 -4.9540520442515D-01  9.9724770611901D-01
   129  1.2800000000000D+00 -4.9214360107612D-01  9.6706023293006D-01
   130  1.2900000000000D+00 -4.8804406352839D-01  9.3624267294543D-01
   131  1.3000000000000D+00 -4.8314410459520D-01  9.0486580262817D-01
   132  1.3100000000000D+00 -4.7748242471180D-01  8.7300160875137D-01
   133  1.3200000000000D+00 -4.7109877667206D-01  8.4072303579139D-01
   134  1.3300000000000D+00 -4.6403382693382D-01  8.0810372473297D-01
   135  1.3400000000000D+00 -4.5632901382969D-01  7.7521774390688D-01
   136  1.3500000000000D+00 -4.4802640304162D-01  7.4213931255390D-01
   137  1.3600000000000D+00 -4.3916854069690D-01  7.0894251781544D-01
   138  1.3700000000000D+00 -4.2979830444524D-01  6.7570102584864D-01
   139  1.3800000000000D+00 -4.1995875289065D-01  6.4248778783260D-01
   140  1.3900000000000D+00 -4.0969297374329D-01  6.0937474159982D-01
   141  1.4000000000000D+00 -3.9904393106700D-01  5.7643250966563D-01
   142  1.4100000000000D+00 -3.8805431198938D-01  5.4373009443372D-01
   143  1.4200000000000D+00 -3.7676637324958D-01  5.1133457135099D-01
   144  1.4300000000000D+00 -3.6522178794743D-01  4.7931078080402D-01
   145  1.4400000000000D+00 -3.5346149285479D-01  4.4772101952730D-01
   146  1.4500000000000D+00 -3.4152553665837D-01  4.1662473232194D-01
   147  1.4600000000000D+00 -3.2945292946123D-01  3.8607820482023D-01
   148  1.4700000000000D+00 -3.1728149391857D-01  3.5613425810453D-01
   149  1.4800000000000D+00 -3.0504771830754D-01  3.2684194587606D-01
   150  1.4900000000000D+00 -2.9278661187822D-01  2.9824625493828D-01
   151  1.5000000000000D+00 -2.8053156149846D-01  2.7038780462450D-01
   152  1.5100000000000D+00 -2.6831419885088D-01  2.4330258106071D-01
   153  1.5200000000000D+00 -2.5616424284666D-01  2.1702156852749D-01
   154  1.5300000000000D+00 -2.4410943427451D-01  1.9157072652051D-01
   155  1.5400000000000D+00 -2.3217529869949D-01  1.6697030619792D-01
   156  1.5500000000000D+00 -2.2038500275420D-01  1.4323449488182D-01
   157  1.5600000000000D+00 -2.0875971215213D-01  1.2037305899670D-01
   158  1.5700000000000D+00 -1.9731886129023D-01  9.8392552755264D-02
   159  1.5800000000000D+00 -1.8608057117164D-01  7.7297956692680D-02
   160  1.5900000000000D+00 -1.7506184654854D-01  5.7093441471656D-02
   161  1.6000000000000D+00 -1.6427843398378D-01  3.7781743130591D-02
   162  1.6100000000000D+00 -1.5374484261181D-01  1.9364190411697D-02
   163  1.6200000000000D+00 -1.4347436578782D-01  1.8407413936604D-03
   164  1.6300000000000D+00 -1.3347908413398D-01 -1.4790065042257D-02
   165  1.6400000000000D+00 -1.2376987935386D-01 -3.0531116353583D-02
   166  1.6500000000000D+00 -1.1435644754140D-01 -4.5386739137272D-02
   167  1.6600000000000D+00 -1.0524731562201D-01 -5.9362702571462D-02
   168  1.6700000000000D+00 -9.6449860213266D-02 -7.2466215346207D-02
   169  1.6800000000000D+00 -8.7970328757611D-02 -8.4705916447929D-02
   170  1.6900000000000D+00 -7.9813862949798D-02 -9.6091859646690D-02
   171  1.7000000000000D+00 -7.1984524287015D-02 -1.0663549212480D-01
   172  1.7100000000000D+00 -6.4485321751932D-02 -1.1634962713284D-01
   173  1.7200000000000D+00 -5.7318241442691D-02 -1.2524841115549D-01
   174  1.7300000000000D+00 -5.0484278140218D-02 -1.3334728553115D-01
   175  1.7400000000000D+00 -4.3983468622728D-02 -1.4066294302375D-01
   176  1.7500000000000D+00 -3.7814926694598D-02 -1.4721327935707D-01
   177  1.7600000000000D+00 -3.1976879734936D-02 -1.5301734023095D-01
   178  1.7700000000000D+00 -2.6466706709853D-02 -1.5809526389556D-01
   179  1.7800000000000D+00 -2.1280977528391D-02 -1.6246821956384D-01
   180  1.7900000000000D+00 -1.6415493521203D-02 -1.6615834227452D-01
   181  1.8000000000000D+00 -1.1865328792721D-02 -1.6918866492120D-01
   182  1.8100000000000D+00 -7.6248726928990D-03 -1.7158304650906D-01
   183  1.8200000000000D+00 -3.6878734359885D-03 -1.7336609643922D-01
   184  1.8300000000000D+00 -4.7482045485475D-05 -1.7456309742480D-01
   185  1.8400000000000D+00  3.3037039262159D-03 -1.7519992874418D-01
   186  1.8500000000000D+00  6.3735961677066D-03 -1.7530298730620D-01
   187  1.8600000000000D+00  9.1705701361656D-03 -1.7489910395457D-01
   188  1.8700000000000D+00  1.1703419528692D-02 -1.7401545889855D-01
   189  1.8800000000000D+00  1.3981311999366D-02 -1.7267950038631D-01
   190  1.8900000000000D+00  1.6013744787100D-02 -1.7091886220544D-01
   191  1.9000000000000D+00  1.7810500348775D-02 -1.6876128012475D-01
   192  1.9100000000000D+00  1.9381602491957D-02 -1.6623450890827D-01
   193  1.9200000000000D+00  2.0737273257503D-02 -1.6336624057863D-01
   194  1.9300000000000D+00  2.1887890589145D-02 -1.6018402398937D-01
   195  1.9400000000000D+00  2.2843946811466D-02 -1.5671518572624D-01
   196  1.9500000000000D+00  2.3616008160335D-02 -1.5298675297654D-01
   197  1.9600000000000D+00  2.4214675326061D-02 -1.4902537832126D-01
   198  1.9700000000000D+00  2.4650545338950D-02 -1.4485726726764D-01
   199  1.9800000000000D+00  2.4934174653531D-02 -1.4050810819661D-01
   200  1.9900000000000D+00  2.5076043729430D-02 -1.3600300548723D-01
   201  2.0000000000000D+00  2.5086523090925D-02 -1.3136641579388D-01
   202  2.0100000000000D+00  2.4975840931096D-02 -1.2662208766262D-01
   203  2.0200000000000D+00  2.4754052495869D-02 -1.2179300510175D-01
   204  2.0300000000000D+00  2.4431011026517D-02 -1.1690133455779D-01
   205  2.0400000000000D+00  2.4016340688399D-02 -1.1196837641203D-01
   206  2.0500000000000D+00  2.3519411201778D-02 -1.0701452027916D-01
   207  2.0600000000000D+00  2.2949314423107D-02 -1.0205920476715D-01
   208  2.0700000000000D+00  2.2314842923816D-02 -9.7120881835284D-02
   209  2.0800000000000D+00  2.1624470356384D-02 -9.2216985213087D-02
   210  2.0900000000000D+00  2.0886334051482D-02 -8.7363904060497D-02
   211  2.1000000000000D+00  2.0108219400671D-02 -8.2576960707344D-02
   212  2.1100000000000D+00  1.9297546365863D-02 -7.7870393388266D-02
   213  2.1200000000000D+00  1.8461358027619D-02 -7.3257343753101D-02
   214  2.1300000000000D+00  1.7606310957505D-02 -6.8749848592541D-02
   215  2.1400000000000D+00  1.6738667834710D-02 -6.4358836916360D-02
   216  2.1500000000000D+00  1.5864291791826D-02 -6.0094131016533D-02
   217  2.1600000000000D+00  1.4988642796535D-02 -5.5964452353106D-02
   218  2.1700000000000D+00  1.4116775985676D-02 -5.1977432052286D-02
   219  2.1800000000000D+00  1.3253341617589D-02 -4.8139625126288D-02
   220  2.1900000000000D+00  1.2402587104116D-02 -4.4456529681039D-02
   221  2.2000000000000D+00  1.1568360563967D-02 -4.0932609609732D-02
   222  2.2100000000000D+00  1.0754116078387D-02 -3.7571321279390D-02
   223  2.2200000000000D+00  9.9629206562034D-03 -3.4375144246501D-02
   224  2.2300000000000D+00  9.1974625150793D-03 -3.1345614940302D-02
   225  2.2400000000000D+00  8.4600609659817D-03 -2.8483364119670D-02
   226  2.2500000000000D+00  7.7526775863870D-03 -2.5788157255288D-02
   227  2.2600000000000D+00  7.0769285506550D-03 -2.3258937490175D-02
   228  2.2700000000000D+00  6.4340982790281D-03 -2.0893871647635D-02
   229  2.2800000000000D+00  5.8251540082905D-03 -1.8690398200617D-02
   230  2.2900000000000D+00  5.2507613422603D-03 -1.6645277386834D-02
   231  2.3000000000000D+00  4.7113006923851D-03 -1.4754643242638D-02
   232  2.3100000000000D+00  4.2068843797259D-03 -1.3014056927525D-02
   233  2.3200000000000D+00  3.7373744034391D-03 -1.1418561389911D-02
   234  2.3300000000000D+00  3.3024007079143D-03 -9.9627369185033D-03
   235  2.3400000000000D+00  2.9013798536397D-03 -8.6407573199903D-03
   236  2.3500000000000D+00  2.5335339491442D-03 -7.4464463807440D-03
   237  2.3600000000000D+00  2.1979097726365D-03 -6.3733343982602D-03
   238  2.3700000000000D+00  1.8933979902865D-03 -5.4147145471358D-03
   239  2.3800000000000D+00  1.6187522227491D-03 -4.5636984366834D-03
   240  2.3900000000000D+00  1.3726080567917D-03 -3.8132711031313D-03
   241  2.4000000000000D+00  1.1535017827795D-03 -3.1563448666768D-03
   242  2.4100000000000D+00  9.5988863535060D-04 -2.5858114673738D-03
   243  2.4200000000000D+00  7.9016075961380D-04 -2.0945930681696D-03
   244  2.4300000000000D+00  6.4266450875479D-04 -1.6756910846205D-03
   245  2.4400000000000D+00  5.1571697568837D-04 -1.3222325848623D-03
   246  2.4500000000000D+00  4.0762205897108D-04 -1.0275150644832D-03
   247  2.4600000000000D+00  3.1668547201021D-04 -7.8504802323846D-04
   248  2.4700000000000D+00  2.4122879214091D-04 -5.8859160572767D-04
   249  2.4800000000000D+00  1.7960288548605D-04 -4.3219321189015D-04
   250  2.4900000000000D+00  1.3019992765730D-04 -3.1021999137699D-04
   251  2.5000000000000D+00  9.1463405990679D-05 -2.1741207864201D-04
   252  2.5100000000000D+00  6.1901583236773D-05 -1.4882493614812D-04
   253  2.5200000000000D+00  4.0093170793556D-05 -9.9924640988301D-05
   254  2.5300000000000D+00  2.4671854776482D-05 -6.6434276102418D-05
   255  2.5400000000000D+00  1.4410185701322D-05 -4.5032023987133D-05
   256  2.5500000000000D+00  8.1574458261664D-06 -3.2744328983863D-05
   257  2.5600000000000D+00  4.9425300793956D-06 -2.7415044861816D-05
   258  2.5700000000000D+00  3.5815030111643D-06 -2.5356605022162D-05
   259  2.5800000000000D+00  3.0290161433176D-06 -2.3273261182407D-05
   260  2.5900000000000D+00  2.3267217822353D-06 -1.7932820147114D-05
   261  2.6000000000000D+00  1.3521611580990D-06 -1.0231125089583D-05
   262  2.6100000000000D+00  3.6073010197115D-07 -2.6558670729176D-06
   263  2.6200000000000D+00 -2.0114121747953D-07  1.6216717832546D-06
   264  2.6300000000000D+00 -2.8186886691010D-07  2.2649918804804D-06
   265  2.6400000000000D+00 -1.2734502076947D-07  1.0185995601341D-06
   266  2.6500000000000D+00  2.8966234219904D-08 -2.5427352330893D-07
   267  2.6600000000000D+00  5.7331796375575D-08 -5.0688523120711D-07
   268  2.6700000000000D+00  3.4740905242825D-08 -3.0901649613825D-07
   269  2.6800000000000D+00 -2.4300149268534D-09  1.8673588704515D-08
   270  2.6900000000000D+00 -7.9433589579739D-09  6.1041196280059D-08
   271  2.7000000000000D+00 -6.2752053964801D-09  4.8222174816827D-08
   272  2.7100000000000D+00  0.0000000000000D+00  0.0000000000000D+00
   273  2.7200000000000D+00  0.0000000000000D+00  0.0000000000000D+00
   274  2.7300000000000D+00  0.0000000000000D+00  0.0000000000000D+00
   275  2.7400000000000D+00  0.0000000000000D+00  0.0000000000000D+00
   276  2.7500000000000D+00  0.0000000000000D+00  0.0000000000000D+00
   277  2.7600000000000D+00  0.0000000000000D+00  0.0000000000000D+00
   278  2.7700000000000D+00  0.0000000000000D+00  0.0000000000000D+00
   279  2.7800000000000D+00  0.0000000000000D+00  0.0000000000000D+00
   280  2.7900000000000D+00  0.0000000000000D+00  0.0000000000000D+00
   281  2.8000000000000D+00  0.0000000000000D+00  0.0000000000000D+00
   282  2.8100000000000D+00  0.0000000000000D+00  0.0000000000000D+00
   283  2.8200000000000D+00  0.0000000000000D+00  0.0000000000000D+00
   284  2.8300000000000D+00  0.0000000000000D+00  0.0000000000000D+00
   285  2.8400000000000D+00  0.0000000000000D+00  0.0000000000000D+00
   286  2.8500000000000D+00  0.0000000000000D+00  0.0000000000000D+00
   287  2.8600000000000D+00  0.0000000000000D+00  0.0000000000000D+00
   288  2.8700000000000D+00  0.0000000000000D+00  0.0000000000000D+00
   289  2.8800000000000D+00  0.0000000000000D+00  0.0000000000000D+00
   290  2.8900000000000D+00  0.0000000000000D+00  0.0000000000000D+00
   291  2.9000000000000D+00  0.0000000000000D+00  0.0000000000000D+00
   292  2.9100000000000D+00  0.0000000000000D+00  0.0000000000000D+00
   293  2.9200000000000D+00  0.0000000000000D+00  0.0000000000000D+00
   294  2.9300000000000D+00  0.0000000000000D+00  0.0000000000000D+00
   295  2.9400000000000D+00  0.0000000000000D+00  0.0000000000000D+00
   296  2.9500000000000D+00  0.0000000000000D+00  0.0000000000000D+00
   297  2.9600000000000D+00  0.0000000000000D+00  0.0000000000000D+00
   298  2.9700000000000D+00  0.0000000000000D+00  0.0000000000000D+00
   299  2.9800000000000D+00  0.0000000000000D+00  0.0000000000000D+00
   300  2.9900000000000D+00  0.0000000000000D+00  0.0000000000000D+00
   301  3.0000000000000D+00  0.0000000000000D+00  0.0000000000000D+00
   302  3.0100000000000D+00  0.0000000000000D+00  0.0000000000000D+00
   303  3.0200000000000D+00  0.0000000000000D+00  0.0000000000000D+00
   304  3.0300000000000D+00  0.0000000000000D+00  0.0000000000000D+00
   305  3.0400000000000D+00  0.0000000000000D+00  0.0000000000000D+00
   306  3.0500000000000D+00  0.0000000000000D+00  0.0000000000000D+00
   307  3.0600000000000D+00  0.0000000000000D+00  0.0000000000000D+00
   308  3.0700000000000D+00  0.0000000000000D+00  0.0000000000000D+00
   309  3.0800000000000D+00  0.0000000000000D+00  0.0000000000000D+00
   310  3.0900000000000D+00  0.0000000000000D+00  0.0000000000000D+00
   311  3.1000000000000D+00  0.0000000000000D+00  0.0000000000000D+00
   312  3.1100000000000D+00  0.0000000000000D+00  0.0000000000000D+00
   313  3.1200000000000D+00  0.0000000000000D+00  0.0000000000000D+00
   314  3.1300000000000D+00  0.0000000000000D+00  0.0000000000000D+00
   315  3.1400000000000D+00  0.0000000000000D+00  0.0000000000000D+00
   316  3.1500000000000D+00  0.0000000000000D+00  0.0000000000000D+00
   317  3.1600000000000D+00  0.0000000000000D+00  0.0000000000000D+00
   318  3.1700000000000D+00  0.0000000000000D+00  0.0000000000000D+00
   319  3.1800000000000D+00  0.0000000000000D+00  0.0000000000000D+00
   320  3.1900000000000D+00  0.0000000000000D+00  0.0000000000000D+00
   321  3.2000000000000D+00  0.0000000000000D+00  0.0000000000000D+00
   322  3.2100000000000D+00  0.0000000000000D+00  0.0000000000000D+00
   323  3.2200000000000D+00  0.0000000000000D+00  0.0000000000000D+00
   324  3.2300000000000D+00  0.0000000000000D+00  0.0000000000000D+00
   325  3.2400000000000D+00  0.0000000000000D+00  0.0000000000000D+00
   326  3.2500000000000D+00  0.0000000000000D+00  0.0000000000000D+00
   327  3.2600000000000D+00  0.0000000000000D+00  0.0000000000000D+00
   328  3.2700000000000D+00  0.0000000000000D+00  0.0000000000000D+00
   329  3.2800000000000D+00  0.0000000000000D+00  0.0000000000000D+00
   330  3.2900000000000D+00  0.0000000000000D+00  0.0000000000000D+00
   331  3.3000000000000D+00  0.0000000000000D+00  0.0000000000000D+00
   332  3.3100000000000D+00  0.0000000000000D+00  0.0000000000000D+00
   333  3.3200000000000D+00  0.0000000000000D+00  0.0000000000000D+00
   334  3.3300000000000D+00  0.0000000000000D+00  0.0000000000000D+00
   335  3.3400000000000D+00  0.0000000000000D+00  0.0000000000000D+00
   336  3.3500000000000D+00  0.0000000000000D+00  0.0000000000000D+00
   337  3.3600000000000D+00  0.0000000000000D+00  0.0000000000000D+00
   338  3.3700000000000D+00  0.0000000000000D+00  0.0000000000000D+00
   339  3.3800000000000D+00  0.0000000000000D+00  0.0000000000000D+00
   340  3.3900000000000D+00  0.0000000000000D+00  0.0000000000000D+00
   341  3.4000000000000D+00  0.0000000000000D+00  0.0000000000000D+00
   342  3.4100000000000D+00  0.0000000000000D+00  0.0000000000000D+00
   343  3.4200000000000D+00  0.0000000000000D+00  0.0000000000000D+00
   344  3.4300000000000D+00  0.0000000000000D+00  0.0000000000000D+00
   345  3.4400000000000D+00  0.0000000000000D+00  0.0000000000000D+00
   346  3.4500000000000D+00  0.0000000000000D+00  0.0000000000000D+00
   347  3.4600000000000D+00  0.0000000000000D+00  0.0000000000000D+00
   348  3.4700000000000D+00  0.0000000000000D+00  0.0000000000000D+00
   349  3.4800000000000D+00  0.0000000000000D+00  0.0000000000000D+00
   350  3.4900000000000D+00  0.0000000000000D+00  0.0000000000000D+00
   351  3.5000000000000D+00  0.0000000000000D+00  0.0000000000000D+00
   352  3.5100000000000D+00  0.0000000000000D+00  0.0000000000000D+00
   353  3.5200000000000D+00  0.0000000000000D+00  0.0000000000000D+00
   354  3.5300000000000D+00  0.0000000000000D+00  0.0000000000000D+00
   355  3.5400000000000D+00  0.0000000000000D+00  0.0000000000000D+00
   356  3.5500000000000D+00  0.0000000000000D+00  0.0000000000000D+00
   357  3.5600000000000D+00  0.0000000000000D+00  0.0000000000000D+00
   358  3.5700000000000D+00  0.0000000000000D+00  0.0000000000000D+00
   359  3.5800000000000D+00  0.0000000000000D+00  0.0000000000000D+00
   360  3.5900000000000D+00  0.0000000000000D+00  0.0000000000000D+00
   361  3.6000000000000D+00  0.0000000000000D+00  0.0000000000000D+00
   362  3.6100000000000D+00  0.0000000000000D+00  0.0000000000000D+00
   363  3.6200000000000D+00  0.0000000000000D+00  0.0000000000000D+00
   364  3.6300000000000D+00  0.0000000000000D+00  0.0000000000000D+00
   365  3.6400000000000D+00  0.0000000000000D+00  0.0000000000000D+00
   366  3.6500000000000D+00  0.0000000000000D+00  0.0000000000000D+00
   367  3.6600000000000D+00  0.0000000000000D+00  0.0000000000000D+00
   368  3.6700000000000D+00  0.0000000000000D+00  0.0000000000000D+00
   369  3.6800000000000D+00  0.0000000000000D+00  0.0000000000000D+00
   370  3.6900000000000D+00  0.0000000000000D+00  0.0000000000000D+00
   371  3.7000000000000D+00  0.0000000000000D+00  0.0000000000000D+00
   372  3.7100000000000D+00  0.0000000000000D+00  0.0000000000000D+00
   373  3.7200000000000D+00  0.0000000000000D+00  0.0000000000000D+00
   374  3.7300000000000D+00  0.0000000000000D+00  0.0000000000000D+00
   375  3.7400000000000D+00  0.0000000000000D+00  0.0000000000000D+00
   376  3.7500000000000D+00  0.0000000000000D+00  0.0000000000000D+00
   377  3.7600000000000D+00  0.0000000000000D+00  0.0000000000000D+00
   378  3.7700000000000D+00  0.0000000000000D+00  0.0000000000000D+00
   379  3.7800000000000D+00  0.0000000000000D+00  0.0000000000000D+00
   380  3.7900000000000D+00  0.0000000000000D+00  0.0000000000000D+00
   381  3.8000000000000D+00  0.0000000000000D+00  0.0000000000000D+00
   382  3.8100000000000D+00  0.0000000000000D+00  0.0000000000000D+00
   383  3.8200000000000D+00  0.0000000000000D+00  0.0000000000000D+00
   384  3.8300000000000D+00  0.0000000000000D+00  0.0000000000000D+00
   385  3.8400000000000D+00  0.0000000000000D+00  0.0000000000000D+00
   386  3.8500000000000D+00  0.0000000000000D+00  0.0000000000000D+00
   387  3.8600000000000D+00  0.0000000000000D+00  0.0000000000000D+00
   388  3.8700000000000D+00  0.0000000000000D+00  0.0000000000000D+00
   389  3.8800000000000D+00  0.0000000000000D+00  0.0000000000000D+00
   390  3.8900000000000D+00  0.0000000000000D+00  0.0000000000000D+00
   391  3.9000000000000D+00  0.0000000000000D+00  0.0000000000000D+00
   392  3.9100000000000D+00  0.0000000000000D+00  0.0000000000000D+00
   393  3.9200000000000D+00  0.0000000000000D+00  0.0000000000000D+00
   394  3.9300000000000D+00  0.0000000000000D+00  0.0000000000000D+00
   395  3.9400000000000D+00  0.0000000000000D+00  0.0000000000000D+00
   396  3.9500000000000D+00  0.0000000000000D+00  0.0000000000000D+00
   397  3.9600000000000D+00  0.0000000000000D+00  0.0000000000000D+00
   398  3.9700000000000D+00  0.0000000000000D+00  0.0000000000000D+00
   399  3.9800000000000D+00  0.0000000000000D+00  0.0000000000000D+00
   400  3.9900000000000D+00  0.0000000000000D+00  0.0000000000000D+00
   401  4.0000000000000D+00  0.0000000000000D+00  0.0000000000000D+00
   402  4.0100000000000D+00  0.0000000000000D+00  0.0000000000000D+00
   403  4.0200000000000D+00  0.0000000000000D+00  0.0000000000000D+00
   404  4.0300000000000D+00  0.0000000000000D+00  0.0000000000000D+00
   405  4.0400000000000D+00  0.0000000000000D+00  0.0000000000000D+00
   406  4.0500000000000D+00  0.0000000000000D+00  0.0000000000000D+00
   407  4.0600000000000D+00  0.0000000000000D+00  0.0000000000000D+00
   408  4.0700000000000D+00  0.0000000000000D+00  0.0000000000000D+00
   409  4.0800000000000D+00  0.0000000000000D+00  0.0000000000000D+00
   410  4.0900000000000D+00  0.0000000000000D+00  0.0000000000000D+00
   411  4.1000000000000D+00  0.0000000000000D+00  0.0000000000000D+00
   412  4.1100000000000D+00  0.0000000000000D+00  0.0000000000000D+00
   413  4.1200000000000D+00  0.0000000000000D+00  0.0000000000000D+00
   414  4.1300000000000D+00  0.0000000000000D+00  0.0000000000000D+00
   415  4.1400000000000D+00  0.0000000000000D+00  0.0000000000000D+00
   416  4.1500000000000D+00  0.0000000000000D+00  0.0000000000000D+00
   417  4.1600000000000D+00  0.0000000000000D+00  0.0000000000000D+00
   418  4.1700000000000D+00  0.0000000000000D+00  0.0000000000000D+00
   419  4.1800000000000D+00  0.0000000000000D+00  0.0000000000000D+00
   420  4.1900000000000D+00  0.0000000000000D+00  0.0000000000000D+00
   421  4.2000000000000D+00  0.0000000000000D+00  0.0000000000000D+00
   422  4.2100000000000D+00  0.0000000000000D+00  0.0000000000000D+00