Sb    ONCVPSP-3.3.1  r_core=   2.48127   3.00305   3.59145
     51.0000     15.0000      210904    zatom,zion,pspd
     8      11   2     4   600     0    pspcod,pspxc,lmax,lloc,mmax,r2well
  5.99000000  0.00000000  0.00000000    rchrg fchrg qchrg
     2     4     3     0    nproj
     3     1           extension_switch
     4     4     0    nprojso
   0                         1.3312201597547D+00  6.2588465848165D+00
     1  0.0000000000000D+00 -2.4265617293295D-11  4.0902559117484D-12
     2  1.0000000000000D-02  2.6640041371898D-02  9.2412331055627D-03
     3  2.0000000000000D-02  5.3162159593725D-02  1.8515243327918D-02
     4  3.0000000000000D-02  7.9448906316638D-02  2.7854680725425D-02
     5  4.0000000000000D-02  1.0538378102494D-01  3.7291941624563D-02
     6  5.0000000000000D-02  1.3085170053546D-01  4.6859042715467D-02
     7  6.0000000000000D-02  1.5573946321344D-01  5.6587496298351D-02
     8  7.0000000000000D-02  1.7993620617202D-01  6.6508187059707D-02
     9  8.0000000000000D-02  2.0333385374687D-01  7.6651250753076D-02
    10  9.0000000000000D-02  2.2582755556753D-01  8.7045955154105D-02
    11  1.0000000000000D-01  2.4731611258309D-01  9.7720583653571D-02
    12  1.1000000000000D-01  2.6770238944147D-01  1.0870232184494D-01
    13  1.2000000000000D-01  2.8689371166923D-01  1.2001714745508D-01
    14  1.3000000000000D-01  3.0480224615127D-01  1.3168972395767D-01
    15  1.4000000000000D-01  3.2134536346823D-01  1.4374329819901D-01
    16  1.5000000000000D-01  3.3644598071291D-01  1.5619960235515D-01
    17  1.6000000000000D-01  3.5003288347478D-01  1.6907876052721D-01
    18  1.7000000000000D-01  3.6204102575544D-01  1.8239920026963D-01
    19  1.8000000000000D-01  3.7241180665503D-01  1.9617756933220D-01
    20  1.9000000000000D-01  3.8109332275184D-01  2.1042865788262D-01
    21  2.0000000000000D-01  3.8804059518335D-01  2.2516532646123D-01
    22  2.1000000000000D-01  3.9321577052670D-01  2.4039843990366D-01
    23  2.2000000000000D-01  3.9658829467031D-01  2.5613680745067D-01
    24  2.3000000000000D-01  3.9813505896452D-01  2.7238712924696D-01
    25  2.4000000000000D-01  3.9784051803928D-01  2.8915394941302D-01
    26  2.5000000000000D-01  3.9569677877861D-01  3.0643961585545D-01
    27  2.6000000000000D-01  3.9170366004649D-01  3.2424424696194D-01
    28  2.7000000000000D-01  3.8586872286492D-01  3.4256570530779D-01
    29  2.8000000000000D-01  3.7820727085331D-01  3.6139957848014D-01
    30  2.9000000000000D-01  3.6874232084732D-01  3.8073916710616D-01
    31  3.0000000000000D-01  3.5750454372565D-01  4.0057548014998D-01
    32  3.1000000000000D-01  3.4453217558389D-01  4.2089723752217D-01
    33  3.2000000000000D-01  3.2987089950531D-01  4.4169088002380D-01
    34  3.3000000000000D-01  3.1357369828883D-01  4.6294058662558D-01
    35  3.4000000000000D-01  2.9570067860436D-01  4.8462829906031D-01
    36  3.5000000000000D-01  2.7631886715443D-01  5.0673375368524D-01
    37  3.6000000000000D-01  2.5550197952799D-01  5.2923452054848D-01
    38  3.7000000000000D-01  2.3333016253812D-01  5.5210604957180D-01
    39  3.8000000000000D-01  2.0988971093785D-01  5.7532172374013D-01
    40  3.9000000000000D-01  1.8527275950926D-01  5.9885291916620D-01
    41  4.0000000000000D-01  1.5957695161791D-01  6.2266907187737D-01
    42  4.1000000000000D-01  1.3290508541883D-01  6.4673775115009D-01
    43  4.2000000000000D-01  1.0536473898999D-01  6.7102473919691D-01
    44  4.3000000000000D-01  7.7067875755273D-02  6.9549411699002D-01
    45  4.4000000000000D-01  4.8130431639914D-02  7.2010835598561D-01
    46  4.5000000000000D-01  1.8671885477722D-02  7.4482841549383D-01
    47  4.6000000000000D-01 -1.1185185739610D-02  7.6961384542001D-01
    48  4.7000000000000D-01 -4.1315565115522D-02  7.9442289408515D-01
    49  4.8000000000000D-01 -7.1591865888746D-02  8.1921262081592D-01
    50  4.9000000000000D-01 -1.0188501149241D-01  8.4393901297805D-01
    51  5.0000000000000D-01 -1.3206472381684D-01  8.6855710711122D-01
    52  5.1000000000000D-01 -1.6200001782102D-01  8.9302111380914D-01
    53  5.2000000000000D-01 -1.9155970060435D-01  9.1728454597422D-01
    54  5.3000000000000D-01 -2.2061287302462D-01  9.4130035006440D-01
    55  5.4000000000000D-01 -2.4902943192919D-01  9.6502103993734D-01
    56  5.5000000000000D-01 -2.7668057105552D-01  9.8839883288757D-01
    57  5.6000000000000D-01 -3.0343927865352D-01  1.0113857874626D+00
    58  5.7000000000000D-01 -3.2918082988609D-01  1.0339339426364D+00
    59  5.8000000000000D-01 -3.5378327207656D-01  1.0559954579115D+00
    60  5.9000000000000D-01 -3.7712790089088D-01  1.0775227539174D+00
    61  6.0000000000000D-01 -3.9909972557032D-01  1.0984686530663D+00
    62  6.1000000000000D-01 -4.1958792136498D-01  1.1187865198283D+00
    63  6.2000000000000D-01 -4.3848626736196D-01  1.1384304001830D+00
    64  6.3000000000000D-01 -4.5569356795185D-01  1.1573551598105D+00
    65  6.4000000000000D-01 -4.7111405623519D-01  1.1755166205792D+00
    66  6.5000000000000D-01 -4.8465777773580D-01  1.1928716948992D+00
    67  6.6000000000000D-01 -4.9624095285976D-01  1.2093785175088D+00
    68  6.7000000000000D-01 -5.0578631661782D-01  1.2249965742712D+00
    69  6.8000000000000D-01 -5.1322343421492D-01  1.2396868275645D+00
    70  6.9000000000000D-01 -5.1848899120137D-01  1.2534118378589D+00
    71  7.0000000000000D-01 -5.2152705697895D-01  1.2661358810850D+00
    72  7.1000000000000D-01 -5.2228932055770D-01  1.2778250614076D+00
    73  7.2000000000000D-01 -5.2073529756782D-01  1.2884474190363D+00
    74  7.3000000000000D-01 -5.1683250764426D-01  1.2979730327147D+00
    75  7.4000000000000D-01 -5.1055662141871D-01  1.3063741165512D+00
    76  7.5000000000000D-01 -5.0189157647551D-01  1.3136251108651D+00
    77  7.6000000000000D-01 -4.9082966175198D-01  1.3197027667479D+00
    78  7.7000000000000D-01 -4.7737156999142D-01  1.3245862240520D+00
    79  7.8000000000000D-01 -4.6152641798666D-01  1.3282570825459D+00
    80  7.9000000000000D-01 -4.4331173448325D-01  1.3306994659923D+00
    81  8.0000000000000D-01 -4.2275341574446D-01  1.3319000789299D+00
    82  8.1000000000000D-01 -3.9988564891260D-01  1.3318482559652D+00
    83  8.2000000000000D-01 -3.7475080343529D-01  1.3305360033999D+00
    84  8.3000000000000D-01 -3.4739929095731D-01  1.3279580330507D+00
    85  8.4000000000000D-01 -3.1788939421033D-01  1.3241117881386D+00
    86  8.5000000000000D-01 -2.8628706556242D-01  1.3189974611544D+00
    87  8.6000000000000D-01 -2.5266569601666D-01  1.3126180036317D+00
    88  8.7000000000000D-01 -2.1710585557250D-01  1.3049791277876D+00
    89  8.8000000000000D-01 -1.7969500598435D-01  1.2960893000150D+00
    90  8.9000000000000D-01 -1.4052718706871D-01  1.2859597262425D+00
    91  9.0000000000000D-01 -9.9702677823420D-02  1.2746043291994D+00
    92  9.1000000000000D-01 -5.7327633729321D-02  1.2620397176570D+00
    93  9.2000000000000D-01 -1.3513701706367D-02  1.2482851477374D+00
    94  9.3000000000000D-01  3.1622385709389D-02  1.2333624764144D+00
    95  9.4000000000000D-01  7.7959235312051D-02  1.2172961073512D+00
    96  9.5000000000000D-01  1.2537123555883D-01  1.2001129292516D+00
    97  9.6000000000000D-01  1.7372901447889D-01  1.1818422469209D+00
    98  9.7000000000000D-01  2.2289991128119D-01  1.1625157052615D+00
    99  9.8000000000000D-01  2.7274845972667D-01  1.1421672064497D+00
   100  9.9000000000000D-01  3.2313688128068D-01  1.1208328205632D+00
   101  1.0000000000000D+00  3.7392558602079D-01  1.0985506899533D+00
   102  1.0100000000000D+00  4.2497367924357D-01  1.0753609276722D+00
   103  1.0200000000000D+00  4.7613947169184D-01  1.0513055102890D+00
   104  1.0300000000000D+00  5.2728099130949D-01  1.0264281654463D+00
   105  1.0400000000000D+00  5.7825649442849D-01  1.0007742545250D+00
   106  1.0500000000000D+00  6.2892497429722D-01  9.7439065080126D-01
   107  1.0600000000000D+00  6.7914666487540D-01  9.4732561349575D-01
   108  1.0700000000000D+00  7.2878353784440D-01  9.1962865812583D-01
   109  1.0800000000000D+00  7.7769979081461D-01  8.9135042358464D-01
   110  1.0900000000000D+00  8.2576232475633D-01  8.6254253638055D-01
   111  1.1000000000000D+00  8.7284120872994D-01  8.3325747247858D-01
   112  1.1100000000000D+00  9.1881013005785D-01  8.0354841719248D-01
   113  1.1200000000000D+00  9.6354682813626D-01  7.7346912358078D-01
   114  1.1300000000000D+00  1.0069335101761D+00  7.4307376980437D-01
   115  1.1400000000000D+00  1.0488572472380D+00  7.1241681590440D-01
   116  1.1500000000000D+00  1.0892103490304D+00  6.8155286045907D-01
   117  1.1600000000000D+00  1.1278907160147D+00  6.5053649757726D-01
   118  1.1700000000000D+00  1.1648021674913D+00  6.1942217468325D-01
   119  1.1800000000000D+00  1.1998547444400D+00  5.8826405154187D-01
   120  1.1900000000000D+00  1.2329649860220D+00  5.5711586096563D-01
   121  1.2000000000000D+00  1.2640561787208D+00  5.2603077164176D-01
   122  1.2100000000000D+00  1.2930585772938D+00  4.9506125350229D-01
   123  1.2200000000000D+00  1.3199095968053D+00  4.6425894605049D-01
   124  1.2300000000000D+00  1.3445539751151D+00  4.3367453004817D-01
   125  1.2400000000000D+00  1.3669439053686D+00  4.0335760295138D-01
   126  1.2500000000000D+00  1.3870391381808D+00  3.7335655846410D-01
   127  1.2600000000000D+00  1.4048070532996D+00  3.4371847056884D-01
   128  1.2700000000000D+00  1.4202227006784D+00  3.1448898237562D-01
   129  1.2800000000000D+00  1.4332688110885D+00  2.8571220010222D-01
   130  1.2900000000000D+00  1.4439357764542D+00  2.5743059249039D-01
   131  1.3000000000000D+00  1.4522216002400D+00  2.2968489594254D-01
   132  1.3100000000000D+00  1.4581318184427D+00  2.0251402562476D-01
   133  1.3200000000000D+00  1.4616793917339D+00  1.7595499278276D-01
   134  1.3300000000000D+00  1.4628845694902D+00  1.5004282848583D-01
   135  1.3400000000000D+00  1.4617747266419D+00  1.2481051397182D-01
   136  1.3500000000000D+00  1.4583841741988D+00  1.0028891778221D-01
   137  1.3600000000000D+00  1.4527539446021D+00  7.6506739817419D-02
   138  1.3700000000000D+00  1.4449315531156D+00  5.3490462416761D-02
   139  1.3800000000000D+00  1.4349707364130D+00  3.1264308592399D-02
   140  1.3900000000000D+00  1.4229311698769D+00  9.8502074449134D-03
   141  1.4000000000000D+00  1.4088781649659D+00 -1.0732233171918D-02
   142  1.4100000000000D+00  1.3928823481836D+00 -3.0465746710672D-02
   143  1.4200000000000D+00  1.3750193233155D+00 -4.9335420756650D-02
   144  1.4300000000000D+00  1.3553693184615D+00 -6.7328702591168D-02
   145  1.4400000000000D+00  1.3340168196830D+00 -8.4435397598869D-02
   146  1.4500000000000D+00  1.3110501929212D+00 -1.0064766056114D-01
   147  1.4600000000000D+00  1.2865612959924D+00 -1.1595997992891D-01
   148  1.4700000000000D+00  1.2606450824420D+00 -1.3036915523068D-01
   149  1.4800000000000D+00  1.2333991990610D+00 -1.4387426768888D-01
   150  1.4900000000000D+00  1.2049235788637D+00 -1.5647664427758D-01
   151  1.5000000000000D+00  1.1753200313388D+00 -1.6817981533156D-01
   152  1.5100000000000D+00  1.1446918317533D+00 -1.7898946594754D-01
   153  1.5200000000000D+00  1.1131433112381D+00 -1.8891338136911D-01
   154  1.5300000000000D+00  1.0807794494745D+00 -1.9796138657560D-01
   155  1.5400000000000D+00  1.0477054714826D+00 -2.0614528034823D-01
   156  1.5500000000000D+00  1.0140264504388D+00 -2.1347876401693D-01
   157  1.5600000000000D+00  9.7984691768660D-01 -2.1997736522140D-01
   158  1.5700000000000D+00  9.4527048195890D-01 -2.2565835689251D-01
   159  1.5800000000000D+00  9.1039945869957D-01 -2.3054067181094D-01
   160  1.5900000000000D+00  8.7533451137195D-01 -2.3464481298176D-01
   161  1.6000000000000D+00  8.4017430555786D-01 -2.3799276017312D-01
   162  1.6100000000000D+00  8.0501517741494D-01 -2.4060787289603D-01
   163  1.6200000000000D+00  7.6995081728667D-01 -2.4251479016258D-01
   164  1.6300000000000D+00  7.3507196963429D-01 -2.4373932732349D-01
   165  1.6400000000000D+00  7.0046615009593D-01 -2.4430837031726D-01
   166  1.6500000000000D+00  6.6621738040687D-01 -2.4424976763968D-01
   167  1.6600000000000D+00  6.3240594198755D-01 -2.4359222036644D-01
   168  1.6700000000000D+00  5.9910814850219D-01 -2.4236517053147D-01
   169  1.6800000000000D+00  5.6639613815523D-01 -2.4059868819717D-01
   170  1.6900000000000D+00  5.3433768564213D-01 -2.3832335750250D-01
   171  1.7000000000000D+00  5.0299603441327D-01 -2.3557016202815D-01
   172  1.7100000000000D+00  4.7242974886304D-01 -2.3237036974248D-01
   173  1.7200000000000D+00  4.4269258690103D-01 -2.2875541786488D-01
   174  1.7300000000000D+00  4.1383339232609D-01 -2.2475679788921D-01
   175  1.7400000000000D+00  3.8589600714888D-01 -2.2040594108955D-01
   176  1.7500000000000D+00  3.5891920322589D-01 -2.1573410473828D-01
   177  1.7600000000000D+00  3.3293663292663D-01 -2.1077225932594D-01
   178  1.7700000000000D+00  3.0797679827588D-01 -2.0555097701676D-01
   179  1.7800000000000D+00  2.8406303777487D-01 -2.0010032157099D-01
   180  1.7900000000000D+00  2.6121353053357D-01 -1.9444973999596D-01
   181  1.8000000000000D+00  2.3944131537497D-01 -1.8862795580943D-01
   182  1.8100000000000D+00  2.1875432785368D-01 -1.8266286504173D-01
   183  1.8200000000000D+00  1.9915545800679D-01 -1.7658143619968D-01
   184  1.8300000000000D+00  1.8064256812717D-01 -1.7040959827225D-01
   185  1.8400000000000D+00  1.6320870517056D-01 -1.6417218203085D-01
   186  1.8500000000000D+00  1.4684206333512D-01 -1.5789278841825D-01
   187  1.8600000000000D+00  1.3152584063594D-01 -1.5159363924780D-01
   188  1.8700000000000D+00  1.1723889136705D-01 -1.4529563041656D-01
   189  1.8800000000000D+00  1.0395625296640D-01 -1.3901835005864D-01
   190  1.8900000000000D+00  9.1649719895329D-02 -1.3278013558238D-01
   191  1.9000000000000D+00  8.0288604256100D-02 -1.2659819117516D-01
   192  1.9100000000000D+00  6.9840290980497D-02 -1.2048865483256D-01
   193  1.9200000000000D+00  6.0270288365061D-02 -1.1446654279444D-01
   194  1.9300000000000D+00  5.1542394785740D-02 -1.0854573325720D-01
   195  1.9400000000000D+00  4.3619091477562D-02 -1.0273900313752D-01
   196  1.9500000000000D+00  3.6461746475055D-02 -9.7058025730516D-02
   197  1.9600000000000D+00  3.0030878882576D-02 -9.1513387226054D-02
   198  1.9700000000000D+00  2.4286405420257D-02 -8.6114603183673D-02
   199  1.9800000000000D+00  1.9187878763635D-02 -8.0870137707081D-02
   200  1.9900000000000D+00  1.4694718166068D-02 -7.5787425465216D-02
   201  2.0000000000000D+00  1.0766431810982D-02 -7.0872896239169D-02
   202  2.0100000000000D+00  7.3628271472613D-03 -6.6132001659728D-02
   203  2.0200000000000D+00  4.4442121716432D-03 -6.1569244162052D-02
   204  2.0300000000000D+00  1.9715829122805D-03 -5.7188207771887D-02
   205  2.0400000000000D+00 -9.3200484990214D-05 -5.2991590712550D-02
   206  2.0500000000000D+00 -1.7872509086236D-03 -4.8981239605053D-02
   207  2.0600000000000D+00 -3.1465062867867D-03 -4.5158185047149D-02
   208  2.0700000000000D+00 -4.2055933304204D-03 -4.1522678576938D-02
   209  2.0800000000000D+00 -4.9977084583473D-03 -3.8074230640456D-02
   210  2.0900000000000D+00 -5.5545110958591D-03 -3.4811649633918D-02
   211  2.1000000000000D+00 -5.9060326255977D-03 -3.1733081741085D-02
   212  2.1100000000000D+00 -6.0806008577328D-03 -2.8836051432433D-02
   213  2.1200000000000D+00 -6.1047770536192D-03 -2.6117502613739D-02
   214  2.1300000000000D+00 -6.0033105018184D-03 -2.3573840068843D-02
   215  2.1400000000000D+00 -5.7991051740275D-03 -2.1200971298783D-02
   216  2.1500000000000D+00 -5.5132014497997D-03 -1.8994348480968D-02
   217  2.1600000000000D+00 -5.1647724675634D-03 -1.6949010425276D-02
   218  2.1700000000000D+00 -4.7711315795070D-03 -1.5059624573592D-02
   219  2.1800000000000D+00 -4.3477553997756D-03 -1.3320528643877D-02
   220  2.1900000000000D+00 -3.9083172959001D-03 -1.1725772079606D-02
   221  2.2000000000000D+00 -3.4647327670287D-03 -1.0269157067198D-02
   222  2.2100000000000D+00 -3.0272169572310D-03 -8.9442789405511D-03
   223  2.2200000000000D+00 -2.6043506040071D-03 -7.7445661194678D-03
   224  2.2300000000000D+00 -2.2031568755725D-03 -6.6633191836261D-03
   225  2.2400000000000D+00 -1.8291863486859D-03 -5.6937491800889D-03
   226  2.2500000000000D+00 -1.4866089778805D-03 -4.8290151346324D-03
   227  2.2600000000000D+00 -1.1783140468814D-03 -4.0622603868449D-03
   228  2.2700000000000D+00 -9.0601507795143D-04 -3.3866480377020D-03
   229  2.2800000000000D+00 -6.7035981991092D-04 -2.7953952105883D-03
   230  2.2900000000000D+00 -4.7104429004513D-04 -2.2818060167845D-03
   231  2.3000000000000D+00 -3.0692964096491D-04 -1.8393034367795D-03
   232  2.3100000000000D+00 -1.7616079270021D-04 -1.4614597046351D-03
   233  2.3200000000000D+00 -7.6285900556651D-05 -1.1420253268445D-03
   234  2.3300000000000D+00 -4.3765606880071D-06 -8.7495682982482D-04
   235  2.3400000000000D+00  4.2854419395673D-05 -6.5444276089679D-04
   236  2.3500000000000D+00  6.8936249366445D-05 -4.7492832110477D-04
   237  2.3600000000000D+00  7.7525866734677D-05 -3.3113845373511D-04
   238  2.3700000000000D+00  7.2299266726208D-05 -2.1809915010569D-04
   239  2.3800000000000D+00  5.6845464487792D-05 -1.3115727757004D-04
   240  2.3900000000000D+00  3.4566496911178D-05 -6.5998687635082D-05
   241  2.4000000000000D+00  8.4304983011330D-06 -1.8584693095672D-05
   242  2.4100000000000D+00 -1.8616862344647D-05  1.4575423364912D-05
   243  2.4200000000000D+00 -4.4005291638858D-05  3.6553034600392D-05
   244  2.4300000000000D+00 -6.4874262079354D-05  4.9493667627775D-05
   245  2.4400000000000D+00 -8.2097887869077D-05  5.7057810706774D-05
   246  2.4500000000000D+00 -9.6856712230031D-05  6.2281707459741D-05
   247  2.4600000000000D+00 -1.1251633198384D-04  6.8846757525166D-05
   248  2.4700000000000D+00 -1.2057715616922D-04  7.2083514856860D-05
   249  2.4800000000000D+00 -1.1375967969088D-04  6.7499122475968D-05
   250  2.4900000000000D+00 -8.2139951159107D-05  4.8557833460003D-05
   251  2.5000000000000D+00 -4.0546620655765D-05  2.3931371958557D-05
   252  2.5100000000000D+00 -3.1687172836780D-06  1.8696533614053D-06
   253  2.5200000000000D+00  1.1064537988212D-05 -6.4921033731251D-06
   254  2.5300000000000D+00  9.9185715169600D-06 -5.8132230767743D-06
   255  2.5400000000000D+00  1.1503323459414D-06 -6.7362587988773D-07
   256  2.5500000000000D+00 -2.3277466081886D-06  1.3707788242214D-06
   257  2.5600000000000D+00 -2.4026677687927D-06  1.4144458619397D-06
   258  2.5700000000000D+00 -4.1399552372614D-07  2.4365303552503D-07
   259  2.5800000000000D+00  2.5454133056676D-07 -1.5099222923153D-07
   260  2.5900000000000D+00  2.9501058543127D-07 -1.7499832283419D-07
   261  2.6000000000000D+00  7.5936508321151D-08 -4.5045033142317D-08
   262  2.6100000000000D+00  0.0000000000000D+00  0.0000000000000D+00
   263  2.6200000000000D+00  0.0000000000000D+00  0.0000000000000D+00
   264  2.6300000000000D+00  0.0000000000000D+00  0.0000000000000D+00
   265  2.6400000000000D+00  0.0000000000000D+00  0.0000000000000D+00
   266  2.6500000000000D+00  0.0000000000000D+00  0.0000000000000D+00
   267  2.6600000000000D+00  0.0000000000000D+00  0.0000000000000D+00
   268  2.6700000000000D+00  0.0000000000000D+00  0.0000000000000D+00
   269  2.6800000000000D+00  0.0000000000000D+00  0.0000000000000D+00
   270  2.6900000000000D+00  0.0000000000000D+00  0.0000000000000D+00
   271  2.7000000000000D+00  0.0000000000000D+00  0.0000000000000D+00
   272  2.7100000000000D+00  0.0000000000000D+00  0.0000000000000D+00
   273  2.7200000000000D+00  0.0000000000000D+00  0.0000000000000D+00
   274  2.7300000000000D+00  0.0000000000000D+00  0.0000000000000D+00
   275  2.7400000000000D+00  0.0000000000000D+00  0.0000000000000D+00
   276  2.7500000000000D+00  0.0000000000000D+00  0.0000000000000D+00
   277  2.7600000000000D+00  0.0000000000000D+00  0.0000000000000D+00
   278  2.7700000000000D+00  0.0000000000000D+00  0.0000000000000D+00
   279  2.7800000000000D+00  0.0000000000000D+00  0.0000000000000D+00
   280  2.7900000000000D+00  0.0000000000000D+00  0.0000000000000D+00
   281  2.8000000000000D+00  0.0000000000000D+00  0.0000000000000D+00
   282  2.8100000000000D+00  0.0000000000000D+00  0.0000000000000D+00
   283  2.8200000000000D+00  0.0000000000000D+00  0.0000000000000D+00
   284  2.8300000000000D+00  0.0000000000000D+00  0.0000000000000D+00
   285  2.8400000000000D+00  0.0000000000000D+00  0.0000000000000D+00
   286  2.8500000000000D+00  0.0000000000000D+00  0.0000000000000D+00
   287  2.8600000000000D+00  0.0000000000000D+00  0.0000000000000D+00
   288  2.8700000000000D+00  0.0000000000000D+00  0.0000000000000D+00
   289  2.8800000000000D+00  0.0000000000000D+00  0.0000000000000D+00
   290  2.8900000000000D+00  0.0000000000000D+00  0.0000000000000D+00
   291  2.9000000000000D+00  0.0000000000000D+00  0.0000000000000D+00
   292  2.9100000000000D+00  0.0000000000000D+00  0.0000000000000D+00
   293  2.9200000000000D+00  0.0000000000000D+00  0.0000000000000D+00
   294  2.9300000000000D+00  0.0000000000000D+00  0.0000000000000D+00
   295  2.9400000000000D+00  0.0000000000000D+00  0.0000000000000D+00
   296  2.9500000000000D+00  0.0000000000000D+00  0.0000000000000D+00
   297  2.9600000000000D+00  0.0000000000000D+00  0.0000000000000D+00
   298  2.9700000000000D+00  0.0000000000000D+00  0.0000000000000D+00
   299  2.9800000000000D+00  0.0000000000000D+00  0.0000000000000D+00
   300  2.9900000000000D+00  0.0000000000000D+00  0.0000000000000D+00
   301  3.0000000000000D+00  0.0000000000000D+00  0.0000000000000D+00
   302  3.0100000000000D+00  0.0000000000000D+00  0.0000000000000D+00
   303  3.0200000000000D+00  0.0000000000000D+00  0.0000000000000D+00
   304  3.0300000000000D+00  0.0000000000000D+00  0.0000000000000D+00
   305  3.0400000000000D+00  0.0000000000000D+00  0.0000000000000D+00
   306  3.0500000000000D+00  0.0000000000000D+00  0.0000000000000D+00
   307  3.0600000000000D+00  0.0000000000000D+00  0.0000000000000D+00
   308  3.0700000000000D+00  0.0000000000000D+00  0.0000000000000D+00
   309  3.0800000000000D+00  0.0000000000000D+00  0.0000000000000D+00
   310  3.0900000000000D+00  0.0000000000000D+00  0.0000000000000D+00
   311  3.1000000000000D+00  0.0000000000000D+00  0.0000000000000D+00
   312  3.1100000000000D+00  0.0000000000000D+00  0.0000000000000D+00
   313  3.1200000000000D+00  0.0000000000000D+00  0.0000000000000D+00
   314  3.1300000000000D+00  0.0000000000000D+00  0.0000000000000D+00
   315  3.1400000000000D+00  0.0000000000000D+00  0.0000000000000D+00
   316  3.1500000000000D+00  0.0000000000000D+00  0.0000000000000D+00
   317  3.1600000000000D+00  0.0000000000000D+00  0.0000000000000D+00
   318  3.1700000000000D+00  0.0000000000000D+00  0.0000000000000D+00
   319  3.1800000000000D+00  0.0000000000000D+00  0.0000000000000D+00
   320  3.1900000000000D+00  0.0000000000000D+00  0.0000000000000D+00
   321  3.2000000000000D+00  0.0000000000000D+00  0.0000000000000D+00
   322  3.2100000000000D+00  0.0000000000000D+00  0.0000000000000D+00
   323  3.2200000000000D+00  0.0000000000000D+00  0.0000000000000D+00
   324  3.2300000000000D+00  0.0000000000000D+00  0.0000000000000D+00
   325  3.2400000000000D+00  0.0000000000000D+00  0.0000000000000D+00
   326  3.2500000000000D+00  0.0000000000000D+00  0.0000000000000D+00
   327  3.2600000000000D+00  0.0000000000000D+00  0.0000000000000D+00
   328  3.2700000000000D+00  0.0000000000000D+00  0.0000000000000D+00
   329  3.2800000000000D+00  0.0000000000000D+00  0.0000000000000D+00
   330  3.2900000000000D+00  0.0000000000000D+00  0.0000000000000D+00
   331  3.3000000000000D+00  0.0000000000000D+00  0.0000000000000D+00
   332  3.3100000000000D+00  0.0000000000000D+00  0.0000000000000D+00
   333  3.3200000000000D+00  0.0000000000000D+00  0.0000000000000D+00
   334  3.3300000000000D+00  0.0000000000000D+00  0.0000000000000D+00
   335  3.3400000000000D+00  0.0000000000000D+00  0.0000000000000D+00
   336  3.3500000000000D+00  0.0000000000000D+00  0.0000000000000D+00
   337  3.3600000000000D+00  0.0000000000000D+00  0.0000000000000D+00
   338  3.3700000000000D+00  0.0000000000000D+00  0.0000000000000D+00
   339  3.3800000000000D+00  0.0000000000000D+00  0.0000000000000D+00
   340  3.3900000000000D+00  0.0000000000000D+00  0.0000000000000D+00
   341  3.4000000000000D+00  0.0000000000000D+00  0.0000000000000D+00
   342  3.4100000000000D+00  0.0000000000000D+00  0.0000000000000D+00
   343  3.4200000000000D+00  0.0000000000000D+00  0.0000000000000D+00
   344  3.4300000000000D+00  0.0000000000000D+00  0.0000000000000D+00
   345  3.4400000000000D+00  0.0000000000000D+00  0.0000000000000D+00
   346  3.4500000000000D+00  0.0000000000000D+00  0.0000000000000D+00
   347  3.4600000000000D+00  0.0000000000000D+00  0.0000000000000D+00
   348  3.4700000000000D+00  0.0000000000000D+00  0.0000000000000D+00
   349  3.4800000000000D+00  0.0000000000000D+00  0.0000000000000D+00
   350  3.4900000000000D+00  0.0000000000000D+00  0.0000000000000D+00
   351  3.5000000000000D+00  0.0000000000000D+00  0.0000000000000D+00
   352  3.5100000000000D+00  0.0000000000000D+00  0.0000000000000D+00
   353  3.5200000000000D+00  0.0000000000000D+00  0.0000000000000D+00
   354  3.5300000000000D+00  0.0000000000000D+00  0.0000000000000D+00
   355  3.5400000000000D+00  0.0000000000000D+00  0.0000000000000D+00
   356  3.5500000000000D+00  0.0000000000000D+00  0.0000000000000D+00
   357  3.5600000000000D+00  0.0000000000000D+00  0.0000000000000D+00
   358  3.5700000000000D+00  0.0000000000000D+00  0.0000000000000D+00
   359  3.5800000000000D+00  0.0000000000000D+00  0.0000000000000D+00
   360  3.5900000000000D+00  0.0000000000000D+00  0.0000000000000D+00
   361  3.6000000000000D+00  0.0000000000000D+00  0.0000000000000D+00
   362  3.6100000000000D+00  0.0000000000000D+00  0.0000000000000D+00
   363  3.6200000000000D+00  0.0000000000000D+00  0.0000000000000D+00
   364  3.6300000000000D+00  0.0000000000000D+00  0.0000000000000D+00
   365  3.6400000000000D+00  0.0000000000000D+00  0.0000000000000D+00
   366  3.6500000000000D+00  0.0000000000000D+00  0.0000000000000D+00
   367  3.6600000000000D+00  0.0000000000000D+00  0.0000000000000D+00
   368  3.6700000000000D+00  0.0000000000000D+00  0.0000000000000D+00
   369  3.6800000000000D+00  0.0000000000000D+00  0.0000000000000D+00
   370  3.6900000000000D+00  0.0000000000000D+00  0.0000000000000D+00
   371  3.7000000000000D+00  0.0000000000000D+00  0.0000000000000D+00
   372  3.7100000000000D+00  0.0000000000000D+00  0.0000000000000D+00
   373  3.7200000000000D+00  0.0000000000000D+00  0.0000000000000D+00
   374  3.7300000000000D+00  0.0000000000000D+00  0.0000000000000D+00
   375  3.7400000000000D+00  0.0000000000000D+00  0.0000000000000D+00
   376  3.7500000000000D+00  0.0000000000000D+00  0.0000000000000D+00
   377  3.7600000000000D+00  0.0000000000000D+00  0.0000000000000D+00
   378  3.7700000000000D+00  0.0000000000000D+00  0.0000000000000D+00
   379  3.7800000000000D+00  0.0000000000000D+00  0.0000000000000D+00
   380  3.7900000000000D+00  0.0000000000000D+00  0.0000000000000D+00
   381  3.8000000000000D+00  0.0000000000000D+00  0.0000000000000D+00
   382  3.8100000000000D+00  0.0000000000000D+00  0.0000000000000D+00
   383  3.8200000000000D+00  0.0000000000000D+00  0.0000000000000D+00
   384  3.8300000000000D+00  0.0000000000000D+00  0.0000000000000D+00
   385  3.8400000000000D+00  0.0000000000000D+00  0.0000000000000D+00
   386  3.8500000000000D+00  0.0000000000000D+00  0.0000000000000D+00
   387  3.8600000000000D+00  0.0000000000000D+00  0.0000000000000D+00
   388  3.8700000000000D+00  0.0000000000000D+00  0.0000000000000D+00
   389  3.8800000000000D+00  0.0000000000000D+00  0.0000000000000D+00
   390  3.8900000000000D+00  0.0000000000000D+00  0.0000000000000D+00
   391  3.9000000000000D+00  0.0000000000000D+00  0.0000000000000D+00
   392  3.9100000000000D+00  0.0000000000000D+00  0.0000000000000D+00
   393  3.9200000000000D+00  0.0000000000000D+00  0.0000000000000D+00
   394  3.9300000000000D+00  0.0000000000000D+00  0.0000000000000D+00
   395  3.9400000000000D+00  0.0000000000000D+00  0.0000000000000D+00
   396  3.9500000000000D+00  0.0000000000000D+00  0.0000000000000D+00
   397  3.9600000000000D+00  0.0000000000000D+00  0.0000000000000D+00
   398  3.9700000000000D+00  0.0000000000000D+00  0.0000000000000D+00
   399  3.9800000000000D+00  0.0000000000000D+00  0.0000000000000D+00
   400  3.9900000000000D+00  0.0000000000000D+00  0.0000000000000D+00
   401  4.0000000000000D+00  0.0000000000000D+00  0.0000000000000D+00
   402  4.0100000000000D+00  0.0000000000000D+00  0.0000000000000D+00
   403  4.0200000000000D+00  0.0000000000000D+00  0.0000000000000D+00
   404  4.0300000000000D+00  0.0000000000000D+00  0.0000000000000D+00
   405  4.0400000000000D+00  0.0000000000000D+00  0.0000000000000D+00
   406  4.0500000000000D+00  0.0000000000000D+00  0.0000000000000D+00
   407  4.0600000000000D+00  0.0000000000000D+00  0.0000000000000D+00
   408  4.0700000000000D+00  0.0000000000000D+00  0.0000000000000D+00
   409  4.0800000000000D+00  0.0000000000000D+00  0.0000000000000D+00
   410  4.0900000000000D+00  0.0000000000000D+00  0.0000000000000D+00
   411  4.1000000000000D+00  0.0000000000000D+00  0.0000000000000D+00
   412  4.1100000000000D+00  0.0000000000000D+00  0.0000000000000D+00
   413  4.1200000000000D+00  0.0000000000000D+00  0.0000000000000D+00
   414  4.1300000000000D+00  0.0000000000000D+00  0.0000000000000D+00
   415  4.1400000000000D+00  0.0000000000000D+00  0.0000000000000D+00
   416  4.1500000000000D+00  0.0000000000000D+00  0.0000000000000D+00
   417  4.1600000000000D+00  0.0000000000000D+00  0.0000000000000D+00
   418  4.1700000000000D+00  0.0000000000000D+00  0.0000000000000D+00
   419  4.1800000000000D+00  0.0000000000000D+00  0.0000000000000D+00
   420  4.1900000000000D+00  0.0000000000000D+00  0.0000000000000D+00
   421  4.2000000000000D+00  0.0000000000000D+00  0.0000000000000D+00
   422  4.2100000000000D+00  0.0000000000000D+00  0.0000000000000D+00