Sb    ONCVPSP-3.3.1  r_core=   2.48127   3.00305   3.59145
     51.0000     15.0000      210904    zatom,zion,pspd
     8      11   2     4   600     0    pspcod,pspxc,lmax,lloc,mmax,r2well
  5.99000000  0.00000000  0.00000000    rchrg fchrg qchrg
     2     2     2     0     0    nproj
     1     1           extension_switch
   0                         6.2620501321813D+00  1.3338487707262D+00
     1  0.0000000000000D+00  4.1153885854683D-12 -2.4278662413835D-11
     2  1.0000000000000D-02  9.2191636164396D-03  2.6690149402437D-02
     3  2.0000000000000D-02  1.8471247481379D-02  5.3262245347132D-02
     4  3.0000000000000D-02  2.7789044138731D-02  7.9598709738709D-02
     5  4.0000000000000D-02  3.7205091110754D-02  1.0558291343484D-01
     6  5.0000000000000D-02  4.6751544355018D-02  1.3109964629970D-01
     7  6.0000000000000D-02  5.6460052879813D-02  1.5603558196680D-01
     8  7.0000000000000D-02  6.6361634899381D-02  1.8027973557611D-01
     9  8.0000000000000D-02  7.6486555906178D-02  2.0372391277469D-01
    10  9.0000000000000D-02  8.6864209032331D-02  2.2626314830003D-01
    11  1.0000000000000D-01  9.7522998066250D-02  2.4779613250178D-01
    12  1.1000000000000D-01  1.0849022348333D-01  2.6822562419887D-01
    13  1.2000000000000D-01  1.1979197184149D-01  2.8745884831678D-01
    14  1.3000000000000D-01  1.3145300888334D-01  3.0540787680264D-01
    15  1.4000000000000D-01  1.4349667667664D-01  3.2198999137383D-01
    16  1.5000000000000D-01  1.5594479511393D-01  3.3712802671955D-01
    17  1.6000000000000D-01  1.6881756808026D-01  3.5075069284308D-01
    18  1.7000000000000D-01  1.8213349458521D-01  3.6279287530549D-01
    19  1.8000000000000D-01  1.9590928514195D-01  3.7319591220972D-01
    20  1.9000000000000D-01  2.1015978366150D-01  3.8190784684566D-01
    21  2.0000000000000D-01  2.2489789511528D-01  3.8888365500335D-01
    22  2.1000000000000D-01  2.4013451920298D-01  3.9408544605110D-01
    23  2.2000000000000D-01  2.5587849024600D-01  3.9748263696923D-01
    24  2.3000000000000D-01  2.7213652350956D-01  3.9905209862664D-01
    25  2.4000000000000D-01  2.8891316813802D-01  3.9877827368726D-01
    26  2.5000000000000D-01  3.0621076686989D-01  3.9665326563579D-01
    27  2.6000000000000D-01  3.2402942267896D-01  3.9267689851688D-01
    28  2.7000000000000D-01  3.4236697246903D-01  3.8685674708816D-01
    29  2.8000000000000D-01  3.6121896792860D-01  3.7920813719637D-01
    30  2.9000000000000D-01  3.8057866363177D-01  3.6975411629463D-01
    31  3.0000000000000D-01  4.0043701245011D-01  3.5852539412963D-01
    32  3.1000000000000D-01  4.2078266831907D-01  3.4556025373818D-01
    33  3.2000000000000D-01  4.4160199638044D-01  3.3090443300366D-01
    34  3.3000000000000D-01  4.6287909050095D-01  3.1461097713315D-01
    35  3.4000000000000D-01  4.8459579814434D-01  2.9674006252646D-01
    36  3.5000000000000D-01  5.0673175255272D-01  2.7735879261683D-01
    37  3.6000000000000D-01  5.2926441217024D-01  2.5654096637053D-01
    38  3.7000000000000D-01  5.5216910722019D-01  2.3436682023823D-01
    39  3.8000000000000D-01  5.7541909332453D-01  2.1092274445398D-01
    40  3.9000000000000D-01  5.9898561203278D-01  1.8630097467850D-01
    41  4.0000000000000D-01  6.2283795810551D-01  1.6059926008058D-01
    42  4.1000000000000D-01  6.4694355337639D-01  1.3392050904471D-01
    43  4.2000000000000D-01  6.7126802699536D-01  1.0637241378293D-01
    44  4.3000000000000D-01  6.9577530183533D-01  7.8067055214921D-02
    45  4.4000000000000D-01  7.2042768682413D-01  4.9120489561730D-02
    46  4.5000000000000D-01  7.4518597494436D-01  1.9652318174552D-02
    47  4.6000000000000D-01  7.7000954662451D-01 -1.0214757808428D-02
    48  4.7000000000000D-01  7.9485647822663D-01 -4.0355396319219D-02
    49  4.8000000000000D-01  8.1968365531847D-01 -7.0642085013385D-02
    50  4.9000000000000D-01  8.4444689040112D-01 -1.0094562194863D-01
    51  5.0000000000000D-01  8.6910104474773D-01 -1.3113560447083D-01
    52  5.1000000000000D-01  8.9360015399394D-01 -1.6108092444945D-01
    53  5.2000000000000D-01  9.1789755710700D-01 -1.9065026797147D-01
    54  5.3000000000000D-01  9.4194602834782D-01 -2.1971261757664D-01
    55  5.4000000000000D-01  9.6569791182874D-01 -2.4813775509846D-01
    56  5.5000000000000D-01  9.8910525825933D-01 -2.7579676316400D-01
    57  5.6000000000000D-01  1.0121199634635D+00 -3.0256252340237D-01
    58  5.7000000000000D-01  1.0346939082435D+00 -3.2831020941542D-01
    59  5.8000000000000D-01  1.0567790991591D+00 -3.5291777257645D-01
    60  5.9000000000000D-01  1.0783278097865D+00 -3.7626641874241D-01
    61  6.0000000000000D-01  1.0992927220162D+00 -3.9824107399234D-01
    62  6.1000000000000D-01  1.1196270669477D+00 -4.1873083754029D-01
    63  6.2000000000000D-01  1.1392847649374D+00 -4.3762942001367D-01
    64  6.3000000000000D-01  1.1582205643565D+00 -4.5483556533854D-01
    65  6.4000000000000D-01  1.1763901786196D+00 -4.7025345453136D-01
    66  6.5000000000000D-01  1.1937504210441D+00 -4.8379308976185D-01
    67  6.6000000000000D-01  1.2102593371097D+00 -4.9537065712378D-01
    68  6.7000000000000D-01  1.2258763336921D+00 -5.0490886662983D-01
    69  6.8000000000000D-01  1.2405623048508D+00 -5.1233726803232D-01
    70  6.9000000000000D-01  1.2542797537654D+00 -5.1759254116304D-01
    71  7.0000000000000D-01  1.2669929104189D+00 -5.2061875958418D-01
    72  7.1000000000000D-01  1.2786678446458D+00 -5.2136762644475D-01
    73  7.2000000000000D-01  1.2892725741696D+00 -5.1979868154641D-01
    74  7.3000000000000D-01  1.2987771672754D+00 -5.1587947873516D-01
    75  7.4000000000000D-01  1.3071538397748D+00 -5.0958573285343D-01
    76  7.5000000000000D-01  1.3143770459405D+00 -5.0090143560849D-01
    77  7.6000000000000D-01  1.3204235631058D+00 -4.8981893983794D-01
    78  7.7000000000000D-01  1.3252725696443D+00 -4.7633901178035D-01
    79  7.8000000000000D-01  1.3289057160662D+00 -4.6047085108955D-01
    80  7.9000000000000D-01  1.3313071889881D+00 -4.4223207846206D-01
    81  8.0000000000000D-01  1.3324637677594D+00 -4.2164869088078D-01
    82  8.1000000000000D-01  1.3323648735479D+00 -3.9875498461038D-01
    83  8.2000000000000D-01  1.3310026107158D+00 -3.7359344621435D-01
    84  8.3000000000000D-01  1.3283718003387D+00 -3.4621461199579D-01
    85  8.4000000000000D-01  1.3244700057500D+00 -3.1667689639581D-01
    86  8.5000000000000D-01  1.3192975500160D+00 -2.8504639001356D-01
    87  8.6000000000000D-01  1.3128575252760D+00 -2.5139662803906D-01
    88  8.7000000000000D-01  1.3051557939067D+00 -2.1580833001489D-01
    89  8.8000000000000D-01  1.2962009815009D+00 -1.7836911196357D-01
    90  8.9000000000000D-01  1.2860044616739D+00 -1.3917317203483D-01
    91  9.0000000000000D-01  1.2745803327409D+00 -9.8320950938690D-02
    92  9.1000000000000D-01  1.2619453863359D+00 -5.5918768538112D-02
    93  9.2000000000000D-01  1.2481190680692D+00 -1.2078438075934D-02
    94  9.3000000000000D-01  1.2331234303463D+00  3.3083140394084D-02
    95  9.4000000000000D-01  1.2169830775008D+00  7.9444405712957D-02
    96  9.5000000000000D-01  1.1997251034162D+00  1.2687957871891D-01
    97  9.6000000000000D-01  1.1813790218391D+00  1.7525912093229D-01
    98  9.7000000000000D-01  1.1619766896099D+00  2.2445020694262D-01
    99  9.8000000000000D-01  1.1415522230615D+00  2.7431720855926D-01
   100  9.9000000000000D-01  1.1201419078594D+00  3.2472218873822D-01
   101  1.0000000000000D+00  1.0977841025783D+00  3.7552540325649D-01
   102  1.0100000000000D+00  1.0745191363315D+00  4.2658580807389D-01
   103  1.0200000000000D+00  1.0503892007883D+00  4.7776157030016D-01
   104  1.0300000000000D+00  1.0254382369356D+00  5.2891058067123D-01
   105  1.0400000000000D+00  9.9971181695393D-01  5.7989096543523D-01
   106  1.0500000000000D+00  9.7325702159565D-01  6.3056159555442D-01
   107  1.0600000000000D+00  9.4612231346878D-01  6.8078259114463D-01
   108  1.0700000000000D+00  9.1835740664009D-01  7.3041581909812D-01
   109  1.0800000000000D+00  8.9001313298468D-01  7.7932538186797D-01
   110  1.0900000000000D+00  8.6114130571863D-01  8.2737809543804D-01
   111  1.1000000000000D+00  8.3179458055926D-01  8.7444395455106D-01
   112  1.1100000000000D+00  8.0202631496459D-01  9.2039658333494D-01
   113  1.1200000000000D+00  7.7189042590809D-01  9.6511366952290D-01
   114  1.1300000000000D+00  7.4144124664879D-01  1.0084773805544D+00
   115  1.1400000000000D+00  7.1073338295803D-01  1.0503747599202D+00
   116  1.1500000000000D+00  6.7982156926385D-01  1.0906981022180D+00
   117  1.1600000000000D+00  6.4876052517282D-01  1.1293453054621D+00
   118  1.1700000000000D+00  6.1760481282577D-01  1.1662201993187D+00
   119  1.1800000000000D+00  5.8640869553826D-01  1.2012328480404D+00
   120  1.1900000000000D+00  5.5522599816916D-01  1.2342998270043D+00
   121  1.2000000000000D+00  5.2410996965620D-01  1.2653444718338D+00
   122  1.2100000000000D+00  4.9311314814320D-01  1.2942970992719D+00
   123  1.2200000000000D+00  4.6228722911276D-01  1.3210951990802D+00
   124  1.2300000000000D+00  4.3168293692997D-01  1.3456835963347D+00
   125  1.2400000000000D+00  4.0134990018473D-01  1.3680145836689D+00
   126  1.2500000000000D+00  3.7133653120287D-01  1.3880480231538D+00
   127  1.2600000000000D+00  3.4168991008462D-01  1.4057514176030D+00
   128  1.2700000000000D+00  3.1245567361189D-01  1.4210999512345D+00
   129  1.2800000000000D+00  2.8367790933673D-01  1.4340764998216D+00
   130  1.2900000000000D+00  2.5539905515478D-01  1.4446716105161D+00
   131  1.3000000000000D+00  2.2765980464759D-01  1.4528834516768D+00
   132  1.3100000000000D+00  2.0049901843829D-01  1.4587177332588D+00
   133  1.3200000000000D+00  1.7395364180590D-01  1.4621875983103D+00
   134  1.3300000000000D+00  1.4805862877196D-01  1.4633134863181D+00
   135  1.3400000000000D+00  1.2284687283042D-01  1.4621229693358D+00
   136  1.3500000000000D+00  9.8349144508333D-02  1.4586505617559D+00
   137  1.3600000000000D+00  7.4594035885052D-02  1.4529375048776D+00
   138  1.3700000000000D+00  5.1607912172099D-02  1.4450315274896D+00
   139  1.3800000000000D+00  2.9414870480869D-02  1.4349865836246D+00
   140  1.3900000000000D+00  8.0367058028930D-03  1.4228625690089D+00
   141  1.4000000000000D+00 -1.2507115732227D-02  1.4087250175639D+00
   142  1.4100000000000D+00 -3.2199476297629D-02  1.3926447794997D+00
   143  1.4200000000000D+00 -5.1025618554249D-02  1.3746976826694D+00
   144  1.4300000000000D+00 -6.8973150553016D-02  1.3549641787168D+00
   145  1.4400000000000D+00 -8.6032043464563D-02  1.3335289758397D+00
   146  1.4500000000000D+00 -1.0219462218152D-01  1.3104806598302D+00
   147  1.4600000000000D+00 -1.1745554888986D-01  1.2859113052019D+00
   148  1.4700000000000D+00 -1.3181179976839D-01  1.2599160781880D+00
   149  1.4800000000000D+00 -1.4526263489247D-01  1.2325928334212D+00
   150  1.4900000000000D+00 -1.5780956157841D-01  1.2040417060950D+00
   151  1.5000000000000D+00 -1.6945629128157D-01  1.1743647014234D+00
   152  1.5100000000000D+00 -1.8020869029192D-01  1.1436652831823D+00
   153  1.5200000000000D+00 -1.9007472442190D-01  1.1120479630654D+00
   154  1.5300000000000D+00 -1.9906439790971D-01  1.0796178926753D+00
   155  1.5400000000000D+00 -2.0718968681399D-01  1.0464804596554D+00
   156  1.5500000000000D+00 -2.1446446710656D-01  1.0127408898929D+00
   157  1.5600000000000D+00 -2.2090443779880D-01  9.7850385695885D-01
   158  1.5700000000000D+00 -2.2652703931115D-01  9.4387310080642D-01
   159  1.5800000000000D+00 -2.3135136744394D-01  9.0895105661755D-01
   160  1.5900000000000D+00 -2.3539808319163D-01  8.7383849568769D-01
   161  1.6000000000000D+00 -2.3868931874976D-01  8.3863417915335D-01
   162  1.6100000000000D+00 -2.4124857999416D-01  8.0343452613284D-01
   163  1.6200000000000D+00 -2.4310064577109D-01  7.6833329707474D-01
   164  1.6300000000000D+00 -2.4427146430097D-01  7.3342129348505D-01
   165  1.6400000000000D+00 -2.4478804702924D-01  6.9878607483856D-01
   166  1.6500000000000D+00 -2.4467836023414D-01  6.6451169340894D-01
   167  1.6600000000000D+00 -2.4397121472553D-01  6.3067844782441D-01
   168  1.6700000000000D+00 -2.4269615393741D-01  5.9736265565118D-01
   169  1.6800000000000D+00 -2.4088334075171D-01  5.6463644577234D-01
   170  1.6900000000000D+00 -2.3856344333879D-01  5.3256757047684D-01
   171  1.7000000000000D+00 -2.3576752035483D-01  5.0121923791764D-01
   172  1.7100000000000D+00 -2.3252690575884D-01  4.7064996454846D-01
   173  1.7200000000000D+00 -2.2887309358670D-01  4.4091344799595D-01
   174  1.7300000000000D+00 -2.2483762292331D-01  4.1205845978512D-01
   175  1.7400000000000D+00 -2.2045196339545D-01  3.8412875806245D-01
   176  1.7500000000000D+00 -2.1574740141367D-01  3.5716301967706D-01
   177  1.7600000000000D+00 -2.1075492745226D-01  3.3119479133939D-01
   178  1.7700000000000D+00 -2.0550512459966D-01  3.0625245929670D-01
   179  1.7800000000000D+00 -2.0002805860907D-01  2.8235923672617D-01
   180  1.7900000000000D+00 -1.9435316971014D-01  2.5953316847556D-01
   181  1.8000000000000D+00 -1.8850916606166D-01  2.3778715080729D-01
   182  1.8100000000000D+00 -1.8252391997458D-01  2.1712896908897D-01
   183  1.8200000000000D+00 -1.7642436812958D-01  1.9756135624808D-01
   184  1.8300000000000D+00 -1.7023639980901D-01  1.7908201123644D-01
   185  1.8400000000000D+00 -1.6398479861759D-01  1.6168381223731D-01
   186  1.8500000000000D+00 -1.5769311106526D-01  1.4535477994231D-01
   187  1.8600000000000D+00 -1.5138349739968D-01  1.3007793484781D-01
   188  1.8700000000000D+00 -1.4507678566410D-01  1.1583195073625D-01
   189  1.8800000000000D+00 -1.3879249055854D-01  1.0259168240502D-01
   190  1.8900000000000D+00 -1.3254887133225D-01  9.0328740709858D-02
   191  1.9000000000000D+00 -1.2636305036379D-01  7.9012254563950D-02
   192  1.9100000000000D+00 -1.2025108104765D-01  6.8609427267428D-02
   193  1.9200000000000D+00 -1.1422789258950D-01  5.9085587752183D-02
   194  1.9300000000000D+00 -1.0830727420593D-01  5.0404358113043D-02
   195  1.9400000000000D+00 -1.0250191257029D-01  4.2528047277732D-02
   196  1.9500000000000D+00 -9.6823389973451D-02  3.5417855691061D-02
   197  1.9600000000000D+00 -9.1282201376249D-02  2.9034140279401D-02
   198  1.9700000000000D+00 -8.5887771393969D-02  2.3336661638358D-02
   199  1.9800000000000D+00 -8.0648473954568D-02  1.8284822948998D-02
   200  1.9900000000000D+00 -7.5571654777423D-02  1.3837901112784D-02
   201  2.0000000000000D+00 -7.0663656354485D-02  9.9552695605118D-03
   202  2.0100000000000D+00 -6.5929845087004D-02  6.5966089750455D-03
   203  2.0200000000000D+00 -6.1374640615733D-02  3.7221089083687D-03
   204  2.0300000000000D+00 -5.7001546945971D-02  1.2926555352078D-03
   205  2.0400000000000D+00 -5.2813185364607D-02 -7.2999204549809D-04
   206  2.0500000000000D+00 -4.8811328917911D-02 -2.3830388030073D-03
   207  2.0600000000000D+00 -4.4996938233039D-02 -3.7025056760622D-03
   208  2.0700000000000D+00 -4.1370198696304D-02 -4.7230932612599D-03
   209  2.0800000000000D+00 -3.7930558597819D-02 -5.4780627350907D-03
   210  2.0900000000000D+00 -3.4676768322695D-02 -5.9991291956396D-03
   211  2.1000000000000D+00 -3.1606920304344D-02 -6.3163707021928D-03
   212  2.1100000000000D+00 -2.8718489607576D-02 -6.4581528773697D-03
   213  2.1200000000000D+00 -2.6008375134055D-02 -6.4510661029405D-03
   214  2.1300000000000D+00 -2.3472941088706D-02 -6.3198803071078D-03
   215  2.1400000000000D+00 -2.1108058817240D-02 -6.0875118673364D-03
   216  2.1500000000000D+00 -1.8909148735284D-02 -5.7750056161417D-03
   217  2.1600000000000D+00 -1.6871222227360D-02 -5.4015315050501D-03
   218  2.1700000000000D+00 -1.4988923567121D-02 -4.9843924008274D-03
   219  2.1800000000000D+00 -1.3256571455449D-02 -4.5390475030277D-03
   220  2.1900000000000D+00 -1.1668200343974D-02 -4.0791462284262D-03
   221  2.2000000000000D+00 -1.0217601305706D-02 -3.6165740044344D-03
   222  2.2100000000000D+00 -8.8983622724263D-03 -3.1615102178915D-03
   223  2.2200000000000D+00 -7.7039077904752D-03 -2.7224946151386D-03
   224  2.2300000000000D+00 -6.6275378947734D-03 -2.3065046063169D-03
   225  2.2400000000000D+00 -5.6624662027945D-03 -1.9190407219952D-03
   226  2.2500000000000D+00 -4.8018572007780D-03 -1.5642190703168D-03
   227  2.2600000000000D+00 -4.0388623420809D-03 -1.2448717837217D-03
   228  2.2700000000000D+00 -3.3666552500858D-03 -9.6265242768789D-04
   229  2.2800000000000D+00 -2.7784657275981D-03 -7.1814648972152D-04
   230  2.2900000000000D+00 -2.2676124657909D-03 -5.1098592083855D-04
   231  2.3000000000000D+00 -1.8275346654029D-03 -3.3996649962322D-04
   232  2.3100000000000D+00 -1.4518221604034D-03 -2.0316695397077D-04
   233  2.3200000000000D+00 -1.1342441767825D-03 -9.8068909830009D-05
   234  2.3300000000000D+00 -8.6877682049136D-04 -2.1677569462376D-05
   235  2.3400000000000D+00 -6.4962882608587D-04  2.9360064000375D-05
   236  2.3500000000000D+00 -4.7126594093576D-04  5.8637973687044D-05
   237  2.3600000000000D+00 -3.2843377188707D-04  6.9876415454563D-05
   238  2.3700000000000D+00 -2.1617886174518D-04  6.6812849120828D-05
   239  2.3800000000000D+00 -1.2986829484756D-04  5.3095519034736D-05
   240  2.3900000000000D+00 -6.5207595952458D-05  3.2183100419731D-05
   241  2.4000000000000D+00 -1.8177583592023D-05  7.0987101583273D-06
   242  2.4100000000000D+00  1.4695142013945D-05 -1.9163028390349D-05
   243  2.4200000000000D+00  3.6465979524206D-05 -4.3986931836537D-05
   244  2.4300000000000D+00  4.9269201204432D-05 -6.4478924666707D-05
   245  2.4400000000000D+00  5.6742482724619D-05 -8.1455184421657D-05
   246  2.4500000000000D+00  6.1902129759658D-05 -9.6045490151660D-05
   247  2.4600000000000D+00  6.8404424020250D-05 -1.1155444675165D-04
   248  2.4700000000000D+00  7.1608977530746D-05 -1.1954029058787D-04
   249  2.4800000000000D+00  6.7050387298827D-05 -1.1277897191830D-04
   250  2.4900000000000D+00  4.8233694397952D-05 -8.1431939022449D-05
   251  2.5000000000000D+00  2.3771340803115D-05 -4.0197333117927D-05
   252  2.5100000000000D+00  1.8571430636030D-06 -3.1414333350348D-06
   253  2.5200000000000D+00 -6.4485462550876D-06  1.0969365790671D-05
   254  2.5300000000000D+00 -5.7741948251355D-06  9.8333102955224D-06
   255  2.5400000000000D+00 -6.6910124600911D-07  1.1404495526966D-06
   256  2.5500000000000D+00  1.3615873870577D-06 -2.3076257126952D-06
   257  2.5600000000000D+00  1.4049583253921D-06 -2.3818970928542D-06
   258  2.5700000000000D+00  2.4201823245960D-07 -4.1041628666186D-07
   259  2.5800000000000D+00 -1.4998777210467D-07  2.5234633413024D-07
   260  2.5900000000000D+00 -1.7383416813925D-07  2.9246660885066D-07
   261  2.6000000000000D+00 -4.4745376631518D-08  7.5281681991786D-08
   262  2.6100000000000D+00  0.0000000000000D+00  0.0000000000000D+00
   263  2.6200000000000D+00  0.0000000000000D+00  0.0000000000000D+00
   264  2.6300000000000D+00  0.0000000000000D+00  0.0000000000000D+00
   265  2.6400000000000D+00  0.0000000000000D+00  0.0000000000000D+00
   266  2.6500000000000D+00  0.0000000000000D+00  0.0000000000000D+00
   267  2.6600000000000D+00  0.0000000000000D+00  0.0000000000000D+00
   268  2.6700000000000D+00  0.0000000000000D+00  0.0000000000000D+00
   269  2.6800000000000D+00  0.0000000000000D+00  0.0000000000000D+00
   270  2.6900000000000D+00  0.0000000000000D+00  0.0000000000000D+00
   271  2.7000000000000D+00  0.0000000000000D+00  0.0000000000000D+00
   272  2.7100000000000D+00  0.0000000000000D+00  0.0000000000000D+00
   273  2.7200000000000D+00  0.0000000000000D+00  0.0000000000000D+00
   274  2.7300000000000D+00  0.0000000000000D+00  0.0000000000000D+00
   275  2.7400000000000D+00  0.0000000000000D+00  0.0000000000000D+00
   276  2.7500000000000D+00  0.0000000000000D+00  0.0000000000000D+00
   277  2.7600000000000D+00  0.0000000000000D+00  0.0000000000000D+00
   278  2.7700000000000D+00  0.0000000000000D+00  0.0000000000000D+00
   279  2.7800000000000D+00  0.0000000000000D+00  0.0000000000000D+00
   280  2.7900000000000D+00  0.0000000000000D+00  0.0000000000000D+00
   281  2.8000000000000D+00  0.0000000000000D+00  0.0000000000000D+00
   282  2.8100000000000D+00  0.0000000000000D+00  0.0000000000000D+00
   283  2.8200000000000D+00  0.0000000000000D+00  0.0000000000000D+00
   284  2.8300000000000D+00  0.0000000000000D+00  0.0000000000000D+00
   285  2.8400000000000D+00  0.0000000000000D+00  0.0000000000000D+00
   286  2.8500000000000D+00  0.0000000000000D+00  0.0000000000000D+00
   287  2.8600000000000D+00  0.0000000000000D+00  0.0000000000000D+00
   288  2.8700000000000D+00  0.0000000000000D+00  0.0000000000000D+00
   289  2.8800000000000D+00  0.0000000000000D+00  0.0000000000000D+00
   290  2.8900000000000D+00  0.0000000000000D+00  0.0000000000000D+00
   291  2.9000000000000D+00  0.0000000000000D+00  0.0000000000000D+00
   292  2.9100000000000D+00  0.0000000000000D+00  0.0000000000000D+00
   293  2.9200000000000D+00  0.0000000000000D+00  0.0000000000000D+00
   294  2.9300000000000D+00  0.0000000000000D+00  0.0000000000000D+00
   295  2.9400000000000D+00  0.0000000000000D+00  0.0000000000000D+00
   296  2.9500000000000D+00  0.0000000000000D+00  0.0000000000000D+00
   297  2.9600000000000D+00  0.0000000000000D+00  0.0000000000000D+00
   298  2.9700000000000D+00  0.0000000000000D+00  0.0000000000000D+00
   299  2.9800000000000D+00  0.0000000000000D+00  0.0000000000000D+00
   300  2.9900000000000D+00  0.0000000000000D+00  0.0000000000000D+00
   301  3.0000000000000D+00  0.0000000000000D+00  0.0000000000000D+00
   302  3.0100000000000D+00  0.0000000000000D+00  0.0000000000000D+00
   303  3.0200000000000D+00  0.0000000000000D+00  0.0000000000000D+00
   304  3.0300000000000D+00  0.0000000000000D+00  0.0000000000000D+00
   305  3.0400000000000D+00  0.0000000000000D+00  0.0000000000000D+00
   306  3.0500000000000D+00  0.0000000000000D+00  0.0000000000000D+00
   307  3.0600000000000D+00  0.0000000000000D+00  0.0000000000000D+00
   308  3.0700000000000D+00  0.0000000000000D+00  0.0000000000000D+00
   309  3.0800000000000D+00  0.0000000000000D+00  0.0000000000000D+00
   310  3.0900000000000D+00  0.0000000000000D+00  0.0000000000000D+00
   311  3.1000000000000D+00  0.0000000000000D+00  0.0000000000000D+00
   312  3.1100000000000D+00  0.0000000000000D+00  0.0000000000000D+00
   313  3.1200000000000D+00  0.0000000000000D+00  0.0000000000000D+00
   314  3.1300000000000D+00  0.0000000000000D+00  0.0000000000000D+00
   315  3.1400000000000D+00  0.0000000000000D+00  0.0000000000000D+00
   316  3.1500000000000D+00  0.0000000000000D+00  0.0000000000000D+00
   317  3.1600000000000D+00  0.0000000000000D+00  0.0000000000000D+00
   318  3.1700000000000D+00  0.0000000000000D+00  0.0000000000000D+00
   319  3.1800000000000D+00  0.0000000000000D+00  0.0000000000000D+00
   320  3.1900000000000D+00  0.0000000000000D+00  0.0000000000000D+00
   321  3.2000000000000D+00  0.0000000000000D+00  0.0000000000000D+00
   322  3.2100000000000D+00  0.0000000000000D+00  0.0000000000000D+00
   323  3.2200000000000D+00  0.0000000000000D+00  0.0000000000000D+00
   324  3.2300000000000D+00  0.0000000000000D+00  0.0000000000000D+00
   325  3.2400000000000D+00  0.0000000000000D+00  0.0000000000000D+00
   326  3.2500000000000D+00  0.0000000000000D+00  0.0000000000000D+00
   327  3.2600000000000D+00  0.0000000000000D+00  0.0000000000000D+00
   328  3.2700000000000D+00  0.0000000000000D+00  0.0000000000000D+00
   329  3.2800000000000D+00  0.0000000000000D+00  0.0000000000000D+00
   330  3.2900000000000D+00  0.0000000000000D+00  0.0000000000000D+00
   331  3.3000000000000D+00  0.0000000000000D+00  0.0000000000000D+00
   332  3.3100000000000D+00  0.0000000000000D+00  0.0000000000000D+00
   333  3.3200000000000D+00  0.0000000000000D+00  0.0000000000000D+00
   334  3.3300000000000D+00  0.0000000000000D+00  0.0000000000000D+00
   335  3.3400000000000D+00  0.0000000000000D+00  0.0000000000000D+00
   336  3.3500000000000D+00  0.0000000000000D+00  0.0000000000000D+00
   337  3.3600000000000D+00  0.0000000000000D+00  0.0000000000000D+00
   338  3.3700000000000D+00  0.0000000000000D+00  0.0000000000000D+00
   339  3.3800000000000D+00  0.0000000000000D+00  0.0000000000000D+00
   340  3.3900000000000D+00  0.0000000000000D+00  0.0000000000000D+00
   341  3.4000000000000D+00  0.0000000000000D+00  0.0000000000000D+00
   342  3.4100000000000D+00  0.0000000000000D+00  0.0000000000000D+00
   343  3.4200000000000D+00  0.0000000000000D+00  0.0000000000000D+00
   344  3.4300000000000D+00  0.0000000000000D+00  0.0000000000000D+00
   345  3.4400000000000D+00  0.0000000000000D+00  0.0000000000000D+00
   346  3.4500000000000D+00  0.0000000000000D+00  0.0000000000000D+00
   347  3.4600000000000D+00  0.0000000000000D+00  0.0000000000000D+00
   348  3.4700000000000D+00  0.0000000000000D+00  0.0000000000000D+00
   349  3.4800000000000D+00  0.0000000000000D+00  0.0000000000000D+00
   350  3.4900000000000D+00  0.0000000000000D+00  0.0000000000000D+00
   351  3.5000000000000D+00  0.0000000000000D+00  0.0000000000000D+00
   352  3.5100000000000D+00  0.0000000000000D+00  0.0000000000000D+00
   353  3.5200000000000D+00  0.0000000000000D+00  0.0000000000000D+00
   354  3.5300000000000D+00  0.0000000000000D+00  0.0000000000000D+00
   355  3.5400000000000D+00  0.0000000000000D+00  0.0000000000000D+00
   356  3.5500000000000D+00  0.0000000000000D+00  0.0000000000000D+00
   357  3.5600000000000D+00  0.0000000000000D+00  0.0000000000000D+00
   358  3.5700000000000D+00  0.0000000000000D+00  0.0000000000000D+00
   359  3.5800000000000D+00  0.0000000000000D+00  0.0000000000000D+00
   360  3.5900000000000D+00  0.0000000000000D+00  0.0000000000000D+00
   361  3.6000000000000D+00  0.0000000000000D+00  0.0000000000000D+00
   362  3.6100000000000D+00  0.0000000000000D+00  0.0000000000000D+00
   363  3.6200000000000D+00  0.0000000000000D+00  0.0000000000000D+00
   364  3.6300000000000D+00  0.0000000000000D+00  0.0000000000000D+00
   365  3.6400000000000D+00  0.0000000000000D+00  0.0000000000000D+00
   366  3.6500000000000D+00  0.0000000000000D+00  0.0000000000000D+00
   367  3.6600000000000D+00  0.0000000000000D+00  0.0000000000000D+00
   368  3.6700000000000D+00  0.0000000000000D+00  0.0000000000000D+00
   369  3.6800000000000D+00  0.0000000000000D+00  0.0000000000000D+00
   370  3.6900000000000D+00  0.0000000000000D+00  0.0000000000000D+00
   371  3.7000000000000D+00  0.0000000000000D+00  0.0000000000000D+00
   372  3.7100000000000D+00  0.0000000000000D+00  0.0000000000000D+00
   373  3.7200000000000D+00  0.0000000000000D+00  0.0000000000000D+00
   374  3.7300000000000D+00  0.0000000000000D+00  0.0000000000000D+00
   375  3.7400000000000D+00  0.0000000000000D+00  0.0000000000000D+00
   376  3.7500000000000D+00  0.0000000000000D+00  0.0000000000000D+00
   377  3.7600000000000D+00  0.0000000000000D+00  0.0000000000000D+00
   378  3.7700000000000D+00  0.0000000000000D+00  0.0000000000000D+00
   379  3.7800000000000D+00  0.0000000000000D+00  0.0000000000000D+00
   380  3.7900000000000D+00  0.0000000000000D+00  0.0000000000000D+00
   381  3.8000000000000D+00  0.0000000000000D+00  0.0000000000000D+00
   382  3.8100000000000D+00  0.0000000000000D+00  0.0000000000000D+00
   383  3.8200000000000D+00  0.0000000000000D+00  0.0000000000000D+00
   384  3.8300000000000D+00  0.0000000000000D+00  0.0000000000000D+00
   385  3.8400000000000D+00  0.0000000000000D+00  0.0000000000000D+00
   386  3.8500000000000D+00  0.0000000000000D+00  0.0000000000000D+00
   387  3.8600000000000D+00  0.0000000000000D+00  0.0000000000000D+00
   388  3.8700000000000D+00  0.0000000000000D+00  0.0000000000000D+00
   389  3.8800000000000D+00  0.0000000000000D+00  0.0000000000000D+00
   390  3.8900000000000D+00  0.0000000000000D+00  0.0000000000000D+00
   391  3.9000000000000D+00  0.0000000000000D+00  0.0000000000000D+00
   392  3.9100000000000D+00  0.0000000000000D+00  0.0000000000000D+00
   393  3.9200000000000D+00  0.0000000000000D+00  0.0000000000000D+00
   394  3.9300000000000D+00  0.0000000000000D+00  0.0000000000000D+00
   395  3.9400000000000D+00  0.0000000000000D+00  0.0000000000000D+00
   396  3.9500000000000D+00  0.0000000000000D+00  0.0000000000000D+00
   397  3.9600000000000D+00  0.0000000000000D+00  0.0000000000000D+00
   398  3.9700000000000D+00  0.0000000000000D+00  0.0000000000000D+00
   399  3.9800000000000D+00  0.0000000000000D+00  0.0000000000000D+00
   400  3.9900000000000D+00  0.0000000000000D+00  0.0000000000000D+00
   401  4.0000000000000D+00  0.0000000000000D+00  0.0000000000000D+00
   402  4.0100000000000D+00  0.0000000000000D+00  0.0000000000000D+00
   403  4.0200000000000D+00  0.0000000000000D+00  0.0000000000000D+00
   404  4.0300000000000D+00  0.0000000000000D+00  0.0000000000000D+00
   405  4.0400000000000D+00  0.0000000000000D+00  0.0000000000000D+00
   406  4.0500000000000D+00  0.0000000000000D+00  0.0000000000000D+00
   407  4.0600000000000D+00  0.0000000000000D+00  0.0000000000000D+00
   408  4.0700000000000D+00  0.0000000000000D+00  0.0000000000000D+00
   409  4.0800000000000D+00  0.0000000000000D+00  0.0000000000000D+00
   410  4.0900000000000D+00  0.0000000000000D+00  0.0000000000000D+00
   411  4.1000000000000D+00  0.0000000000000D+00  0.0000000000000D+00
   412  4.1100000000000D+00  0.0000000000000D+00  0.0000000000000D+00
   413  4.1200000000000D+00  0.0000000000000D+00  0.0000000000000D+00
   414  4.1300000000000D+00  0.0000000000000D+00  0.0000000000000D+00
   415  4.1400000000000D+00  0.0000000000000D+00  0.0000000000000D+00
   416  4.1500000000000D+00  0.0000000000000D+00  0.0000000000000D+00
   417  4.1600000000000D+00  0.0000000000000D+00  0.0000000000000D+00
   418  4.1700000000000D+00  0.0000000000000D+00  0.0000000000000D+00
   419  4.1800000000000D+00  0.0000000000000D+00  0.0000000000000D+00
   420  4.1900000000000D+00  0.0000000000000D+00  0.0000000000000D+00
   421  4.2000000000000D+00  0.0000000000000D+00  0.0000000000000D+00
   422  4.2100000000000D+00  0.0000000000000D+00  0.0000000000000D+00