Si    ONCVPSP-3.3.1  r_core=   2.40480   3.56481
     14.0000      4.0000      210904    zatom,zion,pspd
     8      11   1     4   600     0    pspcod,pspxc,lmax,lloc,mmax,r2well
  5.99000000  0.00000000  0.00000000    rchrg fchrg qchrg
     2     2     0     0     0    nproj
     1     1           extension_switch
   0                         6.9793639549639D+00  4.5232937987915D-01
     1  0.0000000000000D+00  1.0045825282745D-11 -2.2613549921502D-11
     2  1.0000000000000D-02  2.8289367590549D-02 -2.3498805790797D-02
     3  2.0000000000000D-02  5.6581333801411D-02 -4.6978810305659D-02
     4  3.0000000000000D-02  8.4878386827428D-02 -7.0421074775917D-02
     5  4.0000000000000D-02  1.1318279459290D-01 -9.3806386567433D-02
     6  5.0000000000000D-02  1.4149649606482D-01 -1.1711512504224D-01
     7  6.0000000000000D-02  1.6982099429717D-01 -1.4032713075755D-01
     8  7.0000000000000D-02  1.9815725177166D-01 -1.6342157908838D-01
     9  8.0000000000000D-02  2.2650558859014D-01 -1.8637685933751D-01
    10  9.0000000000000D-02  2.5486558406153D-01 -2.0917046036863D-01
    11  1.0000000000000D-01  2.8323598221122D-01 -2.3177886376541D-01
    12  1.1000000000000D-01  3.1161460172407D-01 -2.5417744548058D-01
    13  1.2000000000000D-01  3.3999825081219D-01 -2.7634038689581D-01
    14  1.3000000000000D-01  3.6838264747782D-01 -2.9824059616446D-01
    15  1.4000000000000D-01  3.9676234561741D-01 -3.1984964065624D-01
    16  1.5000000000000D-01  4.2513066738783D-01 -3.4113769126488D-01
    17  1.6000000000000D-01  4.5347964222773D-01 -3.6207347927788D-01
    18  1.7000000000000D-01  4.8179995289840D-01 -3.8262426644126D-01
    19  1.8000000000000D-01  5.1008088887674D-01 -4.0275582878186D-01
    20  1.9000000000000D-01  5.3831030740139D-01 -4.2243245467651D-01
    21  2.0000000000000D-01  5.6647460243854D-01 -4.4161695757998D-01
    22  2.1000000000000D-01  5.9455868179920D-01 -4.6027070374405D-01
    23  2.2000000000000D-01  6.2254595260335D-01 -4.7835365517709D-01
    24  2.3000000000000D-01  6.5041831524932D-01 -4.9582442800866D-01
    25  2.4000000000000D-01  6.7815616600857D-01 -5.1264036633683D-01
    26  2.5000000000000D-01  7.0573840832753D-01 -5.2875763154676D-01
    27  2.6000000000000D-01  7.3314247287870D-01 -5.4413130699962D-01
    28  2.7000000000000D-01  7.6034434636418D-01 -5.5871551789991D-01
    29  2.8000000000000D-01  7.8731860903436D-01 -5.7246356605765D-01
    30  2.9000000000000D-01  8.1403848084533D-01 -5.8532807917079D-01
    31  3.0000000000000D-01  8.4047587613853D-01 -5.9726117416149D-01
    32  3.1000000000000D-01  8.6660146668711D-01 -6.0821463401011D-01
    33  3.2000000000000D-01  8.9238475291422D-01 -6.1814009744025D-01
    34  3.3000000000000D-01  9.1779414305049D-01 -6.2698926072162D-01
    35  3.4000000000000D-01  9.4279703996018D-01 -6.3471409077020D-01
    36  3.5000000000000D-01  9.6735993532889D-01 -6.4126704864270D-01
    37  3.6000000000000D-01  9.9144851087036D-01 -6.4660132244087D-01
    38  3.7000000000000D-01  1.0150277461752D+00 -6.5067106856385D-01
    39  3.8000000000000D-01  1.0380620327919D+00 -6.5343166017266D-01
    40  3.9000000000000D-01  1.0605152940979D+00 -6.5483994166128D-01
    41  4.0000000000000D-01  1.0823511104910D+00 -6.5485448786291D-01
    42  4.1000000000000D-01  1.1035328493992D+00 -6.5343586665954D-01
    43  4.2000000000000D-01  1.1240237995859D+00 -6.5054690360740D-01
    44  4.3000000000000D-01  1.1437873091987D+00 -6.4615294714102D-01
    45  4.4000000000000D-01  1.1627869269899D+00 -6.4022213287441D-01
    46  4.5000000000000D-01  1.1809865461173D+00 -6.3272564548075D-01
    47  4.6000000000000D-01  1.1983505499148D+00 -6.2363797659986D-01
    48  4.7000000000000D-01  1.2148439590073D+00 -6.1293717719970D-01
    49  4.8000000000000D-01  1.2304325791325D+00 -6.0060510279982D-01
    50  4.9000000000000D-01  1.2450831490207D+00 -5.8662764995622D-01
    51  5.0000000000000D-01  1.2587634876755D+00 -5.7099498240393D-01
    52  5.1000000000000D-01  1.2714426403953D+00 -5.5370174526069D-01
    53  5.2000000000000D-01  1.2830910228693D+00 -5.3474726570781D-01
    54  5.3000000000000D-01  1.2936805626861D+00 -5.1413573858773D-01
    55  5.4000000000000D-01  1.3031848375913D+00 -4.9187639538642D-01
    56  5.5000000000000D-01  1.3115792098395D+00 -4.6798365511054D-01
    57  5.6000000000000D-01  1.3188409559935D+00 -4.4247725561251D-01
    58  5.7000000000000D-01  1.3249493915325D+00 -4.1538236397717D-01
    59  5.8000000000000D-01  1.3298859896474D+00 -3.8672966464344D-01
    60  5.9000000000000D-01  1.3336344936162D+00 -3.5655542401132D-01
    61  6.0000000000000D-01  1.3361810221715D+00 -3.2490153036243D-01
    62  6.1000000000000D-01  1.3375141672940D+00 -2.9181550801364D-01
    63  6.2000000000000D-01  1.3376250838903D+00 -2.5735050472042D-01
    64  6.3000000000000D-01  1.3365075708381D+00 -2.2156525145158D-01
    65  6.4000000000000D-01  1.3341581429143D+00 -1.8452399377114D-01
    66  6.5000000000000D-01  1.3305760931492D+00 -1.4629639418244D-01
    67  6.6000000000000D-01  1.3257635451859D+00 -1.0695740491940D-01
    68  6.7000000000000D-01  1.3197254952591D+00 -6.6587110801902D-02
    69  6.8000000000000D-01  1.3124698434458D+00 -2.5270541916332D-02
    70  6.9000000000000D-01  1.3040074138787D+00  1.6902543972924D-02
    71  7.0000000000000D-01  1.2943519636571D+00  5.9837909220061D-02
    72  7.1000000000000D-01  1.2835201802321D+00  1.0343711408533D-01
    73  7.2000000000000D-01  1.2715316670877D+00  1.4759782413169D-01
    74  7.3000000000000D-01  1.2584089175862D+00  1.9221414668222D-01
    75  7.4000000000000D-01  1.2441772768951D+00  2.3717699561919D-01
    76  7.5000000000000D-01  1.2288648919606D+00  2.8237448363099D-01
    77  7.6000000000000D-01  1.2125026495418D+00  3.2769234083707D-01
    78  7.7000000000000D-01  1.1951241023749D+00  3.7301435854171D-01
    79  7.8000000000000D-01  1.1767653835820D+00  4.1822285668732D-01
    80  7.9000000000000D-01  1.1574651094980D+00  4.6319917339807D-01
    81  8.0000000000000D-01  1.1372642711375D+00  5.0782417482219D-01
    82  8.1000000000000D-01  1.1162061145769D+00  5.5197878330210D-01
    83  8.2000000000000D-01  1.0943360105836D+00  5.9554452172183D-01
    84  8.3000000000000D-01  1.0717013138717D+00  6.3840407170317D-01
    85  8.4000000000000D-01  1.0483512124216D+00  6.8044184314832D-01
    86  8.5000000000000D-01  1.0243365673499D+00  7.2154455245389D-01
    87  8.6000000000000D-01  9.9970974386919D-01  7.6160180655376D-01
    88  8.7000000000000D-01  9.7452443392824D-01  8.0050668978441D-01
    89  8.8000000000000D-01  9.4883547117385D-01  8.3815635040823D-01
    90  8.9000000000000D-01  9.2269863892326D-01  8.7445258347768D-01
    91  9.0000000000000D-01  8.9617047188567D-01  9.0930240657567D-01
    92  9.1000000000000D-01  8.6930805241696D-01  9.4261862482949D-01
    93  9.2000000000000D-01  8.4216880213705D-01  9.7432038146224D-01
    94  9.3000000000000D-01  8.1481026978249D-01  1.0043336900220D+00
    95  9.4000000000000D-01  7.8728991620864D-01  1.0325919443130D+00
    96  9.5000000000000D-01  7.5966489749503D-01  1.0590364019469D+00
    97  9.6000000000000D-01  7.3199184714507D-01  1.0836166373332D+00
    98  9.7000000000000D-01  7.0432665840627D-01  1.1062909598428D+00
    99  9.8000000000000D-01  6.7672426777037D-01  1.1270267927977D+00
   100  9.9000000000000D-01  6.4923844074211D-01  1.1458010088766D+00
   101  1.0000000000000D+00  6.2192156099419D-01  1.1626002174666D+00
   102  1.0100000000000D+00  5.9482442405022D-01  1.1774209994477D+00
   103  1.0200000000000D+00  5.6799603665988D-01  1.1902700848622D+00
   104  1.0300000000000D+00  5.4148342304980D-01  1.2011644688980D+00
   105  1.0400000000000D+00  5.1533143925002D-01  1.2101314616048D+00
   106  1.0500000000000D+00  4.8958259670901D-01  1.2172086667600D+00
   107  1.0600000000000D+00  4.6427689642056D-01  1.2224438853165D+00
   108  1.0700000000000D+00  4.3945167479324D-01  1.2258949388827D+00
   109  1.0800000000000D+00  4.1514146249638D-01  1.2276294087261D+00
   110  1.0900000000000D+00  3.9137785751760D-01  1.2277242858332D+00
   111  1.1000000000000D+00  3.6818941366408D-01  1.2262655276178D+00
   112  1.1100000000000D+00  3.4560154573474D-01  1.2233475169349D+00
   113  1.1200000000000D+00  3.2363645258059D-01  1.2190724191409D+00
   114  1.1300000000000D+00  3.0231305925867D-01  1.2135494330274D+00
   115  1.1400000000000D+00  2.8164697946853D-01  1.2068939315603D+00
   116  1.1500000000000D+00  2.6165049944561D-01  1.1992264884449D+00
   117  1.1600000000000D+00  2.4233258445900D-01  1.1906717866850D+00
   118  1.1700000000000D+00  2.2369890903868D-01  1.1813574054159D+00
   119  1.1800000000000D+00  2.0575191203009D-01  1.1714124814236D+00
   120  1.1900000000000D+00  1.8849087754632D-01  1.1609662418989D+00
   121  1.2000000000000D+00  1.7191204284918D-01  1.1501464051464D+00
   122  1.2100000000000D+00  1.5600873415135D-01  1.1390774461356D+00
   123  1.2200000000000D+00  1.4077153131389D-01  1.1278787238642D+00
   124  1.2300000000000D+00  1.2618846234703D-01  1.1166624677751D+00
   125  1.2400000000000D+00  1.1224522858664D-01  1.1055316206072D+00
   126  1.2500000000000D+00  9.8925461350002D-02  1.0945775340076D+00
   127  1.2600000000000D+00  8.6211011060822D-02  1.0838775210622D+00
   128  1.2700000000000D+00  7.4082270342928D-02  1.0734922894833D+00
   129  1.2800000000000D+00  6.2518520750956D-02  1.0634628847996D+00
   130  1.2900000000000D+00  5.1498343252657D-02  1.0538084795732D+00
   131  1.3000000000000D+00  4.1000070852288D-02  1.0445240633741D+00
   132  1.3100000000000D+00  3.1002072581986D-02  1.0355720357307D+00
   133  1.3200000000000D+00  2.1483410970465D-02  1.0268828204108D+00
   134  1.3300000000000D+00  1.2424620806826D-02  1.0183604104606D+00
   135  1.3400000000000D+00  3.8082654629807D-03  1.0098903362171D+00
   136  1.3500000000000D+00 -4.3807068058591D-03  1.0013479951309D+00
   137  1.3600000000000D+00 -1.2154854111169D-02  9.9260650767815D-01
   138  1.3700000000000D+00 -1.9524336093540D-02  9.8354344725726D-01
   139  1.3800000000000D+00 -2.6497154841070D-02  9.7404642802395D-01
   140  1.3900000000000D+00 -3.3079509217208D-02  9.6401719039251D-01
   141  1.4000000000000D+00 -3.9276198396503D-02  9.5337423878201D-01
   142  1.4100000000000D+00 -4.5091051480100D-02  9.4205421300036D-01
   143  1.4200000000000D+00 -5.0527328551195D-02  9.3001208021241D-01
   144  1.4300000000000D+00 -5.5588088877754D-02  9.1722048916795D-01
   145  1.4400000000000D+00 -6.0276501302066D-02  9.0366844009701D-01
   146  1.4500000000000D+00 -6.4596091654583D-02  8.8935958245669D-01
   147  1.4600000000000D+00 -6.8550933508634D-02  8.7431022238509D-01
   148  1.4700000000000D+00 -7.2145776831579D-02  8.5854733647659D-01
   149  1.4800000000000D+00 -7.5386130481127D-02  8.4210656874133D-01
   150  1.4900000000000D+00 -7.8278300167604D-02  8.2503039432367D-01
   151  1.5000000000000D+00 -8.0829394254585D-02  8.0736644430305D-01
   152  1.5100000000000D+00 -8.3047302093069D-02  7.8916603438851D-01
   153  1.5200000000000D+00 -8.4940655430231D-02  7.7048291115394D-01
   154  1.5300000000000D+00 -8.6518773954053D-02  7.5137218482963D-01
   155  1.5400000000000D+00 -8.7791605644400D-02  7.3188946413966D-01
   156  1.5500000000000D+00 -8.8769659640514D-02  7.1209014868444D-01
   157  1.5600000000000D+00 -8.9463939670154D-02  6.9202887203614D-01
   158  1.5700000000000D+00 -8.9885876102554D-02  6.7175906810069D-01
   159  1.5800000000000D+00 -9.0047260795461D-02  6.5133264172087D-01
   160  1.5900000000000D+00 -8.9960183940288D-02  6.3079972517997D-01
   161  1.6000000000000D+00 -8.9636974397867D-02  6.1020850489397D-01
   162  1.6100000000000D+00 -8.9090143380111D-02  5.8960510207496D-01
   163  1.6200000000000D+00 -8.8332331655271D-02  5.6903349980400D-01
   164  1.6300000000000D+00 -8.7376260280007D-02  5.4853550074969D-01
   165  1.6400000000000D+00 -8.6234684612394D-02  5.2815071484918D-01
   166  1.6500000000000D+00 -8.4920351499402D-02  5.0791656243790D-01
   167  1.6600000000000D+00 -8.3445959401843D-02  4.8786829601318D-01
   168  1.6700000000000D+00 -8.1824121186016D-02  4.6803902845163D-01
   169  1.6800000000000D+00 -8.0067329491915D-02  4.4845977216473D-01
   170  1.6900000000000D+00 -7.8187924291012D-02  4.2915947986636D-01
   171  1.7000000000000D+00 -7.6198062684817D-02  4.1016509118932D-01
   172  1.7100000000000D+00 -7.4109690520015D-02  3.9150157863559D-01
   173  1.7200000000000D+00 -7.1934515956402D-02  3.7319199616258D-01
   174  1.7300000000000D+00 -6.9683984593685D-02  3.5525752626702D-01
   175  1.7400000000000D+00 -6.7369256319548D-02  3.3771752781083D-01
   176  1.7500000000000D+00 -6.5001183563318D-02  3.2058958228973D-01
   177  1.7600000000000D+00 -6.2590291097120D-02  3.0388953986205D-01
   178  1.7700000000000D+00 -6.0146757169805D-02  2.8763156411743D-01
   179  1.7800000000000D+00 -5.7680396068353D-02  2.7182817623014D-01
   180  1.7900000000000D+00 -5.5200641996954D-02  2.5649029828555D-01
   181  1.8000000000000D+00 -5.2716534312392D-02  2.4162729601109D-01
   182  1.8100000000000D+00 -5.0236704094964D-02  2.2724702110368D-01
   183  1.8200000000000D+00 -4.7769362048428D-02  2.1335585322867D-01
   184  1.8300000000000D+00 -4.5322287764464D-02  1.9995874195730D-01
   185  1.8400000000000D+00 -4.2902820327144D-02  1.8705924877593D-01
   186  1.8500000000000D+00 -4.0517850304180D-02  1.7465958926797D-01
   187  1.8600000000000D+00 -3.8173813122484D-02  1.6276067582891D-01
   188  1.8700000000000D+00 -3.5876683834092D-02  1.5136216068582D-01
   189  1.8800000000000D+00 -3.3631973326098D-02  1.4046247984113D-01
   190  1.8900000000000D+00 -3.1444725919257D-02  1.3005889748024D-01
   191  1.9000000000000D+00 -2.9319518448644D-02  1.2014755146955D-01
   192  1.9100000000000D+00 -2.7260460749778D-02  1.1072349957429D-01
   193  1.9200000000000D+00 -2.5271197615469D-02  1.0178076671431D-01
   194  1.9300000000000D+00 -2.3354912197116D-02  9.3312393206669D-02
   195  1.9400000000000D+00 -2.1514330814099D-02  8.5310483878025D-02
   196  1.9500000000000D+00 -1.9751729257931D-02  7.7766258369435D-02
   197  1.9600000000000D+00 -1.8068940405588D-02  7.0670102109425D-02
   198  1.9700000000000D+00 -1.6467363340905D-02  6.4011618506573D-02
   199  1.9800000000000D+00 -1.4947973733469D-02  5.7779681766289D-02
   200  1.9900000000000D+00 -1.3511335615241D-02  5.1962490643940D-02
   201  2.0000000000000D+00 -1.2157614429959D-02  4.6547622892895D-02
   202  2.0100000000000D+00 -1.0886591298582D-02  4.1522090293603D-02
   203  2.0200000000000D+00 -9.6976785667460D-03  3.6872394351373D-02
   204  2.0300000000000D+00 -8.5899363851163D-03  3.2584582296316D-02
   205  2.0400000000000D+00 -7.5620904954979D-03  2.8644303544635D-02
   206  2.0500000000000D+00 -6.6125509584111D-03  2.5036866311608D-02
   207  2.0600000000000D+00 -5.7394318673931D-03  2.1747294353486D-02
   208  2.0700000000000D+00 -4.9405719803525D-03  1.8760383718471D-02
   209  2.0800000000000D+00 -4.2135560834645D-03  1.6060759343499D-02
   210  2.0900000000000D+00 -3.5557371843849D-03  1.3632931408678D-02
   211  2.1000000000000D+00 -2.9642592756780D-03  1.1461351327622D-02
   212  2.1100000000000D+00 -2.4360806991567D-03  9.5304672258160D-03
   213  2.1200000000000D+00 -1.9679979940596D-03  7.8247787969827D-03
   214  2.1300000000000D+00 -1.5566700917079D-03  6.3288914732750D-03
   215  2.1400000000000D+00 -1.1986428529000D-03  5.0275696568715D-03
   216  2.1500000000000D+00 -8.9037377320638D-04  3.9057890768135D-03
   217  2.1600000000000D+00 -6.2825680462229D-04  2.9487880185234D-03
   218  2.1700000000000D+00 -4.0864718905751D-04  2.1421173349427D-03
   219  2.1800000000000D+00 -2.2788621498243D-04  1.4716892988258D-03
   220  2.1900000000000D+00 -8.2325772960352D-05  9.2382488944880D-04
   221  2.2000000000000D+00  3.1647337918348D-05  4.8529973241349D-04
   222  2.2100000000000D+00  1.1758747785676D-04  1.4338843712397D-04
   223  2.2200000000000D+00  1.7896672983648D-04 -1.1409282128926D-04
   224  2.2300000000000D+00  2.1915193944222D-04 -2.9874529674958D-04
   225  2.2400000000000D+00  2.4138247956099D-04 -4.2154864754107D-04
   226  2.2500000000000D+00  2.4874871699679D-04 -4.9282375792857D-04
   227  2.2600000000000D+00  2.4417121808218D-04 -5.2219741963111D-04
   228  2.2700000000000D+00  2.3038099982660D-04 -5.1856924729556D-04
   229  2.2800000000000D+00  2.0990061321861D-04 -4.9008050899708D-04
   230  2.2900000000000D+00  1.8502631551464D-04 -4.4408515087054D-04
   231  2.3000000000000D+00  1.5781145635730D-04 -3.8712311445612D-04
   232  2.3100000000000D+00  1.3005085258506D-04 -3.2489571863419D-04
   233  2.3200000000000D+00  1.0326658746936D-04 -2.6224348212503D-04
   234  2.3300000000000D+00  7.8696853139021D-05 -2.0315045670391D-04
   235  2.3400000000000D+00  5.7277198359106D-05 -1.5062985015288D-04
   236  2.3500000000000D+00  3.9610584287241D-05 -1.0671481892119D-04
   237  2.3600000000000D+00  2.5960040618418D-05 -7.2445399881465D-05
   238  2.3700000000000D+00  1.6546585314349D-05 -4.9018160370872D-05
   239  2.3800000000000D+00  1.1262145505957D-05 -3.6618962816819D-05
   240  2.3900000000000D+00  9.2182426748261D-06 -3.2810046038221D-05
   241  2.4000000000000D+00  8.3643200267871D-06 -3.1121707655331D-05
   242  2.4100000000000D+00  6.6899411025170D-06 -2.5214389385477D-05
   243  2.4200000000000D+00  3.8129073516685D-06 -1.4419258248752D-05
   244  2.4300000000000D+00  8.9201487713003D-07 -3.3684940338062D-06
   245  2.4400000000000D+00 -6.3285357478375D-07  2.4318986717427D-06
   246  2.4500000000000D+00 -7.4663541011779D-07  2.8735072962720D-06
   247  2.4600000000000D+00 -1.9569950485564D-07  7.5377791846680D-07
   248  2.4700000000000D+00  1.3571240952987D-07 -5.2512866893322D-07
   249  2.4800000000000D+00  1.6378147859774D-07 -6.3475912671339D-07
   250  2.4900000000000D+00  3.9784059775555D-08 -1.5439616709619D-07
   251  2.5000000000000D+00 -1.7307992086338D-08  6.4856759856951D-08
   252  2.5100000000000D+00 -2.1048016059197D-08  7.8871432122631D-08
   253  2.5200000000000D+00 -5.1075810783169D-09  1.9139202155506D-08
   254  2.5300000000000D+00  0.0000000000000D+00  0.0000000000000D+00
   255  2.5400000000000D+00  0.0000000000000D+00  0.0000000000000D+00
   256  2.5500000000000D+00  0.0000000000000D+00  0.0000000000000D+00
   257  2.5600000000000D+00  0.0000000000000D+00  0.0000000000000D+00
   258  2.5700000000000D+00  0.0000000000000D+00  0.0000000000000D+00
   259  2.5800000000000D+00  0.0000000000000D+00  0.0000000000000D+00
   260  2.5900000000000D+00  0.0000000000000D+00  0.0000000000000D+00
   261  2.6000000000000D+00  0.0000000000000D+00  0.0000000000000D+00
   262  2.6100000000000D+00  0.0000000000000D+00  0.0000000000000D+00
   263  2.6200000000000D+00  0.0000000000000D+00  0.0000000000000D+00
   264  2.6300000000000D+00  0.0000000000000D+00  0.0000000000000D+00
   265  2.6400000000000D+00  0.0000000000000D+00  0.0000000000000D+00
   266  2.6500000000000D+00  0.0000000000000D+00  0.0000000000000D+00
   267  2.6600000000000D+00  0.0000000000000D+00  0.0000000000000D+00
   268  2.6700000000000D+00  0.0000000000000D+00  0.0000000000000D+00
   269  2.6800000000000D+00  0.0000000000000D+00  0.0000000000000D+00
   270  2.6900000000000D+00  0.0000000000000D+00  0.0000000000000D+00
   271  2.7000000000000D+00  0.0000000000000D+00  0.0000000000000D+00
   272  2.7100000000000D+00  0.0000000000000D+00  0.0000000000000D+00
   273  2.7200000000000D+00  0.0000000000000D+00  0.0000000000000D+00
   274  2.7300000000000D+00  0.0000000000000D+00  0.0000000000000D+00
   275  2.7400000000000D+00  0.0000000000000D+00  0.0000000000000D+00
   276  2.7500000000000D+00  0.0000000000000D+00  0.0000000000000D+00
   277  2.7600000000000D+00  0.0000000000000D+00  0.0000000000000D+00
   278  2.7700000000000D+00  0.0000000000000D+00  0.0000000000000D+00
   279  2.7800000000000D+00  0.0000000000000D+00  0.0000000000000D+00
   280  2.7900000000000D+00  0.0000000000000D+00  0.0000000000000D+00
   281  2.8000000000000D+00  0.0000000000000D+00  0.0000000000000D+00
   282  2.8100000000000D+00  0.0000000000000D+00  0.0000000000000D+00
   283  2.8200000000000D+00  0.0000000000000D+00  0.0000000000000D+00
   284  2.8300000000000D+00  0.0000000000000D+00  0.0000000000000D+00
   285  2.8400000000000D+00  0.0000000000000D+00  0.0000000000000D+00
   286  2.8500000000000D+00  0.0000000000000D+00  0.0000000000000D+00
   287  2.8600000000000D+00  0.0000000000000D+00  0.0000000000000D+00
   288  2.8700000000000D+00  0.0000000000000D+00  0.0000000000000D+00
   289  2.8800000000000D+00  0.0000000000000D+00  0.0000000000000D+00
   290  2.8900000000000D+00  0.0000000000000D+00  0.0000000000000D+00
   291  2.9000000000000D+00  0.0000000000000D+00  0.0000000000000D+00
   292  2.9100000000000D+00  0.0000000000000D+00  0.0000000000000D+00
   293  2.9200000000000D+00  0.0000000000000D+00  0.0000000000000D+00
   294  2.9300000000000D+00  0.0000000000000D+00  0.0000000000000D+00
   295  2.9400000000000D+00  0.0000000000000D+00  0.0000000000000D+00
   296  2.9500000000000D+00  0.0000000000000D+00  0.0000000000000D+00
   297  2.9600000000000D+00  0.0000000000000D+00  0.0000000000000D+00
   298  2.9700000000000D+00  0.0000000000000D+00  0.0000000000000D+00
   299  2.9800000000000D+00  0.0000000000000D+00  0.0000000000000D+00
   300  2.9900000000000D+00  0.0000000000000D+00  0.0000000000000D+00
   301  3.0000000000000D+00  0.0000000000000D+00  0.0000000000000D+00
   302  3.0100000000000D+00  0.0000000000000D+00  0.0000000000000D+00
   303  3.0200000000000D+00  0.0000000000000D+00  0.0000000000000D+00
   304  3.0300000000000D+00  0.0000000000000D+00  0.0000000000000D+00
   305  3.0400000000000D+00  0.0000000000000D+00  0.0000000000000D+00
   306  3.0500000000000D+00  0.0000000000000D+00  0.0000000000000D+00
   307  3.0600000000000D+00  0.0000000000000D+00  0.0000000000000D+00
   308  3.0700000000000D+00  0.0000000000000D+00  0.0000000000000D+00
   309  3.0800000000000D+00  0.0000000000000D+00  0.0000000000000D+00
   310  3.0900000000000D+00  0.0000000000000D+00  0.0000000000000D+00
   311  3.1000000000000D+00  0.0000000000000D+00  0.0000000000000D+00
   312  3.1100000000000D+00  0.0000000000000D+00  0.0000000000000D+00
   313  3.1200000000000D+00  0.0000000000000D+00  0.0000000000000D+00
   314  3.1300000000000D+00  0.0000000000000D+00  0.0000000000000D+00
   315  3.1400000000000D+00  0.0000000000000D+00  0.0000000000000D+00
   316  3.1500000000000D+00  0.0000000000000D+00  0.0000000000000D+00
   317  3.1600000000000D+00  0.0000000000000D+00  0.0000000000000D+00
   318  3.1700000000000D+00  0.0000000000000D+00  0.0000000000000D+00
   319  3.1800000000000D+00  0.0000000000000D+00  0.0000000000000D+00
   320  3.1900000000000D+00  0.0000000000000D+00  0.0000000000000D+00
   321  3.2000000000000D+00  0.0000000000000D+00  0.0000000000000D+00
   322  3.2100000000000D+00  0.0000000000000D+00  0.0000000000000D+00
   323  3.2200000000000D+00  0.0000000000000D+00  0.0000000000000D+00
   324  3.2300000000000D+00  0.0000000000000D+00  0.0000000000000D+00
   325  3.2400000000000D+00  0.0000000000000D+00  0.0000000000000D+00
   326  3.2500000000000D+00  0.0000000000000D+00  0.0000000000000D+00
   327  3.2600000000000D+00  0.0000000000000D+00  0.0000000000000D+00
   328  3.2700000000000D+00  0.0000000000000D+00  0.0000000000000D+00
   329  3.2800000000000D+00  0.0000000000000D+00  0.0000000000000D+00
   330  3.2900000000000D+00  0.0000000000000D+00  0.0000000000000D+00
   331  3.3000000000000D+00  0.0000000000000D+00  0.0000000000000D+00
   332  3.3100000000000D+00  0.0000000000000D+00  0.0000000000000D+00
   333  3.3200000000000D+00  0.0000000000000D+00  0.0000000000000D+00
   334  3.3300000000000D+00  0.0000000000000D+00  0.0000000000000D+00
   335  3.3400000000000D+00  0.0000000000000D+00  0.0000000000000D+00
   336  3.3500000000000D+00  0.0000000000000D+00  0.0000000000000D+00
   337  3.3600000000000D+00  0.0000000000000D+00  0.0000000000000D+00
   338  3.3700000000000D+00  0.0000000000000D+00  0.0000000000000D+00
   339  3.3800000000000D+00  0.0000000000000D+00  0.0000000000000D+00
   340  3.3900000000000D+00  0.0000000000000D+00  0.0000000000000D+00
   341  3.4000000000000D+00  0.0000000000000D+00  0.0000000000000D+00
   342  3.4100000000000D+00  0.0000000000000D+00  0.0000000000000D+00
   343  3.4200000000000D+00  0.0000000000000D+00  0.0000000000000D+00
   344  3.4300000000000D+00  0.0000000000000D+00  0.0000000000000D+00
   345  3.4400000000000D+00  0.0000000000000D+00  0.0000000000000D+00
   346  3.4500000000000D+00  0.0000000000000D+00  0.0000000000000D+00
   347  3.4600000000000D+00  0.0000000000000D+00  0.0000000000000D+00
   348  3.4700000000000D+00  0.0000000000000D+00  0.0000000000000D+00
   349  3.4800000000000D+00  0.0000000000000D+00  0.0000000000000D+00
   350  3.4900000000000D+00  0.0000000000000D+00  0.0000000000000D+00
   351  3.5000000000000D+00  0.0000000000000D+00  0.0000000000000D+00
   352  3.5100000000000D+00  0.0000000000000D+00  0.0000000000000D+00
   353  3.5200000000000D+00  0.0000000000000D+00  0.0000000000000D+00
   354  3.5300000000000D+00  0.0000000000000D+00  0.0000000000000D+00
   355  3.5400000000000D+00  0.0000000000000D+00  0.0000000000000D+00
   356  3.5500000000000D+00  0.0000000000000D+00  0.0000000000000D+00
   357  3.5600000000000D+00  0.0000000000000D+00  0.0000000000000D+00
   358  3.5700000000000D+00  0.0000000000000D+00  0.0000000000000D+00
   359  3.5800000000000D+00  0.0000000000000D+00  0.0000000000000D+00
   360  3.5900000000000D+00  0.0000000000000D+00  0.0000000000000D+00
   361  3.6000000000000D+00  0.0000000000000D+00  0.0000000000000D+00
   362  3.6100000000000D+00  0.0000000000000D+00  0.0000000000000D+00
   363  3.6200000000000D+00  0.0000000000000D+00  0.0000000000000D+00
   364  3.6300000000000D+00  0.0000000000000D+00  0.0000000000000D+00
   365  3.6400000000000D+00  0.0000000000000D+00  0.0000000000000D+00
   366  3.6500000000000D+00  0.0000000000000D+00  0.0000000000000D+00
   367  3.6600000000000D+00  0.0000000000000D+00  0.0000000000000D+00
   368  3.6700000000000D+00  0.0000000000000D+00  0.0000000000000D+00
   369  3.6800000000000D+00  0.0000000000000D+00  0.0000000000000D+00
   370  3.6900000000000D+00  0.0000000000000D+00  0.0000000000000D+00
   371  3.7000000000000D+00  0.0000000000000D+00  0.0000000000000D+00
   372  3.7100000000000D+00  0.0000000000000D+00  0.0000000000000D+00
   373  3.7200000000000D+00  0.0000000000000D+00  0.0000000000000D+00
   374  3.7300000000000D+00  0.0000000000000D+00  0.0000000000000D+00
   375  3.7400000000000D+00  0.0000000000000D+00  0.0000000000000D+00
   376  3.7500000000000D+00  0.0000000000000D+00  0.0000000000000D+00
   377  3.7600000000000D+00  0.0000000000000D+00  0.0000000000000D+00
   378  3.7700000000000D+00  0.0000000000000D+00  0.0000000000000D+00
   379  3.7800000000000D+00  0.0000000000000D+00  0.0000000000000D+00
   380  3.7900000000000D+00  0.0000000000000D+00  0.0000000000000D+00
   381  3.8000000000000D+00  0.0000000000000D+00  0.0000000000000D+00
   382  3.8100000000000D+00  0.0000000000000D+00  0.0000000000000D+00
   383  3.8200000000000D+00  0.0000000000000D+00  0.0000000000000D+00
   384  3.8300000000000D+00  0.0000000000000D+00  0.0000000000000D+00
   385  3.8400000000000D+00  0.0000000000000D+00  0.0000000000000D+00
   386  3.8500000000000D+00  0.0000000000000D+00  0.0000000000000D+00
   387  3.8600000000000D+00  0.0000000000000D+00  0.0000000000000D+00
   388  3.8700000000000D+00  0.0000000000000D+00  0.0000000000000D+00
   389  3.8800000000000D+00  0.0000000000000D+00  0.0000000000000D+00
   390  3.8900000000000D+00  0.0000000000000D+00  0.0000000000000D+00
   391  3.9000000000000D+00  0.0000000000000D+00  0.0000000000000D+00
   392  3.9100000000000D+00  0.0000000000000D+00  0.0000000000000D+00
   393  3.9200000000000D+00  0.0000000000000D+00  0.0000000000000D+00
   394  3.9300000000000D+00  0.0000000000000D+00  0.0000000000000D+00
   395  3.9400000000000D+00  0.0000000000000D+00  0.0000000000000D+00
   396  3.9500000000000D+00  0.0000000000000D+00  0.0000000000000D+00
   397  3.9600000000000D+00  0.0000000000000D+00  0.0000000000000D+00
   398  3.9700000000000D+00  0.0000000000000D+00  0.0000000000000D+00
   399  3.9800000000000D+00  0.0000000000000D+00  0.0000000000000D+00
   400  3.9900000000000D+00  0.0000000000000D+00  0.0000000000000D+00
   401  4.0000000000000D+00  0.0000000000000D+00  0.0000000000000D+00
   402  4.0100000000000D+00  0.0000000000000D+00  0.0000000000000D+00
   403  4.0200000000000D+00  0.0000000000000D+00  0.0000000000000D+00
   404  4.0300000000000D+00  0.0000000000000D+00  0.0000000000000D+00
   405  4.0400000000000D+00  0.0000000000000D+00  0.0000000000000D+00
   406  4.0500000000000D+00  0.0000000000000D+00  0.0000000000000D+00
   407  4.0600000000000D+00  0.0000000000000D+00  0.0000000000000D+00
   408  4.0700000000000D+00  0.0000000000000D+00  0.0000000000000D+00
   409  4.0800000000000D+00  0.0000000000000D+00  0.0000000000000D+00
   410  4.0900000000000D+00  0.0000000000000D+00  0.0000000000000D+00
   411  4.1000000000000D+00  0.0000000000000D+00  0.0000000000000D+00
   412  4.1100000000000D+00  0.0000000000000D+00  0.0000000000000D+00
   413  4.1200000000000D+00  0.0000000000000D+00  0.0000000000000D+00
   414  4.1300000000000D+00  0.0000000000000D+00  0.0000000000000D+00
   415  4.1400000000000D+00  0.0000000000000D+00  0.0000000000000D+00
   416  4.1500000000000D+00  0.0000000000000D+00  0.0000000000000D+00
   417  4.1600000000000D+00  0.0000000000000D+00  0.0000000000000D+00
   418  4.1700000000000D+00  0.0000000000000D+00  0.0000000000000D+00
   419  4.1800000000000D+00  0.0000000000000D+00  0.0000000000000D+00
   420  4.1900000000000D+00  0.0000000000000D+00  0.0000000000000D+00
   421  4.2000000000000D+00  0.0000000000000D+00  0.0000000000000D+00
   422  4.2100000000000D+00  0.0000000000000D+00  0.0000000000000D+00
   423  4.2200000000000D+00  0.0000000000000D+00  0.0000000000000D+00