Si    ONCVPSP-3.3.1  r_core=   2.40480   3.56481
     14.0000      4.0000      210904    zatom,zion,pspd
     8      11   1     4   600     0    pspcod,pspxc,lmax,lloc,mmax,r2well
  5.99000000  0.00000000  0.00000000    rchrg fchrg qchrg
     2     2     0     0    nproj
     3     1           extension_switch
     4     0     0    nprojso
   0                         4.5224559867548D-01  6.9784198365068D+00
     1  0.0000000000000D+00 -2.2567808732887D-11  1.0026673935570D-11
     2  1.0000000000000D-02 -2.3503756383249D-02  2.8287652917286D-02
     3  2.0000000000000D-02 -4.6988691605681D-02  5.6577902586000D-02
     4  3.0000000000000D-02 -7.0435847123284D-02  8.4873235365138D-02
     5  4.0000000000000D-02 -9.3825990745141D-02  1.1317591740905D-01
     6  5.0000000000000D-02 -1.1713948260305D-01  1.4148788601311D-01
     7  6.0000000000000D-02 -1.4035614445702D-01  1.6981064268993D-01
     8  7.0000000000000D-02 -1.6345513342232D-01  1.9814514854119D-01
     9  8.0000000000000D-02 -1.8641482118127D-01  2.2649172248024D-01
    10  9.0000000000000D-02 -2.0921267971530D-01  2.5484994284799D-01
    11  1.0000000000000D-01 -2.3182517455926D-01  2.8321855295010D-01
    12  1.1000000000000D-01 -2.5422766654188D-01  3.1159537102615D-01
    13  1.2000000000000D-01 -2.7639432293248D-01  3.3997720514204D-01
    14  1.3000000000000D-01 -2.9829803886564D-01  3.6835977347555D-01
    15  1.4000000000000D-01 -3.1991036986240D-01  3.9673763044131D-01
    16  1.5000000000000D-01 -3.4120147620871D-01  4.2510409907558D-01
    17  1.6000000000000D-01 -3.6214007988980D-01  4.5345121007415D-01
    18  1.7000000000000D-01 -3.8269343471288D-01  4.8176964784717D-01
    19  1.8000000000000D-01 -4.0282731018043D-01  5.1004870392374D-01
    20  1.9000000000000D-01 -4.2250598960320D-01  5.3827623800700D-01
    21  2.0000000000000D-01 -4.4169228286425D-01  5.6643864694623D-01
    22  2.1000000000000D-01 -4.6034755416620D-01  5.9452084185759D-01
    23  2.2000000000000D-01 -4.7843176501090D-01  6.2250623358902D-01
    24  2.3000000000000D-01 -4.9590353257575D-01  6.5037672668733D-01
    25  2.4000000000000D-01 -5.1272020356389D-01  6.7811272198784D-01
    26  2.5000000000000D-01 -5.2883794351733D-01  7.0569312790804D-01
    27  2.6000000000000D-01 -5.4421184149118D-01  7.3309538048765D-01
    28  2.7000000000000D-01 -5.5879602989746D-01  7.6029547217799D-01
    29  2.8000000000000D-01 -5.7254381923484D-01  7.8726798934357D-01
    30  2.9000000000000D-01 -5.8540784732956D-01  8.1398615839957D-01
    31  3.0000000000000D-01 -5.9734024262123D-01  8.4042190046850D-01
    32  3.1000000000000D-01 -6.0829280093764D-01  8.6654589440090D-01
    33  3.2000000000000D-01 -6.1821717511188D-01  8.9232764796511D-01
    34  3.3000000000000D-01 -6.2706507670870D-01  9.1773557697365D-01
    35  3.4000000000000D-01 -6.3478848904018D-01  9.4273709207562D-01
    36  3.5000000000000D-01 -6.4133989056744D-01  9.6729869290840D-01
    37  3.6000000000000D-01 -6.4667248770500D-01  9.9138606926602D-01
    38  3.7000000000000D-01 -6.5074045596570D-01  1.0149642089074D+00
    39  3.8000000000000D-01 -6.5349918831114D-01  1.0379975115949D+00
    40  3.9000000000000D-01 -6.5490554950283D-01  1.0604499089213D+00
    41  4.0000000000000D-01 -6.5491813518238D-01  1.0822849894550D+00
    42  4.1000000000000D-01 -6.5349753435048D-01  1.1034661287036D+00
    43  4.2000000000000D-01 -6.5060659385715D-01  1.1239566233701D+00
    44  4.3000000000000D-01 -6.4621068346709D-01  1.1437198293526D+00
    45  4.4000000000000D-01 -6.4027796001938D-01  1.1627193029156D+00
    46  4.5000000000000D-01 -6.3277962916347D-01  1.1809189444404D+00
    47  4.6000000000000D-01 -6.2369020312186D-01  1.1982831441451D+00
    48  4.7000000000000D-01 -6.1298775290658D-01  1.2147769291500D+00
    49  4.8000000000000D-01 -6.0065415339792D-01  1.2303661112496D+00
    50  4.9000000000000D-01 -5.8667531968642D-01  1.2450174347435D+00
    51  5.0000000000000D-01 -5.7104143307495D-01  1.2586987236695D+00
    52  5.1000000000000D-01 -5.5374715514521D-01  1.2713790277782D+00
    53  5.2000000000000D-01 -5.3479182830605D-01  1.2830287665850D+00
    54  5.3000000000000D-01 -5.1417966126388D-01  1.2936198708348D+00
    55  5.4000000000000D-01 -4.9191989788449D-01  1.3031259207194D+00
    56  5.5000000000000D-01 -4.6802696795668D-01  1.3115222801919D+00
    57  5.6000000000000D-01 -4.4252061841283D-01  1.3187862267297D+00
    58  5.7000000000000D-01 -4.1542602361965D-01  1.3248970759109D+00
    59  5.8000000000000D-01 -3.8677387341512D-01  1.3298363001808D+00
    60  5.9000000000000D-01 -3.5660043764124D-01  1.3335876412018D+00
    61  6.0000000000000D-01 -3.2494760600263D-01  1.3361372151997D+00
    62  6.1000000000000D-01 -2.9186290217108D-01  1.3374736107400D+00
    63  6.2000000000000D-01 -2.5739947115339D-01  1.3375879783924D+00
    64  6.3000000000000D-01 -2.2161603904502D-01  1.3364741117684D+00
    65  6.4000000000000D-01 -1.8457684440523D-01  1.3341285194446D+00
    66  6.5000000000000D-01 -1.4635154061070D-01  1.3305504873193D+00
    67  6.6000000000000D-01 -1.0701506867118D-01  1.3257421309771D+00
    68  6.7000000000000D-01 -6.6647500126337D-02  1.3197084376800D+00
    69  6.8000000000000D-01 -2.5333849783562D-02  1.3124572976339D+00
    70  6.9000000000000D-01  1.6836141796104D-02  1.3039995242244D+00
    71  7.0000000000000D-01  5.9768256004141D-02  1.2943488629552D+00
    72  7.1000000000000D-01  1.0336407386448D-01  1.2835219888653D+00
    73  7.2000000000000D-01  1.4752128330662D-01  1.2715384922484D+00
    74  7.3000000000000D-01  1.9213401548327D-01  1.2584208525420D+00
    75  7.4000000000000D-01  2.3709320941436D-01  1.2441944003023D+00
    76  7.5000000000000D-01  2.8228700406367D-01  1.2288872672312D+00
    77  7.6000000000000D-01  3.2760115677932D-01  1.2125303242697D+00
    78  7.7000000000000D-01  3.7291948684976D-01  1.1951571078248D+00
    79  7.8000000000000D-01  4.1812434274692D-01  1.1768037342466D+00
    80  7.9000000000000D-01  4.6309709144826D-01  1.1575088027278D+00
    81  8.0000000000000D-01  5.0771862804768D-01  1.1373132868459D+00
    82  8.1000000000000D-01  5.5186990368560D-01  1.1162604150268D+00
    83  8.2000000000000D-01  5.9543246964929D-01  1.0943955402563D+00
    84  8.3000000000000D-01  6.3828903531667D-01  1.0717659994232D+00
    85  8.4000000000000D-01  6.8032403744280D-01  1.0484209627278D+00
    86  8.5000000000000D-01  7.2142421811629D-01  1.0244112736429D+00
    87  8.6000000000000D-01  7.6147920854474D-01  9.9978927996769D-01
    88  8.7000000000000D-01  8.0038211566539D-01  9.7460865656157D-01
    89  8.8000000000000D-01  8.3803010841837D-01  9.4892422040163D-01
    90  8.9000000000000D-01  8.7432500036783D-01  9.2279173865042D-01
    91  9.0000000000000D-01  9.0917382520901D-01  8.9626773047262D-01
    92  9.1000000000000D-01  9.4248940156092D-01  8.6940926338398D-01
    93  9.2000000000000D-01  9.7419088331102D-01  8.4227374496130D-01
    94  9.3000000000000D-01  1.0042042916549D+00  8.1491871078569D-01
    95  9.4000000000000D-01  1.0324630248584D+00  7.8740160953245D-01
    96  9.5000000000000D-01  1.0589083416616D+00  7.5977958616093D-01
    97  9.6000000000000D-01  1.0834898141488D+00  7.3210926419444D-01
    98  9.7000000000000D-01  1.1061657458186D+00  7.0444652811624D-01
    99  9.8000000000000D-01  1.1269035505119D+00  6.7684630693984D-01
   100  9.9000000000000D-01  1.1456800877897D+00  6.4936236004193D-01
   101  1.0000000000000D+00  1.1624819502932D+00  6.2204706637487D-01
   102  1.0100000000000D+00  1.1773056985764D+00  5.9495121819968D-01
   103  1.0200000000000D+00  1.1901580388657D+00  5.6812382050328D-01
   104  1.0300000000000D+00  1.2010559391778D+00  5.4161189728262D-01
   105  1.0400000000000D+00  1.2100266792178D+00  5.1546030589524D-01
   106  1.0500000000000D+00  1.2171078294777D+00  4.8971156068822D-01
   107  1.0600000000000D+00  1.2223471549674D+00  4.6440566712858D-01
   108  1.0700000000000D+00  1.2258024390344D+00  4.3957996766490D-01
   109  1.0800000000000D+00  1.2275412227623D+00  4.1526900055382D-01
   110  1.0900000000000D+00  1.2276404554853D+00  3.9150437288572D-01
   111  1.1000000000000D+00  1.2261860520124D+00  3.6831464904127D-01
   112  1.1100000000000D+00  1.2232723522187D+00  3.4572525580556D-01
   113  1.1200000000000D+00  1.2190014787491D+00  3.2375840535655D-01
   114  1.1300000000000D+00  1.2134825886607D+00  3.0243303733274D-01
   115  1.1400000000000D+00  1.2068310149383D+00  2.8176478116884D-01
   116  1.1500000000000D+00  1.1991672939049D+00  2.6176593987306D-01
   117  1.1600000000000D+00  1.1906160746961D+00  2.4244549639346D-01
   118  1.1700000000000D+00  1.1813049070789D+00  2.2380914369791D-01
   119  1.1800000000000D+00  1.1713629040301D+00  2.0585933966542D-01
   120  1.1900000000000D+00  1.1609192756195D+00  1.8859538785874D-01
   121  1.2000000000000D+00  1.1501017309232D+00  1.7201354520928D-01
   122  1.2100000000000D+00  1.1390347448507D+00  1.5610715760658D-01
   123  1.2200000000000D+00  1.1278376868589D+00  1.4086682436613D-01
   124  1.2300000000000D+00  1.1166228087920D+00  1.2628059248363D-01
   125  1.2400000000000D+00  1.1054930892294D+00  1.1233418154804D-01
   126  1.2500000000000D+00  1.0945399306794D+00  9.9011240117025D-02
   127  1.2600000000000D+00  1.0838407137113D+00  8.6293634543356D-02
   128  1.2700000000000D+00  1.0734562320549D+00  7.4161771758187D-02
   129  1.2800000000000D+00  1.0634276365340D+00  6.2594945642725D-02
   130  1.2900000000000D+00  1.0537742285425D+00  5.1571747233915D-02
   131  1.3000000000000D+00  1.0444911498445D+00  4.1070516972438D-02
   132  1.3100000000000D+00  1.0355409593375D+00  3.1069627502792D-02
   133  1.3200000000000D+00  1.0268542245677D+00  2.1548140729974D-02
   134  1.3300000000000D+00  1.0183350417351D+00  1.2486586685833D-02
   135  1.3400000000000D+00  1.0098690050751D+00  3.8675212224370D-03
   136  1.3500000000000D+00  1.0013315363238D+00 -4.3241164710567D-03
   137  1.3600000000000D+00  9.9259574255077D-01 -1.2100894014528D-02
   138  1.3700000000000D+00  9.8353915097207D-01 -1.9472980047237D-02
   139  1.3800000000000D+00  9.7404930299278D-01 -2.6448384392874D-02
   140  1.3900000000000D+00  9.6402784664547D-01 -3.3033311890076D-02
   141  1.4000000000000D+00  9.5339318110471D-01 -3.9232565662665D-02
   142  1.4100000000000D+00  9.4208183445775D-01 -4.5049976665661D-02
   143  1.4200000000000D+00  9.3004866102250D-01 -5.0488804840292D-02
   144  1.4300000000000D+00  9.1726619993635D-01 -5.5552107522646D-02
   145  1.4400000000000D+00  9.0372334811406D-01 -6.0243050114214D-02
   146  1.4500000000000D+00  8.8942366015113D-01 -6.4565153800261D-02
   147  1.4600000000000D+00  8.7438335703101D-01 -6.8522486623116D-02
   148  1.4700000000000D+00  8.5862934053421D-01 -7.2119792425239D-02
   149  1.4800000000000D+00  8.4219719021520D-01 -7.5362573615602D-02
   150  1.4900000000000D+00  8.2512932634403D-01 -7.8257129343288D-02
   151  1.5000000000000D+00  8.0747333401591D-01 -8.0810561483271D-02
   152  1.5100000000000D+00  7.8928049130203D-01 -8.3030753124797D-02
   153  1.5200000000000D+00  7.7060451454156D-01 -8.4926330088284D-02
   154  1.5300000000000D+00  7.5150049008663D-01 -8.6506606545909D-02
   155  1.5400000000000D+00  7.3202400839655D-01 -8.7781525429670D-02
   156  1.5500000000000D+00  7.1223045565996D-01 -8.8761591333097D-02
   157  1.5600000000000D+00  6.9217445622040D-01 -8.9457803958894D-02
   158  1.5700000000000D+00  6.7190943835000D-01 -8.9881590177318D-02
   159  1.5800000000000D+00  6.5148730435949D-01 -9.0044738870141D-02
   160  1.5900000000000D+00  6.3095818667998D-01 -8.9959337765518D-02
   161  1.6000000000000D+00  6.1037027420766D-01 -8.9637713758961D-02
   162  1.6100000000000D+00  5.8976969267629D-01 -8.9092376577025D-02
   163  1.6200000000000D+00  5.6920043149204D-01 -8.8335965962259D-02
   164  1.6300000000000D+00  5.4870430125290D-01 -8.7381202384027D-02
   165  1.6400000000000D+00  5.2832092126727D-01 -8.6240841029186D-02
   166  1.6500000000000D+00  5.0808772254461D-01 -8.4927628967322D-02
   167  1.6600000000000D+00  4.8803996944472D-01 -8.3454265253110D-02
   168  1.6700000000000D+00  4.6821078779257D-01 -8.1833363695762D-02
   169  1.6800000000000D+00  4.4863120394667D-01 -8.0077418205060D-02
   170  1.6900000000000D+00  4.2933018548498D-01 -7.8198770327462D-02
   171  1.7000000000000D+00  4.1033468774908D-01 -7.6209579023209D-02
   172  1.7100000000000D+00  3.9166969972210D-01 -7.4121792260332D-02
   173  1.7200000000000D+00  3.7335829254723D-01 -7.1947120561733D-02
   174  1.7300000000000D+00  3.5542166654346D-01 -6.9697012111485D-02
   175  1.7400000000000D+00  3.3787919896520D-01 -6.7382629582726D-02
   176  1.7500000000000D+00  3.2074849020213D-01 -6.5014828371328D-02
   177  1.7600000000000D+00  3.0404540973904D-01 -6.2604136377351D-02
   178  1.7700000000000D+00  2.8778414085404D-01 -6.0160735119522D-02
   179  1.7800000000000D+00  2.7197722470059D-01 -5.7694442277476D-02
   180  1.7900000000000D+00  2.5663560356108D-01 -5.5214695551932D-02
   181  1.8000000000000D+00  2.4176866350392D-01 -5.2730537881460D-02
   182  1.8100000000000D+00  2.2738427663619D-01 -5.0250603995094D-02
   183  1.8200000000000D+00  2.1348884302703D-01 -4.7783108294282D-02
   184  1.8300000000000D+00  2.0008733256944D-01 -4.5335834099750D-02
   185  1.8400000000000D+00  1.8718332691395D-01 -4.2916124238742D-02
   186  1.8500000000000D+00  1.7477906157560D-01 -4.0530873019527D-02
   187  1.8600000000000D+00  1.6287546857471D-01 -3.8186519590643D-02
   188  1.8700000000000D+00  1.5147221938344D-01 -3.5889042691059D-02
   189  1.8800000000000D+00  1.4056776879893D-01 -3.3643956844947D-02
   190  1.8900000000000D+00  1.3015939928238D-01 -3.1456309945768D-02
   191  1.9000000000000D+00  1.2024326639099D-01 -2.9330682323040D-02
   192  1.9100000000000D+00  1.1081444493240D-01 -2.7271187215245D-02
   193  1.9200000000000D+00  1.0186697616107D-01 -2.5281472714311D-02
   194  1.9300000000000D+00  9.3393915965766D-02 -2.3364725155378D-02
   195  1.9400000000000D+00  8.5387383930629D-02 -2.1523673915484D-02
   196  1.9500000000000D+00  7.7838613593147D-02 -1.9760597707901D-02
   197  1.9600000000000D+00  7.0738003374687D-02 -1.8077332186508D-02
   198  1.9700000000000D+00  6.4075168736768D-02 -1.6475279059344D-02
   199  1.9800000000000D+00  5.7838994965945D-02 -1.4955416460520D-02
   200  1.9900000000000D+00  5.2017690901045D-02 -1.3518310720959D-02
   201  2.0000000000000D+00  4.6598843360855D-02 -1.2164129412916D-02
   202  2.0100000000000D+00  4.1569472158341D-02 -1.0892655611564D-02
   203  2.0200000000000D+00  3.6916085789930D-02 -9.7033034396989D-03
   204  2.0300000000000D+00  3.2624737431863D-02 -8.5951346462713D-03
   205  2.0400000000000D+00  2.8681081404879D-02 -7.5668763918764D-03
   206  2.0500000000000D+00  2.5070429795612D-02 -6.6169399766288D-03
   207  2.0600000000000D+00  2.1777809212871D-02 -5.7434405558185D-03
   208  2.0700000000000D+00  1.8788017558851D-02 -4.9442177736555D-03
   209  2.0800000000000D+00  1.6085680650875D-02 -4.2168571304048D-03
   210  2.0900000000000D+00  1.3655308606943D-02 -3.5587121799225D-03
   211  2.1000000000000D+00  1.1481351871307D-02 -2.9669272981555D-03
   212  2.1100000000000D+00  9.5482567333751D-03 -2.4384610534848D-03
   213  2.1200000000000D+00  7.8405202292007D-03 -1.9701100617228D-03
   214  2.1300000000000D+00  6.3427443605211D-03 -1.5585331882596D-03
   215  2.1400000000000D+00  5.0396893794526D-03 -1.2002760937181D-03
   216  2.1500000000000D+00  3.9163262013165D-03 -8.9179594803877D-04
   217  2.1600000000000D+00  2.9578876936531D-03 -6.2948626154826D-04
   218  2.1700000000000D+00  2.1499187497052D-03 -4.0970172838593D-04
   219  2.1800000000000D+00  1.4783252051421D-03 -2.2878299346984D-04
   220  2.1900000000000D+00  9.2942119093356D-04 -8.3081218701925D-05
   221  2.2000000000000D+00  4.8997514070721D-04  3.1017599662485D-05
   222  2.2100000000000D+00  1.4725419677282D-04  1.1706868769420D-04
   223  2.2200000000000D+00 -1.1093313870567D-04  1.7854504598400D-04
   224  2.2300000000000D+00 -2.9619592918182D-04  2.1881447813067D-04
   225  2.2400000000000D+00 -4.1952171025055D-04  2.4111734415623D-04
   226  2.2500000000000D+00 -4.9123924323923D-04  2.4854501593256D-04
   227  2.2600000000000D+00 -5.2098312956867D-04  2.4401907173189D-04
   228  2.2700000000000D+00 -5.1766066150571D-04  2.3027153668192D-04
   229  2.2800000000000D+00 -4.8942058944324D-04  2.0982595560201D-04
   230  2.2900000000000D+00 -4.4362408593518D-04  1.8497955524309D-04
   231  2.3000000000000D+00 -3.8681800565163D-04  1.5778662087608D-04
   232  2.3100000000000D+00 -3.2471021221261D-04  1.3004286193374D-04
   233  2.3200000000000D+00 -2.6214735017829D-04  1.0327120283037D-04
   234  2.3300000000000D+00 -2.0311932446344D-04  7.8710676840361D-05
   235  2.3400000000000D+00 -1.5064410869378D-04  5.7297429761885D-05
   236  2.3500000000000D+00 -1.0675907502274D-04  3.9634946821470D-05
   237  2.3600000000000D+00 -7.2507851515866D-05  2.5986690616055D-05
   238  2.3700000000000D+00 -4.9093432266771D-05  1.6575077836381D-05
   239  2.3800000000000D+00 -3.6706836847918D-05  1.1293159686931D-05
   240  2.3900000000000D+00 -3.2909910450333D-05  9.2519898204608D-06
   241  2.4000000000000D+00 -3.1222960727981D-05  8.3977070178974D-06
   242  2.4100000000000D+00 -2.5296608097123D-05  6.7167085517612D-06
   243  2.4200000000000D+00 -1.4465923328662D-05  3.8280047584890D-06
   244  2.4300000000000D+00 -3.3792472465583D-06  8.9548017370861D-07
   245  2.4400000000000D+00  2.4400507217077D-06 -6.3548780559400D-07
   246  2.4500000000000D+00  2.8831397503216D-06 -7.4974413787419D-07
   247  2.4600000000000D+00  7.5630266395061D-07 -1.9651359247651D-07
   248  2.4700000000000D+00 -5.2693563222751D-07  1.3629758686758D-07
   249  2.4800000000000D+00 -6.3694922058958D-07  1.6449039561001D-07
   250  2.4900000000000D+00 -1.5493007241121D-07  3.9956813022515D-08
   251  2.5000000000000D+00  6.5067703274807D-08 -1.7377001424621D-08
   252  2.5100000000000D+00  7.9127957571942D-08 -2.1131937386014D-08
   253  2.5200000000000D+00  1.9201451468093D-08 -5.1279457045938D-09
   254  2.5300000000000D+00  0.0000000000000D+00  0.0000000000000D+00
   255  2.5400000000000D+00  0.0000000000000D+00  0.0000000000000D+00
   256  2.5500000000000D+00  0.0000000000000D+00  0.0000000000000D+00
   257  2.5600000000000D+00  0.0000000000000D+00  0.0000000000000D+00
   258  2.5700000000000D+00  0.0000000000000D+00  0.0000000000000D+00
   259  2.5800000000000D+00  0.0000000000000D+00  0.0000000000000D+00
   260  2.5900000000000D+00  0.0000000000000D+00  0.0000000000000D+00
   261  2.6000000000000D+00  0.0000000000000D+00  0.0000000000000D+00
   262  2.6100000000000D+00  0.0000000000000D+00  0.0000000000000D+00
   263  2.6200000000000D+00  0.0000000000000D+00  0.0000000000000D+00
   264  2.6300000000000D+00  0.0000000000000D+00  0.0000000000000D+00
   265  2.6400000000000D+00  0.0000000000000D+00  0.0000000000000D+00
   266  2.6500000000000D+00  0.0000000000000D+00  0.0000000000000D+00
   267  2.6600000000000D+00  0.0000000000000D+00  0.0000000000000D+00
   268  2.6700000000000D+00  0.0000000000000D+00  0.0000000000000D+00
   269  2.6800000000000D+00  0.0000000000000D+00  0.0000000000000D+00
   270  2.6900000000000D+00  0.0000000000000D+00  0.0000000000000D+00
   271  2.7000000000000D+00  0.0000000000000D+00  0.0000000000000D+00
   272  2.7100000000000D+00  0.0000000000000D+00  0.0000000000000D+00
   273  2.7200000000000D+00  0.0000000000000D+00  0.0000000000000D+00
   274  2.7300000000000D+00  0.0000000000000D+00  0.0000000000000D+00
   275  2.7400000000000D+00  0.0000000000000D+00  0.0000000000000D+00
   276  2.7500000000000D+00  0.0000000000000D+00  0.0000000000000D+00
   277  2.7600000000000D+00  0.0000000000000D+00  0.0000000000000D+00
   278  2.7700000000000D+00  0.0000000000000D+00  0.0000000000000D+00
   279  2.7800000000000D+00  0.0000000000000D+00  0.0000000000000D+00
   280  2.7900000000000D+00  0.0000000000000D+00  0.0000000000000D+00
   281  2.8000000000000D+00  0.0000000000000D+00  0.0000000000000D+00
   282  2.8100000000000D+00  0.0000000000000D+00  0.0000000000000D+00
   283  2.8200000000000D+00  0.0000000000000D+00  0.0000000000000D+00
   284  2.8300000000000D+00  0.0000000000000D+00  0.0000000000000D+00
   285  2.8400000000000D+00  0.0000000000000D+00  0.0000000000000D+00
   286  2.8500000000000D+00  0.0000000000000D+00  0.0000000000000D+00
   287  2.8600000000000D+00  0.0000000000000D+00  0.0000000000000D+00
   288  2.8700000000000D+00  0.0000000000000D+00  0.0000000000000D+00
   289  2.8800000000000D+00  0.0000000000000D+00  0.0000000000000D+00
   290  2.8900000000000D+00  0.0000000000000D+00  0.0000000000000D+00
   291  2.9000000000000D+00  0.0000000000000D+00  0.0000000000000D+00
   292  2.9100000000000D+00  0.0000000000000D+00  0.0000000000000D+00
   293  2.9200000000000D+00  0.0000000000000D+00  0.0000000000000D+00
   294  2.9300000000000D+00  0.0000000000000D+00  0.0000000000000D+00
   295  2.9400000000000D+00  0.0000000000000D+00  0.0000000000000D+00
   296  2.9500000000000D+00  0.0000000000000D+00  0.0000000000000D+00
   297  2.9600000000000D+00  0.0000000000000D+00  0.0000000000000D+00
   298  2.9700000000000D+00  0.0000000000000D+00  0.0000000000000D+00
   299  2.9800000000000D+00  0.0000000000000D+00  0.0000000000000D+00
   300  2.9900000000000D+00  0.0000000000000D+00  0.0000000000000D+00
   301  3.0000000000000D+00  0.0000000000000D+00  0.0000000000000D+00
   302  3.0100000000000D+00  0.0000000000000D+00  0.0000000000000D+00
   303  3.0200000000000D+00  0.0000000000000D+00  0.0000000000000D+00
   304  3.0300000000000D+00  0.0000000000000D+00  0.0000000000000D+00
   305  3.0400000000000D+00  0.0000000000000D+00  0.0000000000000D+00
   306  3.0500000000000D+00  0.0000000000000D+00  0.0000000000000D+00
   307  3.0600000000000D+00  0.0000000000000D+00  0.0000000000000D+00
   308  3.0700000000000D+00  0.0000000000000D+00  0.0000000000000D+00
   309  3.0800000000000D+00  0.0000000000000D+00  0.0000000000000D+00
   310  3.0900000000000D+00  0.0000000000000D+00  0.0000000000000D+00
   311  3.1000000000000D+00  0.0000000000000D+00  0.0000000000000D+00
   312  3.1100000000000D+00  0.0000000000000D+00  0.0000000000000D+00
   313  3.1200000000000D+00  0.0000000000000D+00  0.0000000000000D+00
   314  3.1300000000000D+00  0.0000000000000D+00  0.0000000000000D+00
   315  3.1400000000000D+00  0.0000000000000D+00  0.0000000000000D+00
   316  3.1500000000000D+00  0.0000000000000D+00  0.0000000000000D+00
   317  3.1600000000000D+00  0.0000000000000D+00  0.0000000000000D+00
   318  3.1700000000000D+00  0.0000000000000D+00  0.0000000000000D+00
   319  3.1800000000000D+00  0.0000000000000D+00  0.0000000000000D+00
   320  3.1900000000000D+00  0.0000000000000D+00  0.0000000000000D+00
   321  3.2000000000000D+00  0.0000000000000D+00  0.0000000000000D+00
   322  3.2100000000000D+00  0.0000000000000D+00  0.0000000000000D+00
   323  3.2200000000000D+00  0.0000000000000D+00  0.0000000000000D+00
   324  3.2300000000000D+00  0.0000000000000D+00  0.0000000000000D+00
   325  3.2400000000000D+00  0.0000000000000D+00  0.0000000000000D+00
   326  3.2500000000000D+00  0.0000000000000D+00  0.0000000000000D+00
   327  3.2600000000000D+00  0.0000000000000D+00  0.0000000000000D+00
   328  3.2700000000000D+00  0.0000000000000D+00  0.0000000000000D+00
   329  3.2800000000000D+00  0.0000000000000D+00  0.0000000000000D+00
   330  3.2900000000000D+00  0.0000000000000D+00  0.0000000000000D+00
   331  3.3000000000000D+00  0.0000000000000D+00  0.0000000000000D+00
   332  3.3100000000000D+00  0.0000000000000D+00  0.0000000000000D+00
   333  3.3200000000000D+00  0.0000000000000D+00  0.0000000000000D+00
   334  3.3300000000000D+00  0.0000000000000D+00  0.0000000000000D+00
   335  3.3400000000000D+00  0.0000000000000D+00  0.0000000000000D+00
   336  3.3500000000000D+00  0.0000000000000D+00  0.0000000000000D+00
   337  3.3600000000000D+00  0.0000000000000D+00  0.0000000000000D+00
   338  3.3700000000000D+00  0.0000000000000D+00  0.0000000000000D+00
   339  3.3800000000000D+00  0.0000000000000D+00  0.0000000000000D+00
   340  3.3900000000000D+00  0.0000000000000D+00  0.0000000000000D+00
   341  3.4000000000000D+00  0.0000000000000D+00  0.0000000000000D+00
   342  3.4100000000000D+00  0.0000000000000D+00  0.0000000000000D+00
   343  3.4200000000000D+00  0.0000000000000D+00  0.0000000000000D+00
   344  3.4300000000000D+00  0.0000000000000D+00  0.0000000000000D+00
   345  3.4400000000000D+00  0.0000000000000D+00  0.0000000000000D+00
   346  3.4500000000000D+00  0.0000000000000D+00  0.0000000000000D+00
   347  3.4600000000000D+00  0.0000000000000D+00  0.0000000000000D+00
   348  3.4700000000000D+00  0.0000000000000D+00  0.0000000000000D+00
   349  3.4800000000000D+00  0.0000000000000D+00  0.0000000000000D+00
   350  3.4900000000000D+00  0.0000000000000D+00  0.0000000000000D+00
   351  3.5000000000000D+00  0.0000000000000D+00  0.0000000000000D+00
   352  3.5100000000000D+00  0.0000000000000D+00  0.0000000000000D+00
   353  3.5200000000000D+00  0.0000000000000D+00  0.0000000000000D+00
   354  3.5300000000000D+00  0.0000000000000D+00  0.0000000000000D+00
   355  3.5400000000000D+00  0.0000000000000D+00  0.0000000000000D+00
   356  3.5500000000000D+00  0.0000000000000D+00  0.0000000000000D+00
   357  3.5600000000000D+00  0.0000000000000D+00  0.0000000000000D+00
   358  3.5700000000000D+00  0.0000000000000D+00  0.0000000000000D+00
   359  3.5800000000000D+00  0.0000000000000D+00  0.0000000000000D+00
   360  3.5900000000000D+00  0.0000000000000D+00  0.0000000000000D+00
   361  3.6000000000000D+00  0.0000000000000D+00  0.0000000000000D+00
   362  3.6100000000000D+00  0.0000000000000D+00  0.0000000000000D+00
   363  3.6200000000000D+00  0.0000000000000D+00  0.0000000000000D+00
   364  3.6300000000000D+00  0.0000000000000D+00  0.0000000000000D+00
   365  3.6400000000000D+00  0.0000000000000D+00  0.0000000000000D+00
   366  3.6500000000000D+00  0.0000000000000D+00  0.0000000000000D+00
   367  3.6600000000000D+00  0.0000000000000D+00  0.0000000000000D+00
   368  3.6700000000000D+00  0.0000000000000D+00  0.0000000000000D+00
   369  3.6800000000000D+00  0.0000000000000D+00  0.0000000000000D+00
   370  3.6900000000000D+00  0.0000000000000D+00  0.0000000000000D+00
   371  3.7000000000000D+00  0.0000000000000D+00  0.0000000000000D+00
   372  3.7100000000000D+00  0.0000000000000D+00  0.0000000000000D+00
   373  3.7200000000000D+00  0.0000000000000D+00  0.0000000000000D+00
   374  3.7300000000000D+00  0.0000000000000D+00  0.0000000000000D+00
   375  3.7400000000000D+00  0.0000000000000D+00  0.0000000000000D+00
   376  3.7500000000000D+00  0.0000000000000D+00  0.0000000000000D+00
   377  3.7600000000000D+00  0.0000000000000D+00  0.0000000000000D+00
   378  3.7700000000000D+00  0.0000000000000D+00  0.0000000000000D+00
   379  3.7800000000000D+00  0.0000000000000D+00  0.0000000000000D+00
   380  3.7900000000000D+00  0.0000000000000D+00  0.0000000000000D+00
   381  3.8000000000000D+00  0.0000000000000D+00  0.0000000000000D+00
   382  3.8100000000000D+00  0.0000000000000D+00  0.0000000000000D+00
   383  3.8200000000000D+00  0.0000000000000D+00  0.0000000000000D+00
   384  3.8300000000000D+00  0.0000000000000D+00  0.0000000000000D+00
   385  3.8400000000000D+00  0.0000000000000D+00  0.0000000000000D+00
   386  3.8500000000000D+00  0.0000000000000D+00  0.0000000000000D+00
   387  3.8600000000000D+00  0.0000000000000D+00  0.0000000000000D+00
   388  3.8700000000000D+00  0.0000000000000D+00  0.0000000000000D+00
   389  3.8800000000000D+00  0.0000000000000D+00  0.0000000000000D+00
   390  3.8900000000000D+00  0.0000000000000D+00  0.0000000000000D+00
   391  3.9000000000000D+00  0.0000000000000D+00  0.0000000000000D+00
   392  3.9100000000000D+00  0.0000000000000D+00  0.0000000000000D+00
   393  3.9200000000000D+00  0.0000000000000D+00  0.0000000000000D+00
   394  3.9300000000000D+00  0.0000000000000D+00  0.0000000000000D+00
   395  3.9400000000000D+00  0.0000000000000D+00  0.0000000000000D+00
   396  3.9500000000000D+00  0.0000000000000D+00  0.0000000000000D+00
   397  3.9600000000000D+00  0.0000000000000D+00  0.0000000000000D+00
   398  3.9700000000000D+00  0.0000000000000D+00  0.0000000000000D+00
   399  3.9800000000000D+00  0.0000000000000D+00  0.0000000000000D+00
   400  3.9900000000000D+00  0.0000000000000D+00  0.0000000000000D+00
   401  4.0000000000000D+00  0.0000000000000D+00  0.0000000000000D+00
   402  4.0100000000000D+00  0.0000000000000D+00  0.0000000000000D+00
   403  4.0200000000000D+00  0.0000000000000D+00  0.0000000000000D+00
   404  4.0300000000000D+00  0.0000000000000D+00  0.0000000000000D+00
   405  4.0400000000000D+00  0.0000000000000D+00  0.0000000000000D+00
   406  4.0500000000000D+00  0.0000000000000D+00  0.0000000000000D+00
   407  4.0600000000000D+00  0.0000000000000D+00  0.0000000000000D+00
   408  4.0700000000000D+00  0.0000000000000D+00  0.0000000000000D+00
   409  4.0800000000000D+00  0.0000000000000D+00  0.0000000000000D+00
   410  4.0900000000000D+00  0.0000000000000D+00  0.0000000000000D+00
   411  4.1000000000000D+00  0.0000000000000D+00  0.0000000000000D+00
   412  4.1100000000000D+00  0.0000000000000D+00  0.0000000000000D+00
   413  4.1200000000000D+00  0.0000000000000D+00  0.0000000000000D+00
   414  4.1300000000000D+00  0.0000000000000D+00  0.0000000000000D+00
   415  4.1400000000000D+00  0.0000000000000D+00  0.0000000000000D+00
   416  4.1500000000000D+00  0.0000000000000D+00  0.0000000000000D+00
   417  4.1600000000000D+00  0.0000000000000D+00  0.0000000000000D+00
   418  4.1700000000000D+00  0.0000000000000D+00  0.0000000000000D+00
   419  4.1800000000000D+00  0.0000000000000D+00  0.0000000000000D+00
   420  4.1900000000000D+00  0.0000000000000D+00  0.0000000000000D+00
   421  4.2000000000000D+00  0.0000000000000D+00  0.0000000000000D+00
   422  4.2100000000000D+00  0.0000000000000D+00  0.0000000000000D+00