Sn    ONCVPSP-3.3.1  r_core=   2.81773   2.95543   3.36982
     50.0000     14.0000      210904    zatom,zion,pspd
     8      11   2     4   600     0    pspcod,pspxc,lmax,lloc,mmax,r2well
  5.99000000  0.00000000  0.00000000    rchrg fchrg qchrg
     2     3     3     0    nproj
     3     1           extension_switch
     3     4     0    nprojso
   0                         1.3730653311150D+00  5.2893795625536D+00
     1  0.0000000000000D+00 -6.3818395013016D-12  1.7262025142628D-12
     2  1.0000000000000D-02  2.5911784224771D-02  7.6099159469302D-03
     3  2.0000000000000D-02  5.1743399496807D-02  1.5247304469489D-02
     4  3.0000000000000D-02  7.7414923284279D-02  2.2939548355698D-02
     5  4.0000000000000D-02  1.0284692521176D-01  3.0713851041505D-02
     6  5.0000000000000D-02  1.2796071142656D-01  3.8597147492177D-02
     7  6.0000000000000D-02  1.5267856691530D-01  4.6616015751375D-02
     8  7.0000000000000D-02  1.7692399509492D-01  5.4796589378450D-02
     9  8.0000000000000D-02  2.0062195400893D-01  6.3164470992750D-02
    10  9.0000000000000D-02  2.2369908846729D-01  7.1744647141529D-02
    11  1.0000000000000D-01  2.4608395747838D-01  8.0561404705492D-02
    12  1.1000000000000D-01  2.6770725633234D-01  8.9638249052898D-02
    13  1.2000000000000D-01  2.8850203270775D-01  9.8997824149736D-02
    14  1.3000000000000D-01  3.0840389618813D-01  1.0866183482954D-01
    15  1.4000000000000D-01  3.2735122059022D-01  1.1865097142211D-01
    16  1.5000000000000D-01  3.4528533852331D-01  1.2898483693562D-01
    17  1.6000000000000D-01  3.6215072761782D-01  1.3968187698146D-01
    18  1.7000000000000D-01  3.7789518788127D-01  1.5075931262554D-01
    19  1.8000000000000D-01  3.9247000966147D-01  1.6223307634378D-01
    20  1.9000000000000D-01  4.0583013171995D-01  1.7411775125305D-01
    21  2.0000000000000D-01  4.1793428894267D-01  1.8642651378214D-01
    22  2.1000000000000D-01  4.2874514924104D-01  1.9917107993989D-01
    23  2.2000000000000D-01  4.3822943922312D-01  2.1236165533032D-01
    24  2.3000000000000D-01  4.4635805824305D-01  2.2600688905613D-01
    25  2.4000000000000D-01  4.5310618046625D-01  2.4011383164423D-01
    26  2.5000000000000D-01  4.5845334461838D-01  2.5468789711743D-01
    27  2.6000000000000D-01  4.6238353111774D-01  2.6973282932808D-01
    28  2.7000000000000D-01  4.6488522632344D-01  2.8525067265943D-01
    29  2.8000000000000D-01  4.6595147366521D-01  3.0124174719118D-01
    30  2.9000000000000D-01  4.6557991145542D-01  3.1770462841501D-01
    31  3.0000000000000D-01  4.6377279721896D-01  3.3463613157630D-01
    32  3.1000000000000D-01  4.6053701841316D-01  3.5203130070666D-01
    33  3.2000000000000D-01  4.5588408944620D-01  3.6988340240177D-01
    34  3.3000000000000D-01  4.4983013494041D-01  3.8818392438715D-01
    35  3.4000000000000D-01  4.4239585922434D-01  4.0692257890356D-01
    36  3.5000000000000D-01  4.3360650207611D-01  4.2608731093175D-01
    37  3.6000000000000D-01  4.2349178077903D-01  4.4566431126459D-01
    38  3.7000000000000D-01  4.1208581858960D-01  4.6563803442271D-01
    39  3.8000000000000D-01  3.9942705975700D-01  4.8599122139731D-01
    40  3.9000000000000D-01  3.8555817127205D-01  5.0670492719202D-01
    41  4.0000000000000D-01  3.7052593156319D-01  5.2775855312294D-01
    42  4.1000000000000D-01  3.5438110639534D-01  5.4912988382392D-01
    43  4.2000000000000D-01  3.3717831226645D-01  5.7079512889143D-01
    44  4.3000000000000D-01  3.1897586763463D-01  5.9272896909133D-01
    45  4.4000000000000D-01  2.9983563234638D-01  6.1490460703707D-01
    46  4.5000000000000D-01  2.7982283567364D-01  6.3729382223686D-01
    47  4.6000000000000D-01  2.5900589340349D-01  6.5986703039509D-01
    48  4.7000000000000D-01  2.3745621446003D-01  6.8259334684107D-01
    49  4.8000000000000D-01  2.1524799757219D-01  7.0544065394635D-01
    50  4.9000000000000D-01  1.9245801853478D-01  7.2837567238053D-01
    51  5.0000000000000D-01  1.6916540864215D-01  7.5136403604327D-01
    52  5.1000000000000D-01  1.4545142490463D-01  7.7437037050001D-01
    53  5.2000000000000D-01  1.2139921268742D-01  7.9735837473722D-01
    54  5.3000000000000D-01  9.7093561439148D-02  8.2029090604320D-01
    55  5.4000000000000D-01  7.2620654203745D-02  8.4313006780990D-01
    56  5.5000000000000D-01  4.8067811633318D-02  8.6583730004173D-01
    57  5.6000000000000D-01  2.3523231242300D-02  8.8837347234835D-01
    58  5.7000000000000D-01 -9.2427733636486D-04  9.1069897918928D-01
    59  5.8000000000000D-01 -2.5185560314130D-02  9.3277383713048D-01
    60  5.9000000000000D-01 -4.9171390133545D-02  9.5455778386515D-01
    61  6.0000000000000D-01 -7.2792737469798D-02  9.7601037874407D-01
    62  6.1000000000000D-01 -9.5961044026491D-02  9.9709110455467D-01
    63  6.2000000000000D-01 -1.1858849529609D-01  1.0177594702818D+00
    64  6.3000000000000D-01 -1.4058829244877D-01  1.0379751145790D+00
    65  6.4000000000000D-01 -1.6187492250954D-01  1.0576979096737D+00
    66  6.5000000000000D-01 -1.8236442598196D-01  1.0768880654270D+00
    67  6.6000000000000D-01 -2.0197466107824D-01  1.0955062332665D+00
    68  6.7000000000000D-01 -2.2062556371927D-01  1.1135136097064D+00
    69  6.8000000000000D-01 -2.3823940247513D-01  1.1308720391706D+00
    70  6.9000000000000D-01 -2.5474102762568D-01  1.1475441158328D+00
    71  7.0000000000000D-01 -2.7005811353358D-01  1.1634932841873D+00
    72  7.1000000000000D-01 -2.8412139353654D-01  1.1786839380678D+00
    73  7.2000000000000D-01 -2.9686488658369D-01  1.1930815178318D+00
    74  7.3000000000000D-01 -3.0822611486128D-01  1.2066526054310D+00
    75  7.4000000000000D-01 -3.1814631167606D-01  1.2193650170946D+00
    76  7.5000000000000D-01 -3.2657061889049D-01  1.2311878933531D+00
    77  7.6000000000000D-01 -3.3344827323251D-01  1.2420917861407D+00
    78  7.7000000000000D-01 -3.3873278083307D-01  1.2520487427160D+00
    79  7.8000000000000D-01 -3.4238207937880D-01  1.2610323861518D+00
    80  7.9000000000000D-01 -3.4435868730202D-01  1.2690179921509D+00
    81  8.0000000000000D-01 -3.4462983946929D-01  1.2759825619550D+00
    82  8.1000000000000D-01 -3.4316760886935D-01  1.2819048911224D+00
    83  8.2000000000000D-01 -3.3994901384370D-01  1.2867656339615D+00
    84  8.3000000000000D-01 -3.3495611044763D-01  1.2905473634192D+00
    85  8.4000000000000D-01 -3.2817606957517D-01  1.2932346262328D+00
    86  8.5000000000000D-01 -3.1960123852942D-01  1.2948139931703D+00
    87  8.6000000000000D-01 -3.0922918676887D-01  1.2952741041936D+00
    88  8.7000000000000D-01 -2.9706273561091D-01  1.2946057083968D+00
    89  8.8000000000000D-01 -2.8310997172544D-01  1.2928016985824D+00
    90  8.9000000000000D-01 -2.6738424430434D-01  1.2898571403584D+00
    91  9.0000000000000D-01 -2.4990414584628D-01  1.2857692956487D+00
    92  9.1000000000000D-01 -2.3069347655028D-01  1.2805376405309D+00
    93  9.2000000000000D-01 -2.0978119236648D-01  1.2741638773289D+00
    94  9.3000000000000D-01 -1.8720133680730D-01  1.2666519409052D+00
    95  9.4000000000000D-01 -1.6299295667730D-01  1.2580079991145D+00
    96  9.5000000000000D-01 -1.3720000193499D-01  1.2482404473990D+00
    97  9.6000000000000D-01 -1.0987120995426D-01  1.2373598975214D+00
    98  9.7000000000000D-01 -8.1059974506730D-02  1.2253791604496D+00
    99  9.8000000000000D-01 -5.0824199840361D-02  1.2123132234264D+00
   100  9.9000000000000D-01 -1.9226140281163D-02  1.1981792212722D+00
   101  1.0000000000000D+00  1.3667774163838D-02  1.1829964019895D+00
   102  1.0100000000000D+00  4.7787125674436D-02  1.1667860867526D+00
   103  1.0200000000000D+00  8.3057709380119D-02  1.1495716243851D+00
   104  1.0300000000000D+00  1.1940174639458D-01  1.1313783404437D+00
   105  1.0400000000000D+00  1.5673810845718D-01  1.1122334810445D+00
   106  1.0500000000000D+00  1.9498255347017D-01  1.0921661515827D+00
   107  1.0600000000000D+00  2.3404797118369D-01  1.0712072505146D+00
   108  1.0700000000000D+00  2.7384463824190D-01  1.0493893983843D+00
   109  1.0800000000000D+00  3.1428048176771D-01  1.0267468622939D+00
   110  1.0900000000000D+00  3.5526135063490D-01  1.0033154760294D+00
   111  1.1000000000000D+00  3.9669129354294D-01  9.7913255606720D-01
   112  1.1100000000000D+00  4.3847284298665D-01  9.5423681370209D-01
   113  1.1200000000000D+00  4.8050730418843D-01  9.2866826354615D-01
   114  1.1300000000000D+00  5.2269504804267D-01  9.0246812866216D-01
   115  1.1400000000000D+00  5.6493580710481D-01  8.7567874260342D-01
   116  1.1500000000000D+00  6.0712897364386D-01  8.4834344864353D-01
   117  1.1600000000000D+00  6.4917389876955D-01  8.2050649648758D-01
   118  1.1700000000000D+00  6.9097019163954D-01  7.9221293676333D-01
   119  1.1800000000000D+00  7.3241801774841D-01  7.6350851359863D-01
   120  1.1900000000000D+00  7.7341839530295D-01  7.3443955559738D-01
   121  1.2000000000000D+00  8.1387348869601D-01  7.0505286553048D-01
   122  1.2100000000000D+00  8.5368689809378D-01  6.7539560906159D-01
   123  1.2200000000000D+00  8.9276394416942D-01  6.4551520283178D-01
   124  1.2300000000000D+00  9.3101194703323D-01  6.1545920222709D-01
   125  1.2400000000000D+00  9.6834049842368D-01  5.8527518915430D-01
   126  1.2500000000000D+00  1.0046617262472D+00  5.5501066015026D-01
   127  1.2600000000000D+00  1.0398905505915D+00  5.2471291514708D-01
   128  1.2700000000000D+00  1.0739449303567D+00  4.9442894721352D-01
   129  1.2800000000000D+00  1.1067460996745D+00  4.6420533359098D-01
   130  1.2900000000000D+00  1.1382187933505D+00  4.3408812833353D-01
   131  1.3000000000000D+00  1.1682914605752D+00  4.0412275685882D-01
   132  1.3100000000000D+00  1.1968964661905D+00  3.7435391271202D-01
   133  1.3200000000000D+00  1.2239702788828D+00  3.4482545682845D-01
   134  1.3300000000000D+00  1.2494536456673D+00  3.1558031958240D-01
   135  1.3400000000000D+00  1.2732917520992D+00  2.8666040589645D-01
   136  1.3500000000000D+00  1.2954343677444D+00  2.5810650366423D-01
   137  1.3600000000000D+00  1.3158359763902D+00  2.2995819575191D-01
   138  1.3700000000000D+00  1.3344558906395D+00  2.0225377580811D-01
   139  1.3800000000000D+00  1.3512583505556D+00  1.7503016810406D-01
   140  1.3900000000000D+00  1.3662126059982D+00  1.4832285163540D-01
   141  1.4000000000000D+00  1.3792929825235D+00  1.2216578865862D-01
   142  1.4100000000000D+00  1.3904789305995D+00  9.6591357865254D-02
   143  1.4200000000000D+00  1.3997550580443D+00  7.1630292358974D-02
   144  1.4300000000000D+00  1.4071111457088D+00  4.7311622568338D-02
   145  1.4400000000000D+00  1.4125421462725D+00  2.3662624270821D-02
   146  1.4500000000000D+00  1.4160481663932D+00  7.0877180097131D-04
   147  1.4600000000000D+00  1.4176344322039D+00 -2.1526303415882D-02
   148  1.4700000000000D+00  1.4173112384151D+00 -4.3020848936712D-02
   149  1.4800000000000D+00  1.4150938812924D+00 -6.3755021921139D-02
   150  1.4900000000000D+00  1.4110025757008D+00 -8.3710914209234D-02
   151  1.5000000000000D+00  1.4050623567686D+00 -1.0287257188679D-01
   152  1.5100000000000D+00  1.3973029663459D+00 -1.2122600924134D-01
   153  1.5200000000000D+00  1.3877587249593D+00 -1.3875921718785D-01
   154  1.5300000000000D+00  1.3764683895909D+00 -1.5546216611886D-01
   155  1.5400000000000D+00  1.3634749979606D+00 -1.7132680324993D-01
   156  1.5500000000000D+00  1.3488256998787D+00 -1.8634704450047D-01
   157  1.5600000000000D+00  1.3325715762879D+00 -2.0051876095862D-01
   158  1.5700000000000D+00  1.3147674467796D+00 -2.1383976005530D-01
   159  1.5800000000000D+00  1.2954716661617D+00 -2.2630976147568D-01
   160  1.5900000000000D+00  1.2747459110273D+00 -2.3793036800974D-01
   161  1.6000000000000D+00  1.2526549568980D+00 -2.4870503135907D-01
   162  1.6100000000000D+00  1.2292664469807D+00 -2.5863901315585D-01
   163  1.6200000000000D+00  1.2046506531681D+00 -2.6773934122649D-01
   164  1.6300000000000D+00  1.1788802303237D+00 -2.7601476137512D-01
   165  1.6400000000000D+00  1.1520299645802D+00 -2.8347568475928D-01
   166  1.6500000000000D+00  1.1241765166505D+00 -2.9013413113208D-01
   167  1.6600000000000D+00  1.0953981609687D+00 -2.9600366806591D-01
   168  1.6700000000000D+00  1.0657745216131D+00 -3.0109934642953D-01
   169  1.6800000000000D+00  1.0353863058905D+00 -3.0543763226786D-01
   170  1.6900000000000D+00  1.0043150364796D+00 -3.0903633535578D-01
   171  1.7000000000000D+00  9.7264278305721D-01 -3.1191453460125D-01
   172  1.7100000000000D+00  9.4045189423326D-01 -3.1409250056840D-01
   173  1.7200000000000D+00  9.0782473075861D-01 -3.1559161531600D-01
   174  1.7300000000000D+00  8.7484340072484D-01 -3.1643428981816D-01
   175  1.7400000000000D+00  8.4158949777870D-01 -3.1664387918062D-01
   176  1.7500000000000D+00  8.0814384290552D-01 -3.1624459590765D-01
   177  1.7600000000000D+00  7.7458623090714D-01 -3.1526142145444D-01
   178  1.7700000000000D+00  7.4099518188075D-01 -3.1372001629396D-01
   179  1.7800000000000D+00  7.0744769899772D-01 -3.1164662876523D-01
   180  1.7900000000000D+00  6.7401903254049D-01 -3.0906800288502D-01
   181  1.8000000000000D+00  6.4078245172777D-01 -3.0601128543571D-01
   182  1.8100000000000D+00  6.0780902392910D-01 -3.0250393245069D-01
   183  1.8200000000000D+00  5.7516740291074D-01 -2.9857361544918D-01
   184  1.8300000000000D+00  5.4292362556328D-01 -2.9424812749819D-01
   185  1.8400000000000D+00  5.1114091857686D-01 -2.8955528945452D-01
   186  1.8500000000000D+00  4.7987951465228D-01 -2.8452285646311D-01
   187  1.8600000000000D+00  4.4919647925235D-01 -2.7917842501229D-01
   188  1.8700000000000D+00  4.1914554787789D-01 -2.7354934067354D-01
   189  1.8800000000000D+00  3.8977697357144D-01 -2.6766260653230D-01
   190  1.8900000000000D+00  3.6113738665957D-01 -2.6154479297948D-01
   191  1.9000000000000D+00  3.3326967216566D-01 -2.5522195076539D-01
   192  1.9100000000000D+00  3.0621281675681D-01 -2.4871951187125D-01
   193  1.9200000000000D+00  2.8000189563653D-01 -2.4206223434752D-01
   194  1.9300000000000D+00  2.5466790279312D-01 -2.3527409105124D-01
   195  1.9400000000000D+00  2.3023753542592D-01 -2.2837814871440D-01
   196  1.9500000000000D+00  2.0673331993101D-01 -2.2139654786045D-01
   197  1.9600000000000D+00  1.8417384703198D-01 -2.1435051317458D-01
   198  1.9700000000000D+00  1.6257396722237D-01 -2.0726035647456D-01
   199  1.9800000000000D+00  1.4194499763745D-01 -2.0014550221378D-01
   200  1.9900000000000D+00  1.2229519606057D-01 -1.9302458913864D-01
   201  2.0000000000000D+00  1.0362962587187D-01 -1.8591538889799D-01
   202  2.0100000000000D+00  8.5950200094543D-02 -1.7883478481304D-01
   203  2.0200000000000D+00  6.9255778750302D-02 -1.7179876316649D-01
   204  2.0300000000000D+00  5.3542286282996D-02 -1.6482241043324D-01
   205  2.0400000000000D+00  3.8802791084928D-02 -1.5791990121900D-01
   206  2.0500000000000D+00  2.5027625431982D-02 -1.5110449844995D-01
   207  2.0600000000000D+00  1.2204500125386D-02 -1.4438855281062D-01
   208  2.0700000000000D+00  3.1862919073116D-04 -1.3778350611430D-01
   209  2.0800000000000D+00 -1.0647139071246D-02 -1.3129989746878D-01
   210  2.0900000000000D+00 -2.0712185240916D-02 -1.2494737218980D-01
   211  2.1000000000000D+00 -2.9897976709986D-02 -1.1873469343657D-01
   212  2.1100000000000D+00 -3.8227921272749D-02 -1.1266975619847D-01
   213  2.1200000000000D+00 -4.5727217013183D-02 -1.0675960373330D-01
   214  2.1300000000000D+00 -5.2422699138956D-02 -1.0101044613141D-01
   215  2.1400000000000D+00 -5.8342684522740D-02 -9.5427680912400D-02
   216  2.1500000000000D+00 -6.3516814803537D-02 -9.0015915527261D-02
   217  2.1600000000000D+00 -6.7975898227903D-02 -8.4778991556762D-02
   218  2.1700000000000D+00 -7.1751751700382D-02 -7.9720010472893D-02
   219  2.1800000000000D+00 -7.4877043027038D-02 -7.4841360810582D-02
   220  2.1900000000000D+00 -7.7385134100239D-02 -7.0144746596154D-02
   221  2.2000000000000D+00 -7.9309926396680D-02 -6.5631216815002D-02
   222  2.2100000000000D+00 -8.0685708032037D-02 -6.1301195895238D-02
   223  2.2200000000000D+00 -8.1547004358180D-02 -5.7154514903225D-02
   224  2.2300000000000D+00 -8.1928432131038D-02 -5.3190443361962D-02
   225  2.2400000000000D+00 -8.1864556784664D-02 -4.9407721686471D-02
   226  2.2500000000000D+00 -8.1389755730957D-02 -4.5804593755267D-02
   227  2.2600000000000D+00 -8.0538085600526D-02 -4.2378839850377D-02
   228  2.2700000000000D+00 -7.9343155124993D-02 -3.9127809650325D-02
   229  2.2800000000000D+00 -7.7838004880521D-02 -3.6048455018581D-02
   230  2.2900000000000D+00 -7.6054991905156D-02 -3.3137362847730D-02
   231  2.3000000000000D+00 -7.4025682133782D-02 -3.0390787415671D-02
   232  2.3100000000000D+00 -7.1780749957016D-02 -2.7804682308494D-02
   233  2.3200000000000D+00 -6.9349883451194D-02 -2.5374732108977D-02
   234  2.3300000000000D+00 -6.6761699398431D-02 -2.3096383070968D-02
   235  2.3400000000000D+00 -6.4043664805438D-02 -2.0964873305132D-02
   236  2.3500000000000D+00 -6.1222025697713D-02 -1.8975262288501D-02
   237  2.3600000000000D+00 -5.8321745973285D-02 -1.7122459128746D-02
   238  2.3700000000000D+00 -5.5366452637943D-02 -1.5401250210868D-02
   239  2.3800000000000D+00 -5.2378389564433D-02 -1.3806325772703D-02
   240  2.3900000000000D+00 -4.9378380781812D-02 -1.2332305159104D-02
   241  2.4000000000000D+00 -4.6385800101846D-02 -1.0973761321574D-02
   242  2.4100000000000D+00 -4.3418549989702D-02 -9.7252439381226D-03
   243  2.4200000000000D+00 -4.0493049077461D-02 -8.5813012154371D-03
   244  2.4300000000000D+00 -3.7624225785788D-02 -7.5365008370114D-03
   245  2.4400000000000D+00 -3.4825521387432D-02 -6.5854493145976D-03
   246  2.4500000000000D+00 -3.2108900590090D-02 -5.7228100835925D-03
   247  2.4600000000000D+00 -2.9484867808430D-02 -4.9433206846706D-03
   248  2.4700000000000D+00 -2.6962492505546D-02 -4.2418082381214D-03
   249  2.4800000000000D+00 -2.4549440812564D-02 -3.6132037593202D-03
   250  2.4900000000000D+00 -2.2252012234109D-02 -3.0525555404271D-03
   251  2.5000000000000D+00 -2.0075184478191D-02 -2.5550408280769D-03
   252  2.5100000000000D+00 -1.8022663297463D-02 -2.1159764555139D-03
   253  2.5200000000000D+00 -1.6096936644726D-02 -1.7308285599059D-03
   254  2.5300000000000D+00 -1.4299335486160D-02 -1.3952207085823D-03
   255  2.5400000000000D+00 -1.2630098387983D-02 -1.1049410967614D-03
   256  2.5500000000000D+00 -1.1088439511634D-02 -8.5594888293453D-04
   257  2.5600000000000D+00 -9.6726213720654D-03 -6.4437914514930D-04
   258  2.5700000000000D+00 -8.3800301776024D-03 -4.6654702246098D-04
   259  2.5800000000000D+00 -7.2072535773241D-03 -3.1895107486027D-04
   260  2.5900000000000D+00 -6.1501610072121D-03 -1.9827554962283D-04
   261  2.6000000000000D+00 -5.2039854356398D-03 -1.0139194730226D-04
   262  2.6100000000000D+00 -4.3634064657145D-03 -2.5359907010981D-05
   263  2.6200000000000D+00 -3.6226338184026D-03  3.2572677656474D-05
   264  2.6300000000000D+00 -2.9754909543586D-03  7.4970114973554D-05
   265  2.6400000000000D+00 -2.4154989881725D-03  1.0420993754291D-04
   266  2.6500000000000D+00 -1.9359590008091D-03  1.2248438178454D-04
   267  2.6600000000000D+00 -1.5300330064505D-03  1.3180227336875D-04
   268  2.6700000000000D+00 -1.1908241570563D-03  1.3399135488451D-04
   269  2.6800000000000D+00 -9.1145394116412D-04  1.3070083174758D-04
   270  2.6900000000000D+00 -6.8513614713893D-04  1.2340408718894D-04
   271  2.7000000000000D+00 -5.0524903049327D-04  1.1340170952107D-04
   272  2.7100000000000D+00 -3.6540400123538D-04  1.0182463606206D-04
   273  2.7200000000000D+00 -2.5952129717727D-04  8.9644172268604D-05
   274  2.7300000000000D+00 -1.8191921368163D-04  7.7691272111872D-05
   275  2.7400000000000D+00 -1.2713766695637D-04  6.6530055436296D-05
   276  2.7500000000000D+00 -9.0292791098795D-05  5.6630470288302D-05
   277  2.7600000000000D+00 -6.6612837163039D-05  4.7970361583706D-05
   278  2.7700000000000D+00 -5.3115846973194D-05  4.1365970213982D-05
   279  2.7800000000000D+00 -4.7012713460907D-05  3.7160053405057D-05
   280  2.7900000000000D+00 -4.6633934732300D-05  3.6023754958222D-05
   281  2.8000000000000D+00 -4.8493678563292D-05  3.6446882567926D-05
   282  2.8100000000000D+00 -4.8347446461062D-05  3.5695575563860D-05
   283  2.8200000000000D+00 -4.2921496271369D-05  3.1420149396941D-05
   284  2.8300000000000D+00 -3.0093148263284D-05  2.1866727230549D-05
   285  2.8400000000000D+00 -1.5137432521604D-05  1.0949940514098D-05
   286  2.8500000000000D+00 -1.7103341483141D-06  1.2339266968487D-06
   287  2.8600000000000D+00  4.1172957011793D-06 -2.9550824582675D-06
   288  2.8700000000000D+00  4.6156518998731D-06 -3.3039098014819D-06
   289  2.8800000000000D+00  2.0194503471924D-06 -1.4423327561513D-06
   290  2.8900000000000D+00 -4.8759349429400D-07  3.5491893396426D-07
   291  2.9000000000000D+00 -1.0670519211014D-06  7.7643027649673D-07
   292  2.9100000000000D+00 -8.1187263959885D-07  5.9057338906075D-07
   293  2.9200000000000D+00 -3.3807928028590D-08  2.4586235862087D-08
   294  2.9300000000000D+00  1.0417549348635D-07 -7.6431315220315D-08
   295  2.9400000000000D+00  1.2358858270654D-07 -9.0674280546725D-08
   296  2.9500000000000D+00  5.6571207851399D-08 -4.1505076433841D-08
   297  2.9600000000000D+00  0.0000000000000D+00  0.0000000000000D+00
   298  2.9700000000000D+00  0.0000000000000D+00  0.0000000000000D+00
   299  2.9800000000000D+00  0.0000000000000D+00  0.0000000000000D+00
   300  2.9900000000000D+00  0.0000000000000D+00  0.0000000000000D+00
   301  3.0000000000000D+00  0.0000000000000D+00  0.0000000000000D+00
   302  3.0100000000000D+00  0.0000000000000D+00  0.0000000000000D+00
   303  3.0200000000000D+00  0.0000000000000D+00  0.0000000000000D+00
   304  3.0300000000000D+00  0.0000000000000D+00  0.0000000000000D+00
   305  3.0400000000000D+00  0.0000000000000D+00  0.0000000000000D+00
   306  3.0500000000000D+00  0.0000000000000D+00  0.0000000000000D+00
   307  3.0600000000000D+00  0.0000000000000D+00  0.0000000000000D+00
   308  3.0700000000000D+00  0.0000000000000D+00  0.0000000000000D+00
   309  3.0800000000000D+00  0.0000000000000D+00  0.0000000000000D+00
   310  3.0900000000000D+00  0.0000000000000D+00  0.0000000000000D+00
   311  3.1000000000000D+00  0.0000000000000D+00  0.0000000000000D+00
   312  3.1100000000000D+00  0.0000000000000D+00  0.0000000000000D+00
   313  3.1200000000000D+00  0.0000000000000D+00  0.0000000000000D+00
   314  3.1300000000000D+00  0.0000000000000D+00  0.0000000000000D+00
   315  3.1400000000000D+00  0.0000000000000D+00  0.0000000000000D+00
   316  3.1500000000000D+00  0.0000000000000D+00  0.0000000000000D+00
   317  3.1600000000000D+00  0.0000000000000D+00  0.0000000000000D+00
   318  3.1700000000000D+00  0.0000000000000D+00  0.0000000000000D+00
   319  3.1800000000000D+00  0.0000000000000D+00  0.0000000000000D+00
   320  3.1900000000000D+00  0.0000000000000D+00  0.0000000000000D+00
   321  3.2000000000000D+00  0.0000000000000D+00  0.0000000000000D+00
   322  3.2100000000000D+00  0.0000000000000D+00  0.0000000000000D+00
   323  3.2200000000000D+00  0.0000000000000D+00  0.0000000000000D+00
   324  3.2300000000000D+00  0.0000000000000D+00  0.0000000000000D+00
   325  3.2400000000000D+00  0.0000000000000D+00  0.0000000000000D+00
   326  3.2500000000000D+00  0.0000000000000D+00  0.0000000000000D+00
   327  3.2600000000000D+00  0.0000000000000D+00  0.0000000000000D+00
   328  3.2700000000000D+00  0.0000000000000D+00  0.0000000000000D+00
   329  3.2800000000000D+00  0.0000000000000D+00  0.0000000000000D+00
   330  3.2900000000000D+00  0.0000000000000D+00  0.0000000000000D+00
   331  3.3000000000000D+00  0.0000000000000D+00  0.0000000000000D+00
   332  3.3100000000000D+00  0.0000000000000D+00  0.0000000000000D+00
   333  3.3200000000000D+00  0.0000000000000D+00  0.0000000000000D+00
   334  3.3300000000000D+00  0.0000000000000D+00  0.0000000000000D+00
   335  3.3400000000000D+00  0.0000000000000D+00  0.0000000000000D+00
   336  3.3500000000000D+00  0.0000000000000D+00  0.0000000000000D+00
   337  3.3600000000000D+00  0.0000000000000D+00  0.0000000000000D+00
   338  3.3700000000000D+00  0.0000000000000D+00  0.0000000000000D+00
   339  3.3800000000000D+00  0.0000000000000D+00  0.0000000000000D+00
   340  3.3900000000000D+00  0.0000000000000D+00  0.0000000000000D+00
   341  3.4000000000000D+00  0.0000000000000D+00  0.0000000000000D+00
   342  3.4100000000000D+00  0.0000000000000D+00  0.0000000000000D+00
   343  3.4200000000000D+00  0.0000000000000D+00  0.0000000000000D+00
   344  3.4300000000000D+00  0.0000000000000D+00  0.0000000000000D+00
   345  3.4400000000000D+00  0.0000000000000D+00  0.0000000000000D+00
   346  3.4500000000000D+00  0.0000000000000D+00  0.0000000000000D+00
   347  3.4600000000000D+00  0.0000000000000D+00  0.0000000000000D+00
   348  3.4700000000000D+00  0.0000000000000D+00  0.0000000000000D+00
   349  3.4800000000000D+00  0.0000000000000D+00  0.0000000000000D+00
   350  3.4900000000000D+00  0.0000000000000D+00  0.0000000000000D+00
   351  3.5000000000000D+00  0.0000000000000D+00  0.0000000000000D+00
   352  3.5100000000000D+00  0.0000000000000D+00  0.0000000000000D+00
   353  3.5200000000000D+00  0.0000000000000D+00  0.0000000000000D+00
   354  3.5300000000000D+00  0.0000000000000D+00  0.0000000000000D+00
   355  3.5400000000000D+00  0.0000000000000D+00  0.0000000000000D+00
   356  3.5500000000000D+00  0.0000000000000D+00  0.0000000000000D+00
   357  3.5600000000000D+00  0.0000000000000D+00  0.0000000000000D+00
   358  3.5700000000000D+00  0.0000000000000D+00  0.0000000000000D+00
   359  3.5800000000000D+00  0.0000000000000D+00  0.0000000000000D+00
   360  3.5900000000000D+00  0.0000000000000D+00  0.0000000000000D+00
   361  3.6000000000000D+00  0.0000000000000D+00  0.0000000000000D+00
   362  3.6100000000000D+00  0.0000000000000D+00  0.0000000000000D+00
   363  3.6200000000000D+00  0.0000000000000D+00  0.0000000000000D+00
   364  3.6300000000000D+00  0.0000000000000D+00  0.0000000000000D+00
   365  3.6400000000000D+00  0.0000000000000D+00  0.0000000000000D+00
   366  3.6500000000000D+00  0.0000000000000D+00  0.0000000000000D+00
   367  3.6600000000000D+00  0.0000000000000D+00  0.0000000000000D+00
   368  3.6700000000000D+00  0.0000000000000D+00  0.0000000000000D+00
   369  3.6800000000000D+00  0.0000000000000D+00  0.0000000000000D+00
   370  3.6900000000000D+00  0.0000000000000D+00  0.0000000000000D+00
   371  3.7000000000000D+00  0.0000000000000D+00  0.0000000000000D+00
   372  3.7100000000000D+00  0.0000000000000D+00  0.0000000000000D+00
   373  3.7200000000000D+00  0.0000000000000D+00  0.0000000000000D+00
   374  3.7300000000000D+00  0.0000000000000D+00  0.0000000000000D+00
   375  3.7400000000000D+00  0.0000000000000D+00  0.0000000000000D+00
   376  3.7500000000000D+00  0.0000000000000D+00  0.0000000000000D+00
   377  3.7600000000000D+00  0.0000000000000D+00  0.0000000000000D+00
   378  3.7700000000000D+00  0.0000000000000D+00  0.0000000000000D+00
   379  3.7800000000000D+00  0.0000000000000D+00  0.0000000000000D+00
   380  3.7900000000000D+00  0.0000000000000D+00  0.0000000000000D+00
   381  3.8000000000000D+00  0.0000000000000D+00  0.0000000000000D+00
   382  3.8100000000000D+00  0.0000000000000D+00  0.0000000000000D+00
   383  3.8200000000000D+00  0.0000000000000D+00  0.0000000000000D+00
   384  3.8300000000000D+00  0.0000000000000D+00  0.0000000000000D+00
   385  3.8400000000000D+00  0.0000000000000D+00  0.0000000000000D+00
   386  3.8500000000000D+00  0.0000000000000D+00  0.0000000000000D+00
   387  3.8600000000000D+00  0.0000000000000D+00  0.0000000000000D+00
   388  3.8700000000000D+00  0.0000000000000D+00  0.0000000000000D+00
   389  3.8800000000000D+00  0.0000000000000D+00  0.0000000000000D+00
   390  3.8900000000000D+00  0.0000000000000D+00  0.0000000000000D+00
   391  3.9000000000000D+00  0.0000000000000D+00  0.0000000000000D+00
   392  3.9100000000000D+00  0.0000000000000D+00  0.0000000000000D+00
   393  3.9200000000000D+00  0.0000000000000D+00  0.0000000000000D+00
   394  3.9300000000000D+00  0.0000000000000D+00  0.0000000000000D+00
   395  3.9400000000000D+00  0.0000000000000D+00  0.0000000000000D+00
   396  3.9500000000000D+00  0.0000000000000D+00  0.0000000000000D+00
   397  3.9600000000000D+00  0.0000000000000D+00  0.0000000000000D+00
   398  3.9700000000000D+00  0.0000000000000D+00  0.0000000000000D+00
   399  3.9800000000000D+00  0.0000000000000D+00  0.0000000000000D+00
   400  3.9900000000000D+00  0.0000000000000D+00  0.0000000000000D+00
   401  4.0000000000000D+00  0.0000000000000D+00  0.0000000000000D+00
   402  4.0100000000000D+00  0.0000000000000D+00  0.0000000000000D+00
   403  4.0200000000000D+00  0.0000000000000D+00  0.0000000000000D+00
   404  4.0300000000000D+00  0.0000000000000D+00  0.0000000000000D+00
   405  4.0400000000000D+00  0.0000000000000D+00  0.0000000000000D+00
   406  4.0500000000000D+00  0.0000000000000D+00  0.0000000000000D+00
   407  4.0600000000000D+00  0.0000000000000D+00  0.0000000000000D+00
   408  4.0700000000000D+00  0.0000000000000D+00  0.0000000000000D+00
   409  4.0800000000000D+00  0.0000000000000D+00  0.0000000000000D+00
   410  4.0900000000000D+00  0.0000000000000D+00  0.0000000000000D+00
   411  4.1000000000000D+00  0.0000000000000D+00  0.0000000000000D+00
   412  4.1100000000000D+00  0.0000000000000D+00  0.0000000000000D+00
   413  4.1200000000000D+00  0.0000000000000D+00  0.0000000000000D+00
   414  4.1300000000000D+00  0.0000000000000D+00  0.0000000000000D+00
   415  4.1400000000000D+00  0.0000000000000D+00  0.0000000000000D+00
   416  4.1500000000000D+00  0.0000000000000D+00  0.0000000000000D+00
   417  4.1600000000000D+00  0.0000000000000D+00  0.0000000000000D+00
   418  4.1700000000000D+00  0.0000000000000D+00  0.0000000000000D+00
   419  4.1800000000000D+00  0.0000000000000D+00  0.0000000000000D+00
   420  4.1900000000000D+00  0.0000000000000D+00  0.0000000000000D+00
   421  4.2000000000000D+00  0.0000000000000D+00  0.0000000000000D+00
   422  4.2100000000000D+00  0.0000000000000D+00  0.0000000000000D+00