Sr    ONCVPSP-3.3.1  r_core=   2.81795   2.68665   2.38455
     38.0000     10.0000      210904    zatom,zion,pspd
     8      11   2     4   600     0    pspcod,pspxc,lmax,lloc,mmax,r2well
  5.99000000  0.00000000  0.00000000    rchrg fchrg qchrg
     2     4     3     0    nproj
     3     1           extension_switch
     4     4     0    nprojso
   0                         4.4426306751462D-01  2.8331544801649D+00
     1  0.0000000000000D+00 -2.0027521308030D-12  7.5145445421754D-13
     2  1.0000000000000D-02 -5.6157940853319D-03  3.7607034475743D-02
     3  2.0000000000000D-02 -1.1217047291430D-02  7.5182183565548D-02
     4  3.0000000000000D-02 -1.6789214819013D-02  1.1269358441742D-01
     5  4.0000000000000D-02 -2.2317744134914D-02  1.5010941926723D-01
     6  5.0000000000000D-02 -2.7788071370177D-02  1.8739793803245D-01
     7  6.0000000000000D-02 -3.3185618034802D-02  2.2452748096505D-01
     8  7.0000000000000D-02 -3.8495788152389D-02  2.6146650138258D-01
     9  8.0000000000000D-02 -4.3703965915963D-02  2.9818358849534D-01
    10  9.0000000000000D-02 -4.8795513963793D-02  3.3464749034711D-01
    11  1.0000000000000D-01 -5.3755772371137D-02  3.7082713688534D-01
    12  1.1000000000000D-01 -5.8570058450446D-02  4.0669166317581D-01
    13  1.2000000000000D-01 -6.3223667448729D-02  4.4221043277507D-01
    14  1.3000000000000D-01 -6.7701874226549D-02  4.7735306127257D-01
    15  1.4000000000000D-01 -7.1989935998439D-02  5.1208944001254D-01
    16  1.5000000000000D-01 -7.6073096209407D-02  5.4638976000378D-01
    17  1.6000000000000D-01 -7.9936589616805D-02  5.8022453602360D-01
    18  1.7000000000000D-01 -8.3565648640947D-02  6.1356463091982D-01
    19  1.8000000000000D-01 -8.6945511041735D-02  6.4638128011261D-01
    20  1.9000000000000D-01 -9.0061428972054D-02  6.7864611629546D-01
    21  2.0000000000000D-01 -9.2898679451850D-02  7.1033119433213D-01
    22  2.1000000000000D-01 -9.5442576299872D-02  7.4140901634376D-01
    23  2.2000000000000D-01 -9.7678483552626D-02  7.7185255697776D-01
    24  2.3000000000000D-01 -9.9591830392616D-02  8.0163528884722D-01
    25  2.4000000000000D-01 -1.0116812760023D-01  8.3073120812694D-01
    26  2.5000000000000D-01 -1.0239298553579D-01  8.5911486028915D-01
    27  2.6000000000000D-01 -1.0325213365017D-01  8.8676136595930D-01
    28  2.7000000000000D-01 -1.0373144151435D-01  9.1364644686924D-01
    29  2.8000000000000D-01 -1.0381694135007D-01  9.3974645188224D-01
    30  2.9000000000000D-01 -1.0349485203549D-01  9.6503838306153D-01
    31  3.0000000000000D-01 -1.0275160455166D-01  9.8949992175089D-01
    32  3.1000000000000D-01 -1.0157386882704D-01  1.0131094546332D+00
    33  3.2000000000000D-01 -9.9948581929659D-02  1.0358460997298D+00
    34  3.3000000000000D-01 -9.7862977547909D-02  1.0576897323012D+00
    35  3.4000000000000D-01 -9.5304616693499D-02  1.0786210106066D+00
    36  3.5000000000000D-01 -9.2261419551822D-02  1.0986214014763D+00
    37  3.6000000000000D-01 -8.8721698397782D-02  1.1176732056515D+00
    38  3.7000000000000D-01 -8.4674191487477D-02  1.1357595828389D+00
    39  3.8000000000000D-01 -8.0108097828976D-02  1.1528645764299D+00
    40  3.9000000000000D-01 -7.5013112728787D-02  1.1689731378294D+00
    41  4.0000000000000D-01 -6.9379464003672D-02  1.1840711503370D+00
    42  4.1000000000000D-01 -6.3197948741581D-02  1.1981454525236D+00
    43  4.2000000000000D-01 -5.6459970489328D-02  1.2111838610428D+00
    44  4.3000000000000D-01 -4.9157576739321D-02  1.2231751928155D+00
    45  4.4000000000000D-01 -4.1283496582557D-02  1.2341092865254D+00
    46  4.5000000000000D-01 -3.2831178390284D-02  1.2439770233618D+00
    47  4.6000000000000D-01 -2.3794827382946D-02  1.2527703469439D+00
    48  4.7000000000000D-01 -1.4169442940975D-02  1.2604822823620D+00
    49  4.8000000000000D-01 -3.9508555089817D-03  1.2671069542699D+00
    50  4.9000000000000D-01  6.8642370576866D-03  1.2726396039615D+00
    51  5.0000000000000D-01  1.8278233857244D-02  1.2770766053655D+00
    52  5.1000000000000D-01  3.0292596171318D-02  1.2804154798939D+00
    53  5.2000000000000D-01  4.2907813716184D-02  1.2826549100763D+00
    54  5.3000000000000D-01  5.6123372071275D-02  1.2837947519169D+00
    55  5.4000000000000D-01  6.9937721440978D-02  1.2838360459111D+00
    56  5.5000000000000D-01  8.4348246904744D-02  1.2827810266567D+00
    57  5.6000000000000D-01  9.9351240309104D-02  1.2806331310017D+00
    58  5.7000000000000D-01  1.1494187395334D-01  1.2773970046669D+00
    59  5.8000000000000D-01  1.3111417621750D-01  1.2730785072880D+00
    60  5.9000000000000D-01  1.4786100927883D-01  1.2676847158209D+00
    61  6.0000000000000D-01  1.6517404905819D-01  1.2612239262585D+00
    62  6.1000000000000D-01  1.8304376753398D-01  1.2537056536083D+00
    63  6.2000000000000D-01  2.0145941755585D-01  1.2451406300856D+00
    64  6.3000000000000D-01  2.2040902028490D-01  1.2355408014771D+00
    65  6.4000000000000D-01  2.3987935538088D-01  1.2249193216361D+00
    66  6.5000000000000D-01  2.5985595405002D-01  1.2132905450723D+00
    67  6.6000000000000D-01  2.8032309505988D-01  1.2006700176037D+00
    68  6.7000000000000D-01  3.0126380381984D-01  1.1870744650427D+00
    69  6.8000000000000D-01  3.2265985461742D-01  1.1725217798921D+00
    70  6.9000000000000D-01  3.4449177609169D-01  1.1570310060305D+00
    71  7.0000000000000D-01  3.6673886001616D-01  1.1406223213745D+00
    72  7.1000000000000D-01  3.8937917345341D-01  1.1233170185043D+00
    73  7.2000000000000D-01  4.1238957433383D-01  1.1051374832511D+00
    74  7.3000000000000D-01  4.3574573050045D-01  1.0861071712428D+00
    75  7.4000000000000D-01  4.5942214225099D-01  1.0662505824158D+00
    76  7.5000000000000D-01  4.8339216839713D-01  1.0455932335024D+00
    77  7.6000000000000D-01  5.0762805584967D-01  1.0241616285083D+00
    78  7.7000000000000D-01  5.3210097272697D-01  1.0019832272046D+00
    79  7.8000000000000D-01  5.5678104497180D-01  9.7908641165749D-01
    80  7.9000000000000D-01  5.8163739645022D-01  9.5550045083133D-01
    81  8.0000000000000D-01  6.0663819249423D-01  9.3125546330047D-01
    82  8.1000000000000D-01  6.3175068683727D-01  9.0638237811499D-01
    83  8.2000000000000D-01  6.5694127188037D-01  8.8091289386862D-01
    84  8.3000000000000D-01  6.8217553221411D-01  8.5487943602374D-01
    85  8.4000000000000D-01  7.0741830130983D-01  8.2831511255328D-01
    86  8.5000000000000D-01  7.3263372128158D-01  8.0125366796517D-01
    87  8.6000000000000D-01  7.5778530560882D-01  7.7372943577968D-01
    88  8.7000000000000D-01  7.8283600469792D-01  7.4577728953587D-01
    89  8.8000000000000D-01  8.0774827414974D-01  7.1743259240768D-01
    90  8.9000000000000D-01  8.3248414558942D-01  6.8873114551558D-01
    91  9.0000000000000D-01  8.5700529990363D-01  6.5970913502429D-01
    92  9.1000000000000D-01  8.8127314272071D-01  6.3040307812132D-01
    93  9.2000000000000D-01  9.0524888195911D-01  6.0084976797587D-01
    94  9.3000000000000D-01  9.2889360725994D-01  5.7108621778123D-01
    95  9.4000000000000D-01  9.5216837111078D-01  5.4114960398817D-01
    96  9.5000000000000D-01  9.7503427145981D-01  5.1107720883981D-01
    97  9.6000000000000D-01  9.9745253561082D-01  4.8090636232248D-01
    98  9.7000000000000D-01  1.0193846051832D+00  4.5067438364946D-01
    99  9.8000000000000D-01  1.0407922219140D+00  4.2041852239771D-01
   100  9.9000000000000D-01  1.0616375140740D+00  3.9017589941988D-01
   101  1.0000000000000D+00  1.0818830832631D+00  3.5998344765607D-01
   102  1.0100000000000D+00  1.1014920913475D+00  3.2987785297168D-01
   103  1.0200000000000D+00  1.1204283472971D+00  2.9989549514888D-01
   104  1.0300000000000D+00  1.1386563936777D+00  2.7007238916059D-01
   105  1.0400000000000D+00  1.1561415925504D+00  2.4044412685637D-01
   106  1.0500000000000D+00  1.1728502105324D+00  2.1104581919011D-01
   107  1.0600000000000D+00  1.1887495027677D+00  1.8191203911933D-01
   108  1.0700000000000D+00  1.2038077955601D+00  1.5307676530554D-01
   109  1.0800000000000D+00  1.2179945674227D+00  1.2457332674415D-01
   110  1.0900000000000D+00  1.2312805282959D+00  9.6434348451787D-02
   111  1.1000000000000D+00  1.2436376966937D+00  6.8691698336672D-02
   112  1.1100000000000D+00  1.2550394745382D+00  4.1376435376371D-02
   113  1.1200000000000D+00  1.2654607194482D+00  1.4518759224566D-02
   114  1.1300000000000D+00  1.2748778142537D+00 -1.1852038633980D-02
   115  1.1400000000000D+00  1.2832687335115D+00 -3.7707622063895D-02
   116  1.1500000000000D+00  1.2906131068082D+00 -6.3020655682566D-02
   117  1.1600000000000D+00  1.2968922786403D+00 -8.7764848377462D-02
   118  1.1700000000000D+00  1.3020893646743D+00 -1.1191499483224D-01
   119  1.1800000000000D+00  1.3061893041918D+00 -1.3544701496089D-01
   120  1.1900000000000D+00  1.3091789085433D+00 -1.5833799115422D-01
   121  1.2000000000000D+00  1.3110469054394D+00 -1.8056620324873D-01
   122  1.2100000000000D+00  1.3117839789180D+00 -2.0211116113039D-01
   123  1.2200000000000D+00  1.3113828048426D+00 -2.2295363489496D-01
   124  1.2300000000000D+00  1.3098380817984D+00 -2.4307568249083D-01
   125  1.2400000000000D+00  1.3071465572610D+00 -2.6246067477557D-01
   126  1.2500000000000D+00  1.3033070489298D+00 -2.8109331792436D-01
   127  1.2600000000000D+00  1.2983204611355D+00 -2.9895967313674D-01
   128  1.2700000000000D+00  1.2921897962373D+00 -3.1604717359213D-01
   129  1.2800000000000D+00  1.2849201609423D+00 -3.3234463861145D-01
   130  1.2900000000000D+00  1.2765187675035D+00 -3.4784228499328D-01
   131  1.3000000000000D+00  1.2669949297538D+00 -3.6253173549522D-01
   132  1.3100000000000D+00  1.2563600539554D+00 -3.7640602443880D-01
   133  1.3200000000000D+00  1.2446276244665D+00 -3.8945960042986D-01
   134  1.3300000000000D+00  1.2318131842273D+00 -4.0168832618419D-01
   135  1.3400000000000D+00  1.2179343100925D+00 -4.1308947546114D-01
   136  1.3500000000000D+00  1.2030105830609D+00 -4.2366172711954D-01
   137  1.3600000000000D+00  1.1870635534427D+00 -4.3340515630409D-01
   138  1.3700000000000D+00  1.1701167010481D+00 -4.4232122279265D-01
   139  1.3800000000000D+00  1.1521953904861D+00 -4.5041275653641D-01
   140  1.3900000000000D+00  1.1333268216574D+00 -4.5768394042290D-01
   141  1.4000000000000D+00  1.1135399755825D+00 -4.6414029031941D-01
   142  1.4100000000000D+00  1.0928655556735D+00 -4.6978863243908D-01
   143  1.4200000000000D+00  1.0713359246009D+00 -4.7463707809204D-01
   144  1.4300000000000D+00  1.0489850369228D+00 -4.7869499589295D-01
   145  1.4400000000000D+00  1.0258483676186D+00 -4.8197298148333D-01
   146  1.4500000000000D+00  1.0019628367419D+00 -4.8448282486338D-01
   147  1.4600000000000D+00  9.7736673035696D-01 -4.8623747540288D-01
   148  1.4700000000000D+00  9.5209961797692D-01 -4.8725100462844D-01
   149  1.4800000000000D+00  9.2620226671786D-01 -4.8753856688228D-01
   150  1.4900000000000D+00  8.9971655237565D-01 -4.8711635794356D-01
   151  1.5000000000000D+00  8.7268536768326D-01 -4.8600157173185D-01
   152  1.5100000000000D+00  8.4515252795440D-01 -4.8421235518248D-01
   153  1.5200000000000D+00  8.1716267439045D-01 -4.8176776142490D-01
   154  1.5300000000000D+00  7.8876117527702D-01 -4.7868770136551D-01
   155  1.5400000000000D+00  7.5999402534253D-01 -4.7499289380379D-01
   156  1.5500000000000D+00  7.3090774353031D-01 -4.7070481419944D-01
   157  1.5600000000000D+00  7.0154926945158D-01 -4.6584564221563D-01
   158  1.5700000000000D+00  6.7196585878286D-01 -4.6043820816724D-01
   159  1.5800000000000D+00  6.4220497787793D-01 -4.5450593849868D-01
   160  1.5900000000000D+00  6.1231419785401D-01 -4.4807280042431D-01
   161  1.6000000000000D+00  5.8234108843262D-01 -4.4116324585930D-01
   162  1.6100000000000D+00  5.5233311177764D-01 -4.3380215477144D-01
   163  1.6200000000000D+00  5.2233751662331D-01 -4.2601477808741D-01
   164  1.6300000000000D+00  4.9240123291280D-01 -4.1782668027720D-01
   165  1.6400000000000D+00  4.6257076724519D-01 -4.0926368175489D-01
   166  1.6500000000000D+00  4.3289209933105D-01 -4.0035180121195D-01
   167  1.6600000000000D+00  4.0341057975151D-01 -3.9111719802290D-01
   168  1.6700000000000D+00  3.7417082919960D-01 -3.8158611483120D-01
   169  1.6800000000000D+00  3.4521663949164D-01 -3.7178482045527D-01
   170  1.6900000000000D+00  3.1659087650154D-01 -3.6173955321216D-01
   171  1.7000000000000D+00  2.8833538529862D-01 -3.5147646479825D-01
   172  1.7100000000000D+00  2.6049089760723D-01 -3.4102156481110D-01
   173  1.7200000000000D+00  2.3309694186714D-01 -3.3040066605262D-01
   174  1.7300000000000D+00  2.0619175596428D-01 -3.1963933067895D-01
   175  1.7400000000000D+00  1.7981220292060D-01 -3.0876281734215D-01
   176  1.7500000000000D+00  1.5399368954507D-01 -2.9779602936231D-01
   177  1.7600000000000D+00  1.2877008836121D-01 -2.8676346408720D-01
   178  1.7700000000000D+00  1.0417366272204D-01 -2.7568916344094D-01
   179  1.7800000000000D+00  8.0234995476403D-02 -2.6459666584012D-01
   180  1.7900000000000D+00  5.6982920981988D-02 -2.5350895943054D-01
   181  1.8000000000000D+00  3.4444460887330D-02 -2.4244843684937D-01
   182  1.8100000000000D+00  1.2644763380859D-02 -2.3143685142352D-01
   183  1.8200000000000D+00 -8.3929536725480D-03 -2.2049527501147D-01
   184  1.8300000000000D+00 -2.8647456020471D-02 -2.0964405739156D-01
   185  1.8400000000000D+00 -4.8099542411315D-02 -1.9890278736794D-01
   186  1.8500000000000D+00 -6.6732090322724D-02 -1.8829025552460D-01
   187  1.8600000000000D+00 -8.4530097869692D-02 -1.7782441873066D-01
   188  1.8700000000000D+00 -1.0148072199833D-01 -1.6752236638362D-01
   189  1.8800000000000D+00 -1.1757331302551D-01 -1.5740028839845D-01
   190  1.8900000000000D+00 -1.3279944544607D-01 -1.4747344501090D-01
   191  1.9000000000000D+00 -1.4715294532309D-01 -1.3775613828688D-01
   192  1.9100000000000D+00 -1.6062991399191D-01 -1.2826168549667D-01
   193  1.9200000000000D+00 -1.7322874859302D-01 -1.1900239414856D-01
   194  1.9300000000000D+00 -1.8495015910941D-01 -1.0998953887302D-01
   195  1.9400000000000D+00 -1.9579718240234D-01 -1.0123333995519D-01
   196  1.9500000000000D+00 -2.0577519514278D-01 -9.2742943001581D-02
   197  1.9600000000000D+00 -2.1489191709330D-01 -8.4526402330313D-02
   198  1.9700000000000D+00 -2.2315741009501D-01 -7.6590666457067D-02
   199  1.9800000000000D+00 -2.3058414642350D-01 -6.8941542995181D-02
   200  1.9900000000000D+00 -2.3718681938301D-01 -6.1583744447480D-02
   201  2.0000000000000D+00 -2.4298249693452D-01 -5.4520826851785D-02
   202  2.0100000000000D+00 -2.4799086257266D-01 -4.7755106581704D-02
   203  2.0200000000000D+00 -2.5223388142805D-01 -4.1287750953564D-02
   204  2.0300000000000D+00 -2.5573524359328D-01 -3.5118937041842D-02
   205  2.0400000000000D+00 -2.5851994683055D-01 -2.9247968822814D-02
   206  2.0500000000000D+00 -2.6061395988604D-01 -2.3673386075865D-02
   207  2.0600000000000D+00 -2.6204342940280D-01 -1.8393207767902D-02
   208  2.0700000000000D+00 -2.6283479147509D-01 -1.3404903402259D-02
   209  2.0800000000000D+00 -2.6301481281493D-01 -8.7053887038965D-03
   210  2.0900000000000D+00 -2.6261061497247D-01 -4.2910274205877D-03
   211  2.1000000000000D+00 -2.6164947603767D-01 -1.5769734924324D-04
   212  2.1100000000000D+00 -2.6015884297070D-01  3.6992043075234D-03
   213  2.1200000000000D+00 -2.5816625548183D-01  7.2847291940910D-03
   214  2.1300000000000D+00 -2.5569929097459D-01  1.0604351903166D-02
   215  2.1400000000000D+00 -2.5278550976436D-01  1.3663943767570D-02
   216  2.1500000000000D+00 -2.4945239996473D-01  1.6469746170911D-02
   217  2.1600000000000D+00 -2.4572732310885D-01  1.9028343735671D-02
   218  2.1700000000000D+00 -2.4163746092988D-01  2.1346637507224D-02
   219  2.1800000000000D+00 -2.3720976324284D-01  2.3431818154857D-02
   220  2.1900000000000D+00 -2.3247089709499D-01  2.5291339257090D-02
   221  2.2000000000000D+00 -2.2744719760563D-01  2.6932890804436D-02
   222  2.2100000000000D+00 -2.2216462015153D-01  2.8364372855862D-02
   223  2.2200000000000D+00 -2.1664869451101D-01  2.9593869538910D-02
   224  2.2300000000000D+00 -2.1092448093088D-01  3.0629623408597D-02
   225  2.2400000000000D+00 -2.0501652782500D-01  3.1480010101004D-02
   226  2.2500000000000D+00 -1.9894883212526D-01  3.2153513605300D-02
   227  2.2600000000000D+00 -1.9274480142388D-01  3.2658701917673D-02
   228  2.2700000000000D+00 -1.8642721842816D-01  3.3004203254796D-02
   229  2.2800000000000D+00 -1.8001820813271D-01  3.3198682975074D-02
   230  2.2900000000000D+00 -1.7353920686742D-01  3.3250820959990D-02
   231  2.3000000000000D+00 -1.6701093420765D-01  3.3169289792255D-02
   232  2.3100000000000D+00 -1.6045336744292D-01  3.2962733652789D-02
   233  2.3200000000000D+00 -1.5388571797295D-01  3.2639747744374D-02
   234  2.3300000000000D+00 -1.4732641101261D-01  3.2208858724755D-02
   235  2.3400000000000D+00 -1.4079306740032D-01  3.1678505762482D-02
   236  2.3500000000000D+00 -1.3430248765019D-01  3.1057022278928D-02
   237  2.3600000000000D+00 -1.2787063915192D-01  3.0352618710820D-02
   238  2.3700000000000D+00 -1.2151264521558D-01  2.9573365857935D-02
   239  2.3800000000000D+00 -1.1524277654666D-01  2.8727179040433D-02
   240  2.3900000000000D+00 -1.0907444539216D-01  2.7821803173611D-02
   241  2.4000000000000D+00 -1.0302020139760D-01  2.6864798432244D-02
   242  2.4100000000000D+00 -9.7091729809851D-02  2.5863526757807D-02
   243  2.4200000000000D+00 -9.1299851810571D-02  2.4825139151368D-02
   244  2.4300000000000D+00 -8.5654526448574D-02  2.3756563568937D-02
   245  2.4400000000000D+00 -8.0164854564197D-02  2.2664493598561D-02
   246  2.4500000000000D+00 -7.4839084337845D-02  2.1555377797868D-02
   247  2.4600000000000D+00 -6.9684618361477D-02  2.0435409660930D-02
   248  2.4700000000000D+00 -6.4708022078609D-02  1.9310518206979D-02
   249  2.4800000000000D+00 -5.9915033463080D-02  1.8186359143807D-02
   250  2.4900000000000D+00 -5.5310574191286D-02  1.7068306705186D-02
   251  2.5000000000000D+00 -5.0898761354598D-02  1.5961445871164D-02
   252  2.5100000000000D+00 -4.6682920196628D-02  1.4870565137230D-02
   253  2.5200000000000D+00 -4.2665598363818D-02  1.3800150020751D-02
   254  2.5300000000000D+00 -3.8848579803847D-02  1.2754376680981D-02
   255  2.5400000000000D+00 -3.5232899642375D-02  1.1737106122753D-02
   256  2.5500000000000D+00 -3.1818860633452D-02  1.0751879215155D-02
   257  2.5600000000000D+00 -2.8606048515668D-02  9.8019116022282D-03
   258  2.5700000000000D+00 -2.5593348405783D-02  8.8900892713742D-03
   259  2.5800000000000D+00 -2.2778962833473D-02  8.0189650155468D-03
   260  2.5900000000000D+00 -2.0160428359794D-02  7.1907547146797D-03
   261  2.6000000000000D+00 -1.7734633291636D-02  6.4073343490094D-03
   262  2.6100000000000D+00 -1.5497837065187D-02  5.6702379672982D-03
   263  2.6200000000000D+00 -1.3445688535660D-02  4.9806556369218D-03
   264  2.6300000000000D+00 -1.1573245346329D-02  4.3394321717812D-03
   265  2.6400000000000D+00 -9.8749949064846D-03  3.7470668390031D-03
   266  2.6500000000000D+00 -8.3448752649984D-03  3.2037134571771D-03
   267  2.6600000000000D+00 -6.9762970519853D-03  2.7091813200140D-03
   268  2.6700000000000D+00 -5.7621668817077D-03  2.2629370844932D-03
   269  2.6800000000000D+00 -4.6949118761791D-03  1.8641075457933D-03
   270  2.6900000000000D+00 -3.7665056616281D-03  1.5114834438621D-03
   271  2.7000000000000D+00 -2.9684956700578D-03  1.2035242122868D-03
   272  2.7100000000000D+00 -2.2920319778542D-03  9.3836379258410D-04
   273  2.7200000000000D+00 -1.7278949112491D-03  7.1381447090496D-04
   274  2.7300000000000D+00 -1.2665126123655D-03  5.2736206442590D-04
   275  2.7400000000000D+00 -8.9809535542003D-04  3.7626099574814D-04
   276  2.7500000000000D+00 -6.1254723434576D-04  2.5743734559015D-04
   277  2.7600000000000D+00 -3.9907633025296D-04  1.6737269936922D-04
   278  2.7700000000000D+00 -2.4782298001882D-04  1.0263380245304D-04
   279  2.7800000000000D+00 -1.4840926515574D-04  5.9409032494398D-05
   280  2.7900000000000D+00 -9.1611226628145D-05  3.4161038391822D-05
   281  2.8000000000000D+00 -6.4808273064204D-05  2.1922898364644D-05
   282  2.8100000000000D+00 -5.3714251990399D-05  1.6989022718899D-05
   283  2.8200000000000D+00 -4.6223803349332D-05  1.4422103502730D-05
   284  2.8300000000000D+00 -3.2458653761531D-05  1.0108473641159D-05
   285  2.8400000000000D+00 -1.6844588517922D-05  5.2909002408613D-06
   286  2.8500000000000D+00 -2.2076544438352D-06  7.0151197634716D-07
   287  2.8600000000000D+00  3.9966566543401D-06 -1.1961255428811D-06
   288  2.8700000000000D+00  4.5810248059135D-06 -1.3702842881012D-06
   289  2.8800000000000D+00  2.0717401701643D-06 -6.1999658484998D-07
   290  2.8900000000000D+00 -4.2184802903824D-07  1.2154672809528D-07
   291  2.9000000000000D+00 -9.5819624453751D-07  2.7480769576857D-07
   292  2.9100000000000D+00 -7.3838873879184D-07  2.1092046283583D-07
   293  2.9200000000000D+00 -4.8044448225465D-08  1.3675917079463D-08
   294  2.9300000000000D+00  1.1052832345244D-07 -3.4582777860016D-08
   295  2.9400000000000D+00  1.3390817112307D-07 -4.1898007596059D-08
   296  2.9500000000000D+00  6.3411281473077D-08 -1.9840509586177D-08
   297  2.9600000000000D+00  0.0000000000000D+00  0.0000000000000D+00
   298  2.9700000000000D+00  0.0000000000000D+00  0.0000000000000D+00
   299  2.9800000000000D+00  0.0000000000000D+00  0.0000000000000D+00
   300  2.9900000000000D+00  0.0000000000000D+00  0.0000000000000D+00
   301  3.0000000000000D+00  0.0000000000000D+00  0.0000000000000D+00
   302  3.0100000000000D+00  0.0000000000000D+00  0.0000000000000D+00
   303  3.0200000000000D+00  0.0000000000000D+00  0.0000000000000D+00
   304  3.0300000000000D+00  0.0000000000000D+00  0.0000000000000D+00
   305  3.0400000000000D+00  0.0000000000000D+00  0.0000000000000D+00
   306  3.0500000000000D+00  0.0000000000000D+00  0.0000000000000D+00
   307  3.0600000000000D+00  0.0000000000000D+00  0.0000000000000D+00
   308  3.0700000000000D+00  0.0000000000000D+00  0.0000000000000D+00
   309  3.0800000000000D+00  0.0000000000000D+00  0.0000000000000D+00
   310  3.0900000000000D+00  0.0000000000000D+00  0.0000000000000D+00
   311  3.1000000000000D+00  0.0000000000000D+00  0.0000000000000D+00
   312  3.1100000000000D+00  0.0000000000000D+00  0.0000000000000D+00
   313  3.1200000000000D+00  0.0000000000000D+00  0.0000000000000D+00
   314  3.1300000000000D+00  0.0000000000000D+00  0.0000000000000D+00
   315  3.1400000000000D+00  0.0000000000000D+00  0.0000000000000D+00
   316  3.1500000000000D+00  0.0000000000000D+00  0.0000000000000D+00
   317  3.1600000000000D+00  0.0000000000000D+00  0.0000000000000D+00
   318  3.1700000000000D+00  0.0000000000000D+00  0.0000000000000D+00
   319  3.1800000000000D+00  0.0000000000000D+00  0.0000000000000D+00
   320  3.1900000000000D+00  0.0000000000000D+00  0.0000000000000D+00
   321  3.2000000000000D+00  0.0000000000000D+00  0.0000000000000D+00
   322  3.2100000000000D+00  0.0000000000000D+00  0.0000000000000D+00
   323  3.2200000000000D+00  0.0000000000000D+00  0.0000000000000D+00
   324  3.2300000000000D+00  0.0000000000000D+00  0.0000000000000D+00
   325  3.2400000000000D+00  0.0000000000000D+00  0.0000000000000D+00
   326  3.2500000000000D+00  0.0000000000000D+00  0.0000000000000D+00
   327  3.2600000000000D+00  0.0000000000000D+00  0.0000000000000D+00
   328  3.2700000000000D+00  0.0000000000000D+00  0.0000000000000D+00
   329  3.2800000000000D+00  0.0000000000000D+00  0.0000000000000D+00
   330  3.2900000000000D+00  0.0000000000000D+00  0.0000000000000D+00
   331  3.3000000000000D+00  0.0000000000000D+00  0.0000000000000D+00
   332  3.3100000000000D+00  0.0000000000000D+00  0.0000000000000D+00
   333  3.3200000000000D+00  0.0000000000000D+00  0.0000000000000D+00
   334  3.3300000000000D+00  0.0000000000000D+00  0.0000000000000D+00
   335  3.3400000000000D+00  0.0000000000000D+00  0.0000000000000D+00
   336  3.3500000000000D+00  0.0000000000000D+00  0.0000000000000D+00
   337  3.3600000000000D+00  0.0000000000000D+00  0.0000000000000D+00
   338  3.3700000000000D+00  0.0000000000000D+00  0.0000000000000D+00
   339  3.3800000000000D+00  0.0000000000000D+00  0.0000000000000D+00
   340  3.3900000000000D+00  0.0000000000000D+00  0.0000000000000D+00
   341  3.4000000000000D+00  0.0000000000000D+00  0.0000000000000D+00
   342  3.4100000000000D+00  0.0000000000000D+00  0.0000000000000D+00
   343  3.4200000000000D+00  0.0000000000000D+00  0.0000000000000D+00
   344  3.4300000000000D+00  0.0000000000000D+00  0.0000000000000D+00
   345  3.4400000000000D+00  0.0000000000000D+00  0.0000000000000D+00
   346  3.4500000000000D+00  0.0000000000000D+00  0.0000000000000D+00
   347  3.4600000000000D+00  0.0000000000000D+00  0.0000000000000D+00
   348  3.4700000000000D+00  0.0000000000000D+00  0.0000000000000D+00
   349  3.4800000000000D+00  0.0000000000000D+00  0.0000000000000D+00
   350  3.4900000000000D+00  0.0000000000000D+00  0.0000000000000D+00
   351  3.5000000000000D+00  0.0000000000000D+00  0.0000000000000D+00
   352  3.5100000000000D+00  0.0000000000000D+00  0.0000000000000D+00
   353  3.5200000000000D+00  0.0000000000000D+00  0.0000000000000D+00
   354  3.5300000000000D+00  0.0000000000000D+00  0.0000000000000D+00
   355  3.5400000000000D+00  0.0000000000000D+00  0.0000000000000D+00
   356  3.5500000000000D+00  0.0000000000000D+00  0.0000000000000D+00
   357  3.5600000000000D+00  0.0000000000000D+00  0.0000000000000D+00
   358  3.5700000000000D+00  0.0000000000000D+00  0.0000000000000D+00
   359  3.5800000000000D+00  0.0000000000000D+00  0.0000000000000D+00
   360  3.5900000000000D+00  0.0000000000000D+00  0.0000000000000D+00
   361  3.6000000000000D+00  0.0000000000000D+00  0.0000000000000D+00
   362  3.6100000000000D+00  0.0000000000000D+00  0.0000000000000D+00
   363  3.6200000000000D+00  0.0000000000000D+00  0.0000000000000D+00
   364  3.6300000000000D+00  0.0000000000000D+00  0.0000000000000D+00
   365  3.6400000000000D+00  0.0000000000000D+00  0.0000000000000D+00
   366  3.6500000000000D+00  0.0000000000000D+00  0.0000000000000D+00
   367  3.6600000000000D+00  0.0000000000000D+00  0.0000000000000D+00
   368  3.6700000000000D+00  0.0000000000000D+00  0.0000000000000D+00
   369  3.6800000000000D+00  0.0000000000000D+00  0.0000000000000D+00
   370  3.6900000000000D+00  0.0000000000000D+00  0.0000000000000D+00
   371  3.7000000000000D+00  0.0000000000000D+00  0.0000000000000D+00
   372  3.7100000000000D+00  0.0000000000000D+00  0.0000000000000D+00
   373  3.7200000000000D+00  0.0000000000000D+00  0.0000000000000D+00
   374  3.7300000000000D+00  0.0000000000000D+00  0.0000000000000D+00
   375  3.7400000000000D+00  0.0000000000000D+00  0.0000000000000D+00
   376  3.7500000000000D+00  0.0000000000000D+00  0.0000000000000D+00
   377  3.7600000000000D+00  0.0000000000000D+00  0.0000000000000D+00
   378  3.7700000000000D+00  0.0000000000000D+00  0.0000000000000D+00
   379  3.7800000000000D+00  0.0000000000000D+00  0.0000000000000D+00
   380  3.7900000000000D+00  0.0000000000000D+00  0.0000000000000D+00
   381  3.8000000000000D+00  0.0000000000000D+00  0.0000000000000D+00
   382  3.8100000000000D+00  0.0000000000000D+00  0.0000000000000D+00
   383  3.8200000000000D+00  0.0000000000000D+00  0.0000000000000D+00
   384  3.8300000000000D+00  0.0000000000000D+00  0.0000000000000D+00
   385  3.8400000000000D+00  0.0000000000000D+00  0.0000000000000D+00
   386  3.8500000000000D+00  0.0000000000000D+00  0.0000000000000D+00
   387  3.8600000000000D+00  0.0000000000000D+00  0.0000000000000D+00
   388  3.8700000000000D+00  0.0000000000000D+00  0.0000000000000D+00
   389  3.8800000000000D+00  0.0000000000000D+00  0.0000000000000D+00
   390  3.8900000000000D+00  0.0000000000000D+00  0.0000000000000D+00
   391  3.9000000000000D+00  0.0000000000000D+00  0.0000000000000D+00
   392  3.9100000000000D+00  0.0000000000000D+00  0.0000000000000D+00
   393  3.9200000000000D+00  0.0000000000000D+00  0.0000000000000D+00
   394  3.9300000000000D+00  0.0000000000000D+00  0.0000000000000D+00
   395  3.9400000000000D+00  0.0000000000000D+00  0.0000000000000D+00
   396  3.9500000000000D+00  0.0000000000000D+00  0.0000000000000D+00
   397  3.9600000000000D+00  0.0000000000000D+00  0.0000000000000D+00
   398  3.9700000000000D+00  0.0000000000000D+00  0.0000000000000D+00
   399  3.9800000000000D+00  0.0000000000000D+00  0.0000000000000D+00
   400  3.9900000000000D+00  0.0000000000000D+00  0.0000000000000D+00
   401  4.0000000000000D+00  0.0000000000000D+00  0.0000000000000D+00
   402  4.0100000000000D+00  0.0000000000000D+00  0.0000000000000D+00
   403  4.0200000000000D+00  0.0000000000000D+00  0.0000000000000D+00
   404  4.0300000000000D+00  0.0000000000000D+00  0.0000000000000D+00
   405  4.0400000000000D+00  0.0000000000000D+00  0.0000000000000D+00
   406  4.0500000000000D+00  0.0000000000000D+00  0.0000000000000D+00
   407  4.0600000000000D+00  0.0000000000000D+00  0.0000000000000D+00
   408  4.0700000000000D+00  0.0000000000000D+00  0.0000000000000D+00
   409  4.0800000000000D+00  0.0000000000000D+00  0.0000000000000D+00
   410  4.0900000000000D+00  0.0000000000000D+00  0.0000000000000D+00
   411  4.1000000000000D+00  0.0000000000000D+00  0.0000000000000D+00
   412  4.1100000000000D+00  0.0000000000000D+00  0.0000000000000D+00
   413  4.1200000000000D+00  0.0000000000000D+00  0.0000000000000D+00
   414  4.1300000000000D+00  0.0000000000000D+00  0.0000000000000D+00
   415  4.1400000000000D+00  0.0000000000000D+00  0.0000000000000D+00
   416  4.1500000000000D+00  0.0000000000000D+00  0.0000000000000D+00
   417  4.1600000000000D+00  0.0000000000000D+00  0.0000000000000D+00
   418  4.1700000000000D+00  0.0000000000000D+00  0.0000000000000D+00
   419  4.1800000000000D+00  0.0000000000000D+00  0.0000000000000D+00
   420  4.1900000000000D+00  0.0000000000000D+00  0.0000000000000D+00
   421  4.2000000000000D+00  0.0000000000000D+00  0.0000000000000D+00
   422  4.2100000000000D+00  0.0000000000000D+00  0.0000000000000D+00