Sr    ONCVPSP-3.3.1  r_core=   2.81795   2.68665   2.38455
     38.0000     10.0000      210904    zatom,zion,pspd
     8      11   2     4   600     0    pspcod,pspxc,lmax,lloc,mmax,r2well
  5.99000000  0.00000000  0.00000000    rchrg fchrg qchrg
     2     2     2     0     0    nproj
     1     1           extension_switch
   0                         2.8312530546748D+00  4.4391366195293D-01
     1  0.0000000000000D+00  7.2841732645657D-13 -1.9516541160947D-12
     2  1.0000000000000D-02  3.7612412537511D-02 -5.6045790156462D-03
     3  2.0000000000000D-02  7.5192923337217D-02 -1.1194623316471D-02
     4  3.0000000000000D-02  1.1270965323014D-01 -1.6755594273805D-02
     5  4.0000000000000D-02  1.5013076820485D-01 -2.2272945537445D-02
     6  5.0000000000000D-02  1.8742450203582D-01 -2.7732119439793D-02
     7  6.0000000000000D-02  2.2455917897077D-01 -3.3118543716511D-02
     8  7.0000000000000D-02  2.6150323649574D-01 -3.8417628646859D-02
     9  8.0000000000000D-02  2.9822524819601D-01 -4.3614764714975D-02
    10  9.0000000000000D-02  3.3469394672993D-01 -4.8695320890859D-02
    11  1.0000000000000D-01  3.7087824693182D-01 -5.3644643626939D-02
    12  1.1000000000000D-01  4.0674726905856D-01 -5.8448056662701D-02
    13  1.2000000000000D-01  4.4227036219334D-01 -6.3090861726077D-02
    14  1.3000000000000D-01  4.7741712781832D-01 -6.7558340215988D-02
    15  1.4000000000000D-01  5.1215744356610D-01 -7.1835755945769D-02
    16  1.5000000000000D-01  5.4646148715831D-01 -7.5908359022189D-02
    17  1.6000000000000D-01  5.8029976053726D-01 -7.9761390929222D-02
    18  1.7000000000000D-01  6.1364311419466D-01 -8.3380090879963D-02
    19  1.8000000000000D-01  6.4646277169907D-01 -8.6749703493925D-02
    20  1.9000000000000D-01  6.7873035442126D-01 -8.9855487850396D-02
    21  2.0000000000000D-01  7.1041790645444D-01 -9.2682727961860D-02
    22  2.1000000000000D-01  7.4149791972327D-01 -9.5216744704284D-02
    23  2.2000000000000D-01  7.7194335927336D-01 -9.7442909233951D-02
    24  2.3000000000000D-01  8.0172768872999D-01 -9.9346657912781D-02
    25  2.4000000000000D-01  8.3082489591193D-01 -1.0091350875662D-01
    26  2.5000000000000D-01  8.5920951858367D-01 -1.0212907941281D-01
    27  2.6000000000000D-01  8.8685667032605D-01 -1.0297910666566D-01
    28  2.7000000000000D-01  9.1374206650293D-01 -1.0344946746001D-01
    29  2.8000000000000D-01  9.3984205029811D-01 -1.0352620142518D-01
    30  2.9000000000000D-01  9.6513361879419D-01 -1.0319553487313D-01
    31  3.0000000000000D-01  9.8959444906194D-01 -1.0244390623664D-01
    32  3.1000000000000D-01  1.0132029242260D+00 -1.0125799290486D-01
    33  3.2000000000000D-01  1.0359381594700D+00 -9.9624739405736D-02
    34  3.3000000000000D-01  1.0577800279411D+00 -9.7531386876358D-02
    35  3.4000000000000D-01  1.0787091865115D+00 -9.4965503754788D-02
    36  3.5000000000000D-01  1.0987071013527D+00 -9.1915017618646D-02
    37  3.6000000000000D-01  1.1177560732733D+00 -8.8368248088527D-02
    38  3.7000000000000D-01  1.1358392627718D+00 -8.4313940706633D-02
    39  3.8000000000000D-01  1.1529407147517D+00 -7.9741301694037D-02
    40  3.9000000000000D-01  1.1690453828447D+00 -7.4640033482960D-02
    41  4.0000000000000D-01  1.1841391532849D+00 -6.9000370914086D-02
    42  4.1000000000000D-01  1.1982088682765D+00 -6.2813117982394D-02
    43  4.2000000000000D-01  1.2112423487955D+00 -5.6069685009482D-02
    44  4.3000000000000D-01  1.2232284167624D+00 -4.8762126114487D-02
    45  4.4000000000000D-01  1.2341569165254D+00 -4.0883176851050D-02
    46  4.5000000000000D-01  1.2440187355877D+00 -3.2426291872716D-02
    47  4.6000000000000D-01  1.2528058245172D+00 -2.3385682485369D-02
    48  4.7000000000000D-01  1.2605112159705D+00 -1.3756353941449D-02
    49  4.8000000000000D-01  1.2671290427665D+00 -3.5341423275004D-03
    50  4.9000000000000D-01  1.2726545549443D+00  7.2842491059375D-03
    51  5.0000000000000D-01  1.2770841357374D+00  1.8701214325229D-02
    52  5.1000000000000D-01  1.2804153163999D+00  3.0718209760008D-02
    53  5.2000000000000D-01  1.2826467898187D+00  4.3335720570645D-02
    54  5.3000000000000D-01  1.2837784228471D+00  5.6553228092849D-02
    55  5.4000000000000D-01  1.2838112672964D+00  7.0369178615208D-02
    56  5.5000000000000D-01  1.2827475695223D+00  8.4780953644669D-02
    57  5.6000000000000D-01  1.2805907785459D+00  9.9784841813465D-02
    58  5.7000000000000D-01  1.2773455526506D+00  1.1537601257920D-01
    59  5.8000000000000D-01  1.2730177643960D+00  1.3154849186678D-01
    60  5.9000000000000D-01  1.2676145039954D+00  1.4829513979807D-01
    61  6.0000000000000D-01  1.2611440810042D+00  1.6560763065083D-01
    62  6.1000000000000D-01  1.2536160242690D+00  1.8347643518449D-01
    63  6.2000000000000D-01  1.2450410800911D+00  2.0189080546492D-01
    64  6.3000000000000D-01  1.2354312085610D+00  2.2083876231470D-01
    65  6.4000000000000D-01  1.2247995780237D+00  2.4030708550969D-01
    66  6.5000000000000D-01  1.2131605576389D+00  2.6028130683506D-01
    67  6.6000000000000D-01  1.2005297080032D+00  2.8074570610755D-01
    68  6.7000000000000D-01  1.1869237698061D+00  3.0168331026212D-01
    69  6.8000000000000D-01  1.1723606504962D+00  3.2307589559350D-01
    70  6.9000000000000D-01  1.1568594089380D+00  3.4490399323365D-01
    71  7.0000000000000D-01  1.1404402380432D+00  3.6714689793749D-01
    72  7.1000000000000D-01  1.1231244453688D+00  3.8978268023925D-01
    73  7.2000000000000D-01  1.1049344316748D+00  4.1278820203169D-01
    74  7.3000000000000D-01  1.0858936674423D+00  4.3613913561017D-01
    75  7.4000000000000D-01  1.0660266673573D+00  4.5980998621264D-01
    76  7.5000000000000D-01  1.0453589627706D+00  4.8377411807563D-01
    77  7.6000000000000D-01  1.0239170721494D+00  5.0800378401483D-01
    78  7.7000000000000D-01  1.0017284695428D+00  5.3247015852767D-01
    79  7.8000000000000D-01  9.7882155108679D-01  5.5714337440293D-01
    80  7.9000000000000D-01  9.5522559958214D-01  5.8199256281127D-01
    81  8.0000000000000D-01  9.3097074718333D-01  6.0698589683803D-01
    82  8.1000000000000D-01  9.0608793624114D-01  6.3209063840778D-01
    83  8.2000000000000D-01  8.8060887834881D-01  6.5727318853822D-01
    84  8.3000000000000D-01  8.5456601164607D-01  6.8249914084860D-01
    85  8.4000000000000D-01  8.2799245644114D-01  7.0773333823622D-01
    86  8.5000000000000D-01  8.0092196921618D-01  7.3293993262259D-01
    87  8.6000000000000D-01  7.7338889508678D-01  7.5808244765902D-01
    88  8.7000000000000D-01  7.4542811879155D-01  7.8312384427005D-01
    89  8.8000000000000D-01  7.1707501429244D-01  8.0802658890190D-01
    90  8.9000000000000D-01  6.8836539307183D-01  8.3275272433199D-01
    91  9.0000000000000D-01  6.5933545121663D-01  8.5726394288511D-01
    92  9.1000000000000D-01  6.3002171538454D-01  8.8152166189162D-01
    93  9.2000000000000D-01  6.0046098775165D-01  9.0548710121285D-01
    94  9.3000000000000D-01  5.7069029004483D-01  9.2912136265008D-01
    95  9.4000000000000D-01  5.4074680676612D-01  9.5238551104412D-01
    96  9.5000000000000D-01  5.1066782771995D-01  9.7524065686424D-01
    97  9.6000000000000D-01  4.8049068995729D-01  9.9764804007777D-01
    98  9.7000000000000D-01  4.5025271925398D-01  1.0195691150840D+00
    99  9.8000000000000D-01  4.1999117124313D-01  1.0409656364899D+00
   100  9.9000000000000D-01  3.8974317232392D-01  1.0617997454990D+00
   101  1.0000000000000D+00  3.5954566047130D-01  1.0820340566805D+00
   102  1.0100000000000D+00  3.2943532607279D-01  1.1016317448784D+00
   103  1.0200000000000D+00  2.9944855292002D-01  1.1205566320225D+00
   104  1.0300000000000D+00  2.6962135948386D-01  1.1387732735922D+00
   105  1.0400000000000D+00  2.3998934060242D-01  1.1562470444902D+00
   106  1.0500000000000D+00  2.1058760971184D-01  1.1729442240750D+00
   107  1.0600000000000D+00  1.8145074174968D-01  1.1888320801055D+00
   108  1.0700000000000D+00  1.5261271686027D-01  1.2038789513478D+00
   109  1.0800000000000D+00  1.2410686503053D-01  1.2180543285982D+00
   110  1.0900000000000D+00  9.5965811783989D-02  1.2313289338765D+00
   111  1.1000000000000D+00  6.8221425058770D-02  1.2436747975470D+00
   112  1.1100000000000D+00  4.0904763393636D-02  1.2550653331291D+00
   113  1.1200000000000D+00  1.4046025543835D-02  1.2654754095630D+00
   114  1.1300000000000D+00 -1.2325498354170D-02  1.2748814207010D+00
   115  1.1400000000000D+00 -3.8181473952785D-02  1.2832613518021D+00
   116  1.1500000000000D+00 -6.3494568085638D-02  1.2905948428145D+00
   117  1.1600000000000D+00 -8.8238492273335D-02  1.2968632482364D+00
   118  1.1700000000000D+00 -1.1238804423750D-01  1.3020496933572D+00
   119  1.1800000000000D+00 -1.3591914732235D-01  1.3061391266863D+00
   120  1.1900000000000D+00 -1.5880888772826D-01  1.3091183683906D+00
   121  1.2000000000000D+00 -1.8103554946723D-01  1.3109761545714D+00
   122  1.2100000000000D+00 -2.0257864695306D-01  1.3117031772184D+00
   123  1.2200000000000D+00 -2.2341895514761D-01  1.3112921196966D+00
   124  1.2300000000000D+00 -2.4353853718958D-01  1.3097376876316D+00
   125  1.2400000000000D+00 -2.6292076943652D-01  1.3070366350699D+00
   126  1.2500000000000D+00 -2.8155036385879D-01  1.3031877858052D+00
   127  1.2600000000000D+00 -2.9941338773163D-01  1.2981920497799D+00
   128  1.2700000000000D+00 -3.1649728057593D-01  1.2920524344781D+00
   129  1.2800000000000D+00 -3.3279086830507D-01  1.2847740512429D+00
   130  1.2900000000000D+00 -3.4828437454636D-01  1.2763641164729D+00
   131  1.3000000000000D+00 -3.6296942910763D-01  1.2668319476570D+00
   132  1.3100000000000D+00 -3.7683907356754D-01  1.2561889542263D+00
   133  1.3200000000000D+00 -3.8988776398139D-01  1.2444486232239D+00
   134  1.3300000000000D+00 -4.0211137069243D-01  1.2316264997967D+00
   135  1.3400000000000D+00 -4.1350717525119D-01  1.2177401625342D+00
   136  1.3500000000000D+00 -4.2407386445745D-01  1.2028091937072D+00
   137  1.3600000000000D+00 -4.3381152153278D-01  1.1868551444441D+00
   138  1.3700000000000D+00 -4.4272161445439D-01  1.1699014949311D+00
   139  1.3800000000000D+00 -4.5080698148193D-01  1.1519736097233D+00
   140  1.3900000000000D+00 -4.5807181390764D-01  1.1330986882518D+00
   141  1.4000000000000D+00 -4.6452163608702D-01  1.1133057106665D+00
   142  1.4100000000000D+00 -4.7016328279262D-01  1.0926253791249D+00
   143  1.4200000000000D+00 -4.7500487395322D-01  1.0710900546757D+00
   144  1.4300000000000D+00 -4.7905578684967D-01  1.0487336899068D+00
   145  1.4400000000000D+00 -4.8232662582597D-01  1.0255917574986D+00
   146  1.4500000000000D+00 -4.8482918961015D-01  1.0017011748974D+00
   147  1.4600000000000D+00 -4.8657643631455D-01  9.7710022527280D-01
   148  1.4700000000000D+00 -4.8758244621305D-01  9.5182847497816D-01
   149  1.4800000000000D+00 -4.8786238238983D-01  9.2592668772719D-01
   150  1.4900000000000D+00 -4.8743244935141D-01  8.9943673569394D-01
   151  1.5000000000000D+00 -4.8630984972094D-01  8.7240150779373D-01
   152  1.5100000000000D+00 -4.8451273910490D-01  8.4486481535078D-01
   153  1.5200000000000D+00 -4.8206017926306D-01  8.1687129542927D-01
   154  1.5300000000000D+00 -4.7897208968325D-01  7.8846631205427D-01
   155  1.5400000000000D+00 -4.7526919768989D-01  7.5969585559474D-01
   156  1.5500000000000D+00 -4.7097298720368D-01  7.3060644055983D-01
   157  1.5600000000000D+00 -4.6610564627782D-01  7.0124500207613D-01
   158  1.5700000000000D+00 -4.6069001353951D-01  6.7165879130884D-01
   159  1.5800000000000D+00 -4.5474952366122D-01  6.4189527009728D-01
   160  1.5900000000000D+00 -4.4830815199497D-01  6.1200200506399D-01
   161  1.6000000000000D+00 -4.4139035849714D-01  5.8202656147808D-01
   162  1.6100000000000D+00 -4.3402103107458D-01  5.5201639711495D-01
   163  1.6200000000000D+00 -4.2622542848531D-01  5.2201875640527D-01
   164  1.6300000000000D+00 -4.1802912291758D-01  4.9208056509361D-01
   165  1.6400000000000D+00 -4.0945794238549D-01  4.6224832570447D-01
   166  1.6500000000000D+00 -4.0053791305724D-01  4.3256801401589D-01
   167  1.6600000000000D+00 -3.9129520165587D-01  4.0308497683542D-01
   168  1.6700000000000D+00 -3.8175605804039D-01  3.7384383125710D-01
   169  1.6800000000000D+00 -3.7194675810705D-01  3.4488836568722D-01
   170  1.6900000000000D+00 -3.6189354710843D-01  3.1626144279152D-01
   171  1.7000000000000D+00 -3.5162258352948D-01  2.8800490464461D-01
   172  1.7100000000000D+00 -3.4115988360490D-01  2.6015948019957D-01
   173  1.7200000000000D+00 -3.3053126661773D-01  2.3276469535678D-01
   174  1.7300000000000D+00 -3.1976230104469D-01  2.0585878570157D-01
   175  1.7400000000000D+00 -3.0887825169332D-01  1.7947861219920D-01
   176  1.7500000000000D+00 -2.9790402786953D-01  1.5365957984943D-01
   177  1.7600000000000D+00 -2.8686413273257D-01  1.2843555961576D-01
   178  1.7700000000000D+00 -2.7578261383906D-01  1.0383881354046D-01
   179  1.7800000000000D+00 -2.6468301505428D-01  7.9899923409102D-02
   180  1.7900000000000D+00 -2.5358832978409D-01  5.6647722760133D-02
   181  1.8000000000000D+00 -2.4252095573218D-01  3.4109232661523D-02
   182  1.8100000000000D+00 -2.3150265109336D-01  1.2309600952791D-02
   183  1.8200000000000D+00 -2.2055449239023D-01 -8.7279546273311D-03
   184  1.8300000000000D+00 -2.0969683385629D-01 -2.8982199740347D-02
   185  1.8400000000000D+00 -1.9894926853646D-01 -4.8433932848710D-02
   186  1.8500000000000D+00 -1.8833059103560D-01 -6.7066030958232D-02
   187  1.8600000000000D+00 -1.7785876201832D-01 -8.4863491541864D-02
   188  1.8700000000000D+00 -1.6755087444639D-01 -1.0181347075075D-01
   189  1.8800000000000D+00 -1.5742312156212D-01 -1.1790531797268D-01
   190  1.8900000000000D+00 -1.4749076668565D-01 -1.3313060665969D-01
   191  1.9000000000000D+00 -1.3776811471844D-01 -1.4748316174009D-01
   192  1.9100000000000D+00 -1.2826848551121D-01 -1.6095908334565D-01
   193  1.9200000000000D+00 -1.1900418889153D-01 -1.7355676736896D-01
   194  1.9300000000000D+00 -1.0998650154166D-01 -1.8527692252638D-01
   195  1.9400000000000D+00 -1.0122564552476D-01 -1.9612258442072D-01
   196  1.9500000000000D+00 -9.2730767945344D-02 -2.0609912849968D-01
   197  1.9600000000000D+00 -8.4509924332829D-02 -2.1521427336837D-01
   198  1.9700000000000D+00 -7.6570064120617D-02 -2.2347807980821D-01
   199  1.9800000000000D+00 -6.8916995528359D-02 -2.3090301919179D-01
   200  1.9900000000000D+00 -6.1555431404885D-02 -2.3750378394559D-01
   201  2.0000000000000D+00 -5.4488927811844D-02 -2.4329744136986D-01
   202  2.0100000000000D+00 -4.7719800738469D-02 -2.4830367477813D-01
   203  2.0200000000000D+00 -4.1249216773557D-02 -2.5254444944208D-01
   204  2.0300000000000D+00 -3.5077352046090D-02 -2.5604345559198D-01
   205  2.0400000000000D+00 -2.9203509463645D-02 -2.5882569087879D-01
   206  2.0500000000000D+00 -2.3626227627269D-02 -2.6091712371493D-01
   207  2.0600000000000D+00 -1.8343524342181D-02 -2.6234389990224D-01
   208  2.0700000000000D+00 -1.3352867923607D-02 -2.6313245432821D-01
   209  2.0800000000000D+00 -8.6511728453571D-03 -2.6330955226516D-01
   210  2.0900000000000D+00 -4.2348015072799D-03 -2.6290231371554D-01
   211  2.1000000000000D+00 -9.9630280371827D-05 -2.6193801509257D-01
   212  2.1100000000000D+00  3.7589451612568D-03 -2.6044410164394D-01
   213  2.1200000000000D+00  7.3459781025818D-03 -2.5844811138651D-01
   214  2.1300000000000D+00  1.0666944900526D-02 -2.5597762010720D-01
   215  2.1400000000000D+00  1.3727718786616D-02 -2.5306018663641D-01
   216  2.1500000000000D+00  1.6534543187480D-02 -2.4972329778532D-01
   217  2.1600000000000D+00  1.9094004922270D-02 -2.4599431401594D-01
   218  2.1700000000000D+00  2.1413007395109D-02 -2.4190041626665D-01
   219  2.1800000000000D+00  2.3498743803797D-02 -2.3746855387632D-01
   220  2.1900000000000D+00  2.5358670432066D-02 -2.3272539377396D-01
   221  2.2000000000000D+00  2.7000480158246D-02 -2.2769727135400D-01
   222  2.2100000000000D+00  2.8432076116943D-02 -2.2241014269462D-01
   223  2.2200000000000D+00  2.9661545703411D-02 -2.1688953873112D-01
   224  2.2300000000000D+00  3.0697134935836D-02 -2.1116052134915D-01
   225  2.2400000000000D+00  3.1547223111477D-02 -2.0524764110636D-01
   226  2.2500000000000D+00  3.2220298080305D-02 -1.9917489760323D-01
   227  2.2600000000000D+00  3.2724931899698D-02 -1.9296570164228D-01
   228  2.2700000000000D+00  3.3069757047781D-02 -1.8664283969638D-01
   229  2.2800000000000D+00  3.3263443343689D-02 -1.8022844109163D-01
   230  2.2900000000000D+00  3.3314675326960D-02 -1.7374394706272D-01
   231  2.3000000000000D+00  3.3232130432951D-02 -1.6721008266757D-01
   232  2.3100000000000D+00  3.3024457886202D-02 -1.6064683125747D-01
   233  2.3200000000000D+00  3.2700258119429D-02 -1.5407341087122D-01
   234  2.3300000000000D+00  3.2268063201259D-02 -1.4750825393536D-01
   235  2.3400000000000D+00  3.1736317885673D-02 -1.4096898906473D-01
   236  2.3500000000000D+00  3.1113361346573D-02 -1.3447242510301D-01
   237  2.3600000000000D+00  3.0407409932172D-02 -1.2803453830881D-01
   238  2.3700000000000D+00  2.9626540503343D-02 -1.2167046138260D-01
   239  2.3800000000000D+00  2.8778674580603D-02 -1.1539447492073D-01
   240  2.3900000000000D+00  2.7871563407540D-02 -1.0922000153723D-01
   241  2.4000000000000D+00  2.6912773602597D-02 -1.0315960169265D-01
   242  2.4100000000000D+00  2.5909673652634D-02 -9.7224971865315D-02
   243  2.4200000000000D+00  2.4869421190960D-02 -9.1426944849244D-02
   244  2.4300000000000D+00  2.3798950876629D-02 -8.5775491647528D-02
   245  2.4400000000000D+00  2.2704963054052D-02 -8.0279725353226D-02
   246  2.4500000000000D+00  2.1593913071647D-02 -7.4947906650214D-02
   247  2.4600000000000D+00  2.0472001228815D-02 -6.9787450833988D-02
   248  2.4700000000000D+00  1.9345163342789D-02 -6.4804936195156D-02
   249  2.4800000000000D+00  1.8219061888719D-02 -6.0006113637502D-02
   250  2.4900000000000D+00  1.7099077813176D-02 -5.5395917787608D-02
   251  2.5000000000000D+00  1.5990302727732D-02 -5.0978478636799D-02
   252  2.5100000000000D+00  1.4897531650221D-02 -4.6757134204532D-02
   253  2.5200000000000D+00  1.3825256483241D-02 -4.2734444714799D-02
   254  2.5300000000000D+00  1.2777659602546D-02 -3.8912206410314D-02
   255  2.5400000000000D+00  1.1758608028473D-02 -3.5291466343179D-02
   256  2.5500000000000D+00  1.0771648413107D-02 -3.1872538741029D-02
   257  2.5600000000000D+00  9.8200019150876D-03 -2.8655020267283D-02
   258  2.5700000000000D+00  8.9065597322740D-03 -2.5637806319220D-02
   259  2.5800000000000D+00  8.0338795298012D-03 -2.2819108971230D-02
   260  2.5900000000000D+00  7.2041816830583D-03 -2.0196473490648D-02
   261  2.6000000000000D+00  6.4193462535151D-03 -1.7766795952110D-02
   262  2.6100000000000D+00  5.6809109219629D-03 -1.5526342527324D-02
   263  2.6200000000000D+00  4.9900689004721D-03 -1.3470767673351D-02
   264  2.6300000000000D+00  4.3476676238700D-03 -1.1595133404744D-02
   265  2.6400000000000D+00  3.7542084231801D-03 -9.8939301827147D-03
   266  2.6500000000000D+00  3.2098465901421D-03 -8.3610976993821D-03
   267  2.6600000000000D+00  2.7143922695119D-03 -6.9900467365502D-03
   268  2.6700000000000D+00  2.2673123195507D-03 -5.7736824951976D-03
   269  2.6800000000000D+00  1.8677330620969D-03 -4.7044290535637D-03
   270  2.6900000000000D+00  1.5144440680971D-03 -3.7742553086258D-03
   271  2.7000000000000D+00  1.2059028895553D-03 -2.9747022331927D-03
   272  2.7100000000000D+00  9.4024086151004D-04 -2.2969116823049D-03
   273  2.7200000000000D+00  7.1526697033190D-04 -1.7316540699629D-03
   274  2.7300000000000D+00  5.2846317000820D-04 -1.2693462313096D-03
   275  2.7400000000000D+00  3.7707861928098D-04 -9.0018383551265D-04
   276  2.7500000000000D+00  2.5803381568622D-04 -6.1405554075075D-04
   277  2.7600000000000D+00  1.6780182518924D-04 -4.0014702924540D-04
   278  2.7700000000000D+00  1.0294665542463D-04 -2.4858977768666D-04
   279  2.7800000000000D+00  5.9651394018694D-05 -1.4899097418015D-04
   280  2.7900000000000D+00  3.4376086842285D-05 -9.2118235975353D-05
   281  2.8000000000000D+00  2.2137264666501D-05 -6.5309534037663D-05
   282  2.8100000000000D+00  1.7204033745663D-05 -5.4216666492871D-05
   283  2.8200000000000D+00  1.4617984295945D-05 -4.6682469634114D-05
   284  2.8300000000000D+00  1.0248092687663D-05 -3.2786078383143D-05
   285  2.8400000000000D+00  5.3627222402534D-06 -1.7013279537702D-05
   286  2.8500000000000D+00  7.1076304161180D-07 -2.2294128296292D-06
   287  2.8600000000000D+00 -1.2145521569055D-06  4.0398392184406D-06
   288  2.8700000000000D+00 -1.3914277153996D-06  4.6305904265957D-06
   289  2.8800000000000D+00 -6.2955000952800D-07  2.0941426228436D-06
   290  2.8900000000000D+00  1.2363222343994D-07 -4.2672028008993D-07
   291  2.9000000000000D+00  2.7958299210306D-07 -9.6935154843195D-07
   292  2.9100000000000D+00  2.1462570128044D-07 -7.4704367458413D-07
   293  2.9200000000000D+00  1.3918441381391D-08 -4.8610914771080D-08
   294  2.9300000000000D+00 -3.5047211835944D-08  1.1161552696034D-07
   295  2.9400000000000D+00 -4.2460682414435D-08  1.3522534873722D-07
   296  2.9500000000000D+00 -2.0106960326163D-08  6.4035021755243D-08
   297  2.9600000000000D+00  0.0000000000000D+00  0.0000000000000D+00
   298  2.9700000000000D+00  0.0000000000000D+00  0.0000000000000D+00
   299  2.9800000000000D+00  0.0000000000000D+00  0.0000000000000D+00
   300  2.9900000000000D+00  0.0000000000000D+00  0.0000000000000D+00
   301  3.0000000000000D+00  0.0000000000000D+00  0.0000000000000D+00
   302  3.0100000000000D+00  0.0000000000000D+00  0.0000000000000D+00
   303  3.0200000000000D+00  0.0000000000000D+00  0.0000000000000D+00
   304  3.0300000000000D+00  0.0000000000000D+00  0.0000000000000D+00
   305  3.0400000000000D+00  0.0000000000000D+00  0.0000000000000D+00
   306  3.0500000000000D+00  0.0000000000000D+00  0.0000000000000D+00
   307  3.0600000000000D+00  0.0000000000000D+00  0.0000000000000D+00
   308  3.0700000000000D+00  0.0000000000000D+00  0.0000000000000D+00
   309  3.0800000000000D+00  0.0000000000000D+00  0.0000000000000D+00
   310  3.0900000000000D+00  0.0000000000000D+00  0.0000000000000D+00
   311  3.1000000000000D+00  0.0000000000000D+00  0.0000000000000D+00
   312  3.1100000000000D+00  0.0000000000000D+00  0.0000000000000D+00
   313  3.1200000000000D+00  0.0000000000000D+00  0.0000000000000D+00
   314  3.1300000000000D+00  0.0000000000000D+00  0.0000000000000D+00
   315  3.1400000000000D+00  0.0000000000000D+00  0.0000000000000D+00
   316  3.1500000000000D+00  0.0000000000000D+00  0.0000000000000D+00
   317  3.1600000000000D+00  0.0000000000000D+00  0.0000000000000D+00
   318  3.1700000000000D+00  0.0000000000000D+00  0.0000000000000D+00
   319  3.1800000000000D+00  0.0000000000000D+00  0.0000000000000D+00
   320  3.1900000000000D+00  0.0000000000000D+00  0.0000000000000D+00
   321  3.2000000000000D+00  0.0000000000000D+00  0.0000000000000D+00
   322  3.2100000000000D+00  0.0000000000000D+00  0.0000000000000D+00
   323  3.2200000000000D+00  0.0000000000000D+00  0.0000000000000D+00
   324  3.2300000000000D+00  0.0000000000000D+00  0.0000000000000D+00
   325  3.2400000000000D+00  0.0000000000000D+00  0.0000000000000D+00
   326  3.2500000000000D+00  0.0000000000000D+00  0.0000000000000D+00
   327  3.2600000000000D+00  0.0000000000000D+00  0.0000000000000D+00
   328  3.2700000000000D+00  0.0000000000000D+00  0.0000000000000D+00
   329  3.2800000000000D+00  0.0000000000000D+00  0.0000000000000D+00
   330  3.2900000000000D+00  0.0000000000000D+00  0.0000000000000D+00
   331  3.3000000000000D+00  0.0000000000000D+00  0.0000000000000D+00
   332  3.3100000000000D+00  0.0000000000000D+00  0.0000000000000D+00
   333  3.3200000000000D+00  0.0000000000000D+00  0.0000000000000D+00
   334  3.3300000000000D+00  0.0000000000000D+00  0.0000000000000D+00
   335  3.3400000000000D+00  0.0000000000000D+00  0.0000000000000D+00
   336  3.3500000000000D+00  0.0000000000000D+00  0.0000000000000D+00
   337  3.3600000000000D+00  0.0000000000000D+00  0.0000000000000D+00
   338  3.3700000000000D+00  0.0000000000000D+00  0.0000000000000D+00
   339  3.3800000000000D+00  0.0000000000000D+00  0.0000000000000D+00
   340  3.3900000000000D+00  0.0000000000000D+00  0.0000000000000D+00
   341  3.4000000000000D+00  0.0000000000000D+00  0.0000000000000D+00
   342  3.4100000000000D+00  0.0000000000000D+00  0.0000000000000D+00
   343  3.4200000000000D+00  0.0000000000000D+00  0.0000000000000D+00
   344  3.4300000000000D+00  0.0000000000000D+00  0.0000000000000D+00
   345  3.4400000000000D+00  0.0000000000000D+00  0.0000000000000D+00
   346  3.4500000000000D+00  0.0000000000000D+00  0.0000000000000D+00
   347  3.4600000000000D+00  0.0000000000000D+00  0.0000000000000D+00
   348  3.4700000000000D+00  0.0000000000000D+00  0.0000000000000D+00
   349  3.4800000000000D+00  0.0000000000000D+00  0.0000000000000D+00
   350  3.4900000000000D+00  0.0000000000000D+00  0.0000000000000D+00
   351  3.5000000000000D+00  0.0000000000000D+00  0.0000000000000D+00
   352  3.5100000000000D+00  0.0000000000000D+00  0.0000000000000D+00
   353  3.5200000000000D+00  0.0000000000000D+00  0.0000000000000D+00
   354  3.5300000000000D+00  0.0000000000000D+00  0.0000000000000D+00
   355  3.5400000000000D+00  0.0000000000000D+00  0.0000000000000D+00
   356  3.5500000000000D+00  0.0000000000000D+00  0.0000000000000D+00
   357  3.5600000000000D+00  0.0000000000000D+00  0.0000000000000D+00
   358  3.5700000000000D+00  0.0000000000000D+00  0.0000000000000D+00
   359  3.5800000000000D+00  0.0000000000000D+00  0.0000000000000D+00
   360  3.5900000000000D+00  0.0000000000000D+00  0.0000000000000D+00
   361  3.6000000000000D+00  0.0000000000000D+00  0.0000000000000D+00
   362  3.6100000000000D+00  0.0000000000000D+00  0.0000000000000D+00
   363  3.6200000000000D+00  0.0000000000000D+00  0.0000000000000D+00
   364  3.6300000000000D+00  0.0000000000000D+00  0.0000000000000D+00
   365  3.6400000000000D+00  0.0000000000000D+00  0.0000000000000D+00
   366  3.6500000000000D+00  0.0000000000000D+00  0.0000000000000D+00
   367  3.6600000000000D+00  0.0000000000000D+00  0.0000000000000D+00
   368  3.6700000000000D+00  0.0000000000000D+00  0.0000000000000D+00
   369  3.6800000000000D+00  0.0000000000000D+00  0.0000000000000D+00
   370  3.6900000000000D+00  0.0000000000000D+00  0.0000000000000D+00
   371  3.7000000000000D+00  0.0000000000000D+00  0.0000000000000D+00
   372  3.7100000000000D+00  0.0000000000000D+00  0.0000000000000D+00
   373  3.7200000000000D+00  0.0000000000000D+00  0.0000000000000D+00
   374  3.7300000000000D+00  0.0000000000000D+00  0.0000000000000D+00
   375  3.7400000000000D+00  0.0000000000000D+00  0.0000000000000D+00
   376  3.7500000000000D+00  0.0000000000000D+00  0.0000000000000D+00
   377  3.7600000000000D+00  0.0000000000000D+00  0.0000000000000D+00
   378  3.7700000000000D+00  0.0000000000000D+00  0.0000000000000D+00
   379  3.7800000000000D+00  0.0000000000000D+00  0.0000000000000D+00
   380  3.7900000000000D+00  0.0000000000000D+00  0.0000000000000D+00
   381  3.8000000000000D+00  0.0000000000000D+00  0.0000000000000D+00
   382  3.8100000000000D+00  0.0000000000000D+00  0.0000000000000D+00
   383  3.8200000000000D+00  0.0000000000000D+00  0.0000000000000D+00
   384  3.8300000000000D+00  0.0000000000000D+00  0.0000000000000D+00
   385  3.8400000000000D+00  0.0000000000000D+00  0.0000000000000D+00
   386  3.8500000000000D+00  0.0000000000000D+00  0.0000000000000D+00
   387  3.8600000000000D+00  0.0000000000000D+00  0.0000000000000D+00
   388  3.8700000000000D+00  0.0000000000000D+00  0.0000000000000D+00
   389  3.8800000000000D+00  0.0000000000000D+00  0.0000000000000D+00
   390  3.8900000000000D+00  0.0000000000000D+00  0.0000000000000D+00
   391  3.9000000000000D+00  0.0000000000000D+00  0.0000000000000D+00
   392  3.9100000000000D+00  0.0000000000000D+00  0.0000000000000D+00
   393  3.9200000000000D+00  0.0000000000000D+00  0.0000000000000D+00
   394  3.9300000000000D+00  0.0000000000000D+00  0.0000000000000D+00
   395  3.9400000000000D+00  0.0000000000000D+00  0.0000000000000D+00
   396  3.9500000000000D+00  0.0000000000000D+00  0.0000000000000D+00
   397  3.9600000000000D+00  0.0000000000000D+00  0.0000000000000D+00
   398  3.9700000000000D+00  0.0000000000000D+00  0.0000000000000D+00
   399  3.9800000000000D+00  0.0000000000000D+00  0.0000000000000D+00
   400  3.9900000000000D+00  0.0000000000000D+00  0.0000000000000D+00
   401  4.0000000000000D+00  0.0000000000000D+00  0.0000000000000D+00
   402  4.0100000000000D+00  0.0000000000000D+00  0.0000000000000D+00
   403  4.0200000000000D+00  0.0000000000000D+00  0.0000000000000D+00
   404  4.0300000000000D+00  0.0000000000000D+00  0.0000000000000D+00
   405  4.0400000000000D+00  0.0000000000000D+00  0.0000000000000D+00
   406  4.0500000000000D+00  0.0000000000000D+00  0.0000000000000D+00
   407  4.0600000000000D+00  0.0000000000000D+00  0.0000000000000D+00
   408  4.0700000000000D+00  0.0000000000000D+00  0.0000000000000D+00
   409  4.0800000000000D+00  0.0000000000000D+00  0.0000000000000D+00
   410  4.0900000000000D+00  0.0000000000000D+00  0.0000000000000D+00
   411  4.1000000000000D+00  0.0000000000000D+00  0.0000000000000D+00
   412  4.1100000000000D+00  0.0000000000000D+00  0.0000000000000D+00
   413  4.1200000000000D+00  0.0000000000000D+00  0.0000000000000D+00
   414  4.1300000000000D+00  0.0000000000000D+00  0.0000000000000D+00
   415  4.1400000000000D+00  0.0000000000000D+00  0.0000000000000D+00
   416  4.1500000000000D+00  0.0000000000000D+00  0.0000000000000D+00
   417  4.1600000000000D+00  0.0000000000000D+00  0.0000000000000D+00
   418  4.1700000000000D+00  0.0000000000000D+00  0.0000000000000D+00
   419  4.1800000000000D+00  0.0000000000000D+00  0.0000000000000D+00
   420  4.1900000000000D+00  0.0000000000000D+00  0.0000000000000D+00
   421  4.2000000000000D+00  0.0000000000000D+00  0.0000000000000D+00
   422  4.2100000000000D+00  0.0000000000000D+00  0.0000000000000D+00