Ta    ONCVPSP-3.3.1  r_core=   2.25368   2.17446   2.04856   3.00072
     73.0000     27.0000      210904    zatom,zion,pspd
     8      11   3     4   600     0    pspcod,pspxc,lmax,lloc,mmax,r2well
  5.99000000  0.00000000  0.00000000    rchrg fchrg qchrg
     2     2     2     2     0    nproj
     1     1           extension_switch
   0                         4.2404011086245D+00 -1.1676572224981D-01
     1  0.0000000000000D+00 -4.5380366131553D-13  7.6236517099204D-12
     2  1.0000000000000D-02  5.6167300024313D-02  2.3848540920666D-02
     3  2.0000000000000D-02  1.1224843227403D-01  4.7637557145536D-02
     4  3.0000000000000D-02  1.6815738574630D-01  7.1307673011427D-02
     5  4.0000000000000D-02  2.2380846271481D-01  9.4799810792719D-02
     6  5.0000000000000D-02  2.7911643470066D-01  1.1805533934904D-01
     7  6.0000000000000D-02  3.3399669764276D-01  1.4101622238212D-01
     8  7.0000000000000D-02  3.8836542600134D-01  1.6362516616248D-01
     9  8.0000000000000D-02  4.4213972552868D-01  1.8582576657894D-01
    10  9.0000000000000D-02  4.9523778444183D-01  2.0756265535444D-01
    11  1.0000000000000D-01  5.4757902273264D-01  2.2878164526083D-01
    12  1.1000000000000D-01  5.9908423935160D-01  2.4942987415228D-01
    13  1.2000000000000D-01  6.4967575700266D-01  2.6945594762348D-01
    14  1.3000000000000D-01  6.9927756428814D-01  2.8881008008315D-01
    15  1.4000000000000D-01  7.4781545494363D-01  3.0744423401735D-01
    16  1.5000000000000D-01  7.9521716390522D-01  3.2531225719989D-01
    17  1.6000000000000D-01  8.4141249995315D-01  3.4237001758934D-01
    18  1.7000000000000D-01  8.8633347467843D-01  3.5857553563382D-01
    19  1.8000000000000D-01  9.2991442752191D-01  3.7388911368647D-01
    20  1.9000000000000D-01  9.7209214663817D-01  3.8827346221582D-01
    21  2.0000000000000D-01  1.0128059853404D+00  4.0169382247715D-01
    22  2.1000000000000D-01  1.0519979738864D+00  4.1411808529318D-01
    23  2.2000000000000D-01  1.0896129263701D+00  4.2551690557555D-01
    24  2.3000000000000D-01  1.1255985424882D+00  4.3586381220225D-01
    25  2.4000000000000D-01  1.1599055039576D+00  4.4513531285158D-01
    26  2.5000000000000D-01  1.1924875653636D+00  4.5331099337988D-01
    27  2.6000000000000D-01  1.2233016392283D+00  4.6037361131844D-01
    28  2.7000000000000D-01  1.2523078750935D+00  4.6630918305548D-01
    29  2.8000000000000D-01  1.2794697324213D+00  4.7110706426153D-01
    30  2.9000000000000D-01  1.3047540471247D+00  4.7476002311117D-01
    31  3.0000000000000D-01  1.3281310915498D+00  4.7726430585155D-01
    32  3.1000000000000D-01  1.3495746277392D+00  4.7861969426818D-01
    33  3.2000000000000D-01  1.3690619538201D+00  4.7882955460157D-01
    34  3.3000000000000D-01  1.3865739433708D+00  4.7790087747409D-01
    35  3.4000000000000D-01  1.4020950776289D+00  4.7584430839567D-01
    36  3.5000000000000D-01  1.4156134704220D+00  4.7267416842980D-01
    37  3.6000000000000D-01  1.4271208857125D+00  4.6840846461644D-01
    38  3.7000000000000D-01  1.4366127476612D+00  4.6306888976849D-01
    39  3.8000000000000D-01  1.4440881431338D+00  4.5668081128044D-01
    40  3.9000000000000D-01  1.4495498165848D+00  4.4927324861466D-01
    41  4.0000000000000D-01  1.4530041572741D+00  4.4087883915996D-01
    42  4.1000000000000D-01  1.4544611787851D+00  4.3153379219041D-01
    43  4.2000000000000D-01  1.4539344908333D+00  4.2127783068867D-01
    44  4.3000000000000D-01  1.4514412633709D+00  4.1015412083789D-01
    45  4.4000000000000D-01  1.4470021830116D+00  3.9820918902886D-01
    46  4.5000000000000D-01  1.4406414018193D+00  3.8549282627524D-01
    47  4.6000000000000D-01  1.4323864785242D+00  3.7205797997797D-01
    48  4.7000000000000D-01  1.4222683122483D+00  3.5796063303140D-01
    49  4.8000000000000D-01  1.4103210688432D+00  3.4325967031763D-01
    50  4.9000000000000D-01  1.3965820999637D+00  3.2801673269079D-01
    51  5.0000000000000D-01  1.3810918550210D+00  3.1229605861140D-01
    52  5.1000000000000D-01  1.3638937861781D+00  2.9616431364974D-01
    53  5.2000000000000D-01  1.3450342465733D+00  2.7969040813841D-01
    54  5.3000000000000D-01  1.3245623819772D+00  2.6294530331529D-01
    55  5.4000000000000D-01  1.3025300161064D+00  2.4600180636097D-01
    56  5.5000000000000D-01  1.2789915298410D+00  2.2893435479701D-01
    57  5.6000000000000D-01  1.2540037346109D+00  2.1181879077376D-01
    58  5.7000000000000D-01  1.2276257402338D+00  1.9473212583902D-01
    59  5.8000000000000D-01  1.1999188175089D+00  1.7775229683960D-01
    60  5.9000000000000D-01  1.1709462558887D+00  1.6095791366789D-01
    61  6.0000000000000D-01  1.1407732165648D+00  1.4442799962410D-01
    62  6.1000000000000D-01  1.1094665813263D+00  1.2824172522109D-01
    63  6.2000000000000D-01  1.0770947975603D+00  1.1247813631258D-01
    64  6.3000000000000D-01  1.0437277197825D+00  9.7215877476792D-02
    65  6.4000000000000D-01  1.0094364480964D+00  8.2532911635693D-02
    66  6.5000000000000D-01  9.7429316399693D-01  6.8506236933863D-02
    67  6.6000000000000D-01  9.3837096394099D-01  5.5211601942683D-02
    68  6.7000000000000D-01  9.0174369112268D-01  4.2723220290389D-02
    69  6.8000000000000D-01  8.6448576589639D-01  3.1113485851799D-02
    70  6.9000000000000D-01  8.2667201530093D-01  2.0452689657120D-02
    71  7.0000000000000D-01  7.8837750214348D-01  1.0808739701747D-02
    72  7.1000000000000D-01  7.4967735410692D-01  2.2468848550600D-03
    73  7.2000000000000D-01  7.1064659334783D-01 -5.1705559232756D-03
    74  7.3000000000000D-01  6.7135996705384D-01 -1.1384457845974D-02
    75  7.4000000000000D-01  6.3189177942952D-01 -1.6339146827509D-02
    76  7.5000000000000D-01  5.9231572557815D-01 -1.9982647075497D-02
    77  7.6000000000000D-01  5.5270472774401D-01 -2.2266918552586D-02
    78  7.7000000000000D-01  5.1313077437457D-01 -2.3148083138150D-02
    79  7.8000000000000D-01  4.7366476245587D-01 -2.2586638344615D-02
    80  7.9000000000000D-01  4.3437634356594D-01 -2.0547657476597D-02
    81  8.0000000000000D-01  3.9533377408149D-01 -1.7000975160122D-02
    82  8.1000000000000D-01  3.5660376996133D-01 -1.1921357214524D-02
    83  8.2000000000000D-01  3.1825136651728D-01 -5.2886538911460D-03
    84  8.3000000000000D-01  2.8033978356819D-01  2.9120644390517D-03
    85  8.4000000000000D-01  2.4293029635677D-01  1.2690390003692D-02
    86  8.5000000000000D-01  2.0608211259093D-01  2.4050479538633D-02
    87  8.6000000000000D-01  1.6985225595229D-01  3.6990976099924D-02
    88  8.7000000000000D-01  1.3429545639375D-01  5.1504951409920D-02
    89  8.8000000000000D-01  9.9464047526302D-02  6.7579869284979D-02
    90  8.9000000000000D-01  6.5407871371878D-02  8.5197570603230D-02
    91  9.0000000000000D-01  3.2174190734899D-02  1.0433428017938D-01
    92  9.1000000000000D-01 -1.9239058023080D-04  1.2496063581639D-01
    93  9.2000000000000D-01 -3.1649999504831D-02  1.4704173970545D-01
    94  9.3000000000000D-01 -6.2159557221158D-02  1.7053723224373D-01
    95  9.4000000000000D-01 -9.1684834311239D-02  1.9540138823610D-01
    96  9.5000000000000D-01 -1.2019249742234D-01  2.2158323534088D-01
    97  9.6000000000000D-01 -1.4765214736092D-01  2.4902669451408D-01
    98  9.7000000000000D-01 -1.7403634855664D-01  2.7767074209952D-01
    99  9.8000000000000D-01 -1.9932064986763D-01  3.0744959310580D-01
   100  9.9000000000000D-01 -2.2348359672839D-01  3.3829290510493D-01
   101  1.0000000000000D+00 -2.4650673467150D-01  3.7012600208341D-01
   102  1.0100000000000D+00 -2.6837460428470D-01  4.0287011747146D-01
   103  1.0200000000000D+00 -2.8907472769356D-01  4.3644265548103D-01
   104  1.0300000000000D+00 -3.0859758669048D-01  4.7075746977991D-01
   105  1.0400000000000D+00 -3.2693659265888D-01  5.0572515843950D-01
   106  1.0500000000000D+00 -3.4408804847003D-01  5.4125337400336D-01
   107  1.0600000000000D+00 -3.6005110255718D-01  5.7724714743866D-01
   108  1.0700000000000D+00 -3.7482769539919D-01  6.1360922465255D-01
   109  1.0800000000000D+00 -3.8842249866923D-01  6.5024041418670D-01
   110  1.0900000000000D+00 -4.0084284733222D-01  6.8703994462754D-01
   111  1.1000000000000D+00 -4.1209866499509D-01  7.2390583021595D-01
   112  1.1100000000000D+00 -4.2220238283825D-01  7.6073524308266D-01
   113  1.1200000000000D+00 -4.3116885247535D-01  7.9742489049355D-01
   114  1.1300000000000D+00 -4.3901525310888D-01  8.3387139544713D-01
   115  1.1400000000000D+00 -4.4576099336735D-01  8.6997167893683D-01
   116  1.1500000000000D+00 -4.5142760822510D-01  9.0562334217150D-01
   117  1.1600000000000D+00 -4.5603865141934D-01  9.4072504703426D-01
   118  1.1700000000000D+00 -4.5961958379274D-01  9.7517689305273D-01
   119  1.1800000000000D+00 -4.6219765800068D-01  1.0088807891607D+00
   120  1.1900000000000D+00 -4.6380180003079D-01  1.0417408185511D+00
   121  1.2000000000000D+00 -4.6446248798767D-01  1.0736635949292D+00
   122  1.2100000000000D+00 -4.6421162860411D-01  1.1045586085190D+00
   123  1.2200000000000D+00 -4.6308243194024D-01  1.1343385602179D+00
   124  1.2300000000000D+00 -4.6110928473360D-01  1.1629196823382D+00
   125  1.2400000000000D+00 -4.5832762286413D-01  1.1902220444251D+00
   126  1.2500000000000D+00 -4.5477380339264D-01  1.2161698427323D+00
   127  1.2600000000000D+00 -4.5048497662659D-01  1.2406916720038D+00
   128  1.2700000000000D+00 -4.4549895866516D-01  1.2637207782508D+00
   129  1.2800000000000D+00 -4.3985410485968D-01  1.2851952913816D+00
   130  1.2900000000000D+00 -4.3358918461741D-01  1.3050584365997D+00
   131  1.3000000000000D+00 -4.2674325797366D-01  1.3232587235324D+00
   132  1.3100000000000D+00 -4.1935555432639D-01  1.3397501122938D+00
   133  1.3200000000000D+00 -4.1146535372363D-01  1.3544921557043D+00
   134  1.3300000000000D+00 -4.0311187108402D-01  1.3674501169764D+00
   135  1.3400000000000D+00 -3.9433414368634D-01  1.3785950624741D+00
   136  1.3500000000000D+00 -3.8517092227463D-01  1.3879039290732D+00
   137  1.3600000000000D+00 -3.7566056609273D-01  1.3953595658803D+00
   138  1.3700000000000D+00 -3.6584094211533D-01  1.4009507503285D+00
   139  1.3800000000000D+00 -3.5574932877908D-01  1.4046721784654D+00
   140  1.3900000000000D+00 -3.4542232442603D-01  1.4065244297815D+00
   141  1.4000000000000D+00 -3.3489576068258D-01  1.4065139068382D+00
   142  1.4100000000000D+00 -3.2420462099393D-01  1.4046527500051D+00
   143  1.4200000000000D+00 -3.1338296443004D-01  1.4009587281374D+00
   144  1.4300000000000D+00 -3.0246385495970D-01  1.3954551056201D+00
   145  1.4400000000000D+00 -2.9147929626772D-01  1.3881704868204D+00
   146  1.4500000000000D+00 -2.8046017220664D-01  1.3791386388789D+00
   147  1.4600000000000D+00 -2.6943619298137D-01  1.3683982937778D+00
   148  1.4700000000000D+00 -2.5843584702637D-01  1.3559929312064D+00
   149  1.4800000000000D+00 -2.4748635867847D-01  1.3419705431487D+00
   150  1.4900000000000D+00 -2.3661365153652D-01  1.3263833819956D+00
   151  1.5000000000000D+00 -2.2584231752813D-01  1.3092876934422D+00
   152  1.5100000000000D+00 -2.1519559159137D-01  1.2907434359046D+00
   153  1.5200000000000D+00 -2.0469533186211D-01  1.2708139881809D+00
   154  1.5300000000000D+00 -1.9436200531002D-01  1.2495658469881D+00
   155  1.5400000000000D+00 -1.8421467859260D-01  1.2270683164457D+00
   156  1.5500000000000D+00 -1.7427101408833D-01  1.2033931911268D+00
   157  1.5600000000000D+00 -1.6454727080475D-01  1.1786144348882D+00
   158  1.5700000000000D+00 -1.5505831008207D-01  1.1528078572355D+00
   159  1.5800000000000D+00 -1.4581760578221D-01  1.1260507893876D+00
   160  1.5900000000000D+00 -1.3683725880776D-01  1.0984217619490D+00
   161  1.6000000000000D+00 -1.2812801565615D-01  1.0700001862909D+00
   162  1.6100000000000D+00 -1.1969929078477D-01  1.0408660415826D+00
   163  1.6200000000000D+00 -1.1155919250319D-01  1.0110995695641D+00
   164  1.6300000000000D+00 -1.0371455212072D-01  9.8078097888745D-01
   165  1.6400000000000D+00 -9.6170956066089D-02  9.4999016116705D-01
   166  1.6500000000000D+00 -8.8932780683722D-02  9.1880642031178D-01
   167  1.6600000000000D+00 -8.2003229413425D-02  8.8730821737464D-01
   168  1.6700000000000D+00 -7.5384372057485D-02  8.5557293212201D-01
   169  1.6800000000000D+00 -6.9077185823231D-02  8.2367664366952D-01
   170  1.6900000000000D+00 -6.3081597864767D-02  7.9169393094187D-01
   171  1.7000000000000D+00 -5.7396528988484D-02  7.5969769538914D-01
   172  1.7100000000000D+00 -5.2019938280398D-02  7.2775900625141D-01
   173  1.7200000000000D+00 -4.6948868298083D-02  6.9594697081155D-01
   174  1.7300000000000D+00 -4.2179490626156D-02  6.6432862950859D-01
   175  1.7400000000000D+00 -3.7707151426338D-02  6.3296887821687D-01
   176  1.7500000000000D+00 -3.3526416817994D-02  6.0193041726908D-01
   177  1.7600000000000D+00 -2.9631117729283D-02  5.7127372917786D-01
   178  1.7700000000000D+00 -2.6014394074900D-02  5.4105708455271D-01
   179  1.7800000000000D+00 -2.2668737942975D-02  5.1133657752449D-01
   180  1.7900000000000D+00 -1.9586035636123D-02  4.8216619038961D-01
   181  1.8000000000000D+00 -1.6757607952241D-02  4.5359789519156D-01
   182  1.8100000000000D+00 -1.4174250334136D-02  4.2568175719869D-01
   183  1.8200000000000D+00 -1.1826269243655D-02  3.9846610596263D-01
   184  1.8300000000000D+00 -9.7035143356384D-03  3.7199778160532D-01
   185  1.8400000000000D+00 -7.7954333707569D-03  3.4632195305643D-01
   186  1.8500000000000D+00 -6.0910805570240D-03  3.2148274313643D-01
   187  1.8600000000000D+00 -4.5790808472544D-03  2.9752480476099D-01
   188  1.8700000000000D+00 -3.2478197040802D-03  2.7449045616348D-01
   189  1.8800000000000D+00 -2.0855530420630D-03  2.5241827656405D-01
   190  1.8900000000000D+00 -1.0805377252456D-03  2.3134168105154D-01
   191  1.9000000000000D+00 -2.2121218020434D-04  2.1128652606968D-01
   192  1.9100000000000D+00  5.0372488005197D-04  1.9227065676272D-01
   193  1.9200000000000D+00  1.1053173594793D-03  1.7430504954880D-01
   194  1.9300000000000D+00  1.5943284564008D-03  1.5739444138530D-01
   195  1.9400000000000D+00  1.9811818133608D-03  1.4153710704210D-01
   196  1.9500000000000D+00  2.2759444309951D-03  1.2672547233661D-01
   197  1.9600000000000D+00  2.4882961532803D-03  1.1294638911144D-01
   198  1.9700000000000D+00  2.6275078826289D-03  1.0018153798241D-01
   199  1.9800000000000D+00  2.7024222643932D-03  8.8407825162746D-02
   200  1.9900000000000D+00  2.7214374775322D-03  7.7597790589954D-02
   201  2.0000000000000D+00  2.6924939972730D-03  6.7720025163519D-02
   202  2.0100000000000D+00  2.6230643700344D-03  5.8739595602641D-02
   203  2.0200000000000D+00  2.5201454941761D-03  5.0618473626849D-02
   204  2.0300000000000D+00  2.3902536228220D-03  4.3315967922443D-02
   205  2.0400000000000D+00  2.2394215830378D-03  3.6789156346616D-02
   206  2.0500000000000D+00  2.0731981997310D-03  3.0993315806589D-02
   207  2.0600000000000D+00  1.8966496980332D-03  2.5882347667221D-02
   208  2.0700000000000D+00  1.7143628480983D-03  2.1409197105693D-02
   209  2.0800000000000D+00  1.5304496857601D-03  1.7526262114957D-02
   210  2.0900000000000D+00  1.3485536462493D-03  1.4185793169530D-02
   211  2.1000000000000D+00  1.1718568170236D-03  1.1340278059709D-02
   212  2.1100000000000D+00  1.0030881953175D-03  8.9428117994739D-03
   213  2.1200000000000D+00  8.4453281914440D-04  6.9474506912039D-03
   214  2.1300000000000D+00  6.9804131823421D-04  5.3095441223394D-03
   215  2.1400000000000D+00  5.6504015215793D-04  3.9860493085382D-03
   216  2.1500000000000D+00  4.4654190615569D-04  2.9358206051313D-03
   217  2.1600000000000D+00  3.4315571804282D-04  2.1198751891246D-03
   218  2.1700000000000D+00  2.5509790322004D-04  1.5016365563854D-03
   219  2.1800000000000D+00  1.8219507796894D-04  1.0473857125282D-03
   220  2.1900000000000D+00  1.2391696978198D-04  7.2566051464572D-04
   221  2.2000000000000D+00  7.9374800749661D-05  5.0780129983382D-04
   222  2.2100000000000D+00  4.7221891879023D-05  3.6626137212571D-04
   223  2.2200000000000D+00  2.6002961713537D-05  2.8559166357514D-04
   224  2.2300000000000D+00  1.3950280104434D-05  2.5230595992397D-04
   225  2.2400000000000D+00  8.7079294423069D-06  2.4743411649079D-04
   226  2.2500000000000D+00  6.7821787983978D-06  2.3257681837123D-04
   227  2.2600000000000D+00  4.9432656885091D-06  1.7398283600737D-04
   228  2.2700000000000D+00  2.4647748183040D-06  8.5402121309482D-05
   229  2.2800000000000D+00  1.4078297278515D-07  4.7136795532562D-06
   230  2.2900000000000D+00 -5.7910950523950D-07 -2.2359152811170D-05
   231  2.3000000000000D+00 -4.1394343684303D-07 -1.5998207779910D-05
   232  2.3100000000000D+00  3.3243070551922D-08  1.3787366814714D-06
   233  2.3200000000000D+00  1.2223005829305D-07  5.1287356733738D-06
   234  2.3300000000000D+00  6.7641629295505D-08  2.8655779655713D-06
   235  2.3400000000000D+00 -9.2350091461627D-09 -3.1949115969475D-07
   236  2.3500000000000D+00 -1.7891857336518D-08 -6.1898046434662D-07
   237  2.3600000000000D+00 -7.0490688645136D-09 -2.4386713111458D-07
   238  2.3700000000000D+00  0.0000000000000D+00  0.0000000000000D+00
   239  2.3800000000000D+00  0.0000000000000D+00  0.0000000000000D+00
   240  2.3900000000000D+00  0.0000000000000D+00  0.0000000000000D+00
   241  2.4000000000000D+00  0.0000000000000D+00  0.0000000000000D+00
   242  2.4100000000000D+00  0.0000000000000D+00  0.0000000000000D+00
   243  2.4200000000000D+00  0.0000000000000D+00  0.0000000000000D+00
   244  2.4300000000000D+00  0.0000000000000D+00  0.0000000000000D+00
   245  2.4400000000000D+00  0.0000000000000D+00  0.0000000000000D+00
   246  2.4500000000000D+00  0.0000000000000D+00  0.0000000000000D+00
   247  2.4600000000000D+00  0.0000000000000D+00  0.0000000000000D+00
   248  2.4700000000000D+00  0.0000000000000D+00  0.0000000000000D+00
   249  2.4800000000000D+00  0.0000000000000D+00  0.0000000000000D+00
   250  2.4900000000000D+00  0.0000000000000D+00  0.0000000000000D+00
   251  2.5000000000000D+00  0.0000000000000D+00  0.0000000000000D+00
   252  2.5100000000000D+00  0.0000000000000D+00  0.0000000000000D+00
   253  2.5200000000000D+00  0.0000000000000D+00  0.0000000000000D+00
   254  2.5300000000000D+00  0.0000000000000D+00  0.0000000000000D+00
   255  2.5400000000000D+00  0.0000000000000D+00  0.0000000000000D+00
   256  2.5500000000000D+00  0.0000000000000D+00  0.0000000000000D+00
   257  2.5600000000000D+00  0.0000000000000D+00  0.0000000000000D+00
   258  2.5700000000000D+00  0.0000000000000D+00  0.0000000000000D+00
   259  2.5800000000000D+00  0.0000000000000D+00  0.0000000000000D+00
   260  2.5900000000000D+00  0.0000000000000D+00  0.0000000000000D+00
   261  2.6000000000000D+00  0.0000000000000D+00  0.0000000000000D+00
   262  2.6100000000000D+00  0.0000000000000D+00  0.0000000000000D+00
   263  2.6200000000000D+00  0.0000000000000D+00  0.0000000000000D+00
   264  2.6300000000000D+00  0.0000000000000D+00  0.0000000000000D+00
   265  2.6400000000000D+00  0.0000000000000D+00  0.0000000000000D+00
   266  2.6500000000000D+00  0.0000000000000D+00  0.0000000000000D+00
   267  2.6600000000000D+00  0.0000000000000D+00  0.0000000000000D+00
   268  2.6700000000000D+00  0.0000000000000D+00  0.0000000000000D+00
   269  2.6800000000000D+00  0.0000000000000D+00  0.0000000000000D+00
   270  2.6900000000000D+00  0.0000000000000D+00  0.0000000000000D+00
   271  2.7000000000000D+00  0.0000000000000D+00  0.0000000000000D+00
   272  2.7100000000000D+00  0.0000000000000D+00  0.0000000000000D+00
   273  2.7200000000000D+00  0.0000000000000D+00  0.0000000000000D+00
   274  2.7300000000000D+00  0.0000000000000D+00  0.0000000000000D+00
   275  2.7400000000000D+00  0.0000000000000D+00  0.0000000000000D+00
   276  2.7500000000000D+00  0.0000000000000D+00  0.0000000000000D+00
   277  2.7600000000000D+00  0.0000000000000D+00  0.0000000000000D+00
   278  2.7700000000000D+00  0.0000000000000D+00  0.0000000000000D+00
   279  2.7800000000000D+00  0.0000000000000D+00  0.0000000000000D+00
   280  2.7900000000000D+00  0.0000000000000D+00  0.0000000000000D+00
   281  2.8000000000000D+00  0.0000000000000D+00  0.0000000000000D+00
   282  2.8100000000000D+00  0.0000000000000D+00  0.0000000000000D+00
   283  2.8200000000000D+00  0.0000000000000D+00  0.0000000000000D+00
   284  2.8300000000000D+00  0.0000000000000D+00  0.0000000000000D+00
   285  2.8400000000000D+00  0.0000000000000D+00  0.0000000000000D+00
   286  2.8500000000000D+00  0.0000000000000D+00  0.0000000000000D+00
   287  2.8600000000000D+00  0.0000000000000D+00  0.0000000000000D+00
   288  2.8700000000000D+00  0.0000000000000D+00  0.0000000000000D+00
   289  2.8800000000000D+00  0.0000000000000D+00  0.0000000000000D+00
   290  2.8900000000000D+00  0.0000000000000D+00  0.0000000000000D+00
   291  2.9000000000000D+00  0.0000000000000D+00  0.0000000000000D+00
   292  2.9100000000000D+00  0.0000000000000D+00  0.0000000000000D+00
   293  2.9200000000000D+00  0.0000000000000D+00  0.0000000000000D+00
   294  2.9300000000000D+00  0.0000000000000D+00  0.0000000000000D+00
   295  2.9400000000000D+00  0.0000000000000D+00  0.0000000000000D+00
   296  2.9500000000000D+00  0.0000000000000D+00  0.0000000000000D+00
   297  2.9600000000000D+00  0.0000000000000D+00  0.0000000000000D+00
   298  2.9700000000000D+00  0.0000000000000D+00  0.0000000000000D+00
   299  2.9800000000000D+00  0.0000000000000D+00  0.0000000000000D+00
   300  2.9900000000000D+00  0.0000000000000D+00  0.0000000000000D+00
   301  3.0000000000000D+00  0.0000000000000D+00  0.0000000000000D+00
   302  3.0100000000000D+00  0.0000000000000D+00  0.0000000000000D+00
   303  3.0200000000000D+00  0.0000000000000D+00  0.0000000000000D+00
   304  3.0300000000000D+00  0.0000000000000D+00  0.0000000000000D+00
   305  3.0400000000000D+00  0.0000000000000D+00  0.0000000000000D+00
   306  3.0500000000000D+00  0.0000000000000D+00  0.0000000000000D+00
   307  3.0600000000000D+00  0.0000000000000D+00  0.0000000000000D+00
   308  3.0700000000000D+00  0.0000000000000D+00  0.0000000000000D+00
   309  3.0800000000000D+00  0.0000000000000D+00  0.0000000000000D+00
   310  3.0900000000000D+00  0.0000000000000D+00  0.0000000000000D+00
   311  3.1000000000000D+00  0.0000000000000D+00  0.0000000000000D+00
   312  3.1100000000000D+00  0.0000000000000D+00  0.0000000000000D+00
   313  3.1200000000000D+00  0.0000000000000D+00  0.0000000000000D+00
   314  3.1300000000000D+00  0.0000000000000D+00  0.0000000000000D+00
   315  3.1400000000000D+00  0.0000000000000D+00  0.0000000000000D+00
   316  3.1500000000000D+00  0.0000000000000D+00  0.0000000000000D+00
   317  3.1600000000000D+00  0.0000000000000D+00  0.0000000000000D+00
   318  3.1700000000000D+00  0.0000000000000D+00  0.0000000000000D+00
   319  3.1800000000000D+00  0.0000000000000D+00  0.0000000000000D+00
   320  3.1900000000000D+00  0.0000000000000D+00  0.0000000000000D+00
   321  3.2000000000000D+00  0.0000000000000D+00  0.0000000000000D+00
   322  3.2100000000000D+00  0.0000000000000D+00  0.0000000000000D+00
   323  3.2200000000000D+00  0.0000000000000D+00  0.0000000000000D+00
   324  3.2300000000000D+00  0.0000000000000D+00  0.0000000000000D+00
   325  3.2400000000000D+00  0.0000000000000D+00  0.0000000000000D+00
   326  3.2500000000000D+00  0.0000000000000D+00  0.0000000000000D+00
   327  3.2600000000000D+00  0.0000000000000D+00  0.0000000000000D+00
   328  3.2700000000000D+00  0.0000000000000D+00  0.0000000000000D+00
   329  3.2800000000000D+00  0.0000000000000D+00  0.0000000000000D+00
   330  3.2900000000000D+00  0.0000000000000D+00  0.0000000000000D+00
   331  3.3000000000000D+00  0.0000000000000D+00  0.0000000000000D+00
   332  3.3100000000000D+00  0.0000000000000D+00  0.0000000000000D+00
   333  3.3200000000000D+00  0.0000000000000D+00  0.0000000000000D+00
   334  3.3300000000000D+00  0.0000000000000D+00  0.0000000000000D+00
   335  3.3400000000000D+00  0.0000000000000D+00  0.0000000000000D+00
   336  3.3500000000000D+00  0.0000000000000D+00  0.0000000000000D+00
   337  3.3600000000000D+00  0.0000000000000D+00  0.0000000000000D+00
   338  3.3700000000000D+00  0.0000000000000D+00  0.0000000000000D+00
   339  3.3800000000000D+00  0.0000000000000D+00  0.0000000000000D+00
   340  3.3900000000000D+00  0.0000000000000D+00  0.0000000000000D+00
   341  3.4000000000000D+00  0.0000000000000D+00  0.0000000000000D+00
   342  3.4100000000000D+00  0.0000000000000D+00  0.0000000000000D+00
   343  3.4200000000000D+00  0.0000000000000D+00  0.0000000000000D+00
   344  3.4300000000000D+00  0.0000000000000D+00  0.0000000000000D+00
   345  3.4400000000000D+00  0.0000000000000D+00  0.0000000000000D+00
   346  3.4500000000000D+00  0.0000000000000D+00  0.0000000000000D+00
   347  3.4600000000000D+00  0.0000000000000D+00  0.0000000000000D+00
   348  3.4700000000000D+00  0.0000000000000D+00  0.0000000000000D+00
   349  3.4800000000000D+00  0.0000000000000D+00  0.0000000000000D+00
   350  3.4900000000000D+00  0.0000000000000D+00  0.0000000000000D+00
   351  3.5000000000000D+00  0.0000000000000D+00  0.0000000000000D+00
   352  3.5100000000000D+00  0.0000000000000D+00  0.0000000000000D+00
   353  3.5200000000000D+00  0.0000000000000D+00  0.0000000000000D+00
   354  3.5300000000000D+00  0.0000000000000D+00  0.0000000000000D+00
   355  3.5400000000000D+00  0.0000000000000D+00  0.0000000000000D+00
   356  3.5500000000000D+00  0.0000000000000D+00  0.0000000000000D+00
   357  3.5600000000000D+00  0.0000000000000D+00  0.0000000000000D+00
   358  3.5700000000000D+00  0.0000000000000D+00  0.0000000000000D+00
   359  3.5800000000000D+00  0.0000000000000D+00  0.0000000000000D+00
   360  3.5900000000000D+00  0.0000000000000D+00  0.0000000000000D+00
   361  3.6000000000000D+00  0.0000000000000D+00  0.0000000000000D+00
   362  3.6100000000000D+00  0.0000000000000D+00  0.0000000000000D+00
   363  3.6200000000000D+00  0.0000000000000D+00  0.0000000000000D+00
   364  3.6300000000000D+00  0.0000000000000D+00  0.0000000000000D+00
   365  3.6400000000000D+00  0.0000000000000D+00  0.0000000000000D+00
   366  3.6500000000000D+00  0.0000000000000D+00  0.0000000000000D+00
   367  3.6600000000000D+00  0.0000000000000D+00  0.0000000000000D+00
   368  3.6700000000000D+00  0.0000000000000D+00  0.0000000000000D+00
   369  3.6800000000000D+00  0.0000000000000D+00  0.0000000000000D+00
   370  3.6900000000000D+00  0.0000000000000D+00  0.0000000000000D+00
   371  3.7000000000000D+00  0.0000000000000D+00  0.0000000000000D+00
   372  3.7100000000000D+00  0.0000000000000D+00  0.0000000000000D+00
   373  3.7200000000000D+00  0.0000000000000D+00  0.0000000000000D+00
   374  3.7300000000000D+00  0.0000000000000D+00  0.0000000000000D+00
   375  3.7400000000000D+00  0.0000000000000D+00  0.0000000000000D+00
   376  3.7500000000000D+00  0.0000000000000D+00  0.0000000000000D+00
   377  3.7600000000000D+00  0.0000000000000D+00  0.0000000000000D+00
   378  3.7700000000000D+00  0.0000000000000D+00  0.0000000000000D+00
   379  3.7800000000000D+00  0.0000000000000D+00  0.0000000000000D+00
   380  3.7900000000000D+00  0.0000000000000D+00  0.0000000000000D+00
   381  3.8000000000000D+00  0.0000000000000D+00  0.0000000000000D+00
   382  3.8100000000000D+00  0.0000000000000D+00  0.0000000000000D+00
   383  3.8200000000000D+00  0.0000000000000D+00  0.0000000000000D+00
   384  3.8300000000000D+00  0.0000000000000D+00  0.0000000000000D+00
   385  3.8400000000000D+00  0.0000000000000D+00  0.0000000000000D+00
   386  3.8500000000000D+00  0.0000000000000D+00  0.0000000000000D+00
   387  3.8600000000000D+00  0.0000000000000D+00  0.0000000000000D+00
   388  3.8700000000000D+00  0.0000000000000D+00  0.0000000000000D+00
   389  3.8800000000000D+00  0.0000000000000D+00  0.0000000000000D+00
   390  3.8900000000000D+00  0.0000000000000D+00  0.0000000000000D+00
   391  3.9000000000000D+00  0.0000000000000D+00  0.0000000000000D+00
   392  3.9100000000000D+00  0.0000000000000D+00  0.0000000000000D+00
   393  3.9200000000000D+00  0.0000000000000D+00  0.0000000000000D+00
   394  3.9300000000000D+00  0.0000000000000D+00  0.0000000000000D+00
   395  3.9400000000000D+00  0.0000000000000D+00  0.0000000000000D+00
   396  3.9500000000000D+00  0.0000000000000D+00  0.0000000000000D+00
   397  3.9600000000000D+00  0.0000000000000D+00  0.0000000000000D+00
   398  3.9700000000000D+00  0.0000000000000D+00  0.0000000000000D+00
   399  3.9800000000000D+00  0.0000000000000D+00  0.0000000000000D+00
   400  3.9900000000000D+00  0.0000000000000D+00  0.0000000000000D+00
   401  4.0000000000000D+00  0.0000000000000D+00  0.0000000000000D+00
   402  4.0100000000000D+00  0.0000000000000D+00  0.0000000000000D+00
   403  4.0200000000000D+00  0.0000000000000D+00  0.0000000000000D+00
   404  4.0300000000000D+00  0.0000000000000D+00  0.0000000000000D+00
   405  4.0400000000000D+00  0.0000000000000D+00  0.0000000000000D+00
   406  4.0500000000000D+00  0.0000000000000D+00  0.0000000000000D+00
   407  4.0600000000000D+00  0.0000000000000D+00  0.0000000000000D+00
   408  4.0700000000000D+00  0.0000000000000D+00  0.0000000000000D+00
   409  4.0800000000000D+00  0.0000000000000D+00  0.0000000000000D+00
   410  4.0900000000000D+00  0.0000000000000D+00  0.0000000000000D+00
   411  4.1000000000000D+00  0.0000000000000D+00  0.0000000000000D+00
   412  4.1100000000000D+00  0.0000000000000D+00  0.0000000000000D+00
   413  4.1200000000000D+00  0.0000000000000D+00  0.0000000000000D+00
   414  4.1300000000000D+00  0.0000000000000D+00  0.0000000000000D+00
   415  4.1400000000000D+00  0.0000000000000D+00  0.0000000000000D+00
   416  4.1500000000000D+00  0.0000000000000D+00  0.0000000000000D+00
   417  4.1600000000000D+00  0.0000000000000D+00  0.0000000000000D+00
   418  4.1700000000000D+00  0.0000000000000D+00  0.0000000000000D+00
   419  4.1800000000000D+00  0.0000000000000D+00  0.0000000000000D+00
   420  4.1900000000000D+00  0.0000000000000D+00  0.0000000000000D+00
   421  4.2000000000000D+00  0.0000000000000D+00  0.0000000000000D+00
   422  4.2100000000000D+00  0.0000000000000D+00  0.0000000000000D+00