Tc    ONCVPSP-3.3.1  r_core=   2.46076   2.58101   2.67505
     43.0000     15.0000      210904    zatom,zion,pspd
     8      11   2     4   600     0    pspcod,pspxc,lmax,lloc,mmax,r2well
  5.99000000  0.00000000  0.00000000    rchrg fchrg qchrg
     2     2     2     0     0    nproj
     1     1           extension_switch
   0                         4.4727529362503D+00  8.7911177438737D-01
     1  0.0000000000000D+00  2.2356005935364D-12 -8.2026260783685D-12
     2  1.0000000000000D-02  4.9795360878525D-02 -4.8158719383427D-03
     3  2.0000000000000D-02  9.9528545899918D-02 -9.6112394661386D-03
     4  3.0000000000000D-02  1.4913745199321D-01 -1.4365575825387D-02
     5  4.0000000000000D-02  1.9856012166493D-01 -1.9058309934138D-02
     6  5.0000000000000D-02  2.4773481580031D-01 -2.3668805149836D-02
     7  6.0000000000000D-02  2.9660008647770D-01 -2.8176339137280D-02
     8  7.0000000000000D-02  3.4509484979820D-01 -3.2560085199774D-02
     9  8.0000000000000D-02  3.9315845872991D-01 -3.6799095423882D-02
    10  9.0000000000000D-02  4.4073077596360D-01 -4.0872285978009D-02
    11  1.0000000000000D-01  4.8775224677348D-01 -4.4758424892895D-02
    12  1.1000000000000D-01  5.3416397187240D-01 -4.8436122638100D-02
    13  1.2000000000000D-01  5.7990778024719D-01 -5.1883825792666D-02
    14  1.3000000000000D-01  6.2492630195448D-01 -5.5079814090486D-02
    15  1.4000000000000D-01  6.6916304085262D-01 -5.8002201101518D-02
    16  1.5000000000000D-01  7.1256244723924D-01 -6.0628938789026D-02
    17  1.6000000000000D-01  7.5506999035831D-01 -6.2937826160363D-02
    18  1.7000000000000D-01  7.9663223073409D-01 -6.4906522204900D-02
    19  1.8000000000000D-01  8.3719689228258D-01 -6.6512563287202D-02
    20  1.9000000000000D-01  8.7671293414418D-01 -6.7733385136998D-02
    21  2.0000000000000D-01  9.1513062217408D-01 -6.8546349549594D-02
    22  2.1000000000000D-01  9.5240160001937D-01 -6.8928775881680D-02
    23  2.2000000000000D-01  9.8847895970428D-01 -6.8857977397557D-02
    24  2.3000000000000D-01  1.0233173116375D+00 -6.8311302490547D-02
    25  2.4000000000000D-01  1.0568728539471D+00 -6.7266180772915D-02
    26  2.5000000000000D-01  1.0891034410417D+00 -6.5700173996220D-02
    27  2.6000000000000D-01  1.1199686512879D+00 -6.3591031731787D-02
    28  2.7000000000000D-01  1.1494298536868D+00 -6.0916751708895D-02
    29  2.8000000000000D-01  1.1774502734241D+00 -5.7655644675939D-02
    30  2.9000000000000D-01  1.2039950561625D+00 -5.3786403617464D-02
    31  3.0000000000000D-01  1.2290313309360D+00 -4.9288177128334D-02
    32  3.1000000000000D-01  1.2525282714996D+00 -4.4140646714326D-02
    33  3.2000000000000D-01  1.2744571559819D+00 -3.8324107757789D-02
    34  3.3000000000000D-01  1.2947914246815D+00 -3.1819553856522D-02
    35  3.4000000000000D-01  1.3135067358415D+00 -2.4608764214742D-02
    36  3.5000000000000D-01  1.3305810192328D+00 -1.6674393736579D-02
    37  3.6000000000000D-01  1.3459945273709D+00 -8.0000654454962D-03
    38  3.7000000000000D-01  1.3597298841874D+00  1.4295351728578D-03
    39  3.8000000000000D-01  1.3717721309745D+00  1.1628564331052D-02
    40  3.9000000000000D-01  1.3821087694157D+00  2.2609923052911D-02
    41  4.0000000000000D-01  1.3907298015179D+00  3.4385159709312D-02
    42  4.1000000000000D-01  1.3976277662545D+00  4.6964372465757D-02
    43  4.2000000000000D-01  1.4027977727324D+00  6.0356112147522D-02
    44  4.3000000000000D-01  1.4062375296933D+00  7.4567286042799D-02
    45  4.4000000000000D-01  1.4079473711634D+00  8.9603063176393D-02
    46  4.5000000000000D-01  1.4079302780665D+00  1.0546678159653D-01
    47  4.6000000000000D-01  1.4061918956193D+00  1.2215985822437D-01
    48  4.7000000000000D-01  1.4027405463312D+00  1.3968170182068D-01
    49  4.8000000000000D-01  1.3975872384379D+00  1.5802962962598D-01
    50  4.9000000000000D-01  1.3907456696018D+00  1.7719878822948D-01
    51  5.0000000000000D-01  1.3822322257217D+00  1.9718207921872D-01
    52  5.1000000000000D-01  1.3720659747015D+00  2.1797009015485D-01
    53  5.2000000000000D-01  1.3602686550372D+00  2.3955103140947D-01
    54  5.3000000000000D-01  1.3468646590915D+00  2.6191067938587D-01
    55  5.4000000000000D-01  1.3318810109372D+00  2.8503232663284D-01
    56  5.5000000000000D-01  1.3153473386635D+00  3.0889673934018D-01
    57  5.6000000000000D-01  1.2972958410505D+00  3.3348212268434D-01
    58  5.7000000000000D-01  1.2777612485342D+00  3.5876409446817D-01
    59  5.8000000000000D-01  1.2567807783977D+00  3.8471566747200D-01
    60  5.9000000000000D-01  1.2343940841415D+00  4.1130724090350D-01
    61  6.0000000000000D-01  1.2106431990013D+00  4.3850660130142D-01
    62  6.1000000000000D-01  1.1855724736022D+00  4.6627893321357D-01
    63  6.2000000000000D-01  1.1592285077529D+00  4.9458683993175D-01
    64  6.3000000000000D-01  1.1316600764061D+00  5.2339037452695D-01
    65  6.4000000000000D-01  1.1029180498290D+00  5.5264708138636D-01
    66  6.5000000000000D-01  1.0730553080489D+00  5.8231204840945D-01
    67  6.6000000000000D-01  1.0421266496597D+00  6.1233796997545D-01
    68  6.7000000000000D-01  1.0101886950954D+00  6.4267522074660D-01
    69  6.8000000000000D-01  9.7729978449879D-01  6.7327194032328D-01
    70  6.9000000000000D-01  9.4351987033609D-01  7.0407412871685D-01
    71  7.0000000000000D-01  9.0891040492728D-01  7.3502575255532D-01
    72  7.1000000000000D-01  8.7353422308651D-01  7.6606886188519D-01
    73  7.2000000000000D-01  8.3745542008686D-01  7.9714371738041D-01
    74  7.3000000000000D-01  8.0073922518569D-01  8.2818892771712D-01
    75  7.4000000000000D-01  7.6345187096804D-01  8.5914159682000D-01
    76  7.5000000000000D-01  7.2566045878604D-01  8.8993748063421D-01
    77  7.6000000000000D-01  6.8743282059276D-01  9.2051115302460D-01
    78  7.7000000000000D-01  6.4883737748826D-01  9.5079618035327D-01
    79  7.8000000000000D-01  6.0994299531496D-01  9.8072530423640D-01
    80  7.9000000000000D-01  5.7081883765683D-01  1.0102306319328D+00
    81  8.0000000000000D-01  5.3153421661480D-01  1.0392438337695D+00
    82  8.1000000000000D-01  4.9215844174629D-01  1.0676963469642D+00
    83  8.2000000000000D-01  4.5276066757201D-01  1.0955195851627D+00
    84  8.3000000000000D-01  4.1340974006697D-01  1.1226451529661D+00
    85  8.4000000000000D-01  3.7417404256480D-01  1.1490050646880D+00
    86  8.5000000000000D-01  3.3512134151581D-01  1.1745319665435D+00
    87  8.6000000000000D-01  2.9631863254853D-01  1.1991593614413D+00
    88  8.7000000000000D-01  2.5783198729242D-01  1.2228218355217D+00
    89  8.8000000000000D-01  2.1972640142599D-01  1.2454552855571D+00
    90  8.9000000000000D-01  1.8206564441881D-01  1.2669971463099D+00
    91  9.0000000000000D-01  1.4491211143905D-01  1.2873866169256D+00
    92  9.1000000000000D-01  1.0832667789911D-01  1.3065648854251D+00
    93  9.2000000000000D-01  7.2368557111027D-02  1.3244753503498D+00
    94  9.3000000000000D-01  3.7095161520760D-02  1.3410638386081D+00
    95  9.4000000000000D-01  2.5619679857478D-03  1.3562788185721D+00
    96  9.5000000000000D-01 -3.1177612446336D-02  1.3700716074733D+00
    97  9.6000000000000D-01 -6.4072359808224D-02  1.3823965721585D+00
    98  9.7000000000000D-01 -9.6073365094034D-02  1.3932113222758D+00
    99  9.8000000000000D-01 -1.2713414432389D-01  1.4024768949780D+00
   100  9.9000000000000D-01 -1.5721074637975D-01  1.4101579302548D+00
   101  1.0000000000000D+00 -1.8626185421568D-01  1.4162228360259D+00
   102  1.0100000000000D+00 -2.1424887906430D-01  1.4206439421619D+00
   103  1.0200000000000D+00 -2.4113604728025D-01  1.4233976426317D+00
   104  1.0300000000000D+00 -2.6689047948306D-01  1.4244645250125D+00
   105  1.0400000000000D+00 -2.9148226168460D-01  1.4238294866441D+00
   106  1.0500000000000D+00 -3.1488450811182D-01  1.4214818367539D+00
   107  1.0600000000000D+00 -3.3707341545863D-01  1.4174153839251D+00
   108  1.0700000000000D+00 -3.5802830833180D-01  1.4116285083406D+00
   109  1.0800000000000D+00 -3.7773167568150D-01  1.4041242182859D+00
   110  1.0900000000000D+00 -3.9616919803800D-01  1.3949101904573D+00
   111  1.1000000000000D+00 -4.1332976540752D-01  1.3839987936824D+00
   112  1.1100000000000D+00 -4.2920548570783D-01  1.3714070957194D+00
   113  1.1200000000000D+00 -4.4379168366240D-01  1.3571568528784D+00
   114  1.1300000000000D+00 -4.5708689009979D-01  1.3412744822653D+00
   115  1.1400000000000D+00 -4.6909282164384D-01  1.3237910165317D+00
   116  1.1500000000000D+00 -4.7981435080386D-01  1.3047420410624D+00
   117  1.1600000000000D+00 -4.8925946652009D-01  1.2841676136291D+00
   118  1.1700000000000D+00 -4.9743922524540D-01  1.2621121665945D+00
   119  1.1800000000000D+00 -5.0436769268283D-01  1.2386243918329D+00
   120  1.1900000000000D+00 -5.1006187632258D-01  1.2137571085838D+00
   121  1.2000000000000D+00 -5.1454164896797D-01  1.1875671145552D+00
   122  1.2100000000000D+00 -5.1782966346625D-01  1.1601150206489D+00
   123  1.2200000000000D+00 -5.1995125888477D-01  1.1314650697337D+00
   124  1.2300000000000D+00 -5.2093435841333D-01  1.1016849399806D+00
   125  1.2400000000000D+00 -5.2080935930236D-01  1.0708455333351D+00
   126  1.2500000000000D+00 -5.1960901516773D-01  1.0390207497504D+00
   127  1.2600000000000D+00 -5.1736831102137D-01  1.0062872478643D+00
   128  1.2700000000000D+00 -5.1412433142252D-01  9.7272419288343D-01
   129  1.2800000000000D+00 -5.0991612215509D-01  9.3841299246105D-01
   130  1.2900000000000D+00 -5.0478454585981D-01  9.0343702140365D-01
   131  1.3000000000000D+00 -4.9877213208350D-01  8.6788133611979D-01
   132  1.3100000000000D+00 -4.9192292220888D-01  8.3183237972301D-01
   133  1.3200000000000D+00 -4.8428230975068D-01  7.9537767875299D-01
   134  1.3300000000000D+00 -4.7589687652687D-01  7.5860553252822D-01
   135  1.3400000000000D+00 -4.6681422520798D-01  7.2160469613199D-01
   136  1.3500000000000D+00 -4.5708280877218D-01  6.8446405808704D-01
   137  1.3600000000000D+00 -4.4675175739521D-01  6.4727231377861D-01
   138  1.3700000000000D+00 -4.3587070330545D-01  6.1011763568700D-01
   139  1.3800000000000D+00 -4.2448960414645D-01  5.7308734151920D-01
   140  1.3900000000000D+00 -4.1265856537652D-01  5.3626756129896D-01
   141  1.4000000000000D+00 -4.0042766224993D-01  4.9974290450973D-01
   142  1.4100000000000D+00 -3.8784676189762D-01  4.6359612832456D-01
   143  1.4200000000000D+00 -3.7496534604152D-01  4.2790780799333D-01
   144  1.4300000000000D+00 -3.6183233485480D-01  3.9275601040982D-01
   145  1.4400000000000D+00 -3.4849591245616D-01  3.5821597182639D-01
   146  1.4500000000000D+00 -3.3500335456225D-01  3.2435978076504D-01
   147  1.4600000000000D+00 -3.2140085872204D-01  2.9125606694983D-01
   148  1.4700000000000D+00 -3.0773337764323D-01  2.5896969727822D-01
   149  1.4800000000000D+00 -2.9404445600652D-01  2.2756147959445D-01
   150  1.4900000000000D+00 -2.8037607119599D-01  1.9708787510058D-01
   151  1.5000000000000D+00 -2.6676847836563D-01  1.6760072022209D-01
   152  1.5100000000000D+00 -2.5326006013802D-01  1.3914695847111D-01
   153  1.5200000000000D+00 -2.3988718139264D-01  1.1176838320616D-01
   154  1.5300000000000D+00 -2.2668404864703D-01  8.5501389316797D-02
   155  1.5400000000000D+00 -2.1368257787952D-01  6.0376746122754D-02
   156  1.5500000000000D+00 -2.0091225894970D-01  3.6419352380559D-02
   157  1.5600000000000D+00 -1.8840005498804D-01  1.3648096474715D-02
   158  1.5700000000000D+00 -1.7617029450422D-01 -7.9243080346319D-03
   159  1.5800000000000D+00 -1.6424440635389D-01 -2.8292028377680D-02
   160  1.5900000000000D+00 -1.5264106759748D-01 -4.7455444693317D-02
   161  1.6000000000000D+00 -1.4137654567576D-01 -6.5419817948939D-02
   162  1.6100000000000D+00 -1.3046500113429D-01 -8.2194224300841D-02
   163  1.6200000000000D+00 -1.1991896597076D-01 -9.7789949196862D-02
   164  1.6300000000000D+00 -1.0974934107986D-01 -1.1222051589937D-01
   165  1.6400000000000D+00 -9.9965316857590D-02 -1.2550201637986D-01
   166  1.6500000000000D+00 -9.0574469209747D-02 -1.3765282126017D-01
   167  1.6600000000000D+00 -8.1582776778482D-02 -1.4869357447849D-01
   168  1.6700000000000D+00 -7.2994668426982D-02 -1.5864708816018D-01
   169  1.6800000000000D+00 -6.4813066732752D-02 -1.6753825607241D-01
   170  1.6900000000000D+00 -5.7039436568317D-02 -1.7539395437778D-01
   171  1.7000000000000D+00 -4.9673837175556D-02 -1.8224293474970D-01
   172  1.7100000000000D+00 -4.2714977599991D-02 -1.8811571024371D-01
   173  1.7200000000000D+00 -3.6160275040768D-02 -1.9304443499384D-01
   174  1.7300000000000D+00 -3.0005916021866D-02 -1.9706277794832D-01
   175  1.7400000000000D+00 -2.4246919957883D-02 -2.0020579166373D-01
   176  1.7500000000000D+00 -1.8877204957851D-02 -2.0250977653018D-01
   177  1.7600000000000D+00 -1.3889655480064D-02 -2.0401214134242D-01
   178  1.7700000000000D+00 -9.2761916134515D-03 -2.0475126075894D-01
   179  1.7800000000000D+00 -5.0278396502090D-03 -2.0476633043273D-01
   180  1.7900000000000D+00 -1.1348036598243D-03 -2.0409722051659D-01
   181  1.8000000000000D+00  2.4134622178165D-03 -2.0278432819449D-01
   182  1.8100000000000D+00  5.6281810945533D-03 -2.0086843004677D-01
   183  1.8200000000000D+00  8.5211805195401D-03 -1.9839053481904D-01
   184  1.8300000000000D+00  1.1104819867774D-02 -1.9539173740728D-01
   185  1.8400000000000D+00  1.3391918187819D-02 -1.9191307465492D-01
   186  1.8500000000000D+00  1.5395682784659D-02 -1.8799538360463D-01
   187  1.8600000000000D+00  1.7129638870039D-02 -1.8367916299815D-01
   188  1.8700000000000D+00  1.8607560412489D-02 -1.7900443829915D-01
   189  1.8800000000000D+00  1.9843402670010D-02 -1.7401063141383D-01
   190  1.8900000000000D+00  2.0851236245734D-02 -1.6873643462669D-01
   191  1.9000000000000D+00  2.1645183494147D-02 -1.6321969084286D-01
   192  1.9100000000000D+00  2.2239357056960D-02 -1.5749727952508D-01
   193  1.9200000000000D+00  2.2647800725212D-02 -1.5160500865498D-01
   194  1.9300000000000D+00  2.2884432619827D-02 -1.4557751267307D-01
   195  1.9400000000000D+00  2.2962991464639D-02 -1.3944815842858D-01
   196  1.9500000000000D+00  2.2896986330764D-02 -1.3324896008233D-01
   197  1.9600000000000D+00  2.2699649299809D-02 -1.2701050141441D-01
   198  1.9700000000000D+00  2.2383890698872D-02 -1.2076186431465D-01
   199  1.9800000000000D+00  2.1962257369489D-02 -1.1453056488023D-01
   200  1.9900000000000D+00  2.1446895402942D-02 -1.0834250084120D-01
   201  2.0000000000000D+00  2.0849516036236D-02 -1.0222190676029D-01
   202  2.0100000000000D+00  2.0181364979150D-02 -9.6191317609159D-02
   203  2.0200000000000D+00  1.9453195265142D-02 -9.0271540898274D-02
   204  2.0300000000000D+00  1.8675243424011D-02 -8.4481636888022D-02
   205  2.0400000000000D+00  1.7857209781061D-02 -7.8838908841694D-02
   206  2.0500000000000D+00  1.7008241820345D-02 -7.3358900580220D-02
   207  2.0600000000000D+00  1.6136921343363D-02 -6.8055403121776D-02
   208  2.0700000000000D+00  1.5251255020583D-02 -6.2940469362290D-02
   209  2.0800000000000D+00  1.4358668171751D-02 -5.8024436344210D-02
   210  2.0900000000000D+00  1.3466002185980D-02 -5.3315956073094D-02
   211  2.1000000000000D+00  1.2579514749550D-02 -4.8822032790396D-02
   212  2.1100000000000D+00  1.1704883480927D-02 -4.4548068118522D-02
   213  2.1200000000000D+00  1.0847212395228D-02 -4.0497912616189D-02
   214  2.1300000000000D+00  1.0011041092334D-02 -3.6673923434481D-02
   215  2.1400000000000D+00  9.2003568719274D-03 -3.3077028509786D-02
   216  2.1500000000000D+00  8.4186090516170D-03 -2.9706795495666D-02
   217  2.1600000000000D+00  7.6687258388799D-03 -2.6561506211308D-02
   218  2.1700000000000D+00  6.9531332918745D-03 -2.3638235440520D-02
   219  2.1800000000000D+00  6.2737761414708D-03 -2.0932933483647D-02
   220  2.1900000000000D+00  5.6321405605077D-03 -1.8440512579797D-02
   221  2.2000000000000D+00  5.0292783495389D-03 -1.6154935922301D-02
   222  2.2100000000000D+00  4.4658325447835D-03 -1.4069309175093D-02
   223  2.2200000000000D+00  3.9420641864256D-03 -1.2175973816332D-02
   224  2.2300000000000D+00  3.4578800107417D-03 -1.0466601753574D-02
   225  2.2400000000000D+00  3.0128608610008D-03 -8.9322905340089D-03
   226  2.2500000000000D+00  2.6062906479294D-03 -7.5636588277377D-03
   227  2.2600000000000D+00  2.2371856318152D-03 -6.3509415351179D-03
   228  2.2700000000000D+00  1.9043236994119D-03 -5.2840836186414D-03
   229  2.2800000000000D+00  1.6062737255625D-03 -4.3528329911073D-03
   230  2.2900000000000D+00  1.3414244787031D-03 -3.5468309556188D-03
   231  2.3000000000000D+00  1.1080129800477D-03 -2.8556999923926D-03
   232  2.3100000000000D+00  9.0415251572037D-04 -2.2691294735000D-03
   233  2.3200000000000D+00  7.2785931506310D-04 -1.7769566155887D-03
   234  2.3300000000000D+00  5.7707844363910D-04 -1.3692442072267D-03
   235  2.3400000000000D+00  4.4970870226566D-04 -1.0363545576131D-03
   236  2.3500000000000D+00  3.4362561497604D-04 -7.6901720425448D-04
   237  2.3600000000000D+00  2.5670343048749D-04 -5.5839290360060D-04
   238  2.3700000000000D+00  1.8683541104158D-04 -3.9613196265367D-04
   239  2.3800000000000D+00  1.3195455011391D-04 -2.7445841040390D-04
   240  2.3900000000000D+00  9.0042212700753D-05 -1.8611302837031D-04
   241  2.4000000000000D+00  5.9146780456603D-05 -1.2444457321078D-04
   242  2.4100000000000D+00  3.7336150483803D-05 -8.3240933144957D-05
   243  2.4200000000000D+00  2.2945824633676D-05 -5.7796534400924D-05
   244  2.4300000000000D+00  1.4384924574815D-05 -4.4015247157449D-05
   245  2.4400000000000D+00  1.0366126563000D-05 -3.9087617967848D-05
   246  2.4500000000000D+00  8.7284698281658D-06 -3.7159283761318D-05
   247  2.4600000000000D+00  7.6703587406282D-06 -3.3622431289343D-05
   248  2.4700000000000D+00  5.3647791263756D-06 -2.3588978853187D-05
   249  2.4800000000000D+00  2.5657397804481D-06 -1.1186832107850D-05
   250  2.4900000000000D+00  5.8798156054562D-08 -2.5325951279613D-07
   251  2.5000000000000D+00 -7.3757605209813D-07  3.3316038373413D-06
   252  2.5100000000000D+00 -5.9976018899499D-07  2.7076189103212D-06
   253  2.5200000000000D+00 -1.0581067601171D-08  4.7711534886233D-08
   254  2.5300000000000D+00  1.5064020808740D-07 -7.0174723436024D-07
   255  2.5400000000000D+00  1.3633205642162D-07 -6.3690294187104D-07
   256  2.5500000000000D+00  6.1805003157616D-09 -2.8942753796578D-08
   257  2.5600000000000D+00 -1.8881231603981D-08  8.2749057642699D-08
   258  2.5700000000000D+00 -1.8766477911178D-08  8.2246137063170D-08
   259  2.5800000000000D+00 -2.1003346126083D-09  9.2049456080523D-09
   260  2.5900000000000D+00  0.0000000000000D+00  0.0000000000000D+00
   261  2.6000000000000D+00  0.0000000000000D+00  0.0000000000000D+00
   262  2.6100000000000D+00  0.0000000000000D+00  0.0000000000000D+00
   263  2.6200000000000D+00  0.0000000000000D+00  0.0000000000000D+00
   264  2.6300000000000D+00  0.0000000000000D+00  0.0000000000000D+00
   265  2.6400000000000D+00  0.0000000000000D+00  0.0000000000000D+00
   266  2.6500000000000D+00  0.0000000000000D+00  0.0000000000000D+00
   267  2.6600000000000D+00  0.0000000000000D+00  0.0000000000000D+00
   268  2.6700000000000D+00  0.0000000000000D+00  0.0000000000000D+00
   269  2.6800000000000D+00  0.0000000000000D+00  0.0000000000000D+00
   270  2.6900000000000D+00  0.0000000000000D+00  0.0000000000000D+00
   271  2.7000000000000D+00  0.0000000000000D+00  0.0000000000000D+00
   272  2.7100000000000D+00  0.0000000000000D+00  0.0000000000000D+00
   273  2.7200000000000D+00  0.0000000000000D+00  0.0000000000000D+00
   274  2.7300000000000D+00  0.0000000000000D+00  0.0000000000000D+00
   275  2.7400000000000D+00  0.0000000000000D+00  0.0000000000000D+00
   276  2.7500000000000D+00  0.0000000000000D+00  0.0000000000000D+00
   277  2.7600000000000D+00  0.0000000000000D+00  0.0000000000000D+00
   278  2.7700000000000D+00  0.0000000000000D+00  0.0000000000000D+00
   279  2.7800000000000D+00  0.0000000000000D+00  0.0000000000000D+00
   280  2.7900000000000D+00  0.0000000000000D+00  0.0000000000000D+00
   281  2.8000000000000D+00  0.0000000000000D+00  0.0000000000000D+00
   282  2.8100000000000D+00  0.0000000000000D+00  0.0000000000000D+00
   283  2.8200000000000D+00  0.0000000000000D+00  0.0000000000000D+00
   284  2.8300000000000D+00  0.0000000000000D+00  0.0000000000000D+00
   285  2.8400000000000D+00  0.0000000000000D+00  0.0000000000000D+00
   286  2.8500000000000D+00  0.0000000000000D+00  0.0000000000000D+00
   287  2.8600000000000D+00  0.0000000000000D+00  0.0000000000000D+00
   288  2.8700000000000D+00  0.0000000000000D+00  0.0000000000000D+00
   289  2.8800000000000D+00  0.0000000000000D+00  0.0000000000000D+00
   290  2.8900000000000D+00  0.0000000000000D+00  0.0000000000000D+00
   291  2.9000000000000D+00  0.0000000000000D+00  0.0000000000000D+00
   292  2.9100000000000D+00  0.0000000000000D+00  0.0000000000000D+00
   293  2.9200000000000D+00  0.0000000000000D+00  0.0000000000000D+00
   294  2.9300000000000D+00  0.0000000000000D+00  0.0000000000000D+00
   295  2.9400000000000D+00  0.0000000000000D+00  0.0000000000000D+00
   296  2.9500000000000D+00  0.0000000000000D+00  0.0000000000000D+00
   297  2.9600000000000D+00  0.0000000000000D+00  0.0000000000000D+00
   298  2.9700000000000D+00  0.0000000000000D+00  0.0000000000000D+00
   299  2.9800000000000D+00  0.0000000000000D+00  0.0000000000000D+00
   300  2.9900000000000D+00  0.0000000000000D+00  0.0000000000000D+00
   301  3.0000000000000D+00  0.0000000000000D+00  0.0000000000000D+00
   302  3.0100000000000D+00  0.0000000000000D+00  0.0000000000000D+00
   303  3.0200000000000D+00  0.0000000000000D+00  0.0000000000000D+00
   304  3.0300000000000D+00  0.0000000000000D+00  0.0000000000000D+00
   305  3.0400000000000D+00  0.0000000000000D+00  0.0000000000000D+00
   306  3.0500000000000D+00  0.0000000000000D+00  0.0000000000000D+00
   307  3.0600000000000D+00  0.0000000000000D+00  0.0000000000000D+00
   308  3.0700000000000D+00  0.0000000000000D+00  0.0000000000000D+00
   309  3.0800000000000D+00  0.0000000000000D+00  0.0000000000000D+00
   310  3.0900000000000D+00  0.0000000000000D+00  0.0000000000000D+00
   311  3.1000000000000D+00  0.0000000000000D+00  0.0000000000000D+00
   312  3.1100000000000D+00  0.0000000000000D+00  0.0000000000000D+00
   313  3.1200000000000D+00  0.0000000000000D+00  0.0000000000000D+00
   314  3.1300000000000D+00  0.0000000000000D+00  0.0000000000000D+00
   315  3.1400000000000D+00  0.0000000000000D+00  0.0000000000000D+00
   316  3.1500000000000D+00  0.0000000000000D+00  0.0000000000000D+00
   317  3.1600000000000D+00  0.0000000000000D+00  0.0000000000000D+00
   318  3.1700000000000D+00  0.0000000000000D+00  0.0000000000000D+00
   319  3.1800000000000D+00  0.0000000000000D+00  0.0000000000000D+00
   320  3.1900000000000D+00  0.0000000000000D+00  0.0000000000000D+00
   321  3.2000000000000D+00  0.0000000000000D+00  0.0000000000000D+00
   322  3.2100000000000D+00  0.0000000000000D+00  0.0000000000000D+00
   323  3.2200000000000D+00  0.0000000000000D+00  0.0000000000000D+00
   324  3.2300000000000D+00  0.0000000000000D+00  0.0000000000000D+00
   325  3.2400000000000D+00  0.0000000000000D+00  0.0000000000000D+00
   326  3.2500000000000D+00  0.0000000000000D+00  0.0000000000000D+00
   327  3.2600000000000D+00  0.0000000000000D+00  0.0000000000000D+00
   328  3.2700000000000D+00  0.0000000000000D+00  0.0000000000000D+00
   329  3.2800000000000D+00  0.0000000000000D+00  0.0000000000000D+00
   330  3.2900000000000D+00  0.0000000000000D+00  0.0000000000000D+00
   331  3.3000000000000D+00  0.0000000000000D+00  0.0000000000000D+00
   332  3.3100000000000D+00  0.0000000000000D+00  0.0000000000000D+00
   333  3.3200000000000D+00  0.0000000000000D+00  0.0000000000000D+00
   334  3.3300000000000D+00  0.0000000000000D+00  0.0000000000000D+00
   335  3.3400000000000D+00  0.0000000000000D+00  0.0000000000000D+00
   336  3.3500000000000D+00  0.0000000000000D+00  0.0000000000000D+00
   337  3.3600000000000D+00  0.0000000000000D+00  0.0000000000000D+00
   338  3.3700000000000D+00  0.0000000000000D+00  0.0000000000000D+00
   339  3.3800000000000D+00  0.0000000000000D+00  0.0000000000000D+00
   340  3.3900000000000D+00  0.0000000000000D+00  0.0000000000000D+00
   341  3.4000000000000D+00  0.0000000000000D+00  0.0000000000000D+00
   342  3.4100000000000D+00  0.0000000000000D+00  0.0000000000000D+00
   343  3.4200000000000D+00  0.0000000000000D+00  0.0000000000000D+00
   344  3.4300000000000D+00  0.0000000000000D+00  0.0000000000000D+00
   345  3.4400000000000D+00  0.0000000000000D+00  0.0000000000000D+00
   346  3.4500000000000D+00  0.0000000000000D+00  0.0000000000000D+00
   347  3.4600000000000D+00  0.0000000000000D+00  0.0000000000000D+00
   348  3.4700000000000D+00  0.0000000000000D+00  0.0000000000000D+00
   349  3.4800000000000D+00  0.0000000000000D+00  0.0000000000000D+00
   350  3.4900000000000D+00  0.0000000000000D+00  0.0000000000000D+00
   351  3.5000000000000D+00  0.0000000000000D+00  0.0000000000000D+00
   352  3.5100000000000D+00  0.0000000000000D+00  0.0000000000000D+00
   353  3.5200000000000D+00  0.0000000000000D+00  0.0000000000000D+00
   354  3.5300000000000D+00  0.0000000000000D+00  0.0000000000000D+00
   355  3.5400000000000D+00  0.0000000000000D+00  0.0000000000000D+00
   356  3.5500000000000D+00  0.0000000000000D+00  0.0000000000000D+00
   357  3.5600000000000D+00  0.0000000000000D+00  0.0000000000000D+00
   358  3.5700000000000D+00  0.0000000000000D+00  0.0000000000000D+00
   359  3.5800000000000D+00  0.0000000000000D+00  0.0000000000000D+00
   360  3.5900000000000D+00  0.0000000000000D+00  0.0000000000000D+00
   361  3.6000000000000D+00  0.0000000000000D+00  0.0000000000000D+00
   362  3.6100000000000D+00  0.0000000000000D+00  0.0000000000000D+00
   363  3.6200000000000D+00  0.0000000000000D+00  0.0000000000000D+00
   364  3.6300000000000D+00  0.0000000000000D+00  0.0000000000000D+00
   365  3.6400000000000D+00  0.0000000000000D+00  0.0000000000000D+00
   366  3.6500000000000D+00  0.0000000000000D+00  0.0000000000000D+00
   367  3.6600000000000D+00  0.0000000000000D+00  0.0000000000000D+00
   368  3.6700000000000D+00  0.0000000000000D+00  0.0000000000000D+00
   369  3.6800000000000D+00  0.0000000000000D+00  0.0000000000000D+00
   370  3.6900000000000D+00  0.0000000000000D+00  0.0000000000000D+00
   371  3.7000000000000D+00  0.0000000000000D+00  0.0000000000000D+00
   372  3.7100000000000D+00  0.0000000000000D+00  0.0000000000000D+00
   373  3.7200000000000D+00  0.0000000000000D+00  0.0000000000000D+00
   374  3.7300000000000D+00  0.0000000000000D+00  0.0000000000000D+00
   375  3.7400000000000D+00  0.0000000000000D+00  0.0000000000000D+00
   376  3.7500000000000D+00  0.0000000000000D+00  0.0000000000000D+00
   377  3.7600000000000D+00  0.0000000000000D+00  0.0000000000000D+00
   378  3.7700000000000D+00  0.0000000000000D+00  0.0000000000000D+00
   379  3.7800000000000D+00  0.0000000000000D+00  0.0000000000000D+00
   380  3.7900000000000D+00  0.0000000000000D+00  0.0000000000000D+00
   381  3.8000000000000D+00  0.0000000000000D+00  0.0000000000000D+00
   382  3.8100000000000D+00  0.0000000000000D+00  0.0000000000000D+00
   383  3.8200000000000D+00  0.0000000000000D+00  0.0000000000000D+00
   384  3.8300000000000D+00  0.0000000000000D+00  0.0000000000000D+00
   385  3.8400000000000D+00  0.0000000000000D+00  0.0000000000000D+00
   386  3.8500000000000D+00  0.0000000000000D+00  0.0000000000000D+00
   387  3.8600000000000D+00  0.0000000000000D+00  0.0000000000000D+00
   388  3.8700000000000D+00  0.0000000000000D+00  0.0000000000000D+00
   389  3.8800000000000D+00  0.0000000000000D+00  0.0000000000000D+00
   390  3.8900000000000D+00  0.0000000000000D+00  0.0000000000000D+00
   391  3.9000000000000D+00  0.0000000000000D+00  0.0000000000000D+00
   392  3.9100000000000D+00  0.0000000000000D+00  0.0000000000000D+00
   393  3.9200000000000D+00  0.0000000000000D+00  0.0000000000000D+00
   394  3.9300000000000D+00  0.0000000000000D+00  0.0000000000000D+00
   395  3.9400000000000D+00  0.0000000000000D+00  0.0000000000000D+00
   396  3.9500000000000D+00  0.0000000000000D+00  0.0000000000000D+00
   397  3.9600000000000D+00  0.0000000000000D+00  0.0000000000000D+00
   398  3.9700000000000D+00  0.0000000000000D+00  0.0000000000000D+00
   399  3.9800000000000D+00  0.0000000000000D+00  0.0000000000000D+00
   400  3.9900000000000D+00  0.0000000000000D+00  0.0000000000000D+00
   401  4.0000000000000D+00  0.0000000000000D+00  0.0000000000000D+00
   402  4.0100000000000D+00  0.0000000000000D+00  0.0000000000000D+00
   403  4.0200000000000D+00  0.0000000000000D+00  0.0000000000000D+00
   404  4.0300000000000D+00  0.0000000000000D+00  0.0000000000000D+00
   405  4.0400000000000D+00  0.0000000000000D+00  0.0000000000000D+00
   406  4.0500000000000D+00  0.0000000000000D+00  0.0000000000000D+00
   407  4.0600000000000D+00  0.0000000000000D+00  0.0000000000000D+00
   408  4.0700000000000D+00  0.0000000000000D+00  0.0000000000000D+00
   409  4.0800000000000D+00  0.0000000000000D+00  0.0000000000000D+00
   410  4.0900000000000D+00  0.0000000000000D+00  0.0000000000000D+00
   411  4.1000000000000D+00  0.0000000000000D+00  0.0000000000000D+00
   412  4.1100000000000D+00  0.0000000000000D+00  0.0000000000000D+00
   413  4.1200000000000D+00  0.0000000000000D+00  0.0000000000000D+00
   414  4.1300000000000D+00  0.0000000000000D+00  0.0000000000000D+00
   415  4.1400000000000D+00  0.0000000000000D+00  0.0000000000000D+00
   416  4.1500000000000D+00  0.0000000000000D+00  0.0000000000000D+00
   417  4.1600000000000D+00  0.0000000000000D+00  0.0000000000000D+00
   418  4.1700000000000D+00  0.0000000000000D+00  0.0000000000000D+00
   419  4.1800000000000D+00  0.0000000000000D+00  0.0000000000000D+00
   420  4.1900000000000D+00  0.0000000000000D+00  0.0000000000000D+00
   421  4.2000000000000D+00  0.0000000000000D+00  0.0000000000000D+00
   422  4.2100000000000D+00  0.0000000000000D+00  0.0000000000000D+00