Tc    ONCVPSP-3.3.1  r_core=   2.46076   2.58101   2.67505
     43.0000     15.0000      210904    zatom,zion,pspd
     8      11   2     4   600     0    pspcod,pspxc,lmax,lloc,mmax,r2well
  5.99000000  0.00000000  0.00000000    rchrg fchrg qchrg
     2     4     3     0    nproj
     3     1           extension_switch
     4     4     0    nprojso
   0                         8.8003715292028D-01  4.4762029564616D+00
     1  0.0000000000000D+00 -8.1484541336607D-12  2.2395418852739D-12
     2  1.0000000000000D-02 -4.8340435178776D-03  4.9780007153656D-02
     3  2.0000000000000D-02 -9.6475710924062D-03  9.9497896918861D-02
     4  3.0000000000000D-02 -1.4420044422417D-02  1.4909162452362D-01
     5  4.0000000000000D-02 -1.9130880862133D-02  1.9849929043454D-01
     6  5.0000000000000D-02 -2.3759432174386D-02  2.4765921298982D-01
     7  6.0000000000000D-02 -2.8284964388671D-02  2.9651000104702D-01
     8  7.0000000000000D-02 -3.2686639122708D-02  3.4499062664802D-01
     9  8.0000000000000D-02 -3.6943496717998D-02  3.9304049770106D-01
    10  9.0000000000000D-02 -4.1034441529646D-02  4.4059953067731D-01
    11  1.0000000000000D-01 -4.4938229698652D-02  4.8760822331583D-01
    12  1.1000000000000D-01 -4.8633459720781D-02  5.3400772732698D-01
    13  1.2000000000000D-01 -5.2098566110270D-02  5.7973992108034D-01
    14  1.3000000000000D-01 -5.5311816439001D-02  6.2474748225787D-01
    15  1.4000000000000D-01 -5.8251312012303D-02  6.6897396044839D-01
    16  1.5000000000000D-01 -6.0894992421640D-02  7.1236384965332D-01
    17  1.6000000000000D-01 -6.3220644191758D-02  7.5486266066806D-01
    18  1.7000000000000D-01 -6.5205913715952D-02  7.9641699329642D-01
    19  1.8000000000000D-01 -6.6828324647591D-02  8.3697460834946D-01
    20  1.9000000000000D-01 -6.8065299889512D-02  8.7648449937251D-01
    21  2.0000000000000D-01 -6.8894188294971D-02  9.1489696403728D-01
    22  2.1000000000000D-01 -6.9292296165095D-02  9.5216367512837D-01
    23  2.2000000000000D-01 -6.9236923598033D-02  9.8823775104579D-01
    24  2.3000000000000D-01 -6.8705405714372D-02  1.0230738257376D+00
    25  2.4000000000000D-01 -6.7675158752412D-02  1.0566281179686D+00
    26  2.5000000000000D-01 -6.6123730995092D-02  1.0888584998240D+00
    27  2.6000000000000D-01 -6.4028858458289D-02  1.1197245643371D+00
    28  2.7000000000000D-01 -6.1368525238196D-02  1.1491876921263D+00
    29  2.8000000000000D-01 -5.8121028382874D-02  1.1772111169133D+00
    30  2.9000000000000D-01 -5.4265047121074D-02  1.2037599897935D+00
    31  3.0000000000000D-01 -4.9779716249434D-02  1.2288014421163D+00
    32  3.1000000000000D-01 -4.4644703447416D-02  1.2523046468312D+00
    33  3.2000000000000D-01 -3.8840290258592D-02  1.2742408781446D+00
    34  3.3000000000000D-01 -3.2347456446431D-02  1.2945835693300D+00
    35  3.4000000000000D-01 -2.5147967403375D-02  1.3133083685249D+00
    36  3.5000000000000D-01 -1.7224464263742D-02  1.3303931923461D+00
    37  3.6000000000000D-01 -8.5605563436769D-03  1.3458182771461D+00
    38  3.7000000000000D-01  8.5908449424662D-04  1.3595662277338D+00
    39  3.8000000000000D-01  1.1048627978626D-02  1.3716220633757D+00
    40  3.9000000000000D-01  2.2020988518285D-02  1.3819732608924D+00
    41  4.0000000000000D-01  3.3787727713163D-02  1.3906097946640D+00
    42  4.1000000000000D-01  4.6358956775900D-02  1.3975241733543D+00
    43  4.2000000000000D-01  5.9743239370167D-02  1.4027114731663D+00
    44  4.3000000000000D-01  7.3947495386007D-02  1.4061693674398D+00
    45  4.4000000000000D-01  8.8976906185069D-02  1.4078981524036D+00
    46  4.5000000000000D-01  1.0483482185803D-01  1.4079007688981D+00
    47  4.6000000000000D-01  1.2152267104423D-01  1.4061828198859D+00
    48  4.7000000000000D-01  1.3903987386779D-01  1.4027525835738D+00
    49  4.8000000000000D-01  1.5738375854661D-01  1.3976210219729D+00
    50  4.9000000000000D-01  1.7654948222990D-01  1.3908017847310D+00
    51  5.0000000000000D-01  1.9652995661584D-01  1.3823112080798D+00
    52  5.1000000000000D-01  2.1731577889482D-01  1.3721683087442D+00
    53  5.2000000000000D-01  2.3889516855382D-01  1.3603947726744D+00
    54  5.3000000000000D-01  2.6125391056537D-01  1.3470149384691D+00
    55  5.4000000000000D-01  2.8437530546882D-01  1.3320557753704D+00
    56  5.5000000000000D-01  3.0824012683354D-01  1.3155468557238D+00
    57  5.6000000000000D-01  3.3282658657242D-01  1.2975203218088D+00
    58  5.7000000000000D-01  3.5811030854977D-01  1.2780108469617D+00
    59  5.8000000000000D-01  3.8406431090088D-01  1.2570555909253D+00
    60  5.9000000000000D-01  4.1065899745090D-01  1.2346941493787D+00
    61  6.0000000000000D-01  4.3786215858822D-01  1.2109684976153D+00
    62  6.1000000000000D-01  4.6563898191268D-01  1.1859229283554D+00
    63  6.2000000000000D-01  4.9395207294158D-01  1.1596039836999D+00
    64  6.3000000000000D-01  5.2276148611693D-01  1.1320603812477D+00
    65  6.4000000000000D-01  5.5202476631533D-01  1.1033429344223D+00
    66  6.5000000000000D-01  5.8169700101823D-01  1.0735044670714D+00
    67  6.6000000000000D-01  6.1173088325466D-01  1.0425997224241D+00
    68  6.7000000000000D-01  6.4207678538112D-01  1.0106852665128D+00
    69  6.8000000000000D-01  6.7268284371467D-01  9.7781938618771D-01
    70  6.9000000000000D-01  7.0349505398534D-01  9.4406198187146D-01
    71  7.0000000000000D-01  7.3445737752298D-01  9.0947445522731D-01
    72  7.1000000000000D-01  7.6551185804192D-01  8.7411959193175D-01
    73  7.2000000000000D-01  7.9659874883462D-01  8.3806143976687D-01
    74  7.3000000000000D-01  8.2765665013295D-01  8.0136518226817D-01
    75  7.4000000000000D-01  8.5862265634317D-01  7.6409700818462D-01
    76  7.5000000000000D-01  8.8943251280843D-01  7.2632397702907D-01
    77  7.6000000000000D-01  9.2002078170086D-01  6.8811388101671D-01
    78  7.7000000000000D-01  9.5032101659415D-01  6.4953510370951D-01
    79  7.8000000000000D-01  9.8026594521780D-01  6.1065647570299D-01
    80  7.9000000000000D-01  1.0097876598454D+00  5.7154712771017D-01
    81  8.0000000000000D-01  1.0388178147225D+00  5.3227634141437D-01
    82  8.1000000000000D-01  1.0672878298940D+00  4.9291339847889D-01
    83  8.2000000000000D-01  1.0951291007485D+00  4.5352742811645D-01
    84  8.3000000000000D-01  1.1222732125561D+00  4.1418725363518D-01
    85  8.4000000000000D-01  1.1486521592381D+00  3.7496123839016D-01
    86  8.5000000000000D-01  1.1741985655709D+00  3.3591713158084D-01
    87  8.6000000000000D-01  1.1988459119975D+00  2.9712191434399D-01
    88  8.7000000000000D-01  1.2225287611855D+00  2.5864164659991D-01
    89  8.8000000000000D-01  1.2451829854518D+00  2.2054131511591D-01
    90  8.9000000000000D-01  1.2667459941472D+00  1.8288468325576D-01
    91  9.0000000000000D-01  1.2871569600793D+00  1.4573414288673D-01
    92  9.1000000000000D-01  1.3063570440366D+00  1.0915056891660D-01
    93  9.2000000000000D-01  1.3242896164693D+00  7.3193176932775D-02
    94  9.3000000000000D-01  1.3409004753739D+00  3.7919384412372D-02
    95  9.4000000000000D-01  1.3561380594302D+00  3.3846759679277D-03
    96  9.5000000000000D-01  1.3699536554414D+00 -3.0357526913206D-02
    97  9.6000000000000D-01  1.3823015991355D+00 -6.3255991186252D-02
    98  9.7000000000000D-01  1.3931394684009D+00 -9.5261792183934D-02
    99  9.8000000000000D-01  1.4024282680414D+00 -1.2632842774205D-01
   100  9.9000000000000D-01  1.4101326051622D+00 -1.5641192610305D-01
   101  1.0000000000000D+00  1.4162208543201D+00 -1.8547094720053D-01
   102  1.0100000000000D+00  1.4206653116032D+00 -2.1346687694633D-01
   103  1.0200000000000D+00  1.4234423368393D+00 -2.4036391416052D-01
   104  1.0300000000000D+00  1.4245324831702D+00 -2.6612914980662D-01
   105  1.0400000000000D+00  1.4239206132709D+00 -2.9073263821680D-01
   106  1.0500000000000D+00  1.4215960015425D+00 -3.1414746001745D-01
   107  1.0600000000000D+00  1.4175524216494D+00 -3.3634977648874D-01
   108  1.0700000000000D+00  1.4117882188346D+00 -3.5731887512255D-01
   109  1.0800000000000D+00  1.4043063664954D+00 -3.7703720616921D-01
   110  1.0900000000000D+00  1.3951145065647D+00 -3.9549040999400D-01
   111  1.1000000000000D+00  1.3842249733078D+00 -4.1266733509628D-01
   112  1.1100000000000D+00  1.3716548001973D+00 -4.2856004667124D-01
   113  1.1200000000000D+00  1.3574257096119D+00 -4.4316382563282D-01
   114  1.1300000000000D+00  1.3415640851579D+00 -4.5647715804403D-01
   115  1.1400000000000D+00  1.3241009264982D+00 -4.6850171493988D-01
   116  1.1500000000000D+00  1.3050717866177D+00 -4.7924232255168D-01
   117  1.1600000000000D+00  1.2845166915568D+00 -4.8870692298766D-01
   118  1.1700000000000D+00  1.2624800426939D+00 -4.9690652545033D-01
   119  1.1800000000000D+00  1.2390105017452D+00 -5.0385514811001D-01
   120  1.1900000000000D+00  1.2141608586960D+00 -5.0956975077743D-01
   121  1.2000000000000D+00  1.1879878829821D+00 -5.1407015856495D-01
   122  1.2100000000000D+00  1.1605521582918D+00 -5.1737897675138D-01
   123  1.2200000000000D+00  1.1319179014147D+00 -5.1952149709107D-01
   124  1.2300000000000D+00  1.1021527656518D+00 -5.2052559584732D-01
   125  1.2400000000000D+00  1.0713276293610D+00 -5.2042162385949D-01
   126  1.2500000000000D+00  1.0395163702611D+00 -5.1924228897439D-01
   127  1.2600000000000D+00  1.0067956261794D+00 -5.1702253120075D-01
   128  1.2700000000000D+00  9.7324454300331D-01 -5.1379939098099D-01
   129  1.2800000000000D+00  9.3894451062312D-01 -5.0961187098594D-01
   130  1.2900000000000D+00  9.0397888770264D-01 -5.0450079186041D-01
   131  1.3000000000000D+00  8.6843271618821D-01 -4.9850864238204D-01
   132  1.3100000000000D+00  8.3239242646976D-01 -4.9167942449621D-01
   133  1.3200000000000D+00  7.9594553415702D-01 -4.8405849371289D-01
   134  1.3300000000000D+00  7.5918032948446D-01 -4.7569239537373D-01
   135  1.3400000000000D+00  7.2218556034620D-01 -4.6662869729228D-01
   136  1.3500000000000D+00  6.8505011001652D-01 -4.5691581929477D-01
   137  1.3600000000000D+00  6.4786267061528D-01 -4.4660286019039D-01
   138  1.3700000000000D+00  6.1071141337951D-01 -4.3573942270108D-01
   139  1.3800000000000D+00  5.7368365683042D-01 -4.2437543689330D-01
   140  1.3900000000000D+00  5.3686553389519D-01 -4.1256098264085D-01
   141  1.4000000000000D+00  5.0034165907806D-01 -4.0034611166357D-01
   142  1.4100000000000D+00  4.6419479671452D-01 -3.8778066965954D-01
   143  1.4200000000000D+00  4.2850553137902D-01 -3.7491411906482D-01
   144  1.4300000000000D+00  3.9335194146880D-01 -3.6179536295318D-01
   145  1.4400000000000D+00  3.5880927693143D-01 -3.4847257056364D-01
   146  1.4500000000000D+00  3.2494964218490D-01 -3.3499300498031D-01
   147  1.4600000000000D+00  2.9184168505524D-01 -3.2140285338792D-01
   148  1.4700000000000D+00  2.5955029274940D-01 -3.0774706041357D-01
   149  1.4800000000000D+00  2.2813629562621D-01 -2.9406916495037D-01
   150  1.4900000000000D+00  1.9765617960158D-01 -2.8041114089140D-01
   151  1.5000000000000D+00  1.6816180800439D-01 -2.6681324219408D-01
   152  1.5100000000000D+00  1.3970015342668D-01 -2.5331385257117D-01
   153  1.5200000000000D+00  1.1231304046684D-01 -2.3994934026583D-01
   154  1.5300000000000D+00  8.6036897396234D-02 -2.2675391741521D-01
   155  1.5400000000000D+00  6.0902529029525D-02 -2.1375950784729D-01
   156  1.5500000000000D+00  3.6934871723586D-02 -2.0099561148024D-01
   157  1.5600000000000D+00  1.4152853485149D-02 -1.8848920365750D-01
   158  1.5700000000000D+00 -7.4307705452477D-03 -1.7626462720757D-01
   159  1.5800000000000D+00 -2.7810123650183D-02 -1.6434332753570D-01
   160  1.5900000000000D+00 -4.6985540390469D-02 -1.5274400017209D-01
   161  1.6000000000000D+00 -6.4962235840665D-02 -1.4148293242133D-01
   162  1.6100000000000D+00 -8.1749240876048D-02 -1.3057430567582D-01
   163  1.6200000000000D+00 -9.7357797594040D-02 -1.2003067319269D-01
   164  1.6300000000000D+00 -1.1180138777286D-01 -1.0986295748926D-01
   165  1.6400000000000D+00 -1.2509606339743D-01 -1.0008037100406D-01
   166  1.6500000000000D+00 -1.3726015678431D-01 -9.0690511963653D-02
   167  1.6600000000000D+00 -1.4831427517022D-01 -8.1699381563967D-02
   168  1.6700000000000D+00 -1.5828119558526D-01 -7.3111431381479D-02
   169  1.6800000000000D+00 -1.6718577828768D-01 -6.4929606802836D-02
   170  1.6900000000000D+00 -1.7505486750237D-01 -5.7155395541605D-02
   171  1.7000000000000D+00 -1.8191718452225D-01 -4.9788879649884D-02
   172  1.7100000000000D+00 -1.8780321356612D-01 -4.2828790891304D-02
   173  1.7200000000000D+00 -1.9274508146209D-01 -3.6272569031273D-02
   174  1.7300000000000D+00 -1.9677643137099D-01 -3.0116422950058D-02
   175  1.7400000000000D+00 -1.9993229156837D-01 -2.4355394152239D-02
   176  1.7500000000000D+00 -2.0224893965751D-01 -1.8983422516162D-02
   177  1.7600000000000D+00 -2.0376376312820D-01 -1.3993413896438D-02
   178  1.7700000000000D+00 -2.0451511680336D-01 -9.3773093551813D-03
   179  1.7800000000000D+00 -2.0454217795667D-01 -5.1261556867613D-03
   180  1.7900000000000D+00 -2.0388479980416D-01 -1.2301769464418D-03
   181  1.8000000000000D+00 -2.0258336402081D-01  2.3211532993751D-03
   182  1.8100000000000D+00 -2.0067863308995D-01  5.5390393354331D-03
   183  1.8200000000000D+00 -1.9821160305546D-01  8.4352905207503D-03
   184  1.8300000000000D+00 -1.9522335748826D-01  1.1022248711651D-02
   185  1.8400000000000D+00 -1.9175492326245D-01  1.3312716140738D-02
   186  1.8500000000000D+00 -1.8784712878574D-01  1.5319884028470D-02
   187  1.8600000000000D+00 -1.8354046547672D-01  1.7057262259270D-02
   188  1.8700000000000D+00 -1.7887495275571D-01  1.8538610251548D-02
   189  1.8800000000000D+00 -1.7389000772731D-01  1.9777869505701D-02
   190  1.8900000000000D+00 -1.6862431919867D-01  2.0789097715720D-02
   191  1.9000000000000D+00 -1.6311572780518D-01  2.1586405157692D-02
   192  1.9100000000000D+00 -1.5740111154555D-01  2.2183893103637D-02
   193  1.9200000000000D+00 -1.5151627794263D-01  2.2595594773788D-02
   194  1.9300000000000D+00 -1.4549586267542D-01  2.2835418781048D-02
   195  1.9400000000000D+00 -1.3937323554089D-01  2.2917095422345D-02
   196  1.9500000000000D+00 -1.3318041429204D-01  2.2854126054000D-02
   197  1.9600000000000D+00 -1.2694798560412D-01  2.2659735284412D-02
   198  1.9700000000000D+00 -1.2070503511197D-01  2.2346826769612D-02
   199  1.9800000000000D+00 -1.1447908511386D-01  2.1927942062549D-02
   200  1.9900000000000D+00 -1.0829604079923D-01  2.1415222921683D-02
   201  2.0000000000000D+00 -1.0218014442477D-01  2.0820376840385D-02
   202  2.0100000000000D+00 -9.6153938641687D-02  2.0154646283082D-02
   203  2.0200000000000D+00 -9.0238239270309D-02  1.9428781763782D-02
   204  2.0300000000000D+00 -8.4452115930675D-02  1.8653018163911D-02
   205  2.0400000000000D+00 -7.8812881755224D-02  1.7837054830031D-02
   206  2.0500000000000D+00 -7.3336090847303D-02  1.6990038893361D-02
   207  2.0600000000000D+00 -6.8035544894991D-02  1.6120552408376D-02
   208  2.0700000000000D+00 -6.2923307831066D-02  1.5236602884565D-02
   209  2.0800000000000D+00 -5.8009728046359D-02  1.4345617032994D-02
   210  2.0900000000000D+00 -5.3303469134956D-02  1.3454438145480D-02
   211  2.1000000000000D+00 -4.8811547114172D-02  1.2569326286951D-02
   212  2.1100000000000D+00 -4.4539375513929D-02  1.1695961892788D-02
   213  2.1200000000000D+00 -4.0490816877360D-02  1.0839452194917D-02
   214  2.1300000000000D+00 -3.6668240363245D-02  1.0004340371017D-02
   215  2.1400000000000D+00 -3.3072585887462D-02  9.1946176205956D-03
   216  2.1500000000000D+00 -2.9703433004400D-02  8.4137374438058D-03
   217  2.1600000000000D+00 -2.6559075307215D-02  7.6646324743000D-03
   218  2.1700000000000D+00 -2.3636599180499D-02  6.9497334011418D-03
   219  2.1800000000000D+00 -2.0931966307765D-02  6.2709897522191D-03
   220  2.1900000000000D+00 -1.8440100051996D-02  5.6298926256584D-03
   221  2.2000000000000D+00 -1.6154974431220D-02  5.0274988381544D-03
   222  2.2100000000000D+00 -1.4069705597802D-02  4.4644564965045D-03
   223  2.2200000000000D+00 -1.2176645147627D-02  3.9410317305260D-03
   224  2.2300000000000D+00 -1.0467474702869D-02  3.4571363505829D-03
   225  2.2400000000000D+00 -8.9333010931167D-03  3.0123562254827D-03
   226  2.2500000000000D+00 -7.5647518117261D-03  2.6059802109697D-03
   227  2.2600000000000D+00 -6.3520700988832D-03  2.2370294012528D-03
   228  2.2700000000000D+00 -5.2852087522772D-03  1.9042863770989D-03
   229  2.2800000000000D+00 -4.3539229962228D-03  1.6063245398733D-03
   230  2.2900000000000D+00 -3.5478609054743D-03  1.3415369913167D-03
   231  2.3000000000000D+00 -2.8566511784677D-03  1.1081648687550D-03
   232  2.3100000000000D+00 -2.2699888406507D-03  9.0432533468311D-04
   233  2.3200000000000D+00 -1.7777161887217D-03  7.2803823476963D-04
   234  2.3300000000000D+00 -1.3699005116558D-03  5.7725197217930D-04
   235  2.3400000000000D+00 -1.0369080353591D-03  4.4986838968357D-04
   236  2.3500000000000D+00 -7.6947162874852D-04  3.4376574294954D-04
   237  2.3600000000000D+00 -5.5875479480143D-04  2.5682068896564D-04
   238  2.3700000000000D+00 -3.9641000469686D-04  1.8692856382917D-04
   239  2.3800000000000D+00 -2.7466284573209D-04  1.3202407014981D-04
   240  2.3900000000000D+00 -1.8625514791916D-04  9.0089978274421D-05
   241  2.4000000000000D+00 -1.2453617076752D-04  5.9175732703374D-05
   242  2.4100000000000D+00 -8.3293760091071D-05  3.7349982202641D-05
   243  2.4200000000000D+00 -5.7821518821514D-05  2.2948331926915D-05
   244  2.4300000000000D+00 -4.4021974090324D-05  1.4379671146005D-05
   245  2.4400000000000D+00 -3.9083970890372D-05  1.0356060964734D-05
   246  2.4500000000000D+00 -3.7151327513449D-05  8.7165084340185D-06
   247  2.4600000000000D+00 -3.3614352003586D-05  7.6591637040646D-06
   248  2.4700000000000D+00 -2.3583250785533D-05  5.3569454473603D-06
   249  2.4800000000000D+00 -1.1184204297174D-05  2.5620924670960D-06
   250  2.4900000000000D+00 -2.5320292576062D-07  5.8717504609316D-08
   251  2.5000000000000D+00  3.3307123611440D-06 -7.3642874473231D-07
   252  2.5100000000000D+00  2.7068954797713D-06 -5.9882965853996D-07
   253  2.5200000000000D+00  4.7698833880392D-08 -1.0564715232428D-08
   254  2.5300000000000D+00 -7.0154104011770D-07  1.5038646989800D-07
   255  2.5400000000000D+00 -6.3671425465164D-07  1.3610093108885D-07
   256  2.5500000000000D+00 -2.8934120246387D-08  6.1699654641249D-09
   257  2.5600000000000D+00  8.2729194056980D-08 -1.8853710575198D-08
   258  2.5700000000000D+00  8.2226394201558D-08 -1.8739124145831D-08
   259  2.5800000000000D+00  9.2027359970750D-09 -2.0972731931766D-09
   260  2.5900000000000D+00  0.0000000000000D+00  0.0000000000000D+00
   261  2.6000000000000D+00  0.0000000000000D+00  0.0000000000000D+00
   262  2.6100000000000D+00  0.0000000000000D+00  0.0000000000000D+00
   263  2.6200000000000D+00  0.0000000000000D+00  0.0000000000000D+00
   264  2.6300000000000D+00  0.0000000000000D+00  0.0000000000000D+00
   265  2.6400000000000D+00  0.0000000000000D+00  0.0000000000000D+00
   266  2.6500000000000D+00  0.0000000000000D+00  0.0000000000000D+00
   267  2.6600000000000D+00  0.0000000000000D+00  0.0000000000000D+00
   268  2.6700000000000D+00  0.0000000000000D+00  0.0000000000000D+00
   269  2.6800000000000D+00  0.0000000000000D+00  0.0000000000000D+00
   270  2.6900000000000D+00  0.0000000000000D+00  0.0000000000000D+00
   271  2.7000000000000D+00  0.0000000000000D+00  0.0000000000000D+00
   272  2.7100000000000D+00  0.0000000000000D+00  0.0000000000000D+00
   273  2.7200000000000D+00  0.0000000000000D+00  0.0000000000000D+00
   274  2.7300000000000D+00  0.0000000000000D+00  0.0000000000000D+00
   275  2.7400000000000D+00  0.0000000000000D+00  0.0000000000000D+00
   276  2.7500000000000D+00  0.0000000000000D+00  0.0000000000000D+00
   277  2.7600000000000D+00  0.0000000000000D+00  0.0000000000000D+00
   278  2.7700000000000D+00  0.0000000000000D+00  0.0000000000000D+00
   279  2.7800000000000D+00  0.0000000000000D+00  0.0000000000000D+00
   280  2.7900000000000D+00  0.0000000000000D+00  0.0000000000000D+00
   281  2.8000000000000D+00  0.0000000000000D+00  0.0000000000000D+00
   282  2.8100000000000D+00  0.0000000000000D+00  0.0000000000000D+00
   283  2.8200000000000D+00  0.0000000000000D+00  0.0000000000000D+00
   284  2.8300000000000D+00  0.0000000000000D+00  0.0000000000000D+00
   285  2.8400000000000D+00  0.0000000000000D+00  0.0000000000000D+00
   286  2.8500000000000D+00  0.0000000000000D+00  0.0000000000000D+00
   287  2.8600000000000D+00  0.0000000000000D+00  0.0000000000000D+00
   288  2.8700000000000D+00  0.0000000000000D+00  0.0000000000000D+00
   289  2.8800000000000D+00  0.0000000000000D+00  0.0000000000000D+00
   290  2.8900000000000D+00  0.0000000000000D+00  0.0000000000000D+00
   291  2.9000000000000D+00  0.0000000000000D+00  0.0000000000000D+00
   292  2.9100000000000D+00  0.0000000000000D+00  0.0000000000000D+00
   293  2.9200000000000D+00  0.0000000000000D+00  0.0000000000000D+00
   294  2.9300000000000D+00  0.0000000000000D+00  0.0000000000000D+00
   295  2.9400000000000D+00  0.0000000000000D+00  0.0000000000000D+00
   296  2.9500000000000D+00  0.0000000000000D+00  0.0000000000000D+00
   297  2.9600000000000D+00  0.0000000000000D+00  0.0000000000000D+00
   298  2.9700000000000D+00  0.0000000000000D+00  0.0000000000000D+00
   299  2.9800000000000D+00  0.0000000000000D+00  0.0000000000000D+00
   300  2.9900000000000D+00  0.0000000000000D+00  0.0000000000000D+00
   301  3.0000000000000D+00  0.0000000000000D+00  0.0000000000000D+00
   302  3.0100000000000D+00  0.0000000000000D+00  0.0000000000000D+00
   303  3.0200000000000D+00  0.0000000000000D+00  0.0000000000000D+00
   304  3.0300000000000D+00  0.0000000000000D+00  0.0000000000000D+00
   305  3.0400000000000D+00  0.0000000000000D+00  0.0000000000000D+00
   306  3.0500000000000D+00  0.0000000000000D+00  0.0000000000000D+00
   307  3.0600000000000D+00  0.0000000000000D+00  0.0000000000000D+00
   308  3.0700000000000D+00  0.0000000000000D+00  0.0000000000000D+00
   309  3.0800000000000D+00  0.0000000000000D+00  0.0000000000000D+00
   310  3.0900000000000D+00  0.0000000000000D+00  0.0000000000000D+00
   311  3.1000000000000D+00  0.0000000000000D+00  0.0000000000000D+00
   312  3.1100000000000D+00  0.0000000000000D+00  0.0000000000000D+00
   313  3.1200000000000D+00  0.0000000000000D+00  0.0000000000000D+00
   314  3.1300000000000D+00  0.0000000000000D+00  0.0000000000000D+00
   315  3.1400000000000D+00  0.0000000000000D+00  0.0000000000000D+00
   316  3.1500000000000D+00  0.0000000000000D+00  0.0000000000000D+00
   317  3.1600000000000D+00  0.0000000000000D+00  0.0000000000000D+00
   318  3.1700000000000D+00  0.0000000000000D+00  0.0000000000000D+00
   319  3.1800000000000D+00  0.0000000000000D+00  0.0000000000000D+00
   320  3.1900000000000D+00  0.0000000000000D+00  0.0000000000000D+00
   321  3.2000000000000D+00  0.0000000000000D+00  0.0000000000000D+00
   322  3.2100000000000D+00  0.0000000000000D+00  0.0000000000000D+00
   323  3.2200000000000D+00  0.0000000000000D+00  0.0000000000000D+00
   324  3.2300000000000D+00  0.0000000000000D+00  0.0000000000000D+00
   325  3.2400000000000D+00  0.0000000000000D+00  0.0000000000000D+00
   326  3.2500000000000D+00  0.0000000000000D+00  0.0000000000000D+00
   327  3.2600000000000D+00  0.0000000000000D+00  0.0000000000000D+00
   328  3.2700000000000D+00  0.0000000000000D+00  0.0000000000000D+00
   329  3.2800000000000D+00  0.0000000000000D+00  0.0000000000000D+00
   330  3.2900000000000D+00  0.0000000000000D+00  0.0000000000000D+00
   331  3.3000000000000D+00  0.0000000000000D+00  0.0000000000000D+00
   332  3.3100000000000D+00  0.0000000000000D+00  0.0000000000000D+00
   333  3.3200000000000D+00  0.0000000000000D+00  0.0000000000000D+00
   334  3.3300000000000D+00  0.0000000000000D+00  0.0000000000000D+00
   335  3.3400000000000D+00  0.0000000000000D+00  0.0000000000000D+00
   336  3.3500000000000D+00  0.0000000000000D+00  0.0000000000000D+00
   337  3.3600000000000D+00  0.0000000000000D+00  0.0000000000000D+00
   338  3.3700000000000D+00  0.0000000000000D+00  0.0000000000000D+00
   339  3.3800000000000D+00  0.0000000000000D+00  0.0000000000000D+00
   340  3.3900000000000D+00  0.0000000000000D+00  0.0000000000000D+00
   341  3.4000000000000D+00  0.0000000000000D+00  0.0000000000000D+00
   342  3.4100000000000D+00  0.0000000000000D+00  0.0000000000000D+00
   343  3.4200000000000D+00  0.0000000000000D+00  0.0000000000000D+00
   344  3.4300000000000D+00  0.0000000000000D+00  0.0000000000000D+00
   345  3.4400000000000D+00  0.0000000000000D+00  0.0000000000000D+00
   346  3.4500000000000D+00  0.0000000000000D+00  0.0000000000000D+00
   347  3.4600000000000D+00  0.0000000000000D+00  0.0000000000000D+00
   348  3.4700000000000D+00  0.0000000000000D+00  0.0000000000000D+00
   349  3.4800000000000D+00  0.0000000000000D+00  0.0000000000000D+00
   350  3.4900000000000D+00  0.0000000000000D+00  0.0000000000000D+00
   351  3.5000000000000D+00  0.0000000000000D+00  0.0000000000000D+00
   352  3.5100000000000D+00  0.0000000000000D+00  0.0000000000000D+00
   353  3.5200000000000D+00  0.0000000000000D+00  0.0000000000000D+00
   354  3.5300000000000D+00  0.0000000000000D+00  0.0000000000000D+00
   355  3.5400000000000D+00  0.0000000000000D+00  0.0000000000000D+00
   356  3.5500000000000D+00  0.0000000000000D+00  0.0000000000000D+00
   357  3.5600000000000D+00  0.0000000000000D+00  0.0000000000000D+00
   358  3.5700000000000D+00  0.0000000000000D+00  0.0000000000000D+00
   359  3.5800000000000D+00  0.0000000000000D+00  0.0000000000000D+00
   360  3.5900000000000D+00  0.0000000000000D+00  0.0000000000000D+00
   361  3.6000000000000D+00  0.0000000000000D+00  0.0000000000000D+00
   362  3.6100000000000D+00  0.0000000000000D+00  0.0000000000000D+00
   363  3.6200000000000D+00  0.0000000000000D+00  0.0000000000000D+00
   364  3.6300000000000D+00  0.0000000000000D+00  0.0000000000000D+00
   365  3.6400000000000D+00  0.0000000000000D+00  0.0000000000000D+00
   366  3.6500000000000D+00  0.0000000000000D+00  0.0000000000000D+00
   367  3.6600000000000D+00  0.0000000000000D+00  0.0000000000000D+00
   368  3.6700000000000D+00  0.0000000000000D+00  0.0000000000000D+00
   369  3.6800000000000D+00  0.0000000000000D+00  0.0000000000000D+00
   370  3.6900000000000D+00  0.0000000000000D+00  0.0000000000000D+00
   371  3.7000000000000D+00  0.0000000000000D+00  0.0000000000000D+00
   372  3.7100000000000D+00  0.0000000000000D+00  0.0000000000000D+00
   373  3.7200000000000D+00  0.0000000000000D+00  0.0000000000000D+00
   374  3.7300000000000D+00  0.0000000000000D+00  0.0000000000000D+00
   375  3.7400000000000D+00  0.0000000000000D+00  0.0000000000000D+00
   376  3.7500000000000D+00  0.0000000000000D+00  0.0000000000000D+00
   377  3.7600000000000D+00  0.0000000000000D+00  0.0000000000000D+00
   378  3.7700000000000D+00  0.0000000000000D+00  0.0000000000000D+00
   379  3.7800000000000D+00  0.0000000000000D+00  0.0000000000000D+00
   380  3.7900000000000D+00  0.0000000000000D+00  0.0000000000000D+00
   381  3.8000000000000D+00  0.0000000000000D+00  0.0000000000000D+00
   382  3.8100000000000D+00  0.0000000000000D+00  0.0000000000000D+00
   383  3.8200000000000D+00  0.0000000000000D+00  0.0000000000000D+00
   384  3.8300000000000D+00  0.0000000000000D+00  0.0000000000000D+00
   385  3.8400000000000D+00  0.0000000000000D+00  0.0000000000000D+00
   386  3.8500000000000D+00  0.0000000000000D+00  0.0000000000000D+00
   387  3.8600000000000D+00  0.0000000000000D+00  0.0000000000000D+00
   388  3.8700000000000D+00  0.0000000000000D+00  0.0000000000000D+00
   389  3.8800000000000D+00  0.0000000000000D+00  0.0000000000000D+00
   390  3.8900000000000D+00  0.0000000000000D+00  0.0000000000000D+00
   391  3.9000000000000D+00  0.0000000000000D+00  0.0000000000000D+00
   392  3.9100000000000D+00  0.0000000000000D+00  0.0000000000000D+00
   393  3.9200000000000D+00  0.0000000000000D+00  0.0000000000000D+00
   394  3.9300000000000D+00  0.0000000000000D+00  0.0000000000000D+00
   395  3.9400000000000D+00  0.0000000000000D+00  0.0000000000000D+00
   396  3.9500000000000D+00  0.0000000000000D+00  0.0000000000000D+00
   397  3.9600000000000D+00  0.0000000000000D+00  0.0000000000000D+00
   398  3.9700000000000D+00  0.0000000000000D+00  0.0000000000000D+00
   399  3.9800000000000D+00  0.0000000000000D+00  0.0000000000000D+00
   400  3.9900000000000D+00  0.0000000000000D+00  0.0000000000000D+00
   401  4.0000000000000D+00  0.0000000000000D+00  0.0000000000000D+00
   402  4.0100000000000D+00  0.0000000000000D+00  0.0000000000000D+00
   403  4.0200000000000D+00  0.0000000000000D+00  0.0000000000000D+00
   404  4.0300000000000D+00  0.0000000000000D+00  0.0000000000000D+00
   405  4.0400000000000D+00  0.0000000000000D+00  0.0000000000000D+00
   406  4.0500000000000D+00  0.0000000000000D+00  0.0000000000000D+00
   407  4.0600000000000D+00  0.0000000000000D+00  0.0000000000000D+00
   408  4.0700000000000D+00  0.0000000000000D+00  0.0000000000000D+00
   409  4.0800000000000D+00  0.0000000000000D+00  0.0000000000000D+00
   410  4.0900000000000D+00  0.0000000000000D+00  0.0000000000000D+00
   411  4.1000000000000D+00  0.0000000000000D+00  0.0000000000000D+00
   412  4.1100000000000D+00  0.0000000000000D+00  0.0000000000000D+00
   413  4.1200000000000D+00  0.0000000000000D+00  0.0000000000000D+00
   414  4.1300000000000D+00  0.0000000000000D+00  0.0000000000000D+00
   415  4.1400000000000D+00  0.0000000000000D+00  0.0000000000000D+00
   416  4.1500000000000D+00  0.0000000000000D+00  0.0000000000000D+00
   417  4.1600000000000D+00  0.0000000000000D+00  0.0000000000000D+00
   418  4.1700000000000D+00  0.0000000000000D+00  0.0000000000000D+00
   419  4.1800000000000D+00  0.0000000000000D+00  0.0000000000000D+00
   420  4.1900000000000D+00  0.0000000000000D+00  0.0000000000000D+00
   421  4.2000000000000D+00  0.0000000000000D+00  0.0000000000000D+00
   422  4.2100000000000D+00  0.0000000000000D+00  0.0000000000000D+00