Te    ONCVPSP-3.3.1  r_core=   2.49231   3.16383   2.80807
     52.0000     16.0000      210904    zatom,zion,pspd
     8      11   2     4   600     0    pspcod,pspxc,lmax,lloc,mmax,r2well
  5.99000000  0.00000000  0.00000000    rchrg fchrg qchrg
     2     2     2     0     0    nproj
     1     1           extension_switch
   0                         6.3069430145558D+00  1.3695558534287D+00
     1  0.0000000000000D+00  3.4832553508224D-12 -2.0917934051567D-11
     2  1.0000000000000D-02  1.1909796227715D-02  2.4827336776264D-02
     3  2.0000000000000D-02  2.3847371178442D-02  4.9543695704872D-02
     4  3.0000000000000D-02  3.5840387846752D-02  7.4038545348880D-02
     5  4.0000000000000D-02  4.7916278119794D-02  9.8202245467936D-02
     6  5.0000000000000D-02  6.0102128096339D-02  1.2192648855977D-01
     7  6.0000000000000D-02  7.2424564450689D-02  1.4510473654818D-01
     8  7.0000000000000D-02  8.4909642185693D-02  1.6763265102429D-01
     9  8.0000000000000D-02  9.7582734115603D-02  1.8940851546839D-01
    10  9.0000000000000D-02  1.1046842241518D-01  2.1033364790626D-01
    11  1.0000000000000D-01  1.2359039256630D-01  2.3031280248445D-01
    12  1.1000000000000D-01  1.3697133002720D-01  2.4925455848546D-01
    13  1.2000000000000D-01  1.5063281994266D-01  2.6707169534472D-01
    14  1.3000000000000D-01  1.6459525020577D-01  2.8368155227705D-01
    15  1.4000000000000D-01  1.7887771817322D-01  2.9900637117095D-01
    16  1.5000000000000D-01  1.9349794132688D-01  3.1297362146427D-01
    17  1.6000000000000D-01  2.0847217216421D-01  3.2551630577426D-01
    18  1.7000000000000D-01  2.2381511758912D-01  3.3657324511924D-01
    19  1.8000000000000D-01  2.3953986306327D-01  3.4608934263683D-01
    20  1.9000000000000D-01  2.5565780176520D-01  3.5401582477605D-01
    21  2.0000000000000D-01  2.7217856899181D-01  3.6031045901631D-01
    22  2.1000000000000D-01  2.8910998202254D-01  3.6493774724580D-01
    23  2.2000000000000D-01  3.0645798565216D-01  3.6786909401439D-01
    24  2.3000000000000D-01  3.2422660358310D-01  3.6908294896253D-01
    25  2.4000000000000D-01  3.4241789585197D-01  3.6856492281593D-01
    26  2.5000000000000D-01  3.6103192244896D-01  3.6630787642793D-01
    27  2.6000000000000D-01  3.8006671327143D-01  3.6231198244477D-01
    28  2.7000000000000D-01  3.9951824453583D-01  3.5658475926559D-01
    29  2.8000000000000D-01  4.1938042175373D-01  3.4914107706637D-01
    30  2.9000000000000D-01  4.3964506935962D-01  3.4000313575666D-01
    31  3.0000000000000D-01  4.6030192705887D-01  3.2920041483846D-01
    32  3.1000000000000D-01  4.8133865294534D-01  3.1676959523832D-01
    33  3.2000000000000D-01  5.0274083341832D-01  3.0275445328533D-01
    34  3.3000000000000D-01  5.2449199990871D-01  2.8720572711060D-01
    35  3.4000000000000D-01  5.4657365240422D-01  2.7018095584545D-01
    36  3.5000000000000D-01  5.6896528974312D-01  2.5174429209769D-01
    37  3.6000000000000D-01  5.9164444662566D-01  2.3196628828586D-01
    38  3.7000000000000D-01  6.1458673727194D-01  2.1092365751135D-01
    39  3.8000000000000D-01  6.3776590563426D-01  1.8869900974617D-01
    40  3.9000000000000D-01  6.6115388205197D-01  1.6538056421046D-01
    41  4.0000000000000D-01  6.8472084621606D-01  1.4106183890766D-01
    42  4.1000000000000D-01  7.0843529629110D-01  1.1584131837643D-01
    43  4.2000000000000D-01  7.3226412402174D-01  8.9822100806725D-02
    44  4.3000000000000D-01  7.5617269563185D-01  6.3111525751746D-02
    45  4.4000000000000D-01  7.8012493830472D-01  3.5820783748937D-02
    46  4.5000000000000D-01  8.0408343201426D-01  8.0645092396382D-03
    47  4.6000000000000D-01  8.2800950645864D-01 -2.0039641750580D-02
    48  4.7000000000000D-01  8.5186334283019D-01 -4.8371427641318D-02
    49  4.8000000000000D-01  8.7560408013805D-01 -7.6808469444622D-02
    50  4.9000000000000D-01  8.9918992578397D-01 -1.0522670938139D-01
    51  5.0000000000000D-01  9.2257827007563D-01 -1.3350087826699D-01
    52  5.1000000000000D-01  9.4572580434722D-01 -1.6150496992110D-01
    53  5.2000000000000D-01  9.6858864234297D-01 -1.8911272081805D-01
    54  5.3000000000000D-01  9.9112244450632D-01 -2.1619809316161D-01
    55  5.4000000000000D-01  1.0132825448054D+00 -2.4263575954273D-01
    56  5.5000000000000D-01  1.0350240797142D+00 -2.6830158732019D-01
    57  5.6000000000000D-01  1.0563021189602D+00 -2.9307312085276D-01
    58  5.7000000000000D-01  1.0770717976375D+00 -3.1683005970717D-01
    59  5.8000000000000D-01  1.0972884492821D+00 -3.3945473096981D-01
    60  5.9000000000000D-01  1.1169077394934D+00 -3.6083255380026D-01
    61  6.0000000000000D-01  1.1358857996869D+00 -3.8085249438351D-01
    62  6.1000000000000D-01  1.1541793605553D+00 -3.9940750946326D-01
    63  6.2000000000000D-01  1.1717458848154D+00 -4.1639497667205D-01
    64  6.3000000000000D-01  1.1885436988157D+00 -4.3171710991500D-01
    65  6.4000000000000D-01  1.2045321225812D+00 -4.4528135811202D-01
    66  6.5000000000000D-01  1.2196715978739D+00 -4.5700078565892D-01
    67  6.6000000000000D-01  1.2339238138493D+00 -4.6679443303118D-01
    68  6.7000000000000D-01  1.2472518298965D+00 -4.7458765602303D-01
    69  6.8000000000000D-01  1.2596201952534D+00 -4.8031244219177D-01
    70  6.9000000000000D-01  1.2709950649983D+00 -4.8390770316045D-01
    71  7.0000000000000D-01  1.2813443120263D+00 -4.8531954152069D-01
    72  7.1000000000000D-01  1.2906376346316D+00 -4.8450149117362D-01
    73  7.2000000000000D-01  1.2988466593270D+00 -4.8141473004745D-01
    74  7.3000000000000D-01  1.3059450385459D+00 -4.7602826423643D-01
    75  7.4000000000000D-01  1.3119085428875D+00 -4.6831908271719D-01
    76  7.5000000000000D-01  1.3167151475807D+00 -4.5827228191372D-01
    77  7.6000000000000D-01  1.3203451128595D+00 -4.4588115950158D-01
    78  7.7000000000000D-01  1.3227810579632D+00 -4.3114727696516D-01
    79  7.8000000000000D-01  1.3240080284902D+00 -4.1408049054728D-01
    80  7.9000000000000D-01  1.3240135568595D+00 -3.9469895035860D-01
    81  8.0000000000000D-01  1.3227877156524D+00 -3.7302906754491D-01
    82  8.1000000000000D-01  1.3203231636311D+00 -3.4910544954112D-01
    83  8.2000000000000D-01  1.3166151842528D+00 -3.2297080357355D-01
    84  8.3000000000000D-01  1.3116617165251D+00 -2.9467580870406D-01
    85  8.4000000000000D-01  1.3054633780704D+00 -2.6427895684164D-01
    86  8.5000000000000D-01  1.2980234802942D+00 -2.3184636327781D-01
    87  8.6000000000000D-01  1.2893480355785D+00 -1.9745154743153D-01
    88  8.7000000000000D-01  1.2794457564472D+00 -1.6117518461617D-01
    89  8.8000000000000D-01  1.2683280466774D+00 -1.2310482976514D-01
    90  8.9000000000000D-01  1.2560089843600D+00 -8.3334614173682D-02
    91  9.0000000000000D-01  1.2425052969350D+00 -4.1964916431009D-02
    92  9.1000000000000D-01  1.2278363282610D+00  8.9799117130678D-04
    93  9.2000000000000D-01  1.2120239977994D+00  4.5142319361251D-02
    94  9.3000000000000D-01  1.1950927520250D+00  9.0651160244164D-02
    95  9.4000000000000D-01  1.1770695082004D+00  1.3730290570678D-01
    96  9.5000000000000D-01  1.1579835906760D+00  1.8497168418929D-01
    97  9.6000000000000D-01  1.1378666599066D+00  2.3352781406569D-01
    98  9.7000000000000D-01  1.1167526343985D+00  2.8283827179922D-01
    99  9.8000000000000D-01  1.0946776058259D+00  3.3276717297259D-01
   100  9.9000000000000D-01  1.0716797475813D+00  3.8317626423702D-01
   101  1.0000000000000D+00  1.0477992170428D+00  4.3392542417266D-01
   102  1.0100000000000D+00  1.0230780518698D+00  4.8487317101408D-01
   103  1.0200000000000D+00  9.9756006065294D-01  5.3587717516306D-01
   104  1.0300000000000D+00  9.7129070826796D-01  5.8679477438873D-01
   105  1.0400000000000D+00  9.4431699630065D-01  6.3748348960298D-01
   106  1.0500000000000D+00  9.1668733892622D-01  6.8780153909623D-01
   107  1.0600000000000D+00  8.8845143464322D-01  7.3760834912413D-01
   108  1.0700000000000D+00  8.5966013427649D-01  7.8676505875350D-01
   109  1.0800000000000D+00  8.3036530567595D-01  8.3513501690002D-01
   110  1.0900000000000D+00  8.0061969554988D-01  8.8258426952770D-01
   111  1.1000000000000D+00  7.7047678888037D-01  9.2898203502223D-01
   112  1.1100000000000D+00  7.3999066637733D-01  9.7420116580269D-01
   113  1.1200000000000D+00  7.0921586043378D-01  1.0181185943031D+00
   114  1.1300000000000D+00  6.7820721004954D-01  1.0606157615225D+00
   115  1.1400000000000D+00  6.4701971519351D-01  1.1015790264277D+00
   116  1.1500000000000D+00  6.1570839107629D-01  1.1409000545624D+00
   117  1.1600000000000D+00  5.8432812280455D-01  1.1784761843343D+00
   118  1.1700000000000D+00  5.5293352088568D-01  1.2142107695433D+00
   119  1.1800000000000D+00  5.2157877804799D-01  1.2480134968187D+00
   120  1.1900000000000D+00  4.9031752783695D-01  1.2798006767401D+00
   121  1.2000000000000D+00  4.5920270543959D-01  1.3094955075582D+00
   122  1.2100000000000D+00  4.2828641117880D-01  1.3370283105590D+00
   123  1.2200000000000D+00  3.9761977711500D-01  1.3623367361833D+00
   124  1.2300000000000D+00  3.6725283717400D-01  1.3853659402282D+00
   125  1.2400000000000D+00  3.3723440120760D-01  1.4060687295593D+00
   126  1.2500000000000D+00  3.0761193338370D-01  1.4244056768649D+00
   127  1.2600000000000D+00  2.7843143528312D-01  1.4403452041609D+00
   128  1.2700000000000D+00  2.4973733405761D-01  1.4538636349197D+00
   129  1.2800000000000D+00  2.2157237599567D-01  1.4649452147623D+00
   130  1.2900000000000D+00  1.9397752581910D-01  1.4735821008294D+00
   131  1.3000000000000D+00  1.6699187200121D-01  1.4797743201472D+00
   132  1.3100000000000D+00  1.4065253839613D-01  1.4835296973114D+00
   133  1.3200000000000D+00  1.1499460243535D-01  1.4848637520310D+00
   134  1.3300000000000D+00  9.0051020110056D-02  1.4837995672547D+00
   135  1.3400000000000D+00  6.5852557970255D-02  1.4803676285519D+00
   136  1.3500000000000D+00  4.2427732313755D-02  1.4746056357212D+00
   137  1.3600000000000D+00  1.9802755712049D-02  1.4665582876841D+00
   138  1.3700000000000D+00 -1.9985089568845D-03  1.4562770416552D+00
   139  1.3800000000000D+00 -2.2954586898536D-02  1.4438198479824D+00
   140  1.3900000000000D+00 -4.3046422111104D-02  1.4292508618937D+00
   141  1.4000000000000D+00 -6.2257400345326D-02  1.4126401335595D+00
   142  1.4100000000000D+00 -8.0573364321801D-02  1.3940632780765D+00
   143  1.4200000000000D+00 -9.7982621144596D-02  1.3736011268003D+00
   144  1.4300000000000D+00 -1.1447594197532D-01  1.3513393618001D+00
   145  1.4400000000000D+00 -1.3004655399187D-01  1.3273681350615D+00
   146  1.4500000000000D+00 -1.4469012467900D-01  1.3017816741841D+00
   147  1.4600000000000D+00 -1.5840473859588D-01  1.2746778764047D+00
   148  1.4700000000000D+00 -1.7119086665579D-01  1.2461578926863D+00
   149  1.4800000000000D+00 -1.8305132813083D-01  1.2163257037710D+00
   150  1.4900000000000D+00 -1.9399124548151D-01  1.1852876899828D+00
   151  1.5000000000000D+00 -2.0401799221191D-01  1.1531521966689D+00
   152  1.5100000000000D+00 -2.1314113395581D-01  1.1200290970405D+00
   153  1.5200000000000D+00 -2.2137236296680D-01  1.0860293543415D+00
   154  1.5300000000000D+00 -2.2872542631187D-01  1.0512645849390D+00
   155  1.5400000000000D+00 -2.3521604792984D-01  1.0158466243430D+00
   156  1.5500000000000D+00 -2.4086184490532D-01  9.7988709755172D-01
   157  1.5600000000000D+00 -2.4568223815589D-01  9.4349699566888D-01
   158  1.5700000000000D+00 -2.4969835788037D-01  9.0678626011854D-01
   159  1.5800000000000D+00 -2.5293294402452D-01  8.6986337615676D-01
   160  1.5900000000000D+00 -2.5541024209838D-01  8.3283497702946D-01
   161  1.6000000000000D+00 -2.5715589464810D-01  7.9580546009786D-01
   162  1.6100000000000D+00 -2.5819682870938D-01  7.5887661636347D-01
   163  1.6200000000000D+00 -2.5856113957192D-01  7.2214727424230D-01
   164  1.6300000000000D+00 -2.5827797118490D-01  6.8571295913284D-01
   165  1.6400000000000D+00 -2.5737739353856D-01  6.4966556910057D-01
   166  1.6500000000000D+00 -2.5589027736422D-01  6.1409306833631D-01
   167  1.6600000000000D+00 -2.5384816647402D-01  5.7907919816907D-01
   168  1.6700000000000D+00 -2.5128314810288D-01  5.4470320737335D-01
   169  1.6800000000000D+00 -2.4822772154362D-01  5.1103960103490D-01
   170  1.6900000000000D+00 -2.4471466546205D-01  4.7815790973796D-01
   171  1.7000000000000D+00 -2.4077690414100D-01  4.4612247788588D-01
   172  1.7100000000000D+00 -2.3644737306435D-01  4.1499227285444D-01
   173  1.7200000000000D+00 -2.3175888404159D-01  3.8482071343984D-01
   174  1.7300000000000D+00 -2.2674399030274D-01  3.5565551912386D-01
   175  1.7400000000000D+00 -2.2143485171682D-01  3.2753857840587D-01
   176  1.7500000000000D+00 -2.1586309958276D-01  3.0050583355831D-01
   177  1.7600000000000D+00 -2.1005970736510D-01  2.7458720444341D-01
   178  1.7700000000000D+00 -2.0405484494185D-01  2.4980646498518D-01
   179  1.7800000000000D+00 -1.9787777857365D-01  2.2618130043726D-01
   180  1.7900000000000D+00 -1.9155672549140D-01  2.0372322011200D-01
   181  1.8000000000000D+00 -1.8511865354133D-01  1.8243724566123D-01
   182  1.8100000000000D+00 -1.7858924111685D-01  1.6232223630422D-01
   183  1.8200000000000D+00 -1.7199293902488D-01  1.4337164717433D-01
   184  1.8300000000000D+00 -1.6535301209521D-01  1.2557413722672D-01
   185  1.8400000000000D+00 -1.5869165769696D-01  1.0891435785854D-01
   186  1.8500000000000D+00 -1.5203013379940D-01  9.3373796667081D-02
   187  1.8600000000000D+00 -1.4538865969715D-01  7.8930692121268D-02
   188  1.8700000000000D+00 -1.3878636890623D-01  6.5560106884581D-02
   189  1.8800000000000D+00 -1.3224133498291D-01  5.3234343379283D-02
   190  1.8900000000000D+00 -1.2577054534742D-01  4.1923112654368D-02
   191  1.9000000000000D+00 -1.1938989683704D-01  3.1593788246510D-02
   192  1.9100000000000D+00 -1.1311419153060D-01  2.2211650369599D-02
   193  1.9200000000000D+00 -1.0695713516447D-01  1.3740128989949D-02
   194  1.9300000000000D+00 -1.0093133893519D-01  6.1410484176355D-03
   195  1.9400000000000D+00 -9.5048324317096D-02 -6.2512896823707D-04
   196  1.9500000000000D+00 -8.9318530993473D-02 -6.5990611160122D-03
   197  1.9600000000000D+00 -8.3751327558393D-02 -1.1822287400183D-02
   198  1.9700000000000D+00 -7.8355025315683D-02 -1.6336994383247D-02
   199  1.9800000000000D+00 -7.3136894689877D-02 -2.0185786128522D-02
   200  1.9900000000000D+00 -6.8103184480637D-02 -2.3411461198723D-02
   201  2.0000000000000D+00 -6.3259143702323D-02 -2.6056796585974D-02
   202  2.0100000000000D+00 -5.8609045885582D-02 -2.8164339468169D-02
   203  2.0200000000000D+00 -5.4156215906433D-02 -2.9776208809369D-02
   204  2.0300000000000D+00 -4.9903058921748D-02 -3.0933905285863D-02
   205  2.0400000000000D+00 -4.5851091613798D-02 -3.1678133504353D-02
   206  2.0500000000000D+00 -4.2000975334316D-02 -3.2048634061461D-02
   207  2.0600000000000D+00 -3.8352551145690D-02 -3.2084028082229D-02
   208  2.0700000000000D+00 -3.4904876606697D-02 -3.1821674758323D-02
   209  2.0800000000000D+00 -3.1656264064375D-02 -3.1297540018029D-02
   210  2.0900000000000D+00 -2.8604320413153D-02 -3.0546081007600D-02
   211  2.1000000000000D+00 -2.5745988079131D-02 -2.9600141837858D-02
   212  2.1100000000000D+00 -2.3077587103685D-02 -2.8490864464412D-02
   213  2.1200000000000D+00 -2.0594858165551D-02 -2.7247613761443D-02
   214  2.1300000000000D+00 -1.8293006415308D-02 -2.5897914720964D-02
   215  2.1400000000000D+00 -1.6166745873680D-02 -2.4467406434191D-02
   216  2.1500000000000D+00 -1.4210344379656D-02 -2.2979807344888D-02
   217  2.1600000000000D+00 -1.2417668815451D-02 -2.1456895366240D-02
   218  2.1700000000000D+00 -1.0782230476863D-02 -1.9918501938545D-02
   219  2.1800000000000D+00 -9.2972306049002D-03 -1.8382516671336D-02
   220  2.1900000000000D+00 -7.9556056209657D-03 -1.6864907587853D-02
   221  2.2000000000000D+00 -6.7500722663742D-03 -1.5379751121901D-02
   222  2.2100000000000D+00 -5.6731723329784D-03 -1.3939273986609D-02
   223  2.2200000000000D+00 -4.7173167892147D-03 -1.2553906949793D-02
   224  2.2300000000000D+00 -3.8748294797099D-03 -1.1232346722903D-02
   225  2.2400000000000D+00 -3.1379898911235D-03 -9.9816288310189D-03
   226  2.2500000000000D+00 -2.4990751346626D-03 -8.8072084034214D-03
   227  2.2600000000000D+00 -1.9504010961805D-03 -7.7130478713552D-03
   228  2.2700000000000D+00 -1.4843622855716D-03 -6.7017127350231D-03
   229  2.2800000000000D+00 -1.0934707550171D-03 -5.7744721853063D-03
   230  2.2900000000000D+00 -7.7039371464443D-04 -4.9314048515237D-03
   231  2.3000000000000D+00 -5.0798971038518D-04 -4.1715086901529D-03
   232  2.3100000000000D+00 -2.9934363375534D-04 -3.4928137061357D-03
   233  2.3200000000000D+00 -1.3780005967935D-04 -2.8924965763494D-03
   234  2.3300000000000D+00 -1.6995063477580D-05 -2.3669961922318D-03
   235  2.3400000000000D+00  6.9113347618355D-05 -1.9121300771171D-03
   236  2.3500000000000D+00  1.2621677645519D-04 -1.5232085397364D-03
   237  2.3600000000000D+00  1.5962949998576D-04 -1.1951478876234D-03
   238  2.3700000000000D+00  1.7426323139854D-04 -9.2258153118688D-04
   239  2.3800000000000D+00  1.7460391368762D-04 -6.9996550063245D-04
   240  2.3900000000000D+00  1.6469015244195D-04 -5.2168148644367D-04
   241  2.4000000000000D+00  1.4809355589554D-04 -3.8213438188217D-04
   242  2.4100000000000D+00  1.2792933475283D-04 -2.7590717710700D-04
   243  2.4200000000000D+00  1.0675517613558D-04 -1.9764962799568D-04
   244  2.4300000000000D+00  8.6585166129607D-05 -1.4221942138063D-04
   245  2.4400000000000D+00  6.8613570492869D-05 -1.0440726111236D-04
   246  2.4500000000000D+00  5.4402005630661D-05 -8.0873791820152D-05
   247  2.4600000000000D+00  4.5036339202796D-05 -6.8865794730775D-05
   248  2.4700000000000D+00  4.1674583143461D-05 -6.6953280204318D-05
   249  2.4800000000000D+00  4.0755789700781D-05 -6.7848216594236D-05
   250  2.4900000000000D+00  3.8021800627243D-05 -6.4259986734363D-05
   251  2.5000000000000D+00  2.8320454434278D-05 -4.8222780567646D-05
   252  2.5100000000000D+00  1.4866178160152D-05 -2.5417879291681D-05
   253  2.5200000000000D+00  2.2764898941412D-06 -3.8985626736434D-06
   254  2.5300000000000D+00 -3.3196394521428D-06  5.7311240891518D-06
   255  2.5400000000000D+00 -3.4170075890037D-06  5.9129379371183D-06
   256  2.5500000000000D+00 -7.7730981969481D-07  1.3475340278287D-06
   257  2.5600000000000D+00  6.7178717651159D-07 -1.1499734733577D-06
   258  2.5700000000000D+00  8.1125061084265D-07 -1.3894492598360D-06
   259  2.5800000000000D+00  2.4229440571020D-07 -4.1516906348042D-07
   260  2.5900000000000D+00 -7.3344283810564D-08  1.2411452167463D-07
   261  2.6000000000000D+00 -1.0174804855327D-07  1.7217988534911D-07
   262  2.6100000000000D+00 -3.9793460239237D-08  6.7339212093579D-08
   263  2.6200000000000D+00  0.0000000000000D+00  0.0000000000000D+00
   264  2.6300000000000D+00  0.0000000000000D+00  0.0000000000000D+00
   265  2.6400000000000D+00  0.0000000000000D+00  0.0000000000000D+00
   266  2.6500000000000D+00  0.0000000000000D+00  0.0000000000000D+00
   267  2.6600000000000D+00  0.0000000000000D+00  0.0000000000000D+00
   268  2.6700000000000D+00  0.0000000000000D+00  0.0000000000000D+00
   269  2.6800000000000D+00  0.0000000000000D+00  0.0000000000000D+00
   270  2.6900000000000D+00  0.0000000000000D+00  0.0000000000000D+00
   271  2.7000000000000D+00  0.0000000000000D+00  0.0000000000000D+00
   272  2.7100000000000D+00  0.0000000000000D+00  0.0000000000000D+00
   273  2.7200000000000D+00  0.0000000000000D+00  0.0000000000000D+00
   274  2.7300000000000D+00  0.0000000000000D+00  0.0000000000000D+00
   275  2.7400000000000D+00  0.0000000000000D+00  0.0000000000000D+00
   276  2.7500000000000D+00  0.0000000000000D+00  0.0000000000000D+00
   277  2.7600000000000D+00  0.0000000000000D+00  0.0000000000000D+00
   278  2.7700000000000D+00  0.0000000000000D+00  0.0000000000000D+00
   279  2.7800000000000D+00  0.0000000000000D+00  0.0000000000000D+00
   280  2.7900000000000D+00  0.0000000000000D+00  0.0000000000000D+00
   281  2.8000000000000D+00  0.0000000000000D+00  0.0000000000000D+00
   282  2.8100000000000D+00  0.0000000000000D+00  0.0000000000000D+00
   283  2.8200000000000D+00  0.0000000000000D+00  0.0000000000000D+00
   284  2.8300000000000D+00  0.0000000000000D+00  0.0000000000000D+00
   285  2.8400000000000D+00  0.0000000000000D+00  0.0000000000000D+00
   286  2.8500000000000D+00  0.0000000000000D+00  0.0000000000000D+00
   287  2.8600000000000D+00  0.0000000000000D+00  0.0000000000000D+00
   288  2.8700000000000D+00  0.0000000000000D+00  0.0000000000000D+00
   289  2.8800000000000D+00  0.0000000000000D+00  0.0000000000000D+00
   290  2.8900000000000D+00  0.0000000000000D+00  0.0000000000000D+00
   291  2.9000000000000D+00  0.0000000000000D+00  0.0000000000000D+00
   292  2.9100000000000D+00  0.0000000000000D+00  0.0000000000000D+00
   293  2.9200000000000D+00  0.0000000000000D+00  0.0000000000000D+00
   294  2.9300000000000D+00  0.0000000000000D+00  0.0000000000000D+00
   295  2.9400000000000D+00  0.0000000000000D+00  0.0000000000000D+00
   296  2.9500000000000D+00  0.0000000000000D+00  0.0000000000000D+00
   297  2.9600000000000D+00  0.0000000000000D+00  0.0000000000000D+00
   298  2.9700000000000D+00  0.0000000000000D+00  0.0000000000000D+00
   299  2.9800000000000D+00  0.0000000000000D+00  0.0000000000000D+00
   300  2.9900000000000D+00  0.0000000000000D+00  0.0000000000000D+00
   301  3.0000000000000D+00  0.0000000000000D+00  0.0000000000000D+00
   302  3.0100000000000D+00  0.0000000000000D+00  0.0000000000000D+00
   303  3.0200000000000D+00  0.0000000000000D+00  0.0000000000000D+00
   304  3.0300000000000D+00  0.0000000000000D+00  0.0000000000000D+00
   305  3.0400000000000D+00  0.0000000000000D+00  0.0000000000000D+00
   306  3.0500000000000D+00  0.0000000000000D+00  0.0000000000000D+00
   307  3.0600000000000D+00  0.0000000000000D+00  0.0000000000000D+00
   308  3.0700000000000D+00  0.0000000000000D+00  0.0000000000000D+00
   309  3.0800000000000D+00  0.0000000000000D+00  0.0000000000000D+00
   310  3.0900000000000D+00  0.0000000000000D+00  0.0000000000000D+00
   311  3.1000000000000D+00  0.0000000000000D+00  0.0000000000000D+00
   312  3.1100000000000D+00  0.0000000000000D+00  0.0000000000000D+00
   313  3.1200000000000D+00  0.0000000000000D+00  0.0000000000000D+00
   314  3.1300000000000D+00  0.0000000000000D+00  0.0000000000000D+00
   315  3.1400000000000D+00  0.0000000000000D+00  0.0000000000000D+00
   316  3.1500000000000D+00  0.0000000000000D+00  0.0000000000000D+00
   317  3.1600000000000D+00  0.0000000000000D+00  0.0000000000000D+00
   318  3.1700000000000D+00  0.0000000000000D+00  0.0000000000000D+00
   319  3.1800000000000D+00  0.0000000000000D+00  0.0000000000000D+00
   320  3.1900000000000D+00  0.0000000000000D+00  0.0000000000000D+00
   321  3.2000000000000D+00  0.0000000000000D+00  0.0000000000000D+00
   322  3.2100000000000D+00  0.0000000000000D+00  0.0000000000000D+00
   323  3.2200000000000D+00  0.0000000000000D+00  0.0000000000000D+00
   324  3.2300000000000D+00  0.0000000000000D+00  0.0000000000000D+00
   325  3.2400000000000D+00  0.0000000000000D+00  0.0000000000000D+00
   326  3.2500000000000D+00  0.0000000000000D+00  0.0000000000000D+00
   327  3.2600000000000D+00  0.0000000000000D+00  0.0000000000000D+00
   328  3.2700000000000D+00  0.0000000000000D+00  0.0000000000000D+00
   329  3.2800000000000D+00  0.0000000000000D+00  0.0000000000000D+00
   330  3.2900000000000D+00  0.0000000000000D+00  0.0000000000000D+00
   331  3.3000000000000D+00  0.0000000000000D+00  0.0000000000000D+00
   332  3.3100000000000D+00  0.0000000000000D+00  0.0000000000000D+00
   333  3.3200000000000D+00  0.0000000000000D+00  0.0000000000000D+00
   334  3.3300000000000D+00  0.0000000000000D+00  0.0000000000000D+00
   335  3.3400000000000D+00  0.0000000000000D+00  0.0000000000000D+00
   336  3.3500000000000D+00  0.0000000000000D+00  0.0000000000000D+00
   337  3.3600000000000D+00  0.0000000000000D+00  0.0000000000000D+00
   338  3.3700000000000D+00  0.0000000000000D+00  0.0000000000000D+00
   339  3.3800000000000D+00  0.0000000000000D+00  0.0000000000000D+00
   340  3.3900000000000D+00  0.0000000000000D+00  0.0000000000000D+00
   341  3.4000000000000D+00  0.0000000000000D+00  0.0000000000000D+00
   342  3.4100000000000D+00  0.0000000000000D+00  0.0000000000000D+00
   343  3.4200000000000D+00  0.0000000000000D+00  0.0000000000000D+00
   344  3.4300000000000D+00  0.0000000000000D+00  0.0000000000000D+00
   345  3.4400000000000D+00  0.0000000000000D+00  0.0000000000000D+00
   346  3.4500000000000D+00  0.0000000000000D+00  0.0000000000000D+00
   347  3.4600000000000D+00  0.0000000000000D+00  0.0000000000000D+00
   348  3.4700000000000D+00  0.0000000000000D+00  0.0000000000000D+00
   349  3.4800000000000D+00  0.0000000000000D+00  0.0000000000000D+00
   350  3.4900000000000D+00  0.0000000000000D+00  0.0000000000000D+00
   351  3.5000000000000D+00  0.0000000000000D+00  0.0000000000000D+00
   352  3.5100000000000D+00  0.0000000000000D+00  0.0000000000000D+00
   353  3.5200000000000D+00  0.0000000000000D+00  0.0000000000000D+00
   354  3.5300000000000D+00  0.0000000000000D+00  0.0000000000000D+00
   355  3.5400000000000D+00  0.0000000000000D+00  0.0000000000000D+00
   356  3.5500000000000D+00  0.0000000000000D+00  0.0000000000000D+00
   357  3.5600000000000D+00  0.0000000000000D+00  0.0000000000000D+00
   358  3.5700000000000D+00  0.0000000000000D+00  0.0000000000000D+00
   359  3.5800000000000D+00  0.0000000000000D+00  0.0000000000000D+00
   360  3.5900000000000D+00  0.0000000000000D+00  0.0000000000000D+00
   361  3.6000000000000D+00  0.0000000000000D+00  0.0000000000000D+00
   362  3.6100000000000D+00  0.0000000000000D+00  0.0000000000000D+00
   363  3.6200000000000D+00  0.0000000000000D+00  0.0000000000000D+00
   364  3.6300000000000D+00  0.0000000000000D+00  0.0000000000000D+00
   365  3.6400000000000D+00  0.0000000000000D+00  0.0000000000000D+00
   366  3.6500000000000D+00  0.0000000000000D+00  0.0000000000000D+00
   367  3.6600000000000D+00  0.0000000000000D+00  0.0000000000000D+00
   368  3.6700000000000D+00  0.0000000000000D+00  0.0000000000000D+00
   369  3.6800000000000D+00  0.0000000000000D+00  0.0000000000000D+00
   370  3.6900000000000D+00  0.0000000000000D+00  0.0000000000000D+00
   371  3.7000000000000D+00  0.0000000000000D+00  0.0000000000000D+00
   372  3.7100000000000D+00  0.0000000000000D+00  0.0000000000000D+00
   373  3.7200000000000D+00  0.0000000000000D+00  0.0000000000000D+00
   374  3.7300000000000D+00  0.0000000000000D+00  0.0000000000000D+00
   375  3.7400000000000D+00  0.0000000000000D+00  0.0000000000000D+00
   376  3.7500000000000D+00  0.0000000000000D+00  0.0000000000000D+00
   377  3.7600000000000D+00  0.0000000000000D+00  0.0000000000000D+00
   378  3.7700000000000D+00  0.0000000000000D+00  0.0000000000000D+00
   379  3.7800000000000D+00  0.0000000000000D+00  0.0000000000000D+00
   380  3.7900000000000D+00  0.0000000000000D+00  0.0000000000000D+00
   381  3.8000000000000D+00  0.0000000000000D+00  0.0000000000000D+00
   382  3.8100000000000D+00  0.0000000000000D+00  0.0000000000000D+00
   383  3.8200000000000D+00  0.0000000000000D+00  0.0000000000000D+00
   384  3.8300000000000D+00  0.0000000000000D+00  0.0000000000000D+00
   385  3.8400000000000D+00  0.0000000000000D+00  0.0000000000000D+00
   386  3.8500000000000D+00  0.0000000000000D+00  0.0000000000000D+00
   387  3.8600000000000D+00  0.0000000000000D+00  0.0000000000000D+00
   388  3.8700000000000D+00  0.0000000000000D+00  0.0000000000000D+00
   389  3.8800000000000D+00  0.0000000000000D+00  0.0000000000000D+00
   390  3.8900000000000D+00  0.0000000000000D+00  0.0000000000000D+00
   391  3.9000000000000D+00  0.0000000000000D+00  0.0000000000000D+00
   392  3.9100000000000D+00  0.0000000000000D+00  0.0000000000000D+00
   393  3.9200000000000D+00  0.0000000000000D+00  0.0000000000000D+00
   394  3.9300000000000D+00  0.0000000000000D+00  0.0000000000000D+00
   395  3.9400000000000D+00  0.0000000000000D+00  0.0000000000000D+00
   396  3.9500000000000D+00  0.0000000000000D+00  0.0000000000000D+00
   397  3.9600000000000D+00  0.0000000000000D+00  0.0000000000000D+00
   398  3.9700000000000D+00  0.0000000000000D+00  0.0000000000000D+00
   399  3.9800000000000D+00  0.0000000000000D+00  0.0000000000000D+00
   400  3.9900000000000D+00  0.0000000000000D+00  0.0000000000000D+00
   401  4.0000000000000D+00  0.0000000000000D+00  0.0000000000000D+00
   402  4.0100000000000D+00  0.0000000000000D+00  0.0000000000000D+00
   403  4.0200000000000D+00  0.0000000000000D+00  0.0000000000000D+00
   404  4.0300000000000D+00  0.0000000000000D+00  0.0000000000000D+00
   405  4.0400000000000D+00  0.0000000000000D+00  0.0000000000000D+00
   406  4.0500000000000D+00  0.0000000000000D+00  0.0000000000000D+00
   407  4.0600000000000D+00  0.0000000000000D+00  0.0000000000000D+00
   408  4.0700000000000D+00  0.0000000000000D+00  0.0000000000000D+00
   409  4.0800000000000D+00  0.0000000000000D+00  0.0000000000000D+00
   410  4.0900000000000D+00  0.0000000000000D+00  0.0000000000000D+00
   411  4.1000000000000D+00  0.0000000000000D+00  0.0000000000000D+00
   412  4.1100000000000D+00  0.0000000000000D+00  0.0000000000000D+00
   413  4.1200000000000D+00  0.0000000000000D+00  0.0000000000000D+00
   414  4.1300000000000D+00  0.0000000000000D+00  0.0000000000000D+00
   415  4.1400000000000D+00  0.0000000000000D+00  0.0000000000000D+00
   416  4.1500000000000D+00  0.0000000000000D+00  0.0000000000000D+00
   417  4.1600000000000D+00  0.0000000000000D+00  0.0000000000000D+00
   418  4.1700000000000D+00  0.0000000000000D+00  0.0000000000000D+00
   419  4.1800000000000D+00  0.0000000000000D+00  0.0000000000000D+00
   420  4.1900000000000D+00  0.0000000000000D+00  0.0000000000000D+00
   421  4.2000000000000D+00  0.0000000000000D+00  0.0000000000000D+00
   422  4.2100000000000D+00  0.0000000000000D+00  0.0000000000000D+00