Ti    ONCVPSP-3.3.1  r_core=   2.46607   2.35117   2.29574
     22.0000     12.0000      210904    zatom,zion,pspd
     8      11   2     4   600     0    pspcod,pspxc,lmax,lloc,mmax,r2well
  5.99000000  0.00000000  0.00000000    rchrg fchrg qchrg
     2     3     2     0    nproj
     3     1           extension_switch
     3     2     0    nprojso
   0                        -8.8761001507633D-02  2.1485134784959D+00
     1  0.0000000000000D+00 -1.9021284547449D-11  4.3144932071471D-12
     2  1.0000000000000D-02  3.3433560161472D-02  4.7412471977848D-02
     3  2.0000000000000D-02  6.6772756601337D-02  9.4770677115885D-02
     4  3.0000000000000D-02  9.9923567880082D-02  1.4202038527000D-01
     5  4.0000000000000D-02  1.3279265585025D-01  1.8910743984095D-01
     6  5.0000000000000D-02  1.6528770412702D-01  2.3597779492941D-01
     7  6.0000000000000D-02  1.9731775276156D-01  2.8257755294706D-01
     8  7.0000000000000D-02  2.2879352787385D-01  3.2885300283079D-01
     9  8.0000000000000D-02  2.5962776502053D-01  3.7475065900247D-01
    10  9.0000000000000D-02  2.8973552509693D-01  4.2021730121182D-01
    11  1.0000000000000D-01  3.1903450160083D-01  4.6520001539304D-01
    12  1.1000000000000D-01  3.4744531811782D-01  5.0964623565882D-01
    13  1.2000000000000D-01  3.7489181492532D-01  5.5350378754682D-01
    14  1.3000000000000D-01  4.0130132365310D-01  5.9672093262431D-01
    15  1.4000000000000D-01  4.2660492898363D-01  6.3924641454670D-01
    16  1.5000000000000D-01  4.5073771642422D-01  6.8102950665423D-01
    17  1.6000000000000D-01  4.7363900523579D-01  7.2202006117941D-01
    18  1.7000000000000D-01  4.9525256565918D-01  7.6216856012501D-01
    19  1.8000000000000D-01  5.1552681963918D-01  8.0142616785888D-01
    20  1.9000000000000D-01  5.3441502430928D-01  8.3974478545798D-01
    21  2.0000000000000D-01  5.5187543756496D-01  8.7707710681881D-01
    22  2.1000000000000D-01  5.6787146512152D-01  9.1337667653681D-01
    23  2.2000000000000D-01  5.8237178852261D-01  9.4859794954077D-01
    24  2.3000000000000D-01  5.9535047363762D-01  9.8269635245269D-01
    25  2.4000000000000D-01  6.0678705926026D-01  1.0156283466265D+00
    26  2.5000000000000D-01  6.1666662549636D-01  1.0473514928028D+00
    27  2.6000000000000D-01  6.2497984170516D-01  1.0778245172983D+00
    28  2.7000000000000D-01  6.3172299383656D-01  1.1070073796346D+00
    29  2.8000000000000D-01  6.3689799108465D-01  1.1348613414889D+00
    30  2.9000000000000D-01  6.4051235185667D-01  1.1613490368375D+00
    31  3.0000000000000D-01  6.4257916913508D-01  1.1864345431410D+00
    32  3.1000000000000D-01  6.4311705538893D-01  1.2100834534074D+00
    33  3.2000000000000D-01  6.4215006726794D-01  1.2322629489496D+00
    34  3.3000000000000D-01  6.3970761039035D-01  1.2529418726401D+00
    35  3.4000000000000D-01  6.3582432461054D-01  1.2720908024472D+00
    36  3.5000000000000D-01  6.3053995022694D-01  1.2896821250268D+00
    37  3.6000000000000D-01  6.2389917566311D-01  1.3056901091231D+00
    38  3.7000000000000D-01  6.1595146722481D-01  1.3200909785235D+00
    39  3.8000000000000D-01  6.0675088160465D-01  1.3328629842973D+00
    40  3.9000000000000D-01  5.9635586186979D-01  1.3439864760366D+00
    41  4.0000000000000D-01  5.8482901773236D-01  1.3534439718068D+00
    42  4.1000000000000D-01  5.7223689095991D-01  1.3612202265052D+00
    43  4.2000000000000D-01  5.5864970683991D-01  1.3673022983170D+00
    44  4.3000000000000D-01  5.4414111266442D-01  1.3716796129494D+00
    45  4.4000000000000D-01  5.2878790424945D-01  1.3743440253228D+00
    46  4.5000000000000D-01  5.1266974154741D-01  1.3752898783879D+00
    47  4.6000000000000D-01  4.9586885445216D-01  1.3745140587387D+00
    48  4.7000000000000D-01  4.7846973993068D-01  1.3720160486890D+00
    49  4.8000000000000D-01  4.6055885164757D-01  1.3677979744777D+00
    50  4.9000000000000D-01  4.4222428327432D-01  1.3618646502739D+00
    51  5.0000000000000D-01  4.2355544669755D-01  1.3542236176517D+00
    52  5.1000000000000D-01  4.0464274635648D-01  1.3448851802145D+00
    53  5.2000000000000D-01  3.8557725095258D-01  1.3338624330497D+00
    54  5.3000000000000D-01  3.6645036378005D-01  1.3211712867099D+00
    55  5.4000000000000D-01  3.4735349292843D-01  1.3068304854199D+00
    56  5.5000000000000D-01  3.2837772260447D-01  1.2908616192277D+00
    57  5.6000000000000D-01  3.0961348681251D-01  1.2732891298248D+00
    58  5.7000000000000D-01  2.9115024661837D-01  1.2541403097843D+00
    59  5.8000000000000D-01  2.7307617220406D-01  1.2334452949735D+00
    60  5.9000000000000D-01  2.5547783089646D-01  1.2112370499265D+00
    61  6.0000000000000D-01  2.3843988232523D-01  1.1875513459733D+00
    62  6.1000000000000D-01  2.2204478183183D-01  1.1624267319526D+00
    63  6.2000000000000D-01  2.0637249321471D-01  1.1359044973527D+00
    64  6.3000000000000D-01  1.9150021185254D-01  1.1080286277533D+00
    65  6.4000000000000D-01  1.7750209920242D-01  1.0788457524680D+00
    66  6.5000000000000D-01  1.6444902961878D-01  1.0484050843122D+00
    67  6.6000000000000D-01  1.5240835038493D-01  1.0167583514529D+00
    68  6.7000000000000D-01  1.4144365579173D-01  9.8395972132546D-01
    69  6.8000000000000D-01  1.3161457603645D-01  9.5006571663402D-01
    70  6.9000000000000D-01  1.2297658165107D-01  9.1513512348338D-01
    71  7.0000000000000D-01  1.1558080410215D-01  8.7922889172341D-01
    72  7.1000000000000D-01  1.0947387313560D-01  8.4241002761962D-01
    73  7.2000000000000D-01  1.0469777136723D-01  8.0474347899709D-01
    74  7.3000000000000D-01  1.0128970654754D-01  7.6629601303884D-01
    75  7.4000000000000D-01  9.9282001853672D-02  7.2713608695330D-01
    76  7.5000000000000D-01  9.8702004485277D-02  6.8733371175940D-01
    77  7.6000000000000D-01  9.9572012765060D-02  6.4696030947136D-01
    78  7.7000000000000D-01  1.0190922186576D-01  6.0608856399831D-01
    79  7.8000000000000D-01  1.0572568820954D-01  5.6479226610645D-01
    80  7.9000000000000D-01  1.1102831250687D-01  5.2314615282335D-01
    81  8.0000000000000D-01  1.1781884132639D-01  4.8122574169482D-01
    82  8.1000000000000D-01  1.2609388701084D-01  4.3910716033467D-01
    83  8.2000000000000D-01  1.3584496567972D-01  3.9686697173624D-01
    84  8.3000000000000D-01  1.4705855298689D-01  3.5458199584182D-01
    85  8.4000000000000D-01  1.5971615722980D-01  3.1232912789158D-01
    86  8.5000000000000D-01  1.7379440933870D-01  2.7018515409766D-01
    87  8.6000000000000D-01  1.8926516920923D-01  2.2822656521085D-01
    88  8.7000000000000D-01  2.0609564777673D-01  1.8652936856746D-01
    89  8.8000000000000D-01  2.2424854417323D-01  1.4516889922161D-01
    90  8.9000000000000D-01  2.4368219725026D-01  1.0421963078373D-01
    91  9.0000000000000D-01  2.6435075069901D-01  6.3754986599131D-02
    92  9.1000000000000D-01  2.8620433095092D-01  2.3847151910937D-02
    93  9.2000000000000D-01  3.0918923699755D-01 -1.5433112340168D-02
    94  9.3000000000000D-01  3.3324814122942D-01 -5.4016653422033D-02
    95  9.4000000000000D-01  3.5832030035817D-01 -9.1836107763027D-02
    96  9.5000000000000D-01  3.8434177545682D-01 -1.2882607829049D-01
    97  9.6000000000000D-01  4.1124566012779D-01 -1.6492330749952D-01
    98  9.7000000000000D-01  4.3896231578793D-01 -2.0006684560244D-01
    99  9.8000000000000D-01  4.6741961304616D-01 -2.3419821311820D-01
   100  9.9000000000000D-01  4.9654317813864D-01 -2.6726155727347D-01
   101  1.0000000000000D+00  5.2625664338314D-01 -2.9920380160219D-01
   102  1.0100000000000D+00  5.5648190061510D-01 -3.2997478814843D-01
   103  1.0200000000000D+00  5.8713935657438D-01 -3.5952741169843D-01
   104  1.0300000000000D+00  6.1814818922339D-01 -3.8781774549103D-01
   105  1.0400000000000D+00  6.4942660399523D-01 -4.1480515788387D-01
   106  1.0500000000000D+00  6.8089208898986D-01 -4.4045241947836D-01
   107  1.0600000000000D+00  7.1246166816694D-01 -4.6472580024246D-01
   108  1.0700000000000D+00  7.4405215161314D-01 -4.8759515620142D-01
   109  1.0800000000000D+00  7.7558038199896D-01 -5.0903400530377D-01
   110  1.0900000000000D+00  8.0696347638441D-01 -5.2901959211135D-01
   111  1.1000000000000D+00  8.3811906256952D-01 -5.4753294099527D-01
   112  1.1100000000000D+00  8.6896550924583D-01 -5.6455889757129D-01
   113  1.1200000000000D+00  8.9942214924981D-01 -5.8008615814560D-01
   114  1.1300000000000D+00  9.2940949528300D-01 -5.9410728699257D-01
   115  1.1400000000000D+00  9.5884944751359D-01 -6.0661872132563D-01
   116  1.1500000000000D+00  9.8766549254498D-01 -6.1762076387663D-01
   117  1.1600000000000D+00  1.0157828932989D+00 -6.2711756304492D-01
   118  1.1700000000000D+00  1.0431288694351D+00 -6.3511708063128D-01
   119  1.1800000000000D+00  1.0696327679776D+00 -6.4163104720701D-01
   120  1.1900000000000D+00  1.0952262239136D+00 -6.4667490523503D-01
   121  1.2000000000000D+00  1.1198433105904D+00 -6.5026774010147D-01
   122  1.2100000000000D+00  1.1434206798109D+00 -6.5243219926609D-01
   123  1.2200000000000D+00  1.1658976915865D+00 -6.5319439977905D-01
   124  1.2300000000000D+00  1.1872165336051D+00 -6.5258382447696D-01
   125  1.2400000000000D+00  1.2073223305392D+00 -6.5063320721224D-01
   126  1.2500000000000D+00  1.2261632433476D+00 -6.4737840748929D-01
   127  1.2600000000000D+00  1.2436905588583D+00 -6.4285827496516D-01
   128  1.2700000000000D+00  1.2598587699639D+00 -6.3711450429403D-01
   129  1.2800000000000D+00  1.2746256467845D+00 -6.3019148081481D-01
   130  1.2900000000000D+00  1.2879522992870D+00 -6.2213611765512D-01
   131  1.3000000000000D+00  1.2998032318849D+00 -6.1299768484512D-01
   132  1.3100000000000D+00  1.3101463905536D+00 -6.0282763104125D-01
   133  1.3200000000000D+00  1.3189532031328D+00 -5.9167939853395D-01
   134  1.3300000000000D+00  1.3261986134959D+00 -5.7960823221337D-01
   135  1.3400000000000D+00  1.3318611102812D+00 -5.6667098317839D-01
   136  1.3500000000000D+00  1.3359227510055D+00 -5.5292590773254D-01
   137  1.3600000000000D+00  1.3383691823482D+00 -5.3843246248969D-01
   138  1.3700000000000D+00  1.3391896574478D+00 -5.2325109634323D-01
   139  1.3800000000000D+00  1.3383770511172D+00 -5.0744304006500D-01
   140  1.3900000000000D+00  1.3359278738461D+00 -4.9107009429160D-01
   141  1.4000000000000D+00  1.3318422855398D+00 -4.7419441667822D-01
   142  1.4100000000000D+00  1.3261241099187D+00 -4.5687830897290D-01
   143  1.4200000000000D+00  1.3187808505290D+00 -4.3918400479558D-01
   144  1.4300000000000D+00  1.3098237093145D+00 -4.2117345885238D-01
   145  1.4400000000000D+00  1.2992676086994D+00 -4.0290813834732D-01
   146  1.4500000000000D+00  1.2871312181357D+00 -3.8444881731734D-01
   147  1.4600000000000D+00  1.2734369860157D+00 -3.6585537457082D-01
   148  1.4700000000000D+00  1.2582111779268D+00 -3.4718659598069D-01
   149  1.4800000000000D+00  1.2414839220514D+00 -3.2849998169665D-01
   150  1.4900000000000D+00  1.2232892626850D+00 -3.0985155902062D-01
   151  1.5000000000000D+00  1.2036652226120D+00 -2.9129570144713D-01
   152  1.5100000000000D+00  1.1826538751939D+00 -2.7288495449541D-01
   153  1.5200000000000D+00  1.1603014269374D+00 -2.5466986886321D-01
   154  1.5300000000000D+00  1.1366583111647D+00 -2.3669884132272D-01
   155  1.5400000000000D+00  1.1117792936392D+00 -2.1901796395889D-01
   156  1.5500000000000D+00  1.0857235904664D+00 -2.0167088192538D-01
   157  1.5600000000000D+00  1.0585549992095D+00 -1.8469866037961D-01
   158  1.5700000000000D+00  1.0303420432866D+00 -1.6813966057890D-01
   159  1.5800000000000D+00  1.0011581305137D+00 -1.5202942573480D-01
   160  1.5900000000000D+00  9.7108173500691D-01 -1.3640057603729D-01
   161  1.6000000000000D+00  9.4019655186361D-01 -1.2128271610953D-01
   162  1.6100000000000D+00  9.0859179752097D-01 -1.0670234486718D-01
   163  1.6200000000000D+00  8.7636217591497D-01 -9.2682796752542D-02
   164  1.6300000000000D+00  8.4360803727137D-01 -7.9244180139813D-02
   165  1.6400000000000D+00  8.1043714929496D-01 -6.6403239444039D-02
   166  1.6500000000000D+00  7.7696291567204D-01 -5.4173426752188D-02
   167  1.6600000000000D+00  7.4330042295122D-01 -4.2565095864760D-02
   168  1.6700000000000D+00  7.0956350986610D-01 -3.1585687730179D-02
   169  1.6800000000000D+00  6.7586044239729D-01 -2.1240024212654D-02
   170  1.6900000000000D+00  6.4229303732207D-01 -1.1530421340850D-02
   171  1.7000000000000D+00  6.0895799055457D-01 -2.4567021103456D-03
   172  1.7100000000000D+00  5.7594661372356D-01  5.9837016517999D-03
   173  1.7200000000000D+00  5.4334470066703D-01  1.3795648587076D-02
   174  1.7300000000000D+00  5.1123262793001D-01  2.0986190752930D-02
   175  1.7400000000000D+00  4.7968534599156D-01  2.7564464895189D-02
   176  1.7500000000000D+00  4.4877242640829D-01  3.3541580635262D-02
   177  1.7600000000000D+00  4.1855810662928D-01  3.8930503146921D-02
   178  1.7700000000000D+00  3.8910134240579D-01  4.3745931366348D-02
   179  1.7800000000000D+00  3.6045586778524D-01  4.8004172276242D-02
   180  1.7900000000000D+00  3.3267026231143D-01  5.1723011889559D-02
   181  1.8000000000000D+00  3.0578802507195D-01  5.4921583422704D-02
   182  1.8100000000000D+00  2.7984765534425D-01  5.7620233354234D-02
   183  1.8200000000000D+00  2.5488273928904D-01  5.9840385859223D-02
   184  1.8300000000000D+00  2.3092204291470D-01  6.1604406318133D-02
   185  1.8400000000000D+00  2.0798961025349D-01  6.2935464456318D-02
   186  1.8500000000000D+00  1.8610486773604D-01  6.3857397711818D-02
   187  1.8600000000000D+00  1.6528273313263D-01  6.4394575534164D-02
   188  1.8700000000000D+00  1.4553373056639D-01  6.4571765046322D-02
   189  1.8800000000000D+00  1.2686411009620D-01  6.4413998897541D-02
   190  1.8900000000000D+00  1.0927597304061D-01  6.3946445647444D-02
   191  1.9000000000000D+00  9.2767402426869D-02  6.3194283472173D-02
   192  1.9100000000000D+00  7.7332598887252D-02  6.2182577642837D-02
   193  1.9200000000000D+00  6.2962022501970D-02  6.0936162245874D-02
   194  1.9300000000000D+00  4.9642540190572D-02  5.9479527028417D-02
   195  1.9400000000000D+00  3.7357579612812D-02  5.7836709140563D-02
   196  1.9500000000000D+00  2.6087289475151D-02  5.6031191330935D-02
   197  1.9600000000000D+00  1.5808706388641D-02  5.4085805762751D-02
   198  1.9700000000000D+00  6.4959293384134D-03  5.2022645073300D-02
   199  1.9800000000000D+00 -1.8796989713997D-03  4.9862980164623D-02
   200  1.9900000000000D+00 -9.3494031131259D-03  4.7627185365332D-02
   201  2.0000000000000D+00 -1.5946777240942D-02  4.5334671763963D-02
   202  2.0100000000000D+00 -2.1707581826222D-02  4.3003827480579D-02
   203  2.0200000000000D+00 -2.6669529251191D-02  4.0651967369147D-02
   204  2.0300000000000D+00 -3.0872065267922D-02  3.8295289728162D-02
   205  2.0400000000000D+00 -3.4356140619577D-02  3.5948842210026D-02
   206  2.0500000000000D+00 -3.7163976453679D-02  3.3626495933612D-02
   207  2.0600000000000D+00 -3.9338825522834D-02  3.1340927357622D-02
   208  2.0700000000000D+00 -4.0924724016876D-02  2.9103609685278D-02
   209  2.0800000000000D+00 -4.1966244379949D-02  2.6924810827300D-02
   210  2.0900000000000D+00 -4.2508240808252D-02  2.4813600658491D-02
   211  2.1000000000000D+00 -4.2595595468143D-02  2.2777865249920D-02
   212  2.1100000000000D+00 -4.2272965753965D-02  2.0824328188143D-02
   213  2.1200000000000D+00 -4.1584530941691D-02  1.8958579872199D-02
   214  2.1300000000000D+00 -4.0573745898566D-02  1.7185111996059D-02
   215  2.1400000000000D+00 -3.9283099180978D-02  1.5507359235418D-02
   216  2.1500000000000D+00 -3.7753879937431D-02  1.3927745973084D-02
   217  2.1600000000000D+00 -3.6025955299806D-02  1.2447737817406D-02
   218  2.1700000000000D+00 -3.4137562097736D-02  1.1067898109705D-02
   219  2.1800000000000D+00 -3.2125109916485D-02  9.7879477453080D-03
   220  2.1900000000000D+00 -3.0023005358325D-02  8.6068283822537D-03
   221  2.2000000000000D+00 -2.7863494452583D-02  7.5227681775260D-03
   222  2.2100000000000D+00 -2.5676520127666D-02  6.5333496346041D-03
   223  2.2200000000000D+00 -2.3489612766792D-02  5.6355782557661D-03
   224  2.2300000000000D+00 -2.1327793416026D-02  4.8259525283815D-03
   225  2.2400000000000D+00 -1.9213505634866D-02  4.1005336956220D-03
   226  2.2500000000000D+00 -1.7166577594741D-02  3.4550145785225D-03
   227  2.2600000000000D+00 -1.5204195350387D-02  2.8847887592995D-03
   228  2.2700000000000D+00 -1.3340915831155D-02  2.3850166742111D-03
   229  2.2800000000000D+00 -1.1588697935005D-02  1.9506904112437D-03
   230  2.2900000000000D+00 -9.9569502552522D-03  1.5766970370273D-03
   231  2.3000000000000D+00 -8.4526151656776D-03  1.2578771564867D-03
   232  2.3100000000000D+00 -7.0802620554269D-03  9.8908211904354D-04
   233  2.3200000000000D+00 -5.8422018895237D-03  7.6522740412661D-04
   234  2.3300000000000D+00 -4.7386231153937D-03  5.8134133047555D-04
   235  2.3400000000000D+00 -3.7677358492200D-03  4.3261163769099D-04
   236  2.3500000000000D+00 -2.9259312605701D-03  3.1442676811359D-04
   237  2.3600000000000D+00 -2.2079497476789D-03  2.2241293276786D-04
   238  2.3700000000000D+00 -1.6070573105885D-03  1.5246828914238D-04
   239  2.3800000000000D+00 -1.1151986819375D-03  1.0079157643748D-04
   240  2.3900000000000D+00 -7.2295212579640D-04  6.3910789660962D-05
   241  2.4000000000000D+00 -4.2088349939408D-04  3.8682358482556D-05
   242  2.4100000000000D+00 -1.9867710680914D-04  2.2327712864650D-05
   243  2.4200000000000D+00 -4.5301780885843D-05  1.2444111297154D-05
   244  2.4300000000000D+00  5.4910201776098D-05  7.0670355953839D-06
   245  2.4400000000000D+00  1.1660387469430D-04  4.6045862406977D-06
   246  2.4500000000000D+00  1.5004719211571D-04  3.7731652464166D-06
   247  2.4600000000000D+00  1.5384830371457D-04  3.4585224374104D-06
   248  2.4700000000000D+00  1.2674934553426D-04  2.8792872960766D-06
   249  2.4800000000000D+00  7.5811625421446D-05  1.7836574726018D-06
   250  2.4900000000000D+00  2.3741392390873D-05  5.8153739096265D-07
   251  2.5000000000000D+00 -8.9558941244624D-06 -2.0471088980949D-07
   252  2.5100000000000D+00 -1.5024441053792D-05 -3.4781550080159D-07
   253  2.5200000000000D+00 -6.9205810912764D-06 -1.6218071584991D-07
   254  2.5300000000000D+00  1.8398609852564D-06  3.7396934998070D-08
   255  2.5400000000000D+00  3.5268867669058D-06  7.1312951811778D-08
   256  2.5500000000000D+00  1.8516787259553D-06  3.7277745821345D-08
   257  2.5600000000000D+00 -1.8684677314576D-07 -4.2121140006852D-09
   258  2.5700000000000D+00 -4.0366364468989D-07 -9.0998482914098D-09
   259  2.5800000000000D+00 -2.3931188800255D-07 -5.3948427206692D-09
   260  2.5900000000000D+00  0.0000000000000D+00  0.0000000000000D+00
   261  2.6000000000000D+00  0.0000000000000D+00  0.0000000000000D+00
   262  2.6100000000000D+00  0.0000000000000D+00  0.0000000000000D+00
   263  2.6200000000000D+00  0.0000000000000D+00  0.0000000000000D+00
   264  2.6300000000000D+00  0.0000000000000D+00  0.0000000000000D+00
   265  2.6400000000000D+00  0.0000000000000D+00  0.0000000000000D+00
   266  2.6500000000000D+00  0.0000000000000D+00  0.0000000000000D+00
   267  2.6600000000000D+00  0.0000000000000D+00  0.0000000000000D+00
   268  2.6700000000000D+00  0.0000000000000D+00  0.0000000000000D+00
   269  2.6800000000000D+00  0.0000000000000D+00  0.0000000000000D+00
   270  2.6900000000000D+00  0.0000000000000D+00  0.0000000000000D+00
   271  2.7000000000000D+00  0.0000000000000D+00  0.0000000000000D+00
   272  2.7100000000000D+00  0.0000000000000D+00  0.0000000000000D+00
   273  2.7200000000000D+00  0.0000000000000D+00  0.0000000000000D+00
   274  2.7300000000000D+00  0.0000000000000D+00  0.0000000000000D+00
   275  2.7400000000000D+00  0.0000000000000D+00  0.0000000000000D+00
   276  2.7500000000000D+00  0.0000000000000D+00  0.0000000000000D+00
   277  2.7600000000000D+00  0.0000000000000D+00  0.0000000000000D+00
   278  2.7700000000000D+00  0.0000000000000D+00  0.0000000000000D+00
   279  2.7800000000000D+00  0.0000000000000D+00  0.0000000000000D+00
   280  2.7900000000000D+00  0.0000000000000D+00  0.0000000000000D+00
   281  2.8000000000000D+00  0.0000000000000D+00  0.0000000000000D+00
   282  2.8100000000000D+00  0.0000000000000D+00  0.0000000000000D+00
   283  2.8200000000000D+00  0.0000000000000D+00  0.0000000000000D+00
   284  2.8300000000000D+00  0.0000000000000D+00  0.0000000000000D+00
   285  2.8400000000000D+00  0.0000000000000D+00  0.0000000000000D+00
   286  2.8500000000000D+00  0.0000000000000D+00  0.0000000000000D+00
   287  2.8600000000000D+00  0.0000000000000D+00  0.0000000000000D+00
   288  2.8700000000000D+00  0.0000000000000D+00  0.0000000000000D+00
   289  2.8800000000000D+00  0.0000000000000D+00  0.0000000000000D+00
   290  2.8900000000000D+00  0.0000000000000D+00  0.0000000000000D+00
   291  2.9000000000000D+00  0.0000000000000D+00  0.0000000000000D+00
   292  2.9100000000000D+00  0.0000000000000D+00  0.0000000000000D+00
   293  2.9200000000000D+00  0.0000000000000D+00  0.0000000000000D+00
   294  2.9300000000000D+00  0.0000000000000D+00  0.0000000000000D+00
   295  2.9400000000000D+00  0.0000000000000D+00  0.0000000000000D+00
   296  2.9500000000000D+00  0.0000000000000D+00  0.0000000000000D+00
   297  2.9600000000000D+00  0.0000000000000D+00  0.0000000000000D+00
   298  2.9700000000000D+00  0.0000000000000D+00  0.0000000000000D+00
   299  2.9800000000000D+00  0.0000000000000D+00  0.0000000000000D+00
   300  2.9900000000000D+00  0.0000000000000D+00  0.0000000000000D+00
   301  3.0000000000000D+00  0.0000000000000D+00  0.0000000000000D+00
   302  3.0100000000000D+00  0.0000000000000D+00  0.0000000000000D+00
   303  3.0200000000000D+00  0.0000000000000D+00  0.0000000000000D+00
   304  3.0300000000000D+00  0.0000000000000D+00  0.0000000000000D+00
   305  3.0400000000000D+00  0.0000000000000D+00  0.0000000000000D+00
   306  3.0500000000000D+00  0.0000000000000D+00  0.0000000000000D+00
   307  3.0600000000000D+00  0.0000000000000D+00  0.0000000000000D+00
   308  3.0700000000000D+00  0.0000000000000D+00  0.0000000000000D+00
   309  3.0800000000000D+00  0.0000000000000D+00  0.0000000000000D+00
   310  3.0900000000000D+00  0.0000000000000D+00  0.0000000000000D+00
   311  3.1000000000000D+00  0.0000000000000D+00  0.0000000000000D+00
   312  3.1100000000000D+00  0.0000000000000D+00  0.0000000000000D+00
   313  3.1200000000000D+00  0.0000000000000D+00  0.0000000000000D+00
   314  3.1300000000000D+00  0.0000000000000D+00  0.0000000000000D+00
   315  3.1400000000000D+00  0.0000000000000D+00  0.0000000000000D+00
   316  3.1500000000000D+00  0.0000000000000D+00  0.0000000000000D+00
   317  3.1600000000000D+00  0.0000000000000D+00  0.0000000000000D+00
   318  3.1700000000000D+00  0.0000000000000D+00  0.0000000000000D+00
   319  3.1800000000000D+00  0.0000000000000D+00  0.0000000000000D+00
   320  3.1900000000000D+00  0.0000000000000D+00  0.0000000000000D+00
   321  3.2000000000000D+00  0.0000000000000D+00  0.0000000000000D+00
   322  3.2100000000000D+00  0.0000000000000D+00  0.0000000000000D+00
   323  3.2200000000000D+00  0.0000000000000D+00  0.0000000000000D+00
   324  3.2300000000000D+00  0.0000000000000D+00  0.0000000000000D+00
   325  3.2400000000000D+00  0.0000000000000D+00  0.0000000000000D+00
   326  3.2500000000000D+00  0.0000000000000D+00  0.0000000000000D+00
   327  3.2600000000000D+00  0.0000000000000D+00  0.0000000000000D+00
   328  3.2700000000000D+00  0.0000000000000D+00  0.0000000000000D+00
   329  3.2800000000000D+00  0.0000000000000D+00  0.0000000000000D+00
   330  3.2900000000000D+00  0.0000000000000D+00  0.0000000000000D+00
   331  3.3000000000000D+00  0.0000000000000D+00  0.0000000000000D+00
   332  3.3100000000000D+00  0.0000000000000D+00  0.0000000000000D+00
   333  3.3200000000000D+00  0.0000000000000D+00  0.0000000000000D+00
   334  3.3300000000000D+00  0.0000000000000D+00  0.0000000000000D+00
   335  3.3400000000000D+00  0.0000000000000D+00  0.0000000000000D+00
   336  3.3500000000000D+00  0.0000000000000D+00  0.0000000000000D+00
   337  3.3600000000000D+00  0.0000000000000D+00  0.0000000000000D+00
   338  3.3700000000000D+00  0.0000000000000D+00  0.0000000000000D+00
   339  3.3800000000000D+00  0.0000000000000D+00  0.0000000000000D+00
   340  3.3900000000000D+00  0.0000000000000D+00  0.0000000000000D+00
   341  3.4000000000000D+00  0.0000000000000D+00  0.0000000000000D+00
   342  3.4100000000000D+00  0.0000000000000D+00  0.0000000000000D+00
   343  3.4200000000000D+00  0.0000000000000D+00  0.0000000000000D+00
   344  3.4300000000000D+00  0.0000000000000D+00  0.0000000000000D+00
   345  3.4400000000000D+00  0.0000000000000D+00  0.0000000000000D+00
   346  3.4500000000000D+00  0.0000000000000D+00  0.0000000000000D+00
   347  3.4600000000000D+00  0.0000000000000D+00  0.0000000000000D+00
   348  3.4700000000000D+00  0.0000000000000D+00  0.0000000000000D+00
   349  3.4800000000000D+00  0.0000000000000D+00  0.0000000000000D+00
   350  3.4900000000000D+00  0.0000000000000D+00  0.0000000000000D+00
   351  3.5000000000000D+00  0.0000000000000D+00  0.0000000000000D+00
   352  3.5100000000000D+00  0.0000000000000D+00  0.0000000000000D+00
   353  3.5200000000000D+00  0.0000000000000D+00  0.0000000000000D+00
   354  3.5300000000000D+00  0.0000000000000D+00  0.0000000000000D+00
   355  3.5400000000000D+00  0.0000000000000D+00  0.0000000000000D+00
   356  3.5500000000000D+00  0.0000000000000D+00  0.0000000000000D+00
   357  3.5600000000000D+00  0.0000000000000D+00  0.0000000000000D+00
   358  3.5700000000000D+00  0.0000000000000D+00  0.0000000000000D+00
   359  3.5800000000000D+00  0.0000000000000D+00  0.0000000000000D+00
   360  3.5900000000000D+00  0.0000000000000D+00  0.0000000000000D+00
   361  3.6000000000000D+00  0.0000000000000D+00  0.0000000000000D+00
   362  3.6100000000000D+00  0.0000000000000D+00  0.0000000000000D+00
   363  3.6200000000000D+00  0.0000000000000D+00  0.0000000000000D+00
   364  3.6300000000000D+00  0.0000000000000D+00  0.0000000000000D+00
   365  3.6400000000000D+00  0.0000000000000D+00  0.0000000000000D+00
   366  3.6500000000000D+00  0.0000000000000D+00  0.0000000000000D+00
   367  3.6600000000000D+00  0.0000000000000D+00  0.0000000000000D+00
   368  3.6700000000000D+00  0.0000000000000D+00  0.0000000000000D+00
   369  3.6800000000000D+00  0.0000000000000D+00  0.0000000000000D+00
   370  3.6900000000000D+00  0.0000000000000D+00  0.0000000000000D+00
   371  3.7000000000000D+00  0.0000000000000D+00  0.0000000000000D+00
   372  3.7100000000000D+00  0.0000000000000D+00  0.0000000000000D+00
   373  3.7200000000000D+00  0.0000000000000D+00  0.0000000000000D+00
   374  3.7300000000000D+00  0.0000000000000D+00  0.0000000000000D+00
   375  3.7400000000000D+00  0.0000000000000D+00  0.0000000000000D+00
   376  3.7500000000000D+00  0.0000000000000D+00  0.0000000000000D+00
   377  3.7600000000000D+00  0.0000000000000D+00  0.0000000000000D+00
   378  3.7700000000000D+00  0.0000000000000D+00  0.0000000000000D+00
   379  3.7800000000000D+00  0.0000000000000D+00  0.0000000000000D+00
   380  3.7900000000000D+00  0.0000000000000D+00  0.0000000000000D+00
   381  3.8000000000000D+00  0.0000000000000D+00  0.0000000000000D+00
   382  3.8100000000000D+00  0.0000000000000D+00  0.0000000000000D+00
   383  3.8200000000000D+00  0.0000000000000D+00  0.0000000000000D+00
   384  3.8300000000000D+00  0.0000000000000D+00  0.0000000000000D+00
   385  3.8400000000000D+00  0.0000000000000D+00  0.0000000000000D+00
   386  3.8500000000000D+00  0.0000000000000D+00  0.0000000000000D+00
   387  3.8600000000000D+00  0.0000000000000D+00  0.0000000000000D+00
   388  3.8700000000000D+00  0.0000000000000D+00  0.0000000000000D+00
   389  3.8800000000000D+00  0.0000000000000D+00  0.0000000000000D+00
   390  3.8900000000000D+00  0.0000000000000D+00  0.0000000000000D+00
   391  3.9000000000000D+00  0.0000000000000D+00  0.0000000000000D+00
   392  3.9100000000000D+00  0.0000000000000D+00  0.0000000000000D+00
   393  3.9200000000000D+00  0.0000000000000D+00  0.0000000000000D+00
   394  3.9300000000000D+00  0.0000000000000D+00  0.0000000000000D+00
   395  3.9400000000000D+00  0.0000000000000D+00  0.0000000000000D+00
   396  3.9500000000000D+00  0.0000000000000D+00  0.0000000000000D+00
   397  3.9600000000000D+00  0.0000000000000D+00  0.0000000000000D+00
   398  3.9700000000000D+00  0.0000000000000D+00  0.0000000000000D+00
   399  3.9800000000000D+00  0.0000000000000D+00  0.0000000000000D+00
   400  3.9900000000000D+00  0.0000000000000D+00  0.0000000000000D+00
   401  4.0000000000000D+00  0.0000000000000D+00  0.0000000000000D+00
   402  4.0100000000000D+00  0.0000000000000D+00  0.0000000000000D+00
   403  4.0200000000000D+00  0.0000000000000D+00  0.0000000000000D+00
   404  4.0300000000000D+00  0.0000000000000D+00  0.0000000000000D+00
   405  4.0400000000000D+00  0.0000000000000D+00  0.0000000000000D+00
   406  4.0500000000000D+00  0.0000000000000D+00  0.0000000000000D+00
   407  4.0600000000000D+00  0.0000000000000D+00  0.0000000000000D+00
   408  4.0700000000000D+00  0.0000000000000D+00  0.0000000000000D+00
   409  4.0800000000000D+00  0.0000000000000D+00  0.0000000000000D+00
   410  4.0900000000000D+00  0.0000000000000D+00  0.0000000000000D+00
   411  4.1000000000000D+00  0.0000000000000D+00  0.0000000000000D+00
   412  4.1100000000000D+00  0.0000000000000D+00  0.0000000000000D+00
   413  4.1200000000000D+00  0.0000000000000D+00  0.0000000000000D+00
   414  4.1300000000000D+00  0.0000000000000D+00  0.0000000000000D+00
   415  4.1400000000000D+00  0.0000000000000D+00  0.0000000000000D+00
   416  4.1500000000000D+00  0.0000000000000D+00  0.0000000000000D+00
   417  4.1600000000000D+00  0.0000000000000D+00  0.0000000000000D+00
   418  4.1700000000000D+00  0.0000000000000D+00  0.0000000000000D+00
   419  4.1800000000000D+00  0.0000000000000D+00  0.0000000000000D+00
   420  4.1900000000000D+00  0.0000000000000D+00  0.0000000000000D+00
   421  4.2000000000000D+00  0.0000000000000D+00  0.0000000000000D+00
   422  4.2100000000000D+00  0.0000000000000D+00  0.0000000000000D+00