Ti    ONCVPSP-3.3.1  r_core=   2.46607   2.35117   2.29574
     22.0000     12.0000      210904    zatom,zion,pspd
     8      11   2     4   600     0    pspcod,pspxc,lmax,lloc,mmax,r2well
  5.99000000  0.00000000  0.00000000    rchrg fchrg qchrg
     2     2     2     0     0    nproj
     1     1           extension_switch
   0                         2.1485232996123D+00 -8.9089500242765D-02
     1  0.0000000000000D+00  4.3055004006476D-12 -1.9025225839187D-11
     2  1.0000000000000D-02  4.7424176350808D-02  3.3414288800505D-02
     3  2.0000000000000D-02  9.4794044008076D-02  6.6734265954519D-02
     4  3.0000000000000D-02  1.4205533108622D-01  9.9865962180761D-02
     5  4.0000000000000D-02  1.8915383946879D-01  1.3271609165526D-01
     6  5.0000000000000D-02  2.3603548207490D-01  1.6519239056203D-01
     7  6.0000000000000D-02  2.8264632058099D-01  1.9720395184367D-01
     8  7.0000000000000D-02  3.2893260374443D-01  2.2866155490735D-01
     9  8.0000000000000D-02  3.7484080647152D-01  2.5947798906100D-01
    10  9.0000000000000D-02  4.2031766976673D-01  2.8956836947785D-01
    11  1.0000000000000D-01  4.6531024169397D-01  3.1885044451597D-01
    12  1.1000000000000D-01  5.0976591947294D-01  3.4724489325169D-01
    13  1.2000000000000D-01  5.5363249282559D-01  3.7467561212330D-01
    14  1.3000000000000D-01  5.9685818867808D-01  4.0106998962190D-01
    15  1.4000000000000D-01  6.3939171731364D-01  4.2635916801193D-01
    16  1.5000000000000D-01  6.8118232006042D-01  4.5047829111281D-01
    17  1.6000000000000D-01  7.2217981858681D-01  4.7336673722554D-01
    18  1.7000000000000D-01  7.6233466586356D-01  4.9496833634473D-01
    19  1.8000000000000D-01  8.0159799883896D-01  5.1523157085572D-01
    20  1.9000000000000D-01  8.3992169285916D-01  5.3410975897888D-01
    21  2.0000000000000D-01  8.7725841785067D-01  5.5156122028904D-01
    22  2.1000000000000D-01  9.1356169626739D-01  5.6754942270498D-01
    23  2.2000000000000D-01  9.4878596278799D-01  5.8204311041540D-01
    24  2.3000000000000D-01  9.8288662573404D-01  5.9501641227875D-01
    25  2.4000000000000D-01  1.0158201301620D+00  6.0644893030960D-01
    26  2.5000000000000D-01  1.0475440225660D+00  6.1632580793883D-01
    27  2.6000000000000D-01  1.0780170171108D+00  6.2463777781253D-01
    28  2.7000000000000D-01  1.1071990632973D+00  6.3138118897162D-01
    29  2.8000000000000D-01  1.1350514149463D+00  6.3655801333291D-01
    30  2.9000000000000D-01  1.1615367003679D+00  6.4017583147086D-01
    31  3.0000000000000D-01  1.1866189935682D+00  6.4224779777817D-01
    32  3.1000000000000D-01  1.2102638863274D+00  6.4279258516149D-01
    33  3.2000000000000D-01  1.2324385609668D+00  6.4183430950656D-01
    34  3.3000000000000D-01  1.2531118636070D+00  6.3940243422412D-01
    35  3.4000000000000D-01  1.2722543777024D+00  6.3553165526319D-01
    36  3.5000000000000D-01  1.2898384976244D+00  6.3026176705349D-01
    37  3.6000000000000D-01  1.3058385020486D+00  6.2363750991010D-01
    38  3.7000000000000D-01  1.3202306268897D+00  6.1570839950463D-01
    39  3.8000000000000D-01  1.3329931375148D+00  6.0652853907513D-01
    40  3.9000000000000D-01  1.3441063999528D+00  5.9615641511190D-01
    41  4.0000000000000D-01  1.3535529508080D+00  5.8465467731931D-01
    42  4.1000000000000D-01  1.3613175655759D+00  5.7208990371275D-01
    43  4.2000000000000D-01  1.3673873250505D+00  5.5853235176624D-01
    44  4.3000000000000D-01  1.3717516795057D+00  5.4405569657769D-01
    45  4.4000000000000D-01  1.3744025103265D+00  5.2873675706818D-01
    46  4.5000000000000D-01  1.3753341887622D+00  5.1265521127562D-01
    47  4.6000000000000D-01  1.3745436314700D+00  4.9589330184291D-01
    48  4.7000000000000D-01  1.3720303525172D+00  4.7853553283758D-01
    49  4.8000000000000D-01  1.3677965115078D+00  4.6066835906981D-01
    50  4.9000000000000D-01  1.3618469575037D+00  4.4237986910311D-01
    51  5.0000000000000D-01  1.3541892684122D+00  4.2375946317361D-01
    52  5.1000000000000D-01  1.3448337855174D+00  4.0489752724993D-01
    53  5.2000000000000D-01  1.3337936428405D+00  3.8588510447845D-01
    54  5.3000000000000D-01  1.3210847910197D+00  3.6681356526472D-01
    55  5.4000000000000D-01  1.3067260154160D+00  3.4777427724379D-01
    56  5.5000000000000D-01  1.2907389481565D+00  3.2885827638892D-01
    57  5.6000000000000D-01  1.2731480738471D+00  3.1015594049918D-01
    58  5.7000000000000D-01  1.2539807286978D+00  2.9175666629335D-01
    59  5.8000000000000D-01  1.2332670928227D+00  2.7374855131883D-01
    60  5.9000000000000D-01  1.2110401754953D+00  2.5621808186040D-01
    61  6.0000000000000D-01  1.1873357931609D+00  2.3924982800592D-01
    62  6.1000000000000D-01  1.1621925400301D+00  2.2292614699251D-01
    63  6.2000000000000D-01  1.1356517510992D+00  2.0732689591924D-01
    64  6.3000000000000D-01  1.1077574574720D+00  1.9252915487051D-01
    65  6.4000000000000D-01  1.0785563338799D+00  1.7860696144731D-01
    66  6.5000000000000D-01  1.0480976383291D+00  1.6563105765420D-01
    67  6.6000000000000D-01  1.0164331438287D+00  1.5366865003454D-01
    68  6.7000000000000D-01  9.8361706218714D-01  1.4278318388928D-01
    69  6.8000000000000D-01  9.4970595989279D-01  1.3303413235365D-01
    70  6.9000000000000D-01  9.1475866612705D-01  1.2447680104120D-01
    71  7.0000000000000D-01  8.7883617299201D-01  1.1716214889817D-01
    72  7.1000000000000D-01  8.4200152806583D-01  1.1113662584133D-01
    73  7.2000000000000D-01  8.0431971943379D-01  1.0644202768105D-01
    74  7.3000000000000D-01  7.6585755337639D-01  1.0311536875751D-01
    75  7.4000000000000D-01  7.2668352492925D-01  1.0118877264267D-01
    76  7.5000000000000D-01  6.8686768156401D-01  1.0068938118496D-01
    77  7.6000000000000D-01  6.4648148027222D-01  1.0163928209624D-01
    78  7.7000000000000D-01  6.0559763836796D-01  1.0405545520249D-01
    79  7.8000000000000D-01  5.6428997835702D-01  1.0794973740267D-01
    80  7.9000000000000D-01  5.2263326725254D-01  1.1332880630240D-01
    81  8.0000000000000D-01  4.8070305074789D-01  1.2019418241183D-01
    82  8.1000000000000D-01  4.3857548268725D-01  1.2854224972177D-01
    83  8.2000000000000D-01  3.9632715030304D-01  1.3836429439674D-01
    84  8.3000000000000D-01  3.5403489571668D-01  1.4964656125116D-01
    85  8.4000000000000D-01  3.1177563422430D-01  1.6237032760320D-01
    86  8.5000000000000D-01  2.6962616991340D-01  1.7651199403297D-01
    87  8.6000000000000D-01  2.2766300917806D-01  1.9204319150448D-01
    88  8.7000000000000D-01  1.8596217272035D-01  2.0893090424894D-01
    89  8.8000000000000D-01  1.4459900664352D-01  2.2713760774594D-01
    90  8.9000000000000D-01  1.0364799325764D-01  2.4662142108352D-01
    91  9.0000000000000D-01  6.3182562231915D-02  2.6733627292545D-01
    92  9.1000000000000D-01  2.3274902737892D-02  2.8923208026526D-01
    93  9.2000000000000D-01 -1.6004222763868D-02  3.1225493910290D-01
    94  9.3000000000000D-01 -5.4585662436234D-02  3.3634732613997D-01
    95  9.4000000000000D-01 -9.2402056017109D-02  3.6144831055448D-01
    96  9.5000000000000D-01 -1.2938801215072D-01  3.8749377488638D-01
    97  9.6000000000000D-01 -1.6548028144251D-01  4.1441664403950D-01
    98  9.7000000000000D-01 -2.0061792458797D-01  4.4214712138588D-01
    99  9.8000000000000D-01 -2.3474247493475D-01  4.7061293094402D-01
   100  9.9000000000000D-01 -2.6779809484980D-01  4.9973956459240D-01
   101  1.0000000000000D+00 -2.9973172527848D-01  5.2945053327610D-01
   102  1.0100000000000D+00 -3.3049322790059D-01  5.5966762116525D-01
   103  1.0200000000000D+00 -3.6003551930915D-01  5.9031114173082D-01
   104  1.0300000000000D+00 -3.8831469666167D-01  6.2130019471464D-01
   105  1.0400000000000D+00 -4.1529015428089D-01  6.5255292298869D-01
   106  1.0500000000000D+00 -4.4092469070884D-01  6.8398676831857D-01
   107  1.0600000000000D+00 -4.6518460575282D-01  7.1551872507602D-01
   108  1.0700000000000D+00 -4.8803978709410D-01  7.4706559097534D-01
   109  1.0800000000000D+00 -5.0946378606679D-01  7.7854421394557D-01
   110  1.0900000000000D+00 -5.2943388225571D-01  8.0987173429510D-01
   111  1.1000000000000D+00 -5.4793113659564D-01  8.4096582136169D-01
   112  1.1100000000000D+00 -5.6494043270571D-01  8.7174490390142D-01
   113  1.1200000000000D+00 -5.8045050622999D-01  9.0212839351561D-01
   114  1.1300000000000D+00 -5.9445396200646D-01  9.3203690047807D-01
   115  1.1400000000000D+00 -6.0694727892554D-01  9.6139244137540D-01
   116  1.1500000000000D+00 -6.1793080239410D-01  9.9011863804452D-01
   117  1.1600000000000D+00 -6.2740872436633D-01  1.0181409073535D+00
   118  1.1700000000000D+00 -6.3538905095713D-01  1.0453866414461D+00
   119  1.1800000000000D+00 -6.4188355768845D-01  1.0717853781203D+00
   120  1.1900000000000D+00 -6.4690773248600D-01  1.0972689611046D+00
   121  1.2000000000000D+00 -6.5048070658501D-01  1.1217716900581D+00
   122  1.2100000000000D+00 -6.5262517355384D-01  1.1452304601958D+00
   123  1.2200000000000D+00 -6.5336729668328D-01  1.1675848914954D+00
   124  1.2300000000000D+00 -6.5273660505474D-01  1.1887774475464D+00
   125  1.2400000000000D+00 -6.5076587864188D-01  1.2087535441663D+00
   126  1.2500000000000D+00 -6.4749102281950D-01  1.2274616479374D+00
   127  1.2600000000000D+00 -6.4295093273746D-01  1.2448533649560D+00
   128  1.2700000000000D+00 -6.3718734803974D-01  1.2608835201220D+00
   129  1.2800000000000D+00 -6.3024469842789D-01  1.2755102273313D+00
   130  1.2900000000000D+00 -6.2216994064270D-01  1.2886949510575D+00
   131  1.3000000000000D+00 -6.1301238745767D-01  1.3004025598514D+00
   132  1.3100000000000D+00 -6.0282352928488D-01  1.3106013722961D+00
   133  1.3200000000000D+00 -5.9165684906739D-01  1.3192631960898D+00
   134  1.3300000000000D+00 -5.7956763113267D-01  1.3263633609424D+00
   135  1.3400000000000D+00 -5.6661276469245D-01  1.3318807459799D+00
   136  1.3500000000000D+00 -5.5285054273295D-01  1.3357978024847D+00
   137  1.3600000000000D+00 -5.3834045701860D-01  1.3381005727599D+00
   138  1.3700000000000D+00 -5.2314298996309D-01  1.3387787059641D+00
   139  1.3800000000000D+00 -5.0731940413432D-01  1.3378254718281D+00
   140  1.3900000000000D+00 -4.9093153015097D-01  1.3352377731236D+00
   141  1.4000000000000D+00 -4.7404155375099D-01  1.3310161578383D+00
   142  1.4100000000000D+00 -4.5671180278515D-01  1.3251648319853D+00
   143  1.4200000000000D+00 -4.3900453492012D-01  1.3176916740004D+00
   144  1.4300000000000D+00 -4.2098172678135D-01  1.3086082516836D+00
   145  1.4400000000000D+00 -4.0270486529853D-01  1.2979298426354D+00
   146  1.4500000000000D+00 -3.8423474197908D-01  1.2856754591480D+00
   147  1.4600000000000D+00 -3.6563125079010D-01  1.2718678784545D+00
   148  1.4700000000000D+00 -3.4695319040004D-01  1.2565336793186D+00
   149  1.4800000000000D+00 -3.2825807134420D-01  1.2397032857688D+00
   150  1.4900000000000D+00 -3.0960192885854D-01  1.2214110189565D+00
   151  1.5000000000000D+00 -2.9103914188326D-01  1.2016951578803D+00
   152  1.5100000000000D+00 -2.7262225886288D-01  1.1805980098340D+00
   153  1.5200000000000D+00 -2.5440183087273D-01  1.1581659913493D+00
   154  1.5300000000000D+00 -2.3642625249217D-01  1.1344497202594D+00
   155  1.5400000000000D+00 -2.1874161102464D-01  1.1095041197388D+00
   156  1.5500000000000D+00 -2.0139154423970D-01  1.0833885346427D+00
   157  1.5600000000000D+00 -1.8441710729825D-01  1.0561668610874D+00
   158  1.5700000000000D+00 -1.6785664884290D-01  1.0279076893410D+00
   159  1.5800000000000D+00 -1.5174569685015D-01  9.9868446089124D-01
   160  1.5900000000000D+00 -1.3611685365453D-01  9.6857564887404D-01
   161  1.6000000000000D+00 -1.2099970341388D-01  9.3766491145991D-01
   162  1.6100000000000D+00 -1.0642072195921D-01  9.0604139050128D-01
   163  1.6200000000000D+00 -9.2403218084190D-02  8.7379967722945D-01
   164  1.6300000000000D+00 -7.8967271976405D-02  8.4103997000169D-01
   165  1.6400000000000D+00 -6.6129597072553D-02  8.0786983896127D-01
   166  1.6500000000000D+00 -5.3903612069868D-02  7.7440245038681D-01
   167  1.6600000000000D+00 -4.2299635733710D-02  7.4075262701720D-01
   168  1.6700000000000D+00 -3.1325072932771D-02  7.0703392739892D-01
   169  1.6800000000000D+00 -2.0984709265805D-02  6.7335433587595D-01
   170  1.6900000000000D+00 -1.1280824559582D-02  6.3981538927591D-01
   171  1.7000000000000D+00 -2.2132055345373D-03  6.0651350089894D-01
   172  1.7100000000000D+00  6.2207521822514D-03  5.7353969825755D-01
   173  1.7200000000000D+00  1.4025943228482D-02  5.4097949032381D-01
   174  1.7300000000000D+00  2.1209455367825D-02  5.0891296809806D-01
   175  1.7400000000000D+00  2.7780460657377D-02  4.7741479637366D-01
   176  1.7500000000000D+00  3.3750103537826D-02  4.4655426126681D-01
   177  1.7600000000000D+00  3.9131383412340D-02  4.1639531548115D-01
   178  1.7700000000000D+00  4.3939032760849D-02  3.8699663120712D-01
   179  1.7800000000000D+00  4.8189391330500D-02  3.5841166063465D-01
   180  1.7900000000000D+00  5.1900277028107D-02  3.3068870369574D-01
   181  1.8000000000000D+00  5.5090854004865D-02  3.0387098267725D-01
   182  1.8100000000000D+00  5.7781498629728D-02  2.7799672345082D-01
   183  1.8200000000000D+00  5.9993663841921D-02  2.5309924276643D-01
   184  1.8300000000000D+00  6.1749742581903D-02  2.2920704182856D-01
   185  1.8400000000000D+00  6.3072930857182D-02  2.0634390509440D-01
   186  1.8500000000000D+00  6.3987091041134D-02  1.8452900527475D-01
   187  1.8600000000000D+00  6.4516616107829D-02  1.6377701290475D-01
   188  1.8700000000000D+00  6.4686295235462D-02  1.4409821198414D-01
   189  1.8800000000000D+00  6.4521181606547D-02  1.2549862018237D-01
   190  1.8900000000000D+00  6.4046462745502D-02  1.0798011477494D-01
   191  1.9000000000000D+00  6.3287334185046D-02  9.1540563692681D-02
   192  1.9100000000000D+00  6.2268876911902D-02  7.6173962001953D-02
   193  1.9200000000000D+00  6.1015939061739D-02  6.1870574310136D-02
   194  1.9300000000000D+00  5.9553022747145D-02  4.8617082695211D-02
   195  1.9400000000000D+00  5.7904175789999D-02  3.6396741114920D-02
   196  1.9500000000000D+00  5.6092889916471D-02  2.5189536190125D-02
   197  1.9600000000000D+00  5.4142004580139D-02  1.4972354501615D-02
   198  1.9700000000000D+00  5.2073618038297D-02  5.7191574566313D-03
   199  1.9800000000000D+00  4.9909005167861D-02 -2.5988370146571D-03
   200  1.9900000000000D+00  4.7668542661457D-02 -1.0012965153299D-02
   201  2.0000000000000D+00  4.5371642405036D-02 -1.6556919431061D-02
   202  2.0100000000000D+00  4.3036691800763D-02 -2.2266545094834D-02
   203  2.0200000000000D+00  4.0681003531984D-02 -2.7179625638288D-02
   204  2.0300000000000D+00  3.8320772342433D-02 -3.1335664197785D-02
   205  2.0400000000000D+00  3.5971041023859D-02 -3.4775655186480D-02
   206  2.0500000000000D+00  3.3645674614016D-02 -3.7541849791540D-02
   207  2.0600000000000D+00  3.1357342361256D-02 -3.9677517328892D-02
   208  2.0700000000000D+00  2.9117509228664D-02 -4.1226697321033D-02
   209  2.0800000000000D+00  2.6936433959409D-02 -4.2233952618797D-02
   210  2.0900000000000D+00  2.4823176441841D-02 -4.2744115303714D-02
   211  2.1000000000000D+00  2.2785612052749D-02 -4.2802033379220D-02
   212  2.1100000000000D+00  2.0830453089601D-02 -4.2452318576044D-02
   213  2.1200000000000D+00  1.8963278182188D-02 -4.1739093650725D-02
   214  2.1300000000000D+00  1.7188566889473D-02 -4.0705746782649D-02
   215  2.1400000000000D+00  1.5509741498923D-02 -3.9394690458854D-02
   216  2.1500000000000D+00  1.3929213862488D-02 -3.7847129213463D-02
   217  2.1600000000000D+00  1.2448437022404D-02 -3.6102837906520D-02
   218  2.1700000000000D+00  1.1067961819150D-02 -3.4199954400486D-02
   219  2.1800000000000D+00  9.7874968107295D-03 -3.2174783595753D-02
   220  2.1900000000000D+00  8.6059715697501D-03 -3.0061622721205D-02
   221  2.2000000000000D+00  7.5216025012541D-03 -2.7892604793546D-02
   222  2.2100000000000D+00  6.5319607672042D-03 -2.5697557144072D-02
   223  2.2200000000000D+00  5.6340410010187D-03 -2.3503893039671D-02
   224  2.2300000000000D+00  4.8243313528611D-03 -2.1336515945641D-02
   225  2.2400000000000D+00  4.0988833082325D-03 -1.9217752408554D-02
   226  2.2500000000000D+00  3.4533805466077D-03 -1.7167315148389D-02
   227  2.2600000000000D+00  2.8832081578969D-03 -1.5202277306930D-02
   228  2.2700000000000D+00  2.3835187545745D-03 -1.3337086330045D-02
   229  2.2800000000000D+00  1.9492972827584D-03 -1.1583595905914D-02
   230  2.2900000000000D+00  1.5754243567487D-03 -9.9511144919674D-03
   231  2.3000000000000D+00  1.2567348160718D-03 -8.4464900658799D-03
   232  2.3100000000000D+00  9.8807492530242D-04 -7.0742039962953D-03
   233  2.3200000000000D+00  7.6435574747579D-04 -5.8364861385047D-03
   234  2.3300000000000D+00  5.8060183675490D-04 -4.7334511502543D-03
   235  2.3400000000000D+00  4.3199779891296D-04 -3.7632430562654D-03
   236  2.3500000000000D+00  3.1392955056617D-04 -2.9221948721383D-03
   237  2.3600000000000D+00  2.2202136078569D-04 -2.2049969256318D-03
   238  2.3700000000000D+00  1.5216999985756D-04 -1.6048733361806D-03
   239  2.3800000000000D+00  1.0057334956179D-04 -1.1137352703249D-03
   240  2.3900000000000D+00  6.3759051338906D-05 -7.2213715014098D-04
   241  2.4000000000000D+00  3.8583649175866D-05 -4.2062277345107D-04
   242  2.4100000000000D+00  2.2269181567607D-05 -1.9886238966851D-04
   243  2.4200000000000D+00  1.2413965978162D-05 -4.5818722851583D-05
   244  2.4300000000000D+00  7.0545750347548D-06  5.4142867361039D-05
   245  2.4400000000000D+00  4.6005862682107D-06  1.1563599863297D-04
   246  2.4500000000000D+00  3.7706614072710D-06  1.4892614003064D-04
   247  2.4600000000000D+00  3.4544922003343D-06  1.5270774274191D-04
   248  2.4700000000000D+00  2.8742718361120D-06  1.2579502206349D-04
   249  2.4800000000000D+00  1.7799667894243D-06  7.5232873292552D-05
   250  2.4900000000000D+00  5.8018727632124D-07  2.3557593249961D-05
   251  2.5000000000000D+00 -2.0431369340953D-07 -8.8882519254720D-06
   252  2.5100000000000D+00 -3.4712154516035D-07 -1.4910607680586D-05
   253  2.5200000000000D+00 -1.6185005251095D-07 -6.8679939242732D-06
   254  2.5300000000000D+00  3.7333881569943D-08  1.8262895225152D-06
   255  2.5400000000000D+00  7.1192352807100D-08  3.5008912247240D-06
   256  2.5500000000000D+00  3.7214546643185D-08  1.8380393064060D-06
   257  2.5600000000000D+00 -4.2054117805220D-09 -1.8544637645460D-07
   258  2.5700000000000D+00 -9.0853688194176D-09 -4.0063822860777D-07
   259  2.5800000000000D+00 -5.3862585694202D-09 -2.3751827085587D-07
   260  2.5900000000000D+00  0.0000000000000D+00  0.0000000000000D+00
   261  2.6000000000000D+00  0.0000000000000D+00  0.0000000000000D+00
   262  2.6100000000000D+00  0.0000000000000D+00  0.0000000000000D+00
   263  2.6200000000000D+00  0.0000000000000D+00  0.0000000000000D+00
   264  2.6300000000000D+00  0.0000000000000D+00  0.0000000000000D+00
   265  2.6400000000000D+00  0.0000000000000D+00  0.0000000000000D+00
   266  2.6500000000000D+00  0.0000000000000D+00  0.0000000000000D+00
   267  2.6600000000000D+00  0.0000000000000D+00  0.0000000000000D+00
   268  2.6700000000000D+00  0.0000000000000D+00  0.0000000000000D+00
   269  2.6800000000000D+00  0.0000000000000D+00  0.0000000000000D+00
   270  2.6900000000000D+00  0.0000000000000D+00  0.0000000000000D+00
   271  2.7000000000000D+00  0.0000000000000D+00  0.0000000000000D+00
   272  2.7100000000000D+00  0.0000000000000D+00  0.0000000000000D+00
   273  2.7200000000000D+00  0.0000000000000D+00  0.0000000000000D+00
   274  2.7300000000000D+00  0.0000000000000D+00  0.0000000000000D+00
   275  2.7400000000000D+00  0.0000000000000D+00  0.0000000000000D+00
   276  2.7500000000000D+00  0.0000000000000D+00  0.0000000000000D+00
   277  2.7600000000000D+00  0.0000000000000D+00  0.0000000000000D+00
   278  2.7700000000000D+00  0.0000000000000D+00  0.0000000000000D+00
   279  2.7800000000000D+00  0.0000000000000D+00  0.0000000000000D+00
   280  2.7900000000000D+00  0.0000000000000D+00  0.0000000000000D+00
   281  2.8000000000000D+00  0.0000000000000D+00  0.0000000000000D+00
   282  2.8100000000000D+00  0.0000000000000D+00  0.0000000000000D+00
   283  2.8200000000000D+00  0.0000000000000D+00  0.0000000000000D+00
   284  2.8300000000000D+00  0.0000000000000D+00  0.0000000000000D+00
   285  2.8400000000000D+00  0.0000000000000D+00  0.0000000000000D+00
   286  2.8500000000000D+00  0.0000000000000D+00  0.0000000000000D+00
   287  2.8600000000000D+00  0.0000000000000D+00  0.0000000000000D+00
   288  2.8700000000000D+00  0.0000000000000D+00  0.0000000000000D+00
   289  2.8800000000000D+00  0.0000000000000D+00  0.0000000000000D+00
   290  2.8900000000000D+00  0.0000000000000D+00  0.0000000000000D+00
   291  2.9000000000000D+00  0.0000000000000D+00  0.0000000000000D+00
   292  2.9100000000000D+00  0.0000000000000D+00  0.0000000000000D+00
   293  2.9200000000000D+00  0.0000000000000D+00  0.0000000000000D+00
   294  2.9300000000000D+00  0.0000000000000D+00  0.0000000000000D+00
   295  2.9400000000000D+00  0.0000000000000D+00  0.0000000000000D+00
   296  2.9500000000000D+00  0.0000000000000D+00  0.0000000000000D+00
   297  2.9600000000000D+00  0.0000000000000D+00  0.0000000000000D+00
   298  2.9700000000000D+00  0.0000000000000D+00  0.0000000000000D+00
   299  2.9800000000000D+00  0.0000000000000D+00  0.0000000000000D+00
   300  2.9900000000000D+00  0.0000000000000D+00  0.0000000000000D+00
   301  3.0000000000000D+00  0.0000000000000D+00  0.0000000000000D+00
   302  3.0100000000000D+00  0.0000000000000D+00  0.0000000000000D+00
   303  3.0200000000000D+00  0.0000000000000D+00  0.0000000000000D+00
   304  3.0300000000000D+00  0.0000000000000D+00  0.0000000000000D+00
   305  3.0400000000000D+00  0.0000000000000D+00  0.0000000000000D+00
   306  3.0500000000000D+00  0.0000000000000D+00  0.0000000000000D+00
   307  3.0600000000000D+00  0.0000000000000D+00  0.0000000000000D+00
   308  3.0700000000000D+00  0.0000000000000D+00  0.0000000000000D+00
   309  3.0800000000000D+00  0.0000000000000D+00  0.0000000000000D+00
   310  3.0900000000000D+00  0.0000000000000D+00  0.0000000000000D+00
   311  3.1000000000000D+00  0.0000000000000D+00  0.0000000000000D+00
   312  3.1100000000000D+00  0.0000000000000D+00  0.0000000000000D+00
   313  3.1200000000000D+00  0.0000000000000D+00  0.0000000000000D+00
   314  3.1300000000000D+00  0.0000000000000D+00  0.0000000000000D+00
   315  3.1400000000000D+00  0.0000000000000D+00  0.0000000000000D+00
   316  3.1500000000000D+00  0.0000000000000D+00  0.0000000000000D+00
   317  3.1600000000000D+00  0.0000000000000D+00  0.0000000000000D+00
   318  3.1700000000000D+00  0.0000000000000D+00  0.0000000000000D+00
   319  3.1800000000000D+00  0.0000000000000D+00  0.0000000000000D+00
   320  3.1900000000000D+00  0.0000000000000D+00  0.0000000000000D+00
   321  3.2000000000000D+00  0.0000000000000D+00  0.0000000000000D+00
   322  3.2100000000000D+00  0.0000000000000D+00  0.0000000000000D+00
   323  3.2200000000000D+00  0.0000000000000D+00  0.0000000000000D+00
   324  3.2300000000000D+00  0.0000000000000D+00  0.0000000000000D+00
   325  3.2400000000000D+00  0.0000000000000D+00  0.0000000000000D+00
   326  3.2500000000000D+00  0.0000000000000D+00  0.0000000000000D+00
   327  3.2600000000000D+00  0.0000000000000D+00  0.0000000000000D+00
   328  3.2700000000000D+00  0.0000000000000D+00  0.0000000000000D+00
   329  3.2800000000000D+00  0.0000000000000D+00  0.0000000000000D+00
   330  3.2900000000000D+00  0.0000000000000D+00  0.0000000000000D+00
   331  3.3000000000000D+00  0.0000000000000D+00  0.0000000000000D+00
   332  3.3100000000000D+00  0.0000000000000D+00  0.0000000000000D+00
   333  3.3200000000000D+00  0.0000000000000D+00  0.0000000000000D+00
   334  3.3300000000000D+00  0.0000000000000D+00  0.0000000000000D+00
   335  3.3400000000000D+00  0.0000000000000D+00  0.0000000000000D+00
   336  3.3500000000000D+00  0.0000000000000D+00  0.0000000000000D+00
   337  3.3600000000000D+00  0.0000000000000D+00  0.0000000000000D+00
   338  3.3700000000000D+00  0.0000000000000D+00  0.0000000000000D+00
   339  3.3800000000000D+00  0.0000000000000D+00  0.0000000000000D+00
   340  3.3900000000000D+00  0.0000000000000D+00  0.0000000000000D+00
   341  3.4000000000000D+00  0.0000000000000D+00  0.0000000000000D+00
   342  3.4100000000000D+00  0.0000000000000D+00  0.0000000000000D+00
   343  3.4200000000000D+00  0.0000000000000D+00  0.0000000000000D+00
   344  3.4300000000000D+00  0.0000000000000D+00  0.0000000000000D+00
   345  3.4400000000000D+00  0.0000000000000D+00  0.0000000000000D+00
   346  3.4500000000000D+00  0.0000000000000D+00  0.0000000000000D+00
   347  3.4600000000000D+00  0.0000000000000D+00  0.0000000000000D+00
   348  3.4700000000000D+00  0.0000000000000D+00  0.0000000000000D+00
   349  3.4800000000000D+00  0.0000000000000D+00  0.0000000000000D+00
   350  3.4900000000000D+00  0.0000000000000D+00  0.0000000000000D+00
   351  3.5000000000000D+00  0.0000000000000D+00  0.0000000000000D+00
   352  3.5100000000000D+00  0.0000000000000D+00  0.0000000000000D+00
   353  3.5200000000000D+00  0.0000000000000D+00  0.0000000000000D+00
   354  3.5300000000000D+00  0.0000000000000D+00  0.0000000000000D+00
   355  3.5400000000000D+00  0.0000000000000D+00  0.0000000000000D+00
   356  3.5500000000000D+00  0.0000000000000D+00  0.0000000000000D+00
   357  3.5600000000000D+00  0.0000000000000D+00  0.0000000000000D+00
   358  3.5700000000000D+00  0.0000000000000D+00  0.0000000000000D+00
   359  3.5800000000000D+00  0.0000000000000D+00  0.0000000000000D+00
   360  3.5900000000000D+00  0.0000000000000D+00  0.0000000000000D+00
   361  3.6000000000000D+00  0.0000000000000D+00  0.0000000000000D+00
   362  3.6100000000000D+00  0.0000000000000D+00  0.0000000000000D+00
   363  3.6200000000000D+00  0.0000000000000D+00  0.0000000000000D+00
   364  3.6300000000000D+00  0.0000000000000D+00  0.0000000000000D+00
   365  3.6400000000000D+00  0.0000000000000D+00  0.0000000000000D+00
   366  3.6500000000000D+00  0.0000000000000D+00  0.0000000000000D+00
   367  3.6600000000000D+00  0.0000000000000D+00  0.0000000000000D+00
   368  3.6700000000000D+00  0.0000000000000D+00  0.0000000000000D+00
   369  3.6800000000000D+00  0.0000000000000D+00  0.0000000000000D+00
   370  3.6900000000000D+00  0.0000000000000D+00  0.0000000000000D+00
   371  3.7000000000000D+00  0.0000000000000D+00  0.0000000000000D+00
   372  3.7100000000000D+00  0.0000000000000D+00  0.0000000000000D+00
   373  3.7200000000000D+00  0.0000000000000D+00  0.0000000000000D+00
   374  3.7300000000000D+00  0.0000000000000D+00  0.0000000000000D+00
   375  3.7400000000000D+00  0.0000000000000D+00  0.0000000000000D+00
   376  3.7500000000000D+00  0.0000000000000D+00  0.0000000000000D+00
   377  3.7600000000000D+00  0.0000000000000D+00  0.0000000000000D+00
   378  3.7700000000000D+00  0.0000000000000D+00  0.0000000000000D+00
   379  3.7800000000000D+00  0.0000000000000D+00  0.0000000000000D+00
   380  3.7900000000000D+00  0.0000000000000D+00  0.0000000000000D+00
   381  3.8000000000000D+00  0.0000000000000D+00  0.0000000000000D+00
   382  3.8100000000000D+00  0.0000000000000D+00  0.0000000000000D+00
   383  3.8200000000000D+00  0.0000000000000D+00  0.0000000000000D+00
   384  3.8300000000000D+00  0.0000000000000D+00  0.0000000000000D+00
   385  3.8400000000000D+00  0.0000000000000D+00  0.0000000000000D+00
   386  3.8500000000000D+00  0.0000000000000D+00  0.0000000000000D+00
   387  3.8600000000000D+00  0.0000000000000D+00  0.0000000000000D+00
   388  3.8700000000000D+00  0.0000000000000D+00  0.0000000000000D+00
   389  3.8800000000000D+00  0.0000000000000D+00  0.0000000000000D+00
   390  3.8900000000000D+00  0.0000000000000D+00  0.0000000000000D+00
   391  3.9000000000000D+00  0.0000000000000D+00  0.0000000000000D+00
   392  3.9100000000000D+00  0.0000000000000D+00  0.0000000000000D+00
   393  3.9200000000000D+00  0.0000000000000D+00  0.0000000000000D+00
   394  3.9300000000000D+00  0.0000000000000D+00  0.0000000000000D+00
   395  3.9400000000000D+00  0.0000000000000D+00  0.0000000000000D+00
   396  3.9500000000000D+00  0.0000000000000D+00  0.0000000000000D+00
   397  3.9600000000000D+00  0.0000000000000D+00  0.0000000000000D+00
   398  3.9700000000000D+00  0.0000000000000D+00  0.0000000000000D+00
   399  3.9800000000000D+00  0.0000000000000D+00  0.0000000000000D+00
   400  3.9900000000000D+00  0.0000000000000D+00  0.0000000000000D+00
   401  4.0000000000000D+00  0.0000000000000D+00  0.0000000000000D+00
   402  4.0100000000000D+00  0.0000000000000D+00  0.0000000000000D+00
   403  4.0200000000000D+00  0.0000000000000D+00  0.0000000000000D+00
   404  4.0300000000000D+00  0.0000000000000D+00  0.0000000000000D+00
   405  4.0400000000000D+00  0.0000000000000D+00  0.0000000000000D+00
   406  4.0500000000000D+00  0.0000000000000D+00  0.0000000000000D+00
   407  4.0600000000000D+00  0.0000000000000D+00  0.0000000000000D+00
   408  4.0700000000000D+00  0.0000000000000D+00  0.0000000000000D+00
   409  4.0800000000000D+00  0.0000000000000D+00  0.0000000000000D+00
   410  4.0900000000000D+00  0.0000000000000D+00  0.0000000000000D+00
   411  4.1000000000000D+00  0.0000000000000D+00  0.0000000000000D+00
   412  4.1100000000000D+00  0.0000000000000D+00  0.0000000000000D+00
   413  4.1200000000000D+00  0.0000000000000D+00  0.0000000000000D+00
   414  4.1300000000000D+00  0.0000000000000D+00  0.0000000000000D+00
   415  4.1400000000000D+00  0.0000000000000D+00  0.0000000000000D+00
   416  4.1500000000000D+00  0.0000000000000D+00  0.0000000000000D+00
   417  4.1600000000000D+00  0.0000000000000D+00  0.0000000000000D+00
   418  4.1700000000000D+00  0.0000000000000D+00  0.0000000000000D+00
   419  4.1800000000000D+00  0.0000000000000D+00  0.0000000000000D+00
   420  4.1900000000000D+00  0.0000000000000D+00  0.0000000000000D+00
   421  4.2000000000000D+00  0.0000000000000D+00  0.0000000000000D+00
   422  4.2100000000000D+00  0.0000000000000D+00  0.0000000000000D+00