Tl    ONCVPSP-3.3.1  r_core=   3.35206   3.68771   3.15798   3.35206
     81.0000     13.0000      210904    zatom,zion,pspd
     8      11   3     4   600     0    pspcod,pspxc,lmax,lloc,mmax,r2well
  5.99000000  0.00000000  0.00000000    rchrg fchrg qchrg
     2     2     2     2     0    nproj
     1     1           extension_switch
   0                         2.9582041401170D+00  2.8992183225282D-01
     1  0.0000000000000D+00  5.8782145817560D-13 -2.6706969968870D-12
     2  1.0000000000000D-02  1.3177923709571D-02  3.6246182167528D-02
     3  2.0000000000000D-02  2.6363219049572D-02  7.2421775219421D-02
     4  3.0000000000000D-02  3.9563228509281D-02  1.0845633874485D-01
     5  4.0000000000000D-02  5.2785236364457D-02  1.4427972942585D-01
     6  5.0000000000000D-02  6.6036439742404D-02  1.7982224879248D-01
     7  6.0000000000000D-02  7.9323919892782D-02  2.1501479003045D-01
     8  7.0000000000000D-02  9.2654613732080D-02  2.4978898352841D-01
     9  8.0000000000000D-02  1.0603528572903D-01  2.8407734085488D-01
    10  9.0000000000000D-02  1.1947250019752D-01  3.1781339685821D-01
    11  1.0000000000000D-01  1.3297259406269D-01  3.5093184958682D-01
    12  1.1000000000000D-01  1.4654165016478D-01  3.8336869773167D-01
    13  1.2000000000000D-01  1.6018547116434D-01  4.1506137529837D-01
    14  1.3000000000000D-01  1.7390955411076D-01  4.4594888322194D-01
    15  1.4000000000000D-01  1.8771906573501D-01  4.7597191764396D-01
    16  1.5000000000000D-01  2.0161881852564D-01  5.0507299457904D-01
    17  1.6000000000000D-01  2.1561324764546D-01  5.3319657070499D-01
    18  1.7000000000000D-01  2.2970638874453D-01  5.6028916001961D-01
    19  1.8000000000000D-01  2.4390185672306D-01  5.8629944611576D-01
    20  1.9000000000000D-01  2.5820282549583D-01  6.1117838983563D-01
    21  2.0000000000000D-01  2.7261200880744D-01  6.3487933207518D-01
    22  2.1000000000000D-01  2.8713164214558D-01  6.5735809151995D-01
    23  2.2000000000000D-01  3.0176346579680D-01  6.7857305710448D-01
    24  2.3000000000000D-01  3.1650870908720D-01  6.9848527499851D-01
    25  2.4000000000000D-01  3.3136807584748D-01  7.1705852993535D-01
    26  2.5000000000000D-01  3.4634173113918D-01  7.3425942070932D-01
    27  2.6000000000000D-01  3.6142928927649D-01  7.5005742968236D-01
    28  2.7000000000000D-01  3.7662980317459D-01  7.6442498615204D-01
    29  2.8000000000000D-01  3.9194175505322D-01  7.7733752344691D-01
    30  2.9000000000000D-01  4.0736304852061D-01  7.8877352962824D-01
    31  3.0000000000000D-01  4.2289100206028D-01  7.9871459169114D-01
    32  3.1000000000000D-01  4.3852234393991D-01  8.0714543317185D-01
    33  3.2000000000000D-01  4.5425320855840D-01  8.1405394508234D-01
    34  3.3000000000000D-01  4.7007913424409D-01  8.1943121010737D-01
    35  3.4000000000000D-01  4.8599506251393D-01  8.2327152001408D-01
    36  3.5000000000000D-01  5.0199533879992D-01  8.2557238623849D-01
    37  3.6000000000000D-01  5.1807371464634D-01  8.2633454362792D-01
    38  3.7000000000000D-01  5.3422335137748D-01  8.2556194733343D-01
    39  3.8000000000000D-01  5.5043682523282D-01  8.2326176286074D-01
    40  3.9000000000000D-01  5.6670613396298D-01  8.1944434930310D-01
    41  4.0000000000000D-01  5.8302270487661D-01  8.1412323579413D-01
    42  4.1000000000000D-01  5.9937740432527D-01  8.0731509123343D-01
    43  4.2000000000000D-01  6.1576054860998D-01  7.9903968735217D-01
    44  4.3000000000000D-01  6.3216191628998D-01  7.8931985520020D-01
    45  4.4000000000000D-01  6.4857076187104D-01  7.7818143515077D-01
    46  4.5000000000000D-01  6.6497583084779D-01  7.6565322053240D-01
    47  4.6000000000000D-01  6.8136537607107D-01  7.5176689501183D-01
    48  4.7000000000000D-01  6.9772717540874D-01  7.3655696386512D-01
    49  4.8000000000000D-01  7.1404855066505D-01  7.2006067928728D-01
    50  4.9000000000000D-01  7.3031638772131D-01  7.0231795990382D-01
    51  5.0000000000000D-01  7.4651715785715D-01  6.8337130466015D-01
    52  5.1000000000000D-01  7.6263694020967D-01  6.6326570127679D-01
    53  5.2000000000000D-01  7.7866144532461D-01  6.4204852947044D-01
    54  5.3000000000000D-01  7.9457603975146D-01  6.1976945915198D-01
    55  5.4000000000000D-01  8.1036577163196D-01  5.9648034382367D-01
    56  5.5000000000000D-01  8.2601539722898D-01  5.7223510940802D-01
    57  5.6000000000000D-01  8.4150940834088D-01  5.4708963875079D-01
    58  5.7000000000000D-01  8.5683206054400D-01  5.2110165205013D-01
    59  5.8000000000000D-01  8.7196740220434D-01  4.9433058347234D-01
    60  5.9000000000000D-01  8.8689930419733D-01  4.6683745422341D-01
    61  6.0000000000000D-01  9.0161149027310D-01  4.3868474235299D-01
    62  6.1000000000000D-01  9.1608756800318D-01  4.0993624957442D-01
    63  6.2000000000000D-01  9.3031106024265D-01  3.8065696539120D-01
    64  6.3000000000000D-01  9.4426543704123D-01  3.5091292882574D-01
    65  6.4000000000000D-01  9.5793414793493D-01  3.2077108805184D-01
    66  6.5000000000000D-01  9.7130065454933D-01  2.9029915823639D-01
    67  6.6000000000000D-01  9.8434846344467D-01  2.5956547789990D-01
    68  6.7000000000000D-01  9.9706115913198D-01  2.2863886410871D-01
    69  6.8000000000000D-01  1.0094224371893D+00  1.9758846681378D-01
    70  6.9000000000000D-01  1.0214161374063D+00  1.6648362265311D-01
    71  7.0000000000000D-01  1.0330262768862D+00  1.3539370853588D-01
    72  7.1000000000000D-01  1.0442370830318D+00  1.0438799532624D-01
    73  7.2000000000000D-01  1.0550330263458D+00  7.3535501945165D-02
    74  7.3000000000000D-01  1.0653988529724D+00  4.2904850206874D-02
    75  7.4000000000000D-01  1.0753196169103D+00  1.2564120705083D-02
    76  7.5000000000000D-01  1.0847807118258D+00 -1.7419289938318D-02
    77  7.6000000000000D-01  1.0937679023962D+00 -4.6978810152799D-02
    78  7.7000000000000D-01  1.1022673551165D+00 -7.6048832521395D-02
    79  7.8000000000000D-01  1.1102656684985D+00 -1.0456485060455D-01
    80  7.9000000000000D-01  1.1177499025987D+00 -1.3246359319001D-01
    81  8.0000000000000D-01  1.1247076078075D+00 -1.5968315567882D-01
    82  8.1000000000000D-01  1.1311268528373D+00 -1.8616312832433D-01
    83  8.2000000000000D-01  1.1369962518470D+00 -2.1184472104814D-01
    84  8.3000000000000D-01  1.1423049906415D+00 -2.3667088456467D-01
    85  8.4000000000000D-01  1.1470428518901D+00 -2.6058642755487D-01
    86  8.5000000000000D-01  1.1512002393042D+00 -2.8353812963811D-01
    87  8.6000000000000D-01  1.1547682007229D+00 -3.0547484990119D-01
    88  8.7000000000000D-01  1.1577384500529D+00 -3.2634763075365D-01
    89  8.8000000000000D-01  1.1601033880134D+00 -3.4610979688883D-01
    90  8.9000000000000D-01  1.1618561216393D+00 -3.6471704914175D-01
    91  9.0000000000000D-01  1.1629904824982D+00 -3.8212755304626D-01
    92  9.1000000000000D-01  1.1635010435793D+00 -3.9830202190605D-01
    93  9.2000000000000D-01  1.1633831348156D+00 -4.1320379420671D-01
    94  9.3000000000000D-01  1.1626328572035D+00 -4.2679890520891D-01
    95  9.4000000000000D-01  1.1612470954866D+00 -4.3905615257593D-01
    96  9.5000000000000D-01  1.1592235293739D+00 -4.4994715590267D-01
    97  9.6000000000000D-01  1.1565606432671D+00 -4.5944641002679D-01
    98  9.7000000000000D-01  1.1532577344708D+00 -4.6753133201725D-01
    99  9.8000000000000D-01  1.1493149198680D+00 -4.7418230174942D-01
   100  9.9000000000000D-01  1.1447331410430D+00 -4.7938269599130D-01
   101  1.0000000000000D+00  1.1395141678381D+00 -4.8311891593927D-01
   102  1.0100000000000D+00  1.1336606003344D+00 -4.8538040815743D-01
   103  1.0200000000000D+00  1.1271758692493D+00 -4.8615967888941D-01
   104  1.0300000000000D+00  1.1200642347489D+00 -4.8545230172644D-01
   105  1.0400000000000D+00  1.1123307836741D+00 -4.8325691863080D-01
   106  1.0500000000000D+00  1.1039814251844D+00 -4.7957523432907D-01
   107  1.0600000000000D+00  1.0950228848272D+00 -4.7441200410406D-01
   108  1.0700000000000D+00  1.0854626970424D+00 -4.6777501502966D-01
   109  1.0800000000000D+00  1.0753091961165D+00 -4.5967506070812D-01
   110  1.0900000000000D+00  1.0645715056036D+00 -4.5012590958313D-01
   111  1.1000000000000D+00  1.0532595262339D+00 -4.3914426691794D-01
   112  1.1100000000000D+00  1.0413839223336D+00 -4.2674973053996D-01
   113  1.1200000000000D+00  1.0289561067837D+00 -4.1296474046949D-01
   114  1.1300000000000D+00  1.0159882245474D+00 -3.9781452256302D-01
   115  1.1400000000000D+00  1.0024931348003D+00 -3.8132702631550D-01
   116  1.1500000000000D+00  9.8848439169992D-01 -3.6353285697785D-01
   117  1.1600000000000D+00  9.7397622383322D-01 -3.4446520215983D-01
   118  1.1700000000000D+00  9.5898351238515D-01 -3.2415975310081D-01
   119  1.1800000000000D+00  9.4352176807351D-01 -3.0265462080320D-01
   120  1.1900000000000D+00  9.2760710689712D-01 -2.7999024723148D-01
   121  1.2000000000000D+00  9.1125622474809D-01 -2.5620931179532D-01
   122  1.2100000000000D+00  8.9448637094103D-01 -2.3135663334309D-01
   123  1.2200000000000D+00  8.7731532071412D-01 -2.0547906790182D-01
   124  1.2300000000000D+00  8.5976134675894D-01 -1.7862540240834D-01
   125  1.2400000000000D+00  8.4184318983898D-01 -1.5084624468769D-01
   126  1.2500000000000D+00  8.2358002855786D-01 -1.2219390994071D-01
   127  1.2600000000000D+00  8.0499144833970D-01 -9.2722304008180D-02
   128  1.2700000000000D+00  7.8609740968709D-01 -6.2486803690736D-02
   129  1.2800000000000D+00  7.6691821578239D-01 -3.1544134406255D-02
   130  1.2900000000000D+00  7.4747447949951D-01  4.7754529974269D-05
   131  1.3000000000000D+00  7.2778708989525D-01  3.2229816706810D-02
   132  1.3100000000000D+00  7.0787717824966D-01  6.4942037205825D-02
   133  1.3200000000000D+00  6.8776608372561D-01  9.8123562678389D-02
   134  1.3300000000000D+00  6.6747531871914D-01  1.3171283260730D-01
   135  1.3400000000000D+00  6.4702653397198D-01  1.6564771145130D-01
   136  1.3500000000000D+00  6.2644148351829D-01  1.9986562136661D-01
   137  1.3600000000000D+00  6.0574198953797D-01  2.3430367520157D-01
   138  1.3700000000000D+00  5.8494990718855D-01  2.6889880945977D-01
   139  1.3800000000000D+00  5.6408708948816D-01  3.0358791692718D-01
   140  1.3900000000000D+00  5.4317535232053D-01  3.3830797866657D-01
   141  1.4000000000000D+00  5.2223643963452D-01  3.7299619507375D-01
   142  1.4100000000000D+00  5.0129198890769D-01  4.0759011570764D-01
   143  1.4200000000000D+00  4.8036349694412D-01  4.4202776760036D-01
   144  1.4300000000000D+00  4.5947228607641D-01  4.7624778175692D-01
   145  1.4400000000000D+00  4.3863947083680D-01  5.1018951757763D-01
   146  1.4500000000000D+00  4.1788592516810D-01  5.4379318490797D-01
   147  1.4600000000000D+00  3.9723225023510D-01  5.7699996347066D-01
   148  1.4700000000000D+00  3.7669874290286D-01  6.0975211940443D-01
   149  1.4800000000000D+00  3.5630536494333D-01  6.4199311866103D-01
   150  1.4900000000000D+00  3.3607171302716D-01  6.7366773702957D-01
   151  1.5000000000000D+00  3.1601698956508D-01  7.0472216652551D-01
   152  1.5100000000000D+00  2.9615997444501D-01  7.3510411796420D-01
   153  1.5200000000000D+00  2.7651899772994D-01  7.6476291945243D-01
   154  1.5300000000000D+00  2.5711191335624D-01  7.9364961064751D-01
   155  1.5400000000000D+00  2.3795607389036D-01  8.2171703255046D-01
   156  1.5500000000000D+00  2.1906830638429D-01  8.4891991267913D-01
   157  1.5600000000000D+00  2.0046488937458D-01  8.7521494544775D-01
   158  1.5700000000000D+00  1.8216153106886D-01  9.0056086758238D-01
   159  1.5800000000000D+00  1.6417334874915D-01  9.2491852846853D-01
   160  1.5900000000000D+00  1.4651484944070D-01  9.4825095523973D-01
   161  1.6000000000000D+00  1.2919991185868D-01  9.7052341257799D-01
   162  1.6100000000000D+00  1.1224176968644D-01  9.9170345701357D-01
   163  1.6200000000000D+00  9.5652996180764D-02  1.0117609857699D+00
   164  1.6300000000000D+00  7.9445490160959D-02  1.0306682799275D+00
   165  1.6400000000000D+00  6.3630463364342D-02  1.0484000420087D+00
   166  1.6500000000000D+00  4.8218429221175D-02  1.0649334277748D+00
   167  1.6600000000000D+00  3.3219193025205D-02  1.0802480723652D+00
   168  1.6700000000000D+00  1.8641843545352D-02  1.0943261106024D+00
   169  1.6800000000000D+00  4.4947460488646D-03  1.1071521916186D+00
   170  1.6900000000000D+00 -9.2144632251399D-03  1.1187134876565D+00
   171  1.7000000000000D+00 -2.2478881178737D-02  1.1289996972306D+00
   172  1.7100000000000D+00 -3.5292340520700D-02  1.1380030425245D+00
   173  1.7200000000000D+00 -4.7649411030776D-02  1.1457182612474D+00
   174  1.7300000000000D+00 -5.9545399390847D-02  1.1521425928382D+00
   175  1.7400000000000D+00 -7.0976347641072D-02  1.1572757592875D+00
   176  1.7500000000000D+00 -8.1939030228565D-02  1.1611199404666D+00
   177  1.7600000000000D+00 -9.2430949720833D-02  1.1636797442903D+00
   178  1.7700000000000D+00 -1.0245033114871D-01  1.1649621715940D+00
   179  1.7800000000000D+00 -1.1199611506531D-01  1.1649765761078D+00
   180  1.7900000000000D+00 -1.2106794928555D-01  1.1637346194111D+00
   181  1.8000000000000D+00 -1.2966617939870D-01  1.1612502212718D+00
   182  1.8100000000000D+00 -1.3779183803047D-01  1.1575395053051D+00
   183  1.8200000000000D+00 -1.4544663293958D-01  1.1526207403225D+00
   184  1.8300000000000D+00 -1.5263293394688D-01  1.1465142773959D+00
   185  1.8400000000000D+00 -1.5935375876736D-01  1.1392424829462D+00
   186  1.8500000000000D+00 -1.6561275776905D-01  1.1308296679868D+00
   187  1.8600000000000D+00 -1.7141419771038D-01  1.1213020137544D+00
   188  1.8700000000000D+00 -1.7676294450787D-01  1.1106874939667D+00
   189  1.8800000000000D+00 -1.8166444506550D-01  1.0990157938652D+00
   190  1.8900000000000D+00 -1.8612470824389D-01  1.0863182263732D+00
   191  1.9000000000000D+00 -1.9015028498448D-01  1.0726276454774D+00
   192  1.9100000000000D+00 -1.9374824768230D-01  1.0579783572077D+00
   193  1.9200000000000D+00 -1.9692616882259D-01  1.0424060283353D+00
   194  1.9300000000000D+00 -1.9969209896816D-01  1.0259475931289D+00
   195  1.9400000000000D+00 -2.0205454413365D-01  1.0086411583659D+00
   196  1.9500000000000D+00 -2.0402244261192D-01  9.9052590686605D-01
   197  1.9600000000000D+00 -2.0560514131163D-01  9.7164199980551D-01
   198  1.9700000000000D+00 -2.0681237165744D-01  9.5203047806052D-01
   199  1.9800000000000D+00 -2.0765422511857D-01  9.3173316281494D-01
   200  1.9900000000000D+00 -2.0814112842106D-01  9.1079255573868D-01
   201  2.0000000000000D+00 -2.0828381849958D-01  8.8925173890306D-01
   202  2.0100000000000D+00 -2.0809331725519D-01  8.6715427477432D-01
   203  2.0200000000000D+00 -2.0758090616975D-01  8.4454410646671D-01
   204  2.0300000000000D+00 -2.0675810083447D-01  8.2146545849333D-01
   205  2.0400000000000D+00 -2.0563662546553D-01  7.9796273835982D-01
   206  2.0500000000000D+00 -2.0422838742888D-01  7.7408043901513D-01
   207  2.0600000000000D+00 -2.0254545187840D-01  7.4986304268201D-01
   208  2.0700000000000D+00 -2.0060001651468D-01  7.2535492601042D-01
   209  2.0800000000000D+00 -1.9840438654461D-01  7.0060026692204D-01
   210  2.0900000000000D+00 -1.9597094990601D-01  6.7564295341911D-01
   211  2.1000000000000D+00 -1.9331215274821D-01  6.5052649423327D-01
   212  2.1100000000000D+00 -1.9044047531654D-01  6.2529393203357D-01
   213  2.1200000000000D+00 -1.8736840818605D-01  5.9998775883623D-01
   214  2.1300000000000D+00 -1.8410842895421D-01  5.7464983412391D-01
   215  2.1400000000000D+00 -1.8067297944336D-01  5.4932130587228D-01
   216  2.1500000000000D+00 -1.7707444336821D-01  5.2404253419770D-01
   217  2.1600000000000D+00 -1.7332512465354D-01  4.9885301850101D-01
   218  2.1700000000000D+00 -1.6943722629857D-01  4.7379132753325D-01
   219  2.1800000000000D+00 -1.6542282989541D-01  4.4889503286213D-01
   220  2.1900000000000D+00 -1.6129387586930D-01  4.2420064601764D-01
   221  2.2000000000000D+00 -1.5706214434358D-01  3.9974355879344D-01
   222  2.2100000000000D+00 -1.5273923682797D-01  3.7555798761282D-01
   223  2.2200000000000D+00 -1.4833655863380D-01  3.5167692144590D-01
   224  2.2300000000000D+00 -1.4386530204105D-01  3.2813207335006D-01
   225  2.2400000000000D+00 -1.3933643036953D-01  3.0495383630502D-01
   226  2.2500000000000D+00 -1.3476066278294D-01  2.8217124249046D-01
   227  2.2600000000000D+00 -1.3014845998856D-01  2.5981192671912D-01
   228  2.2700000000000D+00 -1.2551001082947D-01  2.3790209396419D-01
   229  2.2800000000000D+00 -1.2085521964542D-01  2.1646649036628D-01
   230  2.2900000000000D+00 -1.1619369463660D-01  1.9552837874457D-01
   231  2.3000000000000D+00 -1.1153473706058D-01  1.7510951779383D-01
   232  2.3100000000000D+00 -1.0688733127100D-01  1.5523014496522D-01
   233  2.3200000000000D+00 -1.0226013577184D-01  1.3590896376105D-01
   234  2.3300000000000D+00 -9.7661475060679D-02  1.1716313439123D-01
   235  2.3400000000000D+00 -9.3099332385101D-02  9.9008268296423D-02
   236  2.3500000000000D+00 -8.8581343450781D-02  8.1458426656782D-02
   237  2.3600000000000D+00 -8.4114790900126D-02  6.4526122061756D-02
   238  2.3700000000000D+00 -7.9706599731990D-02  4.8222324022349D-02
   239  2.3800000000000D+00 -7.5363333590707D-02  3.2556467972840D-02
   240  2.3900000000000D+00 -7.1091191796810D-02  1.7536467189826D-02
   241  2.4000000000000D+00 -6.6896007312839D-02  3.1687283713154D-03
   242  2.4100000000000D+00 -6.2783245485237D-02 -1.0541829823637D-02
   243  2.4200000000000D+00 -5.8758003487381D-02 -2.3591755608307D-02
   244  2.4300000000000D+00 -5.4825010658460D-02 -3.5979039576918D-02
   245  2.4400000000000D+00 -5.0988629512455D-02 -4.7703087812782D-02
   246  2.4500000000000D+00 -4.7252857418796D-02 -5.8764692624737D-02
   247  2.4600000000000D+00 -4.3621329075025D-02 -6.9166000552529D-02
   248  2.4700000000000D+00 -4.0097319572446D-02 -7.8910478403542D-02
   249  2.4800000000000D+00 -3.6683748073214D-02 -8.8002877302083D-02
   250  2.4900000000000D+00 -3.3383182160137D-02 -9.6449194652118D-02
   251  2.5000000000000D+00 -3.0197842703646D-02 -1.0425663455100D-01
   252  2.5100000000000D+00 -2.7129609258257D-02 -1.1143356668081D-01
   253  2.5200000000000D+00 -2.4180026008066D-02 -1.1798948376602D-01
   254  2.5300000000000D+00 -2.1350308148880D-02 -1.2393495791084D-01
   255  2.5400000000000D+00 -1.8641348705493D-02 -1.2928159591345D-01
   256  2.5500000000000D+00 -1.6053725770552D-02 -1.3404199380711D-01
   257  2.5600000000000D+00 -1.3587710096310D-02 -1.3822969071119D-01
   258  2.5700000000000D+00 -1.1243273023535D-02 -1.4185912214628D-01
   259  2.5800000000000D+00 -9.0200946997588D-03 -1.4494557325221D-01
   260  2.5900000000000D+00 -6.9175725648922D-03 -1.4750513174068D-01
   261  2.6000000000000D+00 -4.9348300832167D-03 -1.4955464073207D-01
   262  2.6100000000000D+00 -3.0707256247325D-03 -1.5111165220238D-01
   263  2.6200000000000D+00 -1.3238615278814D-03 -1.5219438057821D-01
   264  2.6300000000000D+00  3.0740666280173D-04 -1.5282165650917D-01
   265  2.6400000000000D+00  1.8249609627355D-03 -1.5301288201741D-01
   266  2.6500000000000D+00  3.2309125190440D-03 -1.5278799232451D-01
   267  2.6600000000000D+00  4.5275887730304D-03 -1.5216738890349D-01
   268  2.6700000000000D+00  5.7175277570566D-03 -1.5117192207273D-01
   269  2.6800000000000D+00  6.8034749324341D-03 -1.4982289080921D-01
   270  2.6900000000000D+00  7.7883514842694D-03 -1.4814185437003D-01
   271  2.7000000000000D+00  8.6752639771812D-03 -1.4615071890461D-01
   272  2.7100000000000D+00  9.4674866287329D-03 -1.4387163973037D-01
   273  2.7200000000000D+00  1.0168484853969D-02 -1.4132721185741D-01
   274  2.7300000000000D+00  1.0781887551463D-02 -1.3854030667671D-01
   275  2.7400000000000D+00  1.1311436865177D-02 -1.3553375750658D-01
   276  2.7500000000000D+00  1.1760968330350D-02 -1.3233025042329D-01
   277  2.7600000000000D+00  1.2134380732825D-02 -1.2895214114166D-01
   278  2.7700000000000D+00  1.2435605606224D-02 -1.2542130379861D-01
   279  2.7800000000000D+00  1.2668595886733D-02 -1.2175908786156D-01
   280  2.7900000000000D+00  1.2837227565421D-02 -1.1798569293218D-01
   281  2.8000000000000D+00  1.2945361022695D-02 -1.1412062657945D-01
   282  2.8100000000000D+00  1.2996805215529D-02 -1.1018250189005D-01
   283  2.8200000000000D+00  1.2995332272116D-02 -1.0618918892974D-01
   284  2.8300000000000D+00  1.2944655991730D-02 -1.0215770509382D-01
   285  2.8400000000000D+00  1.2848419499549D-02 -9.8104170614994D-02
   286  2.8500000000000D+00  1.2710191521389D-02 -9.4043825166005D-02
   287  2.8600000000000D+00  1.2533460902600D-02 -8.9991030814514D-02
   288  2.8700000000000D+00  1.2321627762079D-02 -8.5959250175864D-02
   289  2.8800000000000D+00  1.2077998395256D-02 -8.1961050093172D-02
   290  2.8900000000000D+00  1.1805779705702D-02 -7.8008101599002D-02
   291  2.9000000000000D+00  1.1508074642213D-02 -7.4111184997464D-02
   292  2.9100000000000D+00  1.1187877969335D-02 -7.0280196731579D-02
   293  2.9200000000000D+00  1.0848072501982D-02 -6.6524158654029D-02
   294  2.9300000000000D+00  1.0491425973296D-02 -6.2851230454725D-02
   295  2.9400000000000D+00  1.0120588528146D-02 -5.9268725164318D-02
   296  2.9500000000000D+00  9.7380906669112D-03 -5.5783126862496D-02
   297  2.9600000000000D+00  9.3463414252672D-03 -5.2400109497662D-02
   298  2.9700000000000D+00  8.9476275231052D-03 -4.9124560324372D-02
   299  2.9800000000000D+00  8.5441126911500D-03 -4.5960604052156D-02
   300  2.9900000000000D+00  8.1378374733768D-03 -4.2911629263811D-02
   301  3.0000000000000D+00  7.7307194798653D-03 -3.9980316723672D-02
   302  3.0100000000000D+00  7.3245540781863D-03 -3.7168669448458D-02
   303  3.0200000000000D+00  6.9210155240903D-03 -3.4478044809204D-02
   304  3.0300000000000D+00  6.5216580656483D-03 -3.1909185933237D-02
   305  3.0400000000000D+00  6.1279180172645D-03 -2.9462257784742D-02
   306  3.0500000000000D+00  5.7411157948413D-03 -2.7136882426009D-02
   307  3.0600000000000D+00  5.3624583338581D-03 -2.4932175842483D-02
   308  3.0700000000000D+00  4.9930418347615D-03 -2.2846786025982D-02
   309  3.0800000000000D+00  4.6338545188175D-03 -2.0878929969139D-02
   310  3.0900000000000D+00  4.2857798136147D-03 -1.9026432683756D-02
   311  3.1000000000000D+00  3.9495995203368D-03 -1.7286765361265D-02
   312  3.1100000000000D+00  3.6259973478552D-03 -1.5657084788813D-02
   313  3.1200000000000D+00  3.3155625741092D-03 -1.4134272732126D-02
   314  3.1300000000000D+00  3.0187937007289D-03 -1.2714974462294D-02
   315  3.1400000000000D+00  2.7361024649319D-03 -1.1395638844016D-02
   316  3.1500000000000D+00  2.4678175241673D-03 -1.0172555268278D-02
   317  3.1600000000000D+00  2.2141883892366D-03 -9.0418914797376D-03
   318  3.1700000000000D+00  1.9753893373614D-03 -7.9997304448328D-03
   319  3.1800000000000D+00  1.7515233985152D-03 -7.0421069187447D-03
   320  3.1900000000000D+00  1.5426260970583D-03 -6.1650415867000D-03
   321  3.2000000000000D+00  1.3486692441762D-03 -5.3645748120699D-03
   322  3.2100000000000D+00  1.1695647269639D-03 -4.6367995702450D-03
   323  3.2200000000000D+00  1.0051681662725D-03 -3.9778927980698D-03
   324  3.2300000000000D+00  8.5528224751768D-04 -3.3841439482290D-03
   325  3.2400000000000D+00  7.1976116639222D-04 -2.8524627867127D-03
   326  3.2500000000000D+00  5.9823391375687D-04 -2.3790770479723D-03
   327  3.2600000000000D+00  4.9021414149715D-04 -1.9600639172470D-03
   328  3.2700000000000D+00  3.9530055464674D-04 -1.5923101651826D-03
   329  3.2800000000000D+00  3.1240206813911D-04 -1.2701063671815D-03
   330  3.2900000000000D+00  2.4195332193781D-04 -9.9486384884726D-04
   331  3.3000000000000D+00  1.8438749637586D-04 -7.6842042178728D-04
   332  3.3100000000000D+00  1.3946013829539D-04 -5.9006158084846D-04
   333  3.3200000000000D+00  1.0834416032745D-04 -4.6527493355221D-04
   334  3.3300000000000D+00  8.7174383718824D-05 -3.7866232374185D-04
   335  3.3400000000000D+00  7.2040601062877D-05 -3.1474386870578D-04
   336  3.3500000000000D+00  5.9734204867932D-05 -2.6099830320315D-04
   337  3.3600000000000D+00  4.4829371449688D-05 -1.9568371404923D-04
   338  3.3700000000000D+00  2.9123499102006D-05 -1.2691214593273D-04
   339  3.3800000000000D+00  1.4440092895977D-05 -6.2779024868180D-05
   340  3.3900000000000D+00  2.2730075112498D-06 -9.8567368229024D-06
   341  3.4000000000000D+00 -3.6275669304153D-06  1.5899553822718D-05
   342  3.4100000000000D+00 -5.0067401745505D-06  2.1943301839259D-05
   343  3.4200000000000D+00 -3.6392986977129D-06  1.5948009484531D-05
   344  3.4300000000000D+00 -8.8446130747696D-07  3.8751444591540D-06
   345  3.4400000000000D+00  6.9639261101601D-07 -3.0665245162675D-06
   346  3.4500000000000D+00  1.1512524280642D-06 -5.0712916594305D-06
   347  3.4600000000000D+00  9.6165606368087D-07 -4.2374535993535D-06
   348  3.4700000000000D+00  3.2422752178300D-07 -1.4290807226325D-06
   349  3.4800000000000D+00 -7.8121691606270D-08  3.4114932537709D-07
   350  3.4900000000000D+00 -1.5560953101620D-07  6.7953068394849D-07
   351  3.5000000000000D+00 -1.4658569251778D-07  6.4012451707279D-07
   352  3.5100000000000D+00 -6.5647407594456D-08  2.8667542078423D-07
   353  3.5200000000000D+00  0.0000000000000D+00  0.0000000000000D+00
   354  3.5300000000000D+00  0.0000000000000D+00  0.0000000000000D+00
   355  3.5400000000000D+00  0.0000000000000D+00  0.0000000000000D+00
   356  3.5500000000000D+00  0.0000000000000D+00  0.0000000000000D+00
   357  3.5600000000000D+00  0.0000000000000D+00  0.0000000000000D+00
   358  3.5700000000000D+00  0.0000000000000D+00  0.0000000000000D+00
   359  3.5800000000000D+00  0.0000000000000D+00  0.0000000000000D+00
   360  3.5900000000000D+00  0.0000000000000D+00  0.0000000000000D+00
   361  3.6000000000000D+00  0.0000000000000D+00  0.0000000000000D+00
   362  3.6100000000000D+00  0.0000000000000D+00  0.0000000000000D+00
   363  3.6200000000000D+00  0.0000000000000D+00  0.0000000000000D+00
   364  3.6300000000000D+00  0.0000000000000D+00  0.0000000000000D+00
   365  3.6400000000000D+00  0.0000000000000D+00  0.0000000000000D+00
   366  3.6500000000000D+00  0.0000000000000D+00  0.0000000000000D+00
   367  3.6600000000000D+00  0.0000000000000D+00  0.0000000000000D+00
   368  3.6700000000000D+00  0.0000000000000D+00  0.0000000000000D+00
   369  3.6800000000000D+00  0.0000000000000D+00  0.0000000000000D+00
   370  3.6900000000000D+00  0.0000000000000D+00  0.0000000000000D+00
   371  3.7000000000000D+00  0.0000000000000D+00  0.0000000000000D+00
   372  3.7100000000000D+00  0.0000000000000D+00  0.0000000000000D+00
   373  3.7200000000000D+00  0.0000000000000D+00  0.0000000000000D+00
   374  3.7300000000000D+00  0.0000000000000D+00  0.0000000000000D+00
   375  3.7400000000000D+00  0.0000000000000D+00  0.0000000000000D+00
   376  3.7500000000000D+00  0.0000000000000D+00  0.0000000000000D+00
   377  3.7600000000000D+00  0.0000000000000D+00  0.0000000000000D+00
   378  3.7700000000000D+00  0.0000000000000D+00  0.0000000000000D+00
   379  3.7800000000000D+00  0.0000000000000D+00  0.0000000000000D+00
   380  3.7900000000000D+00  0.0000000000000D+00  0.0000000000000D+00
   381  3.8000000000000D+00  0.0000000000000D+00  0.0000000000000D+00
   382  3.8100000000000D+00  0.0000000000000D+00  0.0000000000000D+00
   383  3.8200000000000D+00  0.0000000000000D+00  0.0000000000000D+00
   384  3.8300000000000D+00  0.0000000000000D+00  0.0000000000000D+00
   385  3.8400000000000D+00  0.0000000000000D+00  0.0000000000000D+00
   386  3.8500000000000D+00  0.0000000000000D+00  0.0000000000000D+00
   387  3.8600000000000D+00  0.0000000000000D+00  0.0000000000000D+00
   388  3.8700000000000D+00  0.0000000000000D+00  0.0000000000000D+00
   389  3.8800000000000D+00  0.0000000000000D+00  0.0000000000000D+00
   390  3.8900000000000D+00  0.0000000000000D+00  0.0000000000000D+00
   391  3.9000000000000D+00  0.0000000000000D+00  0.0000000000000D+00
   392  3.9100000000000D+00  0.0000000000000D+00  0.0000000000000D+00
   393  3.9200000000000D+00  0.0000000000000D+00  0.0000000000000D+00
   394  3.9300000000000D+00  0.0000000000000D+00  0.0000000000000D+00
   395  3.9400000000000D+00  0.0000000000000D+00  0.0000000000000D+00
   396  3.9500000000000D+00  0.0000000000000D+00  0.0000000000000D+00
   397  3.9600000000000D+00  0.0000000000000D+00  0.0000000000000D+00
   398  3.9700000000000D+00  0.0000000000000D+00  0.0000000000000D+00
   399  3.9800000000000D+00  0.0000000000000D+00  0.0000000000000D+00
   400  3.9900000000000D+00  0.0000000000000D+00  0.0000000000000D+00
   401  4.0000000000000D+00  0.0000000000000D+00  0.0000000000000D+00
   402  4.0100000000000D+00  0.0000000000000D+00  0.0000000000000D+00
   403  4.0200000000000D+00  0.0000000000000D+00  0.0000000000000D+00
   404  4.0300000000000D+00  0.0000000000000D+00  0.0000000000000D+00
   405  4.0400000000000D+00  0.0000000000000D+00  0.0000000000000D+00
   406  4.0500000000000D+00  0.0000000000000D+00  0.0000000000000D+00
   407  4.0600000000000D+00  0.0000000000000D+00  0.0000000000000D+00
   408  4.0700000000000D+00  0.0000000000000D+00  0.0000000000000D+00
   409  4.0800000000000D+00  0.0000000000000D+00  0.0000000000000D+00
   410  4.0900000000000D+00  0.0000000000000D+00  0.0000000000000D+00
   411  4.1000000000000D+00  0.0000000000000D+00  0.0000000000000D+00
   412  4.1100000000000D+00  0.0000000000000D+00  0.0000000000000D+00
   413  4.1200000000000D+00  0.0000000000000D+00  0.0000000000000D+00
   414  4.1300000000000D+00  0.0000000000000D+00  0.0000000000000D+00
   415  4.1400000000000D+00  0.0000000000000D+00  0.0000000000000D+00
   416  4.1500000000000D+00  0.0000000000000D+00  0.0000000000000D+00
   417  4.1600000000000D+00  0.0000000000000D+00  0.0000000000000D+00
   418  4.1700000000000D+00  0.0000000000000D+00  0.0000000000000D+00
   419  4.1800000000000D+00  0.0000000000000D+00  0.0000000000000D+00
   420  4.1900000000000D+00  0.0000000000000D+00  0.0000000000000D+00
   421  4.2000000000000D+00  0.0000000000000D+00  0.0000000000000D+00
   422  4.2100000000000D+00  0.0000000000000D+00  0.0000000000000D+00