Tl    ONCVPSP-3.3.1  r_core=   3.35206   3.68771   3.15798   3.35206
     81.0000     13.0000      210904    zatom,zion,pspd
     8      11   3     4   600     0    pspcod,pspxc,lmax,lloc,mmax,r2well
  5.99000000  0.00000000  0.00000000    rchrg fchrg qchrg
     2     3     3     2    nproj
     3     1           extension_switch
     4     4     3    nprojso
   0                         2.8936089408134D-01  2.9630277012702D+00
     1  0.0000000000000D+00 -2.6723068202728D-12  5.9184601663986D-13
     2  1.0000000000000D-02  3.6225467526833D-02  1.3162487639326D-02
     3  2.0000000000000D-02  7.2380405114219D-02  2.6332333392791D-02
     4  3.0000000000000D-02  1.0839443130978D-01  3.9516866327943D-02
     5  4.0000000000000D-02  1.4419746131919D-01  5.2723357487641D-02
     6  5.0000000000000D-02  1.7971985454563D-01  6.5958991048809D-02
     7  6.0000000000000D-02  2.1489256118367D-01  7.9230835686095D-02
     8  7.0000000000000D-02  2.4964726755546D-01  9.2545816208028D-02
     9  8.0000000000000D-02  2.8391653987998D-01  1.0591068553271D-01
    10  9.0000000000000D-02  3.1763396616910D-01  1.1933199706929D-01
    11  1.0000000000000D-01  3.5073429594862D-01  1.3281607757066D-01
    12  1.1000000000000D-01  3.8315357750674D-01  1.4636900052170D-01
    13  1.2000000000000D-01  4.1482929237793D-01  1.5999656012628D-01
    14  1.3000000000000D-01  4.4570048677576D-01  1.7370424595497D-01
    15  1.4000000000000D-01  4.7570789969528D-01  1.8749721831384D-01
    16  1.5000000000000D-01  5.0479408741201D-01  2.0138028439337D-01
    17  1.6000000000000D-01  5.3290354411274D-01  2.1535787525450D-01
    18  1.7000000000000D-01  5.5998281840156D-01  2.2943402370733D-01
    19  1.8000000000000D-01  5.8598062543300D-01  2.4361234313586D-01
    20  1.9000000000000D-01  6.1084795443399D-01  2.5789600732007D-01
    21  2.0000000000000D-01  6.3453817138582D-01  2.7228773130460D-01
    22  2.1000000000000D-01  6.5700711664775D-01  2.8678975336095D-01
    23  2.2000000000000D-01  6.7821319731488D-01  3.0140381808754D-01
    24  2.3000000000000D-01  6.9811747411388D-01  3.1613116068992D-01
    25  2.4000000000000D-01  7.1668374265200D-01  3.3097249248029D-01
    26  2.5000000000000D-01  7.3387860884702D-01  3.4592798763338D-01
    27  2.6000000000000D-01  7.4967155837786D-01  3.6099727123241D-01
    28  2.7000000000000D-01  7.6403502000890D-01  3.7617940863656D-01
    29  2.8000000000000D-01  7.7694442265362D-01  3.9147289619814D-01
    30  2.9000000000000D-01  7.8837824605717D-01  4.0687565335473D-01
    31  3.0000000000000D-01  7.9831806499056D-01  4.2238501611866D-01
    32  3.1000000000000D-01  8.0674858686373D-01  4.3799773198304D-01
    33  3.2000000000000D-01  8.1365768267825D-01  4.5370995626042D-01
    34  3.3000000000000D-01  8.1903641125522D-01  4.6951724986693D-01
    35  3.4000000000000D-01  8.2287903668811D-01  4.8541457856185D-01
    36  3.5000000000000D-01  8.2518303898482D-01  5.0139631364885D-01
    37  3.6000000000000D-01  8.2594911787820D-01  5.1745623414251D-01
    38  3.7000000000000D-01  8.2518118979851D-01  5.3358753039977D-01
    39  3.8000000000000D-01  8.2288637801645D-01  5.4978280921348D-01
    40  3.9000000000000D-01  8.1907499597986D-01  5.6603410036124D-01
    41  4.0000000000000D-01  8.1376052388193D-01  5.8233286460004D-01
    42  4.1000000000000D-01  8.0695957851324D-01  5.9867000309367D-01
    43  4.2000000000000D-01  7.9869187646491D-01  6.1503586825668D-01
    44  4.3000000000000D-01  7.8898019076359D-01  6.3142027599575D-01
    45  4.4000000000000D-01  7.7785030103425D-01  6.4781251932583D-01
    46  4.5000000000000D-01  7.6533093729998D-01  6.6420138333555D-01
    47  4.6000000000000D-01  7.5145371754204D-01  6.8057516147345D-01
    48  4.7000000000000D-01  7.3625307915688D-01  6.9692167312321D-01
    49  4.8000000000000D-01  7.1976620446012D-01  7.1322828243353D-01
    50  4.9000000000000D-01  7.0203294040015D-01  7.2948191836542D-01
    51  5.0000000000000D-01  6.8309571265686D-01  7.4566909591643D-01
    52  5.1000000000000D-01  6.6299943431290D-01  7.6177593847946D-01
    53  5.2000000000000D-01  6.4179140929687D-01  7.7778820129038D-01
    54  5.3000000000000D-01  6.1952123080889D-01  7.9369129591673D-01
    55  5.4000000000000D-01  5.9624067495031D-01  8.0947031573716D-01
    56  5.5000000000000D-01  5.7200358978921D-01  8.2511006235887D-01
    57  5.6000000000000D-01  5.4686578010368D-01  8.4059507291850D-01
    58  5.7000000000000D-01  5.2088488805405D-01  8.5590964820929D-01
    59  5.8000000000000D-01  4.9412027004400D-01  8.7103788157586D-01
    60  5.9000000000000D-01  4.6663287003895D-01  8.8596368851600D-01
    61  6.0000000000000D-01  4.3848508961766D-01  9.0067083692692D-01
    62  6.1000000000000D-01  4.0974065504012D-01  9.1514297793229D-01
    63  6.2000000000000D-01  3.8046448162113D-01  9.2936367722454D-01
    64  6.3000000000000D-01  3.5072253570507D-01  9.4331644685594D-01
    65  6.4000000000000D-01  3.2058169454223D-01  9.5698477741061D-01
    66  6.5000000000000D-01  2.9010960437176D-01  9.7035217048883D-01
    67  6.6000000000000D-01  2.5937453702007D-01  9.8340217143396D-01
    68  6.7000000000000D-01  2.2844524532672D-01  9.9611840223172D-01
    69  6.8000000000000D-01  1.9739081771228D-01  1.0084845945111D+00
    70  6.9000000000000D-01  1.6628053220426D-01  1.0204846225754D+00
    71  7.0000000000000D-01  1.3518371023871D-01  1.0321025363930D+00
    72  7.1000000000000D-01  1.0416957055475D-01  1.0433225944744D+00
    73  7.2000000000000D-01  7.3307083499785D-02  1.0541292965662D+00
    74  7.3000000000000D-01  4.2664826061250D-02  1.0645074160903D+00
    75  7.4000000000000D-01  1.2310837939712D-02  1.0744420322561D+00
    76  7.5000000000000D-01 -1.7687521024817D-02  1.0839185617781D+00
    77  7.6000000000000D-01 -4.7263711764459D-02  1.0929227901273D+00
    78  7.7000000000000D-01 -7.6352154927884D-02  1.1014409022488D+00
    79  7.8000000000000D-01 -1.0488836755716D-01  1.1094595126778D+00
    80  7.9000000000000D-01 -1.3280909720179D-01  1.1169656949881D+00
    81  8.0000000000000D-01 -1.6005245318047D-01  1.1239470105069D+00
    82  8.1000000000000D-01 -1.8655803470794D-01  1.1303915362340D+00
    83  8.2000000000000D-01 -2.1226705561111D-01  1.1362878919018D+00
    84  8.3000000000000D-01 -2.3712246536673D-01  1.1416252661169D+00
    85  8.4000000000000D-01 -2.6106906620118D-01  1.1463934415252D+00
    86  8.5000000000000D-01 -2.8405362600180D-01  1.1505828189430D+00
    87  8.6000000000000D-01 -3.0602498679909D-01  1.1541844404016D+00
    88  8.7000000000000D-01 -3.2693416858887D-01  1.1571900110521D+00
    89  8.8000000000000D-01 -3.4673446827437D-01  1.1595919198821D+00
    90  8.9000000000000D-01 -3.6538155351919D-01  1.1613832591965D+00
    91  9.0000000000000D-01 -3.8283355131380D-01  1.1625578428192D+00
    92  9.1000000000000D-01 -3.9905113107024D-01  1.1631102229726D+00
    93  9.2000000000000D-01 -4.1399758207223D-01  1.1630357057973D+00
    94  9.3000000000000D-01 -4.2763888512066D-01  1.1623303654763D+00
    95  9.4000000000000D-01 -4.3994377822782D-01  1.1609910569295D+00
    96  9.5000000000000D-01 -4.5088381622723D-01  1.1590154270500D+00
    97  9.6000000000000D-01 -4.6043342417970D-01  1.1564019244555D+00
    98  9.7000000000000D-01 -4.6856994447064D-01  1.1531498077302D+00
    99  9.8000000000000D-01 -4.7527367750782D-01  1.1492591521379D+00
   100  9.9000000000000D-01 -4.8052791594348D-01  1.1447308547900D+00
   101  1.0000000000000D+00 -4.8431897235930D-01  1.1395666382531D+00
   102  1.0100000000000D+00 -4.8663620036788D-01  1.1337690525876D+00
   103  1.0200000000000D+00 -4.8747200909906D-01  1.1273414758102D+00
   104  1.0300000000000D+00 -4.8682187105487D-01  1.1202881127761D+00
   105  1.0400000000000D+00 -4.8468432333145D-01  1.1126139924819D+00
   106  1.0500000000000D+00 -4.8106096222215D-01  1.1043249637930D+00
   107  1.0600000000000D+00 -4.7595643123008D-01  1.0954276896014D+00
   108  1.0700000000000D+00 -4.6937840253396D-01  1.0859296394243D+00
   109  1.0800000000000D+00 -4.6133755196616D-01  1.0758390804594D+00
   110  1.0900000000000D+00 -4.5184752757571D-01  1.0651650671102D+00
   111  1.1000000000000D+00 -4.4092491186512D-01  1.0539174290062D+00
   112  1.1100000000000D+00 -4.2858917780146D-01  1.0421067575376D+00
   113  1.1200000000000D+00 -4.1486263871928D-01  1.0297443909347D+00
   114  1.1300000000000D+00 -3.9977039224449D-01  1.0168423979198D+00
   115  1.1400000000000D+00 -3.8334025838349D-01  1.0034135599664D+00
   116  1.1500000000000D+00 -3.6560271193276D-01  9.8947135220147D-01
   117  1.1600000000000D+00 -3.4659080937860D-01  9.7502992298916D-01
   118  1.1700000000000D+00 -3.2634011046852D-01  9.6010407223927D-01
   119  1.1800000000000D+00 -3.0488859464851D-01  9.4470922848471D-01
   120  1.1900000000000D+00 -2.8227657256844D-01  9.2886142477513D-01
   121  1.2000000000000D+00 -2.5854659287309D-01  9.1257727343709D-01
   122  1.2100000000000D+00 -2.3374334450455D-01  8.9587393975314D-01
   123  1.2200000000000D+00 -2.0791355475121D-01  8.7876911461457D-01
   124  1.2300000000000D+00 -1.8110588328723D-01  8.6128098620437D-01
   125  1.2400000000000D+00 -1.5337081245795D-01  8.4342821076987D-01
   126  1.2500000000000D+00 -1.2476053407221D-01  8.2522988254587D-01
   127  1.2600000000000D+00 -9.5328832968425D-02  8.0670550289035D-01
   128  1.2700000000000D+00 -6.5130967632530D-02  7.8787494869770D-01
   129  1.2800000000000D+00 -3.4223548149086D-02  7.6875844015519D-01
   130  1.2900000000000D+00 -2.6644117698811D-03  7.4937650790903D-01
   131  1.3000000000000D+00  2.9487503605134D-02  7.2974995970916D-01
   132  1.3100000000000D+00  6.2172287740580D-02  7.0989984660175D-01
   133  1.3200000000000D+00  9.5329187874266D-02  6.8984742873904D-01
   134  1.3300000000000D+00  1.2889673971844D-01  6.6961414087819D-01
   135  1.3400000000000D+00  1.6281289935265D-01  6.4922155763971D-01
   136  1.3500000000000D+00  1.9701517570309D-01  6.2869135859766D-01
   137  1.3600000000000D+00  2.3144076330492D-01  6.0804529327323D-01
   138  1.3700000000000D+00  2.6602667504386D-01  5.8730514610366D-01
   139  1.3800000000000D+00  3.0070987457292D-01  5.6649270145866D-01
   140  1.3900000000000D+00  3.3542740810813D-01  5.4562970877478D-01
   141  1.4000000000000D+00  3.7011653529851D-01  5.2473784788028D-01
   142  1.4100000000000D+00  4.0471485888258D-01  5.0383869457934D-01
   143  1.4200000000000D+00  4.3916045283811D-01  4.8295368656589D-01
   144  1.4300000000000D+00  4.7339198873520D-01  4.6210408973652D-01
   145  1.4400000000000D+00  5.0734886002611D-01  4.4131096496720D-01
   146  1.4500000000000D+00  5.4097130397713D-01  4.2059513542430D-01
   147  1.4600000000000D+00  5.7420052099724D-01  3.9997715447035D-01
   148  1.4700000000000D+00  6.0697879108867D-01  3.7947727423072D-01
   149  1.4800000000000D+00  6.3924958717104D-01  3.5911541488239D-01
   150  1.4900000000000D+00  6.7095768504818D-01  3.3891113472171D-01
   151  1.5000000000000D+00  7.0204926975564D-01  3.1888360107505D-01
   152  1.5100000000000D+00  7.3247203810837D-01  2.9905156209865D-01
   153  1.5200000000000D+00  7.6217529718248D-01  2.7943331953234D-01
   154  1.5300000000000D+00  7.9111005858052D-01  2.6004670244680D-01
   155  1.5400000000000D+00  8.1922912824703D-01  2.4090904204219D-01
   156  1.5500000000000D+00  8.4648719167989D-01  2.2203714753843D-01
   157  1.5600000000000D+00  8.7284089436427D-01  2.0344728320176D-01
   158  1.5700000000000D+00  8.9824891725823D-01  1.8515514655168D-01
   159  1.5800000000000D+00  9.2267204722628D-01  1.6717584777731D-01
   160  1.5900000000000D+00  9.4607324222956D-01  1.4952389041196D-01
   161  1.6000000000000D+00  9.6841769124312D-01  1.3221315327832D-01
   162  1.6100000000000D+00  9.8967286868778D-01  1.1525687375786D-01
   163  1.6200000000000D+00  1.0098085834218D+00  9.8667632379988D-02
   164  1.6300000000000D+00  1.0287970220663D+00  8.2457338787769D-02
   165  1.6400000000000D+00  1.0466127867651D+00  6.6637219062996D-02
   166  1.6500000000000D+00  1.0632329271718D+00  5.1217804463515D-02
   167  1.6600000000000D+00  1.0786369667906D+00  3.6208921549284D-02
   168  1.6700000000000D+00  1.0928069234975D+00  2.1619683742625D-02
   169  1.6800000000000D+00  1.1057273243938D+00  7.4584842933194D-03
   170  1.6900000000000D+00  1.1173852148472D+00 -6.2670093126096D-03
   171  1.7000000000000D+00  1.1277701619035D+00 -1.9549859537033D-02
   172  1.7100000000000D+00  1.1368742519457D+00 -3.2383861532639D-02
   173  1.7200000000000D+00  1.1446920828217D+00 -4.4763544490596D-02
   174  1.7300000000000D+00  1.1512207503298D+00 -5.6684171561037D-02
   175  1.7400000000000D+00  1.1564598293303D+00 -6.8141738404082D-02
   176  1.7500000000000D+00  1.1604113493726D+00 -7.9132970338882D-02
   177  1.7600000000000D+00  1.1630797651631D+00 -8.9655318162494D-02
   178  1.7700000000000D+00  1.1644719217542D+00 -9.9706952603270D-02
   179  1.7800000000000D+00  1.1645970148368D+00 -1.0928675749480D-01
   180  1.7900000000000D+00  1.1634665460176D+00 -1.1839432163489D-01
   181  1.8000000000000D+00  1.1610942734859D+00 -1.2702992942156D-01
   182  1.8100000000000D+00  1.1574961580038D+00 -1.3519455024246D-01
   183  1.8200000000000D+00  1.1526903045892D+00 -1.4288982670222D-01
   184  1.8300000000000D+00  1.1466968999162D+00 -1.5011806168548D-01
   185  1.8400000000000D+00  1.1395381457411D+00 -1.5688220432577D-01
   186  1.8500000000000D+00  1.1312381884836D+00 -1.6318583490379D-01
   187  1.8600000000000D+00  1.1218230451958D+00 -1.6903314872629D-01
   188  1.8700000000000D+00  1.1113205261564D+00 -1.7442893903733D-01
   189  1.8800000000000D+00  1.0997601542477D+00 -1.7937857899262D-01
   190  1.8900000000000D+00  1.0871730814464D+00 -1.8388800277499D-01
   191  1.9000000000000D+00  1.0735920025329D+00 -1.8796368586567D-01
   192  1.9100000000000D+00  1.0590510663961D+00 -1.9161262456482D-01
   193  1.9200000000000D+00  1.0435857850508D+00 -1.9484231477599D-01
   194  1.9300000000000D+00  1.0272329407070D+00 -1.9766073014126D-01
   195  1.9400000000000D+00  1.0100304910886D+00 -2.0007629956283D-01
   196  1.9500000000000D+00  9.9201747326687D-01 -2.0209788417591D-01
   197  1.9600000000000D+00  9.7323390626665D-01 -2.0373475383172D-01
   198  1.9700000000000D+00  9.5372069269313D-01 -2.0499656314160D-01
   199  1.9800000000000D+00  9.3351951961399D-01 -2.0589332714783D-01
   200  1.9900000000000D+00  9.1267275900176D-01 -2.0643539667591D-01
   201  2.0000000000000D+00  8.9122336790337D-01 -2.0663343342419D-01
   202  2.0100000000000D+00  8.6921478867614D-01 -2.0649838485664D-01
   203  2.0200000000000D+00  8.4669084947212D-01 -2.0604145894931D-01
   204  2.0300000000000D+00  8.2369566520800D-01 -2.0527409884780D-01
   205  2.0400000000000D+00  8.0027353936481D-01 -2.0420795750807D-01
   206  2.0500000000000D+00  7.7646886663229D-01 -2.0285487234291D-01
   207  2.0600000000000D+00  7.5232603691861D-01 -2.0122683997742D-01
   208  2.0700000000000D+00  7.2788934066965D-01 -1.9933599112111D-01
   209  2.0800000000000D+00  7.0320287586487D-01 -1.9719456563621D-01
   210  2.0900000000000D+00  6.7831045696246D-01 -1.9481488786611D-01
   211  2.1000000000000D+00  6.5325552567047D-01 -1.9220934221534D-01
   212  2.1100000000000D+00  6.2808106426063D-01 -1.8939034912771D-01
   213  2.1200000000000D+00  6.0282951106956D-01 -1.8637034140886D-01
   214  2.1300000000000D+00  5.7754267869333D-01 -1.8316174100223D-01
   215  2.1400000000000D+00  5.5226167507325D-01 -1.7977693626901D-01
   216  2.1500000000000D+00  5.2702682718802D-01 -1.7622825972783D-01
   217  2.1600000000000D+00  5.0187760822443D-01 -1.7252796643829D-01
   218  2.1700000000000D+00  4.7685256765520D-01 -1.6868821292565D-01
   219  2.1800000000000D+00  4.5198926470133D-01 -1.6472103675348D-01
   220  2.1900000000000D+00  4.2732420545688D-01 -1.6063833681174D-01
   221  2.2000000000000D+00  4.0289278315503D-01 -1.5645185422397D-01
   222  2.2100000000000D+00  3.7872922248162D-01 -1.5217315407109D-01
   223  2.2200000000000D+00  3.5486652742483D-01 -1.4781360783617D-01
   224  2.2300000000000D+00  3.3133643273333D-01 -1.4338437659506D-01
   225  2.2400000000000D+00  3.0816935965254D-01 -1.3889639510435D-01
   226  2.2500000000000D+00  2.8539437508972D-01 -1.3436035661668D-01
   227  2.2600000000000D+00  2.6303915491950D-01 -1.2978669858522D-01
   228  2.2700000000000D+00  2.4112995136878D-01 -1.2518558925441D-01
   229  2.2800000000000D+00  2.1969156386875D-01 -1.2056691501401D-01
   230  2.2900000000000D+00  1.9874731439600D-01 -1.1594026874938D-01
   231  2.3000000000000D+00  1.7831902648700D-01 -1.1131493901949D-01
   232  2.3100000000000D+00  1.5842700792454D-01 -1.0669990007114D-01
   233  2.3200000000000D+00  1.3909003782424D-01 -1.0210380286268D-01
   234  2.3300000000000D+00  1.2032535707257D-01 -9.7534966871699D-02
   235  2.3400000000000D+00  1.0214866262003D-01 -9.3001372810563D-02
   236  2.3500000000000D+00  8.4574105748721D-02 -8.8510656288102D-02
   237  2.3600000000000D+00  6.7614293492075D-02 -8.4070102237467D-02
   238  2.3700000000000D+00  5.1280293886918D-02 -7.9686640279945D-02
   239  2.3800000000000D+00  3.5581644706191D-02 -7.5366840953461D-02
   240  2.3900000000000D+00  2.0526365101623D-02 -7.1116912678861D-02
   241  2.4000000000000D+00  6.1209708981874D-03 -6.6942699656663D-02
   242  2.4100000000000D+00 -7.6295071574380D-03 -6.2849680536112D-02
   243  2.4200000000000D+00 -2.0721502527053D-02 -5.8842967782040D-02
   244  2.4300000000000D+00 -3.3152888692489D-02 -5.4927307933602D-02
   245  2.4400000000000D+00 -4.4922952570986D-02 -5.1107082530213D-02
   246  2.4500000000000D+00 -5.6032365562775D-02 -4.7386309706349D-02
   247  2.4600000000000D+00 -6.6483151871154D-02 -4.3768646575337D-02
   248  2.4700000000000D+00 -7.6278654856285D-02 -4.0257392203933D-02
   249  2.4800000000000D+00 -8.5423501403471D-02 -3.6855491196197D-02
   250  2.4900000000000D+00 -9.3923564205846D-02 -3.3565537948072D-02
   251  2.5000000000000D+00 -1.0178592249858D-01 -3.0389781417587D-02
   252  2.5100000000000D+00 -1.0901882127048D-01 -2.7330130423185D-02
   253  2.5200000000000D+00 -1.1563162904049D-01 -2.4388159490045D-02
   254  2.5300000000000D+00 -1.2163479451242D-01 -2.1565115132178D-02
   255  2.5400000000000D+00 -1.2703980220443D-01 -1.8861922569085D-02
   256  2.5500000000000D+00 -1.3185912730133D-01 -1.6279192863930D-02
   257  2.5600000000000D+00 -1.3610618981380D-01 -1.3817230414419D-02
   258  2.5700000000000D+00 -1.3979530819754D-01 -1.1476040780983D-02
   259  2.5800000000000D+00 -1.4294165286887D-01 -9.2553388052052D-03
   260  2.5900000000000D+00 -1.4556119945022D-01 -7.1545569960909D-03
   261  2.6000000000000D+00 -1.4767068189425D-01 -5.1728541634880D-03
   262  2.6100000000000D+00 -1.4928754620893D-01 -3.3091242027711D-03
   263  2.6200000000000D+00 -1.5042990432464D-01 -1.5620050620208D-03
   264  2.6300000000000D+00 -1.5111648813179D-01  7.0112114671841D-05
   265  2.6400000000000D+00 -1.5136660488418D-01  1.5890738446011D-03
   266  2.6500000000000D+00 -1.5120009929411D-01  2.9969559674825D-03
   267  2.6600000000000D+00 -1.5063728674085D-01  4.2960508976479D-03
   268  2.6700000000000D+00 -1.4969893617683D-01  5.4888620034395D-03
   269  2.6800000000000D+00 -1.4840627030201D-01  6.5781005249358D-03
   270  2.6900000000000D+00 -1.4678077686809D-01  7.5666539570602D-03
   271  2.7000000000000D+00 -1.4484429592519D-01  8.4575957740837D-03
   272  2.7100000000000D+00 -1.4261892208701D-01  9.2541677854903D-03
   273  2.7200000000000D+00 -1.4012719595869D-01  9.9598037202570D-03
   274  2.7300000000000D+00 -1.3739194055036D-01  1.0578101593600D-02
   275  2.7400000000000D+00 -1.3443594600249D-01  1.1112773557537D-02
   276  2.7500000000000D+00 -1.3128186029869D-01  1.1567626117072D-02
   277  2.7600000000000D+00 -1.2795200579794D-01  1.1946530072243D-02
   278  2.7700000000000D+00 -1.2446822746731D-01  1.2253390025081D-02
   279  2.7800000000000D+00 -1.2085184980281D-01  1.2492133076794D-02
   280  2.7900000000000D+00 -1.1712304948573D-01  1.2666610545931D-02
   281  2.8000000000000D+00 -1.1330131490843D-01  1.2780659286503D-02
   282  2.8100000000000D+00 -1.0940524304840D-01  1.2838065904181D-02
   283  2.8200000000000D+00 -1.0545269143055D-01  1.2842581334044D-02
   284  2.8300000000000D+00 -1.0146066811174D-01  1.2797899360244D-02
   285  2.8400000000000D+00 -9.7445287017563D-02  1.2707644277641D-02
   286  2.8500000000000D+00 -9.3421784557312D-02  1.2575367161467D-02
   287  2.8600000000000D+00 -8.9404522530856D-02  1.2404540380443D-02
   288  2.8700000000000D+00 -8.5406966133803D-02  1.2198548744916D-02
   289  2.8800000000000D+00 -8.1441687558717D-02  1.1960684397947D-02
   290  2.8900000000000D+00 -7.7520365856837D-02  1.1694141233787D-02
   291  2.9000000000000D+00 -7.3653791911839D-02  1.1402010316785D-02
   292  2.9100000000000D+00 -6.9851875196107D-02  1.1087275631855D-02
   293  2.9200000000000D+00 -6.6123652925264D-02  1.0752810296356D-02
   294  2.9300000000000D+00 -6.2477302365611D-02  1.0401373402252D-02
   295  2.9400000000000D+00 -5.8920156213868D-02  1.0035607481050D-02
   296  2.9500000000000D+00 -5.5458720172506D-02  9.6580364158850D-03
   297  2.9600000000000D+00 -5.2098691658546D-02  9.2710635921295D-03
   298  2.9700000000000D+00 -4.8844983085134D-02  8.8769710067773D-03
   299  2.9800000000000D+00 -4.5701745885650D-02  8.4779185597778D-03
   300  2.9900000000000D+00 -4.2672396771934D-02  8.0759438139052D-03
   301  3.0000000000000D+00 -3.9759645902046D-02  7.6729622067307D-03
   302  3.0100000000000D+00 -3.6965526837015D-02  7.2707677039658D-03
   303  3.0200000000000D+00 -3.4291428473533D-02  6.8710338819524D-03
   304  3.0300000000000D+00 -3.1738126388537D-02  6.4753150014565D-03
   305  3.0400000000000D+00 -2.9305818697419D-02  6.0850480222886D-03
   306  3.0500000000000D+00 -2.6994161188401D-02  5.7015545944629D-03
   307  3.0600000000000D+00 -2.4802303990789D-02  5.3260434264526D-03
   308  3.0700000000000D+00 -2.2728929478811D-02  4.9596129763021D-03
   309  3.0800000000000D+00 -2.0772289183023D-02  4.6032541689466D-03
   310  3.0900000000000D+00 -1.8930242649119D-02  4.2578535298261D-03
   311  3.1000000000000D+00 -1.7200295490625D-02  3.9241963087834D-03
   312  3.1100000000000D+00 -1.5579638661212D-02  3.6029699644205D-03
   313  3.1200000000000D+00 -1.4065187699087D-02  3.2947677765613D-03
   314  3.1300000000000D+00 -1.2653621133993D-02  3.0000924553944D-03
   315  3.1400000000000D+00 -1.1341420441722D-02  2.7193601046653D-03
   316  3.1500000000000D+00 -1.0124906867592D-02  2.4529038635846D-03
   317  3.1600000000000D+00 -9.0002791377414D-03  2.2009777955461D-03
   318  3.1700000000000D+00 -7.9636502176954D-03  1.9637607584759D-03
   319  3.1800000000000D+00 -7.0110837715219D-03  1.7413603488594D-03
   320  3.1900000000000D+00 -6.1386282092655D-03  1.5338166051141D-03
   321  3.2000000000000D+00 -5.3423503415416D-03  1.3411057620061D-03
   322  3.2100000000000D+00 -4.6183682258971D-03  1.1631440032255D-03
   323  3.2200000000000D+00 -3.9628824353915D-03  9.9979108489645D-04
   324  3.2300000000000D+00 -3.3722045412513D-03  8.5085363549876D-04
   325  3.2400000000000D+00 -2.8432655121978D-03  7.1618942959014D-04
   326  3.2500000000000D+00 -2.3723114563778D-03  5.9543103881879D-04
   327  3.2600000000000D+00 -1.9554357587241D-03  4.8809552268937D-04
   328  3.2700000000000D+00 -1.5895404787318D-03  3.9378452060264D-04
   329  3.2800000000000D+00 -1.2689175057499D-03  3.1140859405581D-04
   330  3.2900000000000D+00 -9.9500417963048D-04  2.4140537620502D-04
   331  3.3000000000000D+00 -7.6966250624495D-04  1.8421060010873D-04
   332  3.3100000000000D+00 -5.9218911192893D-04  1.3958125200010D-04
   333  3.3200000000000D+00 -4.6813408613074D-04  1.0869951796588D-04
   334  3.3300000000000D+00 -3.8201687334159D-04  8.7690307776907D-05
   335  3.3400000000000D+00 -3.1828788953851D-04  7.2636583828128D-05
   336  3.3500000000000D+00 -2.6439391494226D-04  6.0329683007681D-05
   337  3.3600000000000D+00 -1.9846240731430D-04  4.5327560975580D-05
   338  3.3700000000000D+00 -1.2881652012059D-04  2.9469371546255D-05
   339  3.3800000000000D+00 -6.3753429514242D-05  1.4618417299541D-05
   340  3.3900000000000D+00 -1.0012844722031D-05  2.3017056594382D-06
   341  3.4000000000000D+00  1.6159322015780D-05 -3.6755917457499D-06
   342  3.4100000000000D+00  2.2307892440194D-05 -5.0743752073512D-06
   343  3.4200000000000D+00  1.6216495091353D-05 -3.6892373539737D-06
   344  3.4300000000000D+00  3.9410676419358D-06 -8.9674872259693D-07
   345  3.4400000000000D+00 -3.1154409928134D-06  7.0538251414449D-07
   346  3.4500000000000D+00 -5.1527682028952D-06  1.1662477796201D-06
   347  3.4600000000000D+00 -4.3059605127664D-06  9.7428014923707D-07
   348  3.4700000000000D+00 -1.4523124188355D-06  3.2851321037560D-07
   349  3.4800000000000D+00  3.4567978807420D-07 -7.8920485965512D-08
   350  3.4900000000000D+00  6.8855485074633D-07 -1.5720063859547D-07
   351  3.5000000000000D+00  6.4862537001425D-07 -1.4808453134117D-07
   352  3.5100000000000D+00  2.9048247008327D-07 -6.6318652389686D-08
   353  3.5200000000000D+00  0.0000000000000D+00  0.0000000000000D+00
   354  3.5300000000000D+00  0.0000000000000D+00  0.0000000000000D+00
   355  3.5400000000000D+00  0.0000000000000D+00  0.0000000000000D+00
   356  3.5500000000000D+00  0.0000000000000D+00  0.0000000000000D+00
   357  3.5600000000000D+00  0.0000000000000D+00  0.0000000000000D+00
   358  3.5700000000000D+00  0.0000000000000D+00  0.0000000000000D+00
   359  3.5800000000000D+00  0.0000000000000D+00  0.0000000000000D+00
   360  3.5900000000000D+00  0.0000000000000D+00  0.0000000000000D+00
   361  3.6000000000000D+00  0.0000000000000D+00  0.0000000000000D+00
   362  3.6100000000000D+00  0.0000000000000D+00  0.0000000000000D+00
   363  3.6200000000000D+00  0.0000000000000D+00  0.0000000000000D+00
   364  3.6300000000000D+00  0.0000000000000D+00  0.0000000000000D+00
   365  3.6400000000000D+00  0.0000000000000D+00  0.0000000000000D+00
   366  3.6500000000000D+00  0.0000000000000D+00  0.0000000000000D+00
   367  3.6600000000000D+00  0.0000000000000D+00  0.0000000000000D+00
   368  3.6700000000000D+00  0.0000000000000D+00  0.0000000000000D+00
   369  3.6800000000000D+00  0.0000000000000D+00  0.0000000000000D+00
   370  3.6900000000000D+00  0.0000000000000D+00  0.0000000000000D+00
   371  3.7000000000000D+00  0.0000000000000D+00  0.0000000000000D+00
   372  3.7100000000000D+00  0.0000000000000D+00  0.0000000000000D+00
   373  3.7200000000000D+00  0.0000000000000D+00  0.0000000000000D+00
   374  3.7300000000000D+00  0.0000000000000D+00  0.0000000000000D+00
   375  3.7400000000000D+00  0.0000000000000D+00  0.0000000000000D+00
   376  3.7500000000000D+00  0.0000000000000D+00  0.0000000000000D+00
   377  3.7600000000000D+00  0.0000000000000D+00  0.0000000000000D+00
   378  3.7700000000000D+00  0.0000000000000D+00  0.0000000000000D+00
   379  3.7800000000000D+00  0.0000000000000D+00  0.0000000000000D+00
   380  3.7900000000000D+00  0.0000000000000D+00  0.0000000000000D+00
   381  3.8000000000000D+00  0.0000000000000D+00  0.0000000000000D+00
   382  3.8100000000000D+00  0.0000000000000D+00  0.0000000000000D+00
   383  3.8200000000000D+00  0.0000000000000D+00  0.0000000000000D+00
   384  3.8300000000000D+00  0.0000000000000D+00  0.0000000000000D+00
   385  3.8400000000000D+00  0.0000000000000D+00  0.0000000000000D+00
   386  3.8500000000000D+00  0.0000000000000D+00  0.0000000000000D+00
   387  3.8600000000000D+00  0.0000000000000D+00  0.0000000000000D+00
   388  3.8700000000000D+00  0.0000000000000D+00  0.0000000000000D+00
   389  3.8800000000000D+00  0.0000000000000D+00  0.0000000000000D+00
   390  3.8900000000000D+00  0.0000000000000D+00  0.0000000000000D+00
   391  3.9000000000000D+00  0.0000000000000D+00  0.0000000000000D+00
   392  3.9100000000000D+00  0.0000000000000D+00  0.0000000000000D+00
   393  3.9200000000000D+00  0.0000000000000D+00  0.0000000000000D+00
   394  3.9300000000000D+00  0.0000000000000D+00  0.0000000000000D+00
   395  3.9400000000000D+00  0.0000000000000D+00  0.0000000000000D+00
   396  3.9500000000000D+00  0.0000000000000D+00  0.0000000000000D+00
   397  3.9600000000000D+00  0.0000000000000D+00  0.0000000000000D+00
   398  3.9700000000000D+00  0.0000000000000D+00  0.0000000000000D+00
   399  3.9800000000000D+00  0.0000000000000D+00  0.0000000000000D+00
   400  3.9900000000000D+00  0.0000000000000D+00  0.0000000000000D+00
   401  4.0000000000000D+00  0.0000000000000D+00  0.0000000000000D+00
   402  4.0100000000000D+00  0.0000000000000D+00  0.0000000000000D+00
   403  4.0200000000000D+00  0.0000000000000D+00  0.0000000000000D+00
   404  4.0300000000000D+00  0.0000000000000D+00  0.0000000000000D+00
   405  4.0400000000000D+00  0.0000000000000D+00  0.0000000000000D+00
   406  4.0500000000000D+00  0.0000000000000D+00  0.0000000000000D+00
   407  4.0600000000000D+00  0.0000000000000D+00  0.0000000000000D+00
   408  4.0700000000000D+00  0.0000000000000D+00  0.0000000000000D+00
   409  4.0800000000000D+00  0.0000000000000D+00  0.0000000000000D+00
   410  4.0900000000000D+00  0.0000000000000D+00  0.0000000000000D+00
   411  4.1000000000000D+00  0.0000000000000D+00  0.0000000000000D+00
   412  4.1100000000000D+00  0.0000000000000D+00  0.0000000000000D+00
   413  4.1200000000000D+00  0.0000000000000D+00  0.0000000000000D+00
   414  4.1300000000000D+00  0.0000000000000D+00  0.0000000000000D+00
   415  4.1400000000000D+00  0.0000000000000D+00  0.0000000000000D+00
   416  4.1500000000000D+00  0.0000000000000D+00  0.0000000000000D+00
   417  4.1600000000000D+00  0.0000000000000D+00  0.0000000000000D+00
   418  4.1700000000000D+00  0.0000000000000D+00  0.0000000000000D+00
   419  4.1800000000000D+00  0.0000000000000D+00  0.0000000000000D+00
   420  4.1900000000000D+00  0.0000000000000D+00  0.0000000000000D+00
   421  4.2000000000000D+00  0.0000000000000D+00  0.0000000000000D+00
   422  4.2100000000000D+00  0.0000000000000D+00  0.0000000000000D+00