W     ONCVPSP-3.3.1  r_core=   2.17082   2.22323   1.90387   3.06802
     74.0000     28.0000      210904    zatom,zion,pspd
     8      11   3     4   600     0    pspcod,pspxc,lmax,lloc,mmax,r2well
  5.99000000  0.00000000  0.00000000    rchrg fchrg qchrg
     2     4     4     3    nproj
     3     1           extension_switch
     4     4     3    nprojso
   0                         9.0785549510413D-01  7.6804238078447D+00
     1  0.0000000000000D+00 -2.0258836275211D-11  9.5684571377319D-12
     2  1.0000000000000D-02 -1.5922884082092D-02  6.0555619316066D-02
     3  2.0000000000000D-02 -3.1773612749033D-02  1.2101268207780D-01
     4  3.0000000000000D-02 -4.7480161866165D-02  1.8127278983135D-01
     5  4.0000000000000D-02 -6.2970770109617D-02  2.4123786031159D-01
     6  5.0000000000000D-02 -7.8174070991009D-02  3.0081028550348D-01
     7  6.0000000000000D-02 -9.3019225610897D-02  3.5989308965692D-01
     8  7.0000000000000D-02 -1.0743605635992D-01  4.1839008722837D-01
     9  8.0000000000000D-02 -1.2135518176632D-01  4.7620604071286D-01
    10  9.0000000000000D-02 -1.3470815266369D-01  5.3324681831814D-01
    11  1.0000000000000D-01 -1.4742758982310D-01  5.8941955141910D-01
    12  1.1000000000000D-01 -1.5944732316026D-01  6.4463279171442D-01
    13  1.2000000000000D-01 -1.7070253259068D-01  6.9879666798993D-01
    14  1.3000000000000D-01 -1.8112989056463D-01  7.5182304237384D-01
    15  1.4000000000000D-01 -1.9066770626910D-01  8.0362566594796D-01
    16  1.5000000000000D-01 -1.9925607143706D-01  8.5412033355743D-01
    17  1.6000000000000D-01 -2.0683700765449D-01  9.0322503763792D-01
    18  1.7000000000000D-01 -2.1335461500416D-01  9.5086012085570D-01
    19  1.8000000000000D-01 -2.1875522183246D-01  9.9694842733141D-01
    20  1.9000000000000D-01 -2.2298753537134D-01  1.0414154521936D+00
    21  2.0000000000000D-01 -2.2600279289366D-01  1.0841894891833D+00
    22  2.1000000000000D-01 -2.2775491302538D-01  1.1252017760061D+00
    23  2.2000000000000D-01 -2.2820064678547D-01  1.1643866371048D+00
    24  2.3000000000000D-01 -2.2729972787090D-01  1.2016816235005D+00
    25  2.4000000000000D-01 -2.2501502165442D-01  1.2370276493304D+00
    26  2.5000000000000D-01 -2.2131267231375D-01  1.2703691246865D+00
    27  2.6000000000000D-01 -2.1616224746518D-01  1.3016540843417D+00
    28  2.7000000000000D-01 -2.0953687963216D-01  1.3308343119311D+00
    29  2.8000000000000D-01 -2.0141340384051D-01  1.3578654591413D+00
    30  2.9000000000000D-01 -1.9177249059704D-01  1.3827071594447D+00
    31  3.0000000000000D-01 -1.8059877347843D-01  1.4053231359084D+00
    32  3.1000000000000D-01 -1.6788097053187D-01  1.4256813025948D+00
    33  3.2000000000000D-01 -1.5361199866916D-01  1.4437538590672D+00
    34  3.3000000000000D-01 -1.3778908022156D-01  1.4595173775123D+00
    35  3.4000000000000D-01 -1.2041384081461D-01  1.4729528819885D+00
    36  3.5000000000000D-01 -1.0149239771999D-01  1.4840459193163D+00
    37  3.6000000000000D-01 -8.1035437845448D-02  1.4927866211308D+00
    38  3.7000000000000D-01 -5.9058284535110D-02  1.4991697566302D+00
    39  3.8000000000000D-01 -3.5580952369422D-02  1.5031947755649D+00
    40  3.9000000000000D-01 -1.0628189178559D-02  1.5048658410317D+00
    41  4.0000000000000D-01  1.5770495486434D-02  1.5041918516569D+00
    42  4.1000000000000D-01  4.3580816142620D-02  1.5011864527787D+00
    43  4.2000000000000D-01  7.2763712098343D-02  1.4958680362648D+00
    44  4.3000000000000D-01  1.0327536373400D-01  1.4882597286339D+00
    45  4.4000000000000D-01  1.3506722490708D-01  1.4783893671851D+00
    46  4.5000000000000D-01  1.6808607198547D-01  1.4662894638746D+00
    47  4.6000000000000D-01  2.0227406994467D-01  1.4519971567224D+00
    48  4.7000000000000D-01  2.3756885589048D-01  1.4355541485735D+00
    49  4.8000000000000D-01  2.7390364029055D-01  1.4170066330854D+00
    50  4.9000000000000D-01  3.1120732611409D-01  1.3964052078617D+00
    51  5.0000000000000D-01  3.4940464599250D-01  1.3738047747019D+00
    52  5.1000000000000D-01  3.8841631742212D-01  1.3492644269922D+00
    53  5.2000000000000D-01  4.2815921593648D-01  1.3228473243132D+00
    54  5.3000000000000D-01  4.6854656607929D-01  1.2946205543991D+00
    55  5.4000000000000D-01  5.0948814991037D-01  1.2646549826375D+00
    56  5.5000000000000D-01  5.5089053267791D-01  1.2330250893573D+00
    57  5.6000000000000D-01  5.9265730518959D-01  1.1998087952096D+00
    58  5.7000000000000D-01  6.3468934231526D-01  1.1650872750034D+00
    59  5.8000000000000D-01  6.7688507695422D-01  1.1289447604175D+00
    60  5.9000000000000D-01  7.1914078870190D-01  1.0914683320640D+00
    61  6.0000000000000D-01  7.6135090635472D-01  1.0527477014354D+00
    62  6.1000000000000D-01  8.0340832329839D-01  1.0128749833244D+00
    63  6.2000000000000D-01  8.4520472473466D-01  9.7194445935181D-01
    64  6.3000000000000D-01  8.8663092561550D-01  9.3005233329635D-01
    65  6.4000000000000D-01  9.2757721807206D-01  8.8729647896105D-01
    66  6.5000000000000D-01  9.6793372704924D-01  8.4377618136160D-01
    67  6.6000000000000D-01  1.0075907727864D+00  7.9959187206153D-01
    68  6.7000000000000D-01  1.0464392387205D+00  7.5484485951925D-01
    69  6.8000000000000D-01  1.0843709433291D+00  7.0963705534719D-01
    70  6.9000000000000D-01  1.1212790143840D+00  6.6407069741502D-01
    71  7.0000000000000D-01  1.1570582640394D+00  6.1824807075613D-01
    72  7.1000000000000D-01  1.1916055631468D+00  5.7227122726016D-01
    73  7.2000000000000D-01  1.2248202131645D+00  5.2624170515249D-01
    74  7.3000000000000D-01  1.2566043140072D+00  4.8026024927608D-01
    75  7.4000000000000D-01  1.2868631261800D+00  4.3442653319972D-01
    76  7.5000000000000D-01  1.3155054255356D+00  3.8883888418128D-01
    77  7.6000000000000D-01  1.3424438490087D+00  3.4359401201343D-01
    78  7.7000000000000D-01  1.3675952296982D+00  2.9878674277358D-01
    79  7.8000000000000D-01  1.3908809196984D+00  2.5450975848852D-01
    80  7.9000000000000D-01  1.4122270991176D+00  2.1085334370825D-01
    81  8.0000000000000D-01  1.4315650697703D+00  1.6790513996218D-01
    82  8.1000000000000D-01  1.4488315320862D+00  1.2574990904457D-01
    83  8.2000000000000D-01  1.4639688438419D+00  8.4469306045045D-02
    84  8.3000000000000D-01  1.4769252593986D+00  4.4141663003969D-02
    85  8.4000000000000D-01  1.4876551482061D+00  4.8417840320057D-03
    86  8.5000000000000D-01  1.4961191914264D+00 -3.3359247311956D-02
    87  8.6000000000000D-01  1.5022845556250D+00 -7.0394247639460D-02
    88  8.7000000000000D-01  1.5061250425795D+00 -1.0620009965584D-01
    89  8.8000000000000D-01  1.5076212143693D+00 -1.4071790375354D-01
    90  8.9000000000000D-01  1.5067604930181D+00 -1.7389311470072D-01
    91  9.0000000000000D-01  1.5035372340872D+00 -2.0567566291433D-01
    92  9.1000000000000D-01  1.4979527737364D+00 -2.3602005987262D-01
    93  9.2000000000000D-01  1.4900154489001D+00 -2.6488548729121D-01
    94  9.3000000000000D-01  1.4797405903537D+00 -2.9223586975736D-01
    95  9.4000000000000D-01  1.4671504885803D+00 -3.1803993058959D-01
    96  9.5000000000000D-01  1.4522743324781D+00 -3.4227123076350D-01
    97  9.6000000000000D-01  1.4351481210845D+00 -3.6490819081905D-01
    98  9.7000000000000D-01  1.4158145486257D+00 -3.8593409574028D-01
    99  9.8000000000000D-01  1.3943228633337D+00 -4.0533708287299D-01
   100  9.9000000000000D-01  1.3707287006008D+00 -4.2311011302088D-01
   101  1.0000000000000D+00  1.3450938911709D+00 -4.3925092493488D-01
   102  1.0100000000000D+00  1.3174862451901D+00 -4.5376197348280D-01
   103  1.0200000000000D+00  1.2879793130605D+00 -4.6665035185936D-01
   104  1.0300000000000D+00  1.2566521241492D+00 -4.7792769826214D-01
   105  1.0400000000000D+00  1.2235889045232D+00 -4.8761008753055D-01
   106  1.0500000000000D+00  1.1888787749750D+00 -4.9571790830623D-01
   107  1.0600000000000D+00  1.1526154307010D+00 -5.0227572633493D-01
   108  1.0700000000000D+00  1.1148968040868D+00 -5.0731213458852D-01
   109  1.0800000000000D+00  1.0758247121248D+00 -5.1085959093818D-01
   110  1.0900000000000D+00  1.0355044900645D+00 -5.1295424415968D-01
   111  1.1000000000000D+00  9.9404461296006D-01 -5.1363574909962D-01
   112  1.1100000000000D+00  9.5155630682502D-01 -5.1294707186941D-01
   113  1.1200000000000D+00  9.0815315115084D-01 -5.1093428597296D-01
   114  1.1300000000000D+00  8.6395067457252D-01 -5.0764636029967D-01
   115  1.1400000000000D+00  8.1906594549229D-01 -5.0313493994824D-01
   116  1.1500000000000D+00  7.7361715947837D-01 -4.9745412086151D-01
   117  1.1600000000000D+00  7.2772322525277D-01 -4.9066021927007D-01
   118  1.1700000000000D+00  6.8150335108108D-01 -4.8281153695128D-01
   119  1.1800000000000D+00  6.3507663334733D-01 -4.7396812331754D-01
   120  1.1900000000000D+00  5.8856164906611D-01 -4.6419153534312D-01
   121  1.2000000000000D+00  5.4207605404174D-01 -4.5354459633283D-01
   122  1.2100000000000D+00  4.9573618834465D-01 -4.4209115452909D-01
   123  1.2200000000000D+00  4.4965669069507D-01 -4.2989584253109D-01
   124  1.2300000000000D+00  4.0395012326306D-01 -4.1702383847186D-01
   125  1.2400000000000D+00  3.5872660837293D-01 -4.0354062989497D-01
   126  1.2500000000000D+00  3.1409347843815D-01 -3.8951178121411D-01
   127  1.2600000000000D+00  2.7015494037360D-01 -3.7500270560568D-01
   128  1.2700000000000D+00  2.2701175569282D-01 -3.6007844217141D-01
   129  1.2800000000000D+00  1.8476093730676D-01 -3.4480343913109D-01
   130  1.2900000000000D+00  1.4349546392204D-01 -3.2924134375226D-01
   131  1.3000000000000D+00  1.0330401292741D-01 -3.1345479972207D-01
   132  1.3100000000000D+00  6.4270712404791D-02 -2.9750525255689D-01
   133  1.3200000000000D+00  2.6474912769116D-02 -2.8145276358169D-01
   134  1.3300000000000D+00 -1.0009021404868D-02 -2.6535583303943D-01
   135  1.3400000000000D+00 -4.5111899203344D-02 -2.4927123270825D-01
   136  1.3500000000000D+00 -7.8769870677261D-02 -2.3325384839942D-01
   137  1.3600000000000D+00 -1.1092457349344D-01 -2.1735653270023D-01
   138  1.3700000000000D+00 -1.4152325922256D-01 -2.0162996811573D-01
   139  1.3800000000000D+00 -1.7051889939073D-01 -1.8612254084150D-01
   140  1.3900000000000D+00 -1.9787027167364D-01 -1.7088022527850D-01
   141  1.4000000000000D+00 -2.2354202689383D-01 -1.5594647924791D-01
   142  1.4100000000000D+00 -2.4750473720351D-01 -1.4136215001530D-01
   143  1.4200000000000D+00 -2.6973492644801D-01 -1.2716539090606D-01
   144  1.4300000000000D+00 -2.9021508344819D-01 -1.1339158842641D-01
   145  1.4400000000000D+00 -3.0893365914356D-01 -1.0007329970337D-01
   146  1.4500000000000D+00 -3.2588504885501D-01 -8.7240199859923D-02
   147  1.4600000000000D+00 -3.4106956055675D-01 -7.4919039171306D-02
   148  1.4700000000000D+00 -3.5449337069566D-01 -6.3133609449466D-02
   149  1.4800000000000D+00 -3.6616846867992D-01 -5.1904719355546D-02
   150  1.4900000000000D+00 -3.7611259153740D-01 -4.1250178111882D-02
   151  1.5000000000000D+00 -3.8434915019435D-01 -3.1184787083319D-02
   152  1.5100000000000D+00 -3.9090714881554D-01 -2.1720338751051D-02
   153  1.5200000000000D+00 -3.9582109885005D-01 -1.2865622373026D-02
   154  1.5300000000000D+00 -3.9913092924761D-01 -4.6264358553095D-03
   155  1.5400000000000D+00 -4.0088189451872D-01  2.9943969384993D-03
   156  1.5500000000000D+00 -4.0112448218013D-01  9.9970039955606D-03
   157  1.5600000000000D+00 -3.9991432121090D-01  1.6384438828598D-02
   158  1.5700000000000D+00 -3.9731209305697D-01  2.2162650654637D-02
   159  1.5800000000000D+00 -3.9338344681154D-01  2.7340451808353D-02
   160  1.5900000000000D+00 -3.8819891994924D-01  3.1929483043770D-02
   161  1.6000000000000D+00 -3.8183387748884D-01  3.5944180893085D-02
   162  1.6100000000000D+00 -3.7436839494991D-01  3.9401724482186D-02
   163  1.6200000000000D+00 -3.6588737828980D-01  4.2322052258544D-02
   164  1.6300000000000D+00 -3.5648006877372D-01  4.4727685173456D-02
   165  1.6400000000000D+00 -3.4624041613358D-01  4.6643818948332D-02
   166  1.6500000000000D+00 -3.3526809364399D-01  4.8098603399444D-02
   167  1.6600000000000D+00 -3.2366535651609D-01  4.9122150748126D-02
   168  1.6700000000000D+00 -3.1153462616170D-01  4.9745767011543D-02
   169  1.6800000000000D+00 -2.9897617590128D-01  5.0001171850294D-02
   170  1.6900000000000D+00 -2.8608471981055D-01  4.9919385246232D-02
   171  1.7000000000000D+00 -2.7295017204563D-01  4.9530885628307D-02
   172  1.7100000000000D+00 -2.5965805580197D-01  4.8865651773468D-02
   173  1.7200000000000D+00 -2.4628878921300D-01  4.7952874209482D-02
   174  1.7300000000000D+00 -2.3291780415738D-01  4.6820916740074D-02
   175  1.7400000000000D+00 -2.1961538962387D-01  4.5497197057148D-02
   176  1.7500000000000D+00 -2.0644664443499D-01  4.4008102112409D-02
   177  1.7600000000000D+00 -1.9347144261372D-01  4.2378909536610D-02
   178  1.7700000000000D+00 -1.8074442230544D-01  4.0633718217856D-02
   179  1.7800000000000D+00 -1.6831500035781D-01  3.8795389152035D-02
   180  1.7900000000000D+00 -1.5622740987357D-01  3.6885495560081D-02
   181  1.8000000000000D+00 -1.4452076199537D-01  3.4924283046032D-02
   182  1.8100000000000D+00 -1.3322912958596D-01  3.2930638931331D-02
   183  1.8200000000000D+00 -1.2238165313102D-01  3.0922071129432D-02
   184  1.8300000000000D+00 -1.1200266712542D-01  2.8914695958557D-02
   185  1.8400000000000D+00 -1.0211184615561D-01  2.6923234748183D-02
   186  1.8500000000000D+00 -9.2724369700112D-02  2.4961018991158D-02
   187  1.8600000000000D+00 -8.3851103715923D-02  2.3040003347543D-02
   188  1.8700000000000D+00 -7.5498798782619D-02  2.1170786628566D-02
   189  1.8800000000000D+00 -6.7670301919520D-02  1.9362639570536D-02
   190  1.8900000000000D+00 -6.0364782258856D-02  1.7623539777533D-02
   191  1.9000000000000D+00 -5.3577967416747D-02  1.5960212441589D-02
   192  1.9100000000000D+00 -4.7302390316890D-02  1.4378177063978D-02
   193  1.9200000000000D+00 -4.1527643948863D-02  1.2881799057633D-02
   194  1.9300000000000D+00 -3.6240642824348D-02  1.1474345955492D-02
   195  1.9400000000000D+00 -3.1425889409475D-02  1.0158047542840D-02
   196  1.9500000000000D+00 -2.7065743748668D-02  8.9341592428875D-03
   197  1.9600000000000D+00 -2.3140694555134D-02  7.8030282382801D-03
   198  1.9700000000000D+00 -1.9629630560559D-02  6.7641616929948D-03
   199  1.9800000000000D+00 -1.6510109439233D-02  5.8162963111231D-03
   200  1.9900000000000D+00 -1.3758624109098D-02  4.9574689253497D-03
   201  2.0000000000000D+00 -1.1350863360411D-02  4.1850871342572D-03
   202  2.0100000000000D+00 -9.2619662395739D-03  3.4959996808854D-03
   203  2.0200000000000D+00 -7.4667687325785D-03  2.8865660037170D-03
   204  2.0300000000000D+00 -5.9400398302285D-03  2.3527239268145D-03
   205  2.0400000000000D+00 -4.6567086786832D-03  1.8900559786086D-03
   206  2.0500000000000D+00 -3.5920773987787D-03  1.4938524173874D-03
   207  2.0600000000000D+00 -2.7220223637474D-03  1.1591718761505D-03
   208  2.0700000000000D+00 -2.0231804468445D-03  8.8089833836372D-04
   209  2.0800000000000D+00 -1.4731188651423D-03  6.5379390077458D-04
   210  2.0900000000000D+00 -1.0504913501520D-03  4.7254827611493D-04
   211  2.1000000000000D+00 -7.3532517831021D-04  3.3185604662002D-04
   212  2.1100000000000D+00 -5.0863234752936D-04  2.2634348568222D-04
   213  2.1200000000000D+00 -3.5268495845654D-04  1.5063538509701D-04
   214  2.1300000000000D+00 -2.5019013933221D-04  9.9072729325157D-05
   215  2.1400000000000D+00 -1.9172675563018D-04  6.7914569507966D-05
   216  2.1500000000000D+00 -1.6905998925854D-04  5.3492677273577D-05
   217  2.1600000000000D+00 -1.6331061020703D-04  4.8551765053098D-05
   218  2.1700000000000D+00 -1.4759929765873D-04  4.3227321495549D-05
   219  2.1800000000000D+00 -9.6869918728730D-05  2.8317973562534D-05
   220  2.1900000000000D+00 -3.5503427938270D-05  1.0409134264374D-05
   221  2.2000000000000D+00  7.6502291627494D-06 -2.2145919797482D-06
   222  2.2100000000000D+00  1.4870737494016D-05 -4.3030825285715D-06
   223  2.2200000000000D+00  4.5816479297071D-06 -1.3258520070943D-06
   224  2.2300000000000D+00 -2.7026564209282D-06  7.7597820465624D-07
   225  2.2400000000000D+00 -2.9568898617051D-06  8.4807738064593D-07
   226  2.2500000000000D+00  5.4089352436156D-09 -1.5841010757770D-09
   227  2.2600000000000D+00  3.9278215443896D-07 -1.1503310824939D-07
   228  2.2700000000000D+00  2.8216496410529D-07 -8.2636933713222D-08
   229  2.2800000000000D+00  0.0000000000000D+00  0.0000000000000D+00
   230  2.2900000000000D+00  0.0000000000000D+00  0.0000000000000D+00
   231  2.3000000000000D+00  0.0000000000000D+00  0.0000000000000D+00
   232  2.3100000000000D+00  0.0000000000000D+00  0.0000000000000D+00
   233  2.3200000000000D+00  0.0000000000000D+00  0.0000000000000D+00
   234  2.3300000000000D+00  0.0000000000000D+00  0.0000000000000D+00
   235  2.3400000000000D+00  0.0000000000000D+00  0.0000000000000D+00
   236  2.3500000000000D+00  0.0000000000000D+00  0.0000000000000D+00
   237  2.3600000000000D+00  0.0000000000000D+00  0.0000000000000D+00
   238  2.3700000000000D+00  0.0000000000000D+00  0.0000000000000D+00
   239  2.3800000000000D+00  0.0000000000000D+00  0.0000000000000D+00
   240  2.3900000000000D+00  0.0000000000000D+00  0.0000000000000D+00
   241  2.4000000000000D+00  0.0000000000000D+00  0.0000000000000D+00
   242  2.4100000000000D+00  0.0000000000000D+00  0.0000000000000D+00
   243  2.4200000000000D+00  0.0000000000000D+00  0.0000000000000D+00
   244  2.4300000000000D+00  0.0000000000000D+00  0.0000000000000D+00
   245  2.4400000000000D+00  0.0000000000000D+00  0.0000000000000D+00
   246  2.4500000000000D+00  0.0000000000000D+00  0.0000000000000D+00
   247  2.4600000000000D+00  0.0000000000000D+00  0.0000000000000D+00
   248  2.4700000000000D+00  0.0000000000000D+00  0.0000000000000D+00
   249  2.4800000000000D+00  0.0000000000000D+00  0.0000000000000D+00
   250  2.4900000000000D+00  0.0000000000000D+00  0.0000000000000D+00
   251  2.5000000000000D+00  0.0000000000000D+00  0.0000000000000D+00
   252  2.5100000000000D+00  0.0000000000000D+00  0.0000000000000D+00
   253  2.5200000000000D+00  0.0000000000000D+00  0.0000000000000D+00
   254  2.5300000000000D+00  0.0000000000000D+00  0.0000000000000D+00
   255  2.5400000000000D+00  0.0000000000000D+00  0.0000000000000D+00
   256  2.5500000000000D+00  0.0000000000000D+00  0.0000000000000D+00
   257  2.5600000000000D+00  0.0000000000000D+00  0.0000000000000D+00
   258  2.5700000000000D+00  0.0000000000000D+00  0.0000000000000D+00
   259  2.5800000000000D+00  0.0000000000000D+00  0.0000000000000D+00
   260  2.5900000000000D+00  0.0000000000000D+00  0.0000000000000D+00
   261  2.6000000000000D+00  0.0000000000000D+00  0.0000000000000D+00
   262  2.6100000000000D+00  0.0000000000000D+00  0.0000000000000D+00
   263  2.6200000000000D+00  0.0000000000000D+00  0.0000000000000D+00
   264  2.6300000000000D+00  0.0000000000000D+00  0.0000000000000D+00
   265  2.6400000000000D+00  0.0000000000000D+00  0.0000000000000D+00
   266  2.6500000000000D+00  0.0000000000000D+00  0.0000000000000D+00
   267  2.6600000000000D+00  0.0000000000000D+00  0.0000000000000D+00
   268  2.6700000000000D+00  0.0000000000000D+00  0.0000000000000D+00
   269  2.6800000000000D+00  0.0000000000000D+00  0.0000000000000D+00
   270  2.6900000000000D+00  0.0000000000000D+00  0.0000000000000D+00
   271  2.7000000000000D+00  0.0000000000000D+00  0.0000000000000D+00
   272  2.7100000000000D+00  0.0000000000000D+00  0.0000000000000D+00
   273  2.7200000000000D+00  0.0000000000000D+00  0.0000000000000D+00
   274  2.7300000000000D+00  0.0000000000000D+00  0.0000000000000D+00
   275  2.7400000000000D+00  0.0000000000000D+00  0.0000000000000D+00
   276  2.7500000000000D+00  0.0000000000000D+00  0.0000000000000D+00
   277  2.7600000000000D+00  0.0000000000000D+00  0.0000000000000D+00
   278  2.7700000000000D+00  0.0000000000000D+00  0.0000000000000D+00
   279  2.7800000000000D+00  0.0000000000000D+00  0.0000000000000D+00
   280  2.7900000000000D+00  0.0000000000000D+00  0.0000000000000D+00
   281  2.8000000000000D+00  0.0000000000000D+00  0.0000000000000D+00
   282  2.8100000000000D+00  0.0000000000000D+00  0.0000000000000D+00
   283  2.8200000000000D+00  0.0000000000000D+00  0.0000000000000D+00
   284  2.8300000000000D+00  0.0000000000000D+00  0.0000000000000D+00
   285  2.8400000000000D+00  0.0000000000000D+00  0.0000000000000D+00
   286  2.8500000000000D+00  0.0000000000000D+00  0.0000000000000D+00
   287  2.8600000000000D+00  0.0000000000000D+00  0.0000000000000D+00
   288  2.8700000000000D+00  0.0000000000000D+00  0.0000000000000D+00
   289  2.8800000000000D+00  0.0000000000000D+00  0.0000000000000D+00
   290  2.8900000000000D+00  0.0000000000000D+00  0.0000000000000D+00
   291  2.9000000000000D+00  0.0000000000000D+00  0.0000000000000D+00
   292  2.9100000000000D+00  0.0000000000000D+00  0.0000000000000D+00
   293  2.9200000000000D+00  0.0000000000000D+00  0.0000000000000D+00
   294  2.9300000000000D+00  0.0000000000000D+00  0.0000000000000D+00
   295  2.9400000000000D+00  0.0000000000000D+00  0.0000000000000D+00
   296  2.9500000000000D+00  0.0000000000000D+00  0.0000000000000D+00
   297  2.9600000000000D+00  0.0000000000000D+00  0.0000000000000D+00
   298  2.9700000000000D+00  0.0000000000000D+00  0.0000000000000D+00
   299  2.9800000000000D+00  0.0000000000000D+00  0.0000000000000D+00
   300  2.9900000000000D+00  0.0000000000000D+00  0.0000000000000D+00
   301  3.0000000000000D+00  0.0000000000000D+00  0.0000000000000D+00
   302  3.0100000000000D+00  0.0000000000000D+00  0.0000000000000D+00
   303  3.0200000000000D+00  0.0000000000000D+00  0.0000000000000D+00
   304  3.0300000000000D+00  0.0000000000000D+00  0.0000000000000D+00
   305  3.0400000000000D+00  0.0000000000000D+00  0.0000000000000D+00
   306  3.0500000000000D+00  0.0000000000000D+00  0.0000000000000D+00
   307  3.0600000000000D+00  0.0000000000000D+00  0.0000000000000D+00
   308  3.0700000000000D+00  0.0000000000000D+00  0.0000000000000D+00
   309  3.0800000000000D+00  0.0000000000000D+00  0.0000000000000D+00
   310  3.0900000000000D+00  0.0000000000000D+00  0.0000000000000D+00
   311  3.1000000000000D+00  0.0000000000000D+00  0.0000000000000D+00
   312  3.1100000000000D+00  0.0000000000000D+00  0.0000000000000D+00
   313  3.1200000000000D+00  0.0000000000000D+00  0.0000000000000D+00
   314  3.1300000000000D+00  0.0000000000000D+00  0.0000000000000D+00
   315  3.1400000000000D+00  0.0000000000000D+00  0.0000000000000D+00
   316  3.1500000000000D+00  0.0000000000000D+00  0.0000000000000D+00
   317  3.1600000000000D+00  0.0000000000000D+00  0.0000000000000D+00
   318  3.1700000000000D+00  0.0000000000000D+00  0.0000000000000D+00
   319  3.1800000000000D+00  0.0000000000000D+00  0.0000000000000D+00
   320  3.1900000000000D+00  0.0000000000000D+00  0.0000000000000D+00
   321  3.2000000000000D+00  0.0000000000000D+00  0.0000000000000D+00
   322  3.2100000000000D+00  0.0000000000000D+00  0.0000000000000D+00
   323  3.2200000000000D+00  0.0000000000000D+00  0.0000000000000D+00
   324  3.2300000000000D+00  0.0000000000000D+00  0.0000000000000D+00
   325  3.2400000000000D+00  0.0000000000000D+00  0.0000000000000D+00
   326  3.2500000000000D+00  0.0000000000000D+00  0.0000000000000D+00
   327  3.2600000000000D+00  0.0000000000000D+00  0.0000000000000D+00
   328  3.2700000000000D+00  0.0000000000000D+00  0.0000000000000D+00
   329  3.2800000000000D+00  0.0000000000000D+00  0.0000000000000D+00
   330  3.2900000000000D+00  0.0000000000000D+00  0.0000000000000D+00
   331  3.3000000000000D+00  0.0000000000000D+00  0.0000000000000D+00
   332  3.3100000000000D+00  0.0000000000000D+00  0.0000000000000D+00
   333  3.3200000000000D+00  0.0000000000000D+00  0.0000000000000D+00
   334  3.3300000000000D+00  0.0000000000000D+00  0.0000000000000D+00
   335  3.3400000000000D+00  0.0000000000000D+00  0.0000000000000D+00
   336  3.3500000000000D+00  0.0000000000000D+00  0.0000000000000D+00
   337  3.3600000000000D+00  0.0000000000000D+00  0.0000000000000D+00
   338  3.3700000000000D+00  0.0000000000000D+00  0.0000000000000D+00
   339  3.3800000000000D+00  0.0000000000000D+00  0.0000000000000D+00
   340  3.3900000000000D+00  0.0000000000000D+00  0.0000000000000D+00
   341  3.4000000000000D+00  0.0000000000000D+00  0.0000000000000D+00
   342  3.4100000000000D+00  0.0000000000000D+00  0.0000000000000D+00
   343  3.4200000000000D+00  0.0000000000000D+00  0.0000000000000D+00
   344  3.4300000000000D+00  0.0000000000000D+00  0.0000000000000D+00
   345  3.4400000000000D+00  0.0000000000000D+00  0.0000000000000D+00
   346  3.4500000000000D+00  0.0000000000000D+00  0.0000000000000D+00
   347  3.4600000000000D+00  0.0000000000000D+00  0.0000000000000D+00
   348  3.4700000000000D+00  0.0000000000000D+00  0.0000000000000D+00
   349  3.4800000000000D+00  0.0000000000000D+00  0.0000000000000D+00
   350  3.4900000000000D+00  0.0000000000000D+00  0.0000000000000D+00
   351  3.5000000000000D+00  0.0000000000000D+00  0.0000000000000D+00
   352  3.5100000000000D+00  0.0000000000000D+00  0.0000000000000D+00
   353  3.5200000000000D+00  0.0000000000000D+00  0.0000000000000D+00
   354  3.5300000000000D+00  0.0000000000000D+00  0.0000000000000D+00
   355  3.5400000000000D+00  0.0000000000000D+00  0.0000000000000D+00
   356  3.5500000000000D+00  0.0000000000000D+00  0.0000000000000D+00
   357  3.5600000000000D+00  0.0000000000000D+00  0.0000000000000D+00
   358  3.5700000000000D+00  0.0000000000000D+00  0.0000000000000D+00
   359  3.5800000000000D+00  0.0000000000000D+00  0.0000000000000D+00
   360  3.5900000000000D+00  0.0000000000000D+00  0.0000000000000D+00
   361  3.6000000000000D+00  0.0000000000000D+00  0.0000000000000D+00
   362  3.6100000000000D+00  0.0000000000000D+00  0.0000000000000D+00
   363  3.6200000000000D+00  0.0000000000000D+00  0.0000000000000D+00
   364  3.6300000000000D+00  0.0000000000000D+00  0.0000000000000D+00
   365  3.6400000000000D+00  0.0000000000000D+00  0.0000000000000D+00
   366  3.6500000000000D+00  0.0000000000000D+00  0.0000000000000D+00
   367  3.6600000000000D+00  0.0000000000000D+00  0.0000000000000D+00
   368  3.6700000000000D+00  0.0000000000000D+00  0.0000000000000D+00
   369  3.6800000000000D+00  0.0000000000000D+00  0.0000000000000D+00
   370  3.6900000000000D+00  0.0000000000000D+00  0.0000000000000D+00
   371  3.7000000000000D+00  0.0000000000000D+00  0.0000000000000D+00
   372  3.7100000000000D+00  0.0000000000000D+00  0.0000000000000D+00
   373  3.7200000000000D+00  0.0000000000000D+00  0.0000000000000D+00
   374  3.7300000000000D+00  0.0000000000000D+00  0.0000000000000D+00
   375  3.7400000000000D+00  0.0000000000000D+00  0.0000000000000D+00
   376  3.7500000000000D+00  0.0000000000000D+00  0.0000000000000D+00
   377  3.7600000000000D+00  0.0000000000000D+00  0.0000000000000D+00
   378  3.7700000000000D+00  0.0000000000000D+00  0.0000000000000D+00
   379  3.7800000000000D+00  0.0000000000000D+00  0.0000000000000D+00
   380  3.7900000000000D+00  0.0000000000000D+00  0.0000000000000D+00
   381  3.8000000000000D+00  0.0000000000000D+00  0.0000000000000D+00
   382  3.8100000000000D+00  0.0000000000000D+00  0.0000000000000D+00
   383  3.8200000000000D+00  0.0000000000000D+00  0.0000000000000D+00
   384  3.8300000000000D+00  0.0000000000000D+00  0.0000000000000D+00
   385  3.8400000000000D+00  0.0000000000000D+00  0.0000000000000D+00
   386  3.8500000000000D+00  0.0000000000000D+00  0.0000000000000D+00
   387  3.8600000000000D+00  0.0000000000000D+00  0.0000000000000D+00
   388  3.8700000000000D+00  0.0000000000000D+00  0.0000000000000D+00
   389  3.8800000000000D+00  0.0000000000000D+00  0.0000000000000D+00
   390  3.8900000000000D+00  0.0000000000000D+00  0.0000000000000D+00
   391  3.9000000000000D+00  0.0000000000000D+00  0.0000000000000D+00
   392  3.9100000000000D+00  0.0000000000000D+00  0.0000000000000D+00
   393  3.9200000000000D+00  0.0000000000000D+00  0.0000000000000D+00
   394  3.9300000000000D+00  0.0000000000000D+00  0.0000000000000D+00
   395  3.9400000000000D+00  0.0000000000000D+00  0.0000000000000D+00
   396  3.9500000000000D+00  0.0000000000000D+00  0.0000000000000D+00
   397  3.9600000000000D+00  0.0000000000000D+00  0.0000000000000D+00
   398  3.9700000000000D+00  0.0000000000000D+00  0.0000000000000D+00
   399  3.9800000000000D+00  0.0000000000000D+00  0.0000000000000D+00
   400  3.9900000000000D+00  0.0000000000000D+00  0.0000000000000D+00
   401  4.0000000000000D+00  0.0000000000000D+00  0.0000000000000D+00
   402  4.0100000000000D+00  0.0000000000000D+00  0.0000000000000D+00
   403  4.0200000000000D+00  0.0000000000000D+00  0.0000000000000D+00
   404  4.0300000000000D+00  0.0000000000000D+00  0.0000000000000D+00
   405  4.0400000000000D+00  0.0000000000000D+00  0.0000000000000D+00
   406  4.0500000000000D+00  0.0000000000000D+00  0.0000000000000D+00
   407  4.0600000000000D+00  0.0000000000000D+00  0.0000000000000D+00
   408  4.0700000000000D+00  0.0000000000000D+00  0.0000000000000D+00
   409  4.0800000000000D+00  0.0000000000000D+00  0.0000000000000D+00
   410  4.0900000000000D+00  0.0000000000000D+00  0.0000000000000D+00
   411  4.1000000000000D+00  0.0000000000000D+00  0.0000000000000D+00
   412  4.1100000000000D+00  0.0000000000000D+00  0.0000000000000D+00
   413  4.1200000000000D+00  0.0000000000000D+00  0.0000000000000D+00
   414  4.1300000000000D+00  0.0000000000000D+00  0.0000000000000D+00
   415  4.1400000000000D+00  0.0000000000000D+00  0.0000000000000D+00
   416  4.1500000000000D+00  0.0000000000000D+00  0.0000000000000D+00
   417  4.1600000000000D+00  0.0000000000000D+00  0.0000000000000D+00
   418  4.1700000000000D+00  0.0000000000000D+00  0.0000000000000D+00
   419  4.1800000000000D+00  0.0000000000000D+00  0.0000000000000D+00
   420  4.1900000000000D+00  0.0000000000000D+00  0.0000000000000D+00
   421  4.2000000000000D+00  0.0000000000000D+00  0.0000000000000D+00
   422  4.2100000000000D+00  0.0000000000000D+00  0.0000000000000D+00