W     ONCVPSP-3.3.1  r_core=   2.17082   2.22323   1.90387   3.06802
     74.0000     28.0000      210904    zatom,zion,pspd
     8      11   3     4   600     0    pspcod,pspxc,lmax,lloc,mmax,r2well
  5.99000000  0.00000000  0.00000000    rchrg fchrg qchrg
     2     2     2     2     0    nproj
     1     1           extension_switch
   0                         7.6813209780253D+00  9.1094688549237D-01
     1  0.0000000000000D+00  9.5426999635606D-12 -2.0194179661814D-11
     2  1.0000000000000D-02  6.0630984667634D-02 -1.5804987673667D-02
     3  2.0000000000000D-02  1.2116306277037D-01 -3.1537866032413D-02
     4  3.0000000000000D-02  1.8149748684879D-01 -4.7126657481532D-02
     5  4.0000000000000D-02  2.4153582764002D-01 -6.2499648113795D-02
     6  5.0000000000000D-02  3.0118013313745D-01 -7.7585520165638D-02
     7  6.0000000000000D-02  3.6033308759733D-01 -9.2313485193877D-02
     8  7.0000000000000D-02  4.1889817046323D-01 -1.0661341818924D-01
     9  8.0000000000000D-02  4.7677981516990D-01 -1.2041599282278D-01
    10  9.0000000000000D-02  5.3388356777593D-01 -1.3365281799645D-01
    11  1.0000000000000D-01  5.9011624536119D-01 -1.4625657583945D-01
    12  1.1000000000000D-01  6.4538609410880D-01 -1.5816116125874D-01
    13  1.2000000000000D-01  6.9960294697395D-01 -1.6930182311425D-01
    14  1.3000000000000D-01  7.5267838082235D-01 -1.7961530704839D-01
    15  1.4000000000000D-01  8.0452587290050D-01 -1.8903999995516D-01
    16  1.5000000000000D-01  8.5506095647790D-01 -1.9751607602695D-01
    17  1.6000000000000D-01  9.0420137547801D-01 -2.0498564426793D-01
    18  1.7000000000000D-01  9.5186723789140D-01 -2.1139289731125D-01
    19  1.8000000000000D-01  9.9798116773949D-01 -2.1668426132478D-01
    20  1.9000000000000D-01  1.0424684553330D+00 -2.2080854673632D-01
    21  2.0000000000000D-01  1.0852572055445D+00 -2.2371709945510D-01
    22  2.1000000000000D-01  1.1262784837887D+00 -2.2536395221232D-01
    23  2.2000000000000D-01  1.1654664593827D+00 -2.2570597559060D-01
    24  2.3000000000000D-01  1.2027585459315D+00 -2.2470302825907D-01
    25  2.4000000000000D-01  1.2380955383642D+00 -2.2231810588159D-01
    26  2.5000000000000D-01  1.2714217462254D+00 -2.1851748811606D-01
    27  2.6000000000000D-01  1.3026851228047D+00 -2.1327088307823D-01
    28  2.7000000000000D-01  1.3318373896709D+00 -2.0655156860042D-01
    29  2.8000000000000D-01  1.3588341561622D+00 -1.9833652957719D-01
    30  2.9000000000000D-01  1.3836350333686D+00 -1.8860659065532D-01
    31  3.0000000000000D-01  1.4062037421325D+00 -1.7734654349572D-01
    32  3.1000000000000D-01  1.4265082145865D+00 -1.6454526780947D-01
    33  3.2000000000000D-01  1.4445206887374D+00 -1.5019584535106D-01
    34  3.3000000000000D-01  1.4602177956094D+00 -1.3429566603727D-01
    35  3.4000000000000D-01  1.4735806384537D+00 -1.1684652535236D-01
    36  3.5000000000000D-01  1.4845948635392D+00 -9.7854712198343D-02
    37  3.6000000000000D-01  1.4932507220467D+00 -7.7331086353158D-02
    38  3.7000000000000D-01  1.4995431225953D+00 -5.5291144710982D-02
    39  3.8000000000000D-01  1.5034716739503D+00 -3.1755075496149D-02
    40  3.9000000000000D-01  1.5050407174734D+00 -6.7477996667045D-03
    41  4.0000000000000D-01  1.5042593489014D+00  1.9701001245740D-02
    42  4.1000000000000D-01  1.5011414290624D+00  4.7556871575136D-02
    43  4.2000000000000D-01  1.4957055831678D+00  7.6780582910545D-02
    44  4.3000000000000D-01  1.4879751883475D+00  1.0732815105673D-01
    45  4.4000000000000D-01  1.4779783491351D+00  1.3915086912974D-01
    46  4.5000000000000D-01  1.4657478606424D+00  1.7219535728841D-01
    47  4.6000000000000D-01  1.4513211592081D+00  2.0640362953443D-01
    48  4.7000000000000D-01  1.4347402603464D+00  2.4171317793971D-01
    49  4.8000000000000D-01  1.4160516838689D+00  2.7805707458095D-01
    50  4.9000000000000D-01  1.3953063661029D+00  3.1536409137796D-01
    51  5.0000000000000D-01  1.3725595591767D+00  3.5355883794510D-01
    52  5.1000000000000D-01  1.3478707174010D+00  3.9256191747396D-01
    53  5.2000000000000D-01  1.3213033708238D+00  4.3229010057162D-01
    54  5.3000000000000D-01  1.2929249860964D+00  4.7265651688226D-01
    55  5.4000000000000D-01  1.2628068148444D+00  5.1357086422172D-01
    56  5.5000000000000D-01  1.2310237297916D+00  5.5493963485498D-01
    57  5.6000000000000D-01  1.1976540489481D+00  5.9666635844625D-01
    58  5.7000000000000D-01  1.1627793482273D+00  6.3865186111148D-01
    59  5.8000000000000D-01  1.1264842629151D+00  6.8079453990344D-01
    60  5.9000000000000D-01  1.0888562784741D+00  7.2299065196147D-01
    61  6.0000000000000D-01  1.0499855112168D+00  7.6513461746232D-01
    62  6.1000000000000D-01  1.0099644794411D+00  8.0711933541430D-01
    63  6.2000000000000D-01  9.6888786566967D-01  8.4883651124805D-01
    64  6.3000000000000D-01  9.2685227068940D-01  8.9017699507031D-01
    65  6.4000000000000D-01  8.8395596013212D-01  9.3103112936593D-01
    66  6.5000000000000D-01  8.4029860438519D-01  9.7128910485766D-01
    67  6.6000000000000D-01  7.9598101266233D-01  1.0108413231618D+00
    68  6.7000000000000D-01  7.5110486210427D-01  1.0495787648146D+00
    69  6.8000000000000D-01  7.0577242281405D-01  1.0873933611870D+00
    70  6.9000000000000D-01  6.6008627976383D-01  1.1241783687543D+00
    71  7.0000000000000D-01  6.1414905253702D-01  1.1598287441466D+00
    72  7.1000000000000D-01  5.6806311389293D-01  1.1942415183711D+00
    73  7.2000000000000D-01  5.2193030815972D-01  1.2273161685712D+00
    74  7.3000000000000D-01  4.7585167047509D-01  1.2589549856716D+00
    75  7.4000000000000D-01  4.2992714790322D-01  1.2890634362494D+00
    76  7.5000000000000D-01  3.8425532346067D-01  1.3175505169741D+00
    77  7.6000000000000D-01  3.3893314408261D-01  1.3443290999677D+00
    78  7.7000000000000D-01  2.9405565355487D-01  1.3693162674587D+00
    79  7.8000000000000D-01  2.4971573142591D-01  1.3924336341297D+00
    80  7.9000000000000D-01  2.0600383889639D-01  1.4136076556002D+00
    81  8.0000000000000D-01  1.6300777266270D-01  1.4327699215311D+00
    82  8.1000000000000D-01  1.2081242766399D-01  1.4498574318948D+00
    83  8.2000000000000D-01  7.9499569651096D-02  1.4648128550206D+00
    84  8.3000000000000D-01  3.9147618459355D-02  1.4775847660986D+00
    85  8.4000000000000D-01 -1.6855717355612D-04  1.4881278649061D+00
    86  8.5000000000000D-01 -3.8377832448937D-02  1.4964031716109D+00
    87  8.6000000000000D-01 -7.5413006261311D-02  1.5023781996028D+00
    88  8.7000000000000D-01 -1.1121096717285D-01  1.5060271044063D+00
    89  8.8000000000000D-01 -1.4571284497272D-01  1.5073308078388D+00
    90  8.9000000000000D-01 -1.7886414724656D-01  1.5062770966922D+00
    91  9.0000000000000D-01 -2.1061488044533D-01  1.5028606953367D+00
    92  9.1000000000000D-01 -2.4091965500937D-01  1.4970833117678D+00
    93  9.2000000000000D-01 -2.6973777417247D-01  1.4889536567475D+00
    94  9.3000000000000D-01 -2.9703330614194D-01  1.4784874358187D+00
    95  9.4000000000000D-01 -3.2277513942380D-01  1.4657073141053D+00
    96  9.5000000000000D-01 -3.4693702113551D-01  1.4506428539441D+00
    97  9.6000000000000D-01 -3.6949757822427D-01  1.4333304255254D+00
    98  9.7000000000000D-01 -3.9044032158451D-01  1.4138130908590D+00
    99  9.8000000000000D-01 -4.0975363314294D-01  1.3921404615070D+00
   100  9.9000000000000D-01 -4.2743073605535D-01  1.3683685306604D+00
   101  1.0000000000000D+00 -4.4346964823338D-01  1.3425594802626D+00
   102  1.0100000000000D+00 -4.5787311949236D-01  1.3147814640038D+00
   103  1.0200000000000D+00 -4.7064855268459D-01  1.2851083671374D+00
   104  1.0300000000000D+00 -4.8180790924806D-01  1.2536195441722D+00
   105  1.0400000000000D+00 -4.9136759967235D-01  1.2203995356151D+00
   106  1.0500000000000D+00 -4.9934835944514D-01  1.1855377650329D+00
   107  1.0600000000000D+00 -5.0577511110437D-01  1.1491282178008D+00
   108  1.0700000000000D+00 -5.1067681308012D-01  1.1112691029917D+00
   109  1.0800000000000D+00 -5.1408629606238D-01  1.0720624999383D+00
   110  1.0900000000000D+00 -5.1604008768131D-01  1.0316139910707D+00
   111  1.1000000000000D+00 -5.1657822633449D-01  9.9003228269674D-01
   112  1.1100000000000D+00 -5.1574406503318D-01  9.4742881543804D-01
   113  1.1200000000000D+00 -5.1358406617966D-01  9.0391736608267D-01
   114  1.1300000000000D+00 -5.1014758821259D-01  8.5961364263860D-01
   115  1.1400000000000D+00 -5.0548666509141D-01  8.1463487440249D-01
   116  1.1500000000000D+00 -4.9965577960585D-01  7.6909939886269D-01
   117  1.1600000000000D+00 -4.9271163151337D-01  7.2312624725287D-01
   118  1.1700000000000D+00 -4.8471290151669D-01  6.7683473057074D-01
   119  1.1800000000000D+00 -4.7572001210027D-01  6.3034402784671D-01
   120  1.1900000000000D+00 -4.6579488624017D-01  5.8377277841634D-01
   121  1.2000000000000D+00 -4.5500070499522D-01  5.3723867990707D-01
   122  1.2100000000000D+00 -4.4340166498071D-01  4.9085809361085D-01
   123  1.2200000000000D+00 -4.3106273670252D-01  4.4474565883316D-01
   124  1.2300000000000D+00 -4.1804942470159D-01  3.9901391772777D-01
   125  1.2400000000000D+00 -4.0442753045419D-01  3.5377295210596D-01
   126  1.2500000000000D+00 -3.9026291891473D-01  3.0913003354573D-01
   127  1.2600000000000D+00 -3.7562128955412D-01  2.6518928804790D-01
   128  1.2700000000000D+00 -3.6056795273388D-01  2.2205137644600D-01
   129  1.2800000000000D+00 -3.4516761217801D-01  1.7981319158584D-01
   130  1.2900000000000D+00 -3.2948415425183D-01  1.3856757317148D-01
   131  1.3000000000000D+00 -3.1358044475463D-01  9.8403041165334D-02
   132  1.3100000000000D+00 -2.9751813382291D-01  5.9403548377032D-02
   133  1.3200000000000D+00 -2.8135746947703D-01  2.1648252743676D-02
   134  1.3300000000000D+00 -2.6515712037230D-01 -1.4788690142291D-02
   135  1.3400000000000D+00 -2.4897400813220D-01 -4.9838314094315D-02
   136  1.3500000000000D+00 -2.3286314963623D-01 -8.3437008819875D-02
   137  1.3600000000000D+00 -2.1687750962649D-01 -1.1552666570216D-01
   138  1.3700000000000D+00 -2.0106786378510D-01 -1.4605480316772D-01
   139  1.3800000000000D+00 -1.8548267251375D-01 -1.7497467176955D-01
   140  1.3900000000000D+00 -1.7016796552457D-01 -2.0224533936749D-01
   141  1.4000000000000D+00 -1.5516723719768D-01 -2.2783175706985D-01
   142  1.4100000000000D+00 -1.4052135281295D-01 -2.5170480632148D-01
   143  1.4200000000000D+00 -1.2626846543460D-01 -2.7384132813724D-01
   144  1.4300000000000D+00 -1.1244394335984D-01 -2.9422413522210D-01
   145  1.4400000000000D+00 -9.9080307942203D-02 -3.1284200792342D-01
   146  1.4500000000000D+00 -8.6207181401063D-02 -3.2968967527773D-01
   147  1.4600000000000D+00 -7.3851244460646D-02 -3.4476778204515D-01
   148  1.4700000000000D+00 -6.2036203260409D-02 -3.5808284327328D-01
   149  1.4800000000000D+00 -5.0782765233064D-02 -3.6964718751597D-01
   150  1.4900000000000D+00 -4.0108623416974D-02 -3.7947889021123D-01
   151  1.5000000000000D+00 -3.0028448668196D-02 -3.8760169867203D-01
   152  1.5100000000000D+00 -2.0553889290794D-02 -3.9404495013504D-01
   153  1.5200000000000D+00 -1.1693577374546D-02 -3.9884348451449D-01
   154  1.5300000000000D+00 -3.4531413597453D-03 -4.0203755333007D-01
   155  1.5400000000000D+00  4.1647759487219D-03 -4.0367272648481D-01
   156  1.5500000000000D+00  1.1160494478590D-02 -4.0379979843795D-01
   157  1.5600000000000D+00  1.7537269852346D-02 -4.0247469540119D-01
   158  1.5700000000000D+00  2.3301262856393D-02 -3.9975838509910D-01
   159  1.5800000000000D+00  2.8461506152738D-02 -3.9571679072399D-01
   160  1.5900000000000D+00  3.3029868891091D-02 -3.9042071046534D-01
   161  1.6000000000000D+00  3.7021023414779D-02 -3.8394575548558D-01
   162  1.6100000000000D+00  4.0452391330794D-02 -3.7637223175266D-01
   163  1.6200000000000D+00  4.3344159901104D-02 -3.6778525870556D-01
   164  1.6300000000000D+00  4.5719103902515D-02 -3.5827427351096D-01
   165  1.6400000000000D+00  4.7602677941680D-02 -3.4793340262549D-01
   166  1.6500000000000D+00  4.9023296978963D-02 -3.3686247499633D-01
   167  1.6600000000000D+00  5.0011338898690D-02 -3.2516388207256D-01
   168  1.6700000000000D+00  5.0598371337424D-02 -3.1294016295412D-01
   169  1.6800000000000D+00  5.0816367589327D-02 -3.0029169239043D-01
   170  1.6900000000000D+00  5.0696587504695D-02 -2.8731327280494D-01
   171  1.7000000000000D+00  5.0269736754091D-02 -2.7409489312068D-01
   172  1.7100000000000D+00  4.9566009387522D-02 -2.6072213784825D-01
   173  1.7200000000000D+00  4.8614797973410D-02 -2.4727547385699D-01
   174  1.7300000000000D+00  4.7444655293675D-02 -2.3383036947954D-01
   175  1.7400000000000D+00  4.6083174656668D-02 -2.2045713834589D-01
   176  1.7500000000000D+00  4.4556905168544D-02 -2.0722089251282D-01
   177  1.7600000000000D+00  4.2891273081762D-02 -1.9418150822769D-01
   178  1.7700000000000D+00  4.1110512353271D-02 -1.8139361523914D-01
   179  1.7800000000000D+00  3.9237605527584D-02 -1.6890661175194D-01
   180  1.7900000000000D+00  3.7294233937338D-02 -1.5676470235055D-01
   181  1.8000000000000D+00  3.5300737997284D-02 -1.4500696014981D-01
   182  1.8100000000000D+00  3.3276086724475D-02 -1.3366741084194D-01
   183  1.8200000000000D+00  3.1237856850125D-02 -1.2277513896989D-01
   184  1.8300000000000D+00  2.9202220918598D-02 -1.1235441469126D-01
   185  1.8400000000000D+00  2.7183944229271D-02 -1.0242484025093D-01
   186  1.8500000000000D+00  2.5196390372051D-02 -9.3001515187186D-02
   187  1.8600000000000D+00  2.3251534659784D-02 -8.4095218342172D-02
   188  1.8700000000000D+00  2.1359985587671D-02 -7.5712606455377D-02
   189  1.8800000000000D+00  1.9531013122185D-02 -6.7856426450775D-02
   190  1.8900000000000D+00  1.7772584203793D-02 -6.0525741616088D-02
   191  1.9000000000000D+00  1.6091404060678D-02 -5.3716168500723D-02
   192  1.9100000000000D+00  1.4492963563718D-02 -4.7420124308428D-02
   193  1.9200000000000D+00  1.2981591491535D-02 -4.1627082248787D-02
   194  1.9300000000000D+00  1.1560511432846D-02 -3.6323833625221D-02
   195  1.9400000000000D+00  1.0231902638014D-02 -3.1494754930117D-02
   196  1.9500000000000D+00  8.9969641442137D-03 -2.7122078159007D-02
   197  1.9600000000000D+00  7.8559816570730D-03 -2.3186162629389D-02
   198  1.9700000000000D+00  6.8083965418713D-03 -1.9665767071668D-02
   199  1.9800000000000D+00  5.8528761641536D-03 -1.6538319331998D-02
   200  1.9900000000000D+00  4.9873852608452D-03 -1.3780183458061D-02
   201  2.0000000000000D+00  4.2092573602806D-03 -1.1366921133454D-02
   202  2.0100000000000D+00  3.5152659371577D-03 -9.2735468738153D-03
   203  2.0200000000000D+00  2.9016947281565D-03 -7.4747755222274D-03
   204  2.0300000000000D+00  2.3644061695016D-03 -5.9452591269065D-03
   205  2.0400000000000D+00  1.8989084436556D-03 -4.6598148897663D-03
   206  2.0500000000000D+00  1.5004192022579D-03 -3.5936387680682D-03
   207  2.0600000000000D+00  1.1639268803843D-03 -2.7225075112640D-03
   208  2.0700000000000D+00  8.8424830361890D-04 -2.0229656355440D-03
   209  2.0800000000000D+00  6.5608203848604D-04 -1.4724959545318D-03
   210  2.0900000000000D+00  4.7405844580524D-04 -1.0496764015723D-03
   211  2.1000000000000D+00  3.3281754637930D-04 -7.3446726957600D-04
   212  2.1100000000000D+00  2.2693587921037D-04 -5.0782420558779D-04
   213  2.1200000000000D+00  1.5099387453824D-04 -3.5197369198836D-04
   214  2.1300000000000D+00  9.9293440765412D-05 -2.4959167154209D-04
   215  2.1400000000000D+00  6.8064494305039D-05 -1.9121713153159D-04
   216  2.1500000000000D+00  5.3615694536324D-05 -1.6858792147678D-04
   217  2.1600000000000D+00  4.8667512628814D-05 -1.6284735346585D-04
   218  2.1700000000000D+00  4.3331349707870D-05 -1.4717901437686D-04
   219  2.1800000000000D+00  2.8386491164232D-05 -9.6594724228289D-05
   220  2.1900000000000D+00  1.0434355597648D-05 -3.5402839084164D-05
   221  2.2000000000000D+00 -2.2200239839905D-06  7.6285727905775D-06
   222  2.2100000000000D+00 -4.3136703042474D-06  1.4828725380843D-05
   223  2.2200000000000D+00 -1.3291219841689D-06  4.5687268210254D-06
   224  2.2300000000000D+00  7.7786525054960D-07 -2.6949167493460D-06
   225  2.2400000000000D+00  8.5014093514249D-07 -2.9484196962853D-06
   226  2.2500000000000D+00 -1.5879124994623D-09  5.3935302250671D-09
   227  2.2600000000000D+00 -1.1530988346284D-07  3.9166348392395D-07
   228  2.2700000000000D+00 -8.2835762166310D-08  2.8136133893509D-07
   229  2.2800000000000D+00  0.0000000000000D+00  0.0000000000000D+00
   230  2.2900000000000D+00  0.0000000000000D+00  0.0000000000000D+00
   231  2.3000000000000D+00  0.0000000000000D+00  0.0000000000000D+00
   232  2.3100000000000D+00  0.0000000000000D+00  0.0000000000000D+00
   233  2.3200000000000D+00  0.0000000000000D+00  0.0000000000000D+00
   234  2.3300000000000D+00  0.0000000000000D+00  0.0000000000000D+00
   235  2.3400000000000D+00  0.0000000000000D+00  0.0000000000000D+00
   236  2.3500000000000D+00  0.0000000000000D+00  0.0000000000000D+00
   237  2.3600000000000D+00  0.0000000000000D+00  0.0000000000000D+00
   238  2.3700000000000D+00  0.0000000000000D+00  0.0000000000000D+00
   239  2.3800000000000D+00  0.0000000000000D+00  0.0000000000000D+00
   240  2.3900000000000D+00  0.0000000000000D+00  0.0000000000000D+00
   241  2.4000000000000D+00  0.0000000000000D+00  0.0000000000000D+00
   242  2.4100000000000D+00  0.0000000000000D+00  0.0000000000000D+00
   243  2.4200000000000D+00  0.0000000000000D+00  0.0000000000000D+00
   244  2.4300000000000D+00  0.0000000000000D+00  0.0000000000000D+00
   245  2.4400000000000D+00  0.0000000000000D+00  0.0000000000000D+00
   246  2.4500000000000D+00  0.0000000000000D+00  0.0000000000000D+00
   247  2.4600000000000D+00  0.0000000000000D+00  0.0000000000000D+00
   248  2.4700000000000D+00  0.0000000000000D+00  0.0000000000000D+00
   249  2.4800000000000D+00  0.0000000000000D+00  0.0000000000000D+00
   250  2.4900000000000D+00  0.0000000000000D+00  0.0000000000000D+00
   251  2.5000000000000D+00  0.0000000000000D+00  0.0000000000000D+00
   252  2.5100000000000D+00  0.0000000000000D+00  0.0000000000000D+00
   253  2.5200000000000D+00  0.0000000000000D+00  0.0000000000000D+00
   254  2.5300000000000D+00  0.0000000000000D+00  0.0000000000000D+00
   255  2.5400000000000D+00  0.0000000000000D+00  0.0000000000000D+00
   256  2.5500000000000D+00  0.0000000000000D+00  0.0000000000000D+00
   257  2.5600000000000D+00  0.0000000000000D+00  0.0000000000000D+00
   258  2.5700000000000D+00  0.0000000000000D+00  0.0000000000000D+00
   259  2.5800000000000D+00  0.0000000000000D+00  0.0000000000000D+00
   260  2.5900000000000D+00  0.0000000000000D+00  0.0000000000000D+00
   261  2.6000000000000D+00  0.0000000000000D+00  0.0000000000000D+00
   262  2.6100000000000D+00  0.0000000000000D+00  0.0000000000000D+00
   263  2.6200000000000D+00  0.0000000000000D+00  0.0000000000000D+00
   264  2.6300000000000D+00  0.0000000000000D+00  0.0000000000000D+00
   265  2.6400000000000D+00  0.0000000000000D+00  0.0000000000000D+00
   266  2.6500000000000D+00  0.0000000000000D+00  0.0000000000000D+00
   267  2.6600000000000D+00  0.0000000000000D+00  0.0000000000000D+00
   268  2.6700000000000D+00  0.0000000000000D+00  0.0000000000000D+00
   269  2.6800000000000D+00  0.0000000000000D+00  0.0000000000000D+00
   270  2.6900000000000D+00  0.0000000000000D+00  0.0000000000000D+00
   271  2.7000000000000D+00  0.0000000000000D+00  0.0000000000000D+00
   272  2.7100000000000D+00  0.0000000000000D+00  0.0000000000000D+00
   273  2.7200000000000D+00  0.0000000000000D+00  0.0000000000000D+00
   274  2.7300000000000D+00  0.0000000000000D+00  0.0000000000000D+00
   275  2.7400000000000D+00  0.0000000000000D+00  0.0000000000000D+00
   276  2.7500000000000D+00  0.0000000000000D+00  0.0000000000000D+00
   277  2.7600000000000D+00  0.0000000000000D+00  0.0000000000000D+00
   278  2.7700000000000D+00  0.0000000000000D+00  0.0000000000000D+00
   279  2.7800000000000D+00  0.0000000000000D+00  0.0000000000000D+00
   280  2.7900000000000D+00  0.0000000000000D+00  0.0000000000000D+00
   281  2.8000000000000D+00  0.0000000000000D+00  0.0000000000000D+00
   282  2.8100000000000D+00  0.0000000000000D+00  0.0000000000000D+00
   283  2.8200000000000D+00  0.0000000000000D+00  0.0000000000000D+00
   284  2.8300000000000D+00  0.0000000000000D+00  0.0000000000000D+00
   285  2.8400000000000D+00  0.0000000000000D+00  0.0000000000000D+00
   286  2.8500000000000D+00  0.0000000000000D+00  0.0000000000000D+00
   287  2.8600000000000D+00  0.0000000000000D+00  0.0000000000000D+00
   288  2.8700000000000D+00  0.0000000000000D+00  0.0000000000000D+00
   289  2.8800000000000D+00  0.0000000000000D+00  0.0000000000000D+00
   290  2.8900000000000D+00  0.0000000000000D+00  0.0000000000000D+00
   291  2.9000000000000D+00  0.0000000000000D+00  0.0000000000000D+00
   292  2.9100000000000D+00  0.0000000000000D+00  0.0000000000000D+00
   293  2.9200000000000D+00  0.0000000000000D+00  0.0000000000000D+00
   294  2.9300000000000D+00  0.0000000000000D+00  0.0000000000000D+00
   295  2.9400000000000D+00  0.0000000000000D+00  0.0000000000000D+00
   296  2.9500000000000D+00  0.0000000000000D+00  0.0000000000000D+00
   297  2.9600000000000D+00  0.0000000000000D+00  0.0000000000000D+00
   298  2.9700000000000D+00  0.0000000000000D+00  0.0000000000000D+00
   299  2.9800000000000D+00  0.0000000000000D+00  0.0000000000000D+00
   300  2.9900000000000D+00  0.0000000000000D+00  0.0000000000000D+00
   301  3.0000000000000D+00  0.0000000000000D+00  0.0000000000000D+00
   302  3.0100000000000D+00  0.0000000000000D+00  0.0000000000000D+00
   303  3.0200000000000D+00  0.0000000000000D+00  0.0000000000000D+00
   304  3.0300000000000D+00  0.0000000000000D+00  0.0000000000000D+00
   305  3.0400000000000D+00  0.0000000000000D+00  0.0000000000000D+00
   306  3.0500000000000D+00  0.0000000000000D+00  0.0000000000000D+00
   307  3.0600000000000D+00  0.0000000000000D+00  0.0000000000000D+00
   308  3.0700000000000D+00  0.0000000000000D+00  0.0000000000000D+00
   309  3.0800000000000D+00  0.0000000000000D+00  0.0000000000000D+00
   310  3.0900000000000D+00  0.0000000000000D+00  0.0000000000000D+00
   311  3.1000000000000D+00  0.0000000000000D+00  0.0000000000000D+00
   312  3.1100000000000D+00  0.0000000000000D+00  0.0000000000000D+00
   313  3.1200000000000D+00  0.0000000000000D+00  0.0000000000000D+00
   314  3.1300000000000D+00  0.0000000000000D+00  0.0000000000000D+00
   315  3.1400000000000D+00  0.0000000000000D+00  0.0000000000000D+00
   316  3.1500000000000D+00  0.0000000000000D+00  0.0000000000000D+00
   317  3.1600000000000D+00  0.0000000000000D+00  0.0000000000000D+00
   318  3.1700000000000D+00  0.0000000000000D+00  0.0000000000000D+00
   319  3.1800000000000D+00  0.0000000000000D+00  0.0000000000000D+00
   320  3.1900000000000D+00  0.0000000000000D+00  0.0000000000000D+00
   321  3.2000000000000D+00  0.0000000000000D+00  0.0000000000000D+00
   322  3.2100000000000D+00  0.0000000000000D+00  0.0000000000000D+00
   323  3.2200000000000D+00  0.0000000000000D+00  0.0000000000000D+00
   324  3.2300000000000D+00  0.0000000000000D+00  0.0000000000000D+00
   325  3.2400000000000D+00  0.0000000000000D+00  0.0000000000000D+00
   326  3.2500000000000D+00  0.0000000000000D+00  0.0000000000000D+00
   327  3.2600000000000D+00  0.0000000000000D+00  0.0000000000000D+00
   328  3.2700000000000D+00  0.0000000000000D+00  0.0000000000000D+00
   329  3.2800000000000D+00  0.0000000000000D+00  0.0000000000000D+00
   330  3.2900000000000D+00  0.0000000000000D+00  0.0000000000000D+00
   331  3.3000000000000D+00  0.0000000000000D+00  0.0000000000000D+00
   332  3.3100000000000D+00  0.0000000000000D+00  0.0000000000000D+00
   333  3.3200000000000D+00  0.0000000000000D+00  0.0000000000000D+00
   334  3.3300000000000D+00  0.0000000000000D+00  0.0000000000000D+00
   335  3.3400000000000D+00  0.0000000000000D+00  0.0000000000000D+00
   336  3.3500000000000D+00  0.0000000000000D+00  0.0000000000000D+00
   337  3.3600000000000D+00  0.0000000000000D+00  0.0000000000000D+00
   338  3.3700000000000D+00  0.0000000000000D+00  0.0000000000000D+00
   339  3.3800000000000D+00  0.0000000000000D+00  0.0000000000000D+00
   340  3.3900000000000D+00  0.0000000000000D+00  0.0000000000000D+00
   341  3.4000000000000D+00  0.0000000000000D+00  0.0000000000000D+00
   342  3.4100000000000D+00  0.0000000000000D+00  0.0000000000000D+00
   343  3.4200000000000D+00  0.0000000000000D+00  0.0000000000000D+00
   344  3.4300000000000D+00  0.0000000000000D+00  0.0000000000000D+00
   345  3.4400000000000D+00  0.0000000000000D+00  0.0000000000000D+00
   346  3.4500000000000D+00  0.0000000000000D+00  0.0000000000000D+00
   347  3.4600000000000D+00  0.0000000000000D+00  0.0000000000000D+00
   348  3.4700000000000D+00  0.0000000000000D+00  0.0000000000000D+00
   349  3.4800000000000D+00  0.0000000000000D+00  0.0000000000000D+00
   350  3.4900000000000D+00  0.0000000000000D+00  0.0000000000000D+00
   351  3.5000000000000D+00  0.0000000000000D+00  0.0000000000000D+00
   352  3.5100000000000D+00  0.0000000000000D+00  0.0000000000000D+00
   353  3.5200000000000D+00  0.0000000000000D+00  0.0000000000000D+00
   354  3.5300000000000D+00  0.0000000000000D+00  0.0000000000000D+00
   355  3.5400000000000D+00  0.0000000000000D+00  0.0000000000000D+00
   356  3.5500000000000D+00  0.0000000000000D+00  0.0000000000000D+00
   357  3.5600000000000D+00  0.0000000000000D+00  0.0000000000000D+00
   358  3.5700000000000D+00  0.0000000000000D+00  0.0000000000000D+00
   359  3.5800000000000D+00  0.0000000000000D+00  0.0000000000000D+00
   360  3.5900000000000D+00  0.0000000000000D+00  0.0000000000000D+00
   361  3.6000000000000D+00  0.0000000000000D+00  0.0000000000000D+00
   362  3.6100000000000D+00  0.0000000000000D+00  0.0000000000000D+00
   363  3.6200000000000D+00  0.0000000000000D+00  0.0000000000000D+00
   364  3.6300000000000D+00  0.0000000000000D+00  0.0000000000000D+00
   365  3.6400000000000D+00  0.0000000000000D+00  0.0000000000000D+00
   366  3.6500000000000D+00  0.0000000000000D+00  0.0000000000000D+00
   367  3.6600000000000D+00  0.0000000000000D+00  0.0000000000000D+00
   368  3.6700000000000D+00  0.0000000000000D+00  0.0000000000000D+00
   369  3.6800000000000D+00  0.0000000000000D+00  0.0000000000000D+00
   370  3.6900000000000D+00  0.0000000000000D+00  0.0000000000000D+00
   371  3.7000000000000D+00  0.0000000000000D+00  0.0000000000000D+00
   372  3.7100000000000D+00  0.0000000000000D+00  0.0000000000000D+00
   373  3.7200000000000D+00  0.0000000000000D+00  0.0000000000000D+00
   374  3.7300000000000D+00  0.0000000000000D+00  0.0000000000000D+00
   375  3.7400000000000D+00  0.0000000000000D+00  0.0000000000000D+00
   376  3.7500000000000D+00  0.0000000000000D+00  0.0000000000000D+00
   377  3.7600000000000D+00  0.0000000000000D+00  0.0000000000000D+00
   378  3.7700000000000D+00  0.0000000000000D+00  0.0000000000000D+00
   379  3.7800000000000D+00  0.0000000000000D+00  0.0000000000000D+00
   380  3.7900000000000D+00  0.0000000000000D+00  0.0000000000000D+00
   381  3.8000000000000D+00  0.0000000000000D+00  0.0000000000000D+00
   382  3.8100000000000D+00  0.0000000000000D+00  0.0000000000000D+00
   383  3.8200000000000D+00  0.0000000000000D+00  0.0000000000000D+00
   384  3.8300000000000D+00  0.0000000000000D+00  0.0000000000000D+00
   385  3.8400000000000D+00  0.0000000000000D+00  0.0000000000000D+00
   386  3.8500000000000D+00  0.0000000000000D+00  0.0000000000000D+00
   387  3.8600000000000D+00  0.0000000000000D+00  0.0000000000000D+00
   388  3.8700000000000D+00  0.0000000000000D+00  0.0000000000000D+00
   389  3.8800000000000D+00  0.0000000000000D+00  0.0000000000000D+00
   390  3.8900000000000D+00  0.0000000000000D+00  0.0000000000000D+00
   391  3.9000000000000D+00  0.0000000000000D+00  0.0000000000000D+00
   392  3.9100000000000D+00  0.0000000000000D+00  0.0000000000000D+00
   393  3.9200000000000D+00  0.0000000000000D+00  0.0000000000000D+00
   394  3.9300000000000D+00  0.0000000000000D+00  0.0000000000000D+00
   395  3.9400000000000D+00  0.0000000000000D+00  0.0000000000000D+00
   396  3.9500000000000D+00  0.0000000000000D+00  0.0000000000000D+00
   397  3.9600000000000D+00  0.0000000000000D+00  0.0000000000000D+00
   398  3.9700000000000D+00  0.0000000000000D+00  0.0000000000000D+00
   399  3.9800000000000D+00  0.0000000000000D+00  0.0000000000000D+00
   400  3.9900000000000D+00  0.0000000000000D+00  0.0000000000000D+00
   401  4.0000000000000D+00  0.0000000000000D+00  0.0000000000000D+00
   402  4.0100000000000D+00  0.0000000000000D+00  0.0000000000000D+00
   403  4.0200000000000D+00  0.0000000000000D+00  0.0000000000000D+00
   404  4.0300000000000D+00  0.0000000000000D+00  0.0000000000000D+00
   405  4.0400000000000D+00  0.0000000000000D+00  0.0000000000000D+00
   406  4.0500000000000D+00  0.0000000000000D+00  0.0000000000000D+00
   407  4.0600000000000D+00  0.0000000000000D+00  0.0000000000000D+00
   408  4.0700000000000D+00  0.0000000000000D+00  0.0000000000000D+00
   409  4.0800000000000D+00  0.0000000000000D+00  0.0000000000000D+00
   410  4.0900000000000D+00  0.0000000000000D+00  0.0000000000000D+00
   411  4.1000000000000D+00  0.0000000000000D+00  0.0000000000000D+00
   412  4.1100000000000D+00  0.0000000000000D+00  0.0000000000000D+00
   413  4.1200000000000D+00  0.0000000000000D+00  0.0000000000000D+00
   414  4.1300000000000D+00  0.0000000000000D+00  0.0000000000000D+00
   415  4.1400000000000D+00  0.0000000000000D+00  0.0000000000000D+00
   416  4.1500000000000D+00  0.0000000000000D+00  0.0000000000000D+00
   417  4.1600000000000D+00  0.0000000000000D+00  0.0000000000000D+00
   418  4.1700000000000D+00  0.0000000000000D+00  0.0000000000000D+00
   419  4.1800000000000D+00  0.0000000000000D+00  0.0000000000000D+00
   420  4.1900000000000D+00  0.0000000000000D+00  0.0000000000000D+00
   421  4.2000000000000D+00  0.0000000000000D+00  0.0000000000000D+00
   422  4.2100000000000D+00  0.0000000000000D+00  0.0000000000000D+00