Xe    ONCVPSP-3.3.1  r_core=   3.01052   3.01052   2.70406
     54.0000     18.0000      210904    zatom,zion,pspd
     8      11   2     4   600     0    pspcod,pspxc,lmax,lloc,mmax,r2well
  5.99000000  0.00000000  0.00000000    rchrg fchrg qchrg
     2     2     2     0     0    nproj
     1     1           extension_switch
   0                         4.4791285439621D+00  4.7888690703271D-01
     1  0.0000000000000D+00  3.0431213104976D-13 -6.0917937361182D-13
     2  1.0000000000000D-02  3.1966435587381D-02 -1.6068326256970D-02
     3  2.0000000000000D-02  6.3911382297346D-02 -3.2111198177284D-02
     4  3.0000000000000D-02  9.5813364873821D-02 -4.8103184528691D-02
     5  4.0000000000000D-02  1.2765093531033D-01 -6.4018900298136D-02
     6  5.0000000000000D-02  1.5940268649199D-01 -7.9833029827116D-02
     7  6.0000000000000D-02  1.9104726585794D-01 -9.5520349977536D-02
     8  7.0000000000000D-02  2.2256338909062D-01 -1.1105575333741D-01
     9  8.0000000000000D-02  2.5392985383810D-01 -1.2641427147522D-01
    10  9.0000000000000D-02  2.8512555347509D-01 -1.4157109825086D-01
    11  1.0000000000000D-01  3.1612949090806D-01 -1.5650161319016D-01
    12  1.1000000000000D-01  3.4692079242922D-01 -1.7118140492892D-01
    13  1.2000000000000D-01  3.7747872162335D-01 -1.8558629473121D-01
    14  1.3000000000000D-01  4.0778269333131D-01 -1.9969236008496D-01
    15  1.4000000000000D-01  4.3781228767268D-01 -2.1347595837702D-01
    16  1.5000000000000D-01  4.6754726412976D-01 -2.2691375064747D-01
    17  1.6000000000000D-01  4.9696757569394D-01 -2.3998272542186D-01
    18  1.7000000000000D-01  5.2605338307477D-01 -2.5266022261779D-01
    19  1.8000000000000D-01  5.5478506897094D-01 -2.6492395752049D-01
    20  1.9000000000000D-01  5.8314325240159D-01 -2.7675204481995D-01
    21  2.0000000000000D-01  6.1110880309507D-01 -2.8812302270012D-01
    22  2.1000000000000D-01  6.3866285593149D-01 -2.9901587696829D-01
    23  2.2000000000000D-01  6.6578682543403D-01 -3.0941006521081D-01
    24  2.3000000000000D-01  6.9246242030303D-01 -3.1928554095873D-01
    25  2.4000000000000D-01  7.1867165798558D-01 -3.2862277784491D-01
    26  2.5000000000000D-01  7.4439687927235D-01 -3.3740279373137D-01
    27  2.6000000000000D-01  7.6962076291192D-01 -3.4560717478382D-01
    28  2.7000000000000D-01  7.9432634023203D-01 -3.5321809946729D-01
    29  2.8000000000000D-01  8.1849700975560D-01 -3.6021836243515D-01
    30  2.9000000000000D-01  8.4211655179851D-01 -3.6659139828073D-01
    31  3.0000000000000D-01  8.6516914303472D-01 -3.7232130511903D-01
    32  3.1000000000000D-01  8.8763937101323D-01 -3.7739286796329D-01
    33  3.2000000000000D-01  9.0951224861018D-01 -3.8179158185946D-01
    34  3.3000000000000D-01  9.3077322839838D-01 -3.8550367473892D-01
    35  3.4000000000000D-01  9.5140821691526D-01 -3.8851612994824D-01
    36  3.5000000000000D-01  9.7140358880936D-01 -3.9081670841249D-01
    37  3.6000000000000D-01  9.9074620084432D-01 -3.9239397038691D-01
    38  3.7000000000000D-01  1.0094234057385D+00 -3.9323729674997D-01
    39  3.8000000000000D-01  1.0274230658174D+00 -3.9333690978911D-01
    40  3.9000000000000D-01  1.0447335664546D+00 -3.9268389342925D-01
    41  4.0000000000000D-01  1.0613438292776D+00 -3.9127021285256D-01
    42  4.1000000000000D-01  1.0772433251124D+00 -3.8908873345682D-01
    43  4.2000000000000D-01  1.0924220866411D+00 -3.8613323909895D-01
    44  4.3000000000000D-01  1.1068707207463D+00 -3.8239844956911D-01
    45  4.4000000000000D-01  1.1205804205142D+00 -3.7788003724030D-01
    46  4.5000000000000D-01  1.1335429768705D+00 -3.7257464283785D-01
    47  4.6000000000000D-01  1.1457507898187D+00 -3.6647989027306D-01
    48  4.7000000000000D-01  1.1571968792550D+00 -3.5959440048479D-01
    49  4.8000000000000D-01  1.1678748953300D+00 -3.5191780423347D-01
    50  4.9000000000000D-01  1.1777791283292D+00 -3.4345075379178D-01
    51  5.0000000000000D-01  1.1869045180427D+00 -3.3419493347725D-01
    52  5.1000000000000D-01  1.1952466625981D+00 -3.2415306897251D-01
    53  5.2000000000000D-01  1.2028018267248D+00 -3.1332893537995D-01
    54  5.3000000000000D-01  1.2095669494253D+00 -3.0172736395889D-01
    55  5.4000000000000D-01  1.2155396510231D+00 -2.8935424749461D-01
    56  5.5000000000000D-01  1.2207182395618D+00 -2.7621654425026D-01
    57  5.6000000000000D-01  1.2251017165278D+00 -2.6232228045472D-01
    58  5.7000000000000D-01  1.2286897818713D+00 -2.4768055128109D-01
    59  5.8000000000000D-01  1.2314828383003D+00 -2.3230152027344D-01
    60  5.9000000000000D-01  1.2334819948233D+00 -2.1619641718125D-01
    61  6.0000000000000D-01  1.2346890695171D+00 -1.9937753416425D-01
    62  6.1000000000000D-01  1.2351065914984D+00 -1.8185822033279D-01
    63  6.2000000000000D-01  1.2347378020772D+00 -1.6365287459233D-01
    64  6.3000000000000D-01  1.2335866550724D+00 -1.4477693676376D-01
    65  6.4000000000000D-01  1.2316578162711D+00 -1.2524687695460D-01
    66  6.5000000000000D-01  1.2289566620151D+00 -1.0508018316001D-01
    67  6.6000000000000D-01  1.2254892768980D+00 -8.4295347076104D-02
    68  6.7000000000000D-01  1.2212624505592D+00 -6.2911848112152D-02
    69  6.8000000000000D-01  1.2162836735632D+00 -4.0950135592150D-02
    70  6.9000000000000D-01  1.2105611323522D+00 -1.8431609140703D-02
    71  7.0000000000000D-01  1.2041037032644D+00  4.6214027478147D-03
    72  7.1000000000000D-01  1.1969209456096D+00  2.8185665953140D-02
    73  7.2000000000000D-01  1.1890230937986D+00  5.2237065778088D-02
    74  7.3000000000000D-01  1.1804210485216D+00  7.6750633789898D-02
    75  7.4000000000000D-01  1.1711263669753D+00  1.0170057643661D-01
    76  7.5000000000000D-01  1.1611512521395D+00  1.2706030541650D-01
    77  7.6000000000000D-01  1.1505085411056D+00  1.5280246977375D-01
    78  7.7000000000000D-01  1.1392116924623D+00  1.7889898968880D-01
    79  7.8000000000000D-01  1.1272747727462D+00  2.0532109192707D-01
    80  7.9000000000000D-01  1.1147124419648D+00  2.3203934690499D-01
    81  8.0000000000000D-01  1.1015399382053D+00  2.5902370732743D-01
    82  8.1000000000000D-01  1.0877730613420D+00  2.8624354834603D-01
    83  8.2000000000000D-01  1.0734281558567D+00  3.1366770918340D-01
    84  8.3000000000000D-01  1.0585220927919D+00  3.4126453616308D-01
    85  8.4000000000000D-01  1.0430722508562D+00  3.6900192708151D-01
    86  8.5000000000000D-01  1.0270964967021D+00  3.9684737685303D-01
    87  8.6000000000000D-01  1.0106131644034D+00  4.2476802435520D-01
    88  8.7000000000000D-01  9.9364103415564D-01  4.5273070039736D-01
    89  8.8000000000000D-01  9.7619931022934D-01  4.8070197673163D-01
    90  8.9000000000000D-01  9.5830759820504D-01  5.0864821602130D-01
    91  9.0000000000000D-01  9.3998588152302D-01  5.3653562267840D-01
    92  9.1000000000000D-01  9.2125449738090D-01  5.6433029447838D-01
    93  9.2000000000000D-01  9.0213411201497D-01  5.9199827485693D-01
    94  9.3000000000000D-01  8.8264569540228D-01  6.1950560579072D-01
    95  9.4000000000000D-01  8.6281049542278D-01  6.4681838116096D-01
    96  9.5000000000000D-01  8.4265001152147D-01  6.7390280049652D-01
    97  9.6000000000000D-01  8.2218596791284D-01  7.0072522299059D-01
    98  9.7000000000000D-01  8.0144028637074D-01  7.2725222168298D-01
    99  9.8000000000000D-01  7.8043505864811D-01  7.5345063769853D-01
   100  9.9000000000000D-01  7.5919251857242D-01  7.7928763443029D-01
   101  1.0000000000000D+00  7.3773501386354D-01  8.0473075155526D-01
   102  1.0100000000000D+00  7.1608497772176D-01  8.2974795876926D-01
   103  1.0200000000000D+00  6.9426490023449D-01  8.5430770912700D-01
   104  1.0300000000000D+00  6.7229729965118D-01  8.7837899187315D-01
   105  1.0400000000000D+00  6.5020469357603D-01  9.0193138465007D-01
   106  1.0500000000000D+00  6.2800957012931D-01  9.2493510496834D-01
   107  1.0600000000000D+00  6.0573435912781D-01  9.4736106082659D-01
   108  1.0700000000000D+00  5.8340140333568D-01  9.6918090036831D-01
   109  1.0800000000000D+00  5.6103292983679D-01  9.9036706046430D-01
   110  1.0900000000000D+00  5.3865102157981D-01  1.0108928141113D+00
   111  1.1000000000000D+00  5.1627758914722D-01  1.0307323165389D+00
   112  1.1100000000000D+00  4.9393434279892D-01  1.0498606499191D+00
   113  1.1200000000000D+00  4.7164276484116D-01  1.0682538665757D+00
   114  1.1300000000000D+00  4.4942408237060D-01  1.0858890305923D+00
   115  1.1400000000000D+00  4.2729924044302D-01  1.1027442577227D+00
   116  1.1500000000000D+00  4.0528887571524D-01  1.1187987535096D+00
   117  1.1600000000000D+00  3.8341329060810D-01  1.1340328495205D+00
   118  1.1700000000000D+00  3.6169242803735D-01  1.1484280376148D+00
   119  1.1800000000000D+00  3.4014584675802D-01  1.1619670021609D+00
   120  1.1900000000000D+00  3.1879269736698D-01  1.1746336501239D+00
   121  1.2000000000000D+00  2.9765169900686D-01  1.1864131389520D+00
   122  1.2100000000000D+00  2.7674111681298D-01  1.1972919021927D+00
   123  1.2200000000000D+00  2.5607874014358D-01  1.2072576727761D+00
   124  1.2300000000000D+00  2.3568186163225D-01  1.2162995039071D+00
   125  1.2400000000000D+00  2.1556725709922D-01  1.2244077875140D+00
   126  1.2500000000000D+00  1.9575116635628D-01  1.2315742702086D+00
   127  1.2600000000000D+00  1.7624927493956D-01  1.2377920667129D+00
   128  1.2700000000000D+00  1.5707669680047D-01  1.2430556707219D+00
   129  1.2800000000000D+00  1.3824795798390D-01  1.2473609631718D+00
   130  1.2900000000000D+00  1.1977698132193D-01  1.2507052178895D+00
   131  1.3000000000000D+00  1.0167707216682D-01  1.2530871046085D+00
   132  1.3100000000000D+00  8.3960905185709D-02  1.2545066893428D+00
   133  1.3200000000000D+00  6.6640512239105D-02  1.2549654321095D+00
   134  1.3300000000000D+00  4.9727271359274D-02  1.2544661820093D+00
   135  1.3400000000000D+00  3.3231896844778D-02  1.2530131696704D+00
   136  1.3500000000000D+00  1.7164430485802D-02  1.2506119970693D+00
   137  1.3600000000000D+00  1.5342339284791D-03  1.2472696247565D+00
   138  1.3700000000000D+00 -1.3650017811034D-02  1.2429943565094D+00
   139  1.3800000000000D+00 -2.8380341677206D-02  1.2377958214469D+00
   140  1.3900000000000D+00 -4.2649450749560D-02  1.2316849536548D+00
   141  1.4000000000000D+00 -5.6450757254977D-02  1.2246739693537D+00
   142  1.4100000000000D+00 -6.9778374424337D-02  1.2167763416772D+00
   143  1.4200000000000D+00 -8.2627117194594D-02  1.2080067731091D+00
   144  1.4300000000000D+00 -9.4992501761748D-02  1.1983811656451D+00
   145  1.4400000000000D+00 -1.0687074399787D-01  1.1879165887557D+00
   146  1.4500000000000D+00 -1.1825875673617D-01  1.1766312452116D+00
   147  1.4600000000000D+00 -1.2915414594466D-01  1.1645444348663D+00
   148  1.4700000000000D+00 -1.3955520579890D-01  1.1516765164699D+00
   149  1.4800000000000D+00 -1.4946091267323D-01  1.1380488676070D+00
   150  1.4900000000000D+00 -1.5887091807262D-01  1.1236838428568D+00
   151  1.5000000000000D+00 -1.6778554052141D-01  1.1086047302620D+00
   152  1.5100000000000D+00 -1.7620575644132D-01  1.0928357062238D+00
   153  1.5200000000000D+00 -1.8413319003526D-01  1.0764017889104D+00
   154  1.5300000000000D+00 -1.9157010221347D-01  1.0593287903045D+00
   155  1.5400000000000D+00 -1.9851937858491D-01  1.0416432669872D+00
   156  1.5500000000000D+00 -2.0498451654928D-01  1.0233724697809D+00
   157  1.5600000000000D+00 -2.1096961152094D-01  1.0045442923634D+00
   158  1.5700000000000D+00 -2.1647934231830D-01  9.8518721897161D-01
   159  1.5800000000000D+00 -2.2151895575734D-01  9.6533027131589D-01
   160  1.5900000000000D+00 -2.2609425048144D-01  9.4500295482343D-01
   161  1.6000000000000D+00 -2.3021156007218D-01  9.2423520433472D-01
   162  1.6100000000000D+00 -2.3387773547273D-01  9.0305732937408D-01
   163  1.6200000000000D+00 -2.3710012677232D-01  8.8149995911523D-01
   164  1.6300000000000D+00 -2.3988656438464D-01  8.5959398716874D-01
   165  1.6400000000000D+00 -2.4224533966957D-01  8.3737051630476D-01
   166  1.6500000000000D+00 -2.4418518503413D-01  8.1486080324312D-01
   167  1.6600000000000D+00 -2.4571525356086D-01  7.9209620361584D-01
   168  1.6700000000000D+00 -2.4684509820293D-01  7.6910811723726D-01
   169  1.6800000000000D+00 -2.4758465059231D-01  7.4592793377724D-01
   170  1.6900000000000D+00 -2.4794419950324D-01  7.2258697897488D-01
   171  1.7000000000000D+00 -2.4793436901496D-01  6.9911646147618D-01
   172  1.7100000000000D+00 -2.4756609641854D-01  6.7554742043590D-01
   173  1.7200000000000D+00 -2.4685060990881D-01  6.5191067395102D-01
   174  1.7300000000000D+00 -2.4579940610855D-01  6.2823676847142D-01
   175  1.7400000000000D+00 -2.4442422746203D-01  6.0455592923289D-01
   176  1.7500000000000D+00 -2.4273703954816D-01  5.8089801186872D-01
   177  1.7600000000000D+00 -2.4075000834405D-01  5.5729245521414D-01
   178  1.7700000000000D+00 -2.3847547749438D-01  5.3376823547769D-01
   179  1.7800000000000D+00 -2.3592594560821D-01  5.1035382175411D-01
   180  1.7900000000000D+00 -2.3311404364483D-01  4.8707713307295D-01
   181  1.8000000000000D+00 -2.3005251240179D-01  4.6396549692545D-01
   182  1.8100000000000D+00 -2.2675418016860D-01  4.4104560946091D-01
   183  1.8200000000000D+00 -2.2323194055607D-01  4.1834349729118D-01
   184  1.8300000000000D+00 -2.1949873056029D-01  3.9588448106411D-01
   185  1.8400000000000D+00 -2.1556750887390D-01  3.7369314076368D-01
   186  1.8500000000000D+00 -2.1145123449243D-01  3.5179328284323D-01
   187  1.8600000000000D+00 -2.0716284563778D-01  3.3020790919327D-01
   188  1.8700000000000D+00 -2.0271523902742D-01  3.0895918796945D-01
   189  1.8800000000000D+00 -1.9812124952890D-01  2.8806842635174D-01
   190  1.8900000000000D+00 -1.9339363020063D-01  2.6755604515550D-01
   191  1.9000000000000D+00 -1.8854503278242D-01  2.4744155545127D-01
   192  1.9100000000000D+00 -1.8358798860709D-01  2.2774353701089D-01
   193  1.9200000000000D+00 -1.7853489001297D-01  2.0847961878735D-01
   194  1.9300000000000D+00 -1.7339797222004D-01  1.8966646122480D-01
   195  1.9400000000000D+00 -1.6818929573228D-01  1.7131974053750D-01
   196  1.9500000000000D+00 -1.6292072925622D-01  1.5345413485336D-01
   197  1.9600000000000D+00 -1.5760393315296D-01  1.3608331220674D-01
   198  1.9700000000000D+00 -1.5225034345909D-01  1.1921992042336D-01
   199  1.9800000000000D+00 -1.4687115643823D-01  1.0287557871029D-01
   200  1.9900000000000D+00 -1.4147731374129D-01  8.7060871118017D-02
   201  2.0000000000000D+00 -1.3607948810943D-01  7.1785341613691D-02
   202  2.0100000000000D+00 -1.3068806968583D-01  5.7057490886548D-02
   203  2.0200000000000D+00 -1.2531315290654D-01  4.2884774737861D-02
   204  2.0300000000000D+00 -1.1996452397384D-01  2.9273603997841D-02
   205  2.0400000000000D+00 -1.1465164894629D-01  1.6229345990871D-02
   206  2.0500000000000D+00 -1.0938366238447D-01  3.7563273345460D-03
   207  2.0600000000000D+00 -1.0416935662350D-01 -8.1421618284042D-03
   208  2.0700000000000D+00 -9.9017171606013D-02 -1.9463862378524D-02
   209  2.0800000000000D+00 -9.3935185304218D-02 -3.0207539555450D-02
   210  2.0900000000000D+00 -8.8931104731312D-02 -4.0372975149610D-02
   211  2.1000000000000D+00 -8.4012257491742D-02 -4.9960958704664D-02
   212  2.1100000000000D+00 -7.9185583928670D-02 -5.8973277712232D-02
   213  2.1200000000000D+00 -7.4457629795314D-02 -6.7412706970639D-02
   214  2.1300000000000D+00 -6.9834539477599D-02 -7.5282997149788D-02
   215  2.1400000000000D+00 -6.5322049755663D-02 -8.2588862654559D-02
   216  2.1500000000000D+00 -6.0925484061457D-02 -8.9335968879207D-02
   217  2.1600000000000D+00 -5.6649747267755D-02 -9.5530918948992D-02
   218  2.1700000000000D+00 -5.2499320952024D-02 -1.0118124001095D-01
   219  2.1800000000000D+00 -4.8478259142288D-02 -1.0629536918166D-01
   220  2.1900000000000D+00 -4.4590184533717D-02 -1.1088263925610D-01
   221  2.2000000000000D+00 -4.0838285144123D-02 -1.1495326417850D-01
   222  2.2100000000000D+00 -3.7225311411260D-02 -1.1851832449208D-01
   223  2.2200000000000D+00 -3.3753573705929D-02 -1.2158975273541D-01
   224  2.2300000000000D+00 -3.0424940248282D-02 -1.2418031886911D-01
   225  2.2400000000000D+00 -2.7240835410411D-02 -1.2630361594786D-01
   226  2.2500000000000D+00 -2.4202238395733D-02 -1.2797404588165D-01
   227  2.2600000000000D+00 -2.1309682270881D-02 -1.2920680555547D-01
   228  2.2700000000000D+00 -1.8563251930246D-02 -1.3001787864922D-01
   229  2.2800000000000D+00 -1.5962589343374D-02 -1.3042400149054D-01
   230  2.2900000000000D+00 -1.3506884691953D-02 -1.3044268377179D-01
   231  2.3000000000000D+00 -1.1194876343275D-02 -1.3009219768435D-01
   232  2.3100000000000D+00 -9.0248836867801D-03 -1.2939144695695D-01
   233  2.3200000000000D+00 -6.9947736734703D-03 -1.2836008075538D-01
   234  2.3300000000000D+00 -5.1019304607590D-03 -1.2701860525354D-01
   235  2.3400000000000D+00 -3.3432642463081D-03 -1.2538834670345D-01
   236  2.3500000000000D+00 -1.7153323559653D-03 -1.2349099190896D-01
   237  2.3600000000000D+00 -2.1438544482634D-04 -1.2134840281037D-01
   238  2.3700000000000D+00  1.1635588409040D-03 -1.1898235508933D-01
   239  2.3800000000000D+00  2.4226733372592D-03 -1.1641439896440D-01
   240  2.3900000000000D+00  3.5671472721296D-03 -1.1366522083300D-01
   241  2.4000000000000D+00  4.6012492170373D-03 -1.1075490509176D-01
   242  2.4100000000000D+00  5.5292958776889D-03 -1.0770284084986D-01
   243  2.4200000000000D+00  6.3556952528376D-03 -1.0452792328972D-01
   244  2.4300000000000D+00  7.0848787296164D-03 -1.0124831583161D-01
   245  2.4400000000000D+00  7.7213016593008D-03 -9.7881483488924D-02
   246  2.4500000000000D+00  8.2694374537250D-03 -9.4444200668904D-02
   247  2.4600000000000D+00  8.7337593246918D-03 -9.0952511906489D-02
   248  2.4700000000000D+00  9.1187302749644D-03 -8.7421725012351D-02
   249  2.4800000000000D+00  9.4287919094428D-03 -8.3866400182722D-02
   250  2.4900000000000D+00  9.6683538495540D-03 -8.0300341881155D-02
   251  2.5000000000000D+00  9.8417835566294D-03 -7.6736592707193D-02
   252  2.5100000000000D+00  9.9533966389158D-03 -7.3187429480041D-02
   253  2.5200000000000D+00  1.0007447781178D-02 -6.9664361987576D-02
   254  2.5300000000000D+00  1.0008122090591D-02 -6.6178133595343D-02
   255  2.5400000000000D+00  9.9595269400492D-03 -6.2738723958857D-02
   256  2.5500000000000D+00  9.8656844308560D-03 -5.9355354211453D-02
   257  2.5600000000000D+00  9.7305242758636D-03 -5.6036493875052D-02
   258  2.5700000000000D+00  9.5578771681602D-03 -5.2789869671903D-02
   259  2.5800000000000D+00  9.3514687592971D-03 -4.9622476597243D-02
   260  2.5900000000000D+00  9.1149140504456D-03 -4.6540590536539D-02
   261  2.6000000000000D+00  8.8517122368195D-03 -4.3549782516544D-02
   262  2.6100000000000D+00  8.5652421438488D-03 -4.0654934970172D-02
   263  2.6200000000000D+00  8.2587580587040D-03 -3.7860259333338D-02
   264  2.6300000000000D+00  7.9353859676808D-03 -3.5169314970065D-02
   265  2.6400000000000D+00  7.5981203574392D-03 -3.2585029820221D-02
   266  2.6500000000000D+00  7.2498213816428D-03 -3.0109722128114D-02
   267  2.6600000000000D+00  6.8932123877539D-03 -2.7745123214939D-02
   268  2.6700000000000D+00  6.5308779545357D-03 -2.5492401589819D-02
   269  2.6800000000000D+00  6.1652622557265D-03 -2.3352187873186D-02
   270  2.6900000000000D+00  5.7986677638131D-03 -2.1324600550347D-02
   271  2.7000000000000D+00  5.4332543559422D-03 -1.9409272539897D-02
   272  2.7100000000000D+00  5.0710387411403D-03 -1.7605378391492D-02
   273  2.7200000000000D+00  4.7138941509676D-03 -1.5911661918507D-02
   274  2.7300000000000D+00  4.3635503778250D-03 -1.4326464348189D-02
   275  2.7400000000000D+00  4.0215940820336D-03 -1.2847752729675D-02
   276  2.7500000000000D+00  3.6894693716046D-03 -1.1473148677148D-02
   277  2.7600000000000D+00  3.3684786353701D-03 -1.0199957258879D-02
   278  2.7700000000000D+00  3.0597834462299D-03 -9.0251952394143D-03
   279  2.7800000000000D+00  2.7644058304080D-03 -7.9456198446922D-03
   280  2.7900000000000D+00  2.4832293694290D-03 -6.9577562680561D-03
   281  2.8000000000000D+00  2.2170010501755D-03 -6.0579265467532D-03
   282  2.8100000000000D+00  1.9663327960527D-03 -5.2422765935361D-03
   283  2.8200000000000D+00  1.7317036394111D-03 -4.5068046003642D-03
   284  2.8300000000000D+00  1.5134613666788D-03 -3.8473864393482D-03
   285  2.8400000000000D+00  1.3118244578897D-03 -3.2598011059162D-03
   286  2.8500000000000D+00  1.1268840609469D-03 -2.7397553556809D-03
   287  2.8600000000000D+00  9.5860598723978D-04 -2.2829073372132D-03
   288  2.8700000000000D+00  8.0683302255719D-04 -1.8848900166806D-03
   289  2.8800000000000D+00  6.7128694619175D-04 -1.5413325986122D-03
   290  2.8900000000000D+00  5.5157100856157D-04 -1.2478826512237D-03
   291  2.9000000000000D+00  4.4717174646368D-04 -1.0002243209213D-03
   292  2.9100000000000D+00  3.5749700074238D-04 -7.9421965208518D-04
   293  2.9200000000000D+00  2.8177963280972D-04 -6.2558872837304D-04
   294  2.9300000000000D+00  2.1910275532621D-04 -4.9000476877870D-04
   295  2.9400000000000D+00  1.6847077147200D-04 -3.8336363125294D-04
   296  2.9500000000000D+00  1.2831204959951D-04 -3.0037935663759D-04
   297  2.9600000000000D+00  9.8503261834850D-05 -2.4028316771611D-04
   298  2.9700000000000D+00  7.8064368282172D-05 -2.0033017896470D-04
   299  2.9800000000000D+00  6.6709069054346D-05 -1.7997806220241D-04
   300  2.9900000000000D+00  6.1620644196625D-05 -1.7219153952052D-04
   301  3.0000000000000D+00  5.7974425252709D-05 -1.6477160736407D-04
   302  3.0100000000000D+00  5.2451550767562D-05 -1.4968951776893D-04
   303  3.0200000000000D+00  3.9455124475347D-05 -1.1278481224179D-04
   304  3.0300000000000D+00  2.3768922900218D-05 -6.7911223171418D-05
   305  3.0400000000000D+00  8.4534825876430D-06 -2.4115630450102D-05
   306  3.0500000000000D+00 -2.1645415472893D-06  6.2315136173402D-06
   307  3.0600000000000D+00 -5.2763122116438D-06  1.5197322844816D-05
   308  3.0700000000000D+00 -4.3323838118772D-06  1.2481751865218D-05
   309  3.0800000000000D+00 -1.1515380333725D-06  3.3180082208815D-06
   310  3.0900000000000D+00  7.5427468104443D-07 -2.1797735002454D-06
   311  3.1000000000000D+00  1.1904709704835D-06 -3.4421356683473D-06
   312  3.1100000000000D+00  8.3809893016226D-07 -2.4243771166835D-06
   313  3.1200000000000D+00  1.8333999562262D-08 -5.3055739328373D-08
   314  3.1300000000000D+00 -1.1637338818310D-07  3.3210866193112D-07
   315  3.1400000000000D+00 -1.4532098594759D-07  4.1471988525101D-07
   316  3.1500000000000D+00 -8.3601483871349D-08  2.3858355743914D-07
   317  3.1600000000000D+00  0.0000000000000D+00  0.0000000000000D+00
   318  3.1700000000000D+00  0.0000000000000D+00  0.0000000000000D+00
   319  3.1800000000000D+00  0.0000000000000D+00  0.0000000000000D+00
   320  3.1900000000000D+00  0.0000000000000D+00  0.0000000000000D+00
   321  3.2000000000000D+00  0.0000000000000D+00  0.0000000000000D+00
   322  3.2100000000000D+00  0.0000000000000D+00  0.0000000000000D+00
   323  3.2200000000000D+00  0.0000000000000D+00  0.0000000000000D+00
   324  3.2300000000000D+00  0.0000000000000D+00  0.0000000000000D+00
   325  3.2400000000000D+00  0.0000000000000D+00  0.0000000000000D+00
   326  3.2500000000000D+00  0.0000000000000D+00  0.0000000000000D+00
   327  3.2600000000000D+00  0.0000000000000D+00  0.0000000000000D+00
   328  3.2700000000000D+00  0.0000000000000D+00  0.0000000000000D+00
   329  3.2800000000000D+00  0.0000000000000D+00  0.0000000000000D+00
   330  3.2900000000000D+00  0.0000000000000D+00  0.0000000000000D+00
   331  3.3000000000000D+00  0.0000000000000D+00  0.0000000000000D+00
   332  3.3100000000000D+00  0.0000000000000D+00  0.0000000000000D+00
   333  3.3200000000000D+00  0.0000000000000D+00  0.0000000000000D+00
   334  3.3300000000000D+00  0.0000000000000D+00  0.0000000000000D+00
   335  3.3400000000000D+00  0.0000000000000D+00  0.0000000000000D+00
   336  3.3500000000000D+00  0.0000000000000D+00  0.0000000000000D+00
   337  3.3600000000000D+00  0.0000000000000D+00  0.0000000000000D+00
   338  3.3700000000000D+00  0.0000000000000D+00  0.0000000000000D+00
   339  3.3800000000000D+00  0.0000000000000D+00  0.0000000000000D+00
   340  3.3900000000000D+00  0.0000000000000D+00  0.0000000000000D+00
   341  3.4000000000000D+00  0.0000000000000D+00  0.0000000000000D+00
   342  3.4100000000000D+00  0.0000000000000D+00  0.0000000000000D+00
   343  3.4200000000000D+00  0.0000000000000D+00  0.0000000000000D+00
   344  3.4300000000000D+00  0.0000000000000D+00  0.0000000000000D+00
   345  3.4400000000000D+00  0.0000000000000D+00  0.0000000000000D+00
   346  3.4500000000000D+00  0.0000000000000D+00  0.0000000000000D+00
   347  3.4600000000000D+00  0.0000000000000D+00  0.0000000000000D+00
   348  3.4700000000000D+00  0.0000000000000D+00  0.0000000000000D+00
   349  3.4800000000000D+00  0.0000000000000D+00  0.0000000000000D+00
   350  3.4900000000000D+00  0.0000000000000D+00  0.0000000000000D+00
   351  3.5000000000000D+00  0.0000000000000D+00  0.0000000000000D+00
   352  3.5100000000000D+00  0.0000000000000D+00  0.0000000000000D+00
   353  3.5200000000000D+00  0.0000000000000D+00  0.0000000000000D+00
   354  3.5300000000000D+00  0.0000000000000D+00  0.0000000000000D+00
   355  3.5400000000000D+00  0.0000000000000D+00  0.0000000000000D+00
   356  3.5500000000000D+00  0.0000000000000D+00  0.0000000000000D+00
   357  3.5600000000000D+00  0.0000000000000D+00  0.0000000000000D+00
   358  3.5700000000000D+00  0.0000000000000D+00  0.0000000000000D+00
   359  3.5800000000000D+00  0.0000000000000D+00  0.0000000000000D+00
   360  3.5900000000000D+00  0.0000000000000D+00  0.0000000000000D+00
   361  3.6000000000000D+00  0.0000000000000D+00  0.0000000000000D+00
   362  3.6100000000000D+00  0.0000000000000D+00  0.0000000000000D+00
   363  3.6200000000000D+00  0.0000000000000D+00  0.0000000000000D+00
   364  3.6300000000000D+00  0.0000000000000D+00  0.0000000000000D+00
   365  3.6400000000000D+00  0.0000000000000D+00  0.0000000000000D+00
   366  3.6500000000000D+00  0.0000000000000D+00  0.0000000000000D+00
   367  3.6600000000000D+00  0.0000000000000D+00  0.0000000000000D+00
   368  3.6700000000000D+00  0.0000000000000D+00  0.0000000000000D+00
   369  3.6800000000000D+00  0.0000000000000D+00  0.0000000000000D+00
   370  3.6900000000000D+00  0.0000000000000D+00  0.0000000000000D+00
   371  3.7000000000000D+00  0.0000000000000D+00  0.0000000000000D+00
   372  3.7100000000000D+00  0.0000000000000D+00  0.0000000000000D+00
   373  3.7200000000000D+00  0.0000000000000D+00  0.0000000000000D+00
   374  3.7300000000000D+00  0.0000000000000D+00  0.0000000000000D+00
   375  3.7400000000000D+00  0.0000000000000D+00  0.0000000000000D+00
   376  3.7500000000000D+00  0.0000000000000D+00  0.0000000000000D+00
   377  3.7600000000000D+00  0.0000000000000D+00  0.0000000000000D+00
   378  3.7700000000000D+00  0.0000000000000D+00  0.0000000000000D+00
   379  3.7800000000000D+00  0.0000000000000D+00  0.0000000000000D+00
   380  3.7900000000000D+00  0.0000000000000D+00  0.0000000000000D+00
   381  3.8000000000000D+00  0.0000000000000D+00  0.0000000000000D+00
   382  3.8100000000000D+00  0.0000000000000D+00  0.0000000000000D+00
   383  3.8200000000000D+00  0.0000000000000D+00  0.0000000000000D+00
   384  3.8300000000000D+00  0.0000000000000D+00  0.0000000000000D+00
   385  3.8400000000000D+00  0.0000000000000D+00  0.0000000000000D+00
   386  3.8500000000000D+00  0.0000000000000D+00  0.0000000000000D+00
   387  3.8600000000000D+00  0.0000000000000D+00  0.0000000000000D+00
   388  3.8700000000000D+00  0.0000000000000D+00  0.0000000000000D+00
   389  3.8800000000000D+00  0.0000000000000D+00  0.0000000000000D+00
   390  3.8900000000000D+00  0.0000000000000D+00  0.0000000000000D+00
   391  3.9000000000000D+00  0.0000000000000D+00  0.0000000000000D+00
   392  3.9100000000000D+00  0.0000000000000D+00  0.0000000000000D+00
   393  3.9200000000000D+00  0.0000000000000D+00  0.0000000000000D+00
   394  3.9300000000000D+00  0.0000000000000D+00  0.0000000000000D+00
   395  3.9400000000000D+00  0.0000000000000D+00  0.0000000000000D+00
   396  3.9500000000000D+00  0.0000000000000D+00  0.0000000000000D+00
   397  3.9600000000000D+00  0.0000000000000D+00  0.0000000000000D+00
   398  3.9700000000000D+00  0.0000000000000D+00  0.0000000000000D+00
   399  3.9800000000000D+00  0.0000000000000D+00  0.0000000000000D+00
   400  3.9900000000000D+00  0.0000000000000D+00  0.0000000000000D+00
   401  4.0000000000000D+00  0.0000000000000D+00  0.0000000000000D+00
   402  4.0100000000000D+00  0.0000000000000D+00  0.0000000000000D+00
   403  4.0200000000000D+00  0.0000000000000D+00  0.0000000000000D+00
   404  4.0300000000000D+00  0.0000000000000D+00  0.0000000000000D+00
   405  4.0400000000000D+00  0.0000000000000D+00  0.0000000000000D+00
   406  4.0500000000000D+00  0.0000000000000D+00  0.0000000000000D+00
   407  4.0600000000000D+00  0.0000000000000D+00  0.0000000000000D+00
   408  4.0700000000000D+00  0.0000000000000D+00  0.0000000000000D+00
   409  4.0800000000000D+00  0.0000000000000D+00  0.0000000000000D+00
   410  4.0900000000000D+00  0.0000000000000D+00  0.0000000000000D+00
   411  4.1000000000000D+00  0.0000000000000D+00  0.0000000000000D+00
   412  4.1100000000000D+00  0.0000000000000D+00  0.0000000000000D+00
   413  4.1200000000000D+00  0.0000000000000D+00  0.0000000000000D+00
   414  4.1300000000000D+00  0.0000000000000D+00  0.0000000000000D+00
   415  4.1400000000000D+00  0.0000000000000D+00  0.0000000000000D+00
   416  4.1500000000000D+00  0.0000000000000D+00  0.0000000000000D+00
   417  4.1600000000000D+00  0.0000000000000D+00  0.0000000000000D+00
   418  4.1700000000000D+00  0.0000000000000D+00  0.0000000000000D+00
   419  4.1800000000000D+00  0.0000000000000D+00  0.0000000000000D+00
   420  4.1900000000000D+00  0.0000000000000D+00  0.0000000000000D+00
   421  4.2000000000000D+00  0.0000000000000D+00  0.0000000000000D+00
   422  4.2100000000000D+00  0.0000000000000D+00  0.0000000000000D+00