Zn    ONCVPSP-3.3.1  r_core=   1.96594   2.08676   2.08676
     30.0000     20.0000      210904    zatom,zion,pspd
     8      11   2     4   600     0    pspcod,pspxc,lmax,lloc,mmax,r2well
  5.99000000  0.00000000  0.00000000    rchrg fchrg qchrg
     2     2     2     0     0    nproj
     1     1           extension_switch
   0                        -3.8307959773043D+00 -2.9680098421359D-01
     1  0.0000000000000D+00 -7.4777961600603D-12 -1.9040808513227D-10
     2  1.0000000000000D-02  4.2335353172536D-02 -6.5424937333032D-03
     3  2.0000000000000D-02  8.4625350202869D-02 -1.3173997049188D-02
     4  3.0000000000000D-02  1.2682471247040D-01 -1.9982596052740D-02
     5  4.0000000000000D-02  1.6888831612189D-01 -2.7054536796635D-02
     6  5.0000000000000D-02  2.1077126876735D-01 -3.4473322462959D-02
     7  6.0000000000000D-02  2.5242898535601D-01 -4.2318831059347D-02
     8  7.0000000000000D-02  2.9381726296774D-01 -5.0666460243003D-02
     9  8.0000000000000D-02  3.3489235426307D-01 -5.9586305695765D-02
    10  9.0000000000000D-02  3.7561103934376D-01 -6.9142379237746D-02
    11  1.0000000000000D-01  4.1593069578737D-01 -7.9391872588010D-02
    12  1.1000000000000D-01  4.5580936663109D-01 -9.0384472360067D-02
    13  1.2000000000000D-01  4.9520582609461D-01 -1.0216173151996D-01
    14  1.3000000000000D-01  5.3407964284685D-01 -1.1475650213777D-01
    15  1.4000000000000D-01  5.7239124063809D-01 -1.2819243383245D-01
    16  1.5000000000000D-01  6.1010195613658D-01 -1.4248354184744D-01
    17  1.6000000000000D-01  6.4717409382749D-01 -1.5763384820489D-01
    18  1.7000000000000D-01  6.8357097785142D-01 -1.7363709887103D-01
    19  1.8000000000000D-01  7.1925700067979D-01 -1.9047655933005D-01
    20  1.9000000000000D-01  7.5419766854494D-01 -2.0812489041072D-01
    21  2.0000000000000D-01  7.8835964356369D-01 -2.2654410564345D-01
    22  2.1000000000000D-01  8.2171078251408D-01 -2.4568561084989D-01
    23  2.2000000000000D-01  8.5422017224583D-01 -2.6549032608540D-01
    24  2.3000000000000D-01  8.8585816172600D-01 -2.8588888947218D-01
    25  2.4000000000000D-01  9.1659639074143D-01 -3.0680194188000D-01
    26  2.5000000000000D-01  9.4640781529950D-01 -3.2814049083836D-01
    27  2.6000000000000D-01  9.7526672978760D-01 -3.4980635150015D-01
    28  2.7000000000000D-01  1.0031487859700D+00 -3.7169266192864D-01
    29  2.8000000000000D-01  1.0300310089179D+00 -3.9368446944933D-01
    30  2.9000000000000D-01  1.0558918099844D+00 -4.1565938429959D-01
    31  3.0000000000000D-01  1.0807109969503D+00 -4.3748829632686D-01
    32  3.1000000000000D-01  1.1044697814813D+00 -4.5903615003213D-01
    33  3.2000000000000D-01  1.1271507840465D+00 -4.8016277283404D-01
    34  3.3000000000000D-01  1.1487380364599D+00 -5.0072375104243D-01
    35  3.4000000000000D-01  1.1692169822153D+00 -5.2057134768161D-01
    36  3.5000000000000D-01  1.1885744747886D+00 -5.3955545599515D-01
    37  3.6000000000000D-01  1.2067987740902D+00 -5.5752458219818D-01
    38  3.7000000000000D-01  1.2238795412498D+00 -5.7432685082151D-01
    39  3.8000000000000D-01  1.2398078319177D+00 -5.8981102581626D-01
    40  3.9000000000000D-01  1.2545760882674D+00 -6.0382754045889D-01
    41  4.0000000000000D-01  1.2681781298776D+00 -6.1622952901655D-01
    42  4.1000000000000D-01  1.2806091436719D+00 -6.2687385310021D-01
    43  4.2000000000000D-01  1.2918656730825D+00 -6.3562211565077D-01
    44  4.3000000000000D-01  1.3019456066017D+00 -6.4234165556888D-01
    45  4.4000000000000D-01  1.3108481658692D+00 -6.4690651611363D-01
    46  4.5000000000000D-01  1.3185738934363D+00 -6.4919838035773D-01
    47  4.6000000000000D-01  1.3251246403328D+00 -6.4910746719446D-01
    48  4.7000000000000D-01  1.3305035535479D+00 -6.4653338164620D-01
    49  4.8000000000000D-01  1.3347150635227D+00 -6.4138591352078D-01
    50  4.9000000000000D-01  1.3377648717327D+00 -6.3358577880062D-01
    51  5.0000000000000D-01  1.3396599384238D+00 -6.2306529852622D-01
    52  5.1000000000000D-01  1.3404084705454D+00 -6.0976901035025D-01
    53  5.2000000000000D-01  1.3400199099053D+00 -5.9365420838448D-01
    54  5.3000000000000D-01  1.3385049215543D+00 -5.7469140744008D-01
    55  5.4000000000000D-01  1.3358753823854D+00 -5.5286472826580D-01
    56  5.5000000000000D-01  1.3321443699166D+00 -5.2817220091695D-01
    57  5.6000000000000D-01  1.3273261512059D+00 -5.0062598393557D-01
    58  5.7000000000000D-01  1.3214361718272D+00 -4.7025249758651D-01
    59  5.8000000000000D-01  1.3144910448209D+00 -4.3709246996955D-01
    60  5.9000000000000D-01  1.3065085395118D+00 -4.0120089541239D-01
    61  6.0000000000000D-01  1.2975075700741D+00 -3.6264690513628D-01
    62  6.1000000000000D-01  1.2875081837067D+00 -3.2151355077557D-01
    63  6.2000000000000D-01  1.2765315482666D+00 -2.7789750191346D-01
    64  6.3000000000000D-01  1.2645999392001D+00 -2.3190865937492D-01
    65  6.4000000000000D-01  1.2517367255960D+00 -1.8366968657719D-01
    66  6.5000000000000D-01  1.2379663551801D+00 -1.3331546178732D-01
    67  6.6000000000000D-01  1.2233143380599D+00 -8.0992454662452D-02
    68  6.7000000000000D-01  1.2078072290275D+00 -2.6858030950037D-02
    69  6.8000000000000D-01  1.1914726082215D+00  2.8920310297469D-02
    70  6.9000000000000D-01  1.1743390599510D+00  8.6165762194812D-02
    71  7.0000000000000D-01  1.1564361494857D+00  1.4469309297199D-01
    72  7.1000000000000D-01  1.1377943976195D+00  2.0430958081390D-01
    73  7.2000000000000D-01  1.1184452528218D+00  2.6481599466876D-01
    74  7.3000000000000D-01  1.0984210607976D+00  3.2600761480959D-01
    75  7.4000000000000D-01  1.0777550312924D+00  3.8767528668062D-01
    76  7.5000000000000D-01  1.0564812019843D+00  4.4960650135439D-01
    77  7.6000000000000D-01  1.0346343993278D+00  5.1158649576483D-01
    78  7.7000000000000D-01  1.0122501962266D+00  5.7339936576883D-01
    79  7.8000000000000D-01  9.8936486643291D-01  6.3482918502368D-01
    80  7.9000000000000D-01  9.6601533559329D-01  6.9566112265140D-01
    81  8.0000000000000D-01  9.4223912888272D-01  7.5568255269261D-01
    82  8.1000000000000D-01  9.1807431519296D-01  8.1468414843209D-01
    83  8.2000000000000D-01  8.9355944786809D-01  8.7246095480524D-01
    84  8.3000000000000D-01  8.6873350200632D-01  9.2881343226735D-01
    85  8.4000000000000D-01  8.4363580837589D-01  9.8354846572566D-01
    86  8.5000000000000D-01  8.1830598402141D-01  1.0364803323947D+00
    87  8.6000000000000D-01  7.9278385966665D-01  1.0874316227376D+00
    88  8.7000000000000D-01  7.6710940404963D-01  1.1362341089958D+00
    89  8.8000000000000D-01  7.4132264535567D-01  1.1827295561882D+00
    90  8.9000000000000D-01  7.1546358994385D-01  1.2267704708678D+00
    91  9.0000000000000D-01  6.8957213859188D-01  1.2682207833674D+00
    92  9.1000000000000D-01  6.6368800051257D-01  1.3069564597306D+00
    93  9.2000000000000D-01  6.3785060542353D-01  1.3428660400162D+00
    94  9.3000000000000D-01  6.1209901397765D-01  1.3758511001752D+00
    95  9.4000000000000D-01  5.8647182688764D-01  1.4058266352236D+00
    96  9.5000000000000D-01  5.6100709310103D-01  1.4327213619776D+00
    97  9.6000000000000D-01  5.3574221740392D-01  1.4564779401583D+00
    98  9.7000000000000D-01  5.1071386785123D-01  1.4770531112359D+00
    99  9.8000000000000D-01  4.8595788343830D-01  1.4944177549176D+00
   100  9.9000000000000D-01  4.6150918244346D-01  1.5085568637493D+00
   101  1.0000000000000D+00  4.3740167188347D-01  1.5194694368329D+00
   102  1.0100000000000D+00  4.1366815853241D-01  1.5271682941902D+00
   103  1.0200000000000D+00  3.9034026196123D-01  1.5316798138216D+00
   104  1.0300000000000D+00  3.6744833005818D-01  1.5330435939998D+00
   105  1.0400000000000D+00  3.4502135748984D-01  1.5313120438246D+00
   106  1.0500000000000D+00  3.2308690756006D-01  1.5265499054781D+00
   107  1.0600000000000D+00  3.0167103791650D-01  1.5188337120870D+00
   108  1.0700000000000D+00  2.8079823054506D-01  1.5082511854518D+00
   109  1.0800000000000D+00  2.6049132647927D-01  1.4949005782665D+00
   110  1.0900000000000D+00  2.4077146563354D-01  1.4788899657845D+00
   111  1.1000000000000D+00  2.2165803215322D-01  1.4603364921258D+00
   112  1.1100000000000D+00  2.0316860564677D-01  1.4393655767177D+00
   113  1.1200000000000D+00  1.8531891864298D-01  1.4161100865151D+00
   114  1.1300000000000D+00  1.6812282058336D-01  1.3907094798254D+00
   115  1.1400000000000D+00  1.5159224863394D-01  1.3633089276603D+00
   116  1.1500000000000D+00  1.3573720556172D-01  1.3340584186275D+00
   117  1.1600000000000D+00  1.2056574488621D-01  1.3031118533914D+00
   118  1.1700000000000D+00  1.0608396347347D-01  1.2706261347010D+00
   119  1.1800000000000D+00  9.2296001711905D-02  1.2367602589572D+00
   120  1.1900000000000D+00  7.9204051352686D-02  1.2016744151713D+00
   121  1.2000000000000D+00  6.6808371059851D-02  1.1655290970182D+00
   122  1.2100000000000D+00  5.5107309669807D-02  1.1284842335020D+00
   123  1.2200000000000D+00  4.4097337124188D-02  1.0906983436103D+00
   124  1.2300000000000D+00  3.3773082976783D-02  1.0523277199799D+00
   125  1.2400000000000D+00  2.4127382332711D-02  1.0135256462876D+00
   126  1.2500000000000D+00  1.5151329060354D-02  9.7444165300976D-01
   127  1.2600000000000D+00  6.8343360292981D-03  9.3522081554143D-01
   128  1.2700000000000D+00 -8.3579789818444D-04  8.9600309837704D-01
   129  1.2800000000000D+00 -7.8728144137262D-03  8.5692274894897D-01
   130  1.2900000000000D+00 -1.4291916221251D-02  8.1810774393611D-01
   131  1.3000000000000D+00 -2.0109681806205D-02  7.7967929047972D-01
   132  1.3100000000000D+00 -2.5343974920211D-02  7.4175138477441D-01
   133  1.3200000000000D+00 -3.0013849272931D-02  7.0443042943103D-01
   134  1.3300000000000D+00 -3.4139448926407D-02  6.6781491079241D-01
   135  1.3400000000000D+00 -3.7741904897152D-02  6.3199513742222D-01
   136  1.3500000000000D+00 -4.0843228547884D-02  5.9705303963782D-01
   137  1.3600000000000D+00 -4.3466202325805D-02  5.6306203023651D-01
   138  1.3700000000000D+00 -4.5634268441825D-02  5.3008692610644D-01
   139  1.3800000000000D+00 -4.7371416110547D-02  4.9818392932352D-01
   140  1.3900000000000D+00 -4.8702067954628D-02  4.6740066697819D-01
   141  1.4000000000000D+00 -4.9650966214641D-02  4.3777628773701D-01
   142  1.4100000000000D+00 -5.0243059377682D-02  4.0934161300773D-01
   143  1.4200000000000D+00 -5.0503389869428D-02  3.8211934082925D-01
   144  1.4300000000000D+00 -5.0456983411022D-02  3.5612429915060D-01
   145  1.4400000000000D+00 -5.0128740666682D-02  3.3136374613496D-01
   146  1.4500000000000D+00 -4.9543331780650D-02  3.0783771395162D-01
   147  1.4600000000000D+00 -4.8725094350285D-02  2.8553939267278D-01
   148  1.4700000000000D+00 -4.7697935459892D-02  2.6445555089696D-01
   149  1.4800000000000D+00 -4.6485238203677D-02  2.4456698897324D-01
   150  1.4900000000000D+00 -4.5109773315121D-02  2.2584902134457D-01
   151  1.5000000000000D+00 -4.3593616265173D-02  2.0827198371740D-01
   152  1.5100000000000D+00 -4.1958070321146D-02  1.9180176129253D-01
   153  1.5200000000000D+00 -4.0223595958795D-02  1.7640033381719D-01
   154  1.5300000000000D+00 -3.8409746896806D-02  1.6202633369575D-01
   155  1.5400000000000D+00 -3.6535113221604D-02  1.4863561278941D-01
   156  1.5500000000000D+00 -3.4617271606374D-02  1.3618181463220D-01
   157  1.5600000000000D+00 -3.2672743156893D-02  1.2461694740815D-01
   158  1.5700000000000D+00 -3.0716958681062D-02  1.1389195508441D-01
   159  1.5800000000000D+00 -2.8764231841531D-02  1.0395728208625D-01
   160  1.5900000000000D+00 -2.6827739930267D-02  9.4763429283855D-02
   161  1.6000000000000D+00 -2.4919512527841D-02  8.6261497234936D-02
   162  1.6100000000000D+00 -2.3050427797152D-02  7.8403714559378D-02
   163  1.6200000000000D+00 -2.1230216446481D-02  7.1143948294112D-02
   164  1.6300000000000D+00 -1.9467473243285D-02  6.4438199759224D-02
   165  1.6400000000000D+00 -1.7769675212089D-02  5.8245049149399D-02
   166  1.6500000000000D+00 -1.6143208744699D-02  5.2526169779062D-02
   167  1.6600000000000D+00 -1.4593398420047D-02  4.7246572312527D-02
   168  1.6700000000000D+00 -1.3124546950704D-02  4.2375046442524D-02
   169  1.6800000000000D+00 -1.1739993083605D-02  3.7885198703975D-02
   170  1.6900000000000D+00 -1.0442140810846D-02  3.3754718713777D-02
   171  1.7000000000000D+00 -9.2324815323738D-03  2.9963977221543D-02
   172  1.7100000000000D+00 -8.1116269753075D-03  2.6495016147356D-02
   173  1.7200000000000D+00 -7.0793333891512D-03  2.3329912870111D-02
   174  1.7300000000000D+00 -6.1345577721623D-03  2.0450549160123D-02
   175  1.7400000000000D+00 -5.2755354722604D-03  1.7839313926757D-02
   176  1.7500000000000D+00 -4.4998481703384D-03  1.5479139594857D-02
   177  1.7600000000000D+00 -3.8044934015370D-03  1.3353475772251D-02
   178  1.7700000000000D+00 -3.1859585769755D-03  1.1446406481456D-02
   179  1.7800000000000D+00 -2.6402944137313D-03  9.7426678343758D-03
   180  1.7900000000000D+00 -2.1631891696673D-03  8.2276770763991D-03
   181  1.8000000000000D+00 -1.7500424038450D-03  6.8875385306199D-03
   182  1.8100000000000D+00 -1.3960378448297D-03  5.7090352240098D-03
   183  1.8200000000000D+00 -1.0962146114247D-03  4.6796070782518D-03
   184  1.8300000000000D+00 -8.4553654718401D-04  3.7873181358848D-03
   185  1.8400000000000D+00 -6.3895860296606D-04  3.0208144395746D-03
   186  1.8500000000000D+00 -4.7149050838609D-04  2.3692739358432D-03
   187  1.8600000000000D+00 -3.3825629042965D-04  1.8223514157238D-03
   188  1.8700000000000D+00 -2.3455025155748D-04  1.3701183713543D-03
   189  1.8800000000000D+00 -1.5588796710018D-04  1.0030016778370D-03
   190  1.8900000000000D+00 -9.8052802302926D-05  7.1172046203709D-04
   191  1.9000000000000D+00 -5.7132268489609D-05  4.8724445200686D-04
   192  1.9100000000000D+00 -2.9565325470971D-05  3.2068480331363D-04
   193  1.9200000000000D+00 -1.2190524520428D-05  2.0314432066317D-04
   194  1.9300000000000D+00 -2.2759731773080D-06  1.2540710723836D-04
   195  1.9400000000000D+00  2.7921643118991D-06  8.0562353106881D-05
   196  1.9500000000000D+00  5.1532657602111D-06  6.1891747983351D-05
   197  1.9600000000000D+00  5.6344411398581D-06  5.4344072000219D-05
   198  1.9700000000000D+00  4.3743940121997D-06  4.1527940261366D-05
   199  1.9800000000000D+00  1.9888164703454D-06  1.9287285378374D-05
   200  1.9900000000000D+00 -5.1840240532756D-08 -4.7910198897414D-07
   201  2.0000000000000D+00 -5.3984394723187D-07 -5.0115013134204D-06
   202  2.0100000000000D+00 -1.8746026291961D-07 -1.7508471992575D-06
   203  2.0200000000000D+00  1.0637554069560D-07  9.2120696421326D-07
   204  2.0300000000000D+00  9.9476190325364D-08  8.5697058443046D-07
   205  2.0400000000000D+00 -5.2029513770437D-09 -4.9455526055339D-08
   206  2.0500000000000D+00 -1.4526787986357D-08 -1.3808123307274D-07
   207  2.0600000000000D+00 -3.5284008001632D-09 -3.3538448672819D-08
   208  2.0700000000000D+00  0.0000000000000D+00  0.0000000000000D+00
   209  2.0800000000000D+00  0.0000000000000D+00  0.0000000000000D+00
   210  2.0900000000000D+00  0.0000000000000D+00  0.0000000000000D+00
   211  2.1000000000000D+00  0.0000000000000D+00  0.0000000000000D+00
   212  2.1100000000000D+00  0.0000000000000D+00  0.0000000000000D+00
   213  2.1200000000000D+00  0.0000000000000D+00  0.0000000000000D+00
   214  2.1300000000000D+00  0.0000000000000D+00  0.0000000000000D+00
   215  2.1400000000000D+00  0.0000000000000D+00  0.0000000000000D+00
   216  2.1500000000000D+00  0.0000000000000D+00  0.0000000000000D+00
   217  2.1600000000000D+00  0.0000000000000D+00  0.0000000000000D+00
   218  2.1700000000000D+00  0.0000000000000D+00  0.0000000000000D+00
   219  2.1800000000000D+00  0.0000000000000D+00  0.0000000000000D+00
   220  2.1900000000000D+00  0.0000000000000D+00  0.0000000000000D+00
   221  2.2000000000000D+00  0.0000000000000D+00  0.0000000000000D+00
   222  2.2100000000000D+00  0.0000000000000D+00  0.0000000000000D+00
   223  2.2200000000000D+00  0.0000000000000D+00  0.0000000000000D+00
   224  2.2300000000000D+00  0.0000000000000D+00  0.0000000000000D+00
   225  2.2400000000000D+00  0.0000000000000D+00  0.0000000000000D+00
   226  2.2500000000000D+00  0.0000000000000D+00  0.0000000000000D+00
   227  2.2600000000000D+00  0.0000000000000D+00  0.0000000000000D+00
   228  2.2700000000000D+00  0.0000000000000D+00  0.0000000000000D+00
   229  2.2800000000000D+00  0.0000000000000D+00  0.0000000000000D+00
   230  2.2900000000000D+00  0.0000000000000D+00  0.0000000000000D+00
   231  2.3000000000000D+00  0.0000000000000D+00  0.0000000000000D+00
   232  2.3100000000000D+00  0.0000000000000D+00  0.0000000000000D+00
   233  2.3200000000000D+00  0.0000000000000D+00  0.0000000000000D+00
   234  2.3300000000000D+00  0.0000000000000D+00  0.0000000000000D+00
   235  2.3400000000000D+00  0.0000000000000D+00  0.0000000000000D+00
   236  2.3500000000000D+00  0.0000000000000D+00  0.0000000000000D+00
   237  2.3600000000000D+00  0.0000000000000D+00  0.0000000000000D+00
   238  2.3700000000000D+00  0.0000000000000D+00  0.0000000000000D+00
   239  2.3800000000000D+00  0.0000000000000D+00  0.0000000000000D+00
   240  2.3900000000000D+00  0.0000000000000D+00  0.0000000000000D+00
   241  2.4000000000000D+00  0.0000000000000D+00  0.0000000000000D+00
   242  2.4100000000000D+00  0.0000000000000D+00  0.0000000000000D+00
   243  2.4200000000000D+00  0.0000000000000D+00  0.0000000000000D+00
   244  2.4300000000000D+00  0.0000000000000D+00  0.0000000000000D+00
   245  2.4400000000000D+00  0.0000000000000D+00  0.0000000000000D+00
   246  2.4500000000000D+00  0.0000000000000D+00  0.0000000000000D+00
   247  2.4600000000000D+00  0.0000000000000D+00  0.0000000000000D+00
   248  2.4700000000000D+00  0.0000000000000D+00  0.0000000000000D+00
   249  2.4800000000000D+00  0.0000000000000D+00  0.0000000000000D+00
   250  2.4900000000000D+00  0.0000000000000D+00  0.0000000000000D+00
   251  2.5000000000000D+00  0.0000000000000D+00  0.0000000000000D+00
   252  2.5100000000000D+00  0.0000000000000D+00  0.0000000000000D+00
   253  2.5200000000000D+00  0.0000000000000D+00  0.0000000000000D+00
   254  2.5300000000000D+00  0.0000000000000D+00  0.0000000000000D+00
   255  2.5400000000000D+00  0.0000000000000D+00  0.0000000000000D+00
   256  2.5500000000000D+00  0.0000000000000D+00  0.0000000000000D+00
   257  2.5600000000000D+00  0.0000000000000D+00  0.0000000000000D+00
   258  2.5700000000000D+00  0.0000000000000D+00  0.0000000000000D+00
   259  2.5800000000000D+00  0.0000000000000D+00  0.0000000000000D+00
   260  2.5900000000000D+00  0.0000000000000D+00  0.0000000000000D+00
   261  2.6000000000000D+00  0.0000000000000D+00  0.0000000000000D+00
   262  2.6100000000000D+00  0.0000000000000D+00  0.0000000000000D+00
   263  2.6200000000000D+00  0.0000000000000D+00  0.0000000000000D+00
   264  2.6300000000000D+00  0.0000000000000D+00  0.0000000000000D+00
   265  2.6400000000000D+00  0.0000000000000D+00  0.0000000000000D+00
   266  2.6500000000000D+00  0.0000000000000D+00  0.0000000000000D+00
   267  2.6600000000000D+00  0.0000000000000D+00  0.0000000000000D+00
   268  2.6700000000000D+00  0.0000000000000D+00  0.0000000000000D+00
   269  2.6800000000000D+00  0.0000000000000D+00  0.0000000000000D+00
   270  2.6900000000000D+00  0.0000000000000D+00  0.0000000000000D+00
   271  2.7000000000000D+00  0.0000000000000D+00  0.0000000000000D+00
   272  2.7100000000000D+00  0.0000000000000D+00  0.0000000000000D+00
   273  2.7200000000000D+00  0.0000000000000D+00  0.0000000000000D+00
   274  2.7300000000000D+00  0.0000000000000D+00  0.0000000000000D+00
   275  2.7400000000000D+00  0.0000000000000D+00  0.0000000000000D+00
   276  2.7500000000000D+00  0.0000000000000D+00  0.0000000000000D+00
   277  2.7600000000000D+00  0.0000000000000D+00  0.0000000000000D+00
   278  2.7700000000000D+00  0.0000000000000D+00  0.0000000000000D+00
   279  2.7800000000000D+00  0.0000000000000D+00  0.0000000000000D+00
   280  2.7900000000000D+00  0.0000000000000D+00  0.0000000000000D+00
   281  2.8000000000000D+00  0.0000000000000D+00  0.0000000000000D+00
   282  2.8100000000000D+00  0.0000000000000D+00  0.0000000000000D+00
   283  2.8200000000000D+00  0.0000000000000D+00  0.0000000000000D+00
   284  2.8300000000000D+00  0.0000000000000D+00  0.0000000000000D+00
   285  2.8400000000000D+00  0.0000000000000D+00  0.0000000000000D+00
   286  2.8500000000000D+00  0.0000000000000D+00  0.0000000000000D+00
   287  2.8600000000000D+00  0.0000000000000D+00  0.0000000000000D+00
   288  2.8700000000000D+00  0.0000000000000D+00  0.0000000000000D+00
   289  2.8800000000000D+00  0.0000000000000D+00  0.0000000000000D+00
   290  2.8900000000000D+00  0.0000000000000D+00  0.0000000000000D+00
   291  2.9000000000000D+00  0.0000000000000D+00  0.0000000000000D+00
   292  2.9100000000000D+00  0.0000000000000D+00  0.0000000000000D+00
   293  2.9200000000000D+00  0.0000000000000D+00  0.0000000000000D+00
   294  2.9300000000000D+00  0.0000000000000D+00  0.0000000000000D+00
   295  2.9400000000000D+00  0.0000000000000D+00  0.0000000000000D+00
   296  2.9500000000000D+00  0.0000000000000D+00  0.0000000000000D+00
   297  2.9600000000000D+00  0.0000000000000D+00  0.0000000000000D+00
   298  2.9700000000000D+00  0.0000000000000D+00  0.0000000000000D+00
   299  2.9800000000000D+00  0.0000000000000D+00  0.0000000000000D+00
   300  2.9900000000000D+00  0.0000000000000D+00  0.0000000000000D+00
   301  3.0000000000000D+00  0.0000000000000D+00  0.0000000000000D+00
   302  3.0100000000000D+00  0.0000000000000D+00  0.0000000000000D+00
   303  3.0200000000000D+00  0.0000000000000D+00  0.0000000000000D+00
   304  3.0300000000000D+00  0.0000000000000D+00  0.0000000000000D+00
   305  3.0400000000000D+00  0.0000000000000D+00  0.0000000000000D+00
   306  3.0500000000000D+00  0.0000000000000D+00  0.0000000000000D+00
   307  3.0600000000000D+00  0.0000000000000D+00  0.0000000000000D+00
   308  3.0700000000000D+00  0.0000000000000D+00  0.0000000000000D+00
   309  3.0800000000000D+00  0.0000000000000D+00  0.0000000000000D+00
   310  3.0900000000000D+00  0.0000000000000D+00  0.0000000000000D+00
   311  3.1000000000000D+00  0.0000000000000D+00  0.0000000000000D+00
   312  3.1100000000000D+00  0.0000000000000D+00  0.0000000000000D+00
   313  3.1200000000000D+00  0.0000000000000D+00  0.0000000000000D+00
   314  3.1300000000000D+00  0.0000000000000D+00  0.0000000000000D+00
   315  3.1400000000000D+00  0.0000000000000D+00  0.0000000000000D+00
   316  3.1500000000000D+00  0.0000000000000D+00  0.0000000000000D+00
   317  3.1600000000000D+00  0.0000000000000D+00  0.0000000000000D+00
   318  3.1700000000000D+00  0.0000000000000D+00  0.0000000000000D+00
   319  3.1800000000000D+00  0.0000000000000D+00  0.0000000000000D+00
   320  3.1900000000000D+00  0.0000000000000D+00  0.0000000000000D+00
   321  3.2000000000000D+00  0.0000000000000D+00  0.0000000000000D+00
   322  3.2100000000000D+00  0.0000000000000D+00  0.0000000000000D+00
   323  3.2200000000000D+00  0.0000000000000D+00  0.0000000000000D+00
   324  3.2300000000000D+00  0.0000000000000D+00  0.0000000000000D+00
   325  3.2400000000000D+00  0.0000000000000D+00  0.0000000000000D+00
   326  3.2500000000000D+00  0.0000000000000D+00  0.0000000000000D+00
   327  3.2600000000000D+00  0.0000000000000D+00  0.0000000000000D+00
   328  3.2700000000000D+00  0.0000000000000D+00  0.0000000000000D+00
   329  3.2800000000000D+00  0.0000000000000D+00  0.0000000000000D+00
   330  3.2900000000000D+00  0.0000000000000D+00  0.0000000000000D+00
   331  3.3000000000000D+00  0.0000000000000D+00  0.0000000000000D+00
   332  3.3100000000000D+00  0.0000000000000D+00  0.0000000000000D+00
   333  3.3200000000000D+00  0.0000000000000D+00  0.0000000000000D+00
   334  3.3300000000000D+00  0.0000000000000D+00  0.0000000000000D+00
   335  3.3400000000000D+00  0.0000000000000D+00  0.0000000000000D+00
   336  3.3500000000000D+00  0.0000000000000D+00  0.0000000000000D+00
   337  3.3600000000000D+00  0.0000000000000D+00  0.0000000000000D+00
   338  3.3700000000000D+00  0.0000000000000D+00  0.0000000000000D+00
   339  3.3800000000000D+00  0.0000000000000D+00  0.0000000000000D+00
   340  3.3900000000000D+00  0.0000000000000D+00  0.0000000000000D+00
   341  3.4000000000000D+00  0.0000000000000D+00  0.0000000000000D+00
   342  3.4100000000000D+00  0.0000000000000D+00  0.0000000000000D+00
   343  3.4200000000000D+00  0.0000000000000D+00  0.0000000000000D+00
   344  3.4300000000000D+00  0.0000000000000D+00  0.0000000000000D+00
   345  3.4400000000000D+00  0.0000000000000D+00  0.0000000000000D+00
   346  3.4500000000000D+00  0.0000000000000D+00  0.0000000000000D+00
   347  3.4600000000000D+00  0.0000000000000D+00  0.0000000000000D+00
   348  3.4700000000000D+00  0.0000000000000D+00  0.0000000000000D+00
   349  3.4800000000000D+00  0.0000000000000D+00  0.0000000000000D+00
   350  3.4900000000000D+00  0.0000000000000D+00  0.0000000000000D+00
   351  3.5000000000000D+00  0.0000000000000D+00  0.0000000000000D+00
   352  3.5100000000000D+00  0.0000000000000D+00  0.0000000000000D+00
   353  3.5200000000000D+00  0.0000000000000D+00  0.0000000000000D+00
   354  3.5300000000000D+00  0.0000000000000D+00  0.0000000000000D+00
   355  3.5400000000000D+00  0.0000000000000D+00  0.0000000000000D+00
   356  3.5500000000000D+00  0.0000000000000D+00  0.0000000000000D+00
   357  3.5600000000000D+00  0.0000000000000D+00  0.0000000000000D+00
   358  3.5700000000000D+00  0.0000000000000D+00  0.0000000000000D+00
   359  3.5800000000000D+00  0.0000000000000D+00  0.0000000000000D+00
   360  3.5900000000000D+00  0.0000000000000D+00  0.0000000000000D+00
   361  3.6000000000000D+00  0.0000000000000D+00  0.0000000000000D+00
   362  3.6100000000000D+00  0.0000000000000D+00  0.0000000000000D+00
   363  3.6200000000000D+00  0.0000000000000D+00  0.0000000000000D+00
   364  3.6300000000000D+00  0.0000000000000D+00  0.0000000000000D+00
   365  3.6400000000000D+00  0.0000000000000D+00  0.0000000000000D+00
   366  3.6500000000000D+00  0.0000000000000D+00  0.0000000000000D+00
   367  3.6600000000000D+00  0.0000000000000D+00  0.0000000000000D+00
   368  3.6700000000000D+00  0.0000000000000D+00  0.0000000000000D+00
   369  3.6800000000000D+00  0.0000000000000D+00  0.0000000000000D+00
   370  3.6900000000000D+00  0.0000000000000D+00  0.0000000000000D+00
   371  3.7000000000000D+00  0.0000000000000D+00  0.0000000000000D+00
   372  3.7100000000000D+00  0.0000000000000D+00  0.0000000000000D+00
   373  3.7200000000000D+00  0.0000000000000D+00  0.0000000000000D+00
   374  3.7300000000000D+00  0.0000000000000D+00  0.0000000000000D+00
   375  3.7400000000000D+00  0.0000000000000D+00  0.0000000000000D+00
   376  3.7500000000000D+00  0.0000000000000D+00  0.0000000000000D+00
   377  3.7600000000000D+00  0.0000000000000D+00  0.0000000000000D+00
   378  3.7700000000000D+00  0.0000000000000D+00  0.0000000000000D+00
   379  3.7800000000000D+00  0.0000000000000D+00  0.0000000000000D+00
   380  3.7900000000000D+00  0.0000000000000D+00  0.0000000000000D+00
   381  3.8000000000000D+00  0.0000000000000D+00  0.0000000000000D+00
   382  3.8100000000000D+00  0.0000000000000D+00  0.0000000000000D+00
   383  3.8200000000000D+00  0.0000000000000D+00  0.0000000000000D+00
   384  3.8300000000000D+00  0.0000000000000D+00  0.0000000000000D+00
   385  3.8400000000000D+00  0.0000000000000D+00  0.0000000000000D+00
   386  3.8500000000000D+00  0.0000000000000D+00  0.0000000000000D+00
   387  3.8600000000000D+00  0.0000000000000D+00  0.0000000000000D+00
   388  3.8700000000000D+00  0.0000000000000D+00  0.0000000000000D+00
   389  3.8800000000000D+00  0.0000000000000D+00  0.0000000000000D+00
   390  3.8900000000000D+00  0.0000000000000D+00  0.0000000000000D+00
   391  3.9000000000000D+00  0.0000000000000D+00  0.0000000000000D+00
   392  3.9100000000000D+00  0.0000000000000D+00  0.0000000000000D+00
   393  3.9200000000000D+00  0.0000000000000D+00  0.0000000000000D+00
   394  3.9300000000000D+00  0.0000000000000D+00  0.0000000000000D+00
   395  3.9400000000000D+00  0.0000000000000D+00  0.0000000000000D+00
   396  3.9500000000000D+00  0.0000000000000D+00  0.0000000000000D+00
   397  3.9600000000000D+00  0.0000000000000D+00  0.0000000000000D+00
   398  3.9700000000000D+00  0.0000000000000D+00  0.0000000000000D+00
   399  3.9800000000000D+00  0.0000000000000D+00  0.0000000000000D+00
   400  3.9900000000000D+00  0.0000000000000D+00  0.0000000000000D+00
   401  4.0000000000000D+00  0.0000000000000D+00  0.0000000000000D+00
   402  4.0100000000000D+00  0.0000000000000D+00  0.0000000000000D+00
   403  4.0200000000000D+00  0.0000000000000D+00  0.0000000000000D+00
   404  4.0300000000000D+00  0.0000000000000D+00  0.0000000000000D+00
   405  4.0400000000000D+00  0.0000000000000D+00  0.0000000000000D+00
   406  4.0500000000000D+00  0.0000000000000D+00  0.0000000000000D+00
   407  4.0600000000000D+00  0.0000000000000D+00  0.0000000000000D+00
   408  4.0700000000000D+00  0.0000000000000D+00  0.0000000000000D+00
   409  4.0800000000000D+00  0.0000000000000D+00  0.0000000000000D+00
   410  4.0900000000000D+00  0.0000000000000D+00  0.0000000000000D+00
   411  4.1000000000000D+00  0.0000000000000D+00  0.0000000000000D+00
   412  4.1100000000000D+00  0.0000000000000D+00  0.0000000000000D+00
   413  4.1200000000000D+00  0.0000000000000D+00  0.0000000000000D+00
   414  4.1300000000000D+00  0.0000000000000D+00  0.0000000000000D+00
   415  4.1400000000000D+00  0.0000000000000D+00  0.0000000000000D+00
   416  4.1500000000000D+00  0.0000000000000D+00  0.0000000000000D+00
   417  4.1600000000000D+00  0.0000000000000D+00  0.0000000000000D+00
   418  4.1700000000000D+00  0.0000000000000D+00  0.0000000000000D+00
   419  4.1800000000000D+00  0.0000000000000D+00  0.0000000000000D+00
   420  4.1900000000000D+00  0.0000000000000D+00  0.0000000000000D+00
   421  4.2000000000000D+00  0.0000000000000D+00  0.0000000000000D+00
   422  4.2100000000000D+00  0.0000000000000D+00  0.0000000000000D+00