<UPF version="2.0.1">
  <PP_INFO>

 This pseudopotential file has been produced using the code
 ONCVPSP  (Optimized Norm-Conservinng Vanderbilt PSeudopotential)
 fully-relativistic version 3.3.1 12/12/2017 by D. R. Hamann
 The code is available through a link at URL www.mat-simresearch.com.
 Documentation with the package provides a full discription of the
 input data below.


 While it is not required under the terms of the GNU GPL, it is
 suggested that you cite D. R. Hamann, Phys. Rev. B 88, 085117 (2013)
 in any publication using these pseudopotentials.

    <PP_INPUTFILE>
# ATOM AND REFERENCE CONFIGURATION
# atsym  z   nc   nv     iexc    psfile
  Ar 18.00    3    2       4      upf
#
#   n    l    f        energy (Ha)
    1    0    2.00
    2    0    2.00
    2    1    6.00
    3    0    2.00
    3    1    6.00
#
# PSEUDOPOTENTIAL AND OPTIMIZATION
# lmax
    1
#
#   l,   rc,     ep,   ncon, nbas, qcut
    0   2.67516  -0.89246    5    8   7.97831
    1   1.78325  -0.37524    5    8   7.45116
#
# LOCAL POTENTIAL
# lloc, lpopt,  rc(5),   dvloc0
    4    5   1.40476      0.00000
#
# VANDERBILT-KLEINMAN-BYLANDER PROJECTORs
# l, nproj, debl
    0    2   0.88087
    1    2   3.20524
#
# MODEL CORE CHARGE
# icmod, fcfact, rcfact
    0   0.00000   0.00000
#
# LOG DERIVATIVE ANALYSIS
# epsh1, epsh2, depsh
   -5.00    3.00    0.02
#
# OUTPUT GRID
# rlmax, drl
    6.00    0.01
#
# TEST CONFIGURATIONS
# ncnf
    0
# nvcnf
#   n    l    f
    </PP_INPUTFILE>
  </PP_INFO>
  <!--                               -->
  <!-- END OF HUMAN READABLE SECTION -->
  <!--                               -->
    <PP_HEADER
       generated="Generated using ONCVPSP code by D. R. Hamann"
       author="anonymous"
       date="200721"
       comment=""
       element="Ar"
       pseudo_type="NC"
       relativistic="full"
       is_ultrasoft="F"
       is_paw="F"
       is_coulomb="F"
       has_so="T"
       has_wfc="F"
       has_gipaw="F"
       core_correction="F"
       functional="PBE"
       z_valence="    8.00"
       total_psenergy="  -4.22214878148E+01"
       rho_cutoff="   9.37000000000E+00"
       l_max="1"
       l_local="-1"
       mesh_size="   938"
       number_of_wfc="3"
       number_of_proj="6"/>
 <PP_MESH>
   <PP_R type="real"  size=" 938" columns="8">
    0.0000    0.0100    0.0200    0.0300    0.0400    0.0500    0.0600    0.0700
    0.0800    0.0900    0.1000    0.1100    0.1200    0.1300    0.1400    0.1500
    0.1600    0.1700    0.1800    0.1900    0.2000    0.2100    0.2200    0.2300
    0.2400    0.2500    0.2600    0.2700    0.2800    0.2900    0.3000    0.3100
    0.3200    0.3300    0.3400    0.3500    0.3600    0.3700    0.3800    0.3900
    0.4000    0.4100    0.4200    0.4300    0.4400    0.4500    0.4600    0.4700
    0.4800    0.4900    0.5000    0.5100    0.5200    0.5300    0.5400    0.5500
    0.5600    0.5700    0.5800    0.5900    0.6000    0.6100    0.6200    0.6300
    0.6400    0.6500    0.6600    0.6700    0.6800    0.6900    0.7000    0.7100
    0.7200    0.7300    0.7400    0.7500    0.7600    0.7700    0.7800    0.7900
    0.8000    0.8100    0.8200    0.8300    0.8400    0.8500    0.8600    0.8700
    0.8800    0.8900    0.9000    0.9100    0.9200    0.9300    0.9400    0.9500
    0.9600    0.9700    0.9800    0.9900    1.0000    1.0100    1.0200    1.0300
    1.0400    1.0500    1.0600    1.0700    1.0800    1.0900    1.1000    1.1100
    1.1200    1.1300    1.1400    1.1500    1.1600    1.1700    1.1800    1.1900
    1.2000    1.2100    1.2200    1.2300    1.2400    1.2500    1.2600    1.2700
    1.2800    1.2900    1.3000    1.3100    1.3200    1.3300    1.3400    1.3500
    1.3600    1.3700    1.3800    1.3900    1.4000    1.4100    1.4200    1.4300
    1.4400    1.4500    1.4600    1.4700    1.4800    1.4900    1.5000    1.5100
    1.5200    1.5300    1.5400    1.5500    1.5600    1.5700    1.5800    1.5900
    1.6000    1.6100    1.6200    1.6300    1.6400    1.6500    1.6600    1.6700
    1.6800    1.6900    1.7000    1.7100    1.7200    1.7300    1.7400    1.7500
    1.7600    1.7700    1.7800    1.7900    1.8000    1.8100    1.8200    1.8300
    1.8400    1.8500    1.8600    1.8700    1.8800    1.8900    1.9000    1.9100
    1.9200    1.9300    1.9400    1.9500    1.9600    1.9700    1.9800    1.9900
    2.0000    2.0100    2.0200    2.0300    2.0400    2.0500    2.0600    2.0700
    2.0800    2.0900    2.1000    2.1100    2.1200    2.1300    2.1400    2.1500
    2.1600    2.1700    2.1800    2.1900    2.2000    2.2100    2.2200    2.2300
    2.2400    2.2500    2.2600    2.2700    2.2800    2.2900    2.3000    2.3100
    2.3200    2.3300    2.3400    2.3500    2.3600    2.3700    2.3800    2.3900
    2.4000    2.4100    2.4200    2.4300    2.4400    2.4500    2.4600    2.4700
    2.4800    2.4900    2.5000    2.5100    2.5200    2.5300    2.5400    2.5500
    2.5600    2.5700    2.5800    2.5900    2.6000    2.6100    2.6200    2.6300
    2.6400    2.6500    2.6600    2.6700    2.6800    2.6900    2.7000    2.7100
    2.7200    2.7300    2.7400    2.7500    2.7600    2.7700    2.7800    2.7900
    2.8000    2.8100    2.8200    2.8300    2.8400    2.8500    2.8600    2.8700
    2.8800    2.8900    2.9000    2.9100    2.9200    2.9300    2.9400    2.9500
    2.9600    2.9700    2.9800    2.9900    3.0000    3.0100    3.0200    3.0300
    3.0400    3.0500    3.0600    3.0700    3.0800    3.0900    3.1000    3.1100
    3.1200    3.1300    3.1400    3.1500    3.1600    3.1700    3.1800    3.1900
    3.2000    3.2100    3.2200    3.2300    3.2400    3.2500    3.2600    3.2700
    3.2800    3.2900    3.3000    3.3100    3.3200    3.3300    3.3400    3.3500
    3.3600    3.3700    3.3800    3.3900    3.4000    3.4100    3.4200    3.4300
    3.4400    3.4500    3.4600    3.4700    3.4800    3.4900    3.5000    3.5100
    3.5200    3.5300    3.5400    3.5500    3.5600    3.5700    3.5800    3.5900
    3.6000    3.6100    3.6200    3.6300    3.6400    3.6500    3.6600    3.6700
    3.6800    3.6900    3.7000    3.7100    3.7200    3.7300    3.7400    3.7500
    3.7600    3.7700    3.7800    3.7900    3.8000    3.8100    3.8200    3.8300
    3.8400    3.8500    3.8600    3.8700    3.8800    3.8900    3.9000    3.9100
    3.9200    3.9300    3.9400    3.9500    3.9600    3.9700    3.9800    3.9900
    4.0000    4.0100    4.0200    4.0300    4.0400    4.0500    4.0600    4.0700
    4.0800    4.0900    4.1000    4.1100    4.1200    4.1300    4.1400    4.1500
    4.1600    4.1700    4.1800    4.1900    4.2000    4.2100    4.2200    4.2300
    4.2400    4.2500    4.2600    4.2700    4.2800    4.2900    4.3000    4.3100
    4.3200    4.3300    4.3400    4.3500    4.3600    4.3700    4.3800    4.3900
    4.4000    4.4100    4.4200    4.4300    4.4400    4.4500    4.4600    4.4700
    4.4800    4.4900    4.5000    4.5100    4.5200    4.5300    4.5400    4.5500
    4.5600    4.5700    4.5800    4.5900    4.6000    4.6100    4.6200    4.6300
    4.6400    4.6500    4.6600    4.6700    4.6800    4.6900    4.7000    4.7100
    4.7200    4.7300    4.7400    4.7500    4.7600    4.7700    4.7800    4.7900
    4.8000    4.8100    4.8200    4.8300    4.8400    4.8500    4.8600    4.8700
    4.8800    4.8900    4.9000    4.9100    4.9200    4.9300    4.9400    4.9500
    4.9600    4.9700    4.9800    4.9900    5.0000    5.0100    5.0200    5.0300
    5.0400    5.0500    5.0600    5.0700    5.0800    5.0900    5.1000    5.1100
    5.1200    5.1300    5.1400    5.1500    5.1600    5.1700    5.1800    5.1900
    5.2000    5.2100    5.2200    5.2300    5.2400    5.2500    5.2600    5.2700
    5.2800    5.2900    5.3000    5.3100    5.3200    5.3300    5.3400    5.3500
    5.3600    5.3700    5.3800    5.3900    5.4000    5.4100    5.4200    5.4300
    5.4400    5.4500    5.4600    5.4700    5.4800    5.4900    5.5000    5.5100
    5.5200    5.5300    5.5400    5.5500    5.5600    5.5700    5.5800    5.5900
    5.6000    5.6100    5.6200    5.6300    5.6400    5.6500    5.6600    5.6700
    5.6800    5.6900    5.7000    5.7100    5.7200    5.7300    5.7400    5.7500
    5.7600    5.7700    5.7800    5.7900    5.8000    5.8100    5.8200    5.8300
    5.8400    5.8500    5.8600    5.8700    5.8800    5.8900    5.9000    5.9100
    5.9200    5.9300    5.9400    5.9500    5.9600    5.9700    5.9800    5.9900
    6.0000    6.0100    6.0200    6.0300    6.0400    6.0500    6.0600    6.0700
    6.0800    6.0900    6.1000    6.1100    6.1200    6.1300    6.1400    6.1500
    6.1600    6.1700    6.1800    6.1900    6.2000    6.2100    6.2200    6.2300
    6.2400    6.2500    6.2600    6.2700    6.2800    6.2900    6.3000    6.3100
    6.3200    6.3300    6.3400    6.3500    6.3600    6.3700    6.3800    6.3900
    6.4000    6.4100    6.4200    6.4300    6.4400    6.4500    6.4600    6.4700
    6.4800    6.4900    6.5000    6.5100    6.5200    6.5300    6.5400    6.5500
    6.5600    6.5700    6.5800    6.5900    6.6000    6.6100    6.6200    6.6300
    6.6400    6.6500    6.6600    6.6700    6.6800    6.6900    6.7000    6.7100
    6.7200    6.7300    6.7400    6.7500    6.7600    6.7700    6.7800    6.7900
    6.8000    6.8100    6.8200    6.8300    6.8400    6.8500    6.8600    6.8700
    6.8800    6.8900    6.9000    6.9100    6.9200    6.9300    6.9400    6.9500
    6.9600    6.9700    6.9800    6.9900    7.0000    7.0100    7.0200    7.0300
    7.0400    7.0500    7.0600    7.0700    7.0800    7.0900    7.1000    7.1100
    7.1200    7.1300    7.1400    7.1500    7.1600    7.1700    7.1800    7.1900
    7.2000    7.2100    7.2200    7.2300    7.2400    7.2500    7.2600    7.2700
    7.2800    7.2900    7.3000    7.3100    7.3200    7.3300    7.3400    7.3500
    7.3600    7.3700    7.3800    7.3900    7.4000    7.4100    7.4200    7.4300
    7.4400    7.4500    7.4600    7.4700    7.4800    7.4900    7.5000    7.5100
    7.5200    7.5300    7.5400    7.5500    7.5600    7.5700    7.5800    7.5900
    7.6000    7.6100    7.6200    7.6300    7.6400    7.6500    7.6600    7.6700
    7.6800    7.6900    7.7000    7.7100    7.7200    7.7300    7.7400    7.7500
    7.7600    7.7700    7.7800    7.7900    7.8000    7.8100    7.8200    7.8300
    7.8400    7.8500    7.8600    7.8700    7.8800    7.8900    7.9000    7.9100
    7.9200    7.9300    7.9400    7.9500    7.9600    7.9700    7.9800    7.9900
    8.0000    8.0100    8.0200    8.0300    8.0400    8.0500    8.0600    8.0700
    8.0800    8.0900    8.1000    8.1100    8.1200    8.1300    8.1400    8.1500
    8.1600    8.1700    8.1800    8.1900    8.2000    8.2100    8.2200    8.2300
    8.2400    8.2500    8.2600    8.2700    8.2800    8.2900    8.3000    8.3100
    8.3200    8.3300    8.3400    8.3500    8.3600    8.3700    8.3800    8.3900
    8.4000    8.4100    8.4200    8.4300    8.4400    8.4500    8.4600    8.4700
    8.4800    8.4900    8.5000    8.5100    8.5200    8.5300    8.5400    8.5500
    8.5600    8.5700    8.5800    8.5900    8.6000    8.6100    8.6200    8.6300
    8.6400    8.6500    8.6600    8.6700    8.6800    8.6900    8.7000    8.7100
    8.7200    8.7300    8.7400    8.7500    8.7600    8.7700    8.7800    8.7900
    8.8000    8.8100    8.8200    8.8300    8.8400    8.8500    8.8600    8.8700
    8.8800    8.8900    8.9000    8.9100    8.9200    8.9300    8.9400    8.9500
    8.9600    8.9700    8.9800    8.9900    9.0000    9.0100    9.0200    9.0300
    9.0400    9.0500    9.0600    9.0700    9.0800    9.0900    9.1000    9.1100
    9.1200    9.1300    9.1400    9.1500    9.1600    9.1700    9.1800    9.1900
    9.2000    9.2100    9.2200    9.2300    9.2400    9.2500    9.2600    9.2700
    9.2800    9.2900    9.3000    9.3100    9.3200    9.3300    9.3400    9.3500
    9.3600    9.3700
   </PP_R>
   <PP_RAB type="real"  size=" 938" columns="8">
    0.0100    0.0100    0.0100    0.0100    0.0100    0.0100    0.0100    0.0100
    0.0100    0.0100    0.0100    0.0100    0.0100    0.0100    0.0100    0.0100
    0.0100    0.0100    0.0100    0.0100    0.0100    0.0100    0.0100    0.0100
    0.0100    0.0100    0.0100    0.0100    0.0100    0.0100    0.0100    0.0100
    0.0100    0.0100    0.0100    0.0100    0.0100    0.0100    0.0100    0.0100
    0.0100    0.0100    0.0100    0.0100    0.0100    0.0100    0.0100    0.0100
    0.0100    0.0100    0.0100    0.0100    0.0100    0.0100    0.0100    0.0100
    0.0100    0.0100    0.0100    0.0100    0.0100    0.0100    0.0100    0.0100
    0.0100    0.0100    0.0100    0.0100    0.0100    0.0100    0.0100    0.0100
    0.0100    0.0100    0.0100    0.0100    0.0100    0.0100    0.0100    0.0100
    0.0100    0.0100    0.0100    0.0100    0.0100    0.0100    0.0100    0.0100
    0.0100    0.0100    0.0100    0.0100    0.0100    0.0100    0.0100    0.0100
    0.0100    0.0100    0.0100    0.0100    0.0100    0.0100    0.0100    0.0100
    0.0100    0.0100    0.0100    0.0100    0.0100    0.0100    0.0100    0.0100
    0.0100    0.0100    0.0100    0.0100    0.0100    0.0100    0.0100    0.0100
    0.0100    0.0100    0.0100    0.0100    0.0100    0.0100    0.0100    0.0100
    0.0100    0.0100    0.0100    0.0100    0.0100    0.0100    0.0100    0.0100
    0.0100    0.0100    0.0100    0.0100    0.0100    0.0100    0.0100    0.0100
    0.0100    0.0100    0.0100    0.0100    0.0100    0.0100    0.0100    0.0100
    0.0100    0.0100    0.0100    0.0100    0.0100    0.0100    0.0100    0.0100
    0.0100    0.0100    0.0100    0.0100    0.0100    0.0100    0.0100    0.0100
    0.0100    0.0100    0.0100    0.0100    0.0100    0.0100    0.0100    0.0100
    0.0100    0.0100    0.0100    0.0100    0.0100    0.0100    0.0100    0.0100
    0.0100    0.0100    0.0100    0.0100    0.0100    0.0100    0.0100    0.0100
    0.0100    0.0100    0.0100    0.0100    0.0100    0.0100    0.0100    0.0100
    0.0100    0.0100    0.0100    0.0100    0.0100    0.0100    0.0100    0.0100
    0.0100    0.0100    0.0100    0.0100    0.0100    0.0100    0.0100    0.0100
    0.0100    0.0100    0.0100    0.0100    0.0100    0.0100    0.0100    0.0100
    0.0100    0.0100    0.0100    0.0100    0.0100    0.0100    0.0100    0.0100
    0.0100    0.0100    0.0100    0.0100    0.0100    0.0100    0.0100    0.0100
    0.0100    0.0100    0.0100    0.0100    0.0100    0.0100    0.0100    0.0100
    0.0100    0.0100    0.0100    0.0100    0.0100    0.0100    0.0100    0.0100
    0.0100    0.0100    0.0100    0.0100    0.0100    0.0100    0.0100    0.0100
    0.0100    0.0100    0.0100    0.0100    0.0100    0.0100    0.0100    0.0100
    0.0100    0.0100    0.0100    0.0100    0.0100    0.0100    0.0100    0.0100
    0.0100    0.0100    0.0100    0.0100    0.0100    0.0100    0.0100    0.0100
    0.0100    0.0100    0.0100    0.0100    0.0100    0.0100    0.0100    0.0100
    0.0100    0.0100    0.0100    0.0100    0.0100    0.0100    0.0100    0.0100
    0.0100    0.0100    0.0100    0.0100    0.0100    0.0100    0.0100    0.0100
    0.0100    0.0100    0.0100    0.0100    0.0100    0.0100    0.0100    0.0100
    0.0100    0.0100    0.0100    0.0100    0.0100    0.0100    0.0100    0.0100
    0.0100    0.0100    0.0100    0.0100    0.0100    0.0100    0.0100    0.0100
    0.0100    0.0100    0.0100    0.0100    0.0100    0.0100    0.0100    0.0100
    0.0100    0.0100    0.0100    0.0100    0.0100    0.0100    0.0100    0.0100
    0.0100    0.0100    0.0100    0.0100    0.0100    0.0100    0.0100    0.0100
    0.0100    0.0100    0.0100    0.0100    0.0100    0.0100    0.0100    0.0100
    0.0100    0.0100    0.0100    0.0100    0.0100    0.0100    0.0100    0.0100
    0.0100    0.0100    0.0100    0.0100    0.0100    0.0100    0.0100    0.0100
    0.0100    0.0100    0.0100    0.0100    0.0100    0.0100    0.0100    0.0100
    0.0100    0.0100    0.0100    0.0100    0.0100    0.0100    0.0100    0.0100
    0.0100    0.0100    0.0100    0.0100    0.0100    0.0100    0.0100    0.0100
    0.0100    0.0100    0.0100    0.0100    0.0100    0.0100    0.0100    0.0100
    0.0100    0.0100    0.0100    0.0100    0.0100    0.0100    0.0100    0.0100
    0.0100    0.0100    0.0100    0.0100    0.0100    0.0100    0.0100    0.0100
    0.0100    0.0100    0.0100    0.0100    0.0100    0.0100    0.0100    0.0100
    0.0100    0.0100    0.0100    0.0100    0.0100    0.0100    0.0100    0.0100
    0.0100    0.0100    0.0100    0.0100    0.0100    0.0100    0.0100    0.0100
    0.0100    0.0100    0.0100    0.0100    0.0100    0.0100    0.0100    0.0100
    0.0100    0.0100    0.0100    0.0100    0.0100    0.0100    0.0100    0.0100
    0.0100    0.0100    0.0100    0.0100    0.0100    0.0100    0.0100    0.0100
    0.0100    0.0100    0.0100    0.0100    0.0100    0.0100    0.0100    0.0100
    0.0100    0.0100    0.0100    0.0100    0.0100    0.0100    0.0100    0.0100
    0.0100    0.0100    0.0100    0.0100    0.0100    0.0100    0.0100    0.0100
    0.0100    0.0100    0.0100    0.0100    0.0100    0.0100    0.0100    0.0100
    0.0100    0.0100    0.0100    0.0100    0.0100    0.0100    0.0100    0.0100
    0.0100    0.0100    0.0100    0.0100    0.0100    0.0100    0.0100    0.0100
    0.0100    0.0100    0.0100    0.0100    0.0100    0.0100    0.0100    0.0100
    0.0100    0.0100    0.0100    0.0100    0.0100    0.0100    0.0100    0.0100
    0.0100    0.0100    0.0100    0.0100    0.0100    0.0100    0.0100    0.0100
    0.0100    0.0100    0.0100    0.0100    0.0100    0.0100    0.0100    0.0100
    0.0100    0.0100    0.0100    0.0100    0.0100    0.0100    0.0100    0.0100
    0.0100    0.0100    0.0100    0.0100    0.0100    0.0100    0.0100    0.0100
    0.0100    0.0100    0.0100    0.0100    0.0100    0.0100    0.0100    0.0100
    0.0100    0.0100    0.0100    0.0100    0.0100    0.0100    0.0100    0.0100
    0.0100    0.0100    0.0100    0.0100    0.0100    0.0100    0.0100    0.0100
    0.0100    0.0100    0.0100    0.0100    0.0100    0.0100    0.0100    0.0100
    0.0100    0.0100    0.0100    0.0100    0.0100    0.0100    0.0100    0.0100
    0.0100    0.0100    0.0100    0.0100    0.0100    0.0100    0.0100    0.0100
    0.0100    0.0100    0.0100    0.0100    0.0100    0.0100    0.0100    0.0100
    0.0100    0.0100    0.0100    0.0100    0.0100    0.0100    0.0100    0.0100
    0.0100    0.0100    0.0100    0.0100    0.0100    0.0100    0.0100    0.0100
    0.0100    0.0100    0.0100    0.0100    0.0100    0.0100    0.0100    0.0100
    0.0100    0.0100    0.0100    0.0100    0.0100    0.0100    0.0100    0.0100
    0.0100    0.0100    0.0100    0.0100    0.0100    0.0100    0.0100    0.0100
    0.0100    0.0100    0.0100    0.0100    0.0100    0.0100    0.0100    0.0100
    0.0100    0.0100    0.0100    0.0100    0.0100    0.0100    0.0100    0.0100
    0.0100    0.0100    0.0100    0.0100    0.0100    0.0100    0.0100    0.0100
    0.0100    0.0100    0.0100    0.0100    0.0100    0.0100    0.0100    0.0100
    0.0100    0.0100    0.0100    0.0100    0.0100    0.0100    0.0100    0.0100
    0.0100    0.0100    0.0100    0.0100    0.0100    0.0100    0.0100    0.0100
    0.0100    0.0100    0.0100    0.0100    0.0100    0.0100    0.0100    0.0100
    0.0100    0.0100    0.0100    0.0100    0.0100    0.0100    0.0100    0.0100
    0.0100    0.0100    0.0100    0.0100    0.0100    0.0100    0.0100    0.0100
    0.0100    0.0100    0.0100    0.0100    0.0100    0.0100    0.0100    0.0100
    0.0100    0.0100    0.0100    0.0100    0.0100    0.0100    0.0100    0.0100
    0.0100    0.0100    0.0100    0.0100    0.0100    0.0100    0.0100    0.0100
    0.0100    0.0100    0.0100    0.0100    0.0100    0.0100    0.0100    0.0100
    0.0100    0.0100    0.0100    0.0100    0.0100    0.0100    0.0100    0.0100
    0.0100    0.0100    0.0100    0.0100    0.0100    0.0100    0.0100    0.0100
    0.0100    0.0100    0.0100    0.0100    0.0100    0.0100    0.0100    0.0100
    0.0100    0.0100    0.0100    0.0100    0.0100    0.0100    0.0100    0.0100
    0.0100    0.0100    0.0100    0.0100    0.0100    0.0100    0.0100    0.0100
    0.0100    0.0100    0.0100    0.0100    0.0100    0.0100    0.0100    0.0100
    0.0100    0.0100    0.0100    0.0100    0.0100    0.0100    0.0100    0.0100
    0.0100    0.0100    0.0100    0.0100    0.0100    0.0100    0.0100    0.0100
    0.0100    0.0100    0.0100    0.0100    0.0100    0.0100    0.0100    0.0100
    0.0100    0.0100    0.0100    0.0100    0.0100    0.0100    0.0100    0.0100
    0.0100    0.0100    0.0100    0.0100    0.0100    0.0100    0.0100    0.0100
    0.0100    0.0100    0.0100    0.0100    0.0100    0.0100    0.0100    0.0100
    0.0100    0.0100    0.0100    0.0100    0.0100    0.0100    0.0100    0.0100
    0.0100    0.0100    0.0100    0.0100    0.0100    0.0100    0.0100    0.0100
    0.0100    0.0100    0.0100    0.0100    0.0100    0.0100    0.0100    0.0100
    0.0100    0.0100    0.0100    0.0100    0.0100    0.0100    0.0100    0.0100
    0.0100    0.0100    0.0100    0.0100    0.0100    0.0100    0.0100    0.0100
    0.0100    0.0100    0.0100    0.0100    0.0100    0.0100    0.0100    0.0100
    0.0100    0.0100    0.0100    0.0100    0.0100    0.0100    0.0100    0.0100
    0.0100    0.0100    0.0100    0.0100    0.0100    0.0100    0.0100    0.0100
    0.0100    0.0100
   </PP_RAB>
 </PP_MESH>
  <PP_LOCAL type="real"  size=" 938" columns="4">
   -2.5516967490E+01   -2.5636561878E+01   -2.6303807252E+01   -2.6900779442E+01
   -2.7216351727E+01   -2.7263595686E+01   -2.7139940849E+01   -2.6938812267E+01
   -2.6721465131E+01   -2.6518696039E+01   -2.6341359054E+01   -2.6189956601E+01
   -2.6060755241E+01   -2.5948949500E+01   -2.5850021716E+01   -2.5760185138E+01
   -2.5676426768E+01   -2.5596406948E+01   -2.5518328492E+01   -2.5440817881E+01
   -2.5362830091E+01   -2.5283576478E+01   -2.5202471367E+01   -2.5119092533E+01
   -2.5033151476E+01   -2.4944470315E+01   -2.4852963089E+01   -2.4758619916E+01
   -2.4661493061E+01   -2.4561684362E+01   -2.4459333738E+01   -2.4354608703E+01
   -2.4247694908E+01   -2.4138787778E+01   -2.4028085326E+01   -2.3915782192E+01
   -2.3802064910E+01   -2.3687108376E+01   -2.3571073422E+01   -2.3454105377E+01
   -2.3336333483E+01   -2.3217870986E+01   -2.3098815760E+01   -2.2979251306E+01
   -2.2859247989E+01   -2.2738864401E+01   -2.2618148758E+01   -2.2497140261E+01
   -2.2375870359E+01   -2.2254363904E+01   -2.2132640158E+01   -2.2010713661E+01
   -2.1888594954E+01   -2.1766291174E+01   -2.1643806527E+01   -2.1521142661E+01
   -2.1398298952E+01   -2.1275272721E+01   -2.1152059402E+01   -2.1028652670E+01
   -2.0905044554E+01   -2.0781225540E+01   -2.0657184671E+01   -2.0532909676E+01
   -2.0408387107E+01   -2.0283602514E+01   -2.0158540649E+01   -2.0033185709E+01
   -1.9907521615E+01   -1.9781532326E+01   -1.9655202190E+01   -1.9528516316E+01
   -1.9401460978E+01   -1.9274024019E+01   -1.9146195276E+01   -1.9017966989E+01
   -1.8889334200E+01   -1.8760295127E+01   -1.8630851504E+01   -1.8501008875E+01
   -1.8370776841E+01   -1.8240169248E+01   -1.8109204310E+01   -1.7977904670E+01
   -1.7846297393E+01   -1.7714413893E+01   -1.7582289798E+01   -1.7449964757E+01
   -1.7317482187E+01   -1.7184888987E+01   -1.7052235196E+01   -1.6919573637E+01
   -1.6786959522E+01   -1.6654450060E+01   -1.6522104043E+01   -1.6389981444E+01
   -1.6258143014E+01   -1.6126649905E+01   -1.5995563294E+01   -1.5864944046E+01
   -1.5734852392E+01   -1.5605347640E+01   -1.5476487907E+01   -1.5348329891E+01
   -1.5220928660E+01   -1.5094337480E+01   -1.4968607661E+01   -1.4843788432E+01
   -1.4719926835E+01   -1.4597067652E+01   -1.4475253333E+01   -1.4354523956E+01
   -1.4234917193E+01   -1.4116468295E+01   -1.3999210078E+01   -1.3883172932E+01
   -1.3768384823E+01   -1.3654871308E+01   -1.3542655556E+01   -1.3431758368E+01
   -1.3322198198E+01   -1.3213991181E+01   -1.3107151159E+01   -1.3001689702E+01
   -1.2897616135E+01   -1.2794937559E+01   -1.2693658877E+01   -1.2593782809E+01
   -1.2495309911E+01   -1.2398238591E+01   -1.2302565120E+01   -1.2208283647E+01
   -1.2115386201E+01   -1.2023862699E+01   -1.1933700949E+01   -1.1844886648E+01
   -1.1757403378E+01   -1.1671232607E+01   -1.1586353654E+01   -1.1502743774E+01
   -1.1420377959E+01   -1.1339228948E+01   -1.1259268353E+01   -1.1180467576E+01
   -1.1102798922E+01   -1.1026235614E+01   -1.0950751592E+01   -1.0876321624E+01
   -1.0802921270E+01   -1.0730526886E+01   -1.0659115614E+01   -1.0588665372E+01
   -1.0519154842E+01   -1.0450563454E+01   -1.0382871373E+01   -1.0316059476E+01
   -1.0250109334E+01   -1.0185003189E+01   -1.0120723926E+01   -1.0057255053E+01
   -9.9945806631E+00   -9.9326854140E+00   -9.8715544910E+00   -9.8111735766E+00
   -9.7515288174E+00   -9.6926067898E+00   -9.6343944658E+00   -9.5768791791E+00
   -9.5200485905E+00   -9.4638906548E+00   -9.4083935872E+00   -9.3535458325E+00
   -9.2993360351E+00   -9.2457530063E+00   -9.1927857138E+00   -9.1404232339E+00
   -9.0886547304E+00   -9.0374694734E+00   -8.9868567713E+00   -8.9368061375E+00
   -8.8873075108E+00   -8.8383512573E+00   -8.7899282260E+00   -8.7420296777E+00
   -8.6946469413E+00   -8.6477712572E+00   -8.6013941180E+00   -8.5555074946E+00
   -8.5101035739E+00   -8.4651745968E+00   -8.4207129830E+00   -8.3767113684E+00
   -8.3331625807E+00   -8.2900596130E+00   -8.2473956166E+00   -8.2051639039E+00
   -8.1633579447E+00   -8.1219713579E+00   -8.0809979075E+00   -8.0404314974E+00
   -8.0002661665E+00   -7.9604960848E+00   -7.9211155482E+00   -7.8821189745E+00
   -7.8435008989E+00   -7.8052559704E+00   -7.7673789473E+00   -7.7298646937E+00
   -7.6927081758E+00   -7.6559044583E+00   -7.6194487007E+00   -7.5833361545E+00
   -7.5475621597E+00   -7.5121221419E+00   -7.4770116095E+00   -7.4422261506E+00
   -7.4077614308E+00   -7.3736131903E+00   -7.3397772420E+00   -7.3062494685E+00
   -7.2730258209E+00   -7.2401023159E+00   -7.2074750345E+00   -7.1751401200E+00
   -7.1430937762E+00   -7.1113322659E+00   -7.0798519098E+00   -7.0486490845E+00
   -7.0177202216E+00   -6.9870618064E+00   -6.9566703769E+00   -6.9265425227E+00
   -6.8966748839E+00   -6.8670641507E+00   -6.8377070619E+00   -6.8086004047E+00
   -6.7797410139E+00   -6.7511257709E+00   -6.7227516036E+00   -6.6946154855E+00
   -6.6667144354E+00   -6.6390455166E+00   -6.6116058368E+00   -6.5843925473E+00
   -6.5574028428E+00   -6.5306339611E+00   -6.5040831821E+00   -6.4777478281E+00
   -6.4516252630E+00   -6.4257128920E+00   -6.4000081612E+00   -6.3745085569E+00
   -6.3492116057E+00   -6.3241148737E+00   -6.2992159661E+00   -6.2745125266E+00
   -6.2500022373E+00   -6.2256828179E+00   -6.2015520253E+00   -6.1776076531E+00
   -6.1538475307E+00   -6.1302695233E+00   -6.1068715312E+00   -6.0836514891E+00
   -6.0606073655E+00   -6.0377371618E+00   -6.0150389125E+00   -5.9925106836E+00
   -5.9701505716E+00   -5.9479567025E+00   -5.9259272307E+00   -5.9040603381E+00
   -5.8823542331E+00   -5.8608071476E+00   -5.8394173396E+00   -5.8181830918E+00
   -5.7971027142E+00   -5.7761745405E+00   -5.7553969290E+00   -5.7347682606E+00
   -5.7142869396E+00   -5.6939513928E+00   -5.6737600692E+00   -5.6537114402E+00
   -5.6338039984E+00   -5.6140362577E+00   -5.5944067526E+00   -5.5749140384E+00
   -5.5555566900E+00   -5.5363333022E+00   -5.5172424894E+00   -5.4982828848E+00
   -5.4794531403E+00   -5.4607519263E+00   -5.4421779314E+00   -5.4237298618E+00
   -5.4054064411E+00   -5.3872064105E+00   -5.3691285275E+00   -5.3511715668E+00
   -5.3333343192E+00   -5.3156155913E+00   -5.2980142060E+00   -5.2805290014E+00
   -5.2631588310E+00   -5.2459025633E+00   -5.2287590817E+00   -5.2117272839E+00
   -5.1948060822E+00   -5.1779944029E+00   -5.1612911860E+00   -5.1446953853E+00
   -5.1282059679E+00   -5.1118219142E+00   -5.0955422176E+00   -5.0793658841E+00
   -5.0632919325E+00   -5.0473193939E+00   -5.0314473115E+00   -5.0156747407E+00
   -5.0000007484E+00   -4.9844244135E+00   -4.9689448260E+00   -4.9535610875E+00
   -4.9382723103E+00   -4.9230776180E+00   -4.9079761447E+00   -4.8929670352E+00
   -4.8780494448E+00   -4.8632225389E+00   -4.8484854931E+00   -4.8338374929E+00
   -4.8192777339E+00   -4.8048054209E+00   -4.7904197685E+00   -4.7761200008E+00
   -4.7619053508E+00   -4.7477750608E+00   -4.7337283821E+00   -4.7197645749E+00
   -4.7058829077E+00   -4.6920826581E+00   -4.6783631118E+00   -4.6647235629E+00
   -4.6511633139E+00   -4.6376816752E+00   -4.6242779651E+00   -4.6109515100E+00
   -4.5977016438E+00   -4.5845277082E+00   -4.5714290524E+00   -4.5584050330E+00
   -4.5454550137E+00   -4.5325783659E+00   -4.5197744676E+00   -4.5070427040E+00
   -4.4943824674E+00   -4.4817931567E+00   -4.4692741774E+00   -4.4568249418E+00
   -4.4444448689E+00   -4.4321333837E+00   -4.4198899180E+00   -4.4077139095E+00
   -4.3956048023E+00   -4.3835620465E+00   -4.3715850983E+00   -4.3596734197E+00
   -4.3478264787E+00   -4.3360437488E+00   -4.3243247096E+00   -4.3126688459E+00
   -4.3010756482E+00   -4.2895446127E+00   -4.2780752406E+00   -4.2666670386E+00
   -4.2553195187E+00   -4.2440321980E+00   -4.2328045987E+00   -4.2216362481E+00
   -4.2105266784E+00   -4.1994754268E+00   -4.1884820353E+00   -4.1775460507E+00
   -4.1666670245E+00   -4.1558445129E+00   -4.1450780766E+00   -4.1343672809E+00
   -4.1237116956E+00   -4.1131108950E+00   -4.1025644575E+00   -4.0920719662E+00
   -4.0816330081E+00   -4.0712471746E+00   -4.0609140612E+00   -4.0506332675E+00
   -4.0404043971E+00   -4.0302270577E+00   -4.0201008608E+00   -4.0100254218E+00
   -4.0000003602E+00   -3.9900252990E+00   -3.9800998651E+00   -3.9702236890E+00
   -3.9603964050E+00   -3.9506176508E+00   -3.9408870680E+00   -3.9312043014E+00
   -3.9215689994E+00   -3.9119808140E+00   -3.9024394002E+00   -3.8929444168E+00
   -3.8834955256E+00   -3.8740923918E+00   -3.8647346839E+00   -3.8554220735E+00
   -3.8461542352E+00   -3.8369308472E+00   -3.8277515902E+00   -3.8186161484E+00