<UPF version="2.0.1">
  <PP_INFO>

 This pseudopotential file has been produced using the code
 ONCVPSP  (Optimized Norm-Conservinng Vanderbilt PSeudopotential)
 scalar-relativistic version 3.3.1 12/12/2017 by D. R. Hamann
 The code is available through a link at URL www.mat-simresearch.com.
 Documentation with the package provides a full discription of the
 input data below.


 While it is not required under the terms of the GNU GPL, it is
 suggested that you cite D. R. Hamann, Phys. Rev. B 88, 085117 (2013)
 in any publication using these pseudopotentials.

    <PP_INPUTFILE>
# ATOM AND REFERENCE CONFIGURATION
# atsym  z   nc   nv     iexc    psfile
  F  9.00    1    2       4      upf
#
#   n    l    f        energy (Ha)
    1    0    2.00
    2    0    2.00
    2    1    5.00
#
# PSEUDOPOTENTIAL AND OPTIMIZATION
# lmax
    1
#
#   l,   rc,      ep,       ncon, nbas, qcut
    0   1.58478  -1.09879    5    8   8.73495
    1   1.66223  -0.40834    5    8   8.69707
#
# LOCAL POTENTIAL
# lloc, lpopt,  rc(5),   dvloc0
    4    5   0.97178      0.00000
#
# VANDERBILT-KLEINMAN-BYLANDER PROJECTORs
# l, nproj, debl
    0    2   1.51125
    1    2   1.53167
#
# MODEL CORE CHARGE
# icmod, fcfact, rcfact
    0   0.00000   0.00000
#
# LOG DERIVATIVE ANALYSIS
# epsh1, epsh2, depsh
   -5.00    3.00    0.02
#
# OUTPUT GRID
# rlmax, drl
    6.00    0.01
#
# TEST CONFIGURATIONS
# ncnf
    0
# nvcnf
#   n    l    f
    </PP_INPUTFILE>
  </PP_INFO>
  <!--                               -->
  <!-- END OF HUMAN READABLE SECTION -->
  <!--                               -->
    <PP_HEADER
       generated="Generated using ONCVPSP code by D. R. Hamann"
       author="anonymous"
       date="200721"
       comment=""
       element="F "
       pseudo_type="NC"
       relativistic="scalar"
       is_ultrasoft="F"
       is_paw="F"
       is_coulomb="F"
       has_so="F"
       has_wfc="F"
       has_gipaw="F"
       core_correction="F"
       functional="PBE"
       z_valence="    7.00"
       total_psenergy="  -4.74399367164E+01"
       rho_cutoff="   8.31000000000E+00"
       l_max="1"
       l_local="-1"
       mesh_size="   832"
       number_of_wfc="2"
       number_of_proj="4"/>
 <PP_MESH>
   <PP_R type="real"  size=" 832" columns="8">
    0.0000    0.0100    0.0200    0.0300    0.0400    0.0500    0.0600    0.0700
    0.0800    0.0900    0.1000    0.1100    0.1200    0.1300    0.1400    0.1500
    0.1600    0.1700    0.1800    0.1900    0.2000    0.2100    0.2200    0.2300
    0.2400    0.2500    0.2600    0.2700    0.2800    0.2900    0.3000    0.3100
    0.3200    0.3300    0.3400    0.3500    0.3600    0.3700    0.3800    0.3900
    0.4000    0.4100    0.4200    0.4300    0.4400    0.4500    0.4600    0.4700
    0.4800    0.4900    0.5000    0.5100    0.5200    0.5300    0.5400    0.5500
    0.5600    0.5700    0.5800    0.5900    0.6000    0.6100    0.6200    0.6300
    0.6400    0.6500    0.6600    0.6700    0.6800    0.6900    0.7000    0.7100
    0.7200    0.7300    0.7400    0.7500    0.7600    0.7700    0.7800    0.7900
    0.8000    0.8100    0.8200    0.8300    0.8400    0.8500    0.8600    0.8700
    0.8800    0.8900    0.9000    0.9100    0.9200    0.9300    0.9400    0.9500
    0.9600    0.9700    0.9800    0.9900    1.0000    1.0100    1.0200    1.0300
    1.0400    1.0500    1.0600    1.0700    1.0800    1.0900    1.1000    1.1100
    1.1200    1.1300    1.1400    1.1500    1.1600    1.1700    1.1800    1.1900
    1.2000    1.2100    1.2200    1.2300    1.2400    1.2500    1.2600    1.2700
    1.2800    1.2900    1.3000    1.3100    1.3200    1.3300    1.3400    1.3500
    1.3600    1.3700    1.3800    1.3900    1.4000    1.4100    1.4200    1.4300
    1.4400    1.4500    1.4600    1.4700    1.4800    1.4900    1.5000    1.5100
    1.5200    1.5300    1.5400    1.5500    1.5600    1.5700    1.5800    1.5900
    1.6000    1.6100    1.6200    1.6300    1.6400    1.6500    1.6600    1.6700
    1.6800    1.6900    1.7000    1.7100    1.7200    1.7300    1.7400    1.7500
    1.7600    1.7700    1.7800    1.7900    1.8000    1.8100    1.8200    1.8300
    1.8400    1.8500    1.8600    1.8700    1.8800    1.8900    1.9000    1.9100
    1.9200    1.9300    1.9400    1.9500    1.9600    1.9700    1.9800    1.9900
    2.0000    2.0100    2.0200    2.0300    2.0400    2.0500    2.0600    2.0700
    2.0800    2.0900    2.1000    2.1100    2.1200    2.1300    2.1400    2.1500
    2.1600    2.1700    2.1800    2.1900    2.2000    2.2100    2.2200    2.2300
    2.2400    2.2500    2.2600    2.2700    2.2800    2.2900    2.3000    2.3100
    2.3200    2.3300    2.3400    2.3500    2.3600    2.3700    2.3800    2.3900
    2.4000    2.4100    2.4200    2.4300    2.4400    2.4500    2.4600    2.4700
    2.4800    2.4900    2.5000    2.5100    2.5200    2.5300    2.5400    2.5500
    2.5600    2.5700    2.5800    2.5900    2.6000    2.6100    2.6200    2.6300
    2.6400    2.6500    2.6600    2.6700    2.6800    2.6900    2.7000    2.7100
    2.7200    2.7300    2.7400    2.7500    2.7600    2.7700    2.7800    2.7900
    2.8000    2.8100    2.8200    2.8300    2.8400    2.8500    2.8600    2.8700
    2.8800    2.8900    2.9000    2.9100    2.9200    2.9300    2.9400    2.9500
    2.9600    2.9700    2.9800    2.9900    3.0000    3.0100    3.0200    3.0300
    3.0400    3.0500    3.0600    3.0700    3.0800    3.0900    3.1000    3.1100
    3.1200    3.1300    3.1400    3.1500    3.1600    3.1700    3.1800    3.1900
    3.2000    3.2100    3.2200    3.2300    3.2400    3.2500    3.2600    3.2700
    3.2800    3.2900    3.3000    3.3100    3.3200    3.3300    3.3400    3.3500
    3.3600    3.3700    3.3800    3.3900    3.4000    3.4100    3.4200    3.4300
    3.4400    3.4500    3.4600    3.4700    3.4800    3.4900    3.5000    3.5100
    3.5200    3.5300    3.5400    3.5500    3.5600    3.5700    3.5800    3.5900
    3.6000    3.6100    3.6200    3.6300    3.6400    3.6500    3.6600    3.6700
    3.6800    3.6900    3.7000    3.7100    3.7200    3.7300    3.7400    3.7500
    3.7600    3.7700    3.7800    3.7900    3.8000    3.8100    3.8200    3.8300
    3.8400    3.8500    3.8600    3.8700    3.8800    3.8900    3.9000    3.9100
    3.9200    3.9300    3.9400    3.9500    3.9600    3.9700    3.9800    3.9900
    4.0000    4.0100    4.0200    4.0300    4.0400    4.0500    4.0600    4.0700
    4.0800    4.0900    4.1000    4.1100    4.1200    4.1300    4.1400    4.1500
    4.1600    4.1700    4.1800    4.1900    4.2000    4.2100    4.2200    4.2300
    4.2400    4.2500    4.2600    4.2700    4.2800    4.2900    4.3000    4.3100
    4.3200    4.3300    4.3400    4.3500    4.3600    4.3700    4.3800    4.3900
    4.4000    4.4100    4.4200    4.4300    4.4400    4.4500    4.4600    4.4700
    4.4800    4.4900    4.5000    4.5100    4.5200    4.5300    4.5400    4.5500
    4.5600    4.5700    4.5800    4.5900    4.6000    4.6100    4.6200    4.6300
    4.6400    4.6500    4.6600    4.6700    4.6800    4.6900    4.7000    4.7100
    4.7200    4.7300    4.7400    4.7500    4.7600    4.7700    4.7800    4.7900
    4.8000    4.8100    4.8200    4.8300    4.8400    4.8500    4.8600    4.8700
    4.8800    4.8900    4.9000    4.9100    4.9200    4.9300    4.9400    4.9500
    4.9600    4.9700    4.9800    4.9900    5.0000    5.0100    5.0200    5.0300
    5.0400    5.0500    5.0600    5.0700    5.0800    5.0900    5.1000    5.1100
    5.1200    5.1300    5.1400    5.1500    5.1600    5.1700    5.1800    5.1900
    5.2000    5.2100    5.2200    5.2300    5.2400    5.2500    5.2600    5.2700
    5.2800    5.2900    5.3000    5.3100    5.3200    5.3300    5.3400    5.3500
    5.3600    5.3700    5.3800    5.3900    5.4000    5.4100    5.4200    5.4300
    5.4400    5.4500    5.4600    5.4700    5.4800    5.4900    5.5000    5.5100
    5.5200    5.5300    5.5400    5.5500    5.5600    5.5700    5.5800    5.5900
    5.6000    5.6100    5.6200    5.6300    5.6400    5.6500    5.6600    5.6700
    5.6800    5.6900    5.7000    5.7100    5.7200    5.7300    5.7400    5.7500
    5.7600    5.7700    5.7800    5.7900    5.8000    5.8100    5.8200    5.8300
    5.8400    5.8500    5.8600    5.8700    5.8800    5.8900    5.9000    5.9100
    5.9200    5.9300    5.9400    5.9500    5.9600    5.9700    5.9800    5.9900
    6.0000    6.0100    6.0200    6.0300    6.0400    6.0500    6.0600    6.0700
    6.0800    6.0900    6.1000    6.1100    6.1200    6.1300    6.1400    6.1500
    6.1600    6.1700    6.1800    6.1900    6.2000    6.2100    6.2200    6.2300
    6.2400    6.2500    6.2600    6.2700    6.2800    6.2900    6.3000    6.3100
    6.3200    6.3300    6.3400    6.3500    6.3600    6.3700    6.3800    6.3900
    6.4000    6.4100    6.4200    6.4300    6.4400    6.4500    6.4600    6.4700
    6.4800    6.4900    6.5000    6.5100    6.5200    6.5300    6.5400    6.5500
    6.5600    6.5700    6.5800    6.5900    6.6000    6.6100    6.6200    6.6300
    6.6400    6.6500    6.6600    6.6700    6.6800    6.6900    6.7000    6.7100
    6.7200    6.7300    6.7400    6.7500    6.7600    6.7700    6.7800    6.7900
    6.8000    6.8100    6.8200    6.8300    6.8400    6.8500    6.8600    6.8700
    6.8800    6.8900    6.9000    6.9100    6.9200    6.9300    6.9400    6.9500
    6.9600    6.9700    6.9800    6.9900    7.0000    7.0100    7.0200    7.0300
    7.0400    7.0500    7.0600    7.0700    7.0800    7.0900    7.1000    7.1100
    7.1200    7.1300    7.1400    7.1500    7.1600    7.1700    7.1800    7.1900
    7.2000    7.2100    7.2200    7.2300    7.2400    7.2500    7.2600    7.2700
    7.2800    7.2900    7.3000    7.3100    7.3200    7.3300    7.3400    7.3500
    7.3600    7.3700    7.3800    7.3900    7.4000    7.4100    7.4200    7.4300
    7.4400    7.4500    7.4600    7.4700    7.4800    7.4900    7.5000    7.5100
    7.5200    7.5300    7.5400    7.5500    7.5600    7.5700    7.5800    7.5900
    7.6000    7.6100    7.6200    7.6300    7.6400    7.6500    7.6600    7.6700
    7.6800    7.6900    7.7000    7.7100    7.7200    7.7300    7.7400    7.7500
    7.7600    7.7700    7.7800    7.7900    7.8000    7.8100    7.8200    7.8300
    7.8400    7.8500    7.8600    7.8700    7.8800    7.8900    7.9000    7.9100
    7.9200    7.9300    7.9400    7.9500    7.9600    7.9700    7.9800    7.9900
    8.0000    8.0100    8.0200    8.0300    8.0400    8.0500    8.0600    8.0700
    8.0800    8.0900    8.1000    8.1100    8.1200    8.1300    8.1400    8.1500
    8.1600    8.1700    8.1800    8.1900    8.2000    8.2100    8.2200    8.2300
    8.2400    8.2500    8.2600    8.2700    8.2800    8.2900    8.3000    8.3100
   </PP_R>
   <PP_RAB type="real"  size=" 832" columns="8">
    0.0100    0.0100    0.0100    0.0100    0.0100    0.0100    0.0100    0.0100
    0.0100    0.0100    0.0100    0.0100    0.0100    0.0100    0.0100    0.0100
    0.0100    0.0100    0.0100    0.0100    0.0100    0.0100    0.0100    0.0100
    0.0100    0.0100    0.0100    0.0100    0.0100    0.0100    0.0100    0.0100
    0.0100    0.0100    0.0100    0.0100    0.0100    0.0100    0.0100    0.0100
    0.0100    0.0100    0.0100    0.0100    0.0100    0.0100    0.0100    0.0100
    0.0100    0.0100    0.0100    0.0100    0.0100    0.0100    0.0100    0.0100
    0.0100    0.0100    0.0100    0.0100    0.0100    0.0100    0.0100    0.0100
    0.0100    0.0100    0.0100    0.0100    0.0100    0.0100    0.0100    0.0100
    0.0100    0.0100    0.0100    0.0100    0.0100    0.0100    0.0100    0.0100
    0.0100    0.0100    0.0100    0.0100    0.0100    0.0100    0.0100    0.0100
    0.0100    0.0100    0.0100    0.0100    0.0100    0.0100    0.0100    0.0100
    0.0100    0.0100    0.0100    0.0100    0.0100    0.0100    0.0100    0.0100
    0.0100    0.0100    0.0100    0.0100    0.0100    0.0100    0.0100    0.0100
    0.0100    0.0100    0.0100    0.0100    0.0100    0.0100    0.0100    0.0100
    0.0100    0.0100    0.0100    0.0100    0.0100    0.0100    0.0100    0.0100
    0.0100    0.0100    0.0100    0.0100    0.0100    0.0100    0.0100    0.0100
    0.0100    0.0100    0.0100    0.0100    0.0100    0.0100    0.0100    0.0100
    0.0100    0.0100    0.0100    0.0100    0.0100    0.0100    0.0100    0.0100
    0.0100    0.0100    0.0100    0.0100    0.0100    0.0100    0.0100    0.0100
    0.0100    0.0100    0.0100    0.0100    0.0100    0.0100    0.0100    0.0100
    0.0100    0.0100    0.0100    0.0100    0.0100    0.0100    0.0100    0.0100
    0.0100    0.0100    0.0100    0.0100    0.0100    0.0100    0.0100    0.0100
    0.0100    0.0100    0.0100    0.0100    0.0100    0.0100    0.0100    0.0100
    0.0100    0.0100    0.0100    0.0100    0.0100    0.0100    0.0100    0.0100
    0.0100    0.0100    0.0100    0.0100    0.0100    0.0100    0.0100    0.0100
    0.0100    0.0100    0.0100    0.0100    0.0100    0.0100    0.0100    0.0100
    0.0100    0.0100    0.0100    0.0100    0.0100    0.0100    0.0100    0.0100
    0.0100    0.0100    0.0100    0.0100    0.0100    0.0100    0.0100    0.0100
    0.0100    0.0100    0.0100    0.0100    0.0100    0.0100    0.0100    0.0100
    0.0100    0.0100    0.0100    0.0100    0.0100    0.0100    0.0100    0.0100
    0.0100    0.0100    0.0100    0.0100    0.0100    0.0100    0.0100    0.0100
    0.0100    0.0100    0.0100    0.0100    0.0100    0.0100    0.0100    0.0100
    0.0100    0.0100    0.0100    0.0100    0.0100    0.0100    0.0100    0.0100
    0.0100    0.0100    0.0100    0.0100    0.0100    0.0100    0.0100    0.0100
    0.0100    0.0100    0.0100    0.0100    0.0100    0.0100    0.0100    0.0100
    0.0100    0.0100    0.0100    0.0100    0.0100    0.0100    0.0100    0.0100
    0.0100    0.0100    0.0100    0.0100    0.0100    0.0100    0.0100    0.0100
    0.0100    0.0100    0.0100    0.0100    0.0100    0.0100    0.0100    0.0100
    0.0100    0.0100    0.0100    0.0100    0.0100    0.0100    0.0100    0.0100
    0.0100    0.0100    0.0100    0.0100    0.0100    0.0100    0.0100    0.0100
    0.0100    0.0100    0.0100    0.0100    0.0100    0.0100    0.0100    0.0100
    0.0100    0.0100    0.0100    0.0100    0.0100    0.0100    0.0100    0.0100
    0.0100    0.0100    0.0100    0.0100    0.0100    0.0100    0.0100    0.0100
    0.0100    0.0100    0.0100    0.0100    0.0100    0.0100    0.0100    0.0100
    0.0100    0.0100    0.0100    0.0100    0.0100    0.0100    0.0100    0.0100
    0.0100    0.0100    0.0100    0.0100    0.0100    0.0100    0.0100    0.0100
    0.0100    0.0100    0.0100    0.0100    0.0100    0.0100    0.0100    0.0100
    0.0100    0.0100    0.0100    0.0100    0.0100    0.0100    0.0100    0.0100
    0.0100    0.0100    0.0100    0.0100    0.0100    0.0100    0.0100    0.0100
    0.0100    0.0100    0.0100    0.0100    0.0100    0.0100    0.0100    0.0100
    0.0100    0.0100    0.0100    0.0100    0.0100    0.0100    0.0100    0.0100
    0.0100    0.0100    0.0100    0.0100    0.0100    0.0100    0.0100    0.0100
    0.0100    0.0100    0.0100    0.0100    0.0100    0.0100    0.0100    0.0100
    0.0100    0.0100    0.0100    0.0100    0.0100    0.0100    0.0100    0.0100
    0.0100    0.0100    0.0100    0.0100    0.0100    0.0100    0.0100    0.0100
    0.0100    0.0100    0.0100    0.0100    0.0100    0.0100    0.0100    0.0100
    0.0100    0.0100    0.0100    0.0100    0.0100    0.0100    0.0100    0.0100
    0.0100    0.0100    0.0100    0.0100    0.0100    0.0100    0.0100    0.0100
    0.0100    0.0100    0.0100    0.0100    0.0100    0.0100    0.0100    0.0100
    0.0100    0.0100    0.0100    0.0100    0.0100    0.0100    0.0100    0.0100
    0.0100    0.0100    0.0100    0.0100    0.0100    0.0100    0.0100    0.0100
    0.0100    0.0100    0.0100    0.0100    0.0100    0.0100    0.0100    0.0100
    0.0100    0.0100    0.0100    0.0100    0.0100    0.0100    0.0100    0.0100
    0.0100    0.0100    0.0100    0.0100    0.0100    0.0100    0.0100    0.0100
    0.0100    0.0100    0.0100    0.0100    0.0100    0.0100    0.0100    0.0100
    0.0100    0.0100    0.0100    0.0100    0.0100    0.0100    0.0100    0.0100
    0.0100    0.0100    0.0100    0.0100    0.0100    0.0100    0.0100    0.0100
    0.0100    0.0100    0.0100    0.0100    0.0100    0.0100    0.0100    0.0100
    0.0100    0.0100    0.0100    0.0100    0.0100    0.0100    0.0100    0.0100
    0.0100    0.0100    0.0100    0.0100    0.0100    0.0100    0.0100    0.0100
    0.0100    0.0100    0.0100    0.0100    0.0100    0.0100    0.0100    0.0100
    0.0100    0.0100    0.0100    0.0100    0.0100    0.0100    0.0100    0.0100
    0.0100    0.0100    0.0100    0.0100    0.0100    0.0100    0.0100    0.0100
    0.0100    0.0100    0.0100    0.0100    0.0100    0.0100    0.0100    0.0100
    0.0100    0.0100    0.0100    0.0100    0.0100    0.0100    0.0100    0.0100
    0.0100    0.0100    0.0100    0.0100    0.0100    0.0100    0.0100    0.0100
    0.0100    0.0100    0.0100    0.0100    0.0100    0.0100    0.0100    0.0100
    0.0100    0.0100    0.0100    0.0100    0.0100    0.0100    0.0100    0.0100
    0.0100    0.0100    0.0100    0.0100    0.0100    0.0100    0.0100    0.0100
    0.0100    0.0100    0.0100    0.0100    0.0100    0.0100    0.0100    0.0100
    0.0100    0.0100    0.0100    0.0100    0.0100    0.0100    0.0100    0.0100
    0.0100    0.0100    0.0100    0.0100    0.0100    0.0100    0.0100    0.0100
    0.0100    0.0100    0.0100    0.0100    0.0100    0.0100    0.0100    0.0100
    0.0100    0.0100    0.0100    0.0100    0.0100    0.0100    0.0100    0.0100
    0.0100    0.0100    0.0100    0.0100    0.0100    0.0100    0.0100    0.0100
    0.0100    0.0100    0.0100    0.0100    0.0100    0.0100    0.0100    0.0100
    0.0100    0.0100    0.0100    0.0100    0.0100    0.0100    0.0100    0.0100
    0.0100    0.0100    0.0100    0.0100    0.0100    0.0100    0.0100    0.0100
    0.0100    0.0100    0.0100    0.0100    0.0100    0.0100    0.0100    0.0100
    0.0100    0.0100    0.0100    0.0100    0.0100    0.0100    0.0100    0.0100
    0.0100    0.0100    0.0100    0.0100    0.0100    0.0100    0.0100    0.0100
    0.0100    0.0100    0.0100    0.0100    0.0100    0.0100    0.0100    0.0100
    0.0100    0.0100    0.0100    0.0100    0.0100    0.0100    0.0100    0.0100
    0.0100    0.0100    0.0100    0.0100    0.0100    0.0100    0.0100    0.0100
    0.0100    0.0100    0.0100    0.0100    0.0100    0.0100    0.0100    0.0100
    0.0100    0.0100    0.0100    0.0100    0.0100    0.0100    0.0100    0.0100
    0.0100    0.0100    0.0100    0.0100    0.0100    0.0100    0.0100    0.0100
    0.0100    0.0100    0.0100    0.0100    0.0100    0.0100    0.0100    0.0100
    0.0100    0.0100    0.0100    0.0100    0.0100    0.0100    0.0100    0.0100
    0.0100    0.0100    0.0100    0.0100    0.0100    0.0100    0.0100    0.0100
    0.0100    0.0100    0.0100    0.0100    0.0100    0.0100    0.0100    0.0100
    0.0100    0.0100    0.0100    0.0100    0.0100    0.0100    0.0100    0.0100
    0.0100    0.0100    0.0100    0.0100    0.0100    0.0100    0.0100    0.0100
   </PP_RAB>
 </PP_MESH>
  <PP_LOCAL type="real"  size=" 832" columns="4">
   -3.1153744541E+01   -3.1201500657E+01   -3.1329142625E+01   -3.1482698620E+01
   -3.1614256541E+01   -3.1697508810E+01   -3.1726674362E+01   -3.1707677511E+01
   -3.1650463373E+01   -3.1564757413E+01   -3.1458443398E+01   -3.1337319801E+01
   -3.1205409463E+01   -3.1065405369E+01   -3.0919079396E+01   -3.0767600889E+01
   -3.0611763236E+01   -3.0452134707E+01   -3.0289153186E+01   -3.0123182158E+01
   -2.9954541427E+01   -2.9783522203E+01   -2.9610393127E+01   -2.9435401396E+01
   -2.9258771487E+01   -2.9080702888E+01   -2.8901367479E+01   -2.8720906833E+01
   -2.8539429518E+01   -2.8357008382E+01   -2.8173677901E+01   -2.7989431719E+01
   -2.7804220664E+01   -2.7617951615E+01   -2.7430487692E+01   -2.7241650270E+01
   -2.7051223271E+01   -2.6858960043E+01   -2.6664592924E+01   -2.6467845261E+01
   -2.6268445348E+01   -2.6066141389E+01   -2.5860716379E+01   -2.5652001651E+01
   -2.5439887909E+01   -2.5224332792E+01   -2.5005364352E+01   -2.4783080329E+01
   -2.4557643486E+01   -2.4329273724E+01   -2.4098237887E+01   -2.3864838323E+01
   -2.3629401217E+01   -2.3392265554E+01   -2.3153773361E+01   -2.2914261630E+01
   -2.2674056084E+01   -2.2433466768E+01   -2.2192785290E+01   -2.1952283468E+01
   -2.1712213092E+01   -2.1472806505E+01   -2.1234277752E+01   -2.0996824048E+01
   -2.0760627416E+01   -2.0525856325E+01   -2.0292667260E+01   -2.0061206143E+01
   -1.9831609586E+01   -1.9604005945E+01   -1.9378516191E+01   -1.9155254595E+01
   -1.8934329251E+01   -1.8715842453E+01   -1.8499890941E+01   -1.8286566043E+01
   -1.8075953730E+01   -1.7868134591E+01   -1.7663183752E+01   -1.7461170754E+01
   -1.7262159388E+01   -1.7066207504E+01   -1.6873366805E+01   -1.6683682623E+01
   -1.6497193681E+01   -1.6313931859E+01   -1.6133921947E+01   -1.5957181398E+01
   -1.5783720080E+01   -1.5613540030E+01   -1.5446635202E+01   -1.5282991216E+01
   -1.5122585109E+01   -1.4965385076E+01   -1.4811350219E+01   -1.4660430279E+01
   -1.4512565378E+01   -1.4367685733E+01   -1.4225711487E+01   -1.4086552060E+01
   -1.3950111264E+01   -1.3816294511E+01   -1.3685012020E+01   -1.3556178027E+01
   -1.3429710777E+01   -1.3305532369E+01   -1.3183568600E+01   -1.3063748817E+01
   -1.2946005779E+01   -1.2830275513E+01   -1.2716497180E+01   -1.2604612946E+01
   -1.2494567852E+01   -1.2386309692E+01   -1.2279788898E+01   -1.2174958424E+01
   -1.2071773634E+01   -1.1970192205E+01   -1.1870174018E+01   -1.1771681062E+01
   -1.1674677344E+01   -1.1579128789E+01   -1.1485003151E+01   -1.1392269924E+01
   -1.1300900251E+01   -1.1210866829E+01   -1.1122143825E+01   -1.1034706771E+01
   -1.0948532477E+01   -1.0863598930E+01   -1.0779885190E+01   -1.0697371293E+01
   -1.0616038145E+01   -1.0535867413E+01   -1.0456841424E+01   -1.0378943058E+01
   -1.0302155644E+01   -1.0226462862E+01   -1.0151848643E+01   -1.0078297081E+01
   -1.0005792349E+01   -9.9343186260E+00   -9.8638600252E+00   -9.7944005443E+00
   -9.7259240196E+00   -9.6584140942E+00   -9.5918541982E+00   -9.5262275427E+00
   -9.4615171240E+00   -9.3977057415E+00   -9.3347760257E+00   -9.2727104760E+00
   -9.2114915077E+00   -9.1511015062E+00   -9.0915228864E+00   -9.0327381566E+00
   -8.9747299838E+00   -8.9174812613E+00   -8.8609751693E+00   -8.8051952406E+00
   -8.7501254146E+00   -8.6957501039E+00   -8.6420542916E+00   -8.5890235595E+00
   -8.5366440807E+00   -8.4849026184E+00   -8.4337864960E+00   -8.3832835966E+00
   -8.3333823542E+00   -8.2840717180E+00   -8.2353411633E+00   -8.1871805660E+00
   -8.1395800206E+00   -8.0925298271E+00   -8.0460204827E+00   -8.0000426801E+00
   -7.9545873489E+00   -7.9096456443E+00   -7.8652089139E+00   -7.8212686916E+00
   -7.7778167011E+00   -7.7348448505E+00   -7.6923452252E+00   -7.6503100837E+00
   -7.6087318525E+00   -7.5676031222E+00   -7.5269166426E+00   -7.4866653186E+00
   -7.4468422061E+00   -7.4074405079E+00   -7.3684535700E+00   -7.3298748776E+00
   -7.2916980519E+00   -7.2539168460E+00   -7.2165251420E+00   -7.1795169475E+00
   -7.1428863924E+00   -7.1066277256E+00   -7.0707353124E+00   -7.0352036313E+00
   -7.0000272713E+00   -6.9652009290E+00   -6.9307194059E+00   -6.8965776063E+00
   -6.8627705341E+00   -6.8292932908E+00   -6.7961410731E+00   -6.7633091703E+00
   -6.7307929624E+00   -6.6985879180E+00   -6.6666895918E+00   -6.6350936229E+00
   -6.6037957325E+00   -6.5727917224E+00   -6.5420774727E+00   -6.5116489402E+00
   -6.4815021566E+00   -6.4516332267E+00   -6.4220383268E+00   -6.3927137032E+00
   -6.3636556701E+00   -6.3348606087E+00   -6.3063249653E+00   -6.2780452500E+00
   -6.2500180351E+00   -6.2222399540E+00   -6.1947076996E+00   -6.1674180229E+00
   -6.1403677323E+00   -6.1135536917E+00   -6.0869728196E+00   -6.0606220879E+00
   -6.0344985205E+00   -6.0085991923E+00   -5.9829212287E+00   -5.9574618037E+00
   -5.9322181394E+00   -5.9071875046E+00   -5.8823672140E+00   -5.8577546272E+00
   -5.8333471481E+00   -5.8091422233E+00   -5.7851373419E+00   -5.7613300342E+00
   -5.7377178710E+00   -5.7142984627E+00   -5.6910694588E+00   -5.6680285465E+00
   -5.6451734506E+00   -5.6225019323E+00   -5.6000117887E+00   -5.5777008519E+00
   -5.5555669885E+00   -5.5336080988E+00   -5.5118221162E+00   -5.4902070065E+00
   -5.4687607672E+00   -5.4474814270E+00   -5.4263670454E+00   -5.4054157115E+00
   -5.3846255440E+00   -5.3639946904E+00   -5.3435213265E+00   -5.3232036558E+00
   -5.3030399090E+00   -5.2830283436E+00   -5.2631672433E+00   -5.2434549174E+00
   -5.2238897004E+00   -5.2044699519E+00   -5.1851940553E+00   -5.1660604183E+00
   -5.1470674718E+00   -5.1282136697E+00   -5.1094974885E+00   -5.0909174269E+00
   -5.0724720053E+00   -5.0541597654E+00   -5.0359792701E+00   -5.0179291027E+00
   -5.0000078668E+00   -4.9822141858E+00   -4.9645467029E+00   -4.9470040801E+00
   -4.9295849986E+00   -4.9122881578E+00   -4.8951122755E+00   -4.8780560872E+00
   -4.8611183463E+00   -4.8442978229E+00   -4.8275933046E+00   -4.8110035954E+00
   -4.7945275157E+00   -4.7781639021E+00   -4.7619116068E+00   -4.7457694979E+00
   -4.7297364585E+00   -4.7138113870E+00   -4.6979931963E+00   -4.6822808140E+00
   -4.6666731821E+00   -4.6511692565E+00   -4.6357680069E+00   -4.6204684168E+00
   -4.6052694829E+00   -4.5901702151E+00   -4.5751696363E+00   -4.5602667821E+00
   -4.5454607006E+00   -4.5307504521E+00   -4.5161351093E+00   -4.5016137567E+00
   -4.4871854905E+00   -4.4728494185E+00   -4.4586046597E+00   -4.4444503446E+00
   -4.4303856144E+00   -4.4164096214E+00   -4.4025215283E+00   -4.3887205085E+00
   -4.3750057458E+00   -4.3613764338E+00   -4.3478317765E+00   -4.3343709875E+00
   -4.3209932904E+00   -4.3076979180E+00   -4.2944841128E+00   -4.2813511264E+00
   -4.2682982197E+00   -4.2553246623E+00   -4.2424297329E+00   -4.2296127189E+00
   -4.2168729161E+00   -4.2042096291E+00   -4.1916221704E+00   -4.1791098610E+00
   -4.1666720299E+00   -4.1543080141E+00   -4.1420171584E+00   -4.1297988154E+00
   -4.1176523452E+00   -4.1055771155E+00   -4.0935725014E+00   -4.0816378852E+00
   -4.0697726565E+00   -4.0579762118E+00   -4.0462479549E+00   -4.0345872960E+00
   -4.0229936526E+00   -4.0114664485E+00   -4.0000051143E+00   -3.9886090868E+00
   -3.9772778096E+00   -3.9660107323E+00   -3.9548073109E+00   -3.9436670074E+00
   -3.9325892899E+00   -3.9215736325E+00   -3.9106195150E+00   -3.8997264233E+00
   -3.8888938488E+00   -3.8781212885E+00   -3.8674082451E+00   -3.8567542268E+00
   -3.8461587469E+00   -3.8356213245E+00   -3.8251414836E+00   -3.8147187534E+00
   -3.8043526685E+00   -3.7940427683E+00   -3.7837885972E+00   -3.7735897045E+00
   -3.7634456446E+00   -3.7533559763E+00   -3.7433202634E+00   -3.7333380742E+00
   -3.7234089817E+00   -3.7135325633E+00   -3.7037084010E+00   -3.6939360812E+00
   -3.6842151945E+00   -3.6745453360E+00   -3.6649261049E+00   -3.6553571047E+00
   -3.6458379429E+00   -3.6363682312E+00   -3.6269475852E+00   -3.6175756247E+00
   -3.6082519730E+00   -3.5989762578E+00   -3.5897481103E+00   -3.5805671654E+00
   -3.5714330619E+00   -3.5623454423E+00   -3.5533039527E+00   -3.5443082426E+00
   -3.5353579652E+00   -3.5264527773E+00   -3.5175923390E+00   -3.5087763138E+00
   -3.5000043685E+00   -3.4912761735E+00   -3.4825914022E+00   -3.4739497314E+00
   -3.4653508410E+00   -3.4567944142E+00   -3.4482801371E+00   -3.4398076991E+00
   -3.4313767925E+00   -3.4229871127E+00   -3.4146383581E+00   -3.4063302299E+00
   -3.3980624323E+00   -3.3898346723E+00   -3.3816466598E+00   -3.3734981076E+00
   -3.3653887309E+00   -3.3573182481E+00   -3.3492863798E+00   -3.3412928497E+00
   -3.3333373840E+00   -3.3254197113E+00   -3.3175395630E+00   -3.3096966730E+00
   -3.3018907777E+00   -3.2941216158E+00   -3.2863889289E+00   -3.2786924604E+00
   -3.2710319567E+00   -3.2634071662E+00   -3.2558178397E+00   -3.2482637305E+00
   -3.2407445938E+00   -3.2332601875E+00   -3.2258102715E+00   -3.2183946078E+00
   -3.2110129609E+00   -3.2036650971E+00   -3.1963507852E+00   -3.1890697958E+00
   -3.1818219017E+00   -3.1746068777E+00   -3.1674245009E+00   -3.1602745501E+00
   -3.1531568062E+00   -3.1460710520E+00   -3.1390170725E+00   -3.1319946544E+00
   -3.1250035862E+00   -3.1180436586E+00   -3.1111146639E+00   -3.1042163964E+00
   -3.0973486522E+00   -3.0905112290E+00   -3.0837039266E+00   -3.0769265464E+00
   -3.0701788914E+00   -3.0634607666E+00   -3.0567719786E+00   -3.0501123355E+00
   -3.0434816473E+00   -3.0368797257E+00   -3.0303063837E+00   -3.0237614362E+00
   -3.0172446997E+00   -3.0107559921E+00   -3.0042951330E+00   -2.9978619435E+00
   -2.9914562462E+00   -2.9850778652E+00   -2.9787266263E+00   -2.9724023565E+00
   -2.9661048844E+00   -2.9598340401E+00   -2.9535896550E+00   -2.9473715620E+00
   -2.9411795954E+00   -2.9350135909E+00   -2.9288733855E+00   -2.9227588178E+00
   -2.9166697273E+00   -2.9106059553E+00   -2.9045673442E+00   -2.8985537376E+00
   -2.8925649806E+00   -2.8866009195E+00   -2.8806614018E+00   -2.8747462764E+00
   -2.8688553933E+00   -2.8629886038E+00   -2.8571457603E+00   -2.8513267165E+00
   -2.8455313274E+00   -2.8397594490E+00   -2.8340109385E+00   -2.8282856543E+00
   -2.8225834560E+00   -2.8169042040E+00   -2.8112477603E+00   -2.8056139877E+00
   -2.8000027502E+00   -2.7944139129E+00   -2.7888473418E+00   -2.7833029041E+00
   -2.7777804683E+00   -2.7722799034E+00   -2.7668010799E+00   -2.7613438691E+00
   -2.7559081434E+00   -2.7504937761E+00   -2.7451006417E+00   -2.7397286154E+00
   -2.7343775736E+00   -2.7290473935E+00   -2.7237379535E+00   -2.7184491326E+00
   -2.7131808110E+00   -2.7079328698E+00   -2.7027051909E+00   -2.6974976573E+00
   -2.6923101526E+00   -2.6871425615E+00   -2.6819947697E+00   -2.6768666635E+00
   -2.6717581302E+00   -2.6666690580E+00   -2.6615993359E+00   -2.6565488537E+00