Al    ONCVPSP-3.3.1  r_core=   1.31212   2.41091
     13.0000     11.0000      210905    zatom,zion,pspd
     8 -116133   1     4   600     0    pspcod,pspxc,lmax,lloc,mmax,r2well
  5.99000000  0.00000000  0.00000000    rchrg fchrg qchrg
     2     2     0     0    nproj
     3     1           extension_switch
     3     0     0    nprojso
   0                        -4.1800281826927D-01  2.6927529543999D+00
     1  0.0000000000000D+00  1.5965136990204D-09  7.0604688762188D-10
     2  1.0000000000000D-02  2.2311082442336D-02  1.2141925439055D-01
     3  2.0000000000000D-02  4.4760314674520D-02  2.4227344366559D-01
     4  3.0000000000000D-02  6.7483814603554D-02  3.6199998028007D-01
     5  4.0000000000000D-02  9.0613664518909D-02  4.8004122904198D-01
     6  5.0000000000000D-02  1.1427596323961D-01  5.9584697613150D-01
     7  6.0000000000000D-02  1.3858896105376D-01  7.0887688901025D-01
     8  7.0000000000000D-02  1.6366130314243D-01  8.1860296332957D-01
     9  8.0000000000000D-02  1.8959040558341D-01  9.2451195224015D-01
    10  9.0000000000000D-02  2.1646098608066D-01  1.0261077726557D+00
    11  1.0000000000000D-01  2.4434376929126D-01  1.1229138820507D+00
    12  1.1000000000000D-01  2.7329438405838D-01  1.2144756182996D+00
    13  1.2000000000000D-01  3.0335246704418D-01  1.3003624939243D+00
    14  1.3000000000000D-01  3.3454098423369D-01  1.3801704349291D+00
    15  1.4000000000000D-01  3.6686577859538D-01  1.4535239532099D+00
    16  1.5000000000000D-01  4.0031534888391D-01  1.5200782403515D+00
    17  1.6000000000000D-01  4.3486086120668D-01  1.5795211695115D+00
    18  1.7000000000000D-01  4.7045639159764D-01  1.6315751910645D+00
    19  1.8000000000000D-01  5.0703939450263D-01  1.6759991067779D+00
    20  1.9000000000000D-01  5.4453138882889D-01  1.7125897065460D+00
    21  2.0000000000000D-01  5.8283885009893D-01  1.7411832511484D+00
    22  2.1000000000000D-01  6.2185429432089D-01  1.7616567841526D+00
    23  2.2000000000000D-01  6.6145753649005D-01  1.7739292559746D+00
    24  2.3000000000000D-01  7.0151710420956D-01  1.7779624432637D+00
    25  2.4000000000000D-01  7.4189178479867D-01  1.7737616472083D+00
    26  2.5000000000000D-01  7.8243228247858D-01  1.7613761550826D+00
    27  2.6000000000000D-01  8.2298296081211D-01  1.7408994503700D+00
    28  2.7000000000000D-01  8.6338364454931D-01  1.7124691581259D+00
    29  2.8000000000000D-01  9.0347145440787D-01  1.6762667138565D+00
    30  2.9000000000000D-01  9.4308264810676D-01  1.6325167461076D+00
    31  3.0000000000000D-01  9.8205444117309D-01  1.5814861651410D+00
    32  3.1000000000000D-01  1.0202267816540D+00  1.5234829525282D+00
    33  3.2000000000000D-01  1.0574440538745D+00  1.4588546491704D+00
    34  3.3000000000000D-01  1.0935566877728D+00  1.3879865421423D+00
    35  3.4000000000000D-01  1.1284226520914D+00  1.3112995538175D+00
    36  3.5000000000000D-01  1.1619088117794D+00  1.2292478399219D+00
    37  3.6000000000000D-01  1.1938921323297D+00  1.1423161064483D+00
    38  3.7000000000000D-01  1.2242607163992D+00  1.0510166586911D+00
    39  3.8000000000000D-01  1.2529146608955D+00  9.5588619898903D-01
    40  3.9000000000000D-01  1.2797667257122D+00  8.5748239303778D-01
    41  4.0000000000000D-01  1.3047428084078D+00  7.5638022781002D-01
    42  4.1000000000000D-01  1.3277822223003D+00  6.5316818714028D-01
    43  4.2000000000000D-01  1.3488377786387D+00  5.4844427385201D-01
    44  4.3000000000000D-01  1.3678756766525D+00  4.4281190987279D-01
    45  4.4000000000000D-01  1.3848752083381D+00  3.3687574805463D-01
    46  4.5000000000000D-01  1.3998282877416D+00  2.3123743134912D-01
    47  4.6000000000000D-01  1.4127388172172D+00  1.2649133654031D-01
    48  4.7000000000000D-01  1.4236219056159D+00  2.3220340880045D-02
    49  4.8000000000000D-01  1.4325029555625D+00 -7.8008349329321D-02
    50  4.9000000000000D-01  1.4394166388659D+00 -1.7664726892279D-01
    51  5.0000000000000D-01  1.4444057806579D+00 -2.7217262379103D-01
    52  5.1000000000000D-01  1.4475201740317D+00 -3.6408804221918D-01
    53  5.2000000000000D-01  1.4488153477501D+00 -4.5192811055582D-01
    54  5.3000000000000D-01  1.4483513099919D+00 -5.3526165782426D-01
    55  5.4000000000000D-01  1.4461912911070D+00 -6.1369475606025D-01
    56  5.5000000000000D-01  1.4424005079546D+00 -6.8687340578346D-01
    57  5.6000000000000D-01  1.4370449716196D+00 -7.5448587904416D-01
    58  5.7000000000000D-01  1.4301903591486D+00 -8.1626469591945D-01
    59  5.8000000000000D-01  1.4219009684570D+00 -8.7198821408776D-01
    60  5.9000000000000D-01  1.4122387737398D+00 -9.2148181518095D-01
    61  6.0000000000000D-01  1.4012625966373D+00 -9.6461867589535D-01
    62  6.1000000000000D-01  1.3890274060632D+00 -1.0013201163416D+00
    63  6.2000000000000D-01  1.3755837570925D+00 -1.0315555226843D+00
    64  6.3000000000000D-01  1.3609773766177D+00 -1.0553418457998D+00
    65  6.4000000000000D-01  1.3452489007271D+00 -1.0727426823005D+00
    66  6.5000000000000D-01  1.3284337659410D+00 -1.0838669488359D+00
    67  6.6000000000000D-01  1.3105622536397D+00 -1.0888671650046D+00
    68  6.7000000000000D-01  1.2916596842826D+00 -1.0879373643990D+00
    69  6.8000000000000D-01  1.2717467553948D+00 -1.0813106572396D+00
    70  6.9000000000000D-01  1.2508400148308D+00 -1.0692564716549D+00
    71  7.0000000000000D-01  1.2289524585828D+00 -1.0520775038738D+00
    72  7.1000000000000D-01  1.2060942404019D+00 -1.0301064103707D+00
    73  7.2000000000000D-01  1.1822734787903D+00 -1.0037022773153D+00
    74  7.3000000000000D-01  1.1574971455363D+00 -9.7324690447367D-01
    75  7.4000000000000D-01  1.1317720189234D+00 -9.3914094196692D-01
    76  7.5000000000000D-01  1.1051056840664D+00 -9.0179991900855D-01
    77  7.6000000000000D-01  1.0775075625287D+00 -8.6165020388914D-01
    78  7.7000000000000D-01  1.0489899534506D+00 -8.1912493407464D-01
    79  7.8000000000000D-01  1.0195690688763D+00 -7.7465995432234D-01
    80  7.9000000000000D-01  9.8926604678798D-01 -7.2868979923256D-01
    81  8.0000000000000D-01  9.5810792652160D-01 -6.8164375466257D-01
    82  8.1000000000000D-01  9.2612857273377D-01 -6.3394202996887D-01
    83  8.2000000000000D-01  8.9336953586777D-01 -5.8599207016002D-01
    84  8.3000000000000D-01  8.5988083910584D-01 -5.3818503378296D-01
    85  8.4000000000000D-01  8.2572168404233D-01 -4.9089245878836D-01
    86  8.5000000000000D-01  7.9096106972661D-01 -4.4446313478596D-01
    87  8.6000000000000D-01  7.5567832225478D-01 -3.9922019607433D-01
    88  8.7000000000000D-01  7.1996353468230D-01 -3.5545844567931D-01
    89  8.8000000000000D-01  6.8391791963366D-01 -3.1344191643125D-01
    90  8.9000000000000D-01  6.4765407954491D-01 -2.7340167092316D-01
    91  9.0000000000000D-01  6.1129620193850D-01 -2.3553383808937D-01
    92  9.1000000000000D-01  5.7498019315589D-01 -1.9999787803069D-01
    93  9.2000000000000D-01  5.3885375533529D-01 -1.6691506818977D-01
    94  9.3000000000000D-01  5.0307631123029D-01 -1.3636726822631D-01
    95  9.4000000000000D-01  4.6781946206988D-01 -1.0839553736537D-01
    96  9.5000000000000D-01  4.3326459424069D-01 -8.3000590412034D-02
    97  9.6000000000000D-01  3.9958790552165D-01 -6.0151183074067D-02
    98  9.7000000000000D-01  3.6694648946911D-01 -3.9793784201963D-02
    99  9.8000000000000D-01  3.3547734768624D-01 -2.1855644218399D-02
   100  9.9000000000000D-01  3.0529818525907D-01 -6.2469383230031D-03
   101  1.0000000000000D+00  2.7650782772984D-01  7.1368969592494D-03
   102  1.0100000000000D+00  2.4918674571415D-01  1.8412893343835D-02
   103  1.0200000000000D+00  2.2339762420250D-01  2.7708336541942D-02
   104  1.0300000000000D+00  1.9918597563723D-01  3.5158621974906D-02
   105  1.0400000000000D+00  1.7658081261294D-01  4.0905202998961D-02
   106  1.0500000000000D+00  1.5559538921564D-01  4.5093648883412D-02
   107  1.0600000000000D+00  1.3622801789812D-01  4.7871826952348D-02
   108  1.0700000000000D+00  1.1846296648744D-01  4.9388220302384D-02
   109  1.0800000000000D+00  1.0227143725836D-01  4.9790389127554D-02
   110  1.0900000000000D+00  8.7612627377953D-02  4.9223580395909D-02
   111  1.1000000000000D+00  7.4434867159525D-02  4.7829487072224D-02
   112  1.1100000000000D+00  6.2676829443852D-02  4.5745154243256D-02
   113  1.1200000000000D+00  5.2268800665978D-02  4.3102026094705D-02
   114  1.1300000000000D+00  4.3134001083904D-02  4.0025123828734D-02
   115  1.1400000000000D+00  3.5189939435851D-02  3.6632341845129D-02
   116  1.1500000000000D+00  2.8349784120236D-02  3.3033845389690D-02
   117  1.1600000000000D+00  2.2523731507225D-02  2.9331550807586D-02
   118  1.1700000000000D+00  1.7620350535819D-02  2.5618667368775D-02
   119  1.1800000000000D+00  1.3547881687237D-02  2.1979278037172D-02
   120  1.1900000000000D+00  1.0215468469124D-02  1.8487935935741D-02
   121  1.2000000000000D+00  7.5343013743176D-03  1.5209255116112D-02
   122  1.2100000000000D+00  5.4186555630658D-03  1.2197475484860D-02
   123  1.2200000000000D+00  3.7868070195507D-03  9.4959854771681D-03
   124  1.2300000000000D+00  2.5618180822193D-03  7.1367936630680D-03
   125  1.2400000000000D+00  1.6721886034803D-03  5.1399474985117D-03
   126  1.2500000000000D+00  1.0523737766469D-03  3.5129031545838D-03
   127  1.2600000000000D+00  6.4318313327527D-04  2.2498688498613D-03
   128  1.2700000000000D+00  3.9231155858653D-04  1.3313075239957D-03
   129  1.2800000000000D+00  2.5350528341519D-04  7.2261340899187D-04
   130  1.2900000000000D+00  1.8545599418497D-04  3.7158218720896D-04
   131  1.3000000000000D+00  1.7437169262144D-04  2.3296614531032D-04
   132  1.3100000000000D+00  1.7150000835883D-04  1.9793585315421D-04
   133  1.3200000000000D+00  8.2417949789707D-05  9.4082874039483D-05
   134  1.3300000000000D+00 -9.5328337905853D-06 -1.0668638658791D-05
   135  1.3400000000000D+00 -9.8985254748945D-06 -1.1056382467466D-05
   136  1.3500000000000D+00  3.7654481322934D-06  4.1592580250235D-06
   137  1.3600000000000D+00 -7.5308163012993D-09 -8.6549405797217D-09
   138  1.3700000000000D+00 -4.1749713013795D-07 -4.7981688956148D-07
   139  1.3800000000000D+00  0.0000000000000D+00  0.0000000000000D+00
   140  1.3900000000000D+00  0.0000000000000D+00  0.0000000000000D+00
   141  1.4000000000000D+00  0.0000000000000D+00  0.0000000000000D+00
   142  1.4100000000000D+00  0.0000000000000D+00  0.0000000000000D+00
   143  1.4200000000000D+00  0.0000000000000D+00  0.0000000000000D+00
   144  1.4300000000000D+00  0.0000000000000D+00  0.0000000000000D+00
   145  1.4400000000000D+00  0.0000000000000D+00  0.0000000000000D+00
   146  1.4500000000000D+00  0.0000000000000D+00  0.0000000000000D+00
   147  1.4600000000000D+00  0.0000000000000D+00  0.0000000000000D+00
   148  1.4700000000000D+00  0.0000000000000D+00  0.0000000000000D+00
   149  1.4800000000000D+00  0.0000000000000D+00  0.0000000000000D+00
   150  1.4900000000000D+00  0.0000000000000D+00  0.0000000000000D+00
   151  1.5000000000000D+00  0.0000000000000D+00  0.0000000000000D+00
   152  1.5100000000000D+00  0.0000000000000D+00  0.0000000000000D+00
   153  1.5200000000000D+00  0.0000000000000D+00  0.0000000000000D+00
   154  1.5300000000000D+00  0.0000000000000D+00  0.0000000000000D+00
   155  1.5400000000000D+00  0.0000000000000D+00  0.0000000000000D+00
   156  1.5500000000000D+00  0.0000000000000D+00  0.0000000000000D+00
   157  1.5600000000000D+00  0.0000000000000D+00  0.0000000000000D+00
   158  1.5700000000000D+00  0.0000000000000D+00  0.0000000000000D+00
   159  1.5800000000000D+00  0.0000000000000D+00  0.0000000000000D+00
   160  1.5900000000000D+00  0.0000000000000D+00  0.0000000000000D+00
   161  1.6000000000000D+00  0.0000000000000D+00  0.0000000000000D+00
   162  1.6100000000000D+00  0.0000000000000D+00  0.0000000000000D+00
   163  1.6200000000000D+00  0.0000000000000D+00  0.0000000000000D+00
   164  1.6300000000000D+00  0.0000000000000D+00  0.0000000000000D+00
   165  1.6400000000000D+00  0.0000000000000D+00  0.0000000000000D+00
   166  1.6500000000000D+00  0.0000000000000D+00  0.0000000000000D+00
   167  1.6600000000000D+00  0.0000000000000D+00  0.0000000000000D+00
   168  1.6700000000000D+00  0.0000000000000D+00  0.0000000000000D+00
   169  1.6800000000000D+00  0.0000000000000D+00  0.0000000000000D+00
   170  1.6900000000000D+00  0.0000000000000D+00  0.0000000000000D+00
   171  1.7000000000000D+00  0.0000000000000D+00  0.0000000000000D+00
   172  1.7100000000000D+00  0.0000000000000D+00  0.0000000000000D+00
   173  1.7200000000000D+00  0.0000000000000D+00  0.0000000000000D+00
   174  1.7300000000000D+00  0.0000000000000D+00  0.0000000000000D+00
   175  1.7400000000000D+00  0.0000000000000D+00  0.0000000000000D+00
   176  1.7500000000000D+00  0.0000000000000D+00  0.0000000000000D+00
   177  1.7600000000000D+00  0.0000000000000D+00  0.0000000000000D+00
   178  1.7700000000000D+00  0.0000000000000D+00  0.0000000000000D+00
   179  1.7800000000000D+00  0.0000000000000D+00  0.0000000000000D+00
   180  1.7900000000000D+00  0.0000000000000D+00  0.0000000000000D+00
   181  1.8000000000000D+00  0.0000000000000D+00  0.0000000000000D+00
   182  1.8100000000000D+00  0.0000000000000D+00  0.0000000000000D+00
   183  1.8200000000000D+00  0.0000000000000D+00  0.0000000000000D+00
   184  1.8300000000000D+00  0.0000000000000D+00  0.0000000000000D+00
   185  1.8400000000000D+00  0.0000000000000D+00  0.0000000000000D+00
   186  1.8500000000000D+00  0.0000000000000D+00  0.0000000000000D+00
   187  1.8600000000000D+00  0.0000000000000D+00  0.0000000000000D+00
   188  1.8700000000000D+00  0.0000000000000D+00  0.0000000000000D+00
   189  1.8800000000000D+00  0.0000000000000D+00  0.0000000000000D+00
   190  1.8900000000000D+00  0.0000000000000D+00  0.0000000000000D+00
   191  1.9000000000000D+00  0.0000000000000D+00  0.0000000000000D+00
   192  1.9100000000000D+00  0.0000000000000D+00  0.0000000000000D+00
   193  1.9200000000000D+00  0.0000000000000D+00  0.0000000000000D+00
   194  1.9300000000000D+00  0.0000000000000D+00  0.0000000000000D+00
   195  1.9400000000000D+00  0.0000000000000D+00  0.0000000000000D+00
   196  1.9500000000000D+00  0.0000000000000D+00  0.0000000000000D+00
   197  1.9600000000000D+00  0.0000000000000D+00  0.0000000000000D+00
   198  1.9700000000000D+00  0.0000000000000D+00  0.0000000000000D+00
   199  1.9800000000000D+00  0.0000000000000D+00  0.0000000000000D+00
   200  1.9900000000000D+00  0.0000000000000D+00  0.0000000000000D+00
   201  2.0000000000000D+00  0.0000000000000D+00  0.0000000000000D+00
   202  2.0100000000000D+00  0.0000000000000D+00  0.0000000000000D+00
   203  2.0200000000000D+00  0.0000000000000D+00  0.0000000000000D+00
   204  2.0300000000000D+00  0.0000000000000D+00  0.0000000000000D+00
   205  2.0400000000000D+00  0.0000000000000D+00  0.0000000000000D+00
   206  2.0500000000000D+00  0.0000000000000D+00  0.0000000000000D+00
   207  2.0600000000000D+00  0.0000000000000D+00  0.0000000000000D+00
   208  2.0700000000000D+00  0.0000000000000D+00  0.0000000000000D+00
   209  2.0800000000000D+00  0.0000000000000D+00  0.0000000000000D+00
   210  2.0900000000000D+00  0.0000000000000D+00  0.0000000000000D+00
   211  2.1000000000000D+00  0.0000000000000D+00  0.0000000000000D+00
   212  2.1100000000000D+00  0.0000000000000D+00  0.0000000000000D+00
   213  2.1200000000000D+00  0.0000000000000D+00  0.0000000000000D+00
   214  2.1300000000000D+00  0.0000000000000D+00  0.0000000000000D+00
   215  2.1400000000000D+00  0.0000000000000D+00  0.0000000000000D+00
   216  2.1500000000000D+00  0.0000000000000D+00  0.0000000000000D+00
   217  2.1600000000000D+00  0.0000000000000D+00  0.0000000000000D+00
   218  2.1700000000000D+00  0.0000000000000D+00  0.0000000000000D+00
   219  2.1800000000000D+00  0.0000000000000D+00  0.0000000000000D+00
   220  2.1900000000000D+00  0.0000000000000D+00  0.0000000000000D+00
   221  2.2000000000000D+00  0.0000000000000D+00  0.0000000000000D+00
   222  2.2100000000000D+00  0.0000000000000D+00  0.0000000000000D+00
   223  2.2200000000000D+00  0.0000000000000D+00  0.0000000000000D+00
   224  2.2300000000000D+00  0.0000000000000D+00  0.0000000000000D+00
   225  2.2400000000000D+00  0.0000000000000D+00  0.0000000000000D+00
   226  2.2500000000000D+00  0.0000000000000D+00  0.0000000000000D+00
   227  2.2600000000000D+00  0.0000000000000D+00  0.0000000000000D+00
   228  2.2700000000000D+00  0.0000000000000D+00  0.0000000000000D+00
   229  2.2800000000000D+00  0.0000000000000D+00  0.0000000000000D+00
   230  2.2900000000000D+00  0.0000000000000D+00  0.0000000000000D+00
   231  2.3000000000000D+00  0.0000000000000D+00  0.0000000000000D+00
   232  2.3100000000000D+00  0.0000000000000D+00  0.0000000000000D+00
   233  2.3200000000000D+00  0.0000000000000D+00  0.0000000000000D+00
   234  2.3300000000000D+00  0.0000000000000D+00  0.0000000000000D+00
   235  2.3400000000000D+00  0.0000000000000D+00  0.0000000000000D+00
   236  2.3500000000000D+00  0.0000000000000D+00  0.0000000000000D+00
   237  2.3600000000000D+00  0.0000000000000D+00  0.0000000000000D+00
   238  2.3700000000000D+00  0.0000000000000D+00  0.0000000000000D+00
   239  2.3800000000000D+00  0.0000000000000D+00  0.0000000000000D+00
   240  2.3900000000000D+00  0.0000000000000D+00  0.0000000000000D+00
   241  2.4000000000000D+00  0.0000000000000D+00  0.0000000000000D+00
   242  2.4100000000000D+00  0.0000000000000D+00  0.0000000000000D+00
   243  2.4200000000000D+00  0.0000000000000D+00  0.0000000000000D+00
   244  2.4300000000000D+00  0.0000000000000D+00  0.0000000000000D+00
   245  2.4400000000000D+00  0.0000000000000D+00  0.0000000000000D+00
   246  2.4500000000000D+00  0.0000000000000D+00  0.0000000000000D+00
   247  2.4600000000000D+00  0.0000000000000D+00  0.0000000000000D+00
   248  2.4700000000000D+00  0.0000000000000D+00  0.0000000000000D+00
   249  2.4800000000000D+00  0.0000000000000D+00  0.0000000000000D+00
   250  2.4900000000000D+00  0.0000000000000D+00  0.0000000000000D+00
   251  2.5000000000000D+00  0.0000000000000D+00  0.0000000000000D+00
   252  2.5100000000000D+00  0.0000000000000D+00  0.0000000000000D+00
   253  2.5200000000000D+00  0.0000000000000D+00  0.0000000000000D+00
   254  2.5300000000000D+00  0.0000000000000D+00  0.0000000000000D+00
   255  2.5400000000000D+00  0.0000000000000D+00  0.0000000000000D+00
   256  2.5500000000000D+00  0.0000000000000D+00  0.0000000000000D+00
   257  2.5600000000000D+00  0.0000000000000D+00  0.0000000000000D+00
   258  2.5700000000000D+00  0.0000000000000D+00  0.0000000000000D+00
   259  2.5800000000000D+00  0.0000000000000D+00  0.0000000000000D+00
   260  2.5900000000000D+00  0.0000000000000D+00  0.0000000000000D+00
   261  2.6000000000000D+00  0.0000000000000D+00  0.0000000000000D+00
   262  2.6100000000000D+00  0.0000000000000D+00  0.0000000000000D+00
   263  2.6200000000000D+00  0.0000000000000D+00  0.0000000000000D+00
   264  2.6300000000000D+00  0.0000000000000D+00  0.0000000000000D+00
   265  2.6400000000000D+00  0.0000000000000D+00  0.0000000000000D+00
   266  2.6500000000000D+00  0.0000000000000D+00  0.0000000000000D+00
   267  2.6600000000000D+00  0.0000000000000D+00  0.0000000000000D+00
   268  2.6700000000000D+00  0.0000000000000D+00  0.0000000000000D+00
   269  2.6800000000000D+00  0.0000000000000D+00  0.0000000000000D+00
   270  2.6900000000000D+00  0.0000000000000D+00  0.0000000000000D+00
   271  2.7000000000000D+00  0.0000000000000D+00  0.0000000000000D+00
   272  2.7100000000000D+00  0.0000000000000D+00  0.0000000000000D+00
   273  2.7200000000000D+00  0.0000000000000D+00  0.0000000000000D+00
   274  2.7300000000000D+00  0.0000000000000D+00  0.0000000000000D+00
   275  2.7400000000000D+00  0.0000000000000D+00  0.0000000000000D+00
   276  2.7500000000000D+00  0.0000000000000D+00  0.0000000000000D+00
   277  2.7600000000000D+00  0.0000000000000D+00  0.0000000000000D+00
   278  2.7700000000000D+00  0.0000000000000D+00  0.0000000000000D+00
   279  2.7800000000000D+00  0.0000000000000D+00  0.0000000000000D+00
   280  2.7900000000000D+00  0.0000000000000D+00  0.0000000000000D+00
   281  2.8000000000000D+00  0.0000000000000D+00  0.0000000000000D+00
   282  2.8100000000000D+00  0.0000000000000D+00  0.0000000000000D+00
   283  2.8200000000000D+00  0.0000000000000D+00  0.0000000000000D+00
   284  2.8300000000000D+00  0.0000000000000D+00  0.0000000000000D+00
   285  2.8400000000000D+00  0.0000000000000D+00  0.0000000000000D+00
   286  2.8500000000000D+00  0.0000000000000D+00  0.0000000000000D+00
   287  2.8600000000000D+00  0.0000000000000D+00  0.0000000000000D+00
   288  2.8700000000000D+00  0.0000000000000D+00  0.0000000000000D+00
   289  2.8800000000000D+00  0.0000000000000D+00  0.0000000000000D+00
   290  2.8900000000000D+00  0.0000000000000D+00  0.0000000000000D+00
   291  2.9000000000000D+00  0.0000000000000D+00  0.0000000000000D+00
   292  2.9100000000000D+00  0.0000000000000D+00  0.0000000000000D+00
   293  2.9200000000000D+00  0.0000000000000D+00  0.0000000000000D+00
   294  2.9300000000000D+00  0.0000000000000D+00  0.0000000000000D+00
   295  2.9400000000000D+00  0.0000000000000D+00  0.0000000000000D+00
   296  2.9500000000000D+00  0.0000000000000D+00  0.0000000000000D+00
   297  2.9600000000000D+00  0.0000000000000D+00  0.0000000000000D+00
   298  2.9700000000000D+00  0.0000000000000D+00  0.0000000000000D+00
   299  2.9800000000000D+00  0.0000000000000D+00  0.0000000000000D+00
   300  2.9900000000000D+00  0.0000000000000D+00  0.0000000000000D+00
   301  3.0000000000000D+00  0.0000000000000D+00  0.0000000000000D+00
   302  3.0100000000000D+00  0.0000000000000D+00  0.0000000000000D+00
   303  3.0200000000000D+00  0.0000000000000D+00  0.0000000000000D+00
   304  3.0300000000000D+00  0.0000000000000D+00  0.0000000000000D+00
   305  3.0400000000000D+00  0.0000000000000D+00  0.0000000000000D+00
   306  3.0500000000000D+00  0.0000000000000D+00  0.0000000000000D+00
   307  3.0600000000000D+00  0.0000000000000D+00  0.0000000000000D+00
   308  3.0700000000000D+00  0.0000000000000D+00  0.0000000000000D+00
   309  3.0800000000000D+00  0.0000000000000D+00  0.0000000000000D+00
   310  3.0900000000000D+00  0.0000000000000D+00  0.0000000000000D+00
   311  3.1000000000000D+00  0.0000000000000D+00  0.0000000000000D+00
   312  3.1100000000000D+00  0.0000000000000D+00  0.0000000000000D+00
   313  3.1200000000000D+00  0.0000000000000D+00  0.0000000000000D+00
   314  3.1300000000000D+00  0.0000000000000D+00  0.0000000000000D+00
   315  3.1400000000000D+00  0.0000000000000D+00  0.0000000000000D+00
   316  3.1500000000000D+00  0.0000000000000D+00  0.0000000000000D+00
   317  3.1600000000000D+00  0.0000000000000D+00  0.0000000000000D+00
   318  3.1700000000000D+00  0.0000000000000D+00  0.0000000000000D+00
   319  3.1800000000000D+00  0.0000000000000D+00  0.0000000000000D+00
   320  3.1900000000000D+00  0.0000000000000D+00  0.0000000000000D+00
   321  3.2000000000000D+00  0.0000000000000D+00  0.0000000000000D+00
   322  3.2100000000000D+00  0.0000000000000D+00  0.0000000000000D+00
   323  3.2200000000000D+00  0.0000000000000D+00  0.0000000000000D+00
   324  3.2300000000000D+00  0.0000000000000D+00  0.0000000000000D+00
   325  3.2400000000000D+00  0.0000000000000D+00  0.0000000000000D+00
   326  3.2500000000000D+00  0.0000000000000D+00  0.0000000000000D+00
   327  3.2600000000000D+00  0.0000000000000D+00  0.0000000000000D+00
   328  3.2700000000000D+00  0.0000000000000D+00  0.0000000000000D+00
   329  3.2800000000000D+00  0.0000000000000D+00  0.0000000000000D+00
   330  3.2900000000000D+00  0.0000000000000D+00  0.0000000000000D+00
   331  3.3000000000000D+00  0.0000000000000D+00  0.0000000000000D+00
   332  3.3100000000000D+00  0.0000000000000D+00  0.0000000000000D+00
   333  3.3200000000000D+00  0.0000000000000D+00  0.0000000000000D+00
   334  3.3300000000000D+00  0.0000000000000D+00  0.0000000000000D+00
   335  3.3400000000000D+00  0.0000000000000D+00  0.0000000000000D+00
   336  3.3500000000000D+00  0.0000000000000D+00  0.0000000000000D+00
   337  3.3600000000000D+00  0.0000000000000D+00  0.0000000000000D+00
   338  3.3700000000000D+00  0.0000000000000D+00  0.0000000000000D+00
   339  3.3800000000000D+00  0.0000000000000D+00  0.0000000000000D+00
   340  3.3900000000000D+00  0.0000000000000D+00  0.0000000000000D+00
   341  3.4000000000000D+00  0.0000000000000D+00  0.0000000000000D+00
   342  3.4100000000000D+00  0.0000000000000D+00  0.0000000000000D+00
   343  3.4200000000000D+00  0.0000000000000D+00  0.0000000000000D+00
   344  3.4300000000000D+00  0.0000000000000D+00  0.0000000000000D+00
   345  3.4400000000000D+00  0.0000000000000D+00  0.0000000000000D+00
   346  3.4500000000000D+00  0.0000000000000D+00  0.0000000000000D+00
   347  3.4600000000000D+00  0.0000000000000D+00  0.0000000000000D+00
   348  3.4700000000000D+00  0.0000000000000D+00  0.0000000000000D+00
   349  3.4800000000000D+00  0.0000000000000D+00  0.0000000000000D+00
   350  3.4900000000000D+00  0.0000000000000D+00  0.0000000000000D+00
   351  3.5000000000000D+00  0.0000000000000D+00  0.0000000000000D+00
   352  3.5100000000000D+00  0.0000000000000D+00  0.0000000000000D+00
   353  3.5200000000000D+00  0.0000000000000D+00  0.0000000000000D+00
   354  3.5300000000000D+00  0.0000000000000D+00  0.0000000000000D+00
   355  3.5400000000000D+00  0.0000000000000D+00  0.0000000000000D+00
   356  3.5500000000000D+00  0.0000000000000D+00  0.0000000000000D+00
   357  3.5600000000000D+00  0.0000000000000D+00  0.0000000000000D+00
   358  3.5700000000000D+00  0.0000000000000D+00  0.0000000000000D+00
   359  3.5800000000000D+00  0.0000000000000D+00  0.0000000000000D+00
   360  3.5900000000000D+00  0.0000000000000D+00  0.0000000000000D+00
   361  3.6000000000000D+00  0.0000000000000D+00  0.0000000000000D+00
   362  3.6100000000000D+00  0.0000000000000D+00  0.0000000000000D+00
   363  3.6200000000000D+00  0.0000000000000D+00  0.0000000000000D+00
   364  3.6300000000000D+00  0.0000000000000D+00  0.0000000000000D+00
   365  3.6400000000000D+00  0.0000000000000D+00  0.0000000000000D+00
   366  3.6500000000000D+00  0.0000000000000D+00  0.0000000000000D+00
   367  3.6600000000000D+00  0.0000000000000D+00  0.0000000000000D+00
   368  3.6700000000000D+00  0.0000000000000D+00  0.0000000000000D+00
   369  3.6800000000000D+00  0.0000000000000D+00  0.0000000000000D+00
   370  3.6900000000000D+00  0.0000000000000D+00  0.0000000000000D+00
   371  3.7000000000000D+00  0.0000000000000D+00  0.0000000000000D+00
   372  3.7100000000000D+00  0.0000000000000D+00  0.0000000000000D+00
   373  3.7200000000000D+00  0.0000000000000D+00  0.0000000000000D+00
   374  3.7300000000000D+00  0.0000000000000D+00  0.0000000000000D+00
   375  3.7400000000000D+00  0.0000000000000D+00  0.0000000000000D+00
   376  3.7500000000000D+00  0.0000000000000D+00  0.0000000000000D+00
   377  3.7600000000000D+00  0.0000000000000D+00  0.0000000000000D+00
   378  3.7700000000000D+00  0.0000000000000D+00  0.0000000000000D+00
   379  3.7800000000000D+00  0.0000000000000D+00  0.0000000000000D+00
   380  3.7900000000000D+00  0.0000000000000D+00  0.0000000000000D+00
   381  3.8000000000000D+00  0.0000000000000D+00  0.0000000000000D+00
   382  3.8100000000000D+00  0.0000000000000D+00  0.0000000000000D+00
   383  3.8200000000000D+00  0.0000000000000D+00  0.0000000000000D+00
   384  3.8300000000000D+00  0.0000000000000D+00  0.0000000000000D+00
   385  3.8400000000000D+00  0.0000000000000D+00  0.0000000000000D+00
   386  3.8500000000000D+00  0.0000000000000D+00  0.0000000000000D+00
   387  3.8600000000000D+00  0.0000000000000D+00  0.0000000000000D+00
   388  3.8700000000000D+00  0.0000000000000D+00  0.0000000000000D+00
   389  3.8800000000000D+00  0.0000000000000D+00  0.0000000000000D+00
   390  3.8900000000000D+00  0.0000000000000D+00  0.0000000000000D+00
   391  3.9000000000000D+00  0.0000000000000D+00  0.0000000000000D+00
   392  3.9100000000000D+00  0.0000000000000D+00  0.0000000000000D+00
   393  3.9200000000000D+00  0.0000000000000D+00  0.0000000000000D+00
   394  3.9300000000000D+00  0.0000000000000D+00  0.0000000000000D+00
   395  3.9400000000000D+00  0.0000000000000D+00  0.0000000000000D+00
   396  3.9500000000000D+00  0.0000000000000D+00  0.0000000000000D+00
   397  3.9600000000000D+00  0.0000000000000D+00  0.0000000000000D+00
   398  3.9700000000000D+00  0.0000000000000D+00  0.0000000000000D+00
   399  3.9800000000000D+00  0.0000000000000D+00  0.0000000000000D+00
   400  3.9900000000000D+00  0.0000000000000D+00  0.0000000000000D+00
   401  4.0000000000000D+00  0.0000000000000D+00  0.0000000000000D+00
   402  4.0100000000000D+00  0.0000000000000D+00  0.0000000000000D+00
   403  4.0200000000000D+00  0.0000000000000D+00  0.0000000000000D+00
   404  4.0300000000000D+00  0.0000000000000D+00  0.0000000000000D+00
   405  4.0400000000000D+00  0.0000000000000D+00  0.0000000000000D+00
   406  4.0500000000000D+00  0.0000000000000D+00  0.0000000000000D+00
   407  4.0600000000000D+00  0.0000000000000D+00  0.0000000000000D+00
   408  4.0700000000000D+00  0.0000000000000D+00  0.0000000000000D+00
   409  4.0800000000000D+00  0.0000000000000D+00  0.0000000000000D+00
   410  4.0900000000000D+00  0.0000000000000D+00  0.0000000000000D+00
   411  4.1000000000000D+00  0.0000000000000D+00  0.0000000000000D+00
   412  4.1100000000000D+00  0.0000000000000D+00  0.0000000000000D+00
   413  4.1200000000000D+00  0.0000000000000D+00  0.0000000000000D+00
   414  4.1300000000000D+00  0.0000000000000D+00  0.0000000000000D+00
   415  4.1400000000000D+00  0.0000000000000D+00  0.0000000000000D+00
   416  4.1500000000000D+00  0.0000000000000D+00  0.0000000000000D+00
   417  4.1600000000000D+00  0.0000000000000D+00  0.0000000000000D+00
   418  4.1700000000000D+00  0.0000000000000D+00  0.0000000000000D+00
   419  4.1800000000000D+00  0.0000000000000D+00  0.0000000000000D+00
   420  4.1900000000000D+00  0.0000000000000D+00  0.0000000000000D+00
   421  4.2000000000000D+00  0.0000000000000D+00  0.0000000000000D+00
   422  4.2100000000000D+00  0.0000000000000D+00  0.0000000000000D+00