Al    ONCVPSP-3.3.1  r_core=   1.31212   2.41091
     13.0000     11.0000      210905    zatom,zion,pspd
     8 -116133   1     4   600     0    pspcod,pspxc,lmax,lloc,mmax,r2well
  5.99000000  0.00000000  0.00000000    rchrg fchrg qchrg
     2     2     0     0     0    nproj
     1     1           extension_switch
   0                         2.6922136599411D+00 -4.1830507756935D-01
     1  0.0000000000000D+00  7.0518224593030D-10  1.5942888953457D-09
     2  1.0000000000000D-02  1.2142117114716D-01  2.2319686050159D-02
     3  2.0000000000000D-02  2.4227720650166D-01  4.4777447643328D-02
     4  3.0000000000000D-02  3.6200544885698D-01  6.7509329982490D-02
     5  4.0000000000000D-02  4.8004819537569D-01  9.0647345707810D-02
     6  5.0000000000000D-02  5.9585516757879D-01  1.1431752849433D-01
     7  6.0000000000000D-02  7.0888597218046D-01  1.3863806935157D-01
     8  7.0000000000000D-02  8.1861254886312D-01  1.6371756128935D-01
     9  8.0000000000000D-02  9.2452160038253D-01  1.8965337641987D-01
    10  9.0000000000000D-02  1.0261169995436D+00  2.1653019761901D-01
    11  1.0000000000000D-01  1.1229221666162D+00  2.4441872459892D-01
    12  1.1000000000000D-01  1.2144824096907D+00  2.7337457168388D-01
    13  1.2000000000000D-01  1.3003672193302D+00  3.0343737177085D-01
    14  1.3000000000000D-01  1.3801725076951D+00  3.3463009793691D-01
    15  1.4000000000000D-01  1.4535227811226D+00  3.6695861097477D-01
    16  1.5000000000000D-01  1.5200732339717D+00  4.0041143784171D-01
    17  1.6000000000000D-01  1.5795117504333D+00  4.3495978264740D-01
    18  1.7000000000000D-01  1.6315607999806D+00  4.7055776843254D-01
    19  1.8000000000000D-01  1.6759792112346D+00  5.0714290465487D-01
    20  1.9000000000000D-01  1.7125638082771D+00  5.4463677205183D-01
    21  2.0000000000000D-01  1.7411508928838D+00  5.8294591343996D-01
    22  2.1000000000000D-01  1.7616175558069D+00  6.2196291608690D-01
    23  2.2000000000000D-01  1.7738828001311D+00  6.6156766859707D-01
    24  2.3000000000000D-01  1.7779084598803D+00  7.0162877282808D-01
    25  2.4000000000000D-01  1.7736998974847D+00  7.4200508923771D-01
    26  2.5000000000000D-01  1.7613064644416D+00  7.8254739228369D-01
    27  2.6000000000000D-01  1.7408217105207D+00  8.2310011108672D-01
    28  2.7000000000000D-01  1.7123833281894D+00  8.6350312954240D-01
    29  2.8000000000000D-01  1.6761728205520D+00  9.0359361944520D-01
    30  2.9000000000000D-01  1.6324148830092D+00  9.4320787997554D-01
    31  3.0000000000000D-01  1.5813764910316D+00  9.8218315710186D-01
    32  3.1000000000000D-01  1.5233656888907D+00  1.0203594170588D+00
    33  3.2000000000000D-01  1.4587300768690D+00  1.0575810490698D+00
    34  3.3000000000000D-01  1.3878549973592D+00  1.0936984738690D+00
    35  3.4000000000000D-01  1.3111614233222D+00  1.1285696363224D+00
    36  3.5000000000000D-01  1.2291035557588D+00  1.1620613625182D+00
    37  3.6000000000000D-01  1.1421661401375D+00  1.1940505640643D+00
    38  3.7000000000000D-01  1.0508615150438D+00  1.2244252749477D+00
    39  3.8000000000000D-01  9.5572640964238D-01  1.2530855091419D+00
    40  3.9000000000000D-01  8.5731850982009D-01  1.2799439301421D+00
    41  4.0000000000000D-01  7.5621281604458D-01  1.3049263267179D+00
    42  4.1000000000000D-01  6.5299781899819D-01  1.3279718923424D+00
    43  4.2000000000000D-01  5.4827152186055D-01  1.3490333089405D+00
    44  4.3000000000000D-01  4.4263734068123D-01  1.3680766387409D+00
    45  4.4000000000000D-01  3.3669991655392D-01  1.3850810310603D+00
    46  4.5000000000000D-01  2.3106087523321D-01  1.4000382537532D+00
    47  4.6000000000000D-01  1.2631457138822D-01  1.4129520617727D+00
    48  4.7000000000000D-01  2.3043855826756D-02  1.4238374177608D+00
    49  4.8000000000000D-01 -7.8184095276894D-02  1.4327195817891D+00
    50  4.9000000000000D-01 -1.7682184988089D-01  1.4396330892547D+00
    51  5.0000000000000D-01 -2.7234564927500D-01  1.4446206374860D+00
    52  5.1000000000000D-01 -3.6425915868369D-01  1.4477319027877D+00
    53  5.2000000000000D-01 -4.5209700219707D-01  1.4490223104555D+00
    54  5.3000000000000D-01 -5.3542804665552D-01  1.4485517806874D+00
    55  5.4000000000000D-01 -6.1385840128589D-01  1.4463834733255D+00
    56  5.5000000000000D-01 -6.8703410250978D-01  1.4425825539658D+00
    57  5.6000000000000D-01 -7.5464345637728D-01  1.4372150031994D+00
    58  5.7000000000000D-01 -8.1641901451216D-01  1.4303464895961D+00
    59  5.8000000000000D-01 -8.7213916320683D-01  1.4220413255574D+00
    60  5.9000000000000D-01 -9.2162930937512D-01  1.4123615233522D+00
    61  6.0000000000000D-01 -9.6476265135123D-01  1.4013659665677D+00
    62  6.1000000000000D-01 -1.0014605270197D+00  1.3891097098771D+00
    63  6.2000000000000D-01 -1.0316923363309D+00  1.3756434175122D+00
    64  6.3000000000000D-01 -1.0554750399321D+00  1.3610129481553D+00
    65  6.4000000000000D-01 -1.0728722402611D+00  1.3452590912045D+00
    66  6.5000000000000D-01 -1.0839928560118D+00  1.3284174565666D+00
    67  6.6000000000000D-01 -1.0889894052997D+00  1.3105185173248D+00
    68  6.7000000000000D-01 -1.0880559170449D+00  1.2915878019044D+00
    69  6.8000000000000D-01 -1.0814254940190D+00  1.2716462297389D+00
    70  6.9000000000000D-01 -1.0693675546058D+00  1.2507105819808D+00
    71  7.0000000000000D-01 -1.0521847835284D+00  1.2287940965562D+00
    72  7.1000000000000D-01 -1.0302098245729D+00  1.2059071748710D+00
    73  7.2000000000000D-01 -1.0038017506466D+00  1.1820581857698D+00
    74  7.3000000000000D-01 -9.7334234830332D-01  1.1572543509587D+00
    75  7.4000000000000D-01 -9.3923225512809D-01  1.1315026950685D+00
    76  7.5000000000000D-01 -9.0188698908699D-01  1.1048110428560D+00
    77  7.6000000000000D-01 -8.6173290909611D-01  1.0771890457386D+00
    78  7.7000000000000D-01 -8.1920314566166D-01  1.0486492199356D+00
    79  7.8000000000000D-01 -7.7473353948091D-01  1.0192079789444D+00
    80  7.9000000000000D-01 -7.2875862440928D-01  9.8888664389396D-01
    81  8.0000000000000D-01 -6.8170768920742D-01  9.5771241648826D-01
    82  8.1000000000000D-01 -6.3400095002406D-01  9.2571930073465D-01
    83  8.2000000000000D-01 -5.8604586268704D-01  8.9294896143259D-01
    84  8.3000000000000D-01 -5.3823360061792D-01  8.5945150942856D-01
    85  8.4000000000000D-01 -4.9093572060971D-01  8.2528620588652D-01
    86  8.5000000000000D-01 -4.4450103487462D-01  7.9052208023153D-01
    87  8.6000000000000D-01 -3.9925270374426D-01  7.5523845894804D-01
    88  8.7000000000000D-01 -3.5548555925657D-01  7.1952540500216D-01
    89  8.8000000000000D-01 -3.1346366566163D-01  6.8348407025469D-01
    90  8.9000000000000D-01 -2.7341811869236D-01  6.4722696578618D-01
    91  9.0000000000000D-01 -2.3554508134605D-01  6.1087815751304D-01
    92  9.1000000000000D-01 -2.0000404780940D-01  5.7457340049160D-01
    93  9.2000000000000D-01 -1.6691632864165D-01  5.3846021667354D-01
    94  9.3000000000000D-01 -1.3636381460372D-01  5.0269782077530D-01
    95  9.4000000000000D-01 -1.0838759275943D-01  4.6745757881321D-01
    96  9.5000000000000D-01 -8.2988401839251D-02  4.3292061813282D-01
    97  9.6000000000000D-01 -6.0135019846329D-02  3.9926286861907D-01
    98  9.7000000000000D-01 -3.9773938626815D-02  3.6664116197136D-01
    99  9.8000000000000D-01 -2.1832431821286D-02  3.3519224749404D-01
   100  9.9000000000000D-01 -6.2206971839807D-03  3.0503358940120D-01
   101  1.0000000000000D+00  7.1658076689075D-03  2.7626378587878D-01
   102  1.0100000000000D+00  1.8444095619818D-02  2.4896309556156D-01
   103  1.0200000000000D+00  2.7741436562154D-02  2.2319400849612D-01
   104  1.0300000000000D+00  3.5193213814136D-02  1.9900186066132D-01
   105  1.0400000000000D+00  4.0940872970878D-02  1.7641550786284D-01
   106  1.0500000000000D+00  4.5129980423234D-02  1.5544806799368D-01
   107  1.0600000000000D+00  4.7908405940643D-02  1.3609773854046D-01
   108  1.0700000000000D+00  4.9424640719102D-02  1.1834869391834D-01
   109  1.0800000000000D+00  4.9826258915568D-02  1.0217206456144D-01
   110  1.0900000000000D+00  4.9258527404891D-02  8.7526997072044D-02
   111  1.1000000000000D+00  4.7863164947091D-02  7.4361791870723D-02
   112  1.1100000000000D+00  4.5777248116059D-02  6.2615111675335D-02
   113  1.1200000000000D+00  4.3132257934826D-02  5.2217251382374D-02
   114  1.1300000000000D+00  4.0053257303804D-02  4.3091456848182D-02
   115  1.1400000000000D+00  3.6658186543843D-02  3.5155277862336D-02
   116  1.1500000000000D+00  3.3057260258128D-02  2.8321937439373D-02
   117  1.1600000000000D+00  2.9352446652661D-02  2.2501698073340D-02
   118  1.1700000000000D+00  2.5637008287232D-02  1.7603204149529D-02
   119  1.1800000000000D+00  2.1995081635271D-02  1.3534778647957D-02
   120  1.1900000000000D+00  1.8501272216419D-02  1.0205652321265D-02
   121  1.2000000000000D+00  1.5220243927435D-02  7.5271053604156D-03
   122  1.2100000000000D+00  1.2206282444961D-02  5.4135028483388D-03
   123  1.2200000000000D+00  9.5028163215541D-03  3.7832088058185D-03
   124  1.2300000000000D+00  7.1418870015128D-03  2.5593697807536D-03
   125  1.2400000000000D+00  5.1435660185255D-03  1.6705642852215D-03
   126  1.2500000000000D+00  3.5153233674773D-03  1.0513191666198D-03
   127  1.2600000000000D+00  2.2513695529776D-03  6.4250745465772D-04
   128  1.2700000000000D+00  1.3321577521353D-03  3.9187860781455D-04
   129  1.2800000000000D+00  7.2305730894848D-04  2.5322383457437D-04
   130  1.2900000000000D+00  3.7182024744975D-04  1.8527002462234D-04
   131  1.3000000000000D+00  2.3319060634602D-04  1.7425362395766D-04
   132  1.3100000000000D+00  1.9821619740342D-04  1.7143725798720D-04
   133  1.3200000000000D+00  9.4232907496389D-05  8.2398133118139D-05
   134  1.3300000000000D+00 -1.0685934942236D-05 -9.5306081015587D-06
   135  1.3400000000000D+00 -1.1074624056786D-05 -9.8964060294192D-06
   136  1.3500000000000D+00  4.1658867787050D-06  3.7644647682221D-06
   137  1.3600000000000D+00 -8.6677327177403D-09 -7.5283878490406D-09
   138  1.3700000000000D+00 -4.8052606645511D-07 -4.1736250039688D-07
   139  1.3800000000000D+00  0.0000000000000D+00  0.0000000000000D+00
   140  1.3900000000000D+00  0.0000000000000D+00  0.0000000000000D+00
   141  1.4000000000000D+00  0.0000000000000D+00  0.0000000000000D+00
   142  1.4100000000000D+00  0.0000000000000D+00  0.0000000000000D+00
   143  1.4200000000000D+00  0.0000000000000D+00  0.0000000000000D+00
   144  1.4300000000000D+00  0.0000000000000D+00  0.0000000000000D+00
   145  1.4400000000000D+00  0.0000000000000D+00  0.0000000000000D+00
   146  1.4500000000000D+00  0.0000000000000D+00  0.0000000000000D+00
   147  1.4600000000000D+00  0.0000000000000D+00  0.0000000000000D+00
   148  1.4700000000000D+00  0.0000000000000D+00  0.0000000000000D+00
   149  1.4800000000000D+00  0.0000000000000D+00  0.0000000000000D+00
   150  1.4900000000000D+00  0.0000000000000D+00  0.0000000000000D+00
   151  1.5000000000000D+00  0.0000000000000D+00  0.0000000000000D+00
   152  1.5100000000000D+00  0.0000000000000D+00  0.0000000000000D+00
   153  1.5200000000000D+00  0.0000000000000D+00  0.0000000000000D+00
   154  1.5300000000000D+00  0.0000000000000D+00  0.0000000000000D+00
   155  1.5400000000000D+00  0.0000000000000D+00  0.0000000000000D+00
   156  1.5500000000000D+00  0.0000000000000D+00  0.0000000000000D+00
   157  1.5600000000000D+00  0.0000000000000D+00  0.0000000000000D+00
   158  1.5700000000000D+00  0.0000000000000D+00  0.0000000000000D+00
   159  1.5800000000000D+00  0.0000000000000D+00  0.0000000000000D+00
   160  1.5900000000000D+00  0.0000000000000D+00  0.0000000000000D+00
   161  1.6000000000000D+00  0.0000000000000D+00  0.0000000000000D+00
   162  1.6100000000000D+00  0.0000000000000D+00  0.0000000000000D+00
   163  1.6200000000000D+00  0.0000000000000D+00  0.0000000000000D+00
   164  1.6300000000000D+00  0.0000000000000D+00  0.0000000000000D+00
   165  1.6400000000000D+00  0.0000000000000D+00  0.0000000000000D+00
   166  1.6500000000000D+00  0.0000000000000D+00  0.0000000000000D+00
   167  1.6600000000000D+00  0.0000000000000D+00  0.0000000000000D+00
   168  1.6700000000000D+00  0.0000000000000D+00  0.0000000000000D+00
   169  1.6800000000000D+00  0.0000000000000D+00  0.0000000000000D+00
   170  1.6900000000000D+00  0.0000000000000D+00  0.0000000000000D+00
   171  1.7000000000000D+00  0.0000000000000D+00  0.0000000000000D+00
   172  1.7100000000000D+00  0.0000000000000D+00  0.0000000000000D+00
   173  1.7200000000000D+00  0.0000000000000D+00  0.0000000000000D+00
   174  1.7300000000000D+00  0.0000000000000D+00  0.0000000000000D+00
   175  1.7400000000000D+00  0.0000000000000D+00  0.0000000000000D+00
   176  1.7500000000000D+00  0.0000000000000D+00  0.0000000000000D+00
   177  1.7600000000000D+00  0.0000000000000D+00  0.0000000000000D+00
   178  1.7700000000000D+00  0.0000000000000D+00  0.0000000000000D+00
   179  1.7800000000000D+00  0.0000000000000D+00  0.0000000000000D+00
   180  1.7900000000000D+00  0.0000000000000D+00  0.0000000000000D+00
   181  1.8000000000000D+00  0.0000000000000D+00  0.0000000000000D+00
   182  1.8100000000000D+00  0.0000000000000D+00  0.0000000000000D+00
   183  1.8200000000000D+00  0.0000000000000D+00  0.0000000000000D+00
   184  1.8300000000000D+00  0.0000000000000D+00  0.0000000000000D+00
   185  1.8400000000000D+00  0.0000000000000D+00  0.0000000000000D+00
   186  1.8500000000000D+00  0.0000000000000D+00  0.0000000000000D+00
   187  1.8600000000000D+00  0.0000000000000D+00  0.0000000000000D+00
   188  1.8700000000000D+00  0.0000000000000D+00  0.0000000000000D+00
   189  1.8800000000000D+00  0.0000000000000D+00  0.0000000000000D+00
   190  1.8900000000000D+00  0.0000000000000D+00  0.0000000000000D+00
   191  1.9000000000000D+00  0.0000000000000D+00  0.0000000000000D+00
   192  1.9100000000000D+00  0.0000000000000D+00  0.0000000000000D+00
   193  1.9200000000000D+00  0.0000000000000D+00  0.0000000000000D+00
   194  1.9300000000000D+00  0.0000000000000D+00  0.0000000000000D+00
   195  1.9400000000000D+00  0.0000000000000D+00  0.0000000000000D+00
   196  1.9500000000000D+00  0.0000000000000D+00  0.0000000000000D+00
   197  1.9600000000000D+00  0.0000000000000D+00  0.0000000000000D+00
   198  1.9700000000000D+00  0.0000000000000D+00  0.0000000000000D+00
   199  1.9800000000000D+00  0.0000000000000D+00  0.0000000000000D+00
   200  1.9900000000000D+00  0.0000000000000D+00  0.0000000000000D+00
   201  2.0000000000000D+00  0.0000000000000D+00  0.0000000000000D+00
   202  2.0100000000000D+00  0.0000000000000D+00  0.0000000000000D+00
   203  2.0200000000000D+00  0.0000000000000D+00  0.0000000000000D+00
   204  2.0300000000000D+00  0.0000000000000D+00  0.0000000000000D+00
   205  2.0400000000000D+00  0.0000000000000D+00  0.0000000000000D+00
   206  2.0500000000000D+00  0.0000000000000D+00  0.0000000000000D+00
   207  2.0600000000000D+00  0.0000000000000D+00  0.0000000000000D+00
   208  2.0700000000000D+00  0.0000000000000D+00  0.0000000000000D+00
   209  2.0800000000000D+00  0.0000000000000D+00  0.0000000000000D+00
   210  2.0900000000000D+00  0.0000000000000D+00  0.0000000000000D+00
   211  2.1000000000000D+00  0.0000000000000D+00  0.0000000000000D+00
   212  2.1100000000000D+00  0.0000000000000D+00  0.0000000000000D+00
   213  2.1200000000000D+00  0.0000000000000D+00  0.0000000000000D+00
   214  2.1300000000000D+00  0.0000000000000D+00  0.0000000000000D+00
   215  2.1400000000000D+00  0.0000000000000D+00  0.0000000000000D+00
   216  2.1500000000000D+00  0.0000000000000D+00  0.0000000000000D+00
   217  2.1600000000000D+00  0.0000000000000D+00  0.0000000000000D+00
   218  2.1700000000000D+00  0.0000000000000D+00  0.0000000000000D+00
   219  2.1800000000000D+00  0.0000000000000D+00  0.0000000000000D+00
   220  2.1900000000000D+00  0.0000000000000D+00  0.0000000000000D+00
   221  2.2000000000000D+00  0.0000000000000D+00  0.0000000000000D+00
   222  2.2100000000000D+00  0.0000000000000D+00  0.0000000000000D+00
   223  2.2200000000000D+00  0.0000000000000D+00  0.0000000000000D+00
   224  2.2300000000000D+00  0.0000000000000D+00  0.0000000000000D+00
   225  2.2400000000000D+00  0.0000000000000D+00  0.0000000000000D+00
   226  2.2500000000000D+00  0.0000000000000D+00  0.0000000000000D+00
   227  2.2600000000000D+00  0.0000000000000D+00  0.0000000000000D+00
   228  2.2700000000000D+00  0.0000000000000D+00  0.0000000000000D+00
   229  2.2800000000000D+00  0.0000000000000D+00  0.0000000000000D+00
   230  2.2900000000000D+00  0.0000000000000D+00  0.0000000000000D+00
   231  2.3000000000000D+00  0.0000000000000D+00  0.0000000000000D+00
   232  2.3100000000000D+00  0.0000000000000D+00  0.0000000000000D+00
   233  2.3200000000000D+00  0.0000000000000D+00  0.0000000000000D+00
   234  2.3300000000000D+00  0.0000000000000D+00  0.0000000000000D+00
   235  2.3400000000000D+00  0.0000000000000D+00  0.0000000000000D+00
   236  2.3500000000000D+00  0.0000000000000D+00  0.0000000000000D+00
   237  2.3600000000000D+00  0.0000000000000D+00  0.0000000000000D+00
   238  2.3700000000000D+00  0.0000000000000D+00  0.0000000000000D+00
   239  2.3800000000000D+00  0.0000000000000D+00  0.0000000000000D+00
   240  2.3900000000000D+00  0.0000000000000D+00  0.0000000000000D+00
   241  2.4000000000000D+00  0.0000000000000D+00  0.0000000000000D+00
   242  2.4100000000000D+00  0.0000000000000D+00  0.0000000000000D+00
   243  2.4200000000000D+00  0.0000000000000D+00  0.0000000000000D+00
   244  2.4300000000000D+00  0.0000000000000D+00  0.0000000000000D+00
   245  2.4400000000000D+00  0.0000000000000D+00  0.0000000000000D+00
   246  2.4500000000000D+00  0.0000000000000D+00  0.0000000000000D+00
   247  2.4600000000000D+00  0.0000000000000D+00  0.0000000000000D+00
   248  2.4700000000000D+00  0.0000000000000D+00  0.0000000000000D+00
   249  2.4800000000000D+00  0.0000000000000D+00  0.0000000000000D+00
   250  2.4900000000000D+00  0.0000000000000D+00  0.0000000000000D+00
   251  2.5000000000000D+00  0.0000000000000D+00  0.0000000000000D+00
   252  2.5100000000000D+00  0.0000000000000D+00  0.0000000000000D+00
   253  2.5200000000000D+00  0.0000000000000D+00  0.0000000000000D+00
   254  2.5300000000000D+00  0.0000000000000D+00  0.0000000000000D+00
   255  2.5400000000000D+00  0.0000000000000D+00  0.0000000000000D+00
   256  2.5500000000000D+00  0.0000000000000D+00  0.0000000000000D+00
   257  2.5600000000000D+00  0.0000000000000D+00  0.0000000000000D+00
   258  2.5700000000000D+00  0.0000000000000D+00  0.0000000000000D+00
   259  2.5800000000000D+00  0.0000000000000D+00  0.0000000000000D+00
   260  2.5900000000000D+00  0.0000000000000D+00  0.0000000000000D+00
   261  2.6000000000000D+00  0.0000000000000D+00  0.0000000000000D+00
   262  2.6100000000000D+00  0.0000000000000D+00  0.0000000000000D+00
   263  2.6200000000000D+00  0.0000000000000D+00  0.0000000000000D+00
   264  2.6300000000000D+00  0.0000000000000D+00  0.0000000000000D+00
   265  2.6400000000000D+00  0.0000000000000D+00  0.0000000000000D+00
   266  2.6500000000000D+00  0.0000000000000D+00  0.0000000000000D+00
   267  2.6600000000000D+00  0.0000000000000D+00  0.0000000000000D+00
   268  2.6700000000000D+00  0.0000000000000D+00  0.0000000000000D+00
   269  2.6800000000000D+00  0.0000000000000D+00  0.0000000000000D+00
   270  2.6900000000000D+00  0.0000000000000D+00  0.0000000000000D+00
   271  2.7000000000000D+00  0.0000000000000D+00  0.0000000000000D+00
   272  2.7100000000000D+00  0.0000000000000D+00  0.0000000000000D+00
   273  2.7200000000000D+00  0.0000000000000D+00  0.0000000000000D+00
   274  2.7300000000000D+00  0.0000000000000D+00  0.0000000000000D+00
   275  2.7400000000000D+00  0.0000000000000D+00  0.0000000000000D+00
   276  2.7500000000000D+00  0.0000000000000D+00  0.0000000000000D+00
   277  2.7600000000000D+00  0.0000000000000D+00  0.0000000000000D+00
   278  2.7700000000000D+00  0.0000000000000D+00  0.0000000000000D+00
   279  2.7800000000000D+00  0.0000000000000D+00  0.0000000000000D+00
   280  2.7900000000000D+00  0.0000000000000D+00  0.0000000000000D+00
   281  2.8000000000000D+00  0.0000000000000D+00  0.0000000000000D+00
   282  2.8100000000000D+00  0.0000000000000D+00  0.0000000000000D+00
   283  2.8200000000000D+00  0.0000000000000D+00  0.0000000000000D+00
   284  2.8300000000000D+00  0.0000000000000D+00  0.0000000000000D+00
   285  2.8400000000000D+00  0.0000000000000D+00  0.0000000000000D+00
   286  2.8500000000000D+00  0.0000000000000D+00  0.0000000000000D+00
   287  2.8600000000000D+00  0.0000000000000D+00  0.0000000000000D+00
   288  2.8700000000000D+00  0.0000000000000D+00  0.0000000000000D+00
   289  2.8800000000000D+00  0.0000000000000D+00  0.0000000000000D+00
   290  2.8900000000000D+00  0.0000000000000D+00  0.0000000000000D+00
   291  2.9000000000000D+00  0.0000000000000D+00  0.0000000000000D+00
   292  2.9100000000000D+00  0.0000000000000D+00  0.0000000000000D+00
   293  2.9200000000000D+00  0.0000000000000D+00  0.0000000000000D+00
   294  2.9300000000000D+00  0.0000000000000D+00  0.0000000000000D+00
   295  2.9400000000000D+00  0.0000000000000D+00  0.0000000000000D+00
   296  2.9500000000000D+00  0.0000000000000D+00  0.0000000000000D+00
   297  2.9600000000000D+00  0.0000000000000D+00  0.0000000000000D+00
   298  2.9700000000000D+00  0.0000000000000D+00  0.0000000000000D+00
   299  2.9800000000000D+00  0.0000000000000D+00  0.0000000000000D+00
   300  2.9900000000000D+00  0.0000000000000D+00  0.0000000000000D+00
   301  3.0000000000000D+00  0.0000000000000D+00  0.0000000000000D+00
   302  3.0100000000000D+00  0.0000000000000D+00  0.0000000000000D+00
   303  3.0200000000000D+00  0.0000000000000D+00  0.0000000000000D+00
   304  3.0300000000000D+00  0.0000000000000D+00  0.0000000000000D+00
   305  3.0400000000000D+00  0.0000000000000D+00  0.0000000000000D+00
   306  3.0500000000000D+00  0.0000000000000D+00  0.0000000000000D+00
   307  3.0600000000000D+00  0.0000000000000D+00  0.0000000000000D+00
   308  3.0700000000000D+00  0.0000000000000D+00  0.0000000000000D+00
   309  3.0800000000000D+00  0.0000000000000D+00  0.0000000000000D+00
   310  3.0900000000000D+00  0.0000000000000D+00  0.0000000000000D+00
   311  3.1000000000000D+00  0.0000000000000D+00  0.0000000000000D+00
   312  3.1100000000000D+00  0.0000000000000D+00  0.0000000000000D+00
   313  3.1200000000000D+00  0.0000000000000D+00  0.0000000000000D+00
   314  3.1300000000000D+00  0.0000000000000D+00  0.0000000000000D+00
   315  3.1400000000000D+00  0.0000000000000D+00  0.0000000000000D+00
   316  3.1500000000000D+00  0.0000000000000D+00  0.0000000000000D+00
   317  3.1600000000000D+00  0.0000000000000D+00  0.0000000000000D+00
   318  3.1700000000000D+00  0.0000000000000D+00  0.0000000000000D+00
   319  3.1800000000000D+00  0.0000000000000D+00  0.0000000000000D+00
   320  3.1900000000000D+00  0.0000000000000D+00  0.0000000000000D+00
   321  3.2000000000000D+00  0.0000000000000D+00  0.0000000000000D+00
   322  3.2100000000000D+00  0.0000000000000D+00  0.0000000000000D+00
   323  3.2200000000000D+00  0.0000000000000D+00  0.0000000000000D+00
   324  3.2300000000000D+00  0.0000000000000D+00  0.0000000000000D+00
   325  3.2400000000000D+00  0.0000000000000D+00  0.0000000000000D+00
   326  3.2500000000000D+00  0.0000000000000D+00  0.0000000000000D+00
   327  3.2600000000000D+00  0.0000000000000D+00  0.0000000000000D+00
   328  3.2700000000000D+00  0.0000000000000D+00  0.0000000000000D+00
   329  3.2800000000000D+00  0.0000000000000D+00  0.0000000000000D+00
   330  3.2900000000000D+00  0.0000000000000D+00  0.0000000000000D+00
   331  3.3000000000000D+00  0.0000000000000D+00  0.0000000000000D+00
   332  3.3100000000000D+00  0.0000000000000D+00  0.0000000000000D+00
   333  3.3200000000000D+00  0.0000000000000D+00  0.0000000000000D+00
   334  3.3300000000000D+00  0.0000000000000D+00  0.0000000000000D+00
   335  3.3400000000000D+00  0.0000000000000D+00  0.0000000000000D+00
   336  3.3500000000000D+00  0.0000000000000D+00  0.0000000000000D+00
   337  3.3600000000000D+00  0.0000000000000D+00  0.0000000000000D+00
   338  3.3700000000000D+00  0.0000000000000D+00  0.0000000000000D+00
   339  3.3800000000000D+00  0.0000000000000D+00  0.0000000000000D+00
   340  3.3900000000000D+00  0.0000000000000D+00  0.0000000000000D+00
   341  3.4000000000000D+00  0.0000000000000D+00  0.0000000000000D+00
   342  3.4100000000000D+00  0.0000000000000D+00  0.0000000000000D+00
   343  3.4200000000000D+00  0.0000000000000D+00  0.0000000000000D+00
   344  3.4300000000000D+00  0.0000000000000D+00  0.0000000000000D+00
   345  3.4400000000000D+00  0.0000000000000D+00  0.0000000000000D+00
   346  3.4500000000000D+00  0.0000000000000D+00  0.0000000000000D+00
   347  3.4600000000000D+00  0.0000000000000D+00  0.0000000000000D+00
   348  3.4700000000000D+00  0.0000000000000D+00  0.0000000000000D+00
   349  3.4800000000000D+00  0.0000000000000D+00  0.0000000000000D+00
   350  3.4900000000000D+00  0.0000000000000D+00  0.0000000000000D+00
   351  3.5000000000000D+00  0.0000000000000D+00  0.0000000000000D+00
   352  3.5100000000000D+00  0.0000000000000D+00  0.0000000000000D+00
   353  3.5200000000000D+00  0.0000000000000D+00  0.0000000000000D+00
   354  3.5300000000000D+00  0.0000000000000D+00  0.0000000000000D+00
   355  3.5400000000000D+00  0.0000000000000D+00  0.0000000000000D+00
   356  3.5500000000000D+00  0.0000000000000D+00  0.0000000000000D+00
   357  3.5600000000000D+00  0.0000000000000D+00  0.0000000000000D+00
   358  3.5700000000000D+00  0.0000000000000D+00  0.0000000000000D+00
   359  3.5800000000000D+00  0.0000000000000D+00  0.0000000000000D+00
   360  3.5900000000000D+00  0.0000000000000D+00  0.0000000000000D+00
   361  3.6000000000000D+00  0.0000000000000D+00  0.0000000000000D+00
   362  3.6100000000000D+00  0.0000000000000D+00  0.0000000000000D+00
   363  3.6200000000000D+00  0.0000000000000D+00  0.0000000000000D+00
   364  3.6300000000000D+00  0.0000000000000D+00  0.0000000000000D+00
   365  3.6400000000000D+00  0.0000000000000D+00  0.0000000000000D+00
   366  3.6500000000000D+00  0.0000000000000D+00  0.0000000000000D+00
   367  3.6600000000000D+00  0.0000000000000D+00  0.0000000000000D+00
   368  3.6700000000000D+00  0.0000000000000D+00  0.0000000000000D+00
   369  3.6800000000000D+00  0.0000000000000D+00  0.0000000000000D+00
   370  3.6900000000000D+00  0.0000000000000D+00  0.0000000000000D+00
   371  3.7000000000000D+00  0.0000000000000D+00  0.0000000000000D+00
   372  3.7100000000000D+00  0.0000000000000D+00  0.0000000000000D+00
   373  3.7200000000000D+00  0.0000000000000D+00  0.0000000000000D+00
   374  3.7300000000000D+00  0.0000000000000D+00  0.0000000000000D+00
   375  3.7400000000000D+00  0.0000000000000D+00  0.0000000000000D+00
   376  3.7500000000000D+00  0.0000000000000D+00  0.0000000000000D+00
   377  3.7600000000000D+00  0.0000000000000D+00  0.0000000000000D+00
   378  3.7700000000000D+00  0.0000000000000D+00  0.0000000000000D+00
   379  3.7800000000000D+00  0.0000000000000D+00  0.0000000000000D+00
   380  3.7900000000000D+00  0.0000000000000D+00  0.0000000000000D+00
   381  3.8000000000000D+00  0.0000000000000D+00  0.0000000000000D+00
   382  3.8100000000000D+00  0.0000000000000D+00  0.0000000000000D+00
   383  3.8200000000000D+00  0.0000000000000D+00  0.0000000000000D+00
   384  3.8300000000000D+00  0.0000000000000D+00  0.0000000000000D+00
   385  3.8400000000000D+00  0.0000000000000D+00  0.0000000000000D+00
   386  3.8500000000000D+00  0.0000000000000D+00  0.0000000000000D+00
   387  3.8600000000000D+00  0.0000000000000D+00  0.0000000000000D+00
   388  3.8700000000000D+00  0.0000000000000D+00  0.0000000000000D+00
   389  3.8800000000000D+00  0.0000000000000D+00  0.0000000000000D+00
   390  3.8900000000000D+00  0.0000000000000D+00  0.0000000000000D+00
   391  3.9000000000000D+00  0.0000000000000D+00  0.0000000000000D+00
   392  3.9100000000000D+00  0.0000000000000D+00  0.0000000000000D+00
   393  3.9200000000000D+00  0.0000000000000D+00  0.0000000000000D+00
   394  3.9300000000000D+00  0.0000000000000D+00  0.0000000000000D+00
   395  3.9400000000000D+00  0.0000000000000D+00  0.0000000000000D+00
   396  3.9500000000000D+00  0.0000000000000D+00  0.0000000000000D+00
   397  3.9600000000000D+00  0.0000000000000D+00  0.0000000000000D+00
   398  3.9700000000000D+00  0.0000000000000D+00  0.0000000000000D+00
   399  3.9800000000000D+00  0.0000000000000D+00  0.0000000000000D+00
   400  3.9900000000000D+00  0.0000000000000D+00  0.0000000000000D+00
   401  4.0000000000000D+00  0.0000000000000D+00  0.0000000000000D+00
   402  4.0100000000000D+00  0.0000000000000D+00  0.0000000000000D+00
   403  4.0200000000000D+00  0.0000000000000D+00  0.0000000000000D+00
   404  4.0300000000000D+00  0.0000000000000D+00  0.0000000000000D+00
   405  4.0400000000000D+00  0.0000000000000D+00  0.0000000000000D+00
   406  4.0500000000000D+00  0.0000000000000D+00  0.0000000000000D+00
   407  4.0600000000000D+00  0.0000000000000D+00  0.0000000000000D+00
   408  4.0700000000000D+00  0.0000000000000D+00  0.0000000000000D+00
   409  4.0800000000000D+00  0.0000000000000D+00  0.0000000000000D+00
   410  4.0900000000000D+00  0.0000000000000D+00  0.0000000000000D+00
   411  4.1000000000000D+00  0.0000000000000D+00  0.0000000000000D+00
   412  4.1100000000000D+00  0.0000000000000D+00  0.0000000000000D+00
   413  4.1200000000000D+00  0.0000000000000D+00  0.0000000000000D+00
   414  4.1300000000000D+00  0.0000000000000D+00  0.0000000000000D+00
   415  4.1400000000000D+00  0.0000000000000D+00  0.0000000000000D+00
   416  4.1500000000000D+00  0.0000000000000D+00  0.0000000000000D+00
   417  4.1600000000000D+00  0.0000000000000D+00  0.0000000000000D+00
   418  4.1700000000000D+00  0.0000000000000D+00  0.0000000000000D+00
   419  4.1800000000000D+00  0.0000000000000D+00  0.0000000000000D+00
   420  4.1900000000000D+00  0.0000000000000D+00  0.0000000000000D+00
   421  4.2000000000000D+00  0.0000000000000D+00  0.0000000000000D+00
   422  4.2100000000000D+00  0.0000000000000D+00  0.0000000000000D+00
   423  4.2200000000000D+00  0.0000000000000D+00  0.0000000000000D+00