Ar    ONCVPSP-3.3.1  r_core=   2.67516   1.78325
     18.0000      8.0000      210905    zatom,zion,pspd
     8 -116133   1     4   600     0    pspcod,pspxc,lmax,lloc,mmax,r2well
  5.99000000  0.00000000  0.00000000    rchrg fchrg qchrg
     2     2     0     0    nproj
     3     1           extension_switch
     4     0     0    nprojso
   0                        -2.9705137269957D+00  2.7649904950657D+00
     1  0.0000000000000D+00 -2.4686475086355D-11 -6.9710071048945D-12
     2  1.0000000000000D-02 -4.1578256577154D-02  2.5718107864661D-02
     3  2.0000000000000D-02 -8.3102795208535D-02  5.1421072836753D-02
     4  3.0000000000000D-02 -1.2451986268285D-01  7.7093789826832D-02
     5  4.0000000000000D-02 -1.6577563611486D-01  1.0272122909271D-01
     6  5.0000000000000D-02 -2.0681619024483D-01  1.2828847326740D-01
     7  6.0000000000000D-02 -2.4758746728421D-01  1.5378075361715D-01
     8  7.0000000000000D-02 -2.8803525012719D-01  1.7918348528111D-01
     9  8.0000000000000D-02 -3.2810513972325D-01  2.0448230125135D-01
    10  9.0000000000000D-02 -3.6774253737495D-01  2.2966308486002D-01
    11  1.0000000000000D-01 -4.0689263268944D-01  2.5471200055147D-01
    12  1.1000000000000D-01 -4.4550039787005D-01  2.7961552272809D-01
    13  1.2000000000000D-01 -4.8351058898777D-01  3.0436046247240D-01
    14  1.3000000000000D-01 -5.2086775482027D-01  3.2893399196234D-01
    15  1.4000000000000D-01 -5.5751625379026D-01  3.5332366641251D-01
    16  1.5000000000000D-01 -5.9340027947387D-01  3.7751744339123D-01
    17  1.6000000000000D-01 -6.2846389508574D-01  4.0150369938145D-01
    18  1.7000000000000D-01 -6.6265107727942D-01  4.2527124347259D-01
    19  1.8000000000000D-01 -6.9590576953081D-01  4.4880932809020D-01
    20  1.9000000000000D-01 -7.2817194529928D-01  4.7210765669117D-01
    21  2.0000000000000D-01 -7.5939368108514D-01  4.9515638837306D-01
    22  2.1000000000000D-01 -7.8951523942534D-01  5.1794613936805D-01
    23  2.2000000000000D-01 -8.1848116179107D-01  5.4046798141383D-01
    24  2.3000000000000D-01 -8.4623637127179D-01  5.6271343701548D-01
    25  2.4000000000000D-01 -8.7272628485154D-01  5.8467447163509D-01
    26  2.5000000000000D-01 -8.9789693500465D-01  6.0634348286704D-01
    27  2.6000000000000D-01 -9.2169510026016D-01  6.2771328667915D-01
    28  2.7000000000000D-01 -9.4406844430831D-01  6.4877710082064D-01
    29  2.8000000000000D-01 -9.6496566314742D-01  6.6952852551885D-01
    30  2.9000000000000D-01 -9.8433663969810D-01  6.8996152160635D-01
    31  3.0000000000000D-01 -1.0021326052419D+00  7.1007038623940D-01
    32  3.1000000000000D-01 -1.0183063069756D+00  7.2984972638680D-01
    33  3.2000000000000D-01 -1.0328121809114D+00  7.4929443028525D-01
    34  3.3000000000000D-01 -1.0456065292920D+00  7.6839963707331D-01
    35  3.4000000000000D-01 -1.0566477016402D+00  7.8716070483061D-01
    36  3.5000000000000D-01 -1.0658962785105D+00  8.0557317726212D-01
    37  3.6000000000000D-01 -1.0733152569687D+00  8.2363274927922D-01
    38  3.7000000000000D-01 -1.0788702367860D+00  8.4133523173905D-01
    39  3.8000000000000D-01 -1.0825296063041D+00  8.5867651561260D-01
    40  3.9000000000000D-01 -1.0842647268996D+00  8.7565253585841D-01
    41  4.0000000000000D-01 -1.0840501149572D+00  8.9225923528401D-01
    42  4.1000000000000D-01 -1.0818636202477D+00  9.0849252868029D-01
    43  4.2000000000000D-01 -1.0776865995998D+00  9.2434826751558D-01
    44  4.3000000000000D-01 -1.0715040847540D+00  9.3982220547568D-01
    45  4.4000000000000D-01 -1.0633049432946D+00  9.5490996513371D-01
    46  4.5000000000000D-01 -1.0530820315665D+00  9.6960700602964D-01
    47  4.6000000000000D-01 -1.0408323385067D+00  9.8390859443326D-01
    48  4.7000000000000D-01 -1.0265571193424D+00  9.9780977505670D-01
    49  4.8000000000000D-01 -1.0102620181449D+00  1.0113053449728D+00
    50  4.9000000000000D-01 -9.9195717826434D-01  1.0243898299846D+00
    51  5.0000000000000D-01 -9.7165733971667D-01  1.0370574636783D+00
    52  5.1000000000000D-01 -9.4938192264658D-01  1.0493021693769D+00
    53  5.2000000000000D-01 -9.2515509604490D-01  1.0611175451968D+00
    54  5.3000000000000D-01 -8.9900583096310D-01  1.0724968523912D+00
    55  5.4000000000000D-01 -8.7096793753395D-01  1.0834330071454D+00
    56  5.5000000000000D-01 -8.4108008517958D-01  1.0939185759703D+00
    57  5.6000000000000D-01 -8.0938580546494D-01  1.1039457748171D+00
    58  5.7000000000000D-01 -7.7593347713425D-01  1.1135064720174D+00
    59  5.8000000000000D-01 -7.4077629295274D-01  1.1225921951249D+00
    60  5.9000000000000D-01 -7.0397220806180D-01  1.1311941417186D+00
    61  6.0000000000000D-01 -6.6558386964605D-01  1.1393031941947D+00
    62  6.1000000000000D-01 -6.2567852780132D-01  1.1469099385574D+00
    63  6.2000000000000D-01 -5.8432792758647D-01  1.1540046871888D+00
    64  6.3000000000000D-01 -5.4160818233536D-01  1.1605775055547D+00
    65  6.4000000000000D-01 -4.9759962840034D-01  1.1666182427795D+00
    66  6.5000000000000D-01 -4.5238666159318D-01  1.1721165659958D+00
    67  6.6000000000000D-01 -4.0605755568347D-01  1.1770619983511D+00
    68  6.7000000000000D-01 -3.5870426340771D-01  1.1814439605315D+00
    69  6.8000000000000D-01 -3.1042220053397D-01  1.1852518156345D+00
    70  6.9000000000000D-01 -2.6131001361644D-01  1.1884749172047D+00
    71  7.0000000000000D-01 -2.1146933216134D-01  1.1911026602226D+00
    72  7.1000000000000D-01 -1.6100450600939D-01  1.1931245348135D+00
    73  7.2000000000000D-01 -1.1002232882096D-01  1.1945301824285D+00
    74  7.3000000000000D-01 -5.8631748625954D-02  1.1953094542268D+00
    75  7.4000000000000D-01 -6.9435664733751D-03  1.1954524713736D+00
    76  7.5000000000000D-01  4.4929875717912D-02  1.1949496869513D+00
    77  7.6000000000000D-01  9.6875016942797D-02  1.1937919491689D+00
    78  7.7000000000000D-01  1.4877740730713D-01  1.1919705655405D+00
    79  7.8000000000000D-01  2.0052204536670D-01  1.1894773676940D+00
    80  7.9000000000000D-01  2.5199372129148D-01  1.1863047764623D+00
    81  8.0000000000000D-01  3.0307736449996D-01  1.1824458669023D+00
    82  8.1000000000000D-01  3.5365839437680D-01  1.1778944328811D+00
    83  8.2000000000000D-01  4.0362307266173D-01  1.1726450508671D+00
    84  8.3000000000000D-01  4.5285885607940D-01  1.1666931425617D+00
    85  8.4000000000000D-01  5.0125474776870D-01  1.1600350360074D+00
    86  8.5000000000000D-01  5.4870164606599D-01  1.1526680248129D+00
    87  8.6000000000000D-01  5.9509268919928D-01  1.1445904251388D+00
    88  8.7000000000000D-01  6.4032359446086D-01  1.1358016300950D+00
    89  8.8000000000000D-01  6.8429299044243D-01  1.1263021612096D+00
    90  8.9000000000000D-01  7.2690274094108D-01  1.1160937166398D+00
    91  9.0000000000000D-01  7.6805825917496D-01  1.1051792158062D+00
    92  9.1000000000000D-01  8.0766881098508D-01  1.0935628401495D+00
    93  9.2000000000000D-01  8.4564780574341D-01  1.0812500697196D+00
    94  9.3000000000000D-01  8.8191307373735D-01  1.0682477153295D+00
    95  9.4000000000000D-01  9.1638712885693D-01  1.0545639460207D+00
    96  9.5000000000000D-01  9.4899741547229D-01  1.0402083116111D+00
    97  9.6000000000000D-01  9.7967653845623D-01  1.0251917601150D+00
    98  9.7000000000000D-01  1.0083624753780D+00  1.0095266498495D+00
    99  9.8000000000000D-01  1.0349987699717D+00  9.9322675606376D-01
   100  9.9000000000000D-01  1.0595347060624D+00  9.7630727195482D-01
   101  1.0000000000000D+00  1.0819254612171D+00  9.5878480395516D-01
   102  1.0100000000000D+00  1.1021322394759D+00  9.4067736120772D-01
   103  1.0200000000000D+00  1.1201223826098D+00  9.2200433916759D-01
   104  1.0300000000000D+00  1.1358694594418D+00  9.0278649729789D-01
   105  1.0400000000000D+00  1.1493533328635D+00  8.8304593085387D-01
   106  1.0500000000000D+00  1.1605602042801D+00  8.6280603677772D-01
   107  1.0600000000000D+00  1.1694826353005D+00  8.4209147375098D-01
   108  1.0700000000000D+00  1.1761195466024D+00  8.2092811648150D-01
   109  1.0800000000000D+00  1.1804761939872D+00  7.9934300432619D-01
   110  1.0900000000000D+00  1.1825641217405D+00  7.7736428437734D-01
   111  1.1000000000000D+00  1.1824010935128D+00  7.5502114916621D-01
   112  1.1100000000000D+00  1.1800110010131D+00  7.3234376915928D-01
   113  1.1200000000000D+00  1.1754237509216D+00  7.0936322025004D-01
   114  1.1300000000000D+00  1.1686751304986D+00  6.8611140646813D-01
   115  1.1400000000000D+00  1.1598066524665D+00  6.6262097815201D-01
   116  1.1500000000000D+00  1.1488653798023D+00  6.3892524584575D-01
   117  1.1600000000000D+00  1.1359037311851D+00  6.1505809020601D-01
   118  1.1700000000000D+00  1.1209792678964D+00  5.9105386821721D-01
   119  1.1800000000000D+00  1.1041544630523D+00  5.6694731603071D-01
   120  1.1900000000000D+00  1.0854964540962D+00  5.4277344875432D-01
   121  1.2000000000000D+00  1.0650767795621D+00  5.1856745753529D-01
   122  1.2100000000000D+00  1.0429711011608D+00  4.9436460428682D-01
   123  1.2200000000000D+00  1.0192589122827D+00  4.7020011441545D-01
   124  1.2300000000000D+00  9.9402323406781D-01  4.4610906791656D-01
   125  1.2400000000000D+00  9.6735030022830D-01  4.2212628920751D-01
   126  1.2500000000000D+00  9.3932923182760D-01  3.9828623606989D-01
   127  1.2600000000000D+00  9.1005170325662D-01  3.7462288807572D-01
   128  1.2700000000000D+00  8.7961160066486D-01  3.5116963486858D-01
   129  1.2800000000000D+00  8.4810467410642D-01  3.2795916466748D-01
   130  1.2900000000000D+00  8.1562818467915D-01  3.0502335336089D-01
   131  1.3000000000000D+00  7.8228054792491D-01  2.8239315454373D-01
   132  1.3100000000000D+00  7.4816097475146D-01  2.6009849084653D-01
   133  1.3200000000000D+00  7.1336911114013D-01  2.3816814690027D-01
   134  1.3300000000000D+00  6.7800467785132D-01  2.1662966425268D-01
   135  1.3400000000000D+00  6.4216711134904D-01  1.9550923855694D-01
   136  1.3500000000000D+00  6.0595520712947D-01  1.7483161933193D-01
   137  1.3600000000000D+00  5.6946676647721D-01  1.5462001205207D-01
   138  1.3700000000000D+00  5.3279824830174D-01  1.3489598614426D-01
   139  1.3800000000000D+00  4.9604442465704D-01  1.1567937587609D-01
   140  1.3900000000000D+00  4.5929805123342D-01  9.6988223906966D-02
   141  1.4000000000000D+00  4.2264952622761D-01  7.8838638371743D-02
   142  1.4100000000000D+00  3.8618657628730D-01  6.1244721941874D-02
   143  1.4200000000000D+00  3.4999399282417D-01  4.4218864895284D-02
   144  1.4300000000000D+00  3.1415342256695D-01  2.7771986974645D-02
   145  1.4400000000000D+00  2.7874322688950D-01  1.1913860881201D-02
   146  1.4500000000000D+00  2.4383831875262D-01 -3.3469073045033D-03
   147  1.4600000000000D+00  2.0951002066311D-01 -1.8002959705890D-02
   148  1.4700000000000D+00  1.7582594058557D-01 -3.2048163206117D-02
   149  1.4800000000000D+00  1.4284986367369D-01 -4.5477628705215D-02
   150  1.4900000000000D+00  1.1064166128891D-01 -5.8287710875307D-02
   151  1.5000000000000D+00  7.9257216180992D-02 -7.0476007330111D-02
   152  1.5100000000000D+00  4.8748363834866D-02 -8.2041352503272D-02
   153  1.5200000000000D+00  1.9162849825899D-02 -9.2983807073323D-02
   154  1.5300000000000D+00 -9.4556974096425D-03 -1.0330464315321D-01
   155  1.5400000000000D+00 -3.7067778536136D-02 -1.1300632536232D-01
   156  1.5500000000000D+00 -6.3638020673725D-02 -1.2209248801399D-01
   157  1.5600000000000D+00 -8.9135160462556D-02 -1.3056790857405D-01
   158  1.5700000000000D+00 -1.1353201346249D-01 -1.3843847761521D-01
   159  1.5800000000000D+00 -1.3680543039462D-01 -1.4571116546379D-01
   160  1.5900000000000D+00 -1.5893624081056D-01 -1.5239398575535D-01
   161  1.6000000000000D+00 -1.7990918484550D-01 -1.5849595612469D-01
   162  1.6100000000000D+00 -1.9971283362357D-01 -1.6402705624538D-01
   163  1.6200000000000D+00 -2.1833949906871D-01 -1.6899818345826D-01
   164  1.6300000000000D+00 -2.3578513370015D-01 -1.7342110621030D-01
   165  1.6400000000000D+00 -2.5204922120932D-01 -1.7730841554248D-01
   166  1.6500000000000D+00 -2.6713465843457D-01 -1.8067347486147D-01
   167  1.6600000000000D+00 -2.8104762952330D-01 -1.8353036821826D-01
   168  1.6700000000000D+00 -2.9379747295867D-01 -1.8589384734869D-01
   169  1.6800000000000D+00 -3.0539654219209D-01 -1.8777927767563D-01
   170  1.6900000000000D+00 -3.1586006062705D-01 -1.8920258354015D-01
   171  1.7000000000000D+00 -3.2520597160370D-01 -1.9018019281915D-01
   172  1.7100000000000D+00 -3.3345478425345D-01 -1.9072898127082D-01
   173  1.7200000000000D+00 -3.4062941574681D-01 -1.9086621670651D-01
   174  1.7300000000000D+00 -3.4675503080357D-01 -1.9060950324263D-01
   175  1.7400000000000D+00 -3.5185887893546D-01 -1.8997672577773D-01
   176  1.7500000000000D+00 -3.5597013042150D-01 -1.8898599505654D-01
   177  1.7600000000000D+00 -3.5911971126531D-01 -1.8765559329226D-01
   178  1.7700000000000D+00 -3.6134013823710D-01 -1.8600392077616D-01
   179  1.7800000000000D+00 -3.6266535418164D-01 -1.8404944346154D-01
   180  1.7900000000000D+00 -3.6313056447661D-01 -1.8181064170670D-01
   181  1.8000000000000D+00 -3.6277207489353D-01 -1.7930596027200D-01
   182  1.8100000000000D+00 -3.6162713181003D-01 -1.7655375991763D-01
   183  1.8200000000000D+00 -3.5973376495238D-01 -1.7357227057614D-01
   184  1.8300000000000D+00 -3.5713063335535D-01 -1.7037954629345D-01
   185  1.8400000000000D+00 -3.5385687494205D-01 -1.6699342204880D-01
   186  1.8500000000000D+00 -3.4995196002770D-01 -1.6343147248971D-01
   187  1.8600000000000D+00 -3.4545554939745D-01 -1.5971097274712D-01
   188  1.8700000000000D+00 -3.4040735687314D-01 -1.5584886128849D-01
   189  1.8800000000000D+00 -3.3484701743640D-01 -1.5186170514081D-01
   190  1.8900000000000D+00 -3.2881396024326D-01 -1.4776566719302D-01
   191  1.9000000000000D+00 -3.2234728785953D-01 -1.4357647598214D-01
   192  1.9100000000000D+00 -3.1548566093245D-01 -1.3930939767461D-01
   193  1.9200000000000D+00 -3.0826718933914D-01 -1.3497921053476D-01
   194  1.9300000000000D+00 -3.0072932942194D-01 -1.3060018171549D-01
   195  1.9400000000000D+00 -2.9290878767862D-01 -1.2618604646040D-01
   196  1.9500000000000D+00 -2.8484143120949D-01 -1.2174998978132D-01
   197  1.9600000000000D+00 -2.7656220440942D-01 -1.1730463040893D-01
   198  1.9700000000000D+00 -2.6810505279430D-01 -1.1286200720814D-01
   199  1.9800000000000D+00 -2.5950285298008D-01 -1.0843356777368D-01
   200  1.9900000000000D+00 -2.5078734987583D-01 -1.0403015949999D-01
   201  2.0000000000000D+00 -2.4198910020849D-01 -9.9662022791796D-02
   202  2.0100000000000D+00 -2.3313742274477D-01 -9.5338786511420D-02
   203  2.0200000000000D+00 -2.2426035526311D-01 -9.1069465644544D-02
   204  2.0300000000000D+00 -2.1538461759381D-01 -8.6862460969376D-02
   205  2.0400000000000D+00 -2.0653558128154D-01 -8.2725560709010D-02
   206  2.0500000000000D+00 -1.9773724499726D-01 -7.8665944029006D-02
   207  2.0600000000000D+00 -1.8901221627470D-01 -7.4690186491281D-02
   208  2.0700000000000D+00 -1.8038169900927D-01 -7.0804267254392D-02
   209  2.0800000000000D+00 -1.7186548639118D-01 -6.7013577885021D-02
   210  2.0900000000000D+00 -1.6348195957216D-01 -6.3322932823971D-02
   211  2.1000000000000D+00 -1.5524809122261D-01 -5.9736581286607D-02
   212  2.1100000000000D+00 -1.4717945419270D-01 -5.6258220521388D-02
   213  2.1200000000000D+00 -1.3929023480116D-01 -5.2891010337098D-02
   214  2.1300000000000D+00 -1.3159325050768D-01 -4.9637588795345D-02
   215  2.1400000000000D+00 -1.2409997195114D-01 -4.6500089009912D-02
   216  2.1500000000000D+00 -1.1682054876612D-01 -4.3480156909586D-02
   217  2.1600000000000D+00 -1.0976383911181D-01 -4.0578969842014D-02
   218  2.1700000000000D+00 -1.0293744257174D-01 -3.7797255950996D-02
   219  2.1800000000000D+00 -9.6347736163498D-02 -3.5135314246230D-02
   220  2.1900000000000D+00 -8.9999913145845D-02 -3.2593035172756D-02
   221  2.2000000000000D+00 -8.3898024461575D-02 -3.0169921727348D-02
   222  2.2100000000000D+00 -7.8045022407498D-02 -2.7865110898831D-02
   223  2.2200000000000D+00 -7.2442806283022D-02 -2.5677395362835D-02
   224  2.2300000000000D+00 -6.7092270009510D-02 -2.3605245492601D-02
   225  2.2400000000000D+00 -6.1993350947003D-02 -2.1646831306804D-02
   226  2.2500000000000D+00 -5.7145080181784D-02 -1.9800044559562D-02
   227  2.2600000000000D+00 -5.2545633844821D-02 -1.8062520786508D-02
   228  2.2700000000000D+00 -4.8192384934375D-02 -1.6431661093877D-02
   229  2.2800000000000D+00 -4.4081956063121D-02 -1.4904653925800D-02
   230  2.2900000000000D+00 -4.0210272271375D-02 -1.3478496449267D-02
   231  2.3000000000000D+00 -3.6572613888302D-02 -1.2150015583079D-02
   232  2.3100000000000D+00 -3.3163669774799D-02 -1.0915888840415D-02
   233  2.3200000000000D+00 -2.9977589705424D-02 -9.7726644854149D-03
   234  2.3300000000000D+00 -2.7008036614497D-02 -8.7167813352116D-03
   235  2.3400000000000D+00 -2.4248238467509D-02 -7.7445881283172D-03
   236  2.3500000000000D+00 -2.1691038777685D-02 -6.8523620910166D-03
   237  2.3600000000000D+00 -1.9328946730294D-02 -6.0363271065978D-03
   238  2.3700000000000D+00 -1.7154186199202D-02 -5.2926712267651D-03
   239  2.3800000000000D+00 -1.5158743227958D-02 -4.6175633844799D-03
   240  2.3900000000000D+00 -1.3334412787624D-02 -4.0071696332981D-03
   241  2.4000000000000D+00 -1.1672843866986D-02 -3.4576685819551D-03
   242  2.4100000000000D+00 -1.0165582954788D-02 -2.9652660668092D-03
   243  2.4200000000000D+00 -8.8041165125431D-03 -2.5262092907409D-03
   244  2.4300000000000D+00 -7.5799113802566D-03 -2.1368000771587D-03
   245  2.4400000000000D+00 -6.4844535662853D-03 -1.7934074141193D-03
   246  2.4500000000000D+00 -5.5092857921146D-03 -1.4924794226188D-03
   247  2.4600000000000D+00 -4.6460427421893D-03 -1.2305544268960D-03
   248  2.4700000000000D+00 -3.8864847142945D-03 -1.0042713678434D-03
   249  2.4800000000000D+00 -3.2225298430791D-03 -8.1037961627578D-04
   250  2.4900000000000D+00 -2.6462839636638D-03 -6.4574793488647D-04
   251  2.5000000000000D+00 -2.1500688900633D-03 -5.0737282804176D-04
   252  2.5100000000000D+00 -1.7264491382682D-03 -3.9238628356625D-04
   253  2.5200000000000D+00 -1.3682563617536D-03 -2.9806275623717D-04
   254  2.5300000000000D+00 -1.0686122019605D-03 -2.2182557250359D-04
   255  2.5400000000000D+00 -8.2094950334480D-04 -1.6125273268178D-04
   256  2.5500000000000D+00 -6.1903141230941D-04 -1.1408207622652D-04
   257  2.5600000000000D+00 -4.5696887819191D-04 -7.8215892416954D-05
   258  2.5700000000000D+00 -3.2923647957455D-04 -5.1724943506235D-05
   259  2.5800000000000D+00 -2.3068635764027D-04 -3.2851979245264D-05
   260  2.5900000000000D+00 -1.5656998390666D-04 -2.0024048413351D-05
   261  2.6000000000000D+00 -1.0251401097995D-04 -1.1820552859774D-05
   262  2.6100000000000D+00 -6.4564743956659D-05 -7.0103298081078D-06
   263  2.6200000000000D+00 -3.9142655512239D-05 -4.5208140952174D-06
   264  2.6300000000000D+00 -2.3232541254929D-05 -3.5515445280881D-06
   265  2.6400000000000D+00 -1.4216759576749D-05 -3.4683759068684D-06
   266  2.6500000000000D+00 -1.0017045430868D-05 -3.8457983983893D-06
   267  2.6600000000000D+00 -8.4932366080920D-06 -4.2136250413894D-06
   268  2.6700000000000D+00 -7.8188601183236D-06 -4.1931103961628D-06
   269  2.6800000000000D+00 -6.4970253643312D-06 -3.4929105792144D-06
   270  2.6900000000000D+00 -4.1695832148929D-06 -2.2137619605163D-06
   271  2.7000000000000D+00 -1.6118308766953D-06 -8.3859720631300D-07
   272  2.7100000000000D+00  2.9551571783652D-07  1.6324666147516D-07
   273  2.7200000000000D+00  7.9370540742069D-07  4.3724130324987D-07
   274  2.7300000000000D+00  5.6180236584650D-07  3.0836779524384D-07
   275  2.7400000000000D+00 -5.0187465718746D-09 -2.9411357922250D-09
   276  2.7500000000000D+00 -1.4605009244879D-07 -8.5987964239166D-08
   277  2.7600000000000D+00 -1.4465936346445D-07 -8.5501450218405D-08
   278  2.7700000000000D+00 -3.6029908710742D-08 -2.1366282979275D-08
   279  2.7800000000000D+00  1.4690144568147D-08  7.8873394903002D-09
   280  2.7900000000000D+00  2.0687267371123D-08  1.1107276727314D-08
   281  2.8000000000000D+00  1.0461321532606D-08  5.6168265779876D-09
   282  2.8100000000000D+00  0.0000000000000D+00  0.0000000000000D+00
   283  2.8200000000000D+00  0.0000000000000D+00  0.0000000000000D+00
   284  2.8300000000000D+00  0.0000000000000D+00  0.0000000000000D+00
   285  2.8400000000000D+00  0.0000000000000D+00  0.0000000000000D+00
   286  2.8500000000000D+00  0.0000000000000D+00  0.0000000000000D+00
   287  2.8600000000000D+00  0.0000000000000D+00  0.0000000000000D+00
   288  2.8700000000000D+00  0.0000000000000D+00  0.0000000000000D+00
   289  2.8800000000000D+00  0.0000000000000D+00  0.0000000000000D+00
   290  2.8900000000000D+00  0.0000000000000D+00  0.0000000000000D+00
   291  2.9000000000000D+00  0.0000000000000D+00  0.0000000000000D+00
   292  2.9100000000000D+00  0.0000000000000D+00  0.0000000000000D+00
   293  2.9200000000000D+00  0.0000000000000D+00  0.0000000000000D+00
   294  2.9300000000000D+00  0.0000000000000D+00  0.0000000000000D+00
   295  2.9400000000000D+00  0.0000000000000D+00  0.0000000000000D+00
   296  2.9500000000000D+00  0.0000000000000D+00  0.0000000000000D+00
   297  2.9600000000000D+00  0.0000000000000D+00  0.0000000000000D+00
   298  2.9700000000000D+00  0.0000000000000D+00  0.0000000000000D+00
   299  2.9800000000000D+00  0.0000000000000D+00  0.0000000000000D+00
   300  2.9900000000000D+00  0.0000000000000D+00  0.0000000000000D+00
   301  3.0000000000000D+00  0.0000000000000D+00  0.0000000000000D+00
   302  3.0100000000000D+00  0.0000000000000D+00  0.0000000000000D+00
   303  3.0200000000000D+00  0.0000000000000D+00  0.0000000000000D+00
   304  3.0300000000000D+00  0.0000000000000D+00  0.0000000000000D+00
   305  3.0400000000000D+00  0.0000000000000D+00  0.0000000000000D+00
   306  3.0500000000000D+00  0.0000000000000D+00  0.0000000000000D+00
   307  3.0600000000000D+00  0.0000000000000D+00  0.0000000000000D+00
   308  3.0700000000000D+00  0.0000000000000D+00  0.0000000000000D+00
   309  3.0800000000000D+00  0.0000000000000D+00  0.0000000000000D+00
   310  3.0900000000000D+00  0.0000000000000D+00  0.0000000000000D+00
   311  3.1000000000000D+00  0.0000000000000D+00  0.0000000000000D+00
   312  3.1100000000000D+00  0.0000000000000D+00  0.0000000000000D+00
   313  3.1200000000000D+00  0.0000000000000D+00  0.0000000000000D+00
   314  3.1300000000000D+00  0.0000000000000D+00  0.0000000000000D+00
   315  3.1400000000000D+00  0.0000000000000D+00  0.0000000000000D+00
   316  3.1500000000000D+00  0.0000000000000D+00  0.0000000000000D+00
   317  3.1600000000000D+00  0.0000000000000D+00  0.0000000000000D+00
   318  3.1700000000000D+00  0.0000000000000D+00  0.0000000000000D+00
   319  3.1800000000000D+00  0.0000000000000D+00  0.0000000000000D+00
   320  3.1900000000000D+00  0.0000000000000D+00  0.0000000000000D+00
   321  3.2000000000000D+00  0.0000000000000D+00  0.0000000000000D+00
   322  3.2100000000000D+00  0.0000000000000D+00  0.0000000000000D+00
   323  3.2200000000000D+00  0.0000000000000D+00  0.0000000000000D+00
   324  3.2300000000000D+00  0.0000000000000D+00  0.0000000000000D+00
   325  3.2400000000000D+00  0.0000000000000D+00  0.0000000000000D+00
   326  3.2500000000000D+00  0.0000000000000D+00  0.0000000000000D+00
   327  3.2600000000000D+00  0.0000000000000D+00  0.0000000000000D+00
   328  3.2700000000000D+00  0.0000000000000D+00  0.0000000000000D+00
   329  3.2800000000000D+00  0.0000000000000D+00  0.0000000000000D+00
   330  3.2900000000000D+00  0.0000000000000D+00  0.0000000000000D+00
   331  3.3000000000000D+00  0.0000000000000D+00  0.0000000000000D+00
   332  3.3100000000000D+00  0.0000000000000D+00  0.0000000000000D+00
   333  3.3200000000000D+00  0.0000000000000D+00  0.0000000000000D+00
   334  3.3300000000000D+00  0.0000000000000D+00  0.0000000000000D+00
   335  3.3400000000000D+00  0.0000000000000D+00  0.0000000000000D+00
   336  3.3500000000000D+00  0.0000000000000D+00  0.0000000000000D+00
   337  3.3600000000000D+00  0.0000000000000D+00  0.0000000000000D+00
   338  3.3700000000000D+00  0.0000000000000D+00  0.0000000000000D+00
   339  3.3800000000000D+00  0.0000000000000D+00  0.0000000000000D+00
   340  3.3900000000000D+00  0.0000000000000D+00  0.0000000000000D+00
   341  3.4000000000000D+00  0.0000000000000D+00  0.0000000000000D+00
   342  3.4100000000000D+00  0.0000000000000D+00  0.0000000000000D+00
   343  3.4200000000000D+00  0.0000000000000D+00  0.0000000000000D+00
   344  3.4300000000000D+00  0.0000000000000D+00  0.0000000000000D+00
   345  3.4400000000000D+00  0.0000000000000D+00  0.0000000000000D+00
   346  3.4500000000000D+00  0.0000000000000D+00  0.0000000000000D+00
   347  3.4600000000000D+00  0.0000000000000D+00  0.0000000000000D+00
   348  3.4700000000000D+00  0.0000000000000D+00  0.0000000000000D+00
   349  3.4800000000000D+00  0.0000000000000D+00  0.0000000000000D+00
   350  3.4900000000000D+00  0.0000000000000D+00  0.0000000000000D+00
   351  3.5000000000000D+00  0.0000000000000D+00  0.0000000000000D+00
   352  3.5100000000000D+00  0.0000000000000D+00  0.0000000000000D+00
   353  3.5200000000000D+00  0.0000000000000D+00  0.0000000000000D+00
   354  3.5300000000000D+00  0.0000000000000D+00  0.0000000000000D+00
   355  3.5400000000000D+00  0.0000000000000D+00  0.0000000000000D+00
   356  3.5500000000000D+00  0.0000000000000D+00  0.0000000000000D+00
   357  3.5600000000000D+00  0.0000000000000D+00  0.0000000000000D+00
   358  3.5700000000000D+00  0.0000000000000D+00  0.0000000000000D+00
   359  3.5800000000000D+00  0.0000000000000D+00  0.0000000000000D+00
   360  3.5900000000000D+00  0.0000000000000D+00  0.0000000000000D+00
   361  3.6000000000000D+00  0.0000000000000D+00  0.0000000000000D+00
   362  3.6100000000000D+00  0.0000000000000D+00  0.0000000000000D+00
   363  3.6200000000000D+00  0.0000000000000D+00  0.0000000000000D+00
   364  3.6300000000000D+00  0.0000000000000D+00  0.0000000000000D+00
   365  3.6400000000000D+00  0.0000000000000D+00  0.0000000000000D+00
   366  3.6500000000000D+00  0.0000000000000D+00  0.0000000000000D+00
   367  3.6600000000000D+00  0.0000000000000D+00  0.0000000000000D+00
   368  3.6700000000000D+00  0.0000000000000D+00  0.0000000000000D+00
   369  3.6800000000000D+00  0.0000000000000D+00  0.0000000000000D+00
   370  3.6900000000000D+00  0.0000000000000D+00  0.0000000000000D+00
   371  3.7000000000000D+00  0.0000000000000D+00  0.0000000000000D+00
   372  3.7100000000000D+00  0.0000000000000D+00  0.0000000000000D+00
   373  3.7200000000000D+00  0.0000000000000D+00  0.0000000000000D+00
   374  3.7300000000000D+00  0.0000000000000D+00  0.0000000000000D+00
   375  3.7400000000000D+00  0.0000000000000D+00  0.0000000000000D+00
   376  3.7500000000000D+00  0.0000000000000D+00  0.0000000000000D+00
   377  3.7600000000000D+00  0.0000000000000D+00  0.0000000000000D+00
   378  3.7700000000000D+00  0.0000000000000D+00  0.0000000000000D+00
   379  3.7800000000000D+00  0.0000000000000D+00  0.0000000000000D+00
   380  3.7900000000000D+00  0.0000000000000D+00  0.0000000000000D+00
   381  3.8000000000000D+00  0.0000000000000D+00  0.0000000000000D+00
   382  3.8100000000000D+00  0.0000000000000D+00  0.0000000000000D+00
   383  3.8200000000000D+00  0.0000000000000D+00  0.0000000000000D+00
   384  3.8300000000000D+00  0.0000000000000D+00  0.0000000000000D+00
   385  3.8400000000000D+00  0.0000000000000D+00  0.0000000000000D+00
   386  3.8500000000000D+00  0.0000000000000D+00  0.0000000000000D+00
   387  3.8600000000000D+00  0.0000000000000D+00  0.0000000000000D+00
   388  3.8700000000000D+00  0.0000000000000D+00  0.0000000000000D+00
   389  3.8800000000000D+00  0.0000000000000D+00  0.0000000000000D+00
   390  3.8900000000000D+00  0.0000000000000D+00  0.0000000000000D+00
   391  3.9000000000000D+00  0.0000000000000D+00  0.0000000000000D+00
   392  3.9100000000000D+00  0.0000000000000D+00  0.0000000000000D+00
   393  3.9200000000000D+00  0.0000000000000D+00  0.0000000000000D+00
   394  3.9300000000000D+00  0.0000000000000D+00  0.0000000000000D+00
   395  3.9400000000000D+00  0.0000000000000D+00  0.0000000000000D+00
   396  3.9500000000000D+00  0.0000000000000D+00  0.0000000000000D+00
   397  3.9600000000000D+00  0.0000000000000D+00  0.0000000000000D+00
   398  3.9700000000000D+00  0.0000000000000D+00  0.0000000000000D+00
   399  3.9800000000000D+00  0.0000000000000D+00  0.0000000000000D+00
   400  3.9900000000000D+00  0.0000000000000D+00  0.0000000000000D+00
   401  4.0000000000000D+00  0.0000000000000D+00  0.0000000000000D+00
   402  4.0100000000000D+00  0.0000000000000D+00  0.0000000000000D+00
   403  4.0200000000000D+00  0.0000000000000D+00  0.0000000000000D+00
   404  4.0300000000000D+00  0.0000000000000D+00  0.0000000000000D+00
   405  4.0400000000000D+00  0.0000000000000D+00  0.0000000000000D+00
   406  4.0500000000000D+00  0.0000000000000D+00  0.0000000000000D+00
   407  4.0600000000000D+00  0.0000000000000D+00  0.0000000000000D+00
   408  4.0700000000000D+00  0.0000000000000D+00  0.0000000000000D+00
   409  4.0800000000000D+00  0.0000000000000D+00  0.0000000000000D+00
   410  4.0900000000000D+00  0.0000000000000D+00  0.0000000000000D+00
   411  4.1000000000000D+00  0.0000000000000D+00  0.0000000000000D+00
   412  4.1100000000000D+00  0.0000000000000D+00  0.0000000000000D+00
   413  4.1200000000000D+00  0.0000000000000D+00  0.0000000000000D+00
   414  4.1300000000000D+00  0.0000000000000D+00  0.0000000000000D+00
   415  4.1400000000000D+00  0.0000000000000D+00  0.0000000000000D+00
   416  4.1500000000000D+00  0.0000000000000D+00  0.0000000000000D+00
   417  4.1600000000000D+00  0.0000000000000D+00  0.0000000000000D+00
   418  4.1700000000000D+00  0.0000000000000D+00  0.0000000000000D+00
   419  4.1800000000000D+00  0.0000000000000D+00  0.0000000000000D+00
   420  4.1900000000000D+00  0.0000000000000D+00  0.0000000000000D+00
   421  4.2000000000000D+00  0.0000000000000D+00  0.0000000000000D+00
   422  4.2100000000000D+00  0.0000000000000D+00  0.0000000000000D+00