B     ONCVPSP-3.3.1  r_core=   1.77019   1.90153
      5.0000      3.0000      210905    zatom,zion,pspd
     8 -116133   1     4   600     0    pspcod,pspxc,lmax,lloc,mmax,r2well
  5.99000000  0.00000000  0.00000000    rchrg fchrg qchrg
     2     2     0     0     0    nproj
     1     1           extension_switch
   0                         4.3457364336475D+00  1.8992688199533D-01
     1  0.0000000000000D+00 -3.9723835332239D-11  2.3646942043376D-10
     2  1.0000000000000D-02  5.3045682459323D-02  5.2847948236931D-03
     3  2.0000000000000D-02  1.0601188276755D-01  1.0550969395384D-02
     4  3.0000000000000D-02  1.5881933119886D-01  1.5779725590871D-02
     5  4.0000000000000D-02  2.1138918170399D-01  2.0951914141438D-02
     6  5.0000000000000D-02  2.6364322082400D-01  2.6047870500484D-02
     7  6.0000000000000D-02  3.1550407312279D-01  3.1047264267276D-02
     8  7.0000000000000D-02  3.6689540202516D-01  3.5928966406111D-02
     9  8.0000000000000D-02  4.1774210498673D-01  4.0670938262695D-02
    10  9.0000000000000D-02  4.6797050197105D-01  4.5250146088476D-02
    11  1.0000000000000D-01  5.1750851626676D-01  4.9642504441875D-02
    12  1.1000000000000D-01  5.6628584674363D-01  5.3822851445917D-02
    13  1.2000000000000D-01  6.1423413071975D-01  5.7764958449477D-02
    14  1.3000000000000D-01  6.6128709669203D-01  6.1441576168618D-02
    15  1.4000000000000D-01  7.0738070626886D-01  6.4824518881090D-02
    16  1.5000000000000D-01  7.5245328473500D-01  6.7884787715559D-02
    17  1.6000000000000D-01  7.9644563977462D-01  7.0592733524488D-02
    18  1.7000000000000D-01  8.3930116797790D-01  7.2918259261875D-02
    19  1.8000000000000D-01  8.8096594885793D-01  7.4831061209422D-02
    20  1.9000000000000D-01  9.2138882620821D-01  7.6300907815791D-02
    21  2.0000000000000D-01  9.6052147673449D-01  7.7297954338116D-02
    22  2.1000000000000D-01  9.9831846599779D-01  7.7793090910599D-02
    23  2.2000000000000D-01  1.0347372918072D+00  7.7758321118008D-02
    24  2.3000000000000D-01  1.0697384153003D+00  7.7167167628724D-02
    25  2.4000000000000D-01  1.1032852800437D+00  7.5995100949043D-02
    26  2.5000000000000D-01  1.1353443195795D+00  7.4219986903154D-02
    27  2.6000000000000D-01  1.1658849539267D+00  7.1822548028286D-02
    28  2.7000000000000D-01  1.1948795756292D+00  6.8786833705895D-02
    29  2.8000000000000D-01  1.2223035260129D+00  6.5100693533605D-02
    30  2.9000000000000D-01  1.2481350623812D+00  6.0756248182167D-02
    31  3.0000000000000D-01  1.2723553169344D+00  5.5750351781423D-02
    32  3.1000000000000D-01  1.2949482482488D+00  5.0085039742616D-02
    33  3.2000000000000D-01  1.3159005861877D+00  4.3767955851885D-02
    34  3.3000000000000D-01  1.3352017711492D+00  3.6812752467934D-02
    35  3.4000000000000D-01  1.3528438885737D+00  2.9239457720612D-02
    36  3.5000000000000D-01  1.3688215996442D+00  2.1074803743044D-02
    37  3.6000000000000D-01  1.3831320691138D+00  1.2352510173564D-02
    38  3.7000000000000D-01  1.3957748911813D+00  3.1135174371171D-03
    39  3.8000000000000D-01  1.4067520143189D+00 -6.5938353455987D-03
    40  3.9000000000000D-01  1.4160676659249D+00 -1.6713692567638D-02
    41  4.0000000000000D-01  1.4237282776332D+00 -2.7182628745788D-02
    42  4.1000000000000D-01  1.4297424120669D+00 -3.7929663288572D-02
    43  4.2000000000000D-01  1.4341206917631D+00 -4.8876346602394D-02
    44  4.3000000000000D-01  1.4368757309335D+00 -5.9936920091446D-02
    45  4.4000000000000D-01  1.4380220706530D+00 -7.1018551936005D-02
    46  4.5000000000000D-01  1.4375761179917D+00 -8.2021649829681D-02
    47  4.6000000000000D-01  1.4355560895201D+00 -9.2840251117720D-02
    48  4.7000000000000D-01  1.4319819595316D+00 -1.0336249001907D-01
    49  4.8000000000000D-01  1.4268754132332D+00 -1.1347114083655D-01
    50  4.9000000000000D-01  1.4202598050600D+00 -1.2304423527415D-01
    51  5.0000000000000D-01  1.4121601221764D+00 -1.3195575119216D-01
    52  5.1000000000000D-01  1.4026029531249D+00 -1.4007636934951D-01
    53  5.2000000000000D-01  1.3916164614926D+00 -1.4727429391565D-01
    54  5.3000000000000D-01  1.3792303643659D+00 -1.5341613178984D-01
    55  5.4000000000000D-01  1.3654759152554D+00 -1.5836782504968D-01
    56  5.5000000000000D-01  1.3503858910809D+00 -1.6199563017440D-01
    57  5.6000000000000D-01  1.3339945827256D+00 -1.6416713705462D-01
    58  5.7000000000000D-01  1.3163377885881D+00 -1.6475232022043D-01
    59  5.8000000000000D-01  1.2974528104880D+00 -1.6362461419627D-01
    60  5.9000000000000D-01  1.2773784512191D+00 -1.6066200443412D-01
    61  6.0000000000000D-01  1.2561550129848D+00 -1.5574812488829D-01
    62  6.1000000000000D-01  1.2338242959042D+00 -1.4877335298295D-01
    63  6.2000000000000D-01  1.2104295957381D+00 -1.3963589249104D-01
    64  6.3000000000000D-01  1.1860156999568D+00 -1.2824283469316D-01
    65  6.4000000000000D-01  1.1606288812540D+00 -1.1451118812212D-01
    66  6.5000000000000D-01  1.1343168876022D+00 -9.8368867223760D-02
    67  6.6000000000000D-01  1.1071289279518D+00 -7.9755630379571D-02
    68  6.7000000000000D-01  1.0791156526883D+00 -5.8623957941559D-02
    69  6.8000000000000D-01  1.0503291279924D+00 -3.4939861223839D-02
    70  6.9000000000000D-01  1.0208228032793D+00 -8.6836137803655D-03
    71  7.0000000000000D-01  9.9065147094758D-01  2.0149603233295D-02
    72  7.1000000000000D-01  9.5987121772340D-01  5.1549149260613D-02
    73  7.2000000000000D-01  9.2853936695397D-01  8.5488473123366D-02
    74  7.3000000000000D-01  8.9671441128465D-01  1.2192476868237D-01
    75  7.4000000000000D-01  8.6445593523909D-01  1.6079874290653D-01
    76  7.5000000000000D-01  8.3182452731732D-01  2.0203450103232D-01
    77  7.6000000000000D-01  7.9888168132892D-01  2.4553955259586D-01
    78  7.7000000000000D-01  7.6568968678685D-01  2.9120494116756D-01
    79  7.8000000000000D-01  7.3231150830054D-01  3.3890549963020D-01
    80  7.9000000000000D-01  6.9881065402544D-01  3.8850023181011D-01
    81  8.0000000000000D-01  6.6525103334676D-01  4.3983282022214D-01
    82  8.1000000000000D-01  6.3169680409738D-01  4.9273225862273D-01
    83  8.2000000000000D-01  5.9821220973401D-01  5.4701360698948D-01
    84  8.3000000000000D-01  5.6486140701792D-01  6.0247886547699D-01
    85  8.4000000000000D-01  5.3170828486740D-01  6.5891796284067D-01
    86  8.5000000000000D-01  4.9881627516739D-01  7.1610985378540D-01
    87  8.6000000000000D-01  4.6624815643459D-01  7.7382371869299D-01
    88  8.7000000000000D-01  4.3406585134485D-01  8.3182025822130D-01
    89  8.8000000000000D-01  4.0233021923046D-01  8.8985307435691D-01
    90  8.9000000000000D-01  3.7110084474861D-01  9.4767012865264D-01
    91  9.0000000000000D-01  3.4043582400665D-01  1.0050152675963D+00
    92  9.1000000000000D-01  3.1039154950462D-01  1.0616298043499D+00
    93  9.2000000000000D-01  2.8102249531906D-01  1.1172541454713D+00
    94  9.3000000000000D-01  2.5238100400477D-01  1.1716294506955D+00
    95  9.4000000000000D-01  2.2451707673068D-01  1.2244993134077D+00
    96  9.5000000000000D-01  1.9747816819359D-01  1.2756114490996D+00
    97  9.6000000000000D-01  1.7130898786639D-01  1.3247193788612D+00
    98  9.7000000000000D-01  1.4605130913840D-01  1.3715840948264D+00
    99  9.8000000000000D-01  1.2174378789028D-01  1.4159756944670D+00
   100  9.9000000000000D-01  9.8421792018518D-02  1.4576749707181D+00
   101  1.0000000000000D+00  7.6117243381970D-02  1.4964749451102D+00
   102  1.0100000000000D+00  5.4858473587170D-02  1.5321823313931D+00
   103  1.0200000000000D+00  3.4670094958945D-02  1.5646189175464D+00
   104  1.0300000000000D+00  1.5572887959034D-02  1.5936228546013D+00
   105  1.0400000000000D+00 -2.4162937749852D-03  1.6190498412816D+00
   106  1.0500000000000D+00 -1.9284599712873D-02  1.6407741942350D+00
   107  1.0600000000000D+00 -3.5023239092151D-02  1.6586897943951D+00
   108  1.0700000000000D+00 -4.9627517139919D-02  1.6727109009066D+00
   109  1.0800000000000D+00 -6.3096850186966D-02  1.6827728250750D+00
   110  1.0900000000000D+00 -7.5434759127359D-02  1.6888324576728D+00
   111  1.1000000000000D+00 -8.6648840857427D-02  1.6908686442283D+00
   112  1.1100000000000D+00 -9.6750717465303D-02  1.6888824039207D+00
   113  1.1200000000000D+00 -1.0575596311769D-01  1.6828969889925D+00
   114  1.1300000000000D+00 -1.1368400874033D-01  1.6729577826904D+00
   115  1.1400000000000D+00 -1.2055802476038D-01  1.6591320350293D+00
   116  1.1500000000000D+00 -1.2640478235119D-01  1.6415084369626D+00
   117  1.1600000000000D+00 -1.3125449378180D-01  1.6201965347770D+00
   118  1.1700000000000D+00 -1.3514063261387D-01  1.5953259875980D+00
   119  1.1800000000000D+00 -1.3809973466424D-01  1.5670456722453D+00
   120  1.1900000000000D+00 -1.4017118079768D-01  1.5355226408227D+00
   121  1.2000000000000D+00 -1.4139696276530D-01  1.5009409376319D+00
   122  1.2100000000000D+00 -1.4182143338092D-01  1.4635002825979D+00
   123  1.2200000000000D+00 -1.4149104253274D-01  1.4234146300652D+00
   124  1.2300000000000D+00 -1.4045406058697D-01  1.3809106123439D+00
   125  1.2400000000000D+00 -1.3876029082636D-01  1.3362258781025D+00
   126  1.2500000000000D+00 -1.3646077268810D-01  1.2896073367558D+00
   127  1.2600000000000D+00 -1.3360747762045D-01  1.2413093205556D+00
   128  1.2700000000000D+00 -1.3025299941018D-01  1.1915916764099D+00
   129  1.2800000000000D+00 -1.2645024090361D-01  1.1407178001422D+00
   130  1.2900000000000D+00 -1.2225209904729D-01  1.0889526261557D+00
   131  1.3000000000000D+00 -1.1771115017224D-01  1.0365605854905D+00
   132  1.3100000000000D+00 -1.1287933746992D-01  9.8380354564771D-01
   133  1.3200000000000D+00 -1.0780766251597D-01  9.3093874515596D-01
   134  1.3300000000000D+00 -1.0254588271928D-01  8.7821673597178D-01
   135  1.3400000000000D+00 -9.7142216498569D-02  8.2587934657527D-01
   136  1.3500000000000D+00 -9.1643057593082D-02  7.7415767347691D-01
   137  1.3600000000000D+00 -8.6092701639799D-02  7.2327014012017D-01
   138  1.3700000000000D+00 -8.0533080502754D-02  6.7342052493304D-01
   139  1.3800000000000D+00 -7.5003529251456D-02  6.2479638968761D-01
   140  1.3900000000000D+00 -6.9540523727494D-02  5.7756678812862D-01
   141  1.4000000000000D+00 -6.4177474903181D-02  5.3188075170406D-01
   142  1.4100000000000D+00 -5.8944685197968D-02  4.8786876779755D-01
   143  1.4200000000000D+00 -5.3869342317594D-02  4.4564415087226D-01
   144  1.4300000000000D+00 -4.8975599239497D-02  4.0530533773200D-01
   145  1.4400000000000D+00 -4.4284529817476D-02  3.6693534461619D-01
   146  1.4500000000000D+00 -3.9814100459535D-02  3.3060109663707D-01
   147  1.4600000000000D+00 -3.5579192091622D-02  2.9635354881852D-01
   148  1.4700000000000D+00 -3.1591631451867D-02  2.6422762367907D-01
   149  1.4800000000000D+00 -2.7860249649859D-02  2.3424239150942D-01
   150  1.4900000000000D+00 -2.4390961852145D-02  2.0640136291694D-01
   151  1.5000000000000D+00 -2.1186868398108D-02  1.8069292074547D-01
   152  1.5100000000000D+00 -1.8248376984474D-02  1.5709088708691D-01
   153  1.5200000000000D+00 -1.5573343988889D-02  1.3555521381362D-01
   154  1.5300000000000D+00 -1.3157234409593D-02  1.1603279480764D-01
   155  1.5400000000000D+00 -1.0993298507038D-02  9.8458388406305D-02
   156  1.5500000000000D+00 -9.0727638911338D-03  8.2755643118611D-02
   157  1.5600000000000D+00 -7.3850413057090D-03  6.8838216296233D-02
   158  1.5700000000000D+00 -5.9179422242647D-03  5.6610974319799D-02
   159  1.5800000000000D+00 -4.6579065973959D-03  4.5971264666325D-02
   160  1.5900000000000D+00 -3.5902384734259D-03  3.6810245473804D-02
   161  1.6000000000000D+00 -2.6993477770119D-03  2.9014262693127D-02
   162  1.6100000000000D+00 -1.9689958645471D-03  2.2466259430251D-02
   163  1.6200000000000D+00 -1.3825429282651D-03  1.7047206202284D-02
   164  1.6300000000000D+00 -9.2319503988583D-04  1.2637537625830D-02
   165  1.6400000000000D+00 -5.7424860816123D-04  9.1185821825407D-03
   166  1.6500000000000D+00 -3.1933037276665D-04  6.3739727031844D-03
   167  1.6600000000000D+00 -1.4263046460559D-04  4.2910224092957D-03
   168  1.6700000000000D+00 -2.9127037330069D-05  2.7620566391562D-03
   169  1.6800000000000D+00  3.5200149885427D-05  1.6856839334768D-03
   170  1.6900000000000D+00  6.3168246223246D-05  9.6799950937181D-04
   171  1.7000000000000D+00  6.6204648501256D-05  5.2370394442030D-04
   172  1.7100000000000D+00  5.4163171074383D-05  2.7722702574902D-04
   173  1.7200000000000D+00  3.5189580790254D-05  1.6351215903289D-04
   174  1.7300000000000D+00  1.5723040280111D-05  1.2768376325403D-04
   175  1.7400000000000D+00  7.9359284961847D-08  1.2804122815697D-04
   176  1.7500000000000D+00 -1.0034941506935D-05  1.4171453297987D-04
   177  1.7600000000000D+00 -1.4496962322153D-05  1.5397647384485D-04
   178  1.7700000000000D+00 -1.3201016141914D-05  1.3678519682209D-04
   179  1.7800000000000D+00 -7.0334959739117D-06  7.3448119753571D-05
   180  1.7900000000000D+00 -6.9039005521432D-07  7.3373705138864D-06
   181  1.8000000000000D+00  1.4021320115788D-06 -1.4308615648840D-05
   182  1.8100000000000D+00  4.6823870948110D-07 -4.7843258403339D-06
   183  1.8200000000000D+00 -2.9628706693036D-07  2.9634288751011D-06
   184  1.8300000000000D+00 -1.8566059826915D-07  1.8531273540714D-06
   185  1.8400000000000D+00  2.7774078127842D-08 -2.8791062296653D-07
   186  1.8500000000000D+00  2.9111005279611D-08 -3.0176942783324D-07
   187  1.8600000000000D+00  0.0000000000000D+00  0.0000000000000D+00
   188  1.8700000000000D+00  0.0000000000000D+00  0.0000000000000D+00
   189  1.8800000000000D+00  0.0000000000000D+00  0.0000000000000D+00
   190  1.8900000000000D+00  0.0000000000000D+00  0.0000000000000D+00
   191  1.9000000000000D+00  0.0000000000000D+00  0.0000000000000D+00
   192  1.9100000000000D+00  0.0000000000000D+00  0.0000000000000D+00
   193  1.9200000000000D+00  0.0000000000000D+00  0.0000000000000D+00
   194  1.9300000000000D+00  0.0000000000000D+00  0.0000000000000D+00
   195  1.9400000000000D+00  0.0000000000000D+00  0.0000000000000D+00
   196  1.9500000000000D+00  0.0000000000000D+00  0.0000000000000D+00
   197  1.9600000000000D+00  0.0000000000000D+00  0.0000000000000D+00
   198  1.9700000000000D+00  0.0000000000000D+00  0.0000000000000D+00
   199  1.9800000000000D+00  0.0000000000000D+00  0.0000000000000D+00
   200  1.9900000000000D+00  0.0000000000000D+00  0.0000000000000D+00
   201  2.0000000000000D+00  0.0000000000000D+00  0.0000000000000D+00
   202  2.0100000000000D+00  0.0000000000000D+00  0.0000000000000D+00
   203  2.0200000000000D+00  0.0000000000000D+00  0.0000000000000D+00
   204  2.0300000000000D+00  0.0000000000000D+00  0.0000000000000D+00
   205  2.0400000000000D+00  0.0000000000000D+00  0.0000000000000D+00
   206  2.0500000000000D+00  0.0000000000000D+00  0.0000000000000D+00
   207  2.0600000000000D+00  0.0000000000000D+00  0.0000000000000D+00
   208  2.0700000000000D+00  0.0000000000000D+00  0.0000000000000D+00
   209  2.0800000000000D+00  0.0000000000000D+00  0.0000000000000D+00
   210  2.0900000000000D+00  0.0000000000000D+00  0.0000000000000D+00
   211  2.1000000000000D+00  0.0000000000000D+00  0.0000000000000D+00
   212  2.1100000000000D+00  0.0000000000000D+00  0.0000000000000D+00
   213  2.1200000000000D+00  0.0000000000000D+00  0.0000000000000D+00
   214  2.1300000000000D+00  0.0000000000000D+00  0.0000000000000D+00
   215  2.1400000000000D+00  0.0000000000000D+00  0.0000000000000D+00
   216  2.1500000000000D+00  0.0000000000000D+00  0.0000000000000D+00
   217  2.1600000000000D+00  0.0000000000000D+00  0.0000000000000D+00
   218  2.1700000000000D+00  0.0000000000000D+00  0.0000000000000D+00
   219  2.1800000000000D+00  0.0000000000000D+00  0.0000000000000D+00
   220  2.1900000000000D+00  0.0000000000000D+00  0.0000000000000D+00
   221  2.2000000000000D+00  0.0000000000000D+00  0.0000000000000D+00
   222  2.2100000000000D+00  0.0000000000000D+00  0.0000000000000D+00
   223  2.2200000000000D+00  0.0000000000000D+00  0.0000000000000D+00
   224  2.2300000000000D+00  0.0000000000000D+00  0.0000000000000D+00
   225  2.2400000000000D+00  0.0000000000000D+00  0.0000000000000D+00
   226  2.2500000000000D+00  0.0000000000000D+00  0.0000000000000D+00
   227  2.2600000000000D+00  0.0000000000000D+00  0.0000000000000D+00
   228  2.2700000000000D+00  0.0000000000000D+00  0.0000000000000D+00
   229  2.2800000000000D+00  0.0000000000000D+00  0.0000000000000D+00
   230  2.2900000000000D+00  0.0000000000000D+00  0.0000000000000D+00
   231  2.3000000000000D+00  0.0000000000000D+00  0.0000000000000D+00
   232  2.3100000000000D+00  0.0000000000000D+00  0.0000000000000D+00
   233  2.3200000000000D+00  0.0000000000000D+00  0.0000000000000D+00
   234  2.3300000000000D+00  0.0000000000000D+00  0.0000000000000D+00
   235  2.3400000000000D+00  0.0000000000000D+00  0.0000000000000D+00
   236  2.3500000000000D+00  0.0000000000000D+00  0.0000000000000D+00
   237  2.3600000000000D+00  0.0000000000000D+00  0.0000000000000D+00
   238  2.3700000000000D+00  0.0000000000000D+00  0.0000000000000D+00
   239  2.3800000000000D+00  0.0000000000000D+00  0.0000000000000D+00
   240  2.3900000000000D+00  0.0000000000000D+00  0.0000000000000D+00
   241  2.4000000000000D+00  0.0000000000000D+00  0.0000000000000D+00
   242  2.4100000000000D+00  0.0000000000000D+00  0.0000000000000D+00
   243  2.4200000000000D+00  0.0000000000000D+00  0.0000000000000D+00
   244  2.4300000000000D+00  0.0000000000000D+00  0.0000000000000D+00
   245  2.4400000000000D+00  0.0000000000000D+00  0.0000000000000D+00
   246  2.4500000000000D+00  0.0000000000000D+00  0.0000000000000D+00
   247  2.4600000000000D+00  0.0000000000000D+00  0.0000000000000D+00
   248  2.4700000000000D+00  0.0000000000000D+00  0.0000000000000D+00
   249  2.4800000000000D+00  0.0000000000000D+00  0.0000000000000D+00
   250  2.4900000000000D+00  0.0000000000000D+00  0.0000000000000D+00
   251  2.5000000000000D+00  0.0000000000000D+00  0.0000000000000D+00
   252  2.5100000000000D+00  0.0000000000000D+00  0.0000000000000D+00
   253  2.5200000000000D+00  0.0000000000000D+00  0.0000000000000D+00
   254  2.5300000000000D+00  0.0000000000000D+00  0.0000000000000D+00
   255  2.5400000000000D+00  0.0000000000000D+00  0.0000000000000D+00
   256  2.5500000000000D+00  0.0000000000000D+00  0.0000000000000D+00
   257  2.5600000000000D+00  0.0000000000000D+00  0.0000000000000D+00
   258  2.5700000000000D+00  0.0000000000000D+00  0.0000000000000D+00
   259  2.5800000000000D+00  0.0000000000000D+00  0.0000000000000D+00
   260  2.5900000000000D+00  0.0000000000000D+00  0.0000000000000D+00
   261  2.6000000000000D+00  0.0000000000000D+00  0.0000000000000D+00
   262  2.6100000000000D+00  0.0000000000000D+00  0.0000000000000D+00
   263  2.6200000000000D+00  0.0000000000000D+00  0.0000000000000D+00
   264  2.6300000000000D+00  0.0000000000000D+00  0.0000000000000D+00
   265  2.6400000000000D+00  0.0000000000000D+00  0.0000000000000D+00
   266  2.6500000000000D+00  0.0000000000000D+00  0.0000000000000D+00
   267  2.6600000000000D+00  0.0000000000000D+00  0.0000000000000D+00
   268  2.6700000000000D+00  0.0000000000000D+00  0.0000000000000D+00
   269  2.6800000000000D+00  0.0000000000000D+00  0.0000000000000D+00
   270  2.6900000000000D+00  0.0000000000000D+00  0.0000000000000D+00
   271  2.7000000000000D+00  0.0000000000000D+00  0.0000000000000D+00
   272  2.7100000000000D+00  0.0000000000000D+00  0.0000000000000D+00
   273  2.7200000000000D+00  0.0000000000000D+00  0.0000000000000D+00
   274  2.7300000000000D+00  0.0000000000000D+00  0.0000000000000D+00
   275  2.7400000000000D+00  0.0000000000000D+00  0.0000000000000D+00
   276  2.7500000000000D+00  0.0000000000000D+00  0.0000000000000D+00
   277  2.7600000000000D+00  0.0000000000000D+00  0.0000000000000D+00
   278  2.7700000000000D+00  0.0000000000000D+00  0.0000000000000D+00
   279  2.7800000000000D+00  0.0000000000000D+00  0.0000000000000D+00
   280  2.7900000000000D+00  0.0000000000000D+00  0.0000000000000D+00
   281  2.8000000000000D+00  0.0000000000000D+00  0.0000000000000D+00
   282  2.8100000000000D+00  0.0000000000000D+00  0.0000000000000D+00
   283  2.8200000000000D+00  0.0000000000000D+00  0.0000000000000D+00
   284  2.8300000000000D+00  0.0000000000000D+00  0.0000000000000D+00
   285  2.8400000000000D+00  0.0000000000000D+00  0.0000000000000D+00
   286  2.8500000000000D+00  0.0000000000000D+00  0.0000000000000D+00
   287  2.8600000000000D+00  0.0000000000000D+00  0.0000000000000D+00
   288  2.8700000000000D+00  0.0000000000000D+00  0.0000000000000D+00
   289  2.8800000000000D+00  0.0000000000000D+00  0.0000000000000D+00
   290  2.8900000000000D+00  0.0000000000000D+00  0.0000000000000D+00
   291  2.9000000000000D+00  0.0000000000000D+00  0.0000000000000D+00
   292  2.9100000000000D+00  0.0000000000000D+00  0.0000000000000D+00
   293  2.9200000000000D+00  0.0000000000000D+00  0.0000000000000D+00
   294  2.9300000000000D+00  0.0000000000000D+00  0.0000000000000D+00
   295  2.9400000000000D+00  0.0000000000000D+00  0.0000000000000D+00
   296  2.9500000000000D+00  0.0000000000000D+00  0.0000000000000D+00
   297  2.9600000000000D+00  0.0000000000000D+00  0.0000000000000D+00
   298  2.9700000000000D+00  0.0000000000000D+00  0.0000000000000D+00
   299  2.9800000000000D+00  0.0000000000000D+00  0.0000000000000D+00
   300  2.9900000000000D+00  0.0000000000000D+00  0.0000000000000D+00
   301  3.0000000000000D+00  0.0000000000000D+00  0.0000000000000D+00
   302  3.0100000000000D+00  0.0000000000000D+00  0.0000000000000D+00
   303  3.0200000000000D+00  0.0000000000000D+00  0.0000000000000D+00
   304  3.0300000000000D+00  0.0000000000000D+00  0.0000000000000D+00
   305  3.0400000000000D+00  0.0000000000000D+00  0.0000000000000D+00
   306  3.0500000000000D+00  0.0000000000000D+00  0.0000000000000D+00
   307  3.0600000000000D+00  0.0000000000000D+00  0.0000000000000D+00
   308  3.0700000000000D+00  0.0000000000000D+00  0.0000000000000D+00
   309  3.0800000000000D+00  0.0000000000000D+00  0.0000000000000D+00
   310  3.0900000000000D+00  0.0000000000000D+00  0.0000000000000D+00
   311  3.1000000000000D+00  0.0000000000000D+00  0.0000000000000D+00
   312  3.1100000000000D+00  0.0000000000000D+00  0.0000000000000D+00
   313  3.1200000000000D+00  0.0000000000000D+00  0.0000000000000D+00
   314  3.1300000000000D+00  0.0000000000000D+00  0.0000000000000D+00
   315  3.1400000000000D+00  0.0000000000000D+00  0.0000000000000D+00
   316  3.1500000000000D+00  0.0000000000000D+00  0.0000000000000D+00
   317  3.1600000000000D+00  0.0000000000000D+00  0.0000000000000D+00
   318  3.1700000000000D+00  0.0000000000000D+00  0.0000000000000D+00
   319  3.1800000000000D+00  0.0000000000000D+00  0.0000000000000D+00
   320  3.1900000000000D+00  0.0000000000000D+00  0.0000000000000D+00
   321  3.2000000000000D+00  0.0000000000000D+00  0.0000000000000D+00
   322  3.2100000000000D+00  0.0000000000000D+00  0.0000000000000D+00
   323  3.2200000000000D+00  0.0000000000000D+00  0.0000000000000D+00
   324  3.2300000000000D+00  0.0000000000000D+00  0.0000000000000D+00
   325  3.2400000000000D+00  0.0000000000000D+00  0.0000000000000D+00
   326  3.2500000000000D+00  0.0000000000000D+00  0.0000000000000D+00
   327  3.2600000000000D+00  0.0000000000000D+00  0.0000000000000D+00
   328  3.2700000000000D+00  0.0000000000000D+00  0.0000000000000D+00
   329  3.2800000000000D+00  0.0000000000000D+00  0.0000000000000D+00
   330  3.2900000000000D+00  0.0000000000000D+00  0.0000000000000D+00
   331  3.3000000000000D+00  0.0000000000000D+00  0.0000000000000D+00
   332  3.3100000000000D+00  0.0000000000000D+00  0.0000000000000D+00
   333  3.3200000000000D+00  0.0000000000000D+00  0.0000000000000D+00
   334  3.3300000000000D+00  0.0000000000000D+00  0.0000000000000D+00
   335  3.3400000000000D+00  0.0000000000000D+00  0.0000000000000D+00
   336  3.3500000000000D+00  0.0000000000000D+00  0.0000000000000D+00
   337  3.3600000000000D+00  0.0000000000000D+00  0.0000000000000D+00
   338  3.3700000000000D+00  0.0000000000000D+00  0.0000000000000D+00
   339  3.3800000000000D+00  0.0000000000000D+00  0.0000000000000D+00
   340  3.3900000000000D+00  0.0000000000000D+00  0.0000000000000D+00
   341  3.4000000000000D+00  0.0000000000000D+00  0.0000000000000D+00
   342  3.4100000000000D+00  0.0000000000000D+00  0.0000000000000D+00
   343  3.4200000000000D+00  0.0000000000000D+00  0.0000000000000D+00
   344  3.4300000000000D+00  0.0000000000000D+00  0.0000000000000D+00
   345  3.4400000000000D+00  0.0000000000000D+00  0.0000000000000D+00
   346  3.4500000000000D+00  0.0000000000000D+00  0.0000000000000D+00
   347  3.4600000000000D+00  0.0000000000000D+00  0.0000000000000D+00
   348  3.4700000000000D+00  0.0000000000000D+00  0.0000000000000D+00
   349  3.4800000000000D+00  0.0000000000000D+00  0.0000000000000D+00
   350  3.4900000000000D+00  0.0000000000000D+00  0.0000000000000D+00
   351  3.5000000000000D+00  0.0000000000000D+00  0.0000000000000D+00
   352  3.5100000000000D+00  0.0000000000000D+00  0.0000000000000D+00
   353  3.5200000000000D+00  0.0000000000000D+00  0.0000000000000D+00
   354  3.5300000000000D+00  0.0000000000000D+00  0.0000000000000D+00
   355  3.5400000000000D+00  0.0000000000000D+00  0.0000000000000D+00
   356  3.5500000000000D+00  0.0000000000000D+00  0.0000000000000D+00
   357  3.5600000000000D+00  0.0000000000000D+00  0.0000000000000D+00
   358  3.5700000000000D+00  0.0000000000000D+00  0.0000000000000D+00
   359  3.5800000000000D+00  0.0000000000000D+00  0.0000000000000D+00
   360  3.5900000000000D+00  0.0000000000000D+00  0.0000000000000D+00
   361  3.6000000000000D+00  0.0000000000000D+00  0.0000000000000D+00
   362  3.6100000000000D+00  0.0000000000000D+00  0.0000000000000D+00
   363  3.6200000000000D+00  0.0000000000000D+00  0.0000000000000D+00
   364  3.6300000000000D+00  0.0000000000000D+00  0.0000000000000D+00
   365  3.6400000000000D+00  0.0000000000000D+00  0.0000000000000D+00
   366  3.6500000000000D+00  0.0000000000000D+00  0.0000000000000D+00
   367  3.6600000000000D+00  0.0000000000000D+00  0.0000000000000D+00
   368  3.6700000000000D+00  0.0000000000000D+00  0.0000000000000D+00
   369  3.6800000000000D+00  0.0000000000000D+00  0.0000000000000D+00
   370  3.6900000000000D+00  0.0000000000000D+00  0.0000000000000D+00
   371  3.7000000000000D+00  0.0000000000000D+00  0.0000000000000D+00
   372  3.7100000000000D+00  0.0000000000000D+00  0.0000000000000D+00
   373  3.7200000000000D+00  0.0000000000000D+00  0.0000000000000D+00
   374  3.7300000000000D+00  0.0000000000000D+00  0.0000000000000D+00
   375  3.7400000000000D+00  0.0000000000000D+00  0.0000000000000D+00
   376  3.7500000000000D+00  0.0000000000000D+00  0.0000000000000D+00
   377  3.7600000000000D+00  0.0000000000000D+00  0.0000000000000D+00
   378  3.7700000000000D+00  0.0000000000000D+00  0.0000000000000D+00
   379  3.7800000000000D+00  0.0000000000000D+00  0.0000000000000D+00
   380  3.7900000000000D+00  0.0000000000000D+00  0.0000000000000D+00
   381  3.8000000000000D+00  0.0000000000000D+00  0.0000000000000D+00
   382  3.8100000000000D+00  0.0000000000000D+00  0.0000000000000D+00
   383  3.8200000000000D+00  0.0000000000000D+00  0.0000000000000D+00
   384  3.8300000000000D+00  0.0000000000000D+00  0.0000000000000D+00
   385  3.8400000000000D+00  0.0000000000000D+00  0.0000000000000D+00
   386  3.8500000000000D+00  0.0000000000000D+00  0.0000000000000D+00
   387  3.8600000000000D+00  0.0000000000000D+00  0.0000000000000D+00
   388  3.8700000000000D+00  0.0000000000000D+00  0.0000000000000D+00
   389  3.8800000000000D+00  0.0000000000000D+00  0.0000000000000D+00
   390  3.8900000000000D+00  0.0000000000000D+00  0.0000000000000D+00
   391  3.9000000000000D+00  0.0000000000000D+00  0.0000000000000D+00
   392  3.9100000000000D+00  0.0000000000000D+00  0.0000000000000D+00
   393  3.9200000000000D+00  0.0000000000000D+00  0.0000000000000D+00
   394  3.9300000000000D+00  0.0000000000000D+00  0.0000000000000D+00
   395  3.9400000000000D+00  0.0000000000000D+00  0.0000000000000D+00
   396  3.9500000000000D+00  0.0000000000000D+00  0.0000000000000D+00
   397  3.9600000000000D+00  0.0000000000000D+00  0.0000000000000D+00
   398  3.9700000000000D+00  0.0000000000000D+00  0.0000000000000D+00
   399  3.9800000000000D+00  0.0000000000000D+00  0.0000000000000D+00
   400  3.9900000000000D+00  0.0000000000000D+00  0.0000000000000D+00
   401  4.0000000000000D+00  0.0000000000000D+00  0.0000000000000D+00
   402  4.0100000000000D+00  0.0000000000000D+00  0.0000000000000D+00
   403  4.0200000000000D+00  0.0000000000000D+00  0.0000000000000D+00
   404  4.0300000000000D+00  0.0000000000000D+00  0.0000000000000D+00
   405  4.0400000000000D+00  0.0000000000000D+00  0.0000000000000D+00
   406  4.0500000000000D+00  0.0000000000000D+00  0.0000000000000D+00
   407  4.0600000000000D+00  0.0000000000000D+00  0.0000000000000D+00
   408  4.0700000000000D+00  0.0000000000000D+00  0.0000000000000D+00
   409  4.0800000000000D+00  0.0000000000000D+00  0.0000000000000D+00
   410  4.0900000000000D+00  0.0000000000000D+00  0.0000000000000D+00
   411  4.1000000000000D+00  0.0000000000000D+00  0.0000000000000D+00
   412  4.1100000000000D+00  0.0000000000000D+00  0.0000000000000D+00
   413  4.1200000000000D+00  0.0000000000000D+00  0.0000000000000D+00
   414  4.1300000000000D+00  0.0000000000000D+00  0.0000000000000D+00
   415  4.1400000000000D+00  0.0000000000000D+00  0.0000000000000D+00
   416  4.1500000000000D+00  0.0000000000000D+00  0.0000000000000D+00
   417  4.1600000000000D+00  0.0000000000000D+00  0.0000000000000D+00
   418  4.1700000000000D+00  0.0000000000000D+00  0.0000000000000D+00
   419  4.1800000000000D+00  0.0000000000000D+00  0.0000000000000D+00
   420  4.1900000000000D+00  0.0000000000000D+00  0.0000000000000D+00
   421  4.2000000000000D+00  0.0000000000000D+00  0.0000000000000D+00
   422  4.2100000000000D+00  0.0000000000000D+00  0.0000000000000D+00
   423  4.2200000000000D+00  0.0000000000000D+00  0.0000000000000D+00