Br    ONCVPSP-3.3.1  r_core=   2.49793   2.49793   2.49793
     35.0000      7.0000      210905    zatom,zion,pspd
     8 -116133   2     4   600     0    pspcod,pspxc,lmax,lloc,mmax,r2well
  5.99000000  0.00000000  0.00000000    rchrg fchrg qchrg
     2     2     2     0     0    nproj
     1     1           extension_switch
   0                         2.0340385843827D+00 -2.0026249924386D+00
     1  0.0000000000000D+00 -1.1705025837472D-11 -2.6064761460276D-11
     2  1.0000000000000D-02  2.7637130851457D-02 -2.8952526297787D-02
     3  2.0000000000000D-02  5.5241558786129D-02 -5.7901008472178D-02
     4  3.0000000000000D-02  8.2780704087234D-02 -8.6841205175470D-02
     5  4.0000000000000D-02  1.1022223283088D-01 -1.1576848189723D-01
     6  5.0000000000000D-02  1.3753417826770D-01 -1.4467761759101D-01
     7  6.0000000000000D-02  1.6468506039492D-01 -1.7356261513243D-01
     8  7.0000000000000D-02  1.9164400312953D-01 -2.0241651685499D-01
     9  8.0000000000000D-02  2.1838084850472D-01 -2.3123122638420D-01
    10  9.0000000000000D-02  2.4486626732640D-01 -2.5999733795808D-01
    11  1.0000000000000D-01  2.7107186574388D-01 -2.8870397438377D-01
    12  1.1000000000000D-01  2.9697028720857D-01 -3.1733863473546D-01
    13  1.2000000000000D-01  3.2253530931735D-01 -3.4588705284890D-01
    14  1.3000000000000D-01  3.4774193506197D-01 -3.7433306761193D-01
    15  1.4000000000000D-01  3.7256647803334D-01 -4.0265850598978D-01
    16  1.5000000000000D-01  3.9698664115908D-01 -4.3084307965797D-01
    17  1.6000000000000D-01  4.2098158858432D-01 -4.5886429604528D-01
    18  1.7000000000000D-01  4.4453201033945D-01 -4.8669738451445D-01
    19  1.8000000000000D-01  4.6762017947367D-01 -5.1431523832977D-01
    20  1.9000000000000D-01  4.9023000137033D-01 -5.4168837297817D-01
    21  2.0000000000000D-01  5.1234705499838D-01 -5.6878490132538D-01
    22  2.1000000000000D-01  5.3395862589398D-01 -5.9557052600032D-01
    23  2.2000000000000D-01  5.5505373070686D-01 -6.2200854931029D-01
    24  2.3000000000000D-01  5.7562313318783D-01 -6.4805990089738D-01
    25  2.4000000000000D-01  5.9565935153598D-01 -6.7368318325246D-01
    26  2.5000000000000D-01  6.1515665706686D-01 -6.9883473510797D-01
    27  2.6000000000000D-01  6.3411106420592D-01 -7.2346871263579D-01
    28  2.7000000000000D-01  6.5252031185466D-01 -7.4753718828038D-01
    29  2.8000000000000D-01  6.7038383621971D-01 -7.7099026696249D-01
    30  2.9000000000000D-01  6.8770273523767D-01 -7.9377621929422D-01
    31  3.0000000000000D-01  7.0447972477074D-01 -8.1584163135333D-01
    32  3.1000000000000D-01  7.2071908678905D-01 -8.3713157047295D-01
    33  3.2000000000000D-01  7.3642660979641D-01 -8.5758976641431D-01
    34  3.3000000000000D-01  7.5160952179479D-01 -8.7715880720295D-01
    35  3.4000000000000D-01  7.6627641612112D-01 -8.9578034882588D-01
    36  3.5000000000000D-01  7.8043717052600D-01 -9.1339533790703D-01
    37  3.6000000000000D-01  7.9410285989864D-01 -9.2994424640215D-01
    38  3.7000000000000D-01  8.0728566307489D-01 -9.4536731728259D-01
    39  3.8000000000000D-01  8.1999876419598D-01 -9.5960482011017D-01
    40  3.9000000000000D-01  8.3225624911421D-01 -9.7259731534292D-01
    41  4.0000000000000D-01  8.4407299736749D-01 -9.8428592615491D-01
    42  4.1000000000000D-01  8.5546457026900D-01 -9.9461261650136D-01
    43  4.2000000000000D-01  8.6644709567859D-01 -1.0035204741155D+00
    44  4.3000000000000D-01  8.7703715004152D-01 -1.0109539970837D+00
    45  4.4000000000000D-01  8.8725163829537D-01 -1.0168593826122D+00
    46  4.5000000000000D-01  8.9710767225881D-01 -1.0211848165725D+00
    47  4.6000000000000D-01  9.0662244812577D-01 -1.0238807623936D+00
    48  4.7000000000000D-01  9.1581312369506D-01 -1.0249002478530D+00
    49  4.8000000000000D-01  9.2469669596954D-01 -1.0241991483167D+00
    50  4.9000000000000D-01  9.3328987975925D-01 -1.0217364649747D+00
    51  5.0000000000000D-01  9.4160898792080D-01 -1.0174745966304D+00
    52  5.1000000000000D-01  9.4966981385956D-01 -1.0113796036137D+00
    53  5.2000000000000D-01  9.5748751691255D-01 -1.0034214624121D+00
    54  5.3000000000000D-01  9.6507651121857D-01 -9.9357430963975D-01
    55  5.4000000000000D-01  9.7245035866708D-01 -9.8181667400394D-01
    56  5.5000000000000D-01  9.7962166650000D-01 -9.6813169496677D-01
    57  5.6000000000000D-01  9.8660199012017D-01 -9.5250732685072D-01
    58  5.7000000000000D-01  9.9340174163664D-01 -9.3493652719127D-01
    59  5.8000000000000D-01  1.0000301046515D+00 -9.1541742820077D-01
    60  5.9000000000000D-01  1.0064949557638D+00 -8.9395349027476D-01
    61  6.0000000000000D-01  1.0128027932368D+00 -8.7055363654469D-01
    62  6.1000000000000D-01  1.0189586732378D+00 -8.4523236755852D-01
    63  6.2000000000000D-01  1.0249661540307D+00 -8.1800985525351D-01
    64  6.3000000000000D-01  1.0308272484561D+00 -7.8891201547296D-01
    65  6.4000000000000D-01  1.0365423850023D+00 -7.5797055836984D-01
    66  6.5000000000000D-01  1.0421103777241D+00 -7.2522301613574D-01
    67  6.6000000000000D-01  1.0475284052262D+00 -6.9071274759204D-01
    68  6.7000000000000D-01  1.0527919988854D+00 -6.5448891928173D-01
    69  6.8000000000000D-01  1.0578950404381D+00 -6.1660646280429D-01
    70  6.9000000000000D-01  1.0628297690182D+00 -5.7712600824178D-01
    71  7.0000000000000D-01  1.0675867976803D+00 -5.3611379363233D-01
    72  7.1000000000000D-01  1.0721551393997D+00 -4.9364155055454D-01
    73  7.2000000000000D-01  1.0765222424920D+00 -4.4978636599647D-01
    74  7.3000000000000D-01  1.0806740353500D+00 -4.0463052079081D-01
    75  7.4000000000000D-01  1.0845949803476D+00 -3.5826130500701D-01
    76  7.5000000000000D-01  1.0882681367152D+00 -3.1077081079787D-01
    77  7.6000000000000D-01  1.0916752321465D+00 -2.6225570330464D-01
    78  7.7000000000000D-01  1.0947967428510D+00 -2.1281697032765D-01
    79  7.8000000000000D-01  1.0976119817240D+00 -1.6255965157189D-01
    80  7.9000000000000D-01  1.1000991942635D+00 -1.1159254837430D-01
    81  8.0000000000000D-01  1.1022356618248D+00 -6.0027914915035D-02
    82  8.1000000000000D-01  1.1039978117622D+00 -7.9811320054644D-03
    83  8.2000000000000D-01  1.1053613339728D+00  4.4429635367589D-02
    84  8.3000000000000D-01  1.1063013033236D+00  9.7083795480203D-02
    85  8.4000000000000D-01  1.1067923074070D+00  1.4985870095471D-01
    86  8.5000000000000D-01  1.1068085790450D+00  2.0263003207934D-01
    87  8.6000000000000D-01  1.1063241329332D+00  2.5527219089083D-01
    88  8.7000000000000D-01  1.1053129057892D+00  3.0765870448763D-01
    89  8.8000000000000D-01  1.1037488993542D+00  3.5966263598949D-01
    90  8.9000000000000D-01  1.1016063255712D+00  4.1115700151393D-01
    91  9.0000000000000D-01  1.0988597532557D+00  4.6201519150187D-01
    92  9.1000000000000D-01  1.0954842555548D+00  5.1211139469427D-01
    93  9.2000000000000D-01  1.0914555574890D+00  5.6132102303773D-01
    94  9.3000000000000D-01  1.0867501828613D+00  6.0952113578201D-01
    95  9.4000000000000D-01  1.0813455998165D+00  6.5659086102413D-01
    96  9.5000000000000D-01  1.0752203643385D+00  7.0241181295372D-01
    97  9.6000000000000D-01  1.0683542609724D+00  7.4686850306236D-01
    98  9.7000000000000D-01  1.0607284400732D+00  7.8984874359501D-01
    99  9.8000000000000D-01  1.0523255508882D+00  8.3124404154518D-01
   100  9.9000000000000D-01  1.0431298698003D+00  8.7094998152714D-01
   101  1.0000000000000D+00  1.0331274230744D+00  9.0886659589696D-01
   102  1.0100000000000D+00  1.0223061034721D+00  9.4489872054097D-01
   103  1.0200000000000D+00  1.0106557801253D+00  9.7895633480340D-01
   104  1.0300000000000D+00  9.9816840108442D-01  1.0109548840875D+00
   105  1.0400000000000D+00  9.8483808799104D-01  1.0408155837302D+00
   106  1.0500000000000D+00  9.7066122235513D-01  1.0684657028246D+00
   107  1.0600000000000D+00  9.5563652295531D-01  1.0938388267475D+00
   108  1.0700000000000D+00  9.3976511391800D-01  1.1168750972345D+00
   109  1.0800000000000D+00  9.2305058307314D-01  1.1375214289355D+00
   110  1.0900000000000D+00  9.0549903022684D-01  1.1557317014862D+00
   111  1.1000000000000D+00  8.8711910503388D-01  1.1714669262213D+00
   112  1.1100000000000D+00  8.6792203420484D-01  1.1846953867769D+00
   113  1.1200000000000D+00  8.4792163782544D-01  1.1953927529263D+00
   114  1.1300000000000D+00  8.2713433462267D-01  1.2035421671232D+00
   115  1.1400000000000D+00  8.0557913604851D-01  1.2091343033098D+00
   116  1.1500000000000D+00  7.8327762912130D-01  1.2121673977070D+00
   117  1.1600000000000D+00  7.6025394800378D-01  1.2126472513934D+00
   118  1.1700000000000D+00  7.3653473435923D-01  1.2105872046253D+00
   119  1.1800000000000D+00  7.1214908656227D-01  1.2060080829296D+00
   120  1.1900000000000D+00  6.8712849791516D-01  1.1989381151773D+00
   121  1.2000000000000D+00  6.6150678406102D-01  1.1894128239385D+00
   122  1.2100000000000D+00  6.3531999983171D-01  1.1774748885290D+00
   123  1.2200000000000D+00  6.0860634582418D-01  1.1631739812922D+00
   124  1.2300000000000D+00  5.8140606505399D-01  1.1465665777873D+00
   125  1.2400000000000D+00  5.5376133007490D-01  1.1277157416556D+00
   126  1.2500000000000D+00  5.2571612098925D-01  1.1066908850159D+00
   127  1.2600000000000D+00  4.9731609484428D-01  1.0835675054154D+00
   128  1.2700000000000D+00  4.6860844693614D-01  1.0584269004262D+00
   129  1.2800000000000D+00  4.3964176456584D-01  1.0313558610285D+00
   130  1.2900000000000D+00  4.1046587386801D-01  1.0024463451165D+00
   131  1.3000000000000D+00  3.8113168034170D-01  9.7179513248007D-01
   132  1.3100000000000D+00  3.5169100373333D-01  9.3950346267077D-01
   133  1.3200000000000D+00  3.2219640798936D-01  9.0567665732900D-01
   134  1.3300000000000D+00  2.9270102698640D-01  8.7042372853265D-01
   135  1.3400000000000D+00  2.6325838677707D-01  8.3385697479880D-01
   136  1.3500000000000D+00  2.3392222512817D-01  7.9609156648332D-01
   137  1.3600000000000D+00  2.0474630911210D-01  7.5724512228002D-01
   138  1.3700000000000D+00  1.7578425154986D-01  7.1743727862295D-01
   139  1.3800000000000D+00  1.4708932709901D-01  6.7678925380643D-01
   140  1.3900000000000D+00  1.1871428878599D-01  6.3542340863200D-01
   141  1.4000000000000D+00  9.0711185789076D-02  5.9346280545244D-01
   142  1.4100000000000D+00  6.3131183258947D-02  5.5103076742884D-01
   143  1.4200000000000D+00  3.6024384989586D-02  5.0825043988116D-01
   144  1.4300000000000D+00  9.4396596854093D-03  4.6524435550460D-01
   145  1.4400000000000D+00 -1.6575528368819D-02  4.2213400532244D-01
   146  1.4500000000000D+00 -4.1975283519677D-02  3.7903941710215D-01
   147  1.4600000000000D+00 -6.6715437108930D-02  3.3607874297084D-01
   148  1.4700000000000D+00 -9.0753699248775D-02  2.9336785800409D-01
   149  1.4800000000000D+00 -1.1404980342953D-01  2.5101997124177D-01
   150  1.4900000000000D+00 -1.3656564318220D-01  2.0914525097781D-01
   151  1.5000000000000D+00 -1.5826540034598D-01  1.6785046552408D-01
   152  1.5100000000000D+00 -1.7911566423763D-01  1.2723864114975D-01
   153  1.5200000000000D+00 -1.9908554128531D-01  8.7408738369204D-02
   154  1.5300000000000D+00 -2.1814675462279D-01  4.8455347877000D-02
   155  1.5400000000000D+00 -2.3627373314779D-01  1.0468407424216D-02
   156  1.5500000000000D+00 -2.5344368980464D-01 -2.6467059614124D-02
   157  1.5600000000000D+00 -2.6963668850673D-01 -6.2271182498606D-02
   158  1.5700000000000D+00 -2.8483569975194D-01 -9.6869458082121D-02
   159  1.5800000000000D+00 -2.9902664427998D-01 -1.3019294083546D-01
   160  1.5900000000000D+00 -3.1219842504076D-01 -1.6217840827709D-01
   161  1.6000000000000D+00 -3.2434294691197D-01 -1.9276850036315D-01
   162  1.6100000000000D+00 -3.3545512449319D-01 -2.2191183330530D-01
   163  1.6200000000000D+00 -3.4553287761768D-01 -2.4956308680378D-01
   164  1.6300000000000D+00 -3.5457711491777D-01 -2.7568306518884D-01
   165  1.6400000000000D+00 -3.6259170530444D-01 -3.0023873193157D-01
   166  1.6500000000000D+00 -3.6958343770582D-01 -3.2320321804090D-01
   167  1.6600000000000D+00 -3.7556196913253D-01 -3.4455580426231D-01
   168  1.6700000000000D+00 -3.8053976143868D-01 -3.6428187765118D-01
   169  1.6800000000000D+00 -3.8453200702546D-01 -3.8237286283356D-01
   170  1.6900000000000D+00 -3.8755654390583D-01 -3.9882612864058D-01
   171  1.7000000000000D+00 -3.8963376051515D-01 -4.1364487074033D-01
   172  1.7100000000000D+00 -3.9078649076768D-01 -4.2683797113837D-01
   173  1.7200000000000D+00 -3.9103989983328D-01 -4.3841983537664D-01
   174  1.7300000000000D+00 -3.9042136124764D-01 -4.4841020856355D-01
   175  1.7400000000000D+00 -3.8896032587111D-01 -4.5683397115979D-01
   176  1.7500000000000D+00 -3.8668818344704D-01 -4.6372091597919D-01
   177  1.7600000000000D+00 -3.8363811727633D-01 -4.6910550732773D-01
   178  1.7700000000000D+00 -3.7984495290234D-01 -4.7302662409748D-01
   179  1.7800000000000D+00 -3.7534500130670D-01 -4.7552728768091D-01
   180  1.7900000000000D+00 -3.7017589762869D-01 -4.7665437684995D-01
   181  1.8000000000000D+00 -3.6437643590959D-01 -4.7645833042180D-01
   182  1.8100000000000D+00 -3.5798640092428D-01 -4.7499284006204D-01
   183  1.8200000000000D+00 -3.5104639766792D-01 -4.7231453412029D-01
   184  1.8300000000000D+00 -3.4359767948802D-01 -4.6848265481427D-01
   185  1.8400000000000D+00 -3.3568197560111D-01 -4.6355872996080D-01
   186  1.8500000000000D+00 -3.2734131878867D-01 -4.5760624121862D-01
   187  1.8600000000000D+00 -3.1861787422622D-01 -4.5069029054133D-01
   188  1.8700000000000D+00 -3.0955377005012D-01 -4.4287726634619D-01
   189  1.8800000000000D+00 -3.0019093069731D-01 -4.3423451141115D-01
   190  1.8900000000000D+00 -2.9057091362354D-01 -4.2482999388314D-01
   191  1.9000000000000D+00 -2.8073475022050D-01 -4.1473198315004D-01
   192  1.9100000000000D+00 -2.7072279186402D-01 -4.0400873247865D-01
   193  1.9200000000000D+00 -2.6057456130738D-01 -3.9272816911693D-01
   194  1.9300000000000D+00 -2.5032861099475D-01 -3.8095759494655D-01
   195  1.9400000000000D+00 -2.4002238775443D-01 -3.6876339695712D-01
   196  1.9500000000000D+00 -2.2969210585920D-01 -3.5621077146413D-01
   197  1.9600000000000D+00 -2.1937262777885D-01 -3.4336346101650D-01
   198  1.9700000000000D+00 -2.0909735405140D-01 -3.3028350692058D-01
   199  1.9800000000000D+00 -1.9889812251962D-01 -3.1703101804457D-01
   200  1.9900000000000D+00 -1.8880511684169D-01 -3.0366395591895D-01
   201  2.0000000000000D+00 -1.7884678607932D-01 -2.9023793983868D-01
   202  2.0100000000000D+00 -1.6904977362521D-01 -2.7680606871918D-01
   203  2.0200000000000D+00 -1.5943885814963D-01 -2.6341876519111D-01
   204  2.0300000000000D+00 -1.5003690477114D-01 -2.5012363852307D-01
   205  2.0400000000000D+00 -1.4086482774018D-01 -2.3696536912215D-01
   206  2.0500000000000D+00 -1.3194156503874D-01 -2.2398561558928D-01
   207  2.0600000000000D+00 -1.2328406322248D-01 -2.1122294110377D-01
   208  2.0700000000000D+00 -1.1490727542176D-01 -1.9871276522989D-01
   209  2.0800000000000D+00 -1.0682416933518D-01 -1.8648733484763D-01
   210  2.0900000000000D+00 -9.9045747439248D-02 -1.7457571892550D-01
   211  2.1000000000000D+00 -9.1581078521689D-02 -1.6300382546690D-01
   212  2.1100000000000D+00 -8.4437339227016D-02 -1.5179443808226D-01
   213  2.1200000000000D+00 -7.7619867974611D-02 -1.4096727725514D-01
   214  2.1300000000000D+00 -7.1132227812029D-02 -1.3053907931236D-01
   215  2.1400000000000D+00 -6.4976280257209D-02 -1.2052369756667D-01
   216  2.1500000000000D+00 -5.9152268924583D-02 -1.1093222328146D-01
   217  2.1600000000000D+00 -5.3658911304469D-02 -1.0177312318674D-01
   218  2.1700000000000D+00 -4.8493503272837D-02 -9.3052403976102D-02
   219  2.1800000000000D+00 -4.3652020249951D-02 -8.4773767101611D-02
   220  2.1900000000000D+00 -3.9129237152638D-02 -7.6938805563245D-02
   221  2.2000000000000D+00 -3.4918894303099D-02 -6.9547307065606D-02
   222  2.2100000000000D+00 -3.1013699452145D-02 -6.2597170414991D-02
   223  2.2200000000000D+00 -2.7405575336778D-02 -5.6084899926363D-02
   224  2.2300000000000D+00 -2.4085842968873D-02 -5.0005945421117D-02
   225  2.2400000000000D+00 -2.1045450804773D-02 -4.4355147903206D-02
   226  2.2500000000000D+00 -1.8274715975812D-02 -3.9126048389373D-02
   227  2.2600000000000D+00 -1.5763325045466D-02 -3.4310808174589D-02
   228  2.2700000000000D+00 -1.3500274609114D-02 -2.9899973153556D-02
   229  2.2800000000000D+00 -1.1473908840564D-02 -2.5882461843941D-02
   230  2.2900000000000D+00 -9.6715607627194D-03 -2.2244631467117D-02
   231  2.3000000000000D+00 -8.0799623605132D-03 -1.8971140283766D-02
   232  2.3100000000000D+00 -6.6853425250202D-03 -1.6045080722093D-02
   233  2.3200000000000D+00 -5.4736739462584D-03 -1.3448459507170D-02
   234  2.3300000000000D+00 -4.4306825863288D-03 -1.1162136160694D-02
   235  2.3400000000000D+00 -3.5420226180960D-03 -9.1661447309412D-03
   236  2.3500000000000D+00 -2.7934087562940D-03 -7.4399212666373D-03
   237  2.3600000000000D+00 -2.1707298137427D-03 -5.9624920312375D-03
   238  2.3700000000000D+00 -1.6601714579971D-03 -4.7126865077262D-03
   239  2.3800000000000D+00 -1.2483291213297D-03 -3.6693325488733D-03
   240  2.3900000000000D+00 -9.2231458620875D-04 -2.8114415429129D-03
   241  2.4000000000000D+00 -6.6985786517098D-04 -2.1183866533687D-03
   242  2.4100000000000D+00 -4.7939927927670D-04 -1.5700643681895D-03
   243  2.4200000000000D+00 -3.4034341053802D-04 -1.1474448214870D-03
   244  2.4300000000000D+00 -2.4247243403722D-04 -8.3113510744932D-04
   245  2.4400000000000D+00 -1.7664882206950D-04 -6.0294901659547D-04
   246  2.4500000000000D+00 -1.3420353765236D-04 -4.4417248024613D-04
   247  2.4600000000000D+00 -1.1073149573345D-04 -3.4612102220065D-04
   248  2.4700000000000D+00 -1.0175593684865D-04 -2.9815699980183D-04
   249  2.4800000000000D+00 -1.0346852862520D-04 -2.8993502038101D-04
   250  2.4900000000000D+00 -1.0264503031813D-04 -2.8226627929902D-04
   251  2.5000000000000D+00 -8.9709334409393D-05 -2.4564885614878D-04
   252  2.5100000000000D+00 -5.8541565274189D-05 -1.6005954020052D-04
   253  2.5200000000000D+00 -2.3473506208581D-05 -6.4213744612661D-05
   254  2.5300000000000D+00  3.1690663085626D-06  8.6130562848252D-06
   255  2.5400000000000D+00  1.0105205976839D-05  2.7444508702613D-05
   256  2.5500000000000D+00  6.5107300703090D-06  1.7674549839108D-05
   257  2.5600000000000D+00 -5.0599436617681D-07 -1.3732137251492D-06
   258  2.5700000000000D+00 -2.1849914890112D-06 -5.9267610881634D-06
   259  2.5800000000000D+00 -1.6522099701850D-06 -4.4796735498678D-06
   260  2.5900000000000D+00  3.4359212657438D-08  9.4159343755973D-08
   261  2.6000000000000D+00  2.5124537177553D-07  6.8852274247290D-07
   262  2.6100000000000D+00  2.1870011285912D-07  5.9933442921061D-07
   263  2.6200000000000D+00  2.1183709652579D-10  5.8052674812155D-10
   264  2.6300000000000D+00  0.0000000000000D+00  0.0000000000000D+00
   265  2.6400000000000D+00  0.0000000000000D+00  0.0000000000000D+00
   266  2.6500000000000D+00  0.0000000000000D+00  0.0000000000000D+00
   267  2.6600000000000D+00  0.0000000000000D+00  0.0000000000000D+00
   268  2.6700000000000D+00  0.0000000000000D+00  0.0000000000000D+00
   269  2.6800000000000D+00  0.0000000000000D+00  0.0000000000000D+00
   270  2.6900000000000D+00  0.0000000000000D+00  0.0000000000000D+00
   271  2.7000000000000D+00  0.0000000000000D+00  0.0000000000000D+00
   272  2.7100000000000D+00  0.0000000000000D+00  0.0000000000000D+00
   273  2.7200000000000D+00  0.0000000000000D+00  0.0000000000000D+00
   274  2.7300000000000D+00  0.0000000000000D+00  0.0000000000000D+00
   275  2.7400000000000D+00  0.0000000000000D+00  0.0000000000000D+00
   276  2.7500000000000D+00  0.0000000000000D+00  0.0000000000000D+00
   277  2.7600000000000D+00  0.0000000000000D+00  0.0000000000000D+00
   278  2.7700000000000D+00  0.0000000000000D+00  0.0000000000000D+00
   279  2.7800000000000D+00  0.0000000000000D+00  0.0000000000000D+00
   280  2.7900000000000D+00  0.0000000000000D+00  0.0000000000000D+00
   281  2.8000000000000D+00  0.0000000000000D+00  0.0000000000000D+00
   282  2.8100000000000D+00  0.0000000000000D+00  0.0000000000000D+00
   283  2.8200000000000D+00  0.0000000000000D+00  0.0000000000000D+00
   284  2.8300000000000D+00  0.0000000000000D+00  0.0000000000000D+00
   285  2.8400000000000D+00  0.0000000000000D+00  0.0000000000000D+00
   286  2.8500000000000D+00  0.0000000000000D+00  0.0000000000000D+00
   287  2.8600000000000D+00  0.0000000000000D+00  0.0000000000000D+00
   288  2.8700000000000D+00  0.0000000000000D+00  0.0000000000000D+00
   289  2.8800000000000D+00  0.0000000000000D+00  0.0000000000000D+00
   290  2.8900000000000D+00  0.0000000000000D+00  0.0000000000000D+00
   291  2.9000000000000D+00  0.0000000000000D+00  0.0000000000000D+00
   292  2.9100000000000D+00  0.0000000000000D+00  0.0000000000000D+00
   293  2.9200000000000D+00  0.0000000000000D+00  0.0000000000000D+00
   294  2.9300000000000D+00  0.0000000000000D+00  0.0000000000000D+00
   295  2.9400000000000D+00  0.0000000000000D+00  0.0000000000000D+00
   296  2.9500000000000D+00  0.0000000000000D+00  0.0000000000000D+00
   297  2.9600000000000D+00  0.0000000000000D+00  0.0000000000000D+00
   298  2.9700000000000D+00  0.0000000000000D+00  0.0000000000000D+00
   299  2.9800000000000D+00  0.0000000000000D+00  0.0000000000000D+00
   300  2.9900000000000D+00  0.0000000000000D+00  0.0000000000000D+00
   301  3.0000000000000D+00  0.0000000000000D+00  0.0000000000000D+00
   302  3.0100000000000D+00  0.0000000000000D+00  0.0000000000000D+00
   303  3.0200000000000D+00  0.0000000000000D+00  0.0000000000000D+00
   304  3.0300000000000D+00  0.0000000000000D+00  0.0000000000000D+00
   305  3.0400000000000D+00  0.0000000000000D+00  0.0000000000000D+00
   306  3.0500000000000D+00  0.0000000000000D+00  0.0000000000000D+00
   307  3.0600000000000D+00  0.0000000000000D+00  0.0000000000000D+00
   308  3.0700000000000D+00  0.0000000000000D+00  0.0000000000000D+00
   309  3.0800000000000D+00  0.0000000000000D+00  0.0000000000000D+00
   310  3.0900000000000D+00  0.0000000000000D+00  0.0000000000000D+00
   311  3.1000000000000D+00  0.0000000000000D+00  0.0000000000000D+00
   312  3.1100000000000D+00  0.0000000000000D+00  0.0000000000000D+00
   313  3.1200000000000D+00  0.0000000000000D+00  0.0000000000000D+00
   314  3.1300000000000D+00  0.0000000000000D+00  0.0000000000000D+00
   315  3.1400000000000D+00  0.0000000000000D+00  0.0000000000000D+00
   316  3.1500000000000D+00  0.0000000000000D+00  0.0000000000000D+00
   317  3.1600000000000D+00  0.0000000000000D+00  0.0000000000000D+00
   318  3.1700000000000D+00  0.0000000000000D+00  0.0000000000000D+00
   319  3.1800000000000D+00  0.0000000000000D+00  0.0000000000000D+00
   320  3.1900000000000D+00  0.0000000000000D+00  0.0000000000000D+00
   321  3.2000000000000D+00  0.0000000000000D+00  0.0000000000000D+00
   322  3.2100000000000D+00  0.0000000000000D+00  0.0000000000000D+00
   323  3.2200000000000D+00  0.0000000000000D+00  0.0000000000000D+00
   324  3.2300000000000D+00  0.0000000000000D+00  0.0000000000000D+00
   325  3.2400000000000D+00  0.0000000000000D+00  0.0000000000000D+00
   326  3.2500000000000D+00  0.0000000000000D+00  0.0000000000000D+00
   327  3.2600000000000D+00  0.0000000000000D+00  0.0000000000000D+00
   328  3.2700000000000D+00  0.0000000000000D+00  0.0000000000000D+00
   329  3.2800000000000D+00  0.0000000000000D+00  0.0000000000000D+00
   330  3.2900000000000D+00  0.0000000000000D+00  0.0000000000000D+00
   331  3.3000000000000D+00  0.0000000000000D+00  0.0000000000000D+00
   332  3.3100000000000D+00  0.0000000000000D+00  0.0000000000000D+00
   333  3.3200000000000D+00  0.0000000000000D+00  0.0000000000000D+00
   334  3.3300000000000D+00  0.0000000000000D+00  0.0000000000000D+00
   335  3.3400000000000D+00  0.0000000000000D+00  0.0000000000000D+00
   336  3.3500000000000D+00  0.0000000000000D+00  0.0000000000000D+00
   337  3.3600000000000D+00  0.0000000000000D+00  0.0000000000000D+00
   338  3.3700000000000D+00  0.0000000000000D+00  0.0000000000000D+00
   339  3.3800000000000D+00  0.0000000000000D+00  0.0000000000000D+00
   340  3.3900000000000D+00  0.0000000000000D+00  0.0000000000000D+00
   341  3.4000000000000D+00  0.0000000000000D+00  0.0000000000000D+00
   342  3.4100000000000D+00  0.0000000000000D+00  0.0000000000000D+00
   343  3.4200000000000D+00  0.0000000000000D+00  0.0000000000000D+00
   344  3.4300000000000D+00  0.0000000000000D+00  0.0000000000000D+00
   345  3.4400000000000D+00  0.0000000000000D+00  0.0000000000000D+00
   346  3.4500000000000D+00  0.0000000000000D+00  0.0000000000000D+00
   347  3.4600000000000D+00  0.0000000000000D+00  0.0000000000000D+00
   348  3.4700000000000D+00  0.0000000000000D+00  0.0000000000000D+00
   349  3.4800000000000D+00  0.0000000000000D+00  0.0000000000000D+00
   350  3.4900000000000D+00  0.0000000000000D+00  0.0000000000000D+00
   351  3.5000000000000D+00  0.0000000000000D+00  0.0000000000000D+00
   352  3.5100000000000D+00  0.0000000000000D+00  0.0000000000000D+00
   353  3.5200000000000D+00  0.0000000000000D+00  0.0000000000000D+00
   354  3.5300000000000D+00  0.0000000000000D+00  0.0000000000000D+00
   355  3.5400000000000D+00  0.0000000000000D+00  0.0000000000000D+00
   356  3.5500000000000D+00  0.0000000000000D+00  0.0000000000000D+00
   357  3.5600000000000D+00  0.0000000000000D+00  0.0000000000000D+00
   358  3.5700000000000D+00  0.0000000000000D+00  0.0000000000000D+00
   359  3.5800000000000D+00  0.0000000000000D+00  0.0000000000000D+00
   360  3.5900000000000D+00  0.0000000000000D+00  0.0000000000000D+00
   361  3.6000000000000D+00  0.0000000000000D+00  0.0000000000000D+00
   362  3.6100000000000D+00  0.0000000000000D+00  0.0000000000000D+00
   363  3.6200000000000D+00  0.0000000000000D+00  0.0000000000000D+00
   364  3.6300000000000D+00  0.0000000000000D+00  0.0000000000000D+00
   365  3.6400000000000D+00  0.0000000000000D+00  0.0000000000000D+00
   366  3.6500000000000D+00  0.0000000000000D+00  0.0000000000000D+00
   367  3.6600000000000D+00  0.0000000000000D+00  0.0000000000000D+00
   368  3.6700000000000D+00  0.0000000000000D+00  0.0000000000000D+00
   369  3.6800000000000D+00  0.0000000000000D+00  0.0000000000000D+00
   370  3.6900000000000D+00  0.0000000000000D+00  0.0000000000000D+00
   371  3.7000000000000D+00  0.0000000000000D+00  0.0000000000000D+00
   372  3.7100000000000D+00  0.0000000000000D+00  0.0000000000000D+00
   373  3.7200000000000D+00  0.0000000000000D+00  0.0000000000000D+00
   374  3.7300000000000D+00  0.0000000000000D+00  0.0000000000000D+00
   375  3.7400000000000D+00  0.0000000000000D+00  0.0000000000000D+00
   376  3.7500000000000D+00  0.0000000000000D+00  0.0000000000000D+00
   377  3.7600000000000D+00  0.0000000000000D+00  0.0000000000000D+00
   378  3.7700000000000D+00  0.0000000000000D+00  0.0000000000000D+00
   379  3.7800000000000D+00  0.0000000000000D+00  0.0000000000000D+00
   380  3.7900000000000D+00  0.0000000000000D+00  0.0000000000000D+00
   381  3.8000000000000D+00  0.0000000000000D+00  0.0000000000000D+00
   382  3.8100000000000D+00  0.0000000000000D+00  0.0000000000000D+00
   383  3.8200000000000D+00  0.0000000000000D+00  0.0000000000000D+00
   384  3.8300000000000D+00  0.0000000000000D+00  0.0000000000000D+00
   385  3.8400000000000D+00  0.0000000000000D+00  0.0000000000000D+00
   386  3.8500000000000D+00  0.0000000000000D+00  0.0000000000000D+00
   387  3.8600000000000D+00  0.0000000000000D+00  0.0000000000000D+00
   388  3.8700000000000D+00  0.0000000000000D+00  0.0000000000000D+00
   389  3.8800000000000D+00  0.0000000000000D+00  0.0000000000000D+00
   390  3.8900000000000D+00  0.0000000000000D+00  0.0000000000000D+00
   391  3.9000000000000D+00  0.0000000000000D+00  0.0000000000000D+00
   392  3.9100000000000D+00  0.0000000000000D+00  0.0000000000000D+00
   393  3.9200000000000D+00  0.0000000000000D+00  0.0000000000000D+00
   394  3.9300000000000D+00  0.0000000000000D+00  0.0000000000000D+00
   395  3.9400000000000D+00  0.0000000000000D+00  0.0000000000000D+00
   396  3.9500000000000D+00  0.0000000000000D+00  0.0000000000000D+00
   397  3.9600000000000D+00  0.0000000000000D+00  0.0000000000000D+00
   398  3.9700000000000D+00  0.0000000000000D+00  0.0000000000000D+00
   399  3.9800000000000D+00  0.0000000000000D+00  0.0000000000000D+00
   400  3.9900000000000D+00  0.0000000000000D+00  0.0000000000000D+00
   401  4.0000000000000D+00  0.0000000000000D+00  0.0000000000000D+00
   402  4.0100000000000D+00  0.0000000000000D+00  0.0000000000000D+00
   403  4.0200000000000D+00  0.0000000000000D+00  0.0000000000000D+00
   404  4.0300000000000D+00  0.0000000000000D+00  0.0000000000000D+00
   405  4.0400000000000D+00  0.0000000000000D+00  0.0000000000000D+00
   406  4.0500000000000D+00  0.0000000000000D+00  0.0000000000000D+00
   407  4.0600000000000D+00  0.0000000000000D+00  0.0000000000000D+00
   408  4.0700000000000D+00  0.0000000000000D+00  0.0000000000000D+00
   409  4.0800000000000D+00  0.0000000000000D+00  0.0000000000000D+00
   410  4.0900000000000D+00  0.0000000000000D+00  0.0000000000000D+00
   411  4.1000000000000D+00  0.0000000000000D+00  0.0000000000000D+00
   412  4.1100000000000D+00  0.0000000000000D+00  0.0000000000000D+00
   413  4.1200000000000D+00  0.0000000000000D+00  0.0000000000000D+00
   414  4.1300000000000D+00  0.0000000000000D+00  0.0000000000000D+00
   415  4.1400000000000D+00  0.0000000000000D+00  0.0000000000000D+00
   416  4.1500000000000D+00  0.0000000000000D+00  0.0000000000000D+00
   417  4.1600000000000D+00  0.0000000000000D+00  0.0000000000000D+00
   418  4.1700000000000D+00  0.0000000000000D+00  0.0000000000000D+00
   419  4.1800000000000D+00  0.0000000000000D+00  0.0000000000000D+00
   420  4.1900000000000D+00  0.0000000000000D+00  0.0000000000000D+00
   421  4.2000000000000D+00  0.0000000000000D+00  0.0000000000000D+00
   422  4.2100000000000D+00  0.0000000000000D+00  0.0000000000000D+00