C     ONCVPSP-3.3.1  r_core=   1.42330   1.40643
      6.0000      4.0000      210905    zatom,zion,pspd
     8 -116133   1     4   600     0    pspcod,pspxc,lmax,lloc,mmax,r2well
  5.99000000  0.00000000  0.00000000    rchrg fchrg qchrg
     2     2     0     0     0    nproj
     1     1           extension_switch
   0                         7.5769781570952D+00  6.6205931863025D-01
     1  0.0000000000000D+00 -5.4107573976836D-10 -1.6185086604281D-10
     2  1.0000000000000D-02  6.8111207679955D-02 -3.2187269459543D-02
     3  2.0000000000000D-02  1.3607322403867D-01 -6.4279346259129D-02
     4  3.0000000000000D-02  2.0373762559297D-01 -9.6180827479544D-02
     5  4.0000000000000D-02  2.7095751523089D-01 -1.2779589488950D-01
     6  5.0000000000000D-02  3.3758826227553D-01 -1.5902812026519D-01
     7  6.0000000000000D-02  4.0348821519329D-01 -1.8978028616721D-01
     8  7.0000000000000D-02  4.6851937847348D-01 -2.1995422713847D-01
     9  8.0000000000000D-02  5.3254804574706D-01 -2.4945069612507D-01
    10  9.0000000000000D-02  5.9544538187398D-01 -2.7816926072066D-01
    11  1.0000000000000D-01  6.5708794750151D-01 -3.0600823359299D-01
    12  1.1000000000000D-01  7.1735816046815D-01 -3.3286464117092D-01
    13  1.2000000000000D-01  7.7614468938732D-01 -3.5863423434984D-01
    14  1.3000000000000D-01  8.3334277577806D-01 -3.8321154461569D-01
    15  1.4000000000000D-01  8.8885448220004D-01 -4.0648998859174D-01
    16  1.5000000000000D-01  9.4258886498306D-01 -4.2836202358000D-01
    17  1.6000000000000D-01  9.9446207129812D-01 -4.4871935620147D-01
    18  1.7000000000000D-01  1.0443973614824D+00 -4.6745320573793D-01
    19  1.8000000000000D-01  1.0923250586848D+00 -4.8445462324363D-01
    20  1.9000000000000D-01  1.1381824290251D+00 -4.9961486693201D-01
    21  2.0000000000000D-01  1.1819134965434D+00 -5.1282583375050D-01
    22  2.1000000000000D-01  1.2234687982315D+00 -5.2398054644022D-01
    23  2.2000000000000D-01  1.2628050853836D+00 -5.3297369473897D-01
    24  2.3000000000000D-01  1.2998849783450D+00 -5.3970222873040D-01
    25  2.4000000000000D-01  1.3346765824787D+00 -5.4406600167188D-01
    26  2.5000000000000D-01  1.3671530737864D+00 -5.4596845895426D-01
    27  2.6000000000000D-01  1.3972922631034D+00 -5.4531736916388D-01
    28  2.7000000000000D-01  1.4250761481328D+00 -5.4202559253458D-01
    29  2.8000000000000D-01  1.4504904627772D+00 -5.3601188140305D-01
    30  2.9000000000000D-01  1.4735242332664D+00 -5.2720170662000D-01
    31  3.0000000000000D-01  1.4941693504640D+00 -5.1552810322982D-01
    32  3.1000000000000D-01  1.5124201674592D+00 -5.0093252811907D-01
    33  3.2000000000000D-01  1.5282731311223D+00 -4.8336572175891D-01
    34  3.3000000000000D-01  1.5417264557167D+00 -4.6278856563349D-01
    35  3.4000000000000D-01  1.5527798459361D+00 -4.3917292646675D-01
    36  3.5000000000000D-01  1.5614342758684D+00 -4.1250247794004D-01
    37  3.6000000000000D-01  1.5676918294014D+00 -3.8277349024232D-01
    38  3.7000000000000D-01  1.5715556064836D+00 -3.4999557752031D-01
    39  3.8000000000000D-01  1.5730296984573D+00 -3.1419239310881D-01
    40  3.9000000000000D-01  1.5721192344061D+00 -2.7540226232590D-01
    41  4.0000000000000D-01  1.5688304991227D+00 -2.3367874262413D-01
    42  4.1000000000000D-01  1.5631711219287D+00 -1.8909110100410D-01
    43  4.2000000000000D-01  1.5551503341857D+00 -1.4172469882462D-01
    44  4.3000000000000D-01  1.5447792919462D+00 -9.1681274494279D-02
    45  4.4000000000000D-01  1.5320714588306D+00 -3.9079115002030D-02
    46  4.5000000000000D-01  1.5170430429056D+00  1.5946892152169D-02
    47  4.6000000000000D-01  1.4997134800936D+00  7.3245334333089D-02
    48  4.7000000000000D-01  1.4801059554993D+00  1.3264848329278D-01
    49  4.8000000000000D-01  1.4582479530051D+00  1.9397264468494D-01
    50  4.9000000000000D-01  1.4341718225884D+00  2.5701865228839D-01
    51  5.0000000000000D-01  1.4079153540705D+00  3.2157251040643D-01
    52  5.1000000000000D-01  1.3795223454296D+00  3.8740618653448D-01
    53  5.2000000000000D-01  1.3490431534167D+00  4.5427855490282D-01
    54  5.3000000000000D-01  1.3165352140165D+00  5.2193648990816D-01
    55  5.4000000000000D-01  1.2820635202970D+00  5.9011610676408D-01
    56  5.5000000000000D-01  1.2457010454085D+00  6.5854414492825D-01
    57  5.6000000000000D-01  1.2075290989118D+00  7.2693948803091D-01
    58  5.7000000000000D-01  1.1676376052577D+00  7.9501481213741D-01
    59  5.8000000000000D-01  1.1261252940753D+00  8.6247835225179D-01
    60  5.9000000000000D-01  1.0830997929731D+00  9.2903577502676D-01
    61  6.0000000000000D-01  1.0386776147855D+00  9.9439214370178D-01
    62  6.1000000000000D-01  9.9298403260292D-01  1.0582539593724D+00
    63  6.2000000000000D-01  9.4615283748808D-01  1.1203312608198D+00
    64  6.3000000000000D-01  8.9832597548696D-01  1.1803397633131D+00
    65  6.4000000000000D-01  8.4965306235519D-01  1.2380030150798D+00
    66  6.5000000000000D-01  8.0029077633985D-01  1.2930545485176D+00
    67  6.6000000000000D-01  7.5040213133164D-01  1.3452400017348D+00
    68  6.7000000000000D-01  7.0015563470938D-01  1.3943191846769D+00
    69  6.8000000000000D-01  6.4972433623232D-01  1.4400680629218D+00
    70  6.9000000000000D-01  5.9928477632866D-01  1.4822806312563D+00
    71  7.0000000000000D-01  5.4901584407932D-01  1.5207706483684D+00
    72  7.1000000000000D-01  4.9909755705955D-01  1.5553732034439D+00
    73  7.2000000000000D-01  4.4970977696083D-01  1.5859460851287D+00
    74  7.3000000000000D-01  4.0103087652566D-01  1.6123709232474D+00
    75  7.4000000000000D-01  3.5323637477869D-01  1.6345540738387D+00
    76  7.5000000000000D-01  3.0649755879612D-01  1.6524272184990D+00
    77  7.6000000000000D-01  2.6098011129894D-01  1.6659476497051D+00
    78  7.7000000000000D-01  2.1684276417390D-01  1.6750982147342D+00
    79  7.8000000000000D-01  1.7423599859007D-01  1.6798868919812D+00
    80  7.9000000000000D-01  1.3330081268818D-01  1.6803459749119D+00
    81  8.0000000000000D-01  9.4167577852915D-02  1.6765308403247D+00
    82  8.1000000000000D-01  5.6955004396694D-02  1.6685182803128D+00
    83  8.2000000000000D-01  2.1769236905242D-02  1.6564043811462D+00
    84  8.3000000000000D-01 -1.1296899632561D-02  1.6403019756066D+00
    85  8.4000000000000D-01 -4.2164465705877D-02  1.6203384102902D+00
    86  8.5000000000000D-01 -7.0768776779036D-02  1.5966551886033D+00
    87  8.6000000000000D-01 -9.7059685071196D-02  1.5694080958020D+00
    88  8.7000000000000D-01 -1.2100179777324D-01  1.5387671481546D+00
    89  8.8000000000000D-01 -1.4257461472952D-01  1.5049164143994D+00
    90  8.9000000000000D-01 -1.6177257495258D-01  1.4680536376875D+00
    91  9.0000000000000D-01 -1.7860499982894D-01  1.4283896412204D+00
    92  9.1000000000000D-01 -1.9309592270821D-01  1.3861475144502D+00
    93  9.2000000000000D-01 -2.0528379697899D-01  1.3415615874180D+00
    94  9.3000000000000D-01 -2.1522107749462D-01  1.2948762075711D+00
    95  9.4000000000000D-01 -2.2297367307033D-01  1.2463443377077D+00
    96  9.5000000000000D-01 -2.2862027059164D-01  1.1962259964614D+00
    97  9.6000000000000D-01 -2.3225153397165D-01  1.1447865645429D+00
    98  9.7000000000000D-01 -2.3396918372432D-01  1.0922949811198D+00
    99  9.8000000000000D-01 -2.3388496527184D-01  1.0390218554487D+00
   100  9.9000000000000D-01 -2.3211951616256D-01  9.8523751927319D-01
   101  1.0000000000000D+00 -2.2880114434022D-01  9.3121004562690D-01
   102  1.0100000000000D+00 -2.2406453117337D-01  8.7720325954282D-01
   103  1.0200000000000D+00 -2.1804937435450D-01  8.2347476578920D-01
   104  1.0300000000000D+00 -2.1089898688050D-01  7.7027401814962D-01
   105  1.0400000000000D+00 -2.0275886916134D-01  7.1784045389384D-01
   106  1.0500000000000D+00 -1.9377527184075D-01  6.6640171608143D-01
   107  1.0600000000000D+00 -1.8409376722009D-01  6.1617198503223D-01
   108  1.0700000000000D+00 -1.7385784714779D-01  5.6735043881463D-01
   109  1.0800000000000D+00 -1.6320756497837D-01  5.2011986099508D-01
   110  1.0900000000000D+00 -1.5227823861621D-01  4.7464541195840D-01
   111  1.1000000000000D+00 -1.4119923094962D-01  4.3107357831227D-01
   112  1.1100000000000D+00 -1.3009282290726D-01  3.8953131263639D-01
   113  1.1200000000000D+00 -1.1907319309094D-01  3.5012537361809D-01
   114  1.1300000000000D+00 -1.0824551647800D-01  3.1294187429855D-01
   115  1.1400000000000D+00 -9.7705193056765D-02  2.7804604378200D-01
   116  1.1500000000000D+00 -8.7537215631656D-02  2.4548220549100D-01
   117  1.1600000000000D+00 -7.7815683790585D-02  2.1527397220525D-01
   118  1.1700000000000D+00 -6.8603469116705D-02  1.8742465584296D-01
   119  1.1800000000000D+00 -5.9952034838162D-02  1.6191788772588D-01
   120  1.1900000000000D+00 -5.1901410809963D-02  1.3871844247543D-01
   121  1.2000000000000D+00 -4.4480322431605D-02  1.1777325626604D-01
   122  1.2100000000000D+00 -3.7706469867160D-02  9.9012627903285D-02
   123  1.2200000000000D+00 -3.1586952798177D-02  8.2351589985364D-02
   124  1.2300000000000D+00 -2.6118832492439D-02  6.7691434089778D-02
   125  1.2400000000000D+00 -2.1289821835593D-02  5.4921372979245D-02
   126  1.2500000000000D+00 -1.7079092650669D-02  4.3920321558830D-02
   127  1.2600000000000D+00 -1.3458187068777D-02  3.4558776105177D-02
   128  1.2700000000000D+00 -1.0392018635335D-02  2.6700770567240D-02
   129  1.2800000000000D+00 -7.8399481660690D-03  2.0205888173505D-02
   130  1.2900000000000D+00 -5.7569175128474D-03  1.4931305223275D-02
   131  1.3000000000000D+00 -4.0946240220898D-03  1.0733844074277D-02
   132  1.3100000000000D+00 -2.8027182163045D-03  7.4720120818810D-03
   133  1.3200000000000D+00 -1.8300062206530D-03  5.0080029582442D-03
   134  1.3300000000000D+00 -1.1256394021430D-03  3.2096384880731D-03
   135  1.3400000000000D+00 -6.4027291950795D-04  1.9522275564881D-03
   136  1.3500000000000D+00 -3.2717595281858D-04  1.1203216575786D-03
   137  1.3600000000000D+00 -1.4327778567384D-04  6.0934756569027D-04
   138  1.3700000000000D+00 -5.0132491572848D-05  3.2709637568704D-04
   139  1.3800000000000D+00 -1.4849921403764D-05  1.9532496995615D-04
   140  1.3900000000000D+00 -1.0542023527012D-05  1.4946464448398D-04
   141  1.4000000000000D+00 -1.7262404486428D-05  1.4049645502461D-04
   142  1.4100000000000D+00 -2.4490038994158D-05  1.4885404629253D-04
   143  1.4200000000000D+00 -2.5396284120987D-05  1.4560319582136D-04
   144  1.4300000000000D+00 -1.4390371245798D-05  8.2663532498400D-05
   145  1.4400000000000D+00 -4.0041844671669D-07  2.3160936305187D-06
   146  1.4500000000000D+00  2.2842317074364D-06 -1.2943854065605D-05
   147  1.4600000000000D+00 -2.7286926106398D-07  1.5457995718579D-06
   148  1.4700000000000D+00 -4.1693677243502D-07  2.3592515740526D-06
   149  1.4800000000000D+00  5.3637385446588D-08 -3.0814226987353D-07
   150  1.4900000000000D+00  3.0329979425574D-08 -1.7424318183295D-07
   151  1.5000000000000D+00  0.0000000000000D+00  0.0000000000000D+00
   152  1.5100000000000D+00  0.0000000000000D+00  0.0000000000000D+00
   153  1.5200000000000D+00  0.0000000000000D+00  0.0000000000000D+00
   154  1.5300000000000D+00  0.0000000000000D+00  0.0000000000000D+00
   155  1.5400000000000D+00  0.0000000000000D+00  0.0000000000000D+00
   156  1.5500000000000D+00  0.0000000000000D+00  0.0000000000000D+00
   157  1.5600000000000D+00  0.0000000000000D+00  0.0000000000000D+00
   158  1.5700000000000D+00  0.0000000000000D+00  0.0000000000000D+00
   159  1.5800000000000D+00  0.0000000000000D+00  0.0000000000000D+00
   160  1.5900000000000D+00  0.0000000000000D+00  0.0000000000000D+00
   161  1.6000000000000D+00  0.0000000000000D+00  0.0000000000000D+00
   162  1.6100000000000D+00  0.0000000000000D+00  0.0000000000000D+00
   163  1.6200000000000D+00  0.0000000000000D+00  0.0000000000000D+00
   164  1.6300000000000D+00  0.0000000000000D+00  0.0000000000000D+00
   165  1.6400000000000D+00  0.0000000000000D+00  0.0000000000000D+00
   166  1.6500000000000D+00  0.0000000000000D+00  0.0000000000000D+00
   167  1.6600000000000D+00  0.0000000000000D+00  0.0000000000000D+00
   168  1.6700000000000D+00  0.0000000000000D+00  0.0000000000000D+00
   169  1.6800000000000D+00  0.0000000000000D+00  0.0000000000000D+00
   170  1.6900000000000D+00  0.0000000000000D+00  0.0000000000000D+00
   171  1.7000000000000D+00  0.0000000000000D+00  0.0000000000000D+00
   172  1.7100000000000D+00  0.0000000000000D+00  0.0000000000000D+00
   173  1.7200000000000D+00  0.0000000000000D+00  0.0000000000000D+00
   174  1.7300000000000D+00  0.0000000000000D+00  0.0000000000000D+00
   175  1.7400000000000D+00  0.0000000000000D+00  0.0000000000000D+00
   176  1.7500000000000D+00  0.0000000000000D+00  0.0000000000000D+00
   177  1.7600000000000D+00  0.0000000000000D+00  0.0000000000000D+00
   178  1.7700000000000D+00  0.0000000000000D+00  0.0000000000000D+00
   179  1.7800000000000D+00  0.0000000000000D+00  0.0000000000000D+00
   180  1.7900000000000D+00  0.0000000000000D+00  0.0000000000000D+00
   181  1.8000000000000D+00  0.0000000000000D+00  0.0000000000000D+00
   182  1.8100000000000D+00  0.0000000000000D+00  0.0000000000000D+00
   183  1.8200000000000D+00  0.0000000000000D+00  0.0000000000000D+00
   184  1.8300000000000D+00  0.0000000000000D+00  0.0000000000000D+00
   185  1.8400000000000D+00  0.0000000000000D+00  0.0000000000000D+00
   186  1.8500000000000D+00  0.0000000000000D+00  0.0000000000000D+00
   187  1.8600000000000D+00  0.0000000000000D+00  0.0000000000000D+00
   188  1.8700000000000D+00  0.0000000000000D+00  0.0000000000000D+00
   189  1.8800000000000D+00  0.0000000000000D+00  0.0000000000000D+00
   190  1.8900000000000D+00  0.0000000000000D+00  0.0000000000000D+00
   191  1.9000000000000D+00  0.0000000000000D+00  0.0000000000000D+00
   192  1.9100000000000D+00  0.0000000000000D+00  0.0000000000000D+00
   193  1.9200000000000D+00  0.0000000000000D+00  0.0000000000000D+00
   194  1.9300000000000D+00  0.0000000000000D+00  0.0000000000000D+00
   195  1.9400000000000D+00  0.0000000000000D+00  0.0000000000000D+00
   196  1.9500000000000D+00  0.0000000000000D+00  0.0000000000000D+00
   197  1.9600000000000D+00  0.0000000000000D+00  0.0000000000000D+00
   198  1.9700000000000D+00  0.0000000000000D+00  0.0000000000000D+00
   199  1.9800000000000D+00  0.0000000000000D+00  0.0000000000000D+00
   200  1.9900000000000D+00  0.0000000000000D+00  0.0000000000000D+00
   201  2.0000000000000D+00  0.0000000000000D+00  0.0000000000000D+00
   202  2.0100000000000D+00  0.0000000000000D+00  0.0000000000000D+00
   203  2.0200000000000D+00  0.0000000000000D+00  0.0000000000000D+00
   204  2.0300000000000D+00  0.0000000000000D+00  0.0000000000000D+00
   205  2.0400000000000D+00  0.0000000000000D+00  0.0000000000000D+00
   206  2.0500000000000D+00  0.0000000000000D+00  0.0000000000000D+00
   207  2.0600000000000D+00  0.0000000000000D+00  0.0000000000000D+00
   208  2.0700000000000D+00  0.0000000000000D+00  0.0000000000000D+00
   209  2.0800000000000D+00  0.0000000000000D+00  0.0000000000000D+00
   210  2.0900000000000D+00  0.0000000000000D+00  0.0000000000000D+00
   211  2.1000000000000D+00  0.0000000000000D+00  0.0000000000000D+00
   212  2.1100000000000D+00  0.0000000000000D+00  0.0000000000000D+00
   213  2.1200000000000D+00  0.0000000000000D+00  0.0000000000000D+00
   214  2.1300000000000D+00  0.0000000000000D+00  0.0000000000000D+00
   215  2.1400000000000D+00  0.0000000000000D+00  0.0000000000000D+00
   216  2.1500000000000D+00  0.0000000000000D+00  0.0000000000000D+00
   217  2.1600000000000D+00  0.0000000000000D+00  0.0000000000000D+00
   218  2.1700000000000D+00  0.0000000000000D+00  0.0000000000000D+00
   219  2.1800000000000D+00  0.0000000000000D+00  0.0000000000000D+00
   220  2.1900000000000D+00  0.0000000000000D+00  0.0000000000000D+00
   221  2.2000000000000D+00  0.0000000000000D+00  0.0000000000000D+00
   222  2.2100000000000D+00  0.0000000000000D+00  0.0000000000000D+00
   223  2.2200000000000D+00  0.0000000000000D+00  0.0000000000000D+00
   224  2.2300000000000D+00  0.0000000000000D+00  0.0000000000000D+00
   225  2.2400000000000D+00  0.0000000000000D+00  0.0000000000000D+00
   226  2.2500000000000D+00  0.0000000000000D+00  0.0000000000000D+00
   227  2.2600000000000D+00  0.0000000000000D+00  0.0000000000000D+00
   228  2.2700000000000D+00  0.0000000000000D+00  0.0000000000000D+00
   229  2.2800000000000D+00  0.0000000000000D+00  0.0000000000000D+00
   230  2.2900000000000D+00  0.0000000000000D+00  0.0000000000000D+00
   231  2.3000000000000D+00  0.0000000000000D+00  0.0000000000000D+00
   232  2.3100000000000D+00  0.0000000000000D+00  0.0000000000000D+00
   233  2.3200000000000D+00  0.0000000000000D+00  0.0000000000000D+00
   234  2.3300000000000D+00  0.0000000000000D+00  0.0000000000000D+00
   235  2.3400000000000D+00  0.0000000000000D+00  0.0000000000000D+00
   236  2.3500000000000D+00  0.0000000000000D+00  0.0000000000000D+00
   237  2.3600000000000D+00  0.0000000000000D+00  0.0000000000000D+00
   238  2.3700000000000D+00  0.0000000000000D+00  0.0000000000000D+00
   239  2.3800000000000D+00  0.0000000000000D+00  0.0000000000000D+00
   240  2.3900000000000D+00  0.0000000000000D+00  0.0000000000000D+00
   241  2.4000000000000D+00  0.0000000000000D+00  0.0000000000000D+00
   242  2.4100000000000D+00  0.0000000000000D+00  0.0000000000000D+00
   243  2.4200000000000D+00  0.0000000000000D+00  0.0000000000000D+00
   244  2.4300000000000D+00  0.0000000000000D+00  0.0000000000000D+00
   245  2.4400000000000D+00  0.0000000000000D+00  0.0000000000000D+00
   246  2.4500000000000D+00  0.0000000000000D+00  0.0000000000000D+00
   247  2.4600000000000D+00  0.0000000000000D+00  0.0000000000000D+00
   248  2.4700000000000D+00  0.0000000000000D+00  0.0000000000000D+00
   249  2.4800000000000D+00  0.0000000000000D+00  0.0000000000000D+00
   250  2.4900000000000D+00  0.0000000000000D+00  0.0000000000000D+00
   251  2.5000000000000D+00  0.0000000000000D+00  0.0000000000000D+00
   252  2.5100000000000D+00  0.0000000000000D+00  0.0000000000000D+00
   253  2.5200000000000D+00  0.0000000000000D+00  0.0000000000000D+00
   254  2.5300000000000D+00  0.0000000000000D+00  0.0000000000000D+00
   255  2.5400000000000D+00  0.0000000000000D+00  0.0000000000000D+00
   256  2.5500000000000D+00  0.0000000000000D+00  0.0000000000000D+00
   257  2.5600000000000D+00  0.0000000000000D+00  0.0000000000000D+00
   258  2.5700000000000D+00  0.0000000000000D+00  0.0000000000000D+00
   259  2.5800000000000D+00  0.0000000000000D+00  0.0000000000000D+00
   260  2.5900000000000D+00  0.0000000000000D+00  0.0000000000000D+00
   261  2.6000000000000D+00  0.0000000000000D+00  0.0000000000000D+00
   262  2.6100000000000D+00  0.0000000000000D+00  0.0000000000000D+00
   263  2.6200000000000D+00  0.0000000000000D+00  0.0000000000000D+00
   264  2.6300000000000D+00  0.0000000000000D+00  0.0000000000000D+00
   265  2.6400000000000D+00  0.0000000000000D+00  0.0000000000000D+00
   266  2.6500000000000D+00  0.0000000000000D+00  0.0000000000000D+00
   267  2.6600000000000D+00  0.0000000000000D+00  0.0000000000000D+00
   268  2.6700000000000D+00  0.0000000000000D+00  0.0000000000000D+00
   269  2.6800000000000D+00  0.0000000000000D+00  0.0000000000000D+00
   270  2.6900000000000D+00  0.0000000000000D+00  0.0000000000000D+00
   271  2.7000000000000D+00  0.0000000000000D+00  0.0000000000000D+00
   272  2.7100000000000D+00  0.0000000000000D+00  0.0000000000000D+00
   273  2.7200000000000D+00  0.0000000000000D+00  0.0000000000000D+00
   274  2.7300000000000D+00  0.0000000000000D+00  0.0000000000000D+00
   275  2.7400000000000D+00  0.0000000000000D+00  0.0000000000000D+00
   276  2.7500000000000D+00  0.0000000000000D+00  0.0000000000000D+00
   277  2.7600000000000D+00  0.0000000000000D+00  0.0000000000000D+00
   278  2.7700000000000D+00  0.0000000000000D+00  0.0000000000000D+00
   279  2.7800000000000D+00  0.0000000000000D+00  0.0000000000000D+00
   280  2.7900000000000D+00  0.0000000000000D+00  0.0000000000000D+00
   281  2.8000000000000D+00  0.0000000000000D+00  0.0000000000000D+00
   282  2.8100000000000D+00  0.0000000000000D+00  0.0000000000000D+00
   283  2.8200000000000D+00  0.0000000000000D+00  0.0000000000000D+00
   284  2.8300000000000D+00  0.0000000000000D+00  0.0000000000000D+00
   285  2.8400000000000D+00  0.0000000000000D+00  0.0000000000000D+00
   286  2.8500000000000D+00  0.0000000000000D+00  0.0000000000000D+00
   287  2.8600000000000D+00  0.0000000000000D+00  0.0000000000000D+00
   288  2.8700000000000D+00  0.0000000000000D+00  0.0000000000000D+00
   289  2.8800000000000D+00  0.0000000000000D+00  0.0000000000000D+00
   290  2.8900000000000D+00  0.0000000000000D+00  0.0000000000000D+00
   291  2.9000000000000D+00  0.0000000000000D+00  0.0000000000000D+00
   292  2.9100000000000D+00  0.0000000000000D+00  0.0000000000000D+00
   293  2.9200000000000D+00  0.0000000000000D+00  0.0000000000000D+00
   294  2.9300000000000D+00  0.0000000000000D+00  0.0000000000000D+00
   295  2.9400000000000D+00  0.0000000000000D+00  0.0000000000000D+00
   296  2.9500000000000D+00  0.0000000000000D+00  0.0000000000000D+00
   297  2.9600000000000D+00  0.0000000000000D+00  0.0000000000000D+00
   298  2.9700000000000D+00  0.0000000000000D+00  0.0000000000000D+00
   299  2.9800000000000D+00  0.0000000000000D+00  0.0000000000000D+00
   300  2.9900000000000D+00  0.0000000000000D+00  0.0000000000000D+00
   301  3.0000000000000D+00  0.0000000000000D+00  0.0000000000000D+00
   302  3.0100000000000D+00  0.0000000000000D+00  0.0000000000000D+00
   303  3.0200000000000D+00  0.0000000000000D+00  0.0000000000000D+00
   304  3.0300000000000D+00  0.0000000000000D+00  0.0000000000000D+00
   305  3.0400000000000D+00  0.0000000000000D+00  0.0000000000000D+00
   306  3.0500000000000D+00  0.0000000000000D+00  0.0000000000000D+00
   307  3.0600000000000D+00  0.0000000000000D+00  0.0000000000000D+00
   308  3.0700000000000D+00  0.0000000000000D+00  0.0000000000000D+00
   309  3.0800000000000D+00  0.0000000000000D+00  0.0000000000000D+00
   310  3.0900000000000D+00  0.0000000000000D+00  0.0000000000000D+00
   311  3.1000000000000D+00  0.0000000000000D+00  0.0000000000000D+00
   312  3.1100000000000D+00  0.0000000000000D+00  0.0000000000000D+00
   313  3.1200000000000D+00  0.0000000000000D+00  0.0000000000000D+00
   314  3.1300000000000D+00  0.0000000000000D+00  0.0000000000000D+00
   315  3.1400000000000D+00  0.0000000000000D+00  0.0000000000000D+00
   316  3.1500000000000D+00  0.0000000000000D+00  0.0000000000000D+00
   317  3.1600000000000D+00  0.0000000000000D+00  0.0000000000000D+00
   318  3.1700000000000D+00  0.0000000000000D+00  0.0000000000000D+00
   319  3.1800000000000D+00  0.0000000000000D+00  0.0000000000000D+00
   320  3.1900000000000D+00  0.0000000000000D+00  0.0000000000000D+00
   321  3.2000000000000D+00  0.0000000000000D+00  0.0000000000000D+00
   322  3.2100000000000D+00  0.0000000000000D+00  0.0000000000000D+00
   323  3.2200000000000D+00  0.0000000000000D+00  0.0000000000000D+00
   324  3.2300000000000D+00  0.0000000000000D+00  0.0000000000000D+00
   325  3.2400000000000D+00  0.0000000000000D+00  0.0000000000000D+00
   326  3.2500000000000D+00  0.0000000000000D+00  0.0000000000000D+00
   327  3.2600000000000D+00  0.0000000000000D+00  0.0000000000000D+00
   328  3.2700000000000D+00  0.0000000000000D+00  0.0000000000000D+00
   329  3.2800000000000D+00  0.0000000000000D+00  0.0000000000000D+00
   330  3.2900000000000D+00  0.0000000000000D+00  0.0000000000000D+00
   331  3.3000000000000D+00  0.0000000000000D+00  0.0000000000000D+00
   332  3.3100000000000D+00  0.0000000000000D+00  0.0000000000000D+00
   333  3.3200000000000D+00  0.0000000000000D+00  0.0000000000000D+00
   334  3.3300000000000D+00  0.0000000000000D+00  0.0000000000000D+00
   335  3.3400000000000D+00  0.0000000000000D+00  0.0000000000000D+00
   336  3.3500000000000D+00  0.0000000000000D+00  0.0000000000000D+00
   337  3.3600000000000D+00  0.0000000000000D+00  0.0000000000000D+00
   338  3.3700000000000D+00  0.0000000000000D+00  0.0000000000000D+00
   339  3.3800000000000D+00  0.0000000000000D+00  0.0000000000000D+00
   340  3.3900000000000D+00  0.0000000000000D+00  0.0000000000000D+00
   341  3.4000000000000D+00  0.0000000000000D+00  0.0000000000000D+00
   342  3.4100000000000D+00  0.0000000000000D+00  0.0000000000000D+00
   343  3.4200000000000D+00  0.0000000000000D+00  0.0000000000000D+00
   344  3.4300000000000D+00  0.0000000000000D+00  0.0000000000000D+00
   345  3.4400000000000D+00  0.0000000000000D+00  0.0000000000000D+00
   346  3.4500000000000D+00  0.0000000000000D+00  0.0000000000000D+00
   347  3.4600000000000D+00  0.0000000000000D+00  0.0000000000000D+00
   348  3.4700000000000D+00  0.0000000000000D+00  0.0000000000000D+00
   349  3.4800000000000D+00  0.0000000000000D+00  0.0000000000000D+00
   350  3.4900000000000D+00  0.0000000000000D+00  0.0000000000000D+00
   351  3.5000000000000D+00  0.0000000000000D+00  0.0000000000000D+00
   352  3.5100000000000D+00  0.0000000000000D+00  0.0000000000000D+00
   353  3.5200000000000D+00  0.0000000000000D+00  0.0000000000000D+00
   354  3.5300000000000D+00  0.0000000000000D+00  0.0000000000000D+00
   355  3.5400000000000D+00  0.0000000000000D+00  0.0000000000000D+00
   356  3.5500000000000D+00  0.0000000000000D+00  0.0000000000000D+00
   357  3.5600000000000D+00  0.0000000000000D+00  0.0000000000000D+00
   358  3.5700000000000D+00  0.0000000000000D+00  0.0000000000000D+00
   359  3.5800000000000D+00  0.0000000000000D+00  0.0000000000000D+00
   360  3.5900000000000D+00  0.0000000000000D+00  0.0000000000000D+00
   361  3.6000000000000D+00  0.0000000000000D+00  0.0000000000000D+00
   362  3.6100000000000D+00  0.0000000000000D+00  0.0000000000000D+00
   363  3.6200000000000D+00  0.0000000000000D+00  0.0000000000000D+00
   364  3.6300000000000D+00  0.0000000000000D+00  0.0000000000000D+00
   365  3.6400000000000D+00  0.0000000000000D+00  0.0000000000000D+00
   366  3.6500000000000D+00  0.0000000000000D+00  0.0000000000000D+00
   367  3.6600000000000D+00  0.0000000000000D+00  0.0000000000000D+00
   368  3.6700000000000D+00  0.0000000000000D+00  0.0000000000000D+00
   369  3.6800000000000D+00  0.0000000000000D+00  0.0000000000000D+00
   370  3.6900000000000D+00  0.0000000000000D+00  0.0000000000000D+00
   371  3.7000000000000D+00  0.0000000000000D+00  0.0000000000000D+00
   372  3.7100000000000D+00  0.0000000000000D+00  0.0000000000000D+00
   373  3.7200000000000D+00  0.0000000000000D+00  0.0000000000000D+00
   374  3.7300000000000D+00  0.0000000000000D+00  0.0000000000000D+00
   375  3.7400000000000D+00  0.0000000000000D+00  0.0000000000000D+00
   376  3.7500000000000D+00  0.0000000000000D+00  0.0000000000000D+00
   377  3.7600000000000D+00  0.0000000000000D+00  0.0000000000000D+00
   378  3.7700000000000D+00  0.0000000000000D+00  0.0000000000000D+00
   379  3.7800000000000D+00  0.0000000000000D+00  0.0000000000000D+00
   380  3.7900000000000D+00  0.0000000000000D+00  0.0000000000000D+00
   381  3.8000000000000D+00  0.0000000000000D+00  0.0000000000000D+00
   382  3.8100000000000D+00  0.0000000000000D+00  0.0000000000000D+00
   383  3.8200000000000D+00  0.0000000000000D+00  0.0000000000000D+00
   384  3.8300000000000D+00  0.0000000000000D+00  0.0000000000000D+00
   385  3.8400000000000D+00  0.0000000000000D+00  0.0000000000000D+00
   386  3.8500000000000D+00  0.0000000000000D+00  0.0000000000000D+00
   387  3.8600000000000D+00  0.0000000000000D+00  0.0000000000000D+00
   388  3.8700000000000D+00  0.0000000000000D+00  0.0000000000000D+00
   389  3.8800000000000D+00  0.0000000000000D+00  0.0000000000000D+00
   390  3.8900000000000D+00  0.0000000000000D+00  0.0000000000000D+00
   391  3.9000000000000D+00  0.0000000000000D+00  0.0000000000000D+00
   392  3.9100000000000D+00  0.0000000000000D+00  0.0000000000000D+00
   393  3.9200000000000D+00  0.0000000000000D+00  0.0000000000000D+00
   394  3.9300000000000D+00  0.0000000000000D+00  0.0000000000000D+00
   395  3.9400000000000D+00  0.0000000000000D+00  0.0000000000000D+00
   396  3.9500000000000D+00  0.0000000000000D+00  0.0000000000000D+00
   397  3.9600000000000D+00  0.0000000000000D+00  0.0000000000000D+00
   398  3.9700000000000D+00  0.0000000000000D+00  0.0000000000000D+00
   399  3.9800000000000D+00  0.0000000000000D+00  0.0000000000000D+00
   400  3.9900000000000D+00  0.0000000000000D+00  0.0000000000000D+00
   401  4.0000000000000D+00  0.0000000000000D+00  0.0000000000000D+00
   402  4.0100000000000D+00  0.0000000000000D+00  0.0000000000000D+00
   403  4.0200000000000D+00  0.0000000000000D+00  0.0000000000000D+00
   404  4.0300000000000D+00  0.0000000000000D+00  0.0000000000000D+00
   405  4.0400000000000D+00  0.0000000000000D+00  0.0000000000000D+00
   406  4.0500000000000D+00  0.0000000000000D+00  0.0000000000000D+00
   407  4.0600000000000D+00  0.0000000000000D+00  0.0000000000000D+00
   408  4.0700000000000D+00  0.0000000000000D+00  0.0000000000000D+00
   409  4.0800000000000D+00  0.0000000000000D+00  0.0000000000000D+00
   410  4.0900000000000D+00  0.0000000000000D+00  0.0000000000000D+00
   411  4.1000000000000D+00  0.0000000000000D+00  0.0000000000000D+00
   412  4.1100000000000D+00  0.0000000000000D+00  0.0000000000000D+00
   413  4.1200000000000D+00  0.0000000000000D+00  0.0000000000000D+00
   414  4.1300000000000D+00  0.0000000000000D+00  0.0000000000000D+00
   415  4.1400000000000D+00  0.0000000000000D+00  0.0000000000000D+00
   416  4.1500000000000D+00  0.0000000000000D+00  0.0000000000000D+00
   417  4.1600000000000D+00  0.0000000000000D+00  0.0000000000000D+00
   418  4.1700000000000D+00  0.0000000000000D+00  0.0000000000000D+00
   419  4.1800000000000D+00  0.0000000000000D+00  0.0000000000000D+00
   420  4.1900000000000D+00  0.0000000000000D+00  0.0000000000000D+00
   421  4.2000000000000D+00  0.0000000000000D+00  0.0000000000000D+00
   422  4.2100000000000D+00  0.0000000000000D+00  0.0000000000000D+00
   423  4.2200000000000D+00  0.0000000000000D+00  0.0000000000000D+00