Cd    ONCVPSP-3.3.1  r_core=   2.33990   2.70000   3.04207
     48.0000     20.0000      210905    zatom,zion,pspd
     8 -116133   2     4   600     0    pspcod,pspxc,lmax,lloc,mmax,r2well
  5.99000000  0.00000000  0.00000000    rchrg fchrg qchrg
     2     2     2     0     0    nproj
     1     1           extension_switch
   0                         1.9542709060622D+00 -6.9661825839748D-01
     1  0.0000000000000D+00 -1.8179346916725D-12  5.5225268802417D-12
     2  1.0000000000000D-02  5.6456994272472D-02  1.5387984136499D-02
     3  2.0000000000000D-02  1.1280869677884D-01  3.0789960121858D-02
     4  3.0000000000000D-02  1.6895002374558D-01  4.6219838046433D-02
     5  4.0000000000000D-02  2.2477630699671D-01  6.1691364820644D-02
     6  5.0000000000000D-02  2.8018350078384D-01  7.7218043426295D-02
     7  6.0000000000000D-02  3.3506838745516D-01  9.2813053173554D-02
     8  7.0000000000000D-02  3.8932878157832D-01  1.0848917129234D-01
     9  8.0000000000000D-02  4.4286373213436D-01  1.2425869618138D-01
    10  9.0000000000000D-02  4.9557372240179D-01  1.4013337263128D-01
    11  1.0000000000000D-01  5.4736086715310D-01  1.5612431932996D-01
    12  1.1000000000000D-01  5.9812910678889D-01  1.7224195894919D-01
    13  1.2000000000000D-01  6.4778439803889D-01  1.8849595110052D-01
    14  1.3000000000000D-01  6.9623490086316D-01  2.0489512843680D-01
    15  1.4000000000000D-01  7.4339116119173D-01  2.2144743616289D-01
    16  1.5000000000000D-01  7.8916628914600D-01  2.3815987520461D-01
    17  1.6000000000000D-01  8.3347613239114D-01  2.5503844927044D-01
    18  1.7000000000000D-01  8.7623944427496D-01  2.7208811602393D-01
    19  1.8000000000000D-01  9.1737804641568D-01  2.8931274256825D-01
    20  1.9000000000000D-01  9.5681698540822D-01  3.0671506542630D-01
    21  2.0000000000000D-01  9.9448468332674D-01  3.2429665518135D-01
    22  2.1000000000000D-01  1.0303130817096D+00  3.4205788592414D-01
    23  2.2000000000000D-01  1.0642377787220D+00  3.5999790963236D-01
    24  2.3000000000000D-01  1.0961981592012D+00  3.7811463558838D-01
    25  2.4000000000000D-01  1.1261375172994D+00  3.9640471492033D-01
    26  2.5000000000000D-01  1.1540031714503D+00  4.1486353033045D-01
    27  2.6000000000000D-01  1.1797465713970D+00  4.3348519105374D-01
    28  2.7000000000000D-01  1.2033233970303D+00  4.5226253306804D-01
    29  2.8000000000000D-01  1.2246936488005D+00  4.7118712455557D-01
    30  2.9000000000000D-01  1.2438217294767D+00  4.9024927659424D-01
    31  3.0000000000000D-01  1.2606765170447D+00  5.0943805903587D-01
    32  3.1000000000000D-01  1.2752314285469D+00  5.2874132150716D-01
    33  3.2000000000000D-01  1.2874644746825D+00  5.4814571944856D-01
    34  3.3000000000000D-01  1.2973583050052D+00  5.6763674508555D-01
    35  3.4000000000000D-01  1.3049002435674D+00  5.8719876320704D-01
    36  3.5000000000000D-01  1.3100823148817D+00  6.0681505160602D-01
    37  3.6000000000000D-01  1.3129012600849D+00  6.2646784601890D-01
    38  3.7000000000000D-01  1.3133585432087D+00  6.4613838938176D-01
    39  3.8000000000000D-01  1.3114603474821D+00  6.6580698520461D-01
    40  3.9000000000000D-01  1.3072175616068D+00  6.8545305484827D-01
    41  4.0000000000000D-01  1.3006457559695D+00  7.0505519847288D-01
    42  4.1000000000000D-01  1.2917651487742D+00  7.2459125941287D-01
    43  4.2000000000000D-01  1.2806005620995D+00  7.4403839171937D-01
    44  4.3000000000000D-01  1.2671813679063D+00  7.6337313059922D-01
    45  4.4000000000000D-01  1.2515414240445D+00  7.8257146546818D-01
    46  4.5000000000000D-01  1.2337190003282D+00  8.0160891532632D-01
    47  4.6000000000000D-01  1.2137566947743D+00  8.2046060615479D-01
    48  4.7000000000000D-01  1.1917013401190D+00  8.3910135002572D-01
    49  4.8000000000000D-01  1.1676039007519D+00  8.5750572561126D-01
    50  4.9000000000000D-01  1.1415193602324D+00  8.7564815977261D-01
    51  5.0000000000000D-01  1.1135065995736D+00  8.9350300990699D-01
    52  5.1000000000000D-01  1.0836282665050D+00  9.1104464672835D-01
    53  5.2000000000000D-01  1.0519506359490D+00  9.2824753715687D-01
    54  5.3000000000000D-01  1.0185434619697D+00  9.4508632699356D-01
    55  5.4000000000000D-01  9.8347982147583D-01  9.6153592305787D-01
    56  5.5000000000000D-01  9.4683594998464D-01  9.7757157447024D-01
    57  5.6000000000000D-01  9.0869106977561D-01  9.9316895276614D-01
    58  5.7000000000000D-01  8.6912721078699D-01  1.0083042305343D+00
    59  5.8000000000000D-01  8.2822902463043D-01  1.0229541582795D+00
    60  5.9000000000000D-01  7.8608359212116D-01  1.0370961392192D+00
    61  6.0000000000000D-01  7.4278022474323D-01  1.0507083017318D+00
    62  6.1000000000000D-01  6.9841026049006D-01  1.0637695691883D+00
    63  6.2000000000000D-01  6.5306685454096D-01  1.0762597269081D+00
    64  6.3000000000000D-01  6.0684476525388D-01  1.0881594859951D+00
    65  6.4000000000000D-01  5.5984013597306D-01  1.0994505438227D+00
    66  6.5000000000000D-01  5.1215027316795D-01  1.1101156409549D+00
    67  6.6000000000000D-01  4.6387342143616D-01  1.1201386143011D+00
    68  6.7000000000000D-01  4.1510853591838D-01  1.1295044463246D+00
    69  6.8000000000000D-01  3.6595505268766D-01  1.1381993101384D+00
    70  6.9000000000000D-01  3.1651265768732D-01  1.1462106103421D+00
    71  7.0000000000000D-01  2.6688105480382D-01  1.1535270194708D+00
    72  7.1000000000000D-01  2.1715973366975D-01  1.1601385099472D+00
    73  7.2000000000000D-01  1.6744773780088D-01  1.1660363814464D+00
    74  7.3000000000000D-01  1.1784343367703D-01  1.1712132836035D+00
    75  7.4000000000000D-01  6.8444281381386D-02  1.1756632340126D+00
    76  7.5000000000000D-01  1.9346607415638D-02  1.1793816314874D+00
    77  7.6000000000000D-01 -2.9354619690768D-02  1.1823652645719D+00
    78  7.7000000000000D-01 -7.7566010360101D-02  1.1846123153104D+00
    79  7.8000000000000D-01 -1.2519597092029D-01  1.1861223583050D+00
    80  7.9000000000000D-01 -1.7215491592415D-01  1.1868963551084D+00
    81  8.0000000000000D-01 -2.1835547523187D-01  1.1869366440193D+00
    82  8.1000000000000D-01 -2.6371269526388D-01  1.1862469253641D+00
    83  8.2000000000000D-01 -3.0814423384242D-01  1.1848322423698D+00
    84  8.3000000000000D-01 -3.5157054805381D-01  1.1826989577469D+00
    85  8.4000000000000D-01 -3.9391507457848D-01  1.1798547261199D+00
    86  8.5000000000000D-01 -4.3510440195397D-01  1.1763084624585D+00
    87  8.6000000000000D-01 -4.7506843425531D-01  1.1720703066773D+00
    88  8.7000000000000D-01 -5.1374054569921D-01  1.1671515845852D+00
    89  8.8000000000000D-01 -5.5105772570226D-01  1.1615647653810D+00
    90  8.9000000000000D-01 -5.8696071394883D-01  1.1553234159013D+00
    91  9.0000000000000D-01 -6.2139412505229D-01  1.1484421518401D+00
    92  9.1000000000000D-01 -6.5430656242227D-01  1.1409365861679D+00
    93  9.2000000000000D-01 -6.8565072098224D-01  1.1328232749884D+00
    94  9.3000000000000D-01 -7.1538347841433D-01  1.1241196610766D+00
    95  9.4000000000000D-01 -7.4346597464281D-01  1.1148440153514D+00
    96  9.5000000000000D-01 -7.6986367930348D-01  1.1050153765381D+00
    97  9.6000000000000D-01 -7.9454644698360D-01  1.0946534892832D+00
    98  9.7000000000000D-01 -8.1748856005527D-01  1.0837787409835D+00
    99  9.8000000000000D-01 -8.3866875896462D-01  1.0724120975966D+00
   100  9.9000000000000D-01 -8.5807025987973D-01  1.0605750386974D+00
   101  1.0000000000000D+00 -8.7568075964176D-01  1.0482894920459D+00
   102  1.0100000000000D+00 -8.9149242800443D-01  1.0355777679295D+00
   103  1.0200000000000D+00 -9.0550188719041D-01  1.0224624935383D+00
   104  1.0300000000000D+00 -9.1771017883554D-01  1.0089665476304D+00
   105  1.0400000000000D+00 -9.2812271843390D-01  9.9511299573582D-01
   106  1.0500000000000D+00 -9.3674923743963D-01  9.8092502614243D-01
   107  1.0600000000000D+00 -9.4360371322512D-01  9.6642588690050D-01
   108  1.0700000000000D+00 -9.4870428713308D-01  9.5163882407230D-01
   109  1.0800000000000D+00 -9.5207317090625D-01  9.3658702144511D-01
   110  1.0900000000000D+00 -9.5373654181581D-01  9.2129354191497D-01
   111  1.1000000000000D+00 -9.5372442684992D-01  9.0578127073795D-01
   112  1.1100000000000D+00 -9.5207057636324D-01  8.9007286083279D-01
   113  1.1200000000000D+00 -9.4881232762074D-01  8.7419068030895D-01
   114  1.1300000000000D+00 -9.4399045871144D-01  8.5815676237764D-01
   115  1.1400000000000D+00 -9.3764903333573D-01  8.4199275779254D-01
   116  1.1500000000000D+00 -9.2983523700643D-01  8.2571988995067D-01
   117  1.1600000000000D+00 -9.2059920522551D-01  8.0935891277351D-01
   118  1.1700000000000D+00 -9.0999384423693D-01  7.9293007146898D-01
   119  1.1800000000000D+00 -8.9807464497392D-01  7.7645306626290D-01
   120  1.1900000000000D+00 -8.8489949084350D-01  7.5994701917332D-01
   121  1.2000000000000D+00 -8.7052846001028D-01  7.4343044388776D-01
   122  1.2100000000000D+00 -8.5502362286325D-01  7.2692121878491D-01
   123  1.2200000000000D+00 -8.3844883536049D-01  7.1043656312826D-01
   124  1.2300000000000D+00 -8.2086952895645D-01  6.9399301645146D-01
   125  1.2400000000000D+00 -8.0235249783259D-01  6.7760642113054D-01
   126  1.2500000000000D+00 -7.8296568415128D-01  6.6129190812904D-01
   127  1.2600000000000D+00 -7.6277796205814D-01  6.4506388589288D-01
   128  1.2700000000000D+00 -7.4185892116060D-01  6.2893603235202D-01
   129  1.2800000000000D+00 -7.2027865020032D-01  6.1292128997369D-01
   130  1.2900000000000D+00 -6.9810752163823D-01  5.9703186380780D-01
   131  1.3000000000000D+00 -6.7541597786024D-01  5.8127922244595D-01
   132  1.3100000000000D+00 -6.5227431968753D-01  5.6567410180432D-01
   133  1.3200000000000D+00 -6.2875249788173D-01  5.5022651164107D-01
   134  1.3300000000000D+00 -6.0491990830189D-01  5.3494574469818D-01
   135  1.3400000000000D+00 -5.8084519133382D-01  5.1984038835225D-01
   136  1.3500000000000D+00 -5.5659603624077D-01  5.0491833866104D-01
   137  1.3600000000000D+00 -5.3223899099214D-01  4.9018681666983D-01
   138  1.3700000000000D+00 -5.0783927813256D-01  4.7565238684854D-01
   139  1.3800000000000D+00 -4.8346061724900D-01  4.6132097752271D-01
   140  1.3900000000000D+00 -4.5916505447600D-01  4.4719790315223D-01
   141  1.4000000000000D+00 -4.3501279954632D-01  4.3328788831758D-01
   142  1.4100000000000D+00 -4.1106207078806D-01  4.1959509326277D-01
   143  1.4200000000000D+00 -3.8736894841474D-01  4.0612314084927D-01
   144  1.4300000000000D+00 -3.6398723653149D-01  3.9287514476995D-01
   145  1.4400000000000D+00 -3.4096833404648D-01  3.7985373887704D-01
   146  1.4500000000000D+00 -3.1836111483559D-01  3.6706110747510D-01
   147  1.4600000000000D+00 -2.9621181732196D-01  3.5449901643354D-01
   148  1.4700000000000D+00 -2.7456394361522D-01  3.4216884498128D-01
   149  1.4800000000000D+00 -2.5345816842374D-01  3.3007161803352D-01
   150  1.4900000000000D+00 -2.3293225765681D-01  3.1820803893351D-01
   151  1.5000000000000D+00 -2.1302099693786D-01  3.0657852245738D-01
   152  1.5100000000000D+00 -1.9375612982793D-01  2.9518322797897D-01
   153  1.5200000000000D+00 -1.7516630583621D-01  2.8402209265972D-01
   154  1.5300000000000D+00 -1.5727703804369D-01  2.7309486455806D-01
   155  1.5400000000000D+00 -1.4011067018913D-01  2.6240113555694D-01
   156  1.5500000000000D+00 -1.2368635310431D-01  2.5194037399346D-01
   157  1.5600000000000D+00 -1.0802003012616D-01  2.4171195693037D-01
   158  1.5700000000000D+00 -9.3124431421289D-02  2.3171520194092D-01
   159  1.5800000000000D+00 -7.9009076670019D-02  2.2194939838816D-01
   160  1.5900000000000D+00 -6.5680286043475D-02  2.1241383806538D-01
   161  1.6000000000000D+00 -5.3141198834241D-02  2.0310784520512D-01
   162  1.6100000000000D+00 -4.1391799578546D-02  1.9403080574116D-01
   163  1.6200000000000D+00 -3.0428951038576D-02  1.8518219583613D-01
   164  1.6300000000000D+00 -2.0246433755210D-02  1.7656160958949D-01
   165  1.6400000000000D+00 -1.0834989986044D-02  1.6816878676865D-01
   166  1.6500000000000D+00 -2.1823802685236D-03  1.6000363596228D-01
   167  1.6600000000000D+00  5.7265756045271D-03  1.5206626734660D-01
   168  1.6700000000000D+00  1.2909904071900D-02  1.4435700044635D-01
   169  1.6800000000000D+00  1.9388388425443D-02  1.3687637327204D-01
   170  1.6900000000000D+00  2.5185724150186D-02  1.2962528167768D-01
   171  1.7000000000000D+00  3.0328252820275D-02  1.2260490118758D-01
   172  1.7100000000000D+00  3.4844227937346D-02  1.1581635285804D-01
   173  1.7200000000000D+00  3.8763256551671D-02  1.0926048814457D-01
   174  1.7300000000000D+00  4.2115579215398D-02  1.0293762184650D-01
   175  1.7400000000000D+00  4.4931581606186D-02  9.6847381158147D-02
   176  1.7500000000000D+00  4.7241888297808D-02  9.0988868888514D-02
   177  1.7600000000000D+00  4.9077272125666D-02  8.5360728256491D-02
   178  1.7700000000000D+00  5.0468442493410D-02  7.9961128066192D-02
   179  1.7800000000000D+00  5.1445961640282D-02  7.4787817732572D-02
   180  1.7900000000000D+00  5.2040115226205D-02  6.9838151255997D-02
   181  1.8000000000000D+00  5.2280804654892D-02  6.5109118420868D-02
   182  1.8100000000000D+00  5.2197442580681D-02  6.0597372633816D-02
   183  1.8200000000000D+00  5.1818854270990D-02  5.6299257162157D-02
   184  1.8300000000000D+00  5.1173185785577D-02  5.2210829955916D-02
   185  1.8400000000000D+00  5.0287818371127D-02  4.8327887081589D-02
   186  1.8500000000000D+00  4.9189290019942D-02  4.4645984971685D-02
   187  1.8600000000000D+00  4.7903223626593D-02  4.1160461501761D-02
   188  1.8700000000000D+00  4.6454262414404D-02  3.7866456080307D-02
   189  1.8800000000000D+00  4.4866012320902D-02  3.4758928786247D-02
   190  1.8900000000000D+00  4.3160991542545D-02  3.1832678675389D-02
   191  1.9000000000000D+00  4.1360587356589D-02  2.9082361357934D-02
   192  1.9100000000000D+00  3.9485019796335D-02  2.6502505857375D-02
   193  1.9200000000000D+00  3.7553312832915D-02  2.4087530959255D-02
   194  1.9300000000000D+00  3.5583272008747D-02  2.1831760925804D-02
   195  1.9400000000000D+00  3.3591469526739D-02  1.9729440871775D-02
   196  1.9500000000000D+00  3.1593235591942D-02  1.7774751629509D-02
   197  1.9600000000000D+00  2.9602656631154D-02  1.5961824333204D-02
   198  1.9700000000000D+00  2.7632579773960D-02  1.4284754668011D-02
   199  1.9800000000000D+00  2.5694623361800D-02  1.2737616822037D-02
   200  1.9900000000000D+00  2.3799193660966D-02  1.1314477280049D-02
   201  2.0000000000000D+00  2.1955506703783D-02  1.0009408272968D-02
   202  2.0100000000000D+00  2.0171615970122D-02  8.8165011817814D-03
   203  2.0200000000000D+00  1.8454444637101D-02  7.7298796347641D-03
   204  2.0300000000000D+00  1.6809822698140D-02  6.7437125001322D-03
   205  2.0400000000000D+00  1.5242528369047D-02  5.8522267029973D-03
   206  2.0500000000000D+00  1.3756333255066D-02  5.0497198105176D-03
   207  2.0600000000000D+00  1.2354051302457D-02  4.3305725334681D-03
   208  2.0700000000000D+00  1.1037590651772D-02  3.6892609241450D-03
   209  2.0800000000000D+00  9.8080083759510D-03  3.1203684483372D-03
   210  2.0900000000000D+00  8.6655674875412D-03  2.6185977874455D-03
   211  2.1000000000000D+00  7.6097958267390D-03  2.1787823694452D-03
   212  2.1100000000000D+00  6.6395464377409D-03  1.7958976699502D-03
   213  2.1200000000000D+00  5.7530590589226D-03  1.4650721372290D-03
   214  2.1300000000000D+00  4.9480221265857D-03  1.1815978223219D-03
   215  2.1400000000000D+00  4.2216350905120D-03  9.4094061066695D-04
   216  2.1500000000000D+00  3.5706705777618D-03  7.3875003600006D-04
   217  2.1600000000000D+00  2.9915357143441D-03  5.7086865710800D-04
   218  2.1700000000000D+00  2.4803328706880D-03  4.3334094846939D-04
   219  2.1800000000000D+00  2.0329186254756D-03  3.2242165767016D-04
   220  2.1900000000000D+00  1.6449611296020D-03  2.3458361039125D-04
   221  2.2000000000000D+00  1.3119957083656D-03  1.6652494418839D-04
   222  2.2100000000000D+00  1.0294773351999D-03  1.1517565941986D-04
   223  2.2200000000000D+00  7.9283112961502D-04  7.7703576422683D-05
   224  2.2300000000000D+00  5.9749942720990D-04  5.1519561916655D-05
   225  2.2400000000000D+00  4.3898528259124D-04  3.4282005460025D-05
   226  2.2500000000000D+00  3.1289341627018D-04  2.3900662214147D-05
   227  2.2600000000000D+00  2.1496349105522D-04  1.8551270308762D-05
   228  2.2700000000000D+00  1.4110564894898D-04  1.6665376282185D-05
   229  2.2800000000000D+00  8.7448883406710D-05  1.6846546118589D-05
   230  2.2900000000000D+00  5.0322628807938D-05  1.7877845775446D-05
   231  2.3000000000000D+00  2.6295035217571D-05  1.9190649804949D-05
   232  2.3100000000000D+00  1.2189309066817D-05  2.0670316048653D-05
   233  2.3200000000000D+00  5.2304761694940D-06  2.2620647920764D-05
   234  2.3300000000000D+00  2.5930202677685D-06  2.3244691582196D-05
   235  2.3400000000000D+00  1.9374820875884D-06  2.0937285944498D-05
   236  2.3500000000000D+00  1.3013613890228D-06  1.3800559971427D-05
   237  2.3600000000000D+00  5.8087267021092D-07  5.5347486130457D-06
   238  2.3700000000000D+00 -5.4836912180051D-08 -7.1458156347340D-07
   239  2.3800000000000D+00 -1.7351266448686D-07 -2.2224915090966D-06
   240  2.3900000000000D+00 -9.6242194219315D-08 -1.2025521778027D-06
   241  2.4000000000000D+00  1.1221222114494D-08  2.3130648432810D-07
   242  2.4100000000000D+00  2.3152653042749D-08  5.0130467012089D-07
   243  2.4200000000000D+00  1.0758227592243D-08  2.4301154214911D-07
   244  2.4300000000000D+00 -3.0848786902502D-09 -3.3310866273104D-08
   245  2.4400000000000D+00 -5.4703875550456D-09 -5.9069858689774D-08
   246  2.4500000000000D+00 -2.3047140013555D-09 -2.4886560414691D-08
   247  2.4600000000000D+00  0.0000000000000D+00  0.0000000000000D+00
   248  2.4700000000000D+00  0.0000000000000D+00  0.0000000000000D+00
   249  2.4800000000000D+00  0.0000000000000D+00  0.0000000000000D+00
   250  2.4900000000000D+00  0.0000000000000D+00  0.0000000000000D+00
   251  2.5000000000000D+00  0.0000000000000D+00  0.0000000000000D+00
   252  2.5100000000000D+00  0.0000000000000D+00  0.0000000000000D+00
   253  2.5200000000000D+00  0.0000000000000D+00  0.0000000000000D+00
   254  2.5300000000000D+00  0.0000000000000D+00  0.0000000000000D+00
   255  2.5400000000000D+00  0.0000000000000D+00  0.0000000000000D+00
   256  2.5500000000000D+00  0.0000000000000D+00  0.0000000000000D+00
   257  2.5600000000000D+00  0.0000000000000D+00  0.0000000000000D+00
   258  2.5700000000000D+00  0.0000000000000D+00  0.0000000000000D+00
   259  2.5800000000000D+00  0.0000000000000D+00  0.0000000000000D+00
   260  2.5900000000000D+00  0.0000000000000D+00  0.0000000000000D+00
   261  2.6000000000000D+00  0.0000000000000D+00  0.0000000000000D+00
   262  2.6100000000000D+00  0.0000000000000D+00  0.0000000000000D+00
   263  2.6200000000000D+00  0.0000000000000D+00  0.0000000000000D+00
   264  2.6300000000000D+00  0.0000000000000D+00  0.0000000000000D+00
   265  2.6400000000000D+00  0.0000000000000D+00  0.0000000000000D+00
   266  2.6500000000000D+00  0.0000000000000D+00  0.0000000000000D+00
   267  2.6600000000000D+00  0.0000000000000D+00  0.0000000000000D+00
   268  2.6700000000000D+00  0.0000000000000D+00  0.0000000000000D+00
   269  2.6800000000000D+00  0.0000000000000D+00  0.0000000000000D+00
   270  2.6900000000000D+00  0.0000000000000D+00  0.0000000000000D+00
   271  2.7000000000000D+00  0.0000000000000D+00  0.0000000000000D+00
   272  2.7100000000000D+00  0.0000000000000D+00  0.0000000000000D+00
   273  2.7200000000000D+00  0.0000000000000D+00  0.0000000000000D+00
   274  2.7300000000000D+00  0.0000000000000D+00  0.0000000000000D+00
   275  2.7400000000000D+00  0.0000000000000D+00  0.0000000000000D+00
   276  2.7500000000000D+00  0.0000000000000D+00  0.0000000000000D+00
   277  2.7600000000000D+00  0.0000000000000D+00  0.0000000000000D+00
   278  2.7700000000000D+00  0.0000000000000D+00  0.0000000000000D+00
   279  2.7800000000000D+00  0.0000000000000D+00  0.0000000000000D+00
   280  2.7900000000000D+00  0.0000000000000D+00  0.0000000000000D+00
   281  2.8000000000000D+00  0.0000000000000D+00  0.0000000000000D+00
   282  2.8100000000000D+00  0.0000000000000D+00  0.0000000000000D+00
   283  2.8200000000000D+00  0.0000000000000D+00  0.0000000000000D+00
   284  2.8300000000000D+00  0.0000000000000D+00  0.0000000000000D+00
   285  2.8400000000000D+00  0.0000000000000D+00  0.0000000000000D+00
   286  2.8500000000000D+00  0.0000000000000D+00  0.0000000000000D+00
   287  2.8600000000000D+00  0.0000000000000D+00  0.0000000000000D+00
   288  2.8700000000000D+00  0.0000000000000D+00  0.0000000000000D+00
   289  2.8800000000000D+00  0.0000000000000D+00  0.0000000000000D+00
   290  2.8900000000000D+00  0.0000000000000D+00  0.0000000000000D+00
   291  2.9000000000000D+00  0.0000000000000D+00  0.0000000000000D+00
   292  2.9100000000000D+00  0.0000000000000D+00  0.0000000000000D+00
   293  2.9200000000000D+00  0.0000000000000D+00  0.0000000000000D+00
   294  2.9300000000000D+00  0.0000000000000D+00  0.0000000000000D+00
   295  2.9400000000000D+00  0.0000000000000D+00  0.0000000000000D+00
   296  2.9500000000000D+00  0.0000000000000D+00  0.0000000000000D+00
   297  2.9600000000000D+00  0.0000000000000D+00  0.0000000000000D+00
   298  2.9700000000000D+00  0.0000000000000D+00  0.0000000000000D+00
   299  2.9800000000000D+00  0.0000000000000D+00  0.0000000000000D+00
   300  2.9900000000000D+00  0.0000000000000D+00  0.0000000000000D+00
   301  3.0000000000000D+00  0.0000000000000D+00  0.0000000000000D+00
   302  3.0100000000000D+00  0.0000000000000D+00  0.0000000000000D+00
   303  3.0200000000000D+00  0.0000000000000D+00  0.0000000000000D+00
   304  3.0300000000000D+00  0.0000000000000D+00  0.0000000000000D+00
   305  3.0400000000000D+00  0.0000000000000D+00  0.0000000000000D+00
   306  3.0500000000000D+00  0.0000000000000D+00  0.0000000000000D+00
   307  3.0600000000000D+00  0.0000000000000D+00  0.0000000000000D+00
   308  3.0700000000000D+00  0.0000000000000D+00  0.0000000000000D+00
   309  3.0800000000000D+00  0.0000000000000D+00  0.0000000000000D+00
   310  3.0900000000000D+00  0.0000000000000D+00  0.0000000000000D+00
   311  3.1000000000000D+00  0.0000000000000D+00  0.0000000000000D+00
   312  3.1100000000000D+00  0.0000000000000D+00  0.0000000000000D+00
   313  3.1200000000000D+00  0.0000000000000D+00  0.0000000000000D+00
   314  3.1300000000000D+00  0.0000000000000D+00  0.0000000000000D+00
   315  3.1400000000000D+00  0.0000000000000D+00  0.0000000000000D+00
   316  3.1500000000000D+00  0.0000000000000D+00  0.0000000000000D+00
   317  3.1600000000000D+00  0.0000000000000D+00  0.0000000000000D+00
   318  3.1700000000000D+00  0.0000000000000D+00  0.0000000000000D+00
   319  3.1800000000000D+00  0.0000000000000D+00  0.0000000000000D+00
   320  3.1900000000000D+00  0.0000000000000D+00  0.0000000000000D+00
   321  3.2000000000000D+00  0.0000000000000D+00  0.0000000000000D+00
   322  3.2100000000000D+00  0.0000000000000D+00  0.0000000000000D+00
   323  3.2200000000000D+00  0.0000000000000D+00  0.0000000000000D+00
   324  3.2300000000000D+00  0.0000000000000D+00  0.0000000000000D+00
   325  3.2400000000000D+00  0.0000000000000D+00  0.0000000000000D+00
   326  3.2500000000000D+00  0.0000000000000D+00  0.0000000000000D+00
   327  3.2600000000000D+00  0.0000000000000D+00  0.0000000000000D+00
   328  3.2700000000000D+00  0.0000000000000D+00  0.0000000000000D+00
   329  3.2800000000000D+00  0.0000000000000D+00  0.0000000000000D+00
   330  3.2900000000000D+00  0.0000000000000D+00  0.0000000000000D+00
   331  3.3000000000000D+00  0.0000000000000D+00  0.0000000000000D+00
   332  3.3100000000000D+00  0.0000000000000D+00  0.0000000000000D+00
   333  3.3200000000000D+00  0.0000000000000D+00  0.0000000000000D+00
   334  3.3300000000000D+00  0.0000000000000D+00  0.0000000000000D+00
   335  3.3400000000000D+00  0.0000000000000D+00  0.0000000000000D+00
   336  3.3500000000000D+00  0.0000000000000D+00  0.0000000000000D+00
   337  3.3600000000000D+00  0.0000000000000D+00  0.0000000000000D+00
   338  3.3700000000000D+00  0.0000000000000D+00  0.0000000000000D+00
   339  3.3800000000000D+00  0.0000000000000D+00  0.0000000000000D+00
   340  3.3900000000000D+00  0.0000000000000D+00  0.0000000000000D+00
   341  3.4000000000000D+00  0.0000000000000D+00  0.0000000000000D+00
   342  3.4100000000000D+00  0.0000000000000D+00  0.0000000000000D+00
   343  3.4200000000000D+00  0.0000000000000D+00  0.0000000000000D+00
   344  3.4300000000000D+00  0.0000000000000D+00  0.0000000000000D+00
   345  3.4400000000000D+00  0.0000000000000D+00  0.0000000000000D+00
   346  3.4500000000000D+00  0.0000000000000D+00  0.0000000000000D+00
   347  3.4600000000000D+00  0.0000000000000D+00  0.0000000000000D+00
   348  3.4700000000000D+00  0.0000000000000D+00  0.0000000000000D+00
   349  3.4800000000000D+00  0.0000000000000D+00  0.0000000000000D+00
   350  3.4900000000000D+00  0.0000000000000D+00  0.0000000000000D+00
   351  3.5000000000000D+00  0.0000000000000D+00  0.0000000000000D+00
   352  3.5100000000000D+00  0.0000000000000D+00  0.0000000000000D+00
   353  3.5200000000000D+00  0.0000000000000D+00  0.0000000000000D+00
   354  3.5300000000000D+00  0.0000000000000D+00  0.0000000000000D+00
   355  3.5400000000000D+00  0.0000000000000D+00  0.0000000000000D+00
   356  3.5500000000000D+00  0.0000000000000D+00  0.0000000000000D+00
   357  3.5600000000000D+00  0.0000000000000D+00  0.0000000000000D+00
   358  3.5700000000000D+00  0.0000000000000D+00  0.0000000000000D+00
   359  3.5800000000000D+00  0.0000000000000D+00  0.0000000000000D+00
   360  3.5900000000000D+00  0.0000000000000D+00  0.0000000000000D+00
   361  3.6000000000000D+00  0.0000000000000D+00  0.0000000000000D+00
   362  3.6100000000000D+00  0.0000000000000D+00  0.0000000000000D+00
   363  3.6200000000000D+00  0.0000000000000D+00  0.0000000000000D+00
   364  3.6300000000000D+00  0.0000000000000D+00  0.0000000000000D+00
   365  3.6400000000000D+00  0.0000000000000D+00  0.0000000000000D+00
   366  3.6500000000000D+00  0.0000000000000D+00  0.0000000000000D+00
   367  3.6600000000000D+00  0.0000000000000D+00  0.0000000000000D+00
   368  3.6700000000000D+00  0.0000000000000D+00  0.0000000000000D+00
   369  3.6800000000000D+00  0.0000000000000D+00  0.0000000000000D+00
   370  3.6900000000000D+00  0.0000000000000D+00  0.0000000000000D+00
   371  3.7000000000000D+00  0.0000000000000D+00  0.0000000000000D+00
   372  3.7100000000000D+00  0.0000000000000D+00  0.0000000000000D+00
   373  3.7200000000000D+00  0.0000000000000D+00  0.0000000000000D+00
   374  3.7300000000000D+00  0.0000000000000D+00  0.0000000000000D+00
   375  3.7400000000000D+00  0.0000000000000D+00  0.0000000000000D+00
   376  3.7500000000000D+00  0.0000000000000D+00  0.0000000000000D+00
   377  3.7600000000000D+00  0.0000000000000D+00  0.0000000000000D+00
   378  3.7700000000000D+00  0.0000000000000D+00  0.0000000000000D+00
   379  3.7800000000000D+00  0.0000000000000D+00  0.0000000000000D+00
   380  3.7900000000000D+00  0.0000000000000D+00  0.0000000000000D+00
   381  3.8000000000000D+00  0.0000000000000D+00  0.0000000000000D+00
   382  3.8100000000000D+00  0.0000000000000D+00  0.0000000000000D+00
   383  3.8200000000000D+00  0.0000000000000D+00  0.0000000000000D+00
   384  3.8300000000000D+00  0.0000000000000D+00  0.0000000000000D+00
   385  3.8400000000000D+00  0.0000000000000D+00  0.0000000000000D+00
   386  3.8500000000000D+00  0.0000000000000D+00  0.0000000000000D+00
   387  3.8600000000000D+00  0.0000000000000D+00  0.0000000000000D+00
   388  3.8700000000000D+00  0.0000000000000D+00  0.0000000000000D+00
   389  3.8800000000000D+00  0.0000000000000D+00  0.0000000000000D+00
   390  3.8900000000000D+00  0.0000000000000D+00  0.0000000000000D+00
   391  3.9000000000000D+00  0.0000000000000D+00  0.0000000000000D+00
   392  3.9100000000000D+00  0.0000000000000D+00  0.0000000000000D+00
   393  3.9200000000000D+00  0.0000000000000D+00  0.0000000000000D+00
   394  3.9300000000000D+00  0.0000000000000D+00  0.0000000000000D+00
   395  3.9400000000000D+00  0.0000000000000D+00  0.0000000000000D+00
   396  3.9500000000000D+00  0.0000000000000D+00  0.0000000000000D+00
   397  3.9600000000000D+00  0.0000000000000D+00  0.0000000000000D+00
   398  3.9700000000000D+00  0.0000000000000D+00  0.0000000000000D+00
   399  3.9800000000000D+00  0.0000000000000D+00  0.0000000000000D+00
   400  3.9900000000000D+00  0.0000000000000D+00  0.0000000000000D+00
   401  4.0000000000000D+00  0.0000000000000D+00  0.0000000000000D+00
   402  4.0100000000000D+00  0.0000000000000D+00  0.0000000000000D+00
   403  4.0200000000000D+00  0.0000000000000D+00  0.0000000000000D+00
   404  4.0300000000000D+00  0.0000000000000D+00  0.0000000000000D+00
   405  4.0400000000000D+00  0.0000000000000D+00  0.0000000000000D+00
   406  4.0500000000000D+00  0.0000000000000D+00  0.0000000000000D+00
   407  4.0600000000000D+00  0.0000000000000D+00  0.0000000000000D+00
   408  4.0700000000000D+00  0.0000000000000D+00  0.0000000000000D+00
   409  4.0800000000000D+00  0.0000000000000D+00  0.0000000000000D+00
   410  4.0900000000000D+00  0.0000000000000D+00  0.0000000000000D+00
   411  4.1000000000000D+00  0.0000000000000D+00  0.0000000000000D+00
   412  4.1100000000000D+00  0.0000000000000D+00  0.0000000000000D+00
   413  4.1200000000000D+00  0.0000000000000D+00  0.0000000000000D+00
   414  4.1300000000000D+00  0.0000000000000D+00  0.0000000000000D+00
   415  4.1400000000000D+00  0.0000000000000D+00  0.0000000000000D+00
   416  4.1500000000000D+00  0.0000000000000D+00  0.0000000000000D+00
   417  4.1600000000000D+00  0.0000000000000D+00  0.0000000000000D+00
   418  4.1700000000000D+00  0.0000000000000D+00  0.0000000000000D+00
   419  4.1800000000000D+00  0.0000000000000D+00  0.0000000000000D+00
   420  4.1900000000000D+00  0.0000000000000D+00  0.0000000000000D+00
   421  4.2000000000000D+00  0.0000000000000D+00  0.0000000000000D+00
   422  4.2100000000000D+00  0.0000000000000D+00  0.0000000000000D+00