Cl    ONCVPSP-3.3.1  r_core=   3.22968   1.63633
     17.0000      7.0000      210905    zatom,zion,pspd
     8 -116133   1     4   600     0    pspcod,pspxc,lmax,lloc,mmax,r2well
  5.99000000  0.00000000  0.00000000    rchrg fchrg qchrg
     2     3     0     0    nproj
     3     1           extension_switch
     4     0     0    nprojso
   0                        -4.6377108718961D+00  6.7425528691456D+00
     1  0.0000000000000D+00  2.0997159566605D-10 -1.5750956094962D-11
     2  1.0000000000000D-02 -7.5687700512626D-02  5.8419512533075D-02
     3  2.0000000000000D-02 -1.5099616848770D-01  1.1673113117470D-01
     4  3.0000000000000D-02 -2.2554810133065D-01  1.7482726588941D-01
     5  4.0000000000000D-02 -2.9897004615670D-01  2.3260093333146D-01
     6  5.0000000000000D-02 -3.7089429925828D-01  2.8994605763786D-01
     7  6.0000000000000D-02 -4.4096077525611D-01  3.4675776817046D-01
     8  7.0000000000000D-02 -5.0881883607536D-01  4.0293269320847D-01
     9  8.0000000000000D-02 -5.7412907009793D-01  4.5836924860876D-01
    10  9.0000000000000D-02 -6.3656501210297D-01  5.1296792047063D-01
    11  1.0000000000000D-01 -6.9581479491668D-01  5.6663154086518D-01
    12  1.1000000000000D-01 -7.5158272405041D-01  6.1926555571612D-01
    13  1.2000000000000D-01 -8.0359076700885D-01  6.7077828394932D-01
    14  1.3000000000000D-01 -8.5157994939710D-01  7.2108116706209D-01
    15  1.4000000000000D-01 -8.9531165044435D-01  7.7008900829996D-01
    16  1.5000000000000D-01 -9.3456879108907D-01  8.1772020066878D-01
    17  1.6000000000000D-01 -9.6915690833546D-01  8.6389694305265D-01
    18  1.7000000000000D-01 -9.9890511018805D-01  9.0854544375357D-01
    19  1.8000000000000D-01 -1.0236669061006D+00  9.5159611081669D-01
    20  1.9000000000000D-01 -1.0433209085305D+00  9.9298372855487D-01
    21  2.0000000000000D-01 -1.0577714018710D+00  1.0326476197386D+00
    22  2.1000000000000D-01 -1.0669487757332D+00  1.0705317929711D+00
    23  2.2000000000000D-01 -1.0708098202695D+00  1.1065850748237D+00
    24  2.3000000000000D-01 -1.0693378819585D+00  1.1407612263633D+00
    25  2.4000000000000D-01 -1.0625428790182D+00  1.1730190437615D+00
    26  2.5000000000000D-01 -1.0504611763549D+00  1.2033224427333D+00
    27  2.6000000000000D-01 -1.0331553207108D+00  1.2316405266119D+00
    28  2.7000000000000D-01 -1.0107136374183D+00  1.2579476379270D+00
    29  2.8000000000000D-01 -9.8324969091286D-01  1.2822233934090D+00
    30  2.9000000000000D-01 -9.5090161188907D-01  1.3044527024072D+00
    31  3.0000000000000D-01 -9.1383129470642D-01  1.3246257687599D+00
    32  3.1000000000000D-01 -8.7222346935425D-01  1.3427380762210D+00
    33  3.2000000000000D-01 -8.2628465296943D-01  1.3587903575951D+00
    34  3.3000000000000D-01 -7.7624198656028D-01  1.3727885477964D+00
    35  3.4000000000000D-01 -7.2234196322260D-01  1.3847437210948D+00
    36  3.5000000000000D-01 -6.6484905473584D-01  1.3946720128665D+00
    37  3.6000000000000D-01 -6.0404424399564D-01  1.4025945262166D+00
    38  3.7000000000000D-01 -5.4022347127032D-01  1.4085372238893D+00
    39  3.8000000000000D-01 -4.7369600276107D-01  1.4125308059242D+00
    40  3.9000000000000D-01 -4.0478273039489D-01  1.4146105735632D+00
    41  4.0000000000000D-01 -3.3381441218442D-01  1.4148162799498D+00
    42  4.1000000000000D-01 -2.6112986284679D-01  1.4131919682024D+00
    43  4.2000000000000D-01 -1.8707410468263D-01  1.4097857974733D+00
    44  4.3000000000000D-01 -1.1199648897455D-01  1.4046498576413D+00
    45  4.4000000000000D-01 -3.6248798370667D-02  1.3978399733075D+00
    46  4.5000000000000D-01  3.9816659128934D-02  1.3894154977931D+00
    47  4.6000000000000D-01  1.1584895386698D-01  1.3794390978549D+00
    48  4.7000000000000D-01  1.9150042514661D-01  1.3679765298548D+00
    49  4.8000000000000D-01  2.6642854802658D-01  1.3550964081289D+00
    50  4.9000000000000D-01  3.4029776561834D-01  1.3408699663160D+00
    51  5.0000000000000D-01  4.1278127633441D-01  1.3253708124091D+00
    52  5.1000000000000D-01  4.8356276571852D-01  1.3086746782959D+00
    53  5.2000000000000D-01  5.5233807272409D-01  1.2908591645561D+00
    54  5.3000000000000D-01  6.1881678059796D-01  1.2720034812743D+00
    55  5.4000000000000D-01  6.8272372286960D-01  1.2521881856253D+00
    56  5.5000000000000D-01  7.4380039534099D-01  1.2314949169704D+00
    57  5.6000000000000D-01  8.0180626541810D-01  1.2100061301947D+00
    58  5.7000000000000D-01  8.5651997061684D-01  1.1878048279939D+00
    59  5.8000000000000D-01  9.0774039861764D-01  1.1649742927990D+00
    60  5.9000000000000D-01  9.5528764182315D-01  1.1415978190030D+00
    61  6.0000000000000D-01  9.9900382000049D-01  1.1177584461285D+00
    62  6.1000000000000D-01  1.0387537652483D+00  1.0935386935437D+00
    63  6.2000000000000D-01  1.0744255642299D+00  1.0690202973030D+00
    64  6.3000000000000D-01  1.1059309533400D+00  1.0442839496553D+00
    65  6.4000000000000D-01  1.1332055632331D+00  1.0194090417262D+00
    66  6.5000000000000D-01  1.1562090099247D+00  9.9447340984141D-01
    67  6.6000000000000D-01  1.1749248304797D+00  9.6955308592084D-01
    68  6.7000000000000D-01  1.1893602621286D+00  9.4472205233058D-01
    69  6.8000000000000D-01  1.1995458644873D+00  9.2005200153767D-01
    70  6.9000000000000D-01  1.2055349854030D+00  8.9561210087006D-01
    71  7.0000000000000D-01  1.2074030718024D+00  8.7146876263984D-01
    72  7.1000000000000D-01  1.2052468277756D+00  8.4768541984350D-01
    73  7.2000000000000D-01  1.1991832229796D+00  8.2432230760857D-01
    74  7.3000000000000D-01  1.1893483552954D+00  8.0143625051131D-01
    75  7.4000000000000D-01  1.1758961725059D+00  7.7908045584607D-01
    76  7.5000000000000D-01  1.1589970585912D+00  7.5730431288302D-01
    77  7.6000000000000D-01  1.1388362910364D+00  7.3615319810799D-01
    78  7.7000000000000D-01  1.1156123763347D+00  7.1566828639619D-01
    79  7.8000000000000D-01  1.0895352716234D+00  6.9588636803087D-01
    80  7.9000000000000D-01  1.0608245013029D+00  6.7683967164255D-01
    81  8.0000000000000D-01  1.0297071763438D+00  6.5855569103672D-01
    82  8.1000000000000D-01  9.9641593149591D-01  6.4105702232855D-01
    83  8.2000000000000D-01  9.6118613086589D-01  6.2436047559970D-01
    84  8.3000000000000D-01  9.2424819217967D-01  6.0847147456586D-01
    85  8.4000000000000D-01  8.8581564763397D-01  5.9337620537770D-01
    86  8.5000000000000D-01  8.4607715523300D-01  5.7903993353318D-01
    87  8.6000000000000D-01  8.0519100047234D-01  5.6540789090330D-01
    88  8.7000000000000D-01  7.6328313293788D-01  5.5240870878804D-01
    89  8.8000000000000D-01  7.2044920216760D-01  5.3995993779490D-01
    90  8.9000000000000D-01  6.7676027300220D-01  5.2797479532071D-01
    91  9.0000000000000D-01  6.3227113412560D-01  5.1636903714665D-01
    92  9.1000000000000D-01  5.8702961572887D-01  5.0506686550832D-01
    93  9.2000000000000D-01  5.4108525808401D-01  4.9400507104728D-01
    94  9.3000000000000D-01  4.9449602411244D-01  4.8313505328871D-01
    95  9.4000000000000D-01  4.4733236303864D-01  4.7242282909463D-01
    96  9.5000000000000D-01  3.9967858780620D-01  4.6184748489498D-01
    97  9.6000000000000D-01  3.5163203258132D-01  4.5139868899775D-01
    98  9.7000000000000D-01  3.0330071588061D-01  4.4107386387768D-01
    99  9.8000000000000D-01  2.5480026044547D-01  4.3087548470364D-01
   100  9.9000000000000D-01  2.0625068827628D-01  4.2080879220064D-01
   101  1.0000000000000D+00  1.5777350582355D-01  4.1088004159053D-01
   102  1.0100000000000D+00  1.0948930260222D-01  4.0109528942379D-01
   103  1.0200000000000D+00  6.1515922117089D-02  3.9145964346677D-01
   104  1.0300000000000D+00  1.3967171635385D-02  3.8197687482668D-01
   105  1.0400000000000D+00 -3.3048016046762D-02  3.7264928821747D-01
   106  1.0500000000000D+00 -7.9426071692265D-02  3.6347776027561D-01
   107  1.0600000000000D+00 -1.2506902591724D-01  3.5446187647631D-01
   108  1.0700000000000D+00 -1.6988457551453D-01  3.4560011529226D-01
   109  1.0800000000000D+00 -2.1378604064639D-01  3.3689004788444D-01
   110  1.0900000000000D+00 -2.5669225857548D-01  3.2832853236713D-01
   111  1.1000000000000D+00 -2.9852744444130D-01  3.1991189173116D-01
   112  1.1100000000000D+00 -3.3922103885502D-01  3.1163607038671D-01
   113  1.1200000000000D+00 -3.7870755436514D-01  3.0349676808397D-01
   114  1.1300000000000D+00 -4.1692642703980D-01  2.9548955221812D-01
   115  1.1400000000000D+00 -4.5382187674912D-01  2.8760995031544D-01
   116  1.1500000000000D+00 -4.8934277725583D-01  2.7985352506882D-01
   117  1.1600000000000D+00 -5.2344253611088D-01  2.7221593436278D-01
   118  1.1700000000000D+00 -5.5607898356955D-01  2.6469297848346D-01
   119  1.1800000000000D+00 -5.8721426956638D-01  2.5728063651232D-01
   120  1.1900000000000D+00 -6.1681476753401D-01  2.4997509367843D-01
   121  1.2000000000000D+00 -6.4485098383267D-01  2.4277276117574D-01
   122  1.2100000000000D+00 -6.7129747160519D-01  2.3567028970191D-01
   123  1.2200000000000D+00 -6.9613274792581D-01  2.2866457780232D-01
   124  1.2300000000000D+00 -7.1933921308376D-01  2.2175277601279D-01
   125  1.2400000000000D+00 -7.4090307105350D-01  2.1493228751481D-01
   126  1.2500000000000D+00 -7.6081425024394D-01  2.0820076598096D-01
   127  1.2600000000000D+00 -7.7906632367352D-01  2.0155611119713D-01
   128  1.2700000000000D+00 -7.9565642785717D-01  1.9499646290760D-01
   129  1.2800000000000D+00 -8.1058517980965D-01  1.8852019327232D-01
   130  1.2900000000000D+00 -8.2385659160338D-01  1.8212589828891D-01
   131  1.3000000000000D+00 -8.3547798208399D-01  1.7581238843017D-01
   132  1.3100000000000D+00 -8.4545988545134D-01  1.6957867871293D-01
   133  1.3200000000000D+00 -8.5381595640880D-01  1.6342397840539D-01
   134  1.3300000000000D+00 -8.6056287178995D-01  1.5734768049403D-01
   135  1.3400000000000D+00 -8.6572022861153D-01  1.5134935102638D-01
   136  1.3500000000000D+00 -8.6931043848905D-01  1.4542871844150D-01
   137  1.3600000000000D+00 -8.7135861857207D-01  1.3958566293153D-01
   138  1.3700000000000D+00 -8.7189247908277D-01  1.3382020590363D-01
   139  1.3800000000000D+00 -8.7094220762737D-01  1.2813249958223D-01
   140  1.3900000000000D+00 -8.6854035054221D-01  1.2252281677097D-01
   141  1.4000000000000D+00 -8.6472169147501D-01  1.1699154080804D-01
   142  1.4100000000000D+00 -8.5952312751772D-01  1.1153915572081D-01
   143  1.4200000000000D+00 -8.5298354317965D-01  1.0616623659284D-01
   144  1.4300000000000D+00 -8.4514368250861D-01  1.0087344015203D-01
   145  1.4400000000000D+00 -8.3604601970743D-01  9.5661495579909D-02
   146  1.4500000000000D+00 -8.2573462856300D-01  9.0531195548985D-02
   147  1.4600000000000D+00 -8.1425505104207D-01  8.5483387486984D-02
   148  1.4700000000000D+00 -8.0165416538037D-01  8.0518965071138D-02
   149  1.4800000000000D+00 -7.8798005402001D-01  7.5638859952544D-02
   150  1.4900000000000D+00 -7.7328187170318D-01  7.0844033713242D-02
   151  1.5000000000000D+00 -7.5760971408294D-01  6.6135470056166D-02
   152  1.5100000000000D+00 -7.4101448713454D-01  6.1514167231594D-02
   153  1.5200000000000D+00 -7.2354777770626D-01  5.6981130701186D-02
   154  1.5300000000000D+00 -7.0526172549362D-01  5.2537366043410D-02
   155  1.5400000000000D+00 -6.8620889672252D-01  4.8183872103179D-02
   156  1.5500000000000D+00 -6.6644215984097D-01  4.3921634389282D-02
   157  1.5600000000000D+00 -6.4601456343562D-01  3.9751618723660D-02
   158  1.5700000000000D+00 -6.2497921669492D-01  3.5674765146338D-02
   159  1.5800000000000D+00 -6.0338917255928D-01  3.1691982080130D-02
   160  1.5900000000000D+00 -5.8129731389641D-01  2.7804140759612D-02
   161  1.6000000000000D+00 -5.5875624278641D-01  2.4012069927649D-02
   162  1.6100000000000D+00 -5.3581817323233D-01  2.0316550804657D-02
   163  1.6200000000000D+00 -5.1253482736450D-01  1.6718312332779D-02
   164  1.6300000000000D+00 -4.8895733540494D-01  1.3218026700223D-02
   165  1.6400000000000D+00 -4.6513613945495D-01  9.8163051470122D-03
   166  1.6500000000000D+00 -4.4112090132070D-01  6.5136940567286D-03
   167  1.6600000000000D+00 -4.1696041443327D-01  3.3106713347745D-03
   168  1.6700000000000D+00 -3.9270252003036D-01  2.0764307666082D-04
   169  1.6800000000000D+00 -3.6839402764486D-01 -2.7950594739964D-03
   170  1.6900000000000D+00 -3.4408064002744D-01 -5.6971826754705D-03
   171  1.7000000000000D+00 -3.1980688252939D-01 -8.4985529472991D-03
   172  1.7100000000000D+00 -2.9561603704315D-01 -1.1199078937781D-02
   173  1.7200000000000D+00 -2.7155008049825D-01 -1.3798753402527D-02
   174  1.7300000000000D+00 -2.4764962799291D-01 -1.6297654793426D-02
   175  1.7400000000000D+00 -2.2395388051929D-01 -1.8695948563077D-02
   176  1.7500000000000D+00 -2.0050057735912D-01 -2.0993888184044D-02
   177  1.7600000000000D+00 -1.7732595305693D-01 -2.3191815890808D-02
   178  1.7700000000000D+00 -1.5446469905754D-01 -2.5290163143030D-02
   179  1.7800000000000D+00 -1.3194992985361D-01 -2.7289450821495D-02
   180  1.7900000000000D+00 -1.0981315375278D-01 -2.9190289153950D-02
   181  1.8000000000000D+00 -8.8084248040454D-02 -3.0993377386143D-02
   182  1.8100000000000D+00 -6.6791438678404D-02 -3.2699503193487D-02
   183  1.8200000000000D+00 -4.5961284248399D-02 -3.4309541852266D-02
   184  1.8300000000000D+00 -2.5618664295507D-02 -3.5824455165222D-02
   185  1.8400000000000D+00 -5.7867717609043D-03 -3.7245290162308D-02
   186  1.8500000000000D+00  1.3512890396249D-02 -3.8573177572277D-02
   187  1.8600000000000D+00  3.2260508642748D-02 -3.9809330081025D-02
   188  1.8700000000000D+00  5.0437954385374D-02 -4.0955040386621D-02
   189  1.8800000000000D+00  6.8028775728099D-02 -4.2011679063082D-02
   190  1.8900000000000D+00  8.5018185587191D-02 -4.2980692233886D-02
   191  1.9000000000000D+00  1.0139304625293D-01 -4.3863599060347D-02
   192  1.9100000000000D+00  1.1714185061619D-01 -4.4661989069606D-02
   193  1.9200000000000D+00  1.3225470007694D-01 -4.5377519332454D-02
   194  1.9300000000000D+00  1.4672327941315D-01 -4.6011911489363D-02
   195  1.9400000000000D+00  1.6054082863928D-01 -4.6566948655678D-02
   196  1.9500000000000D+00  1.7370211210022D-01 -4.7044472210444D-02
   197  1.9600000000000D+00  1.8620338488202D-01 -4.7446378456528D-02
   198  1.9700000000000D+00  1.9804235672308D-01 -4.7774615173374D-02
   199  1.9800000000000D+00  2.0921815359784D-01 -4.8031178086062D-02
   200  1.9900000000000D+00  2.1973127710276D-01 -4.8218107269637D-02
   201  2.0000000000000D+00  2.2958356183010D-01 -4.8337483476455D-02
   202  2.0100000000000D+00  2.3877813088722D-01 -4.8391424417599D-02
   203  2.0200000000000D+00  2.4731934971309D-01 -4.8382081000123D-02
   204  2.0300000000000D+00  2.5521277836178D-01 -4.8311633526589D-02
   205  2.0400000000000D+00  2.6246512240795D-01 -4.8182287869159D-02
   206  2.0500000000000D+00  2.6908418261895D-01 -4.7996271629856D-02
   207  2.0600000000000D+00  2.7507880361523D-01 -4.7755830311612D-02
   208  2.0700000000000D+00  2.8045882157298D-01 -4.7463223488933D-02
   209  2.0800000000000D+00  2.8523501123367D-01 -4.7120721002524D-02
   210  2.0900000000000D+00  2.8941903229607D-01 -4.6730599180347D-02
   211  2.1000000000000D+00  2.9302337534130D-01 -4.6295137094588D-02
   212  2.1100000000000D+00  2.9606130753654D-01 -4.5816612873342D-02
   213  2.1200000000000D+00  2.9854681807457D-01 -4.5297300057920D-02
   214  2.1300000000000D+00  3.0049456370420D-01 -4.4739464034065D-02
   215  2.1400000000000D+00  3.0191981433084D-01 -4.4145358531055D-02
   216  2.1500000000000D+00  3.0283839882914D-01 -4.3517222197336D-02
   217  2.1600000000000D+00  3.0326665135873D-01 -4.2857275274940D-02
   218  2.1700000000000D+00  3.0322135801823D-01 -4.2167716353979D-02
   219  2.1800000000000D+00  3.0271970424712D-01 -4.1450719238649D-02
   220  2.1900000000000D+00  3.0177922293408D-01 -4.0708429917869D-02
   221  2.2000000000000D+00  3.0041774324706D-01 -3.9942963639994D-02
   222  2.2100000000000D+00  2.9865334060691D-01 -3.9156402118929D-02
   223  2.2200000000000D+00  2.9650428749846D-01 -3.8350790846661D-02
   224  2.2300000000000D+00  2.9398900549395D-01 -3.7528136540749D-02
   225  2.2400000000000D+00  2.9112601857442D-01 -3.6690404730593D-02
   226  2.2500000000000D+00  2.8793390751114D-01 -3.5839517458823D-02
   227  2.2600000000000D+00  2.8443126586654D-01 -3.4977351137704D-02
   228  2.2700000000000D+00  2.8063665730289D-01 -3.4105734535743D-02
   229  2.2800000000000D+00  2.7656857429377D-01 -3.3226446900375D-02
   230  2.2900000000000D+00  2.7224539861613D-01 -3.2341216235091D-02
   231  2.3000000000000D+00  2.6768536320533D-01 -3.1451717704244D-02
   232  2.3100000000000D+00  2.6290651574387D-01 -3.0559572190311D-02
   233  2.3200000000000D+00  2.5792668405766D-01 -2.9666345007742D-02
   234  2.3300000000000D+00  2.5276344296814D-01 -2.8773544741717D-02
   235  2.3400000000000D+00  2.4743408311564D-01 -2.7882622246776D-02
   236  2.3500000000000D+00  2.4195558152464D-01 -2.6994969787027D-02
   237  2.3600000000000D+00  2.3634457371737D-01 -2.6111920304843D-02
   238  2.3700000000000D+00  2.3061732795371D-01 -2.5234746849063D-02
   239  2.3800000000000D+00  2.2478972108497D-01 -2.4364662131160D-02
   240  2.3900000000000D+00  2.1887721610156D-01 -2.3502818209723D-02
   241  2.4000000000000D+00  2.1289484176998D-01 -2.2650306329919D-02
   242  2.4100000000000D+00  2.0685717382965D-01 -2.1808156878048D-02
   243  2.4200000000000D+00  2.0077831796311D-01 -2.0977339464238D-02
   244  2.4300000000000D+00  1.9467189471754D-01 -2.0158763140493D-02
   245  2.4400000000000D+00  1.8855102595346D-01 -1.9353276727332D-02
   246  2.4500000000000D+00  1.8242832306246D-01 -1.8561669260362D-02
   247  2.4600000000000D+00  1.7631587698938D-01 -1.7784670556102D-02
   248  2.4700000000000D+00  1.7022524971756D-01 -1.7022951876069D-02
   249  2.4800000000000D+00  1.6416746745887D-01 -1.6277126699158D-02
   250  2.4900000000000D+00  1.5815301548642D-01 -1.5547751596207D-02
   251  2.5000000000000D+00  1.5219183434558D-01 -1.4835327191873D-02
   252  2.5100000000000D+00  1.4629331764966D-01 -1.4140299219729D-02
   253  2.5200000000000D+00  1.4046631135151D-01 -1.3463059662743D-02
   254  2.5300000000000D+00  1.3471911428816D-01 -1.2803947969129D-02
   255  2.5400000000000D+00  1.2905948014601D-01 -1.2163252344183D-02
   256  2.5500000000000D+00  1.2349462073221D-01 -1.1541211110878D-02
   257  2.5600000000000D+00  1.1803121039699D-01 -1.0938014133316D-02
   258  2.5700000000000D+00  1.1267539168282D-01 -1.0353804298006D-02
   259  2.5800000000000D+00  1.0743278210570D-01 -9.7886790472883D-03
   260  2.5900000000000D+00  1.0230848195235D-01 -9.2426919627577D-03
   261  2.6000000000000D+00  9.7307083098161D-02 -8.7158543889996D-03
   262  2.6100000000000D+00  9.2432678774287D-02 -8.2081370923329D-03
   263  2.6200000000000D+00  8.7688874206264D-02 -7.7194719566351D-03
   264  2.6300000000000D+00  8.3078798074690D-02 -7.2497537042620D-03
   265  2.6400000000000D+00  7.8605114725977D-02 -6.7988416336635D-03
   266  2.6500000000000D+00  7.4270037103922D-02 -6.3665613813106D-03
   267  2.6600000000000D+00  7.0075340332871D-02 -5.9527066974022D-03
   268  2.6700000000000D+00  6.6022375827547D-02 -5.5570412181624D-03
   269  2.6800000000000D+00  6.2112085968854D-02 -5.1793002499588D-03
   270  2.6900000000000D+00  5.8345019308621D-02 -4.8191925611305D-03
   271  2.7000000000000D+00  5.4721346044262D-02 -4.4764021478723D-03
   272  2.7100000000000D+00  5.1240873914796D-02 -4.1505900014091D-03
   273  2.7200000000000D+00  4.7903064533748D-02 -3.8413958788280D-03
   274  2.7300000000000D+00  4.4707049733943D-02 -3.5484400276163D-03
   275  2.7400000000000D+00  4.1651648217600D-02 -3.2713249040631D-03
   276  2.7500000000000D+00  3.8735382478798D-02 -3.0096368821905D-03
   277  2.7600000000000D+00  3.5956495647247D-02 -2.7629479161324D-03
   278  2.7700000000000D+00  3.3312968408072D-02 -2.5308171759850D-03
   279  2.7800000000000D+00  3.0802536056939D-02 -2.3127926652500D-03
   280  2.7900000000000D+00  2.8422705482483D-02 -2.1084127996873D-03
   281  2.8000000000000D+00  2.6170771938100D-02 -1.9172079352977D-03
   282  2.8100000000000D+00  2.4043835817310D-02 -1.7387018698416D-03
   283  2.8200000000000D+00  2.2038819456513D-02 -1.5724133208658D-03
   284  2.8300000000000D+00  2.0152483381678D-02 -1.4178573251669D-03
   285  2.8400000000000D+00  1.8381442540593D-02 -1.2745466145943D-03
   286  2.8500000000000D+00  1.6722182460512D-02 -1.1419929624638D-03
   287  2.8600000000000D+00  1.5171074843930D-02 -1.0197084577117D-03
   288  2.8700000000000D+00  1.3724392938856D-02 -9.0720673932544D-04
   289  2.8800000000000D+00  1.2378326698418D-02 -8.0400419337196D-04
   290  2.8900000000000D+00  1.1128997606208D-02 -7.0962110309643D-04
   291  2.9000000000000D+00  9.9724729086913D-03 -6.2358273138019D-04
   292  2.9100000000000D+00  8.9047795947010D-03 -5.4542036652065D-04
   293  2.9200000000000D+00  7.9219182047310D-03 -4.7467233764282D-04
   294  2.9300000000000D+00  7.0198758062249D-03 -4.1088494872070D-04
   295  2.9400000000000D+00  6.1946387380870D-03 -3.5361338050240D-04
   296  2.9500000000000D+00  5.4422049833695D-03 -3.0242254944154D-04
   297  2.9600000000000D+00  4.7585960488708D-03 -2.5688791637850D-04
   298  2.9700000000000D+00  4.1398682332460D-03 -2.1659623779746D-04
   299  2.9800000000000D+00  3.5821235250019D-03 -1.8114627853996D-04
   300  2.9900000000000D+00  3.0815202158500D-03 -1.5014949010232D-04
   301  3.0000000000000D+00  2.6342826917195D-03 -1.2323062402300D-04
   302  3.0100000000000D+00  2.2367109099464D-03 -1.0002831204164D-04
   303  3.0200000000000D+00  1.8851894161072D-03 -8.0195604319725D-05
   304  3.0300000000000D+00  1.5761958920862D-03 -6.3400466735189D-05
   305  3.0400000000000D+00  1.3063090606795D-03 -4.9326231151854D-05
   306  3.0500000000000D+00  1.0722162057861D-03 -3.7672011328443D-05
   307  3.0600000000000D+00  8.7072028338659D-04 -2.8153080218075D-05
   308  3.0700000000000D+00  6.9874640845920D-04 -2.0501208882724D-05
   309  3.0800000000000D+00  5.5334790127046D-04 -1.4464969862190D-05
   310  3.0900000000000D+00  4.3171186533689D-04 -9.8100065434747D-06
   311  3.1000000000000D+00  3.3116435444104D-04 -6.3192636786542D-06
   312  3.1100000000000D+00  2.4917493880837D-04 -3.7931941844952D-06
   313  3.1200000000000D+00  1.8336086754162D-04 -2.0505865737094D-06
   314  3.1300000000000D+00  1.3149081110402D-04 -9.2740165555281D-07
   315  3.1400000000000D+00  9.1488143659512D-05 -2.7566837178619D-07
   316  3.1500000000000D+00  6.1433631221456D-05  3.3051219001036D-08
   317  3.1600000000000D+00  3.9564878531715D-05  1.1080062522958D-07
   318  3.1700000000000D+00  2.4286922898422D-05  4.5913424597242D-08
   319  3.1800000000000D+00  1.4168659837768D-05 -9.2532845613571D-08
   320  3.1900000000000D+00  7.9400004166070D-06 -2.5080635125417D-07
   321  3.2000000000000D+00  4.5583997748935D-06 -3.9546996325475D-07
   322  3.2100000000000D+00  2.9909613595151D-06 -4.9402317661594D-07
   323  3.2200000000000D+00  2.4171501832227D-06 -5.2945415938910D-07
   324  3.2300000000000D+00  2.2125302469425D-06 -4.9715753971621D-07
   325  3.2400000000000D+00  1.7631698992887D-06 -3.8823500771879D-07
   326  3.2500000000000D+00  1.1821156922384D-06 -2.4620091313971D-07
   327  3.2600000000000D+00  5.2169272447496D-07 -1.0193103564696D-07
   328  3.2700000000000D+00 -4.4423697582436D-08  1.0729246849240D-08
   329  3.2800000000000D+00 -2.2069033513432D-07  5.2645277241040D-08
   330  3.2900000000000D+00 -2.2828005946608D-07  5.3687571965781D-08
   331  3.3000000000000D+00 -1.1854682528598D-07  2.7473908325189D-08
   332  3.3100000000000D+00  9.1761928995934D-09 -2.9068672063313D-09
   333  3.3200000000000D+00  3.4961528218038D-08 -1.1256817502472D-08
   334  3.3300000000000D+00  3.6677180523886D-08 -1.1977932896344D-08
   335  3.3400000000000D+00  1.9038663329533D-08 -6.2957017901484D-09
   336  3.3500000000000D+00 -1.5266100988667D-09  3.4286193472497D-10
   337  3.3600000000000D+00 -5.5603530248546D-09  1.2488017715006D-09
   338  3.3700000000000D+00 -6.0617138865891D-09  1.3614025954945D-09
   339  3.3800000000000D+00 -3.3075085396702D-09  7.4283458354727D-10
   340  3.3900000000000D+00  0.0000000000000D+00  0.0000000000000D+00
   341  3.4000000000000D+00  0.0000000000000D+00  0.0000000000000D+00
   342  3.4100000000000D+00  0.0000000000000D+00  0.0000000000000D+00
   343  3.4200000000000D+00  0.0000000000000D+00  0.0000000000000D+00
   344  3.4300000000000D+00  0.0000000000000D+00  0.0000000000000D+00
   345  3.4400000000000D+00  0.0000000000000D+00  0.0000000000000D+00
   346  3.4500000000000D+00  0.0000000000000D+00  0.0000000000000D+00
   347  3.4600000000000D+00  0.0000000000000D+00  0.0000000000000D+00
   348  3.4700000000000D+00  0.0000000000000D+00  0.0000000000000D+00
   349  3.4800000000000D+00  0.0000000000000D+00  0.0000000000000D+00
   350  3.4900000000000D+00  0.0000000000000D+00  0.0000000000000D+00
   351  3.5000000000000D+00  0.0000000000000D+00  0.0000000000000D+00
   352  3.5100000000000D+00  0.0000000000000D+00  0.0000000000000D+00
   353  3.5200000000000D+00  0.0000000000000D+00  0.0000000000000D+00
   354  3.5300000000000D+00  0.0000000000000D+00  0.0000000000000D+00
   355  3.5400000000000D+00  0.0000000000000D+00  0.0000000000000D+00
   356  3.5500000000000D+00  0.0000000000000D+00  0.0000000000000D+00
   357  3.5600000000000D+00  0.0000000000000D+00  0.0000000000000D+00
   358  3.5700000000000D+00  0.0000000000000D+00  0.0000000000000D+00
   359  3.5800000000000D+00  0.0000000000000D+00  0.0000000000000D+00
   360  3.5900000000000D+00  0.0000000000000D+00  0.0000000000000D+00
   361  3.6000000000000D+00  0.0000000000000D+00  0.0000000000000D+00
   362  3.6100000000000D+00  0.0000000000000D+00  0.0000000000000D+00
   363  3.6200000000000D+00  0.0000000000000D+00  0.0000000000000D+00
   364  3.6300000000000D+00  0.0000000000000D+00  0.0000000000000D+00
   365  3.6400000000000D+00  0.0000000000000D+00  0.0000000000000D+00
   366  3.6500000000000D+00  0.0000000000000D+00  0.0000000000000D+00
   367  3.6600000000000D+00  0.0000000000000D+00  0.0000000000000D+00
   368  3.6700000000000D+00  0.0000000000000D+00  0.0000000000000D+00
   369  3.6800000000000D+00  0.0000000000000D+00  0.0000000000000D+00
   370  3.6900000000000D+00  0.0000000000000D+00  0.0000000000000D+00
   371  3.7000000000000D+00  0.0000000000000D+00  0.0000000000000D+00
   372  3.7100000000000D+00  0.0000000000000D+00  0.0000000000000D+00
   373  3.7200000000000D+00  0.0000000000000D+00  0.0000000000000D+00
   374  3.7300000000000D+00  0.0000000000000D+00  0.0000000000000D+00
   375  3.7400000000000D+00  0.0000000000000D+00  0.0000000000000D+00
   376  3.7500000000000D+00  0.0000000000000D+00  0.0000000000000D+00
   377  3.7600000000000D+00  0.0000000000000D+00  0.0000000000000D+00
   378  3.7700000000000D+00  0.0000000000000D+00  0.0000000000000D+00
   379  3.7800000000000D+00  0.0000000000000D+00  0.0000000000000D+00
   380  3.7900000000000D+00  0.0000000000000D+00  0.0000000000000D+00
   381  3.8000000000000D+00  0.0000000000000D+00  0.0000000000000D+00
   382  3.8100000000000D+00  0.0000000000000D+00  0.0000000000000D+00
   383  3.8200000000000D+00  0.0000000000000D+00  0.0000000000000D+00
   384  3.8300000000000D+00  0.0000000000000D+00  0.0000000000000D+00
   385  3.8400000000000D+00  0.0000000000000D+00  0.0000000000000D+00
   386  3.8500000000000D+00  0.0000000000000D+00  0.0000000000000D+00
   387  3.8600000000000D+00  0.0000000000000D+00  0.0000000000000D+00
   388  3.8700000000000D+00  0.0000000000000D+00  0.0000000000000D+00
   389  3.8800000000000D+00  0.0000000000000D+00  0.0000000000000D+00
   390  3.8900000000000D+00  0.0000000000000D+00  0.0000000000000D+00
   391  3.9000000000000D+00  0.0000000000000D+00  0.0000000000000D+00
   392  3.9100000000000D+00  0.0000000000000D+00  0.0000000000000D+00
   393  3.9200000000000D+00  0.0000000000000D+00  0.0000000000000D+00
   394  3.9300000000000D+00  0.0000000000000D+00  0.0000000000000D+00
   395  3.9400000000000D+00  0.0000000000000D+00  0.0000000000000D+00
   396  3.9500000000000D+00  0.0000000000000D+00  0.0000000000000D+00
   397  3.9600000000000D+00  0.0000000000000D+00  0.0000000000000D+00
   398  3.9700000000000D+00  0.0000000000000D+00  0.0000000000000D+00
   399  3.9800000000000D+00  0.0000000000000D+00  0.0000000000000D+00
   400  3.9900000000000D+00  0.0000000000000D+00  0.0000000000000D+00
   401  4.0000000000000D+00  0.0000000000000D+00  0.0000000000000D+00
   402  4.0100000000000D+00  0.0000000000000D+00  0.0000000000000D+00
   403  4.0200000000000D+00  0.0000000000000D+00  0.0000000000000D+00
   404  4.0300000000000D+00  0.0000000000000D+00  0.0000000000000D+00
   405  4.0400000000000D+00  0.0000000000000D+00  0.0000000000000D+00
   406  4.0500000000000D+00  0.0000000000000D+00  0.0000000000000D+00
   407  4.0600000000000D+00  0.0000000000000D+00  0.0000000000000D+00
   408  4.0700000000000D+00  0.0000000000000D+00  0.0000000000000D+00
   409  4.0800000000000D+00  0.0000000000000D+00  0.0000000000000D+00
   410  4.0900000000000D+00  0.0000000000000D+00  0.0000000000000D+00
   411  4.1000000000000D+00  0.0000000000000D+00  0.0000000000000D+00
   412  4.1100000000000D+00  0.0000000000000D+00  0.0000000000000D+00
   413  4.1200000000000D+00  0.0000000000000D+00  0.0000000000000D+00
   414  4.1300000000000D+00  0.0000000000000D+00  0.0000000000000D+00
   415  4.1400000000000D+00  0.0000000000000D+00  0.0000000000000D+00
   416  4.1500000000000D+00  0.0000000000000D+00  0.0000000000000D+00
   417  4.1600000000000D+00  0.0000000000000D+00  0.0000000000000D+00
   418  4.1700000000000D+00  0.0000000000000D+00  0.0000000000000D+00
   419  4.1800000000000D+00  0.0000000000000D+00  0.0000000000000D+00
   420  4.1900000000000D+00  0.0000000000000D+00  0.0000000000000D+00
   421  4.2000000000000D+00  0.0000000000000D+00  0.0000000000000D+00
   422  4.2100000000000D+00  0.0000000000000D+00  0.0000000000000D+00