Co    ONCVPSP-3.3.1  r_core=   2.18438   2.08260   2.21059
     27.0000     17.0000      210905    zatom,zion,pspd
     8 -116133   2     4   600     0    pspcod,pspxc,lmax,lloc,mmax,r2well
  5.99000000  0.00000000  0.00000000    rchrg fchrg qchrg
     2     2     2     0    nproj
     3     1           extension_switch
     4     3     0    nprojso
   0                        -3.0816494270219D+00 -1.4281179711890D-01
     1  0.0000000000000D+00 -1.2788659020657D-12  3.5606517734266D-12
     2  1.0000000000000D-02  3.8971634285360D-02 -2.3264063765431D-02
     3  2.0000000000000D-02  7.7905285396610D-02 -4.6488584663547D-02
     4  3.0000000000000D-02  1.1676302429969D-01 -6.9634072628155D-02
     5  4.0000000000000D-02  1.5550703013483D-01 -9.2661143076298D-02
     6  5.0000000000000D-02  1.9409964403950D-01 -1.1553056935322D-01
     7  6.0000000000000D-02  2.3250342265520D-01 -1.3820333482391D-01
     8  7.0000000000000D-02  2.7068119121424D-01 -1.6064068449746D-01
     9  8.0000000000000D-02  3.0859609610390D-01 -1.8280417607426D-01
    10  9.0000000000000D-02  3.4621165680692D-01 -2.0465573031012D-01
    11  1.0000000000000D-01  3.8349181711908D-01 -2.2615768059659D-01
    12  1.1000000000000D-01  4.2040099554716D-01 -2.4727282166282D-01
    13  1.2000000000000D-01  4.5690413479236D-01 -2.6796445731057D-01
    14  1.3000000000000D-01  4.9296675022771D-01 -2.8819644710120D-01
    15  1.4000000000000D-01  5.2855497728043D-01 -3.0793325192132D-01
    16  1.5000000000000D-01  5.6363561763365D-01 -3.2713997836177D-01
    17  1.6000000000000D-01  5.9817618416535D-01 -3.4578242185348D-01
    18  1.7000000000000D-01  6.3214494454595D-01 -3.6382710851229D-01
    19  1.8000000000000D-01  6.6551096341985D-01 -3.8124133565451D-01
    20  1.9000000000000D-01  6.9824414310029D-01 -3.9799321095378D-01
    21  2.0000000000000D-01  7.3031526271104D-01 -4.1405169021978D-01
    22  2.1000000000000D-01  7.6169601571269D-01 -4.2938661378808D-01
    23  2.2000000000000D-01  7.9235904575598D-01 -4.4396874152043D-01
    24  2.3000000000000D-01  8.2227798080872D-01 -4.5776978642317D-01
    25  2.4000000000000D-01  8.5142746550799D-01 -4.7076244690066D-01
    26  2.5000000000000D-01  8.7978319169361D-01 -4.8292043766885D-01
    27  2.6000000000000D-01  9.0732192708363D-01 -4.9421851936222D-01
    28  2.7000000000000D-01  9.3402154205760D-01 -5.0463252687426D-01
    29  2.8000000000000D-01  9.5986103451773D-01 -5.1413939647893D-01
    30  2.9000000000000D-01  9.8482055280309D-01 -5.2271719178619D-01
    31  3.0000000000000D-01  1.0088814166365D+00 -5.3034512859019D-01
    32  3.1000000000000D-01  1.0320261360884D+00 -5.3700359867277D-01
    33  3.2000000000000D-01  1.0542384285466D+00 -5.4267419262871D-01
    34  3.3000000000000D-01  1.0755032336857D+00 -5.4733972178170D-01
    35  3.4000000000000D-01  1.0958067264326D+00 -5.5098423926130D-01
    36  3.5000000000000D-01  1.1151363279315D+00 -5.5359306031183D-01
    37  3.6000000000000D-01  1.1334807145139D+00 -5.5515278190347D-01
    38  3.7000000000000D-01  1.1508298246828D+00 -5.5565130171440D-01
    39  3.8000000000000D-01  1.1671748641263D+00 -5.5507783654960D-01
    40  3.9000000000000D-01  1.1825083087763D+00 -5.5342294025875D-01
    41  4.0000000000000D-01  1.1968239059350D+00 -5.5067852120988D-01
    42  4.1000000000000D-01  1.2101166734912D+00 -5.4683785937040D-01
    43  4.2000000000000D-01  1.2223828972552D+00 -5.4189562303910D-01
    44  4.3000000000000D-01  1.2336201264415D+00 -5.3584788526563D-01
    45  4.4000000000000D-01  1.2438271673321D+00 -5.2869213998394D-01
    46  4.5000000000000D-01  1.2530040751548D+00 -5.2042731787733D-01
    47  4.6000000000000D-01  1.2611521442152D+00 -5.1105380198119D-01
    48  4.7000000000000D-01  1.2682738963206D+00 -5.0057344301833D-01
    49  4.8000000000000D-01  1.2743730675368D+00 -4.8898957444997D-01
    50  4.9000000000000D-01  1.2794545933219D+00 -4.7630702721195D-01
    51  5.0000000000000D-01  1.2835245920797D+00 -4.6253214409337D-01
    52  5.1000000000000D-01  1.2865903471797D+00 -4.4767279370063D-01
    53  5.2000000000000D-01  1.2886602874887D+00 -4.3173838393634D-01
    54  5.3000000000000D-01  1.2897439664628D+00 -4.1473987490844D-01
    55  5.4000000000000D-01  1.2898520398469D+00 -3.9668979117077D-01
    56  5.5000000000000D-01  1.2889962420309D+00 -3.7760223318273D-01
    57  5.6000000000000D-01  1.2871893611114D+00 -3.5749288786161D-01
    58  5.7000000000000D-01  1.2844452127091D+00 -3.3637903808815D-01
    59  5.8000000000000D-01  1.2807786125893D+00 -3.1427957101270D-01
    60  5.9000000000000D-01  1.2762053481382D+00 -2.9121498499810D-01
    61  6.0000000000000D-01  1.2707421487414D+00 -2.6720739502248D-01
    62  6.1000000000000D-01  1.2644066551165D+00 -2.4228053635623D-01
    63  6.2000000000000D-01  1.2572173876470D+00 -2.1645976631699D-01
    64  6.3000000000000D-01  1.2491937137679D+00 -1.8977206389832D-01
    65  6.4000000000000D-01  1.2403558144508D+00 -1.6224602706099D-01
    66  6.5000000000000D-01  1.2307246498376D+00 -1.3391186746984D-01
    67  6.6000000000000D-01  1.2203219240691D+00 -1.0480140245516D-01
    68  6.7000000000000D-01  1.2091700493587D+00 -7.4948043974826D-02
    69  6.8000000000000D-01  1.1972921093566D+00 -4.4386784352792D-02
    70  6.9000000000000D-01  1.1847118218514D+00 -1.3154178570194D-02
    71  7.0000000000000D-01  1.1714535008578D+00  1.8711677111874D-02
    72  7.1000000000000D-01  1.1575420181348D+00  5.1171170414237D-02
    73  7.2000000000000D-01  1.1430027641824D+00  8.4183202395915D-02
    74  7.3000000000000D-01  1.1278616087616D+00  1.1770522110594D-01
    75  7.4000000000000D-01  1.1121448609858D+00  1.5169325972144D-01
    76  7.5000000000000D-01  1.0958792290284D+00  1.8610197935014D-01
    77  7.6000000000000D-01  1.0790917794938D+00  2.2088471666060D-01
    78  7.7000000000000D-01  1.0618098964986D+00  2.5599353648739D-01
    79  7.8000000000000D-01  1.0440612405099D+00  2.9137928953941D-01
    80  7.9000000000000D-01  1.0258737069880D+00  3.2699167531974D-01
    81  8.0000000000000D-01  1.0072753848818D+00  3.6277931034253D-01
    82  8.1000000000000D-01  9.8829451502580D-01  3.9868980170889D-01
    83  8.2000000000000D-01  9.6895944848651D-01  4.3466982607804D-01
    84  8.3000000000000D-01  9.4929860491055D-01  4.7066521404251D-01
    85  8.4000000000000D-01  9.2934043092342D-01  5.0662103988788D-01
    86  8.5000000000000D-01  9.0911335863181D-01  5.4248171668741D-01
    87  8.6000000000000D-01  8.8864576428178D-01  5.7819109665094D-01
    88  8.7000000000000D-01  8.6796592712692D-01  6.1369257661534D-01
    89  8.8000000000000D-01  8.4710198856117D-01  6.4892920853112D-01
    90  8.9000000000000D-01  8.2608191157248D-01  6.8384381476599D-01
    91  9.0000000000000D-01  8.0493344057422D-01  7.1837910801289D-01
    92  9.1000000000000D-01  7.8368406167282D-01  7.5247781555508D-01
    93  9.2000000000000D-01  7.6236096343068D-01  7.8608280760763D-01
    94  9.3000000000000D-01  7.4099099818503D-01  8.1913722942017D-01
    95  9.4000000000000D-01  7.1960064398388D-01  8.5158463679259D-01
    96  9.5000000000000D-01  6.9821596720167D-01  8.8336913462241D-01
    97  9.6000000000000D-01  6.7686258589769D-01  9.1443551807084D-01
    98  9.7000000000000D-01  6.5556563398140D-01  9.4472941590355D-01
    99  9.8000000000000D-01  6.3434972624918D-01  9.7419743553295D-01
   100  9.9000000000000D-01  6.1323892435789D-01  1.0027873092606D+00
   101  1.0000000000000D+00  5.9225670380061D-01  1.0304480411933D+00
   102  1.0100000000000D+00  5.7142592195032D-01  1.0571300542804D+00
   103  1.0200000000000D+00  5.5076878723739D-01  1.0827853369003D+00
   104  1.0300000000000D+00  5.3030682952620D-01  1.1073675884042D+00
   105  1.0400000000000D+00  5.1006087175616D-01  1.1308323630062D+00
   106  1.0500000000000D+00  4.9005100291142D-01  1.1531372113991D+00
   107  1.0600000000000D+00  4.7029655238292D-01  1.1742418194607D+00
   108  1.0700000000000D+00  4.5081606578491D-01  1.1941081434091D+00
   109  1.0800000000000D+00  4.3162728228712D-01  1.2127005407618D+00
   110  1.0900000000000D+00  4.1274711352134D-01  1.2299858964501D+00
   111  1.1000000000000D+00  3.9419162411972D-01  1.2459337434461D+00
   112  1.1100000000000D+00  3.7597601393962D-01  1.2605163772620D+00
   113  1.1200000000000D+00  3.5811460202695D-01  1.2737089636935D+00
   114  1.1300000000000D+00  3.4062081236735D-01  1.2854896391914D+00
   115  1.1400000000000D+00  3.2350716147067D-01  1.2958396032670D+00
   116  1.1500000000000D+00  3.0678524783196D-01  1.3047432023466D+00
   117  1.1600000000000D+00  2.9046574330669D-01  1.3121880045298D+00
   118  1.1700000000000D+00  2.7455838643484D-01  1.3181648647230D+00
   119  1.1800000000000D+00  2.5907197774332D-01  1.3226679796618D+00
   120  1.1900000000000D+00  2.4401437705270D-01  1.3256949323561D+00
   121  1.2000000000000D+00  2.2939250280773D-01  1.3272467255464D+00
   122  1.2100000000000D+00  2.1521233344585D-01  1.3273278038015D+00
   123  1.2200000000000D+00  2.0147891081441D-01  1.3259460639145D+00
   124  1.2300000000000D+00  1.8819634563956D-01  1.3231128533216D+00
   125  1.2400000000000D+00  1.7536782504365D-01  1.3188429563180D+00
   126  1.2500000000000D+00  1.6299562210347D-01  1.3131545678892D+00
   127  1.2600000000000D+00  1.5108110743539D-01  1.3060692550261D+00
   128  1.2700000000000D+00  1.3962476278407D-01  1.2976119054802D+00
   129  1.2800000000000D+00  1.2862619658824D-01  1.2878106639460D+00
   130  1.2900000000000D+00  1.1808416149078D-01  1.2766968557094D+00
   131  1.3000000000000D+00  1.0799657374892D-01  1.2643048979159D+00
   132  1.3100000000000D+00  9.8360534498988D-02  1.2506721986169D+00
   133  1.3200000000000D+00  8.9172352823059D-02  1.2358390438277D+00
   134  1.3300000000000D+00  8.0427570552051D-02  1.2198484729487D+00
   135  1.3400000000000D+00  7.2120988742758D-02  1.2027461428761D+00
   136  1.3500000000000D+00  6.4246695753968D-02  1.1845801812460D+00
   137  1.3600000000000D+00  5.6798096837399D-02  1.1654010293533D+00
   138  1.3700000000000D+00  4.9767945165817D-02  1.1452612752182D+00
   139  1.3800000000000D+00  4.3148374199067D-02  1.1242154774883D+00
   140  1.3900000000000D+00  3.6930931293036D-02  1.1023199808287D+00
   141  1.4000000000000D+00  3.1106612452916D-02  1.0796327234807D+00
   142  1.4100000000000D+00  2.5665898115234D-02  1.0562130378514D+00
   143  1.4200000000000D+00  2.0598789855014D-02  1.0321214448714D+00
   144  1.4300000000000D+00  1.5894847896043D-02  1.0074194430485D+00
   145  1.4400000000000D+00  1.1543229305119D-02  9.8216929312248D-01
   146  1.4500000000000D+00  7.5327267503158D-03  9.5643379922741D-01
   147  1.4600000000000D+00  3.8518076905528D-03  9.3027608761788D-01
   148  1.4700000000000D+00  4.8865387464657D-04  9.0375938388760D-01
   149  1.4800000000000D+00 -2.5687989867390D-03  8.7694678978481D-01
   150  1.4900000000000D+00 -5.3328215040828D-03  8.4990106063084D-01
   151  1.5000000000000D+00 -7.8158509829120D-03  8.2268438443573D-01
   152  1.5100000000000D+00 -1.0030452018338D-02  7.9535816376693D-01
   153  1.5200000000000D+00 -1.1989277448091D-02  7.6798280147501D-01
   154  1.5300000000000D+00 -1.3705029788523D-02  7.4061749131014D-01
   155  1.5400000000000D+00 -1.5190423293587D-02  7.1332001455624D-01
   156  1.5500000000000D+00 -1.6458146755011D-02  6.8614654366873D-01
   157  1.5600000000000D+00 -1.7520827178181D-02  6.5915145401029D-01
   158  1.5700000000000D+00 -1.8390994450995D-02  6.3238714465840D-01
   159  1.5800000000000D+00 -1.9081047124468D-02  6.0590386925642D-01
   160  1.5900000000000D+00 -1.9603219426518D-02  5.7974957791598D-01
   161  1.6000000000000D+00 -1.9969549602842D-02  5.5396977093196D-01
   162  1.6100000000000D+00 -2.0191849714733D-02  5.2860736539264D-01
   163  1.6200000000000D+00 -2.0281676954980D-02  5.0370257515839D-01
   164  1.6300000000000D+00 -2.0250306623081D-02  4.7929280539624D-01
   165  1.6400000000000D+00 -2.0108706782159D-02  4.5541256179517D-01
   166  1.6500000000000D+00 -1.9867514751438D-02  4.3209337576836D-01
   167  1.6600000000000D+00 -1.9537015414148D-02  4.0936374537910D-01
   168  1.6700000000000D+00 -1.9127121506780D-02  3.8724909341261D-01
   169  1.6800000000000D+00 -1.8647355825710D-02  3.6577174192574D-01
   170  1.6900000000000D+00 -1.8106835526572D-02  3.4495090479020D-01
   171  1.7000000000000D+00 -1.7514258409983D-02  3.2480269716692D-01
   172  1.7100000000000D+00 -1.6877891373582D-02  3.0534016347595D-01
   173  1.7200000000000D+00 -1.6205560886133D-02  2.8657332244564D-01
   174  1.7300000000000D+00 -1.5504645660667D-02  2.6850923078369D-01
   175  1.7400000000000D+00 -1.4782071352746D-02  2.5115206377521D-01
   176  1.7500000000000D+00 -1.4044307447186D-02  2.3450321422894D-01
   177  1.7600000000000D+00 -1.3297366141803D-02  2.1856140791098D-01
   178  1.7700000000000D+00 -1.2546803364026D-02  2.0332283663554D-01
   179  1.7800000000000D+00 -1.1797721727348D-02  1.8878130713576D-01
   180  1.7900000000000D+00 -1.1054775519487D-02  1.7492840647683D-01
   181  1.8000000000000D+00 -1.0322177546335D-02  1.6175368229394D-01
   182  1.8100000000000D+00 -9.6037078620905D-03  1.4924483804617D-01
   183  1.8200000000000D+00 -8.9027242457629D-03  1.3738794190504D-01
   184  1.8300000000000D+00 -8.2221743778774D-03  1.2616764875874D-01
   185  1.8400000000000D+00 -7.5646096286033D-03  1.1556743442344D-01
   186  1.8500000000000D+00 -6.9322003269778D-03  1.0556984076710D-01
   187  1.8600000000000D+00 -6.3267524785799D-03  9.6156731350404D-02
   188  1.8700000000000D+00 -5.7497257235936D-03  8.7309555584956D-02
   189  1.8800000000000D+00 -5.2022526917278D-03  7.9009632056260D-02
   190  1.8900000000000D+00 -4.6851585499724D-03  7.1238379399233D-02
   191  1.9000000000000D+00 -4.1989840983215D-03  6.3977736578813D-02
   192  1.9100000000000D+00 -3.7440038007415D-03  5.7210171010795D-02
   193  1.9200000000000D+00 -3.3202504587590D-03  5.0919105724350D-02
   194  1.9300000000000D+00 -2.9275451242530D-03  4.5089699281896D-02
   195  1.9400000000000D+00 -2.5655169814065D-03  3.9708869896325D-02
   196  1.9500000000000D+00 -2.2336061735510D-03  3.4764050397446D-02
   197  1.9600000000000D+00 -1.9310746197889D-03  3.0242495989192D-02
   198  1.9700000000000D+00 -1.6570169770557D-03  2.6130730747082D-02
   199  1.9800000000000D+00 -1.4103585714222D-03  2.2413009194600D-02
   200  1.9900000000000D+00 -1.1898816793474D-03  1.9071862652736D-02
   201  2.0000000000000D+00 -9.9425109523088D-04  1.6088629639312D-02
   202  2.0100000000000D+00 -8.2203636441240D-04  1.3443759689165D-02
   203  2.0200000000000D+00 -6.7172910467903D-04  1.1116769158261D-02
   204  2.0300000000000D+00 -5.4176509945479D-04  9.0865929263794D-03
   205  2.0400000000000D+00 -4.3054289159754D-04  7.3317280618396D-03
   206  2.0500000000000D+00 -3.3644263724515D-04  5.8304392356032D-03
   207  2.0600000000000D+00 -2.5784376387849D-04  4.5609411357771D-03
   208  2.0700000000000D+00 -1.9314162898143D-04  3.5015707829517D-03
   209  2.0800000000000D+00 -1.4076316433638D-04  2.6309494650279D-03
   210  2.0900000000000D+00 -9.9181132194712D-05  1.9281307477033D-03
   211  2.1000000000000D+00 -6.6927348160152D-05  1.3727377742163D-03
   212  2.1100000000000D+00 -4.2601462426896D-05  9.4509977594651D-04
   213  2.1200000000000D+00 -2.4885193848787D-05  6.2634029268674D-04
   214  2.1300000000000D+00 -1.2571110150329D-05  3.9837015504088D-04
   215  2.1400000000000D+00 -4.5734277292244D-06  2.4358444367667D-04
   216  2.1500000000000D+00  2.3359470593963D-07  1.4713237764326D-04
   217  2.1600000000000D+00  2.8744411717607D-06  9.5467815527116D-05
   218  2.1700000000000D+00  4.1702789774921D-06  7.5489354172182D-05
   219  2.1800000000000D+00  4.2723720462228D-06  6.6147581945796D-05
   220  2.1900000000000D+00  3.2263566894506D-06  4.9637869784481D-05
   221  2.2000000000000D+00  1.5495000263890D-06  2.4414153522891D-05
   222  2.2100000000000D+00  6.8375185546106D-08  1.1148285062037D-06
   223  2.2200000000000D+00 -4.1459235140753D-07 -6.1597766795416D-06
   224  2.2300000000000D+00 -2.6804539357009D-07 -4.0045846880842D-06
   225  2.2400000000000D+00  3.9969270747188D-08  5.4971730754880D-07
   226  2.2500000000000D+00  9.9296853046676D-08  1.3567095324931D-06
   227  2.2600000000000D+00  4.0242128789046D-08  5.4689731181158D-07
   228  2.2700000000000D+00 -7.9575833445061D-09 -1.2261165030736D-07
   229  2.2800000000000D+00 -1.0595555523515D-08 -1.6325792548039D-07
   230  2.2900000000000D+00 -1.3891404569633D-09 -2.1404086713660D-08
   231  2.3000000000000D+00  0.0000000000000D+00  0.0000000000000D+00
   232  2.3100000000000D+00  0.0000000000000D+00  0.0000000000000D+00
   233  2.3200000000000D+00  0.0000000000000D+00  0.0000000000000D+00
   234  2.3300000000000D+00  0.0000000000000D+00  0.0000000000000D+00
   235  2.3400000000000D+00  0.0000000000000D+00  0.0000000000000D+00
   236  2.3500000000000D+00  0.0000000000000D+00  0.0000000000000D+00
   237  2.3600000000000D+00  0.0000000000000D+00  0.0000000000000D+00
   238  2.3700000000000D+00  0.0000000000000D+00  0.0000000000000D+00
   239  2.3800000000000D+00  0.0000000000000D+00  0.0000000000000D+00
   240  2.3900000000000D+00  0.0000000000000D+00  0.0000000000000D+00
   241  2.4000000000000D+00  0.0000000000000D+00  0.0000000000000D+00
   242  2.4100000000000D+00  0.0000000000000D+00  0.0000000000000D+00
   243  2.4200000000000D+00  0.0000000000000D+00  0.0000000000000D+00
   244  2.4300000000000D+00  0.0000000000000D+00  0.0000000000000D+00
   245  2.4400000000000D+00  0.0000000000000D+00  0.0000000000000D+00
   246  2.4500000000000D+00  0.0000000000000D+00  0.0000000000000D+00
   247  2.4600000000000D+00  0.0000000000000D+00  0.0000000000000D+00
   248  2.4700000000000D+00  0.0000000000000D+00  0.0000000000000D+00
   249  2.4800000000000D+00  0.0000000000000D+00  0.0000000000000D+00
   250  2.4900000000000D+00  0.0000000000000D+00  0.0000000000000D+00
   251  2.5000000000000D+00  0.0000000000000D+00  0.0000000000000D+00
   252  2.5100000000000D+00  0.0000000000000D+00  0.0000000000000D+00
   253  2.5200000000000D+00  0.0000000000000D+00  0.0000000000000D+00
   254  2.5300000000000D+00  0.0000000000000D+00  0.0000000000000D+00
   255  2.5400000000000D+00  0.0000000000000D+00  0.0000000000000D+00
   256  2.5500000000000D+00  0.0000000000000D+00  0.0000000000000D+00
   257  2.5600000000000D+00  0.0000000000000D+00  0.0000000000000D+00
   258  2.5700000000000D+00  0.0000000000000D+00  0.0000000000000D+00
   259  2.5800000000000D+00  0.0000000000000D+00  0.0000000000000D+00
   260  2.5900000000000D+00  0.0000000000000D+00  0.0000000000000D+00
   261  2.6000000000000D+00  0.0000000000000D+00  0.0000000000000D+00
   262  2.6100000000000D+00  0.0000000000000D+00  0.0000000000000D+00
   263  2.6200000000000D+00  0.0000000000000D+00  0.0000000000000D+00
   264  2.6300000000000D+00  0.0000000000000D+00  0.0000000000000D+00
   265  2.6400000000000D+00  0.0000000000000D+00  0.0000000000000D+00
   266  2.6500000000000D+00  0.0000000000000D+00  0.0000000000000D+00
   267  2.6600000000000D+00  0.0000000000000D+00  0.0000000000000D+00
   268  2.6700000000000D+00  0.0000000000000D+00  0.0000000000000D+00
   269  2.6800000000000D+00  0.0000000000000D+00  0.0000000000000D+00
   270  2.6900000000000D+00  0.0000000000000D+00  0.0000000000000D+00
   271  2.7000000000000D+00  0.0000000000000D+00  0.0000000000000D+00
   272  2.7100000000000D+00  0.0000000000000D+00  0.0000000000000D+00
   273  2.7200000000000D+00  0.0000000000000D+00  0.0000000000000D+00
   274  2.7300000000000D+00  0.0000000000000D+00  0.0000000000000D+00
   275  2.7400000000000D+00  0.0000000000000D+00  0.0000000000000D+00
   276  2.7500000000000D+00  0.0000000000000D+00  0.0000000000000D+00
   277  2.7600000000000D+00  0.0000000000000D+00  0.0000000000000D+00
   278  2.7700000000000D+00  0.0000000000000D+00  0.0000000000000D+00
   279  2.7800000000000D+00  0.0000000000000D+00  0.0000000000000D+00
   280  2.7900000000000D+00  0.0000000000000D+00  0.0000000000000D+00
   281  2.8000000000000D+00  0.0000000000000D+00  0.0000000000000D+00
   282  2.8100000000000D+00  0.0000000000000D+00  0.0000000000000D+00
   283  2.8200000000000D+00  0.0000000000000D+00  0.0000000000000D+00
   284  2.8300000000000D+00  0.0000000000000D+00  0.0000000000000D+00
   285  2.8400000000000D+00  0.0000000000000D+00  0.0000000000000D+00
   286  2.8500000000000D+00  0.0000000000000D+00  0.0000000000000D+00
   287  2.8600000000000D+00  0.0000000000000D+00  0.0000000000000D+00
   288  2.8700000000000D+00  0.0000000000000D+00  0.0000000000000D+00
   289  2.8800000000000D+00  0.0000000000000D+00  0.0000000000000D+00
   290  2.8900000000000D+00  0.0000000000000D+00  0.0000000000000D+00
   291  2.9000000000000D+00  0.0000000000000D+00  0.0000000000000D+00
   292  2.9100000000000D+00  0.0000000000000D+00  0.0000000000000D+00
   293  2.9200000000000D+00  0.0000000000000D+00  0.0000000000000D+00
   294  2.9300000000000D+00  0.0000000000000D+00  0.0000000000000D+00
   295  2.9400000000000D+00  0.0000000000000D+00  0.0000000000000D+00
   296  2.9500000000000D+00  0.0000000000000D+00  0.0000000000000D+00
   297  2.9600000000000D+00  0.0000000000000D+00  0.0000000000000D+00
   298  2.9700000000000D+00  0.0000000000000D+00  0.0000000000000D+00
   299  2.9800000000000D+00  0.0000000000000D+00  0.0000000000000D+00
   300  2.9900000000000D+00  0.0000000000000D+00  0.0000000000000D+00
   301  3.0000000000000D+00  0.0000000000000D+00  0.0000000000000D+00
   302  3.0100000000000D+00  0.0000000000000D+00  0.0000000000000D+00
   303  3.0200000000000D+00  0.0000000000000D+00  0.0000000000000D+00
   304  3.0300000000000D+00  0.0000000000000D+00  0.0000000000000D+00
   305  3.0400000000000D+00  0.0000000000000D+00  0.0000000000000D+00
   306  3.0500000000000D+00  0.0000000000000D+00  0.0000000000000D+00
   307  3.0600000000000D+00  0.0000000000000D+00  0.0000000000000D+00
   308  3.0700000000000D+00  0.0000000000000D+00  0.0000000000000D+00
   309  3.0800000000000D+00  0.0000000000000D+00  0.0000000000000D+00
   310  3.0900000000000D+00  0.0000000000000D+00  0.0000000000000D+00
   311  3.1000000000000D+00  0.0000000000000D+00  0.0000000000000D+00
   312  3.1100000000000D+00  0.0000000000000D+00  0.0000000000000D+00
   313  3.1200000000000D+00  0.0000000000000D+00  0.0000000000000D+00
   314  3.1300000000000D+00  0.0000000000000D+00  0.0000000000000D+00
   315  3.1400000000000D+00  0.0000000000000D+00  0.0000000000000D+00
   316  3.1500000000000D+00  0.0000000000000D+00  0.0000000000000D+00
   317  3.1600000000000D+00  0.0000000000000D+00  0.0000000000000D+00
   318  3.1700000000000D+00  0.0000000000000D+00  0.0000000000000D+00
   319  3.1800000000000D+00  0.0000000000000D+00  0.0000000000000D+00
   320  3.1900000000000D+00  0.0000000000000D+00  0.0000000000000D+00
   321  3.2000000000000D+00  0.0000000000000D+00  0.0000000000000D+00
   322  3.2100000000000D+00  0.0000000000000D+00  0.0000000000000D+00
   323  3.2200000000000D+00  0.0000000000000D+00  0.0000000000000D+00
   324  3.2300000000000D+00  0.0000000000000D+00  0.0000000000000D+00
   325  3.2400000000000D+00  0.0000000000000D+00  0.0000000000000D+00
   326  3.2500000000000D+00  0.0000000000000D+00  0.0000000000000D+00
   327  3.2600000000000D+00  0.0000000000000D+00  0.0000000000000D+00
   328  3.2700000000000D+00  0.0000000000000D+00  0.0000000000000D+00
   329  3.2800000000000D+00  0.0000000000000D+00  0.0000000000000D+00
   330  3.2900000000000D+00  0.0000000000000D+00  0.0000000000000D+00
   331  3.3000000000000D+00  0.0000000000000D+00  0.0000000000000D+00
   332  3.3100000000000D+00  0.0000000000000D+00  0.0000000000000D+00
   333  3.3200000000000D+00  0.0000000000000D+00  0.0000000000000D+00
   334  3.3300000000000D+00  0.0000000000000D+00  0.0000000000000D+00
   335  3.3400000000000D+00  0.0000000000000D+00  0.0000000000000D+00
   336  3.3500000000000D+00  0.0000000000000D+00  0.0000000000000D+00
   337  3.3600000000000D+00  0.0000000000000D+00  0.0000000000000D+00
   338  3.3700000000000D+00  0.0000000000000D+00  0.0000000000000D+00
   339  3.3800000000000D+00  0.0000000000000D+00  0.0000000000000D+00
   340  3.3900000000000D+00  0.0000000000000D+00  0.0000000000000D+00
   341  3.4000000000000D+00  0.0000000000000D+00  0.0000000000000D+00
   342  3.4100000000000D+00  0.0000000000000D+00  0.0000000000000D+00
   343  3.4200000000000D+00  0.0000000000000D+00  0.0000000000000D+00
   344  3.4300000000000D+00  0.0000000000000D+00  0.0000000000000D+00
   345  3.4400000000000D+00  0.0000000000000D+00  0.0000000000000D+00
   346  3.4500000000000D+00  0.0000000000000D+00  0.0000000000000D+00
   347  3.4600000000000D+00  0.0000000000000D+00  0.0000000000000D+00
   348  3.4700000000000D+00  0.0000000000000D+00  0.0000000000000D+00
   349  3.4800000000000D+00  0.0000000000000D+00  0.0000000000000D+00
   350  3.4900000000000D+00  0.0000000000000D+00  0.0000000000000D+00
   351  3.5000000000000D+00  0.0000000000000D+00  0.0000000000000D+00
   352  3.5100000000000D+00  0.0000000000000D+00  0.0000000000000D+00
   353  3.5200000000000D+00  0.0000000000000D+00  0.0000000000000D+00
   354  3.5300000000000D+00  0.0000000000000D+00  0.0000000000000D+00
   355  3.5400000000000D+00  0.0000000000000D+00  0.0000000000000D+00
   356  3.5500000000000D+00  0.0000000000000D+00  0.0000000000000D+00
   357  3.5600000000000D+00  0.0000000000000D+00  0.0000000000000D+00
   358  3.5700000000000D+00  0.0000000000000D+00  0.0000000000000D+00
   359  3.5800000000000D+00  0.0000000000000D+00  0.0000000000000D+00
   360  3.5900000000000D+00  0.0000000000000D+00  0.0000000000000D+00
   361  3.6000000000000D+00  0.0000000000000D+00  0.0000000000000D+00
   362  3.6100000000000D+00  0.0000000000000D+00  0.0000000000000D+00
   363  3.6200000000000D+00  0.0000000000000D+00  0.0000000000000D+00
   364  3.6300000000000D+00  0.0000000000000D+00  0.0000000000000D+00
   365  3.6400000000000D+00  0.0000000000000D+00  0.0000000000000D+00
   366  3.6500000000000D+00  0.0000000000000D+00  0.0000000000000D+00
   367  3.6600000000000D+00  0.0000000000000D+00  0.0000000000000D+00
   368  3.6700000000000D+00  0.0000000000000D+00  0.0000000000000D+00
   369  3.6800000000000D+00  0.0000000000000D+00  0.0000000000000D+00
   370  3.6900000000000D+00  0.0000000000000D+00  0.0000000000000D+00
   371  3.7000000000000D+00  0.0000000000000D+00  0.0000000000000D+00
   372  3.7100000000000D+00  0.0000000000000D+00  0.0000000000000D+00
   373  3.7200000000000D+00  0.0000000000000D+00  0.0000000000000D+00
   374  3.7300000000000D+00  0.0000000000000D+00  0.0000000000000D+00
   375  3.7400000000000D+00  0.0000000000000D+00  0.0000000000000D+00
   376  3.7500000000000D+00  0.0000000000000D+00  0.0000000000000D+00
   377  3.7600000000000D+00  0.0000000000000D+00  0.0000000000000D+00
   378  3.7700000000000D+00  0.0000000000000D+00  0.0000000000000D+00
   379  3.7800000000000D+00  0.0000000000000D+00  0.0000000000000D+00
   380  3.7900000000000D+00  0.0000000000000D+00  0.0000000000000D+00
   381  3.8000000000000D+00  0.0000000000000D+00  0.0000000000000D+00
   382  3.8100000000000D+00  0.0000000000000D+00  0.0000000000000D+00
   383  3.8200000000000D+00  0.0000000000000D+00  0.0000000000000D+00
   384  3.8300000000000D+00  0.0000000000000D+00  0.0000000000000D+00
   385  3.8400000000000D+00  0.0000000000000D+00  0.0000000000000D+00
   386  3.8500000000000D+00  0.0000000000000D+00  0.0000000000000D+00
   387  3.8600000000000D+00  0.0000000000000D+00  0.0000000000000D+00
   388  3.8700000000000D+00  0.0000000000000D+00  0.0000000000000D+00
   389  3.8800000000000D+00  0.0000000000000D+00  0.0000000000000D+00
   390  3.8900000000000D+00  0.0000000000000D+00  0.0000000000000D+00
   391  3.9000000000000D+00  0.0000000000000D+00  0.0000000000000D+00
   392  3.9100000000000D+00  0.0000000000000D+00  0.0000000000000D+00
   393  3.9200000000000D+00  0.0000000000000D+00  0.0000000000000D+00
   394  3.9300000000000D+00  0.0000000000000D+00  0.0000000000000D+00
   395  3.9400000000000D+00  0.0000000000000D+00  0.0000000000000D+00
   396  3.9500000000000D+00  0.0000000000000D+00  0.0000000000000D+00
   397  3.9600000000000D+00  0.0000000000000D+00  0.0000000000000D+00
   398  3.9700000000000D+00  0.0000000000000D+00  0.0000000000000D+00
   399  3.9800000000000D+00  0.0000000000000D+00  0.0000000000000D+00
   400  3.9900000000000D+00  0.0000000000000D+00  0.0000000000000D+00
   401  4.0000000000000D+00  0.0000000000000D+00  0.0000000000000D+00
   402  4.0100000000000D+00  0.0000000000000D+00  0.0000000000000D+00
   403  4.0200000000000D+00  0.0000000000000D+00  0.0000000000000D+00
   404  4.0300000000000D+00  0.0000000000000D+00  0.0000000000000D+00
   405  4.0400000000000D+00  0.0000000000000D+00  0.0000000000000D+00
   406  4.0500000000000D+00  0.0000000000000D+00  0.0000000000000D+00
   407  4.0600000000000D+00  0.0000000000000D+00  0.0000000000000D+00
   408  4.0700000000000D+00  0.0000000000000D+00  0.0000000000000D+00
   409  4.0800000000000D+00  0.0000000000000D+00  0.0000000000000D+00
   410  4.0900000000000D+00  0.0000000000000D+00  0.0000000000000D+00
   411  4.1000000000000D+00  0.0000000000000D+00  0.0000000000000D+00
   412  4.1100000000000D+00  0.0000000000000D+00  0.0000000000000D+00
   413  4.1200000000000D+00  0.0000000000000D+00  0.0000000000000D+00
   414  4.1300000000000D+00  0.0000000000000D+00  0.0000000000000D+00
   415  4.1400000000000D+00  0.0000000000000D+00  0.0000000000000D+00
   416  4.1500000000000D+00  0.0000000000000D+00  0.0000000000000D+00
   417  4.1600000000000D+00  0.0000000000000D+00  0.0000000000000D+00
   418  4.1700000000000D+00  0.0000000000000D+00  0.0000000000000D+00
   419  4.1800000000000D+00  0.0000000000000D+00  0.0000000000000D+00
   420  4.1900000000000D+00  0.0000000000000D+00  0.0000000000000D+00
   421  4.2000000000000D+00  0.0000000000000D+00  0.0000000000000D+00
   422  4.2100000000000D+00  0.0000000000000D+00  0.0000000000000D+00