Cr    ONCVPSP-3.3.1  r_core=   2.20727   2.37104   2.37104
     24.0000     14.0000      210905    zatom,zion,pspd
     8 -116133   2     4   600     0    pspcod,pspxc,lmax,lloc,mmax,r2well
  5.99000000  0.00000000  0.00000000    rchrg fchrg qchrg
     2     2     2     0     0    nproj
     1     1           extension_switch
   0                        -1.6370286245420D+00  1.2598860397858D+00
     1  0.0000000000000D+00 -2.2610524563760D-12 -3.8191616535954D-11
     2  1.0000000000000D-02  2.8637080592796D-02 -5.0323119184078D-02
     3  2.0000000000000D-02  5.7256187915640D-02 -1.0056321402727D-01
     4  3.0000000000000D-02  8.5839370073159D-02 -1.5063727039211D-01
     5  4.0000000000000D-02  1.1436871783410D-01 -2.0046229565634D-01
     6  5.0000000000000D-02  1.4282638575138D-01 -2.4995533223186D-01
     7  6.0000000000000D-02  1.7119461302930D-01 -2.9903347436992D-01
     8  7.0000000000000D-02  1.9945574405635D-01 -3.4761388930341D-01
     9  8.0000000000000D-02  2.2759224852425D-01 -3.9561384373813D-01
    10  9.0000000000000D-02  2.5558674105659D-01 -4.4295073665838D-01
    11  1.0000000000000D-01  2.8342200027399D-01 -4.8954213935584D-01
    12  1.1000000000000D-01  3.1108098722610D-01 -5.3530584352660D-01
    13  1.2000000000000D-01  3.3854686312557D-01 -5.8015991820883D-01
    14  1.3000000000000D-01  3.6580300632324D-01 -6.2402277625412D-01
    15  1.4000000000000D-01  3.9283302846947D-01 -6.6681325093887D-01
    16  1.5000000000000D-01  4.1962078981162D-01 -7.0845068322955D-01
    17  1.6000000000000D-01  4.4615041358387D-01 -7.4885502011703D-01
    18  1.7000000000000D-01  4.7240629945129D-01 -7.8794692433206D-01
    19  1.8000000000000D-01  4.9837313597694D-01 -8.2564789564644D-01
    20  1.9000000000000D-01  5.2403591208694D-01 -8.6188040385305D-01
    21  2.0000000000000D-01  5.4937992751562D-01 -8.9656803340487D-01
    22  2.1000000000000D-01  5.7439080221936D-01 -9.2963563957678D-01
    23  2.2000000000000D-01  5.9905448475493D-01 -9.6100951589768D-01
    24  2.3000000000000D-01  6.2335725962527D-01 -9.9061757248355D-01
    25  2.4000000000000D-01  6.4728575360205D-01 -1.0183895247854D+00
    26  2.5000000000000D-01  6.7082694104206D-01 -1.0442570921514D+00
    27  2.6000000000000D-01  6.9396814822046D-01 -1.0681542054901D+00
    28  2.7000000000000D-01  7.1669705671109D-01 -1.0900172232110D+00
    29  2.8000000000000D-01  7.3900170585016D-01 -1.1097851545149D+00
    30  2.9000000000000D-01  7.6087049432585D-01 -1.1273998890030D+00
    31  3.0000000000000D-01  7.8229218094225D-01 -1.1428064314809D+00
    32  3.1000000000000D-01  8.0325588461132D-01 -1.1559531407425D+00
    33  3.2000000000000D-01  8.2375108363204D-01 -1.1667919710363D+00
    34  3.3000000000000D-01  8.4376761432018D-01 -1.1752787148430D+00
    35  3.4000000000000D-01  8.6329566905669D-01 -1.1813732455257D+00
    36  3.5000000000000D-01  8.8232579382615D-01 -1.1850397583558D+00
    37  3.6000000000000D-01  9.0084888532020D-01 -1.1862470083696D+00
    38  3.7000000000000D-01  9.1885618768324D-01 -1.1849685434718D+00
    39  3.8000000000000D-01  9.3633928898012D-01 -1.1811829311712D+00
    40  3.9000000000000D-01  9.5329011746667D-01 -1.1748739773192D+00
    41  4.0000000000000D-01  9.6970093774519D-01 -1.1660309352100D+00
    42  4.1000000000000D-01  9.8556434688705D-01 -1.1546487034077D+00
    43  4.2000000000000D-01  1.0008732706042D+00 -1.1407280106781D+00
    44  4.3000000000000D-01  1.0156209595508D+00 -1.1242755864291D+00
    45  4.4000000000000D-01  1.0298009858341D+00 -1.1053043151007D+00
    46  4.5000000000000D-01  1.0434072398118D+00 -1.0838333729917D+00
    47  4.6000000000000D-01  1.0564339272500D+00 -1.0598883460720D+00
    48  4.7000000000000D-01  1.0688755669137D+00 -1.0335013273945D+00
    49  4.8000000000000D-01  1.0807269886550D+00 -1.0047109928047D+00
    50  4.9000000000000D-01  1.0919833320635D+00 -9.7356265373264D-01
    51  5.0000000000000D-01  1.1026400457343D+00 -9.4010828595345D-01
    52  5.1000000000000D-01  1.1126928872073D+00 -9.0440653331065D-01
    53  5.2000000000000D-01  1.1221379236217D+00 -8.6652268551331D-01
    54  5.3000000000000D-01  1.1309715331266D+00 -8.2652862924436D-01
    55  5.4000000000000D-01  1.1391904070789D+00 -7.8450277194909D-01
    56  5.5000000000000D-01  1.1467915530541D+00 -7.4052993781245D-01
    57  5.6000000000000D-01  1.1537722986886D+00 -6.9470123557884D-01
    58  5.7000000000000D-01  1.1601302963613D+00 -6.4711389801754D-01
    59  5.8000000000000D-01  1.1658635287187D+00 -5.9787109299195D-01
    60  5.9000000000000D-01  1.1709703150357D+00 -5.4708170624697D-01
    61  6.0000000000000D-01  1.1754493183984D+00 -4.9486009618992D-01
    62  6.1000000000000D-01  1.1792995536856D+00 -4.4132582109993D-01
    63  6.2000000000000D-01  1.1825203963184D+00 -3.8660333936364D-01
    64  6.3000000000000D-01  1.1851115917387D+00 -3.3082168349472D-01
    65  6.4000000000000D-01  1.1870732655687D+00 -2.7411410885452D-01
    66  6.5000000000000D-01  1.1884059343963D+00 -2.1661771814817D-01
    67  6.6000000000000D-01  1.1891105171239D+00 -1.5847306292275D-01
    68  6.7000000000000D-01  1.1891883468094D+00 -9.9823723443515D-02
    69  6.8000000000000D-01  1.1886411829228D+00 -4.0815868467193D-02
    70  6.9000000000000D-01  1.1874712239339D+00  1.8402203432199D-02
    71  7.0000000000000D-01  1.1856811201400D+00  7.7680539199943D-02
    72  7.1000000000000D-01  1.1832739866397D+00  1.3686802139326D-01
    73  7.2000000000000D-01  1.1802534163491D+00  1.9581287101152D-01
    74  7.3000000000000D-01  1.1766234929558D+00  2.5436316094303D-01
    75  7.4000000000000D-01  1.1723888037012D+00  3.1236733781581D-01
    76  7.5000000000000D-01  1.1675544518775D+00  3.6967474995854D-01
    77  7.6000000000000D-01  1.1621260689225D+00  4.2613617910965D-01
    78  7.7000000000000D-01  1.1561098259972D+00  4.8160437345535D-01
    79  7.8000000000000D-01  1.1495124449242D+00  5.3593457953424D-01
    80  7.9000000000000D-01  1.1423412083701D+00  5.8898507051552D-01
    81  8.0000000000000D-01  1.1346039691508D+00  6.4061766834086D-01
    82  8.1000000000000D-01  1.1263091585440D+00  6.9069825721727D-01
    83  8.2000000000000D-01  1.1174657934909D+00  7.3909728595895D-01
    84  8.3000000000000D-01  1.1080834825756D+00  7.8569025670140D-01
    85  8.4000000000000D-01  1.0981724306715D+00  8.3035819755018D-01
    86  8.5000000000000D-01  1.0877434421498D+00  8.7298811677977D-01
    87  8.6000000000000D-01  1.0768079225488D+00  9.1347343626488D-01
    88  8.7000000000000D-01  1.0653778786118D+00  9.5171440190780D-01
    89  8.8000000000000D-01  1.0534659166022D+00  9.8761846891797D-01
    90  8.9000000000000D-01  1.0410852388178D+00  1.0211006599081D+00
    91  9.0000000000000D-01  1.0282496382298D+00  1.0520838938887D+00
    92  9.1000000000000D-01  1.0149734911830D+00  1.0804992843753D+00
    93  9.2000000000000D-01  1.0012717480999D+00  1.1062864049624D+00
    94  9.3000000000000D-01  9.8715992214574D-01  1.1293935208734D+00
    95  9.4000000000000D-01  9.7265407581540D-01  1.1497777851533D+00
    96  9.5000000000000D-01  9.5777080541967D-01  1.1674053983473D+00
    97  9.6000000000000D-01  9.4252722345445D-01  1.1822517306816D+00
    98  9.7000000000000D-01  9.2694093885041D-01  1.1943014059498D+00
    99  9.8000000000000D-01  9.1103003511107D-01  1.2035483465016D+00
   100  9.9000000000000D-01  8.9481304635883D-01  1.2099957789238D+00
   101  1.0000000000000D+00  8.7830893132034D-01  1.2136562002034D+00
   102  1.0100000000000D+00  8.6153704529412D-01  1.2145513043647D+00
   103  1.0200000000000D+00  8.4451711015539D-01  1.2127118697784D+00
   104  1.0300000000000D+00  8.2726918246432D-01  1.2081776075415D+00
   105  1.0400000000000D+00  8.0981361975548D-01  1.2009969715293D+00
   106  1.0500000000000D+00  7.9217104509758D-01  1.1912269309280D+00
   107  1.0600000000000D+00  7.7436231002329D-01  1.1789327062431D+00
   108  1.0700000000000D+00  7.5640845593934D-01  1.1641874699785D+00
   109  1.0800000000000D+00  7.3833067413767D-01  1.1470720133714D+00
   110  1.0900000000000D+00  7.2015026453733D-01  1.1276743807407D+00
   111  1.1000000000000D+00  7.0188859329652D-01  1.1060894731917D+00
   112  1.1100000000000D+00  6.8356704944155D-01  1.0824186235649D+00
   113  1.1200000000000D+00  6.6520700066801D-01  1.0567691446895D+00
   114  1.1300000000000D+00  6.4682974847629D-01  1.0292538531386D+00
   115  1.1400000000000D+00  6.2845648280929D-01  9.9999057081613D-01
   116  1.1500000000000D+00  6.1010823636566D-01  9.6910160681978D-01
   117  1.1600000000000D+00  5.9180583876651D-01  9.3671322213295D-01
   118  1.1700000000000D+00  5.7356987075690D-01  9.0295507979967D-01
   119  1.1800000000000D+00  5.5542061862617D-01  8.6795968330518D-01
   120  1.1900000000000D+00  5.3737802903225D-01  8.3186180594065D-01
   121  1.2000000000000D+00  5.1946166441665D-01  7.9479791399767D-01
   122  1.2100000000000D+00  5.0169065919570D-01  7.5690558665558D-01
   123  1.2200000000000D+00  4.8408367691206D-01  7.1832293543710D-01
   124  1.2300000000000D+00  4.6665886852962D-01  6.7918802612370D-01
   125  1.2400000000000D+00  4.4943383205004D-01  6.3963830599378D-01
   126  1.2500000000000D+00  4.3242557362354D-01  5.9981003919594D-01
   127  1.2600000000000D+00  4.1565047032673D-01  5.5983775307712D-01
   128  1.2700000000000D+00  3.9912423476745D-01  5.1985369816389D-01
   129  1.2800000000000D+00  3.8286188167017D-01  4.7998732440105D-01
   130  1.2900000000000D+00  3.6687769659572D-01  4.4036477627457D-01
   131  1.3000000000000D+00  3.5118520692844D-01  4.0110840919018D-01
   132  1.3100000000000D+00  3.3579715525755D-01  3.6233632938728D-01
   133  1.3200000000000D+00  3.2072547528025D-01  3.2416195969102D-01
   134  1.3300000000000D+00  3.0598127032353D-01  2.8669363299963D-01
   135  1.3400000000000D+00  2.9157479458182D-01  2.5003421539382D-01
   136  1.3500000000000D+00  2.7751543716170D-01  2.1428076069164D-01
   137  1.3600000000000D+00  2.6381170898875D-01  1.7952419775862D-01
   138  1.3700000000000D+00  2.5047123264442D-01  1.4584905206161D-01
   139  1.3800000000000D+00  2.3750073517550D-01  1.1333320260867D-01
   140  1.3900000000000D+00  2.2490604388853D-01  8.2047674962925D-02
   141  1.4000000000000D+00  2.1269208517115D-01  5.2056471465445D-02
   142  1.4100000000000D+00  2.0086288631342D-01  2.3416438784524D-02
   143  1.4200000000000D+00  1.8942158032690D-01 -3.8228267270193D-03
   144  1.4300000000000D+00  1.7837041374097D-01 -2.9619035650823D-02
   145  1.4400000000000D+00  1.6771075730445D-01 -5.3937224660576D-02
   146  1.4500000000000D+00  1.5744311957604D-01 -7.6749737940986D-02
   147  1.4600000000000D+00  1.4756716329248D-01 -9.8036172023154D-02
   148  1.4700000000000D+00  1.3808172445556D-01 -1.1778328440855D-01
   149  1.4800000000000D+00  1.2898483403512D-01 -1.3598486701070D-01
   150  1.4900000000000D+00  1.2027374216159D-01 -1.5264158583271D-01
   151  1.5000000000000D+00  1.1194494472024D-01 -1.6776078767703D-01
   152  1.5100000000000D+00  1.0399421216811D-01 -1.8135627613712D-01
   153  1.5200000000000D+00  9.6416620477860D-02 -1.9344805778838D-01
   154  1.5300000000000D+00  8.9206584012613D-02 -2.0406206110847D-01
   155  1.5400000000000D+00  8.2357890199754D-02 -2.1322982962773D-01
   156  1.5500000000000D+00  7.5863735815651D-02 -2.2098819171618D-01
   157  1.5600000000000D+00  6.9716764709266D-02 -2.2737890917900D-01
   158  1.5700000000000D+00  6.3909106784202D-02 -2.3244830693189D-01
   159  1.5800000000000D+00  5.8432418040923D-02 -2.3624688640684D-01
   160  1.5900000000000D+00  5.3277921498119D-02 -2.3882892494249D-01
   161  1.6000000000000D+00  4.8436448786329D-02 -2.4025206402923D-01
   162  1.6100000000000D+00  4.3898482222664D-02 -2.4057688879291D-01
   163  1.6200000000000D+00  3.9654197168519D-02 -2.3986650153416D-01
   164  1.6300000000000D+00  3.5693504462689D-02 -2.3818609195834D-01
   165  1.6400000000000D+00  3.2006092751579D-02 -2.3560250666053D-01
   166  1.6500000000000D+00  2.8581470494799D-02 -2.3218382075049D-01
   167  1.6600000000000D+00  2.5409007490947D-02 -2.2799891385634D-01
   168  1.6700000000000D+00  2.2477975693934D-02 -2.2311705355833D-01
   169  1.6800000000000D+00  1.9777589190761D-02 -2.1760748812115D-01
   170  1.6900000000000D+00  1.7297043106918D-02 -2.1153905167924D-01
   171  1.7000000000000D+00  1.5025551342611D-02 -2.0497978328692D-01
   172  1.7100000000000D+00  1.2952382901044D-02 -1.9799656309238D-01
   173  1.7200000000000D+00  1.1066896754861D-02 -1.9065476643972D-01
   174  1.7300000000000D+00  9.3585750006877D-03 -1.8301793934572D-01
   175  1.7400000000000D+00  7.8170543063026D-03 -1.7514749532348D-01
   176  1.7500000000000D+00  6.4321553769689D-03 -1.6710243735701D-01
   177  1.7600000000000D+00  5.1939105238313D-03 -1.5893910387506D-01
   178  1.7700000000000D+00  4.0925890205946D-03 -1.5071094312860D-01
   179  1.7800000000000D+00  3.1187204307288D-03 -1.4246831338514D-01
   180  1.7900000000000D+00  2.2631155424147D-03 -1.3425831407507D-01
   181  1.8000000000000D+00  1.5168851817192D-03 -1.2612464401342D-01
   182  1.8100000000000D+00  8.7145653720772D-04 -1.1810749192380D-01
   183  1.8200000000000D+00  3.1858728692586D-04 -1.1024345506370D-01
   184  1.8300000000000D+00 -1.4962276534527D-04 -1.0256549014798D-01
   185  1.8400000000000D+00 -5.4072230594090D-04 -9.5102893099495D-02
   186  1.8500000000000D+00 -8.6190153670802D-04 -8.7881309883628D-02
   187  1.8600000000000D+00 -1.1199874767226D-03 -8.0922776468463D-02
   188  1.8700000000000D+00 -1.3214415180257D-03 -7.4245787568065D-02
   189  1.8800000000000D+00 -1.4723592459714D-03 -6.7865394298196D-02
   190  1.8900000000000D+00 -1.5784722983809D-03 -6.1793327438752D-02
   191  1.9000000000000D+00 -1.6451524273541D-03 -5.6038148670612D-02
   192  1.9100000000000D+00 -1.6774173581569D-03 -5.0605423852396D-02
   193  1.9200000000000D+00 -1.6799386911059D-03 -4.5497921909538D-02
   194  1.9300000000000D+00 -1.6570514157179D-03 -4.0715833028733D-02
   195  1.9400000000000D+00 -1.6127653011377D-03 -3.6257010758697D-02
   196  1.9500000000000D+00 -1.5507771698362D-03 -3.2117219665690D-02
   197  1.9600000000000D+00 -1.4744852334242D-03 -2.8290412287358D-02
   198  1.9700000000000D+00 -1.3870066053361D-03 -2.4769057639933D-02
   199  1.9800000000000D+00 -1.2911850952348D-03 -2.1544272763493D-02
   200  1.9900000000000D+00 -1.1896163638578D-03 -1.8606274383388D-02
   201  2.0000000000000D+00 -1.0846814941172D-03 -1.5945007755592D-02
   202  2.0100000000000D+00 -9.7853922881692D-04 -1.3549936885901D-02
   203  2.0200000000000D+00 -8.7311952754234D-04 -1.1409850325646D-02
   204  2.0300000000000D+00 -7.7011942875393D-04 -9.5127226387599D-03
   205  2.0400000000000D+00 -6.7100132961496D-04 -7.8456689024248D-03
   206  2.0500000000000D+00 -5.7696378800459D-04 -6.3943338115880D-03
   207  2.0600000000000D+00 -4.8897453633413D-04 -5.1435157787272D-03
   208  2.0700000000000D+00 -4.0778645639845D-04 -4.0774635483123D-03
   209  2.0800000000000D+00 -3.3395173926354D-04 -3.1801241230195D-03
   210  2.0900000000000D+00 -2.6783003385641D-04 -2.4352595667631D-03
   211  2.1000000000000D+00 -2.0960415722356D-04 -1.8267190363403D-03
   212  2.1100000000000D+00 -1.5929036286801D-04 -1.3385984226477D-03
   213  2.1200000000000D+00 -1.1674983653333D-04 -9.5542198793548D-04
   214  2.1300000000000D+00 -8.1698282129486D-05 -6.6230151594509D-04
   215  2.1400000000000D+00 -5.3701574626841D-05 -4.4513362304822D-04
   216  2.1500000000000D+00 -3.2250139937532D-05 -2.9043200334733D-04
   217  2.1600000000000D+00 -1.6713158788463D-05 -1.8540453862020D-04
   218  2.1700000000000D+00 -6.2492291810776D-06 -1.1922876533058D-04
   219  2.1800000000000D+00  1.5887547533594D-07 -8.2849081917544D-05
   220  2.1900000000000D+00  3.5855344900861D-06 -6.9148523022018D-05
   221  2.2000000000000D+00  4.6860648190387D-06 -6.3264069152119D-05
   222  2.2100000000000D+00  4.0435839103475D-06 -5.2295275868936D-05
   223  2.2200000000000D+00  2.3023911733421D-06 -3.0086122558208D-05
   224  2.2300000000000D+00  5.2326513471408D-07 -7.0736308382546D-06
   225  2.2400000000000D+00 -3.9753866358258D-07  4.8423186416603D-06
   226  2.2500000000000D+00 -4.1953308389543D-07  5.1212282196381D-06
   227  2.2600000000000D+00 -2.4946155355375D-08  3.0576050744082D-07
   228  2.2700000000000D+00  1.0867176100094D-07 -1.2269162750793D-06
   229  2.2800000000000D+00  8.3552210038051D-08 -9.3711016970765D-07
   230  2.2900000000000D+00 -3.7921466690655D-09  4.9378766444667D-08
   231  2.3000000000000D+00 -1.2413357830531D-08  1.6163834118233D-07
   232  2.3100000000000D+00 -6.5362894180360D-09  8.5111135394846D-08
   233  2.3200000000000D+00  0.0000000000000D+00  0.0000000000000D+00
   234  2.3300000000000D+00  0.0000000000000D+00  0.0000000000000D+00
   235  2.3400000000000D+00  0.0000000000000D+00  0.0000000000000D+00
   236  2.3500000000000D+00  0.0000000000000D+00  0.0000000000000D+00
   237  2.3600000000000D+00  0.0000000000000D+00  0.0000000000000D+00
   238  2.3700000000000D+00  0.0000000000000D+00  0.0000000000000D+00
   239  2.3800000000000D+00  0.0000000000000D+00  0.0000000000000D+00
   240  2.3900000000000D+00  0.0000000000000D+00  0.0000000000000D+00
   241  2.4000000000000D+00  0.0000000000000D+00  0.0000000000000D+00
   242  2.4100000000000D+00  0.0000000000000D+00  0.0000000000000D+00
   243  2.4200000000000D+00  0.0000000000000D+00  0.0000000000000D+00
   244  2.4300000000000D+00  0.0000000000000D+00  0.0000000000000D+00
   245  2.4400000000000D+00  0.0000000000000D+00  0.0000000000000D+00
   246  2.4500000000000D+00  0.0000000000000D+00  0.0000000000000D+00
   247  2.4600000000000D+00  0.0000000000000D+00  0.0000000000000D+00
   248  2.4700000000000D+00  0.0000000000000D+00  0.0000000000000D+00
   249  2.4800000000000D+00  0.0000000000000D+00  0.0000000000000D+00
   250  2.4900000000000D+00  0.0000000000000D+00  0.0000000000000D+00
   251  2.5000000000000D+00  0.0000000000000D+00  0.0000000000000D+00
   252  2.5100000000000D+00  0.0000000000000D+00  0.0000000000000D+00
   253  2.5200000000000D+00  0.0000000000000D+00  0.0000000000000D+00
   254  2.5300000000000D+00  0.0000000000000D+00  0.0000000000000D+00
   255  2.5400000000000D+00  0.0000000000000D+00  0.0000000000000D+00
   256  2.5500000000000D+00  0.0000000000000D+00  0.0000000000000D+00
   257  2.5600000000000D+00  0.0000000000000D+00  0.0000000000000D+00
   258  2.5700000000000D+00  0.0000000000000D+00  0.0000000000000D+00
   259  2.5800000000000D+00  0.0000000000000D+00  0.0000000000000D+00
   260  2.5900000000000D+00  0.0000000000000D+00  0.0000000000000D+00
   261  2.6000000000000D+00  0.0000000000000D+00  0.0000000000000D+00
   262  2.6100000000000D+00  0.0000000000000D+00  0.0000000000000D+00
   263  2.6200000000000D+00  0.0000000000000D+00  0.0000000000000D+00
   264  2.6300000000000D+00  0.0000000000000D+00  0.0000000000000D+00
   265  2.6400000000000D+00  0.0000000000000D+00  0.0000000000000D+00
   266  2.6500000000000D+00  0.0000000000000D+00  0.0000000000000D+00
   267  2.6600000000000D+00  0.0000000000000D+00  0.0000000000000D+00
   268  2.6700000000000D+00  0.0000000000000D+00  0.0000000000000D+00
   269  2.6800000000000D+00  0.0000000000000D+00  0.0000000000000D+00
   270  2.6900000000000D+00  0.0000000000000D+00  0.0000000000000D+00
   271  2.7000000000000D+00  0.0000000000000D+00  0.0000000000000D+00
   272  2.7100000000000D+00  0.0000000000000D+00  0.0000000000000D+00
   273  2.7200000000000D+00  0.0000000000000D+00  0.0000000000000D+00
   274  2.7300000000000D+00  0.0000000000000D+00  0.0000000000000D+00
   275  2.7400000000000D+00  0.0000000000000D+00  0.0000000000000D+00
   276  2.7500000000000D+00  0.0000000000000D+00  0.0000000000000D+00
   277  2.7600000000000D+00  0.0000000000000D+00  0.0000000000000D+00
   278  2.7700000000000D+00  0.0000000000000D+00  0.0000000000000D+00
   279  2.7800000000000D+00  0.0000000000000D+00  0.0000000000000D+00
   280  2.7900000000000D+00  0.0000000000000D+00  0.0000000000000D+00
   281  2.8000000000000D+00  0.0000000000000D+00  0.0000000000000D+00
   282  2.8100000000000D+00  0.0000000000000D+00  0.0000000000000D+00
   283  2.8200000000000D+00  0.0000000000000D+00  0.0000000000000D+00
   284  2.8300000000000D+00  0.0000000000000D+00  0.0000000000000D+00
   285  2.8400000000000D+00  0.0000000000000D+00  0.0000000000000D+00
   286  2.8500000000000D+00  0.0000000000000D+00  0.0000000000000D+00
   287  2.8600000000000D+00  0.0000000000000D+00  0.0000000000000D+00
   288  2.8700000000000D+00  0.0000000000000D+00  0.0000000000000D+00
   289  2.8800000000000D+00  0.0000000000000D+00  0.0000000000000D+00
   290  2.8900000000000D+00  0.0000000000000D+00  0.0000000000000D+00
   291  2.9000000000000D+00  0.0000000000000D+00  0.0000000000000D+00
   292  2.9100000000000D+00  0.0000000000000D+00  0.0000000000000D+00
   293  2.9200000000000D+00  0.0000000000000D+00  0.0000000000000D+00
   294  2.9300000000000D+00  0.0000000000000D+00  0.0000000000000D+00
   295  2.9400000000000D+00  0.0000000000000D+00  0.0000000000000D+00
   296  2.9500000000000D+00  0.0000000000000D+00  0.0000000000000D+00
   297  2.9600000000000D+00  0.0000000000000D+00  0.0000000000000D+00
   298  2.9700000000000D+00  0.0000000000000D+00  0.0000000000000D+00
   299  2.9800000000000D+00  0.0000000000000D+00  0.0000000000000D+00
   300  2.9900000000000D+00  0.0000000000000D+00  0.0000000000000D+00
   301  3.0000000000000D+00  0.0000000000000D+00  0.0000000000000D+00
   302  3.0100000000000D+00  0.0000000000000D+00  0.0000000000000D+00
   303  3.0200000000000D+00  0.0000000000000D+00  0.0000000000000D+00
   304  3.0300000000000D+00  0.0000000000000D+00  0.0000000000000D+00
   305  3.0400000000000D+00  0.0000000000000D+00  0.0000000000000D+00
   306  3.0500000000000D+00  0.0000000000000D+00  0.0000000000000D+00
   307  3.0600000000000D+00  0.0000000000000D+00  0.0000000000000D+00
   308  3.0700000000000D+00  0.0000000000000D+00  0.0000000000000D+00
   309  3.0800000000000D+00  0.0000000000000D+00  0.0000000000000D+00
   310  3.0900000000000D+00  0.0000000000000D+00  0.0000000000000D+00
   311  3.1000000000000D+00  0.0000000000000D+00  0.0000000000000D+00
   312  3.1100000000000D+00  0.0000000000000D+00  0.0000000000000D+00
   313  3.1200000000000D+00  0.0000000000000D+00  0.0000000000000D+00
   314  3.1300000000000D+00  0.0000000000000D+00  0.0000000000000D+00
   315  3.1400000000000D+00  0.0000000000000D+00  0.0000000000000D+00
   316  3.1500000000000D+00  0.0000000000000D+00  0.0000000000000D+00
   317  3.1600000000000D+00  0.0000000000000D+00  0.0000000000000D+00
   318  3.1700000000000D+00  0.0000000000000D+00  0.0000000000000D+00
   319  3.1800000000000D+00  0.0000000000000D+00  0.0000000000000D+00
   320  3.1900000000000D+00  0.0000000000000D+00  0.0000000000000D+00
   321  3.2000000000000D+00  0.0000000000000D+00  0.0000000000000D+00
   322  3.2100000000000D+00  0.0000000000000D+00  0.0000000000000D+00
   323  3.2200000000000D+00  0.0000000000000D+00  0.0000000000000D+00
   324  3.2300000000000D+00  0.0000000000000D+00  0.0000000000000D+00
   325  3.2400000000000D+00  0.0000000000000D+00  0.0000000000000D+00
   326  3.2500000000000D+00  0.0000000000000D+00  0.0000000000000D+00
   327  3.2600000000000D+00  0.0000000000000D+00  0.0000000000000D+00
   328  3.2700000000000D+00  0.0000000000000D+00  0.0000000000000D+00
   329  3.2800000000000D+00  0.0000000000000D+00  0.0000000000000D+00
   330  3.2900000000000D+00  0.0000000000000D+00  0.0000000000000D+00
   331  3.3000000000000D+00  0.0000000000000D+00  0.0000000000000D+00
   332  3.3100000000000D+00  0.0000000000000D+00  0.0000000000000D+00
   333  3.3200000000000D+00  0.0000000000000D+00  0.0000000000000D+00
   334  3.3300000000000D+00  0.0000000000000D+00  0.0000000000000D+00
   335  3.3400000000000D+00  0.0000000000000D+00  0.0000000000000D+00
   336  3.3500000000000D+00  0.0000000000000D+00  0.0000000000000D+00
   337  3.3600000000000D+00  0.0000000000000D+00  0.0000000000000D+00
   338  3.3700000000000D+00  0.0000000000000D+00  0.0000000000000D+00
   339  3.3800000000000D+00  0.0000000000000D+00  0.0000000000000D+00
   340  3.3900000000000D+00  0.0000000000000D+00  0.0000000000000D+00
   341  3.4000000000000D+00  0.0000000000000D+00  0.0000000000000D+00
   342  3.4100000000000D+00  0.0000000000000D+00  0.0000000000000D+00
   343  3.4200000000000D+00  0.0000000000000D+00  0.0000000000000D+00
   344  3.4300000000000D+00  0.0000000000000D+00  0.0000000000000D+00
   345  3.4400000000000D+00  0.0000000000000D+00  0.0000000000000D+00
   346  3.4500000000000D+00  0.0000000000000D+00  0.0000000000000D+00
   347  3.4600000000000D+00  0.0000000000000D+00  0.0000000000000D+00
   348  3.4700000000000D+00  0.0000000000000D+00  0.0000000000000D+00
   349  3.4800000000000D+00  0.0000000000000D+00  0.0000000000000D+00
   350  3.4900000000000D+00  0.0000000000000D+00  0.0000000000000D+00
   351  3.5000000000000D+00  0.0000000000000D+00  0.0000000000000D+00
   352  3.5100000000000D+00  0.0000000000000D+00  0.0000000000000D+00
   353  3.5200000000000D+00  0.0000000000000D+00  0.0000000000000D+00
   354  3.5300000000000D+00  0.0000000000000D+00  0.0000000000000D+00
   355  3.5400000000000D+00  0.0000000000000D+00  0.0000000000000D+00
   356  3.5500000000000D+00  0.0000000000000D+00  0.0000000000000D+00
   357  3.5600000000000D+00  0.0000000000000D+00  0.0000000000000D+00
   358  3.5700000000000D+00  0.0000000000000D+00  0.0000000000000D+00
   359  3.5800000000000D+00  0.0000000000000D+00  0.0000000000000D+00
   360  3.5900000000000D+00  0.0000000000000D+00  0.0000000000000D+00
   361  3.6000000000000D+00  0.0000000000000D+00  0.0000000000000D+00
   362  3.6100000000000D+00  0.0000000000000D+00  0.0000000000000D+00
   363  3.6200000000000D+00  0.0000000000000D+00  0.0000000000000D+00
   364  3.6300000000000D+00  0.0000000000000D+00  0.0000000000000D+00
   365  3.6400000000000D+00  0.0000000000000D+00  0.0000000000000D+00
   366  3.6500000000000D+00  0.0000000000000D+00  0.0000000000000D+00
   367  3.6600000000000D+00  0.0000000000000D+00  0.0000000000000D+00
   368  3.6700000000000D+00  0.0000000000000D+00  0.0000000000000D+00
   369  3.6800000000000D+00  0.0000000000000D+00  0.0000000000000D+00
   370  3.6900000000000D+00  0.0000000000000D+00  0.0000000000000D+00
   371  3.7000000000000D+00  0.0000000000000D+00  0.0000000000000D+00
   372  3.7100000000000D+00  0.0000000000000D+00  0.0000000000000D+00
   373  3.7200000000000D+00  0.0000000000000D+00  0.0000000000000D+00
   374  3.7300000000000D+00  0.0000000000000D+00  0.0000000000000D+00
   375  3.7400000000000D+00  0.0000000000000D+00  0.0000000000000D+00
   376  3.7500000000000D+00  0.0000000000000D+00  0.0000000000000D+00
   377  3.7600000000000D+00  0.0000000000000D+00  0.0000000000000D+00
   378  3.7700000000000D+00  0.0000000000000D+00  0.0000000000000D+00
   379  3.7800000000000D+00  0.0000000000000D+00  0.0000000000000D+00
   380  3.7900000000000D+00  0.0000000000000D+00  0.0000000000000D+00
   381  3.8000000000000D+00  0.0000000000000D+00  0.0000000000000D+00
   382  3.8100000000000D+00  0.0000000000000D+00  0.0000000000000D+00
   383  3.8200000000000D+00  0.0000000000000D+00  0.0000000000000D+00
   384  3.8300000000000D+00  0.0000000000000D+00  0.0000000000000D+00
   385  3.8400000000000D+00  0.0000000000000D+00  0.0000000000000D+00
   386  3.8500000000000D+00  0.0000000000000D+00  0.0000000000000D+00
   387  3.8600000000000D+00  0.0000000000000D+00  0.0000000000000D+00
   388  3.8700000000000D+00  0.0000000000000D+00  0.0000000000000D+00
   389  3.8800000000000D+00  0.0000000000000D+00  0.0000000000000D+00
   390  3.8900000000000D+00  0.0000000000000D+00  0.0000000000000D+00
   391  3.9000000000000D+00  0.0000000000000D+00  0.0000000000000D+00
   392  3.9100000000000D+00  0.0000000000000D+00  0.0000000000000D+00
   393  3.9200000000000D+00  0.0000000000000D+00  0.0000000000000D+00
   394  3.9300000000000D+00  0.0000000000000D+00  0.0000000000000D+00
   395  3.9400000000000D+00  0.0000000000000D+00  0.0000000000000D+00
   396  3.9500000000000D+00  0.0000000000000D+00  0.0000000000000D+00
   397  3.9600000000000D+00  0.0000000000000D+00  0.0000000000000D+00
   398  3.9700000000000D+00  0.0000000000000D+00  0.0000000000000D+00
   399  3.9800000000000D+00  0.0000000000000D+00  0.0000000000000D+00
   400  3.9900000000000D+00  0.0000000000000D+00  0.0000000000000D+00
   401  4.0000000000000D+00  0.0000000000000D+00  0.0000000000000D+00
   402  4.0100000000000D+00  0.0000000000000D+00  0.0000000000000D+00
   403  4.0200000000000D+00  0.0000000000000D+00  0.0000000000000D+00
   404  4.0300000000000D+00  0.0000000000000D+00  0.0000000000000D+00
   405  4.0400000000000D+00  0.0000000000000D+00  0.0000000000000D+00
   406  4.0500000000000D+00  0.0000000000000D+00  0.0000000000000D+00
   407  4.0600000000000D+00  0.0000000000000D+00  0.0000000000000D+00
   408  4.0700000000000D+00  0.0000000000000D+00  0.0000000000000D+00
   409  4.0800000000000D+00  0.0000000000000D+00  0.0000000000000D+00
   410  4.0900000000000D+00  0.0000000000000D+00  0.0000000000000D+00
   411  4.1000000000000D+00  0.0000000000000D+00  0.0000000000000D+00
   412  4.1100000000000D+00  0.0000000000000D+00  0.0000000000000D+00
   413  4.1200000000000D+00  0.0000000000000D+00  0.0000000000000D+00
   414  4.1300000000000D+00  0.0000000000000D+00  0.0000000000000D+00
   415  4.1400000000000D+00  0.0000000000000D+00  0.0000000000000D+00
   416  4.1500000000000D+00  0.0000000000000D+00  0.0000000000000D+00
   417  4.1600000000000D+00  0.0000000000000D+00  0.0000000000000D+00
   418  4.1700000000000D+00  0.0000000000000D+00  0.0000000000000D+00
   419  4.1800000000000D+00  0.0000000000000D+00  0.0000000000000D+00
   420  4.1900000000000D+00  0.0000000000000D+00  0.0000000000000D+00
   421  4.2000000000000D+00  0.0000000000000D+00  0.0000000000000D+00
   422  4.2100000000000D+00  0.0000000000000D+00  0.0000000000000D+00