Cr    ONCVPSP-3.3.1  r_core=   2.20727   2.37104   2.37104
     24.0000     14.0000      210905    zatom,zion,pspd
     8 -116133   2     4   600     0    pspcod,pspxc,lmax,lloc,mmax,r2well
  5.99000000  0.00000000  0.00000000    rchrg fchrg qchrg
     2     2     2     0    nproj
     3     1           extension_switch
     3     3     0    nprojso
   0                        -1.6359861708432D+00  1.2592337304029D+00
     1  0.0000000000000D+00 -2.2578328096046D-12 -3.8146374947701D-11
     2  1.0000000000000D-02  2.8627540915399D-02 -5.0326784857183D-02
     3  2.0000000000000D-02  5.7237127133016D-02 -1.0057054097561D-01
     4  3.0000000000000D-02  8.5810825284070D-02 -1.5064824991888D-01
     5  4.0000000000000D-02  1.1433074457292D-01 -2.0047691496276D-01
     6  5.0000000000000D-02  1.4277905785203D-01 -2.4997357471006D-01
     7  6.0000000000000D-02  1.7113802244465D-01 -2.9905531998910D-01
     8  7.0000000000000D-02  1.9939000063370D-01 -3.4763931508522D-01
     9  8.0000000000000D-02  2.2751747973775D-01 -3.9564282431666D-01
    10  9.0000000000000D-02  2.5550309169760D-01 -4.4298324491917D-01
    11  1.0000000000000D-01  2.8332963210047D-01 -4.8957814714748D-01
    12  1.1000000000000D-01  3.1098007857240D-01 -5.3534532243769D-01
    13  1.2000000000000D-01  3.3843760847393D-01 -5.8020284040246D-01
    14  1.3000000000000D-01  3.6568561583863D-01 -6.2406911535123D-01
    15  1.4000000000000D-01  3.9270772749949D-01 -6.6686298294137D-01
    16  1.5000000000000D-01  4.1948781835316D-01 -7.0850378747350D-01
    17  1.6000000000000D-01  4.4601002571846D-01 -7.4891148024570D-01
    18  1.7000000000000D-01  4.7225876275118D-01 -7.8800672927841D-01
    19  1.8000000000000D-01  4.9821873088400D-01 -8.2571104061411D-01
    20  1.9000000000000D-01  5.2387493126651D-01 -8.6194689128501D-01
    21  2.0000000000000D-01  5.4921267518753D-01 -8.9663787392841D-01
    22  2.1000000000000D-01  5.7421759346844D-01 -9.2970885291377D-01
    23  2.2000000000000D-01  5.9887564482339D-01 -9.6108613172901D-01
    24  2.3000000000000D-01  6.2317312318918D-01 -9.9069763125663D-01
    25  2.4000000000000D-01  6.4709666403444D-01 -1.0184730784541D+00
    26  2.5000000000000D-01  6.7063324966499D-01 -1.0443442048383D+00
    27  2.6000000000000D-01  6.9377021354840D-01 -1.0682449540601D+00
    28  2.7000000000000D-01  7.1649524368813D-01 -1.0901116977480D+00
    29  2.8000000000000D-01  7.3879638508324D-01 -1.1098834586915D+00
    30  2.9000000000000D-01  7.6066204131651D-01 -1.1275021403360D+00
    31  3.0000000000000D-01  7.8208097531903D-01 -1.1429127614641D+00
    32  3.1000000000000D-01  8.0304230936519D-01 -1.1560636948503D+00
    33  3.2000000000000D-01  8.2353552435684D-01 -1.1669069085924D+00
    34  3.3000000000000D-01  8.4355045846039D-01 -1.1753982087490D+00
    35  3.4000000000000D-01  8.6307730516431D-01 -1.1814974818461D+00
    36  3.5000000000000D-01  8.8210661082881D-01 -1.1851689357553D+00
    37  3.6000000000000D-01  9.0062927180213D-01 -1.1863813374020D+00
    38  3.7000000000000D-01  9.1863653118103D-01 -1.1851082457183D+00
    39  3.8000000000000D-01  9.3611997529469D-01 -1.1813282382302D+00
    40  3.9000000000000D-01  9.5307152999307D-01 -1.1750251296474D+00
    41  4.0000000000000D-01  9.6948345682151D-01 -1.1661881808181D+00
    42  4.1000000000000D-01  9.8534834916373D-01 -1.1548122964142D+00
    43  4.2000000000000D-01  1.0006591284349D+00 -1.1408982097265D+00
    44  4.3000000000000D-01  1.0154090404058D+00 -1.1244526529742D+00
    45  4.4000000000000D-01  1.0295916517370D+00 -1.1054885115707D+00
    46  4.5000000000000D-01  1.0432008468001D+00 -1.0840249608358D+00
    47  4.6000000000000D-01  1.0562308248611D+00 -1.0600875837010D+00
    48  4.7000000000000D-01  1.0686760976952D+00 -1.0337084680259D+00
    49  4.8000000000000D-01  1.0805314877010D+00 -1.0049262822233D+00
    50  4.9000000000000D-01  1.0917921265763D+00 -9.7378632797857D-01
    51  5.0000000000000D-01  1.1024534546124D+00 -9.4034056895104D-01
    52  5.1000000000000D-01  1.1125112206585D+00 -9.0464763445136D-01
    53  5.2000000000000D-01  1.1219614828022D+00 -8.6677279720773D-01
    54  5.3000000000000D-01  1.1308006098053D+00 -8.2678792445800D-01
    55  5.4000000000000D-01  1.1390252833269D+00 -7.8477140173762D-01
    56  5.5000000000000D-01  1.1466325009586D+00 -7.4080802887241D-01
    57  5.6000000000000D-01  1.1536195800906D+00 -6.9498888783001D-01
    58  5.7000000000000D-01  1.1599841626169D+00 -6.4741118223362D-01
    59  5.8000000000000D-01  1.1657242204832D+00 -5.9817804849611D-01
    60  5.9000000000000D-01  1.1708380620692D+00 -5.4739833868889D-01
    61  6.0000000000000D-01  1.1753243393924D+00 -4.9518637542092D-01
    62  6.1000000000000D-01  1.1791820561105D+00 -4.4166167916246D-01
    63  6.2000000000000D-01  1.1824105762896D+00 -3.8694866861120D-01
    64  6.3000000000000D-01  1.1850096339012D+00 -3.3117633485766D-01
    65  6.4000000000000D-01  1.1869793429991D+00 -2.7447789026697D-01
    66  6.5000000000000D-01  1.1883202085211D+00 -2.1699039315024D-01
    67  6.6000000000000D-01  1.1890331376534D+00 -1.5885434945189D-01
    68  6.7000000000000D-01  1.1891194516859D+00 -1.0021329282767D-01
    69  6.8000000000000D-01  1.1885808982822D+00 -4.1213344631683D-02
    70  6.9000000000000D-01  1.1874196640797D+00  1.7997244533216D-02
    71  7.0000000000000D-01  1.1856383875296D+00  7.7268569917802D-02
    72  7.1000000000000D-01  1.1832401718804D+00  1.3644956247629D-01
    73  7.2000000000000D-01  1.1802285982047D+00  1.9538849144657D-01
    74  7.3000000000000D-01  1.1766077383625D+00  2.5393347754109D-01
    75  7.4000000000000D-01  1.1723821677915D+00  3.1193301453718D-01
    76  7.5000000000000D-01  1.1675569780118D+00  3.6923649697460D-01
    77  7.6000000000000D-01  1.1621377887285D+00  4.2569475159951D-01
    78  7.7000000000000D-01  1.1561307594157D+00  4.8116057013753D-01
    79  7.8000000000000D-01  1.1495426002609D+00  5.3548924093478D-01
    80  7.9000000000000D-01  1.1423805823537D+00  5.8853907697558D-01
    81  8.0000000000000D-01  1.1346525469968D+00  6.4017193776863D-01
    82  8.1000000000000D-01  1.1263669140238D+00  6.9025374259016D-01
    83  8.2000000000000D-01  1.1175326890063D+00  7.3865497258412D-01
    84  8.3000000000000D-01  1.1081594692391D+00  7.8525115924373D-01
    85  8.4000000000000D-01  1.0982574483915D+00  8.2992335683861D-01
    86  8.5000000000000D-01  1.0878374197214D+00  8.7255859640419D-01
    87  8.6000000000000D-01  1.0769107777516D+00  9.1305031897742D-01
    88  8.7000000000000D-01  1.0654895183122D+00  9.5129878584329D-01
    89  8.8000000000000D-01  1.0535862368634D+00  9.8721146365012D-01
    90  8.9000000000000D-01  1.0412141250165D+00  1.0207033823587D+00
    91  9.0000000000000D-01  1.0283869651806D+00  1.0516974641085D+00
    92  9.1000000000000D-01  1.0151191232704D+00  1.0801248212164D+00
    93  9.2000000000000D-01  1.0014255394197D+00  1.1059250216623D+00
    94  9.3000000000000D-01  9.8732171665506D-01  1.1290463205720D+00
    95  9.4000000000000D-01  9.7282370749375D-01  1.1494458563657D+00
    96  9.5000000000000D-01  9.5794809844001D-01  1.1670898104140D+00
    97  9.6000000000000D-01  9.4271199236614D-01  1.1819535292193D+00
    98  9.7000000000000D-01  9.2713298877454D-01  1.1940216083268D+00
    99  9.8000000000000D-01  9.1122916194876D-01  1.2032879373607D+00
   100  9.9000000000000D-01  8.9501903701342D-01  1.2097557057766D+00
   101  1.0000000000000D+00  8.7852156393409D-01  1.2134373691189D+00
   102  1.0100000000000D+00  8.6175608950027D-01  1.2143545757767D+00
   103  1.0200000000000D+00  8.4474232734609D-01  1.2125380544330D+00
   104  1.0300000000000D+00  8.2750032607513D-01  1.2080274626084D+00
   105  1.0400000000000D+00  8.1005043556702D-01  1.2008711968982D+00
   106  1.0500000000000D+00  7.9241327155482D-01  1.1911261657108D+00
   107  1.0600000000000D+00  7.7460967857292D-01  1.1788575255024D+00
   108  1.0700000000000D+00  7.5666069138555D-01  1.1641383817016D+00
   109  1.0800000000000D+00  7.3858749501662D-01  1.1470494557069D+00
   110  1.0900000000000D+00  7.2041138351049D-01  1.1276787195157D+00
   111  1.1000000000000D+00  7.0215371756295D-01  1.1061209997236D+00
   112  1.1100000000000D+00  6.8383588116899D-01  1.0824775527826D+00
   113  1.1200000000000D+00  6.6547923744283D-01  1.0568556135759D+00
   114  1.1300000000000D+00  6.4710508377174D-01  1.0293679195049D+00
   115  1.1400000000000D+00  6.2873460647190D-01  1.0001322124177D+00
   116  1.1500000000000D+00  6.1038883511915D-01  9.6927072081938D-01
   117  1.1600000000000D+00  5.9208859673252D-01  9.3690962491802D-01
   118  1.1700000000000D+00  5.7385446999188D-01  9.0317850715639D-01
   119  1.1800000000000D+00  5.5570673967339D-01  8.6820979095105D-01
   120  1.1900000000000D+00  5.3766535148796D-01  8.3213817041517D-01
   121  1.2000000000000D+00  5.1974986750918D-01  7.9510003390878D-01
   122  1.2100000000000D+00  5.0197942237625D-01  7.5723288427763D-01
   123  1.2200000000000D+00  4.8437268045565D-01  7.1867475865414D-01
   124  1.2300000000000D+00  4.6694779414482D-01  6.7956365070985D-01
   125  1.2400000000000D+00  4.4972236349562D-01  6.4003693822086D-01
   126  1.2500000000000D+00  4.3271339733049D-01  6.0023081875643D-01
   127  1.2600000000000D+00  4.1593727602357D-01  5.6027975630884D-01
   128  1.2700000000000D+00  3.9940971610708D-01  5.2031594156118D-01
   129  1.2800000000000D+00  3.8314573685604D-01  4.8046876839552D-01
   130  1.2900000000000D+00  3.6715962900526D-01  4.4086432926687D-01
   131  1.3000000000000D+00  3.5146492573160D-01  4.0162493181307D-01
   132  1.3100000000000D+00  3.3607437602821D-01  3.6286863897869D-01
   133  1.3200000000000D+00  3.2099992059809D-01  3.2470883495465D-01
   134  1.3300000000000D+00  3.0625267036426D-01  2.8725381882975D-01
   135  1.3400000000000D+00  2.9184288769317D-01  2.5060642783969D-01
   136  1.3500000000000D+00  2.7777997042311D-01  2.1486369203629D-01
   137  1.3600000000000D+00  2.6407243875223D-01  1.8011652168612D-01
   138  1.3700000000000D+00  2.5072792505427D-01  1.4644942888642D-01
   139  1.3800000000000D+00  2.3775316666480D-01  1.1394028454006D-01
   140  1.3900000000000D+00  2.2515400164988D-01  8.2660111377739D-02
   141  1.4000000000000D+00  2.1293536759980D-01  5.2672914161805D-02
   142  1.4100000000000D+00  2.0110130342040D-01  2.4035547189719D-02
   143  1.4200000000000D+00  1.8965495412042D-01 -3.2023804212574D-03
   144  1.4300000000000D+00  1.7859857857395D-01 -2.8998561452031D-02
   145  1.4400000000000D+00  1.6793356018657D-01 -5.3318009863793D-02
   146  1.4500000000000D+00  1.5766042044854D-01 -7.6133042366759D-02
   147  1.4600000000000D+00  1.4777883526424D-01 -9.7423223429245D-02
   148  1.4700000000000D+00  1.3828765399909D-01 -1.1717527409853D-01
   149  1.4800000000000D+00  1.2918492114119D-01 -1.3538294566141D-01
   150  1.4900000000000D+00  1.2046790045156D-01 -1.5204685956113D-01
   151  1.5000000000000D+00  1.1213310151513D-01 -1.6717431436600D-01
   152  1.5100000000000D+00  1.0417630851384D-01 -1.8077906203738D-01
   153  1.5200000000000D+00  9.6592611126092D-02 -1.9288105441324D-01
   154  1.5300000000000D+00  8.9376437356950D-02 -2.0350616243523D-01
   155  1.5400000000000D+00  8.2521588167269D-02 -2.1268586961863D-01
   156  1.5500000000000D+00  7.6021273713844D-02 -2.2045694216915D-01
   157  1.5600000000000D+00  6.9868151028804D-02 -2.2686107791723D-01
   158  1.5700000000000D+00  6.4054362958036D-02 -2.3194453633857D-01
   159  1.5800000000000D+00  5.8571578160549D-02 -2.3575775230974D-01
   160  1.5900000000000D+00  5.3411031987991D-02 -2.3835493585088D-01
   161  1.6000000000000D+00  4.8563568037617D-02 -2.3979366072346D-01
   162  1.6100000000000D+00  4.4019680187812D-02 -2.4013444426496D-01
   163  1.6200000000000D+00  3.9769554918174D-02 -2.3944032127527D-01
   164  1.6300000000000D+00  3.5803113706887D-02 -2.3777641458775D-01
   165  1.6400000000000D+00  3.2110055327138D-02 -2.3520950488759D-01
   166  1.6500000000000D+00  2.8679897821167D-02 -2.3180760265975D-01
   167  1.6600000000000D+00  2.5502019996833D-02 -2.2763952450421D-01
   168  1.6700000000000D+00  2.2565702217296D-02 -2.2277447686711D-01
   169  1.6800000000000D+00  1.9860166354791D-02 -2.1728164905521D-01
   170  1.6900000000000D+00  1.7374614674901D-02 -2.1122981868571D-01
   171  1.7000000000000D+00  1.5098267554550D-02 -2.0468697098255D-01
   172  1.7100000000000D+00  1.3020399795178D-02 -1.9771993517568D-01
   173  1.7200000000000D+00  1.1130375477164D-02 -1.9039403880738D-01
   174  1.7300000000000D+00  9.4176811056720D-03 -1.8277278338963D-01
   175  1.7400000000000D+00  7.8719570523307D-03 -1.7491754138533D-01
   176  1.7500000000000D+00  6.4830270195512D-03 -1.6688727831448D-01
   177  1.7600000000000D+00  5.2409256101454D-03 -1.5873829883522D-01
   178  1.7700000000000D+00  4.1359236887944D-03 -1.5052402120069D-01
   179  1.7800000000000D+00  3.1585517172446D-03 -1.4229477750771D-01
   180  1.7900000000000D+00  2.2996207008203D-03 -1.3409764486845D-01
   181  1.8000000000000D+00  1.5502410162809D-03 -1.2597630363242D-01
   182  1.8100000000000D+00  9.0183875459552D-04 -1.1797092788137D-01
   183  1.8200000000000D+00  3.4616986909193D-04 -1.1011810400048D-01
   184  1.8300000000000D+00 -1.2466816385979D-04 -1.0245078151943D-01
   185  1.8400000000000D+00 -5.1822693340320D-04 -9.4998252755880D-02
   186  1.8500000000000D+00 -8.4170008934945D-04 -8.7786163516480D-02
   187  1.8600000000000D+00 -1.1019186109666D-03 -8.0836552899369D-02
   188  1.8700000000000D+00 -1.3053483272382D-03 -7.4167921856268D-02
   189  1.8800000000000D+00 -1.4580896992784D-03 -6.7795330643904D-02
   190  1.8900000000000D+00 -1.5658796394568D-03 -6.1730521862058D-02
   191  1.9000000000000D+00 -1.6340955310256D-03 -5.5982071444655D-02
   192  1.9100000000000D+00 -1.6677610431943D-03 -5.0555561674268D-02
   193  1.9200000000000D+00 -1.6715539874582D-03 -4.5453779790430D-02
   194  1.9300000000000D+00 -1.6498157849723D-03 -4.0676935889807D-02
   195  1.9400000000000D+00 -1.6065628087527D-03 -3.6222904714983D-02
   196  1.9500000000000D+00 -1.5454986093615D-03 -3.2087473001689D-02
   197  1.9600000000000D+00 -1.4700282008966D-03 -2.8264616098557D-02
   198  1.9700000000000D+00 -1.3832755201917D-03 -2.4746826087404D-02
   199  1.9800000000000D+00 -1.2880911852999D-03 -2.1525243179307D-02
   200  1.9900000000000D+00 -1.1870775885464D-03 -1.8590106862294D-02
   201  2.0000000000000D+00 -1.0826223919631D-03 -1.5931384057316D-02
   202  2.0100000000000D+00 -9.7689076149940D-04 -1.3538559601136D-02
   203  2.0200000000000D+00 -8.7181891970572D-04 -1.1400442280729D-02
   204  2.0300000000000D+00 -7.6911000055043D-04 -9.5050265040480D-03
   205  2.0400000000000D+00 -6.7023231716950D-04 -7.8394469823829D-03
   206  2.0500000000000D+00 -5.7639020216035D-04 -6.3893686788512D-03
   207  2.0600000000000D+00 -4.8855695109130D-04 -5.1396102386110D-03
   208  2.0700000000000D+00 -4.0749075755628D-04 -4.0744403543323D-03
   209  2.0800000000000D+00 -3.3374883896652D-04 -3.1778254938228D-03
   210  2.0900000000000D+00 -2.6769556402001D-04 -2.4335466542911D-03
   211  2.1000000000000D+00 -2.0951812935084D-04 -1.8254711629521D-03
   212  2.1100000000000D+00 -1.5923680493081D-04 -1.3377122025059D-03
   213  2.1200000000000D+00 -1.1671640639149D-04 -9.5481030712986D-04
   214  2.1300000000000D+00 -8.1675858942709D-05 -6.6189238995829D-04
   215  2.1400000000000D+00 -5.3683795649075D-05 -4.4486893596702D-04
   216  2.1500000000000D+00 -3.2233101458389D-05 -2.9026619342374D-04
   217  2.1600000000000D+00 -1.6695018169198D-05 -1.8530317718131D-04
   218  2.1700000000000D+00 -6.2293624799254D-06 -1.1916698029063D-04
   219  2.1800000000000D+00  1.8061199335457D-07 -8.2809953845801D-05
   220  2.1900000000000D+00  3.6093856175852D-06 -6.9121355056089D-05
   221  2.2000000000000D+00  4.7099208785473D-06 -6.3243782522563D-05
   222  2.2100000000000D+00  4.0633405655063D-06 -5.2280838399878D-05
   223  2.2200000000000D+00  2.3136391026610D-06 -3.0078409902287D-05
   224  2.2300000000000D+00  5.2586664237755D-07 -7.0718968128304D-06
   225  2.2400000000000D+00 -3.9939335326533D-07  4.8411064263806D-06
   226  2.2500000000000D+00 -4.2149037027356D-07  5.1199631858575D-06
   227  2.2600000000000D+00 -2.5062718262740D-08  3.0568566497620D-07
   228  2.2700000000000D+00  1.0915732975564D-07 -1.2266062619892D-06
   229  2.2800000000000D+00  8.3923922204636D-08 -9.3687484004873D-07
   230  2.2900000000000D+00 -3.8108020479218D-09  4.9364748547270D-08
   231  2.3000000000000D+00 -1.2474425060629D-08  1.6159245446127D-07
   232  2.3100000000000D+00 -6.5684445444192D-09  8.5086973609340D-08
   233  2.3200000000000D+00  0.0000000000000D+00  0.0000000000000D+00
   234  2.3300000000000D+00  0.0000000000000D+00  0.0000000000000D+00
   235  2.3400000000000D+00  0.0000000000000D+00  0.0000000000000D+00
   236  2.3500000000000D+00  0.0000000000000D+00  0.0000000000000D+00
   237  2.3600000000000D+00  0.0000000000000D+00  0.0000000000000D+00
   238  2.3700000000000D+00  0.0000000000000D+00  0.0000000000000D+00
   239  2.3800000000000D+00  0.0000000000000D+00  0.0000000000000D+00
   240  2.3900000000000D+00  0.0000000000000D+00  0.0000000000000D+00
   241  2.4000000000000D+00  0.0000000000000D+00  0.0000000000000D+00
   242  2.4100000000000D+00  0.0000000000000D+00  0.0000000000000D+00
   243  2.4200000000000D+00  0.0000000000000D+00  0.0000000000000D+00
   244  2.4300000000000D+00  0.0000000000000D+00  0.0000000000000D+00
   245  2.4400000000000D+00  0.0000000000000D+00  0.0000000000000D+00
   246  2.4500000000000D+00  0.0000000000000D+00  0.0000000000000D+00
   247  2.4600000000000D+00  0.0000000000000D+00  0.0000000000000D+00
   248  2.4700000000000D+00  0.0000000000000D+00  0.0000000000000D+00
   249  2.4800000000000D+00  0.0000000000000D+00  0.0000000000000D+00
   250  2.4900000000000D+00  0.0000000000000D+00  0.0000000000000D+00
   251  2.5000000000000D+00  0.0000000000000D+00  0.0000000000000D+00
   252  2.5100000000000D+00  0.0000000000000D+00  0.0000000000000D+00
   253  2.5200000000000D+00  0.0000000000000D+00  0.0000000000000D+00
   254  2.5300000000000D+00  0.0000000000000D+00  0.0000000000000D+00
   255  2.5400000000000D+00  0.0000000000000D+00  0.0000000000000D+00
   256  2.5500000000000D+00  0.0000000000000D+00  0.0000000000000D+00
   257  2.5600000000000D+00  0.0000000000000D+00  0.0000000000000D+00
   258  2.5700000000000D+00  0.0000000000000D+00  0.0000000000000D+00
   259  2.5800000000000D+00  0.0000000000000D+00  0.0000000000000D+00
   260  2.5900000000000D+00  0.0000000000000D+00  0.0000000000000D+00
   261  2.6000000000000D+00  0.0000000000000D+00  0.0000000000000D+00
   262  2.6100000000000D+00  0.0000000000000D+00  0.0000000000000D+00
   263  2.6200000000000D+00  0.0000000000000D+00  0.0000000000000D+00
   264  2.6300000000000D+00  0.0000000000000D+00  0.0000000000000D+00
   265  2.6400000000000D+00  0.0000000000000D+00  0.0000000000000D+00
   266  2.6500000000000D+00  0.0000000000000D+00  0.0000000000000D+00
   267  2.6600000000000D+00  0.0000000000000D+00  0.0000000000000D+00
   268  2.6700000000000D+00  0.0000000000000D+00  0.0000000000000D+00
   269  2.6800000000000D+00  0.0000000000000D+00  0.0000000000000D+00
   270  2.6900000000000D+00  0.0000000000000D+00  0.0000000000000D+00
   271  2.7000000000000D+00  0.0000000000000D+00  0.0000000000000D+00
   272  2.7100000000000D+00  0.0000000000000D+00  0.0000000000000D+00
   273  2.7200000000000D+00  0.0000000000000D+00  0.0000000000000D+00
   274  2.7300000000000D+00  0.0000000000000D+00  0.0000000000000D+00
   275  2.7400000000000D+00  0.0000000000000D+00  0.0000000000000D+00
   276  2.7500000000000D+00  0.0000000000000D+00  0.0000000000000D+00
   277  2.7600000000000D+00  0.0000000000000D+00  0.0000000000000D+00
   278  2.7700000000000D+00  0.0000000000000D+00  0.0000000000000D+00
   279  2.7800000000000D+00  0.0000000000000D+00  0.0000000000000D+00
   280  2.7900000000000D+00  0.0000000000000D+00  0.0000000000000D+00
   281  2.8000000000000D+00  0.0000000000000D+00  0.0000000000000D+00
   282  2.8100000000000D+00  0.0000000000000D+00  0.0000000000000D+00
   283  2.8200000000000D+00  0.0000000000000D+00  0.0000000000000D+00
   284  2.8300000000000D+00  0.0000000000000D+00  0.0000000000000D+00
   285  2.8400000000000D+00  0.0000000000000D+00  0.0000000000000D+00
   286  2.8500000000000D+00  0.0000000000000D+00  0.0000000000000D+00
   287  2.8600000000000D+00  0.0000000000000D+00  0.0000000000000D+00
   288  2.8700000000000D+00  0.0000000000000D+00  0.0000000000000D+00
   289  2.8800000000000D+00  0.0000000000000D+00  0.0000000000000D+00
   290  2.8900000000000D+00  0.0000000000000D+00  0.0000000000000D+00
   291  2.9000000000000D+00  0.0000000000000D+00  0.0000000000000D+00
   292  2.9100000000000D+00  0.0000000000000D+00  0.0000000000000D+00
   293  2.9200000000000D+00  0.0000000000000D+00  0.0000000000000D+00
   294  2.9300000000000D+00  0.0000000000000D+00  0.0000000000000D+00
   295  2.9400000000000D+00  0.0000000000000D+00  0.0000000000000D+00
   296  2.9500000000000D+00  0.0000000000000D+00  0.0000000000000D+00
   297  2.9600000000000D+00  0.0000000000000D+00  0.0000000000000D+00
   298  2.9700000000000D+00  0.0000000000000D+00  0.0000000000000D+00
   299  2.9800000000000D+00  0.0000000000000D+00  0.0000000000000D+00
   300  2.9900000000000D+00  0.0000000000000D+00  0.0000000000000D+00
   301  3.0000000000000D+00  0.0000000000000D+00  0.0000000000000D+00
   302  3.0100000000000D+00  0.0000000000000D+00  0.0000000000000D+00
   303  3.0200000000000D+00  0.0000000000000D+00  0.0000000000000D+00
   304  3.0300000000000D+00  0.0000000000000D+00  0.0000000000000D+00
   305  3.0400000000000D+00  0.0000000000000D+00  0.0000000000000D+00
   306  3.0500000000000D+00  0.0000000000000D+00  0.0000000000000D+00
   307  3.0600000000000D+00  0.0000000000000D+00  0.0000000000000D+00
   308  3.0700000000000D+00  0.0000000000000D+00  0.0000000000000D+00
   309  3.0800000000000D+00  0.0000000000000D+00  0.0000000000000D+00
   310  3.0900000000000D+00  0.0000000000000D+00  0.0000000000000D+00
   311  3.1000000000000D+00  0.0000000000000D+00  0.0000000000000D+00
   312  3.1100000000000D+00  0.0000000000000D+00  0.0000000000000D+00
   313  3.1200000000000D+00  0.0000000000000D+00  0.0000000000000D+00
   314  3.1300000000000D+00  0.0000000000000D+00  0.0000000000000D+00
   315  3.1400000000000D+00  0.0000000000000D+00  0.0000000000000D+00
   316  3.1500000000000D+00  0.0000000000000D+00  0.0000000000000D+00
   317  3.1600000000000D+00  0.0000000000000D+00  0.0000000000000D+00
   318  3.1700000000000D+00  0.0000000000000D+00  0.0000000000000D+00
   319  3.1800000000000D+00  0.0000000000000D+00  0.0000000000000D+00
   320  3.1900000000000D+00  0.0000000000000D+00  0.0000000000000D+00
   321  3.2000000000000D+00  0.0000000000000D+00  0.0000000000000D+00
   322  3.2100000000000D+00  0.0000000000000D+00  0.0000000000000D+00
   323  3.2200000000000D+00  0.0000000000000D+00  0.0000000000000D+00
   324  3.2300000000000D+00  0.0000000000000D+00  0.0000000000000D+00
   325  3.2400000000000D+00  0.0000000000000D+00  0.0000000000000D+00
   326  3.2500000000000D+00  0.0000000000000D+00  0.0000000000000D+00
   327  3.2600000000000D+00  0.0000000000000D+00  0.0000000000000D+00
   328  3.2700000000000D+00  0.0000000000000D+00  0.0000000000000D+00
   329  3.2800000000000D+00  0.0000000000000D+00  0.0000000000000D+00
   330  3.2900000000000D+00  0.0000000000000D+00  0.0000000000000D+00
   331  3.3000000000000D+00  0.0000000000000D+00  0.0000000000000D+00
   332  3.3100000000000D+00  0.0000000000000D+00  0.0000000000000D+00
   333  3.3200000000000D+00  0.0000000000000D+00  0.0000000000000D+00
   334  3.3300000000000D+00  0.0000000000000D+00  0.0000000000000D+00
   335  3.3400000000000D+00  0.0000000000000D+00  0.0000000000000D+00
   336  3.3500000000000D+00  0.0000000000000D+00  0.0000000000000D+00
   337  3.3600000000000D+00  0.0000000000000D+00  0.0000000000000D+00
   338  3.3700000000000D+00  0.0000000000000D+00  0.0000000000000D+00
   339  3.3800000000000D+00  0.0000000000000D+00  0.0000000000000D+00
   340  3.3900000000000D+00  0.0000000000000D+00  0.0000000000000D+00
   341  3.4000000000000D+00  0.0000000000000D+00  0.0000000000000D+00
   342  3.4100000000000D+00  0.0000000000000D+00  0.0000000000000D+00
   343  3.4200000000000D+00  0.0000000000000D+00  0.0000000000000D+00
   344  3.4300000000000D+00  0.0000000000000D+00  0.0000000000000D+00
   345  3.4400000000000D+00  0.0000000000000D+00  0.0000000000000D+00
   346  3.4500000000000D+00  0.0000000000000D+00  0.0000000000000D+00
   347  3.4600000000000D+00  0.0000000000000D+00  0.0000000000000D+00
   348  3.4700000000000D+00  0.0000000000000D+00  0.0000000000000D+00
   349  3.4800000000000D+00  0.0000000000000D+00  0.0000000000000D+00
   350  3.4900000000000D+00  0.0000000000000D+00  0.0000000000000D+00
   351  3.5000000000000D+00  0.0000000000000D+00  0.0000000000000D+00
   352  3.5100000000000D+00  0.0000000000000D+00  0.0000000000000D+00
   353  3.5200000000000D+00  0.0000000000000D+00  0.0000000000000D+00
   354  3.5300000000000D+00  0.0000000000000D+00  0.0000000000000D+00
   355  3.5400000000000D+00  0.0000000000000D+00  0.0000000000000D+00
   356  3.5500000000000D+00  0.0000000000000D+00  0.0000000000000D+00
   357  3.5600000000000D+00  0.0000000000000D+00  0.0000000000000D+00
   358  3.5700000000000D+00  0.0000000000000D+00  0.0000000000000D+00
   359  3.5800000000000D+00  0.0000000000000D+00  0.0000000000000D+00
   360  3.5900000000000D+00  0.0000000000000D+00  0.0000000000000D+00
   361  3.6000000000000D+00  0.0000000000000D+00  0.0000000000000D+00
   362  3.6100000000000D+00  0.0000000000000D+00  0.0000000000000D+00
   363  3.6200000000000D+00  0.0000000000000D+00  0.0000000000000D+00
   364  3.6300000000000D+00  0.0000000000000D+00  0.0000000000000D+00
   365  3.6400000000000D+00  0.0000000000000D+00  0.0000000000000D+00
   366  3.6500000000000D+00  0.0000000000000D+00  0.0000000000000D+00
   367  3.6600000000000D+00  0.0000000000000D+00  0.0000000000000D+00
   368  3.6700000000000D+00  0.0000000000000D+00  0.0000000000000D+00
   369  3.6800000000000D+00  0.0000000000000D+00  0.0000000000000D+00
   370  3.6900000000000D+00  0.0000000000000D+00  0.0000000000000D+00
   371  3.7000000000000D+00  0.0000000000000D+00  0.0000000000000D+00
   372  3.7100000000000D+00  0.0000000000000D+00  0.0000000000000D+00
   373  3.7200000000000D+00  0.0000000000000D+00  0.0000000000000D+00
   374  3.7300000000000D+00  0.0000000000000D+00  0.0000000000000D+00
   375  3.7400000000000D+00  0.0000000000000D+00  0.0000000000000D+00
   376  3.7500000000000D+00  0.0000000000000D+00  0.0000000000000D+00
   377  3.7600000000000D+00  0.0000000000000D+00  0.0000000000000D+00
   378  3.7700000000000D+00  0.0000000000000D+00  0.0000000000000D+00
   379  3.7800000000000D+00  0.0000000000000D+00  0.0000000000000D+00
   380  3.7900000000000D+00  0.0000000000000D+00  0.0000000000000D+00
   381  3.8000000000000D+00  0.0000000000000D+00  0.0000000000000D+00
   382  3.8100000000000D+00  0.0000000000000D+00  0.0000000000000D+00
   383  3.8200000000000D+00  0.0000000000000D+00  0.0000000000000D+00
   384  3.8300000000000D+00  0.0000000000000D+00  0.0000000000000D+00
   385  3.8400000000000D+00  0.0000000000000D+00  0.0000000000000D+00
   386  3.8500000000000D+00  0.0000000000000D+00  0.0000000000000D+00
   387  3.8600000000000D+00  0.0000000000000D+00  0.0000000000000D+00
   388  3.8700000000000D+00  0.0000000000000D+00  0.0000000000000D+00
   389  3.8800000000000D+00  0.0000000000000D+00  0.0000000000000D+00
   390  3.8900000000000D+00  0.0000000000000D+00  0.0000000000000D+00
   391  3.9000000000000D+00  0.0000000000000D+00  0.0000000000000D+00
   392  3.9100000000000D+00  0.0000000000000D+00  0.0000000000000D+00
   393  3.9200000000000D+00  0.0000000000000D+00  0.0000000000000D+00
   394  3.9300000000000D+00  0.0000000000000D+00  0.0000000000000D+00
   395  3.9400000000000D+00  0.0000000000000D+00  0.0000000000000D+00
   396  3.9500000000000D+00  0.0000000000000D+00  0.0000000000000D+00
   397  3.9600000000000D+00  0.0000000000000D+00  0.0000000000000D+00
   398  3.9700000000000D+00  0.0000000000000D+00  0.0000000000000D+00
   399  3.9800000000000D+00  0.0000000000000D+00  0.0000000000000D+00
   400  3.9900000000000D+00  0.0000000000000D+00  0.0000000000000D+00
   401  4.0000000000000D+00  0.0000000000000D+00  0.0000000000000D+00
   402  4.0100000000000D+00  0.0000000000000D+00  0.0000000000000D+00
   403  4.0200000000000D+00  0.0000000000000D+00  0.0000000000000D+00
   404  4.0300000000000D+00  0.0000000000000D+00  0.0000000000000D+00
   405  4.0400000000000D+00  0.0000000000000D+00  0.0000000000000D+00
   406  4.0500000000000D+00  0.0000000000000D+00  0.0000000000000D+00
   407  4.0600000000000D+00  0.0000000000000D+00  0.0000000000000D+00
   408  4.0700000000000D+00  0.0000000000000D+00  0.0000000000000D+00
   409  4.0800000000000D+00  0.0000000000000D+00  0.0000000000000D+00
   410  4.0900000000000D+00  0.0000000000000D+00  0.0000000000000D+00
   411  4.1000000000000D+00  0.0000000000000D+00  0.0000000000000D+00
   412  4.1100000000000D+00  0.0000000000000D+00  0.0000000000000D+00
   413  4.1200000000000D+00  0.0000000000000D+00  0.0000000000000D+00
   414  4.1300000000000D+00  0.0000000000000D+00  0.0000000000000D+00
   415  4.1400000000000D+00  0.0000000000000D+00  0.0000000000000D+00
   416  4.1500000000000D+00  0.0000000000000D+00  0.0000000000000D+00
   417  4.1600000000000D+00  0.0000000000000D+00  0.0000000000000D+00
   418  4.1700000000000D+00  0.0000000000000D+00  0.0000000000000D+00
   419  4.1800000000000D+00  0.0000000000000D+00  0.0000000000000D+00
   420  4.1900000000000D+00  0.0000000000000D+00  0.0000000000000D+00
   421  4.2000000000000D+00  0.0000000000000D+00  0.0000000000000D+00
   422  4.2100000000000D+00  0.0000000000000D+00  0.0000000000000D+00