Cs    ONCVPSP-3.3.1  r_core=   2.56157   2.32843   2.19361
     55.0000      9.0000      210905    zatom,zion,pspd
     8 -116133   2     4   600     0    pspcod,pspxc,lmax,lloc,mmax,r2well
  5.99000000  0.00000000  0.00000000    rchrg fchrg qchrg
     2     2     2     0     0    nproj
     1     1           extension_switch
   0                         6.2678247049150D+00  8.2857596608644D-01
     1  0.0000000000000D+00  3.7866099145134D-12 -1.1759693913094D-11
     2  1.0000000000000D-02  2.1199225171142D-02  4.1365481503296D-03
     3  2.0000000000000D-02  4.2408653179777D-02  8.2254857519952D-03
     4  3.0000000000000D-02  6.3638402563744D-02  1.2219440407866D-02
     5  4.0000000000000D-02  8.4898423572158D-02  1.6071515111380D-02
     6  5.0000000000000D-02  1.0619841479658D-01  1.9735523663534D-02
     7  6.0000000000000D-02  1.2754774073014D-01  2.3166223364159D-02
     8  7.0000000000000D-02  1.4895535055958D-01  2.6319544082563D-02
     9  8.0000000000000D-02  1.7042969849136D-01  2.9152812824431D-02
    10  9.0000000000000D-02  1.9197866590821D-01  3.1624972926297D-02
    11  1.0000000000000D-01  2.1360948564715D-01  3.3696797026476D-02
    12  1.1000000000000D-01  2.3532866868313D-01  3.5331092981453D-02
    13  1.2000000000000D-01  2.5714193349543D-01  3.6492901919811D-02
    14  1.3000000000000D-01  2.7905413838537D-01  3.7149687651387D-02
    15  1.4000000000000D-01  3.0106921700491D-01  3.7271516677749D-02
    16  1.5000000000000D-01  3.2319011734586D-01  3.6831228081042D-02
    17  1.6000000000000D-01  3.4541874442844D-01  3.5804592601576D-02
    18  1.7000000000000D-01  3.6775590691650D-01  3.4170460250594D-02
    19  1.8000000000000D-01  3.9020126787455D-01  3.1910895842645D-02
    20  1.9000000000000D-01  4.1275329986843D-01  2.9011301872672D-02
    21  2.0000000000000D-01  4.3540924459800D-01  2.5460528205425D-02
    22  2.1000000000000D-01  4.5816507723572D-01  2.1250968089487D-02
    23  2.2000000000000D-01  4.8101547563006D-01  1.6378640054801D-02
    24  2.3000000000000D-01  5.0395379451698D-01  1.0843255301025D-02
    25  2.4000000000000D-01  5.2697204486679D-01  4.6482702340120D-03
    26  2.5000000000000D-01  5.5006087847686D-01 -2.1990761405753D-03
    27  2.6000000000000D-01  5.7320957790368D-01 -9.6877402046497D-03
    28  2.7000000000000D-01  5.9640605181030D-01 -1.7802867279739D-02
    29  2.8000000000000D-01  6.1963683578716D-01 -2.6525800872361D-02
    30  2.9000000000000D-01  6.4288709868633D-01 -3.5834107684738D-02
    31  3.0000000000000D-01  6.6614065449062D-01 -4.5701618406311D-02
    32  3.1000000000000D-01  6.8937997972042D-01 -5.6098484243584D-02
    33  3.2000000000000D-01  7.1258623636227D-01 -6.6991249088006D-02
    34  3.3000000000000D-01  7.3573930028440D-01 -7.8342937163497D-02
    35  3.4000000000000D-01  7.5881779508543D-01 -9.0113155936928D-02
    36  3.5000000000000D-01  7.8179913130343D-01 -1.0225821401689D-01
    37  3.6000000000000D-01  8.0465955089400D-01 -1.1473125370856D-01
    38  3.7000000000000D-01  8.2737417686694D-01 -1.2748239783523D-01
    39  3.8000000000000D-01  8.4991706795304D-01 -1.4045891038123D-01
    40  3.9000000000000D-01  8.7226127815376D-01 -1.5360537045520D-01
    41  4.0000000000000D-01  8.9437892100924D-01 -1.6686385901912D-01
    42  4.1000000000000D-01  9.1624123840213D-01 -1.8017415777563D-01
    43  4.2000000000000D-01  9.3781867369791D-01 -1.9347395955533D-01
    44  4.3000000000000D-01  9.5908094900574D-01 -2.0669908949644D-01
    45  4.4000000000000D-01  9.7999714632802D-01 -2.1978373626246D-01
    46  4.5000000000000D-01  1.0005357923513D+00 -2.3266069249810D-01
    47  4.6000000000000D-01  1.0206649466167D+00 -2.4526160368191D-01
    48  4.7000000000000D-01  1.0403522927944D+00 -2.5751722449383D-01
    49  4.8000000000000D-01  1.0595652327733D+00 -2.6935768177932D-01
    50  4.9000000000000D-01  1.0782709832640D+00 -2.8071274315753D-01
    51  5.0000000000000D-01  1.0964366746047D+00 -2.9151209029044D-01
    52  5.1000000000000D-01  1.1140294514457D+00 -3.0168559580250D-01
    53  5.2000000000000D-01  1.1310165749818D+00 -3.1116360281641D-01
    54  5.3000000000000D-01  1.1473655263918D+00 -3.1987720605063D-01
    55  5.4000000000000D-01  1.1630441111388D+00 -3.2775853340748D-01
    56  5.5000000000000D-01  1.1780205637771D+00 -3.3474102696886D-01
    57  5.6000000000000D-01  1.1922636529096D+00 -3.4075972230737D-01
    58  5.7000000000000D-01  1.2057427859319D+00 -3.4575152501698D-01
    59  5.8000000000000D-01  1.2184281132018D+00 -3.4965548336693D-01
    60  5.9000000000000D-01  1.2302906312675D+00 -3.5241305598668D-01
    61  6.0000000000000D-01  1.2413022847913D+00 -3.5396837349842D-01
    62  6.1000000000000D-01  1.2514360668051D+00 -3.5426849302616D-01
    63  6.2000000000000D-01  1.2606661169379D+00 -3.5326364452795D-01
    64  6.3000000000000D-01  1.2689678172590D+00 -3.5090746791877D-01
    65  6.4000000000000D-01  1.2763178853870D+00 -3.4715723997818D-01
    66  6.5000000000000D-01  1.2826944645199D+00 -3.4197409006623D-01
    67  6.6000000000000D-01  1.2880772100521D+00 -3.3532320370610D-01
    68  6.7000000000000D-01  1.2924473724507D+00 -3.2717401312999D-01
    69  6.8000000000000D-01  1.2957878760765D+00 -3.1750037392766D-01
    70  6.9000000000000D-01  1.2980833936456D+00 -3.0628072698327D-01
    71  7.0000000000000D-01  1.2993204160408D+00 -2.9349824493646D-01
    72  7.1000000000000D-01  1.2994873171967D+00 -2.7914096245786D-01
    73  7.2000000000000D-01  1.2985744137978D+00 -2.6320188968564D-01
    74  7.3000000000000D-01  1.2965740195442D+00 -2.4567910823156D-01
    75  7.4000000000000D-01  1.2934804937588D+00 -2.2657584922741D-01
    76  7.5000000000000D-01  1.2892902841267D+00 -2.0590055295005D-01
    77  7.6000000000000D-01  1.2840019633782D+00 -1.8366690963165D-01
    78  7.7000000000000D-01  1.2776162597454D+00 -1.5989388113357D-01
    79  7.8000000000000D-01  1.2701360810459D+00 -1.3460570323503D-01
    80  7.9000000000000D-01  1.2615665322655D+00 -1.0783186836350D-01
    81  8.0000000000000D-01  1.2519149265373D+00 -7.9607088669662D-02
    82  8.1000000000000D-01  1.2411907894348D+00 -4.9971239427768D-02
    83  8.2000000000000D-01  1.2294058565218D+00 -1.8969282820487D-02
    84  8.3000000000000D-01  1.2165740641247D+00  1.3348827753610D-02
    85  8.4000000000000D-01  1.2027115333166D+00  4.6928262632872D-02
    86  8.5000000000000D-01  1.1878365471267D+00  8.1709449809787D-02
    87  8.6000000000000D-01  1.1719695210139D+00  1.1762822743819D-01
    88  8.7000000000000D-01  1.1551329666654D+00  1.5461601447910D-01
    89  8.8000000000000D-01  1.1373514492073D+00  1.9259999895710D-01
    90  8.9000000000000D-01  1.1186515379376D+00  2.3150334322527D-01
    91  9.0000000000000D-01  1.0990617507143D+00  2.7124540556351D-01
    92  9.1000000000000D-01  1.0786124921558D+00  3.1174197736514D-01
    93  9.2000000000000D-01  1.0573359858345D+00  3.5290553509873D-01
    94  9.3000000000000D-01  1.0352662006623D+00  3.9464550616746D-01
    95  9.4000000000000D-01  1.0124387716952D+00  4.3686854772664D-01
    96  9.5000000000000D-01  9.8889091559710D-01  4.7947883746200D-01
    97  9.6000000000000D-01  9.6466134102898D-01  5.2237837527724D-01
    98  9.7000000000000D-01  9.3979015424499D-01  5.6546729478966D-01
    99  9.8000000000000D-01  9.1431876019634D-01  6.0864418348581D-01
   100  9.9000000000000D-01  8.8828975946027D-01  6.5180641034943D-01
   101  1.0000000000000D+00  8.6174684132703D-01  6.9485045973649D-01
   102  1.0100000000000D+00  8.3473467339228D-01  7.3767227024160D-01
   103  1.0200000000000D+00  8.0729878801550D-01  7.8016757727340D-01
   104  1.0300000000000D+00  7.7948546601669D-01  8.2223225803600D-01
   105  1.0400000000000D+00  7.5134161799378D-01  8.6376267759862D-01
   106  1.0500000000000D+00  7.2291466365268D-01  9.0465603472480D-01
   107  1.0600000000000D+00  6.9425240954869D-01  9.4481070612932D-01
   108  1.0700000000000D+00  6.6540292564445D-01  9.8412658783194D-01
   109  1.0800000000000D+00  6.3641442109348D-01  1.0225054322856D+00
   110  1.0900000000000D+00  6.0733511966147D-01  1.0598511799672D+00
   111  1.1000000000000D+00  5.7821313519876D-01  1.0960702841400D+00
   112  1.1100000000000D+00  5.4909634757694D-01  1.1310720275197D+00
   113  1.1200000000000D+00  5.2003227950050D-01  1.1647688296073D+00
   114  1.1300000000000D+00  4.9106797460093D-01  1.1970765434856D+00
   115  1.1400000000000D+00  4.6224987721631D-01  1.2279147409148D+00
   116  1.1500000000000D+00  4.3362371425184D-01  1.2572069846128D+00
   117  1.1600000000000D+00  4.0523437950870D-01  1.2848810866541D+00
   118  1.1700000000000D+00  3.7712582085989D-01  1.3108693519752D+00
   119  1.1800000000000D+00  3.4934093064093D-01  1.3351088060285D+00
   120  1.1900000000000D+00  3.2192143960964D-01  1.3575414057024D+00
   121  1.2000000000000D+00  2.9490781481397D-01  1.3781142326930D+00
   122  1.2100000000000D+00  2.6833916169930D-01  1.3967796685551D+00
   123  1.2200000000000D+00  2.4225313076166D-01  1.4134955507728D+00
   124  1.2300000000000D+00  2.1668582903855D-01  1.4282253092549D+00
   125  1.2400000000000D+00  1.9167173671564D-01  1.4409380827181D+00
   126  1.2500000000000D+00  1.6724362910478D-01  1.4516088145229D+00
   127  1.2600000000000D+00  1.4343250422402D-01  1.4602183276235D+00
   128  1.2700000000000D+00  1.2026751619784D-01  1.4667533783451D+00
   129  1.2800000000000D+00  9.7775914674407D-02  1.4712066887927D+00
   130  1.2900000000000D+00  7.5982990421084D-02  1.4735769578245D+00
   131  1.3000000000000D+00  5.4912027253568D-02  1.4738688505533D+00
   132  1.3100000000000D+00  3.4584260428081D-02  1.4720929664322D+00
   133  1.3200000000000D+00  1.5018841584603D-02  1.4682657861334D+00
   134  1.3300000000000D+00 -3.7671896653108D-03  1.4624095974091D+00
   135  1.3400000000000D+00 -2.1758927452911D-02  1.4545524002652D+00
   136  1.3500000000000D+00 -3.8943614653267D-02  1.4447277919071D+00
   137  1.3600000000000D+00 -5.5310651135896D-02  1.4329748318429D+00
   138  1.3700000000000D+00 -7.0851595301497D-02  1.4193378877774D+00
   139  1.3800000000000D+00 -8.5560158941533D-02  1.4038664629167D+00
   140  1.3900000000000D+00 -9.9432195455575D-02  1.3866150053134D+00
   141  1.4000000000000D+00 -1.1246568154351D-01  1.3676427001171D+00
   142  1.4100000000000D+00 -1.2466069244332D-01  1.3470132454627D+00
   143  1.4200000000000D+00 -1.3601937084820D-01  1.3247946129118D+00
   144  1.4300000000000D+00 -1.4654588965938D-01  1.3010587934078D+00
   145  1.4400000000000D+00 -1.5624640869731D-01  1.2758815296341D+00
   146  1.4500000000000D+00 -1.6512902559618D-01  1.2493420359022D+00
   147  1.4600000000000D+00 -1.7320372103524D-01  1.2215227065292D+00
   148  1.4700000000000D+00 -1.8048229854092D-01  1.1925088138504D+00
   149  1.4800000000000D+00 -1.8697831908171D-01  1.1623881969531D+00
   150  1.4900000000000D+00 -1.9270703067441D-01  1.1312509422582D+00
   151  1.5000000000000D+00 -1.9768529328695D-01  1.0991890571084D+00
   152  1.5100000000000D+00 -2.0193149925265D-01  1.0662961375012D+00
   153  1.5200000000000D+00 -2.0546548950903D-01  1.0326670311241D+00
   154  1.5300000000000D+00 -2.0830846590374D-01  9.9839749684468D-01
   155  1.5400000000000D+00 -2.1048289987388D-01  9.6358386179874D-01
   156  1.5500000000000D+00 -2.1201243777442D-01  9.2832267717723D-01
   157  1.5600000000000D+00 -2.1292180315539D-01  8.9271037388034D-01
   158  1.5700000000000D+00 -2.1323669627719D-01  8.5684291899924D-01
   159  1.5800000000000D+00 -2.1298369116800D-01  8.2081547436199D-01
   160  1.5900000000000D+00 -2.1219013050391D-01  7.8472205788250D-01
   161  1.6000000000000D+00 -2.1088401863047D-01  7.4865520904509D-01
   162  1.6100000000000D+00 -2.0909391297954D-01  7.1270565900346D-01
   163  1.6200000000000D+00 -2.0684881421664D-01  6.7696200667990D-01
   164  1.6300000000000D+00 -2.0417805534128D-01  6.4151040113850D-01
   165  1.6400000000000D+00 -2.0111119008032D-01  6.0643423155421D-01
   166  1.6500000000000D+00 -1.9767788076973D-01  5.7181382492515D-01
   167  1.6600000000000D+00 -1.9390778605797D-01  5.3772615271725D-01
   168  1.6700000000000D+00 -1.8983044859905D-01  5.0424454646809D-01
   169  1.6800000000000D+00 -1.8547518305643D-01  4.7143842340055D-01
   170  1.6900000000000D+00 -1.8087096455347D-01  4.3937302192653D-01
   171  1.7000000000000D+00 -1.7604631788006D-01  4.0810914797332D-01
   172  1.7100000000000D+00 -1.7102920754899D-01  3.7770293182286D-01
   173  1.7200000000000D+00 -1.6584692900668D-01  3.4820559632143D-01
   174  1.7300000000000D+00 -1.6052600073252D-01  3.1966323436219D-01
   175  1.7400000000000D+00 -1.5509205855004D-01  2.9211660162787D-01
   176  1.7500000000000D+00 -1.4956975207053D-01  2.6560092395764D-01
   177  1.7600000000000D+00 -1.4398263302629D-01  2.4014566595664D-01
   178  1.7700000000000D+00 -1.3835309028970D-01  2.1577452991372D-01
   179  1.7800000000000D+00 -1.3270220661502D-01  1.9250508876808D-01
   180  1.7900000000000D+00 -1.2704959140754D-01  1.7034824755805D-01
   181  1.8000000000000D+00 -1.2141351456541D-01  1.4930927725332D-01
   182  1.8100000000000D+00 -1.1581094517638D-01  1.2938837807155D-01
   183  1.8200000000000D+00 -1.1025766032324D-01  1.1058140518685D-01
   184  1.8300000000000D+00 -1.0476844580418D-01  9.2881074235567D-02
   185  1.8400000000000D+00 -9.9357082637927D-02  7.6277037417440D-02
   186  1.8500000000000D+00 -9.4036304353525D-02  6.0755763888703D-02
   187  1.8600000000000D+00 -8.8817811566690D-02  4.6300726508510D-02
   188  1.8700000000000D+00 -8.3712294569403D-02  3.2892632019678D-02
   189  1.8800000000000D+00 -7.8729438646802D-02  2.0509541210665D-02
   190  1.8900000000000D+00 -7.3877944108914D-02  9.1270609028251D-03
   191  1.9000000000000D+00 -6.9165544432500D-02 -1.2814832823945D-03
   192  1.9100000000000D+00 -6.4599028004921D-02 -1.0744864310759D-02
   193  1.9200000000000D+00 -6.0184262221346D-02 -1.9293767316783D-02
   194  1.9300000000000D+00 -5.5926219887520D-02 -2.6960600333584D-02
   195  1.9400000000000D+00 -5.1829007657172D-02 -3.3779302932054D-02
   196  1.9500000000000D+00 -4.7895896367199D-02 -3.9785153898671D-02
   197  1.9600000000000D+00 -4.4129353077989D-02 -4.5014578693683D-02
   198  1.9700000000000D+00 -4.0531074624297D-02 -4.9504957537414D-02
   199  1.9800000000000D+00 -3.7102022490181D-02 -5.3294435394870D-02
   200  1.9900000000000D+00 -3.3842458858461D-02 -5.6421733839301D-02
   201  2.0000000000000D+00 -3.0751983569389D-02 -5.8925966894269D-02
   202  2.0100000000000D+00 -2.7829571916685D-02 -6.0846460254759D-02
   203  2.0200000000000D+00 -2.5073612999487D-02 -6.2222575750915D-02
   204  2.0300000000000D+00 -2.2481948501789D-02 -6.3093541331452D-02
   205  2.0400000000000D+00 -2.0051911780867D-02 -6.3498286777327D-02
   206  2.0500000000000D+00 -1.7780366921824D-02 -6.3475287244690D-02
   207  2.0600000000000D+00 -1.5663747879224D-02 -6.3062413038858D-02
   208  2.0700000000000D+00 -1.3698097233237D-02 -6.2296788530175D-02
   209  2.0800000000000D+00 -1.1879104654512D-02 -6.1214658969391D-02
   210  2.0900000000000D+00 -1.0202144877893D-02 -5.9851266073824D-02
   211  2.1000000000000D+00 -8.6623148767603D-03 -5.8240733965195D-02
   212  2.1100000000000D+00 -7.2544705427363D-03 -5.6415963060854D-02
   213  2.1200000000000D+00 -5.9732621499838D-03 -5.4408535840845D-02
   214  2.1300000000000D+00 -4.8131689919116D-03 -5.2248631773191D-02
   215  2.1400000000000D+00 -3.7685329462876D-03 -4.9964952476760D-02
   216  2.1500000000000D+00 -2.8335907285644D-03 -4.7584658271209D-02
   217  2.1600000000000D+00 -2.0025051774650D-03 -4.5133313493957D-02
   218  2.1700000000000D+00 -1.2693948712544D-03 -4.2634844233063D-02
   219  2.1800000000000D+00 -6.2836251597664D-04 -4.0111505651459D-02
   220  2.1900000000000D+00 -7.3522032571489D-05 -3.7583858960336D-02
   221  2.2000000000000D+00  4.0097624127887D-04 -3.5070760600650D-02
   222  2.2100000000000D+00  8.0092154930690D-04 -3.2589359700978D-02
   223  2.2200000000000D+00  1.1320202966208D-03 -3.0155105733749D-02
   224  2.2300000000000D+00  1.3998751972080D-03 -2.7781765693285D-02
   225  2.2400000000000D+00  1.6099656017467D-03 -2.5481448524254D-02
   226  2.2500000000000D+00  1.7676299507252D-03 -2.3264640880585D-02
   227  2.2600000000000D+00  1.8780493437441D-03 -2.1140249174454D-02
   228  2.2700000000000D+00  1.9462326416841D-03 -1.9115649440319D-02
   229  2.2800000000000D+00  1.9770032695395D-03 -1.7196745341332D-02
   230  2.2900000000000D+00  1.9749871970481D-03 -1.5388031651116D-02
   231  2.3000000000000D+00  1.9446023909694D-03 -1.3692664103061D-02
   232  2.3100000000000D+00  1.8900496165209D-03 -1.2112534643618D-02
   233  2.3200000000000D+00  1.8153042813175D-03 -1.0648350611955D-02
   234  2.3300000000000D+00  1.7241098100513D-03 -9.2997190212742D-03
   235  2.3400000000000D+00  1.6199720000671D-03 -8.0652337008801D-03
   236  2.3500000000000D+00  1.5061544156214D-03 -6.9425651713244D-03
   237  2.3600000000000D+00  1.3856748944225D-03 -5.9285525631109D-03
   238  2.3700000000000D+00  1.2613029011322D-03 -5.0192969535906D-03
   239  2.3800000000000D+00  1.1355577425805D-03 -4.2102553768201D-03
   240  2.3900000000000D+00  1.0107075753778D-03 -3.4963344537271D-03
   241  2.4000000000000D+00  8.8876911200503D-04 -2.8719840107714D-03
   242  2.4100000000000D+00  7.7150792667065D-04 -2.3312889268855D-03
   243  2.4200000000000D+00  6.6043927016766D-04 -1.8680585755596D-03
   244  2.4300000000000D+00  5.5682945613661D-04 -1.4759150069515D-03
   245  2.4400000000000D+00  4.6169752494077D-04 -1.1483766996521D-03
   246  2.4500000000000D+00  3.7581720467396D-04 -8.7893841683106D-04
   247  2.4600000000000D+00  2.9971933352816D-04 -6.6114873203149D-04
   248  2.4700000000000D+00  2.3369420573164D-04 -4.8868046084766D-04
   249  2.4800000000000D+00  1.7781481599546D-04 -3.5548801642190D-04
   250  2.4900000000000D+00  1.3186311541550D-04 -2.5553065909494D-04
   251  2.5000000000000D+00  9.5408804289559D-05 -1.8316322250740D-04
   252  2.5100000000000D+00  6.7525759682505D-05 -1.3244751910014D-04
   253  2.5200000000000D+00  4.7882758011318D-05 -1.0003481579211D-04
   254  2.5300000000000D+00  3.5606758346860D-05 -8.2191425213478D-05
   255  2.5400000000000D+00  3.0297803353510D-05 -7.7156827756933D-05
   256  2.5500000000000D+00  2.8021831528371D-05 -7.5485324586705D-05
   257  2.5600000000000D+00  2.5482697466521D-05 -6.9840951534067D-05
   258  2.5700000000000D+00  1.8651816778443D-05 -5.1403442985634D-05
   259  2.5800000000000D+00  9.8044107192564D-06 -2.7029568784566D-05
   260  2.5900000000000D+00  1.5613131340942D-06 -4.2939804700552D-06
   261  2.6000000000000D+00 -2.1691538123591D-06  6.0766218733703D-06
   262  2.6100000000000D+00 -2.3416823934425D-06  6.5692323042644D-06
   263  2.6200000000000D+00 -6.9466061399686D-07  1.9505023330175D-06
   264  2.6300000000000D+00  3.9659513410952D-07 -1.1139433511181D-06
   265  2.6400000000000D+00  5.5530010582106D-07 -1.5614891724635D-06
   266  2.6500000000000D+00  2.4031279771429D-07 -6.7640208768362D-07
   267  2.6600000000000D+00 -3.8243864822643D-08  1.0485768058094D-07
   268  2.6700000000000D+00 -7.0518737631912D-08  1.9334947709574D-07
   269  2.6800000000000D+00 -4.1313926688336D-08  1.1327522854502D-07
   270  2.6900000000000D+00  0.0000000000000D+00  0.0000000000000D+00
   271  2.7000000000000D+00  0.0000000000000D+00  0.0000000000000D+00
   272  2.7100000000000D+00  0.0000000000000D+00  0.0000000000000D+00
   273  2.7200000000000D+00  0.0000000000000D+00  0.0000000000000D+00
   274  2.7300000000000D+00  0.0000000000000D+00  0.0000000000000D+00
   275  2.7400000000000D+00  0.0000000000000D+00  0.0000000000000D+00
   276  2.7500000000000D+00  0.0000000000000D+00  0.0000000000000D+00
   277  2.7600000000000D+00  0.0000000000000D+00  0.0000000000000D+00
   278  2.7700000000000D+00  0.0000000000000D+00  0.0000000000000D+00
   279  2.7800000000000D+00  0.0000000000000D+00  0.0000000000000D+00
   280  2.7900000000000D+00  0.0000000000000D+00  0.0000000000000D+00
   281  2.8000000000000D+00  0.0000000000000D+00  0.0000000000000D+00
   282  2.8100000000000D+00  0.0000000000000D+00  0.0000000000000D+00
   283  2.8200000000000D+00  0.0000000000000D+00  0.0000000000000D+00
   284  2.8300000000000D+00  0.0000000000000D+00  0.0000000000000D+00
   285  2.8400000000000D+00  0.0000000000000D+00  0.0000000000000D+00
   286  2.8500000000000D+00  0.0000000000000D+00  0.0000000000000D+00
   287  2.8600000000000D+00  0.0000000000000D+00  0.0000000000000D+00
   288  2.8700000000000D+00  0.0000000000000D+00  0.0000000000000D+00
   289  2.8800000000000D+00  0.0000000000000D+00  0.0000000000000D+00
   290  2.8900000000000D+00  0.0000000000000D+00  0.0000000000000D+00
   291  2.9000000000000D+00  0.0000000000000D+00  0.0000000000000D+00
   292  2.9100000000000D+00  0.0000000000000D+00  0.0000000000000D+00
   293  2.9200000000000D+00  0.0000000000000D+00  0.0000000000000D+00
   294  2.9300000000000D+00  0.0000000000000D+00  0.0000000000000D+00
   295  2.9400000000000D+00  0.0000000000000D+00  0.0000000000000D+00
   296  2.9500000000000D+00  0.0000000000000D+00  0.0000000000000D+00
   297  2.9600000000000D+00  0.0000000000000D+00  0.0000000000000D+00
   298  2.9700000000000D+00  0.0000000000000D+00  0.0000000000000D+00
   299  2.9800000000000D+00  0.0000000000000D+00  0.0000000000000D+00
   300  2.9900000000000D+00  0.0000000000000D+00  0.0000000000000D+00
   301  3.0000000000000D+00  0.0000000000000D+00  0.0000000000000D+00
   302  3.0100000000000D+00  0.0000000000000D+00  0.0000000000000D+00
   303  3.0200000000000D+00  0.0000000000000D+00  0.0000000000000D+00
   304  3.0300000000000D+00  0.0000000000000D+00  0.0000000000000D+00
   305  3.0400000000000D+00  0.0000000000000D+00  0.0000000000000D+00
   306  3.0500000000000D+00  0.0000000000000D+00  0.0000000000000D+00
   307  3.0600000000000D+00  0.0000000000000D+00  0.0000000000000D+00
   308  3.0700000000000D+00  0.0000000000000D+00  0.0000000000000D+00
   309  3.0800000000000D+00  0.0000000000000D+00  0.0000000000000D+00
   310  3.0900000000000D+00  0.0000000000000D+00  0.0000000000000D+00
   311  3.1000000000000D+00  0.0000000000000D+00  0.0000000000000D+00
   312  3.1100000000000D+00  0.0000000000000D+00  0.0000000000000D+00
   313  3.1200000000000D+00  0.0000000000000D+00  0.0000000000000D+00
   314  3.1300000000000D+00  0.0000000000000D+00  0.0000000000000D+00
   315  3.1400000000000D+00  0.0000000000000D+00  0.0000000000000D+00
   316  3.1500000000000D+00  0.0000000000000D+00  0.0000000000000D+00
   317  3.1600000000000D+00  0.0000000000000D+00  0.0000000000000D+00
   318  3.1700000000000D+00  0.0000000000000D+00  0.0000000000000D+00
   319  3.1800000000000D+00  0.0000000000000D+00  0.0000000000000D+00
   320  3.1900000000000D+00  0.0000000000000D+00  0.0000000000000D+00
   321  3.2000000000000D+00  0.0000000000000D+00  0.0000000000000D+00
   322  3.2100000000000D+00  0.0000000000000D+00  0.0000000000000D+00
   323  3.2200000000000D+00  0.0000000000000D+00  0.0000000000000D+00
   324  3.2300000000000D+00  0.0000000000000D+00  0.0000000000000D+00
   325  3.2400000000000D+00  0.0000000000000D+00  0.0000000000000D+00
   326  3.2500000000000D+00  0.0000000000000D+00  0.0000000000000D+00
   327  3.2600000000000D+00  0.0000000000000D+00  0.0000000000000D+00
   328  3.2700000000000D+00  0.0000000000000D+00  0.0000000000000D+00
   329  3.2800000000000D+00  0.0000000000000D+00  0.0000000000000D+00
   330  3.2900000000000D+00  0.0000000000000D+00  0.0000000000000D+00
   331  3.3000000000000D+00  0.0000000000000D+00  0.0000000000000D+00
   332  3.3100000000000D+00  0.0000000000000D+00  0.0000000000000D+00
   333  3.3200000000000D+00  0.0000000000000D+00  0.0000000000000D+00
   334  3.3300000000000D+00  0.0000000000000D+00  0.0000000000000D+00
   335  3.3400000000000D+00  0.0000000000000D+00  0.0000000000000D+00
   336  3.3500000000000D+00  0.0000000000000D+00  0.0000000000000D+00
   337  3.3600000000000D+00  0.0000000000000D+00  0.0000000000000D+00
   338  3.3700000000000D+00  0.0000000000000D+00  0.0000000000000D+00
   339  3.3800000000000D+00  0.0000000000000D+00  0.0000000000000D+00
   340  3.3900000000000D+00  0.0000000000000D+00  0.0000000000000D+00
   341  3.4000000000000D+00  0.0000000000000D+00  0.0000000000000D+00
   342  3.4100000000000D+00  0.0000000000000D+00  0.0000000000000D+00
   343  3.4200000000000D+00  0.0000000000000D+00  0.0000000000000D+00
   344  3.4300000000000D+00  0.0000000000000D+00  0.0000000000000D+00
   345  3.4400000000000D+00  0.0000000000000D+00  0.0000000000000D+00
   346  3.4500000000000D+00  0.0000000000000D+00  0.0000000000000D+00
   347  3.4600000000000D+00  0.0000000000000D+00  0.0000000000000D+00
   348  3.4700000000000D+00  0.0000000000000D+00  0.0000000000000D+00
   349  3.4800000000000D+00  0.0000000000000D+00  0.0000000000000D+00
   350  3.4900000000000D+00  0.0000000000000D+00  0.0000000000000D+00
   351  3.5000000000000D+00  0.0000000000000D+00  0.0000000000000D+00
   352  3.5100000000000D+00  0.0000000000000D+00  0.0000000000000D+00
   353  3.5200000000000D+00  0.0000000000000D+00  0.0000000000000D+00
   354  3.5300000000000D+00  0.0000000000000D+00  0.0000000000000D+00
   355  3.5400000000000D+00  0.0000000000000D+00  0.0000000000000D+00
   356  3.5500000000000D+00  0.0000000000000D+00  0.0000000000000D+00
   357  3.5600000000000D+00  0.0000000000000D+00  0.0000000000000D+00
   358  3.5700000000000D+00  0.0000000000000D+00  0.0000000000000D+00
   359  3.5800000000000D+00  0.0000000000000D+00  0.0000000000000D+00
   360  3.5900000000000D+00  0.0000000000000D+00  0.0000000000000D+00
   361  3.6000000000000D+00  0.0000000000000D+00  0.0000000000000D+00
   362  3.6100000000000D+00  0.0000000000000D+00  0.0000000000000D+00
   363  3.6200000000000D+00  0.0000000000000D+00  0.0000000000000D+00
   364  3.6300000000000D+00  0.0000000000000D+00  0.0000000000000D+00
   365  3.6400000000000D+00  0.0000000000000D+00  0.0000000000000D+00
   366  3.6500000000000D+00  0.0000000000000D+00  0.0000000000000D+00
   367  3.6600000000000D+00  0.0000000000000D+00  0.0000000000000D+00
   368  3.6700000000000D+00  0.0000000000000D+00  0.0000000000000D+00
   369  3.6800000000000D+00  0.0000000000000D+00  0.0000000000000D+00
   370  3.6900000000000D+00  0.0000000000000D+00  0.0000000000000D+00
   371  3.7000000000000D+00  0.0000000000000D+00  0.0000000000000D+00
   372  3.7100000000000D+00  0.0000000000000D+00  0.0000000000000D+00
   373  3.7200000000000D+00  0.0000000000000D+00  0.0000000000000D+00
   374  3.7300000000000D+00  0.0000000000000D+00  0.0000000000000D+00
   375  3.7400000000000D+00  0.0000000000000D+00  0.0000000000000D+00
   376  3.7500000000000D+00  0.0000000000000D+00  0.0000000000000D+00
   377  3.7600000000000D+00  0.0000000000000D+00  0.0000000000000D+00
   378  3.7700000000000D+00  0.0000000000000D+00  0.0000000000000D+00
   379  3.7800000000000D+00  0.0000000000000D+00  0.0000000000000D+00
   380  3.7900000000000D+00  0.0000000000000D+00  0.0000000000000D+00
   381  3.8000000000000D+00  0.0000000000000D+00  0.0000000000000D+00
   382  3.8100000000000D+00  0.0000000000000D+00  0.0000000000000D+00
   383  3.8200000000000D+00  0.0000000000000D+00  0.0000000000000D+00
   384  3.8300000000000D+00  0.0000000000000D+00  0.0000000000000D+00
   385  3.8400000000000D+00  0.0000000000000D+00  0.0000000000000D+00
   386  3.8500000000000D+00  0.0000000000000D+00  0.0000000000000D+00
   387  3.8600000000000D+00  0.0000000000000D+00  0.0000000000000D+00
   388  3.8700000000000D+00  0.0000000000000D+00  0.0000000000000D+00
   389  3.8800000000000D+00  0.0000000000000D+00  0.0000000000000D+00
   390  3.8900000000000D+00  0.0000000000000D+00  0.0000000000000D+00
   391  3.9000000000000D+00  0.0000000000000D+00  0.0000000000000D+00
   392  3.9100000000000D+00  0.0000000000000D+00  0.0000000000000D+00
   393  3.9200000000000D+00  0.0000000000000D+00  0.0000000000000D+00
   394  3.9300000000000D+00  0.0000000000000D+00  0.0000000000000D+00
   395  3.9400000000000D+00  0.0000000000000D+00  0.0000000000000D+00
   396  3.9500000000000D+00  0.0000000000000D+00  0.0000000000000D+00
   397  3.9600000000000D+00  0.0000000000000D+00  0.0000000000000D+00
   398  3.9700000000000D+00  0.0000000000000D+00  0.0000000000000D+00
   399  3.9800000000000D+00  0.0000000000000D+00  0.0000000000000D+00
   400  3.9900000000000D+00  0.0000000000000D+00  0.0000000000000D+00
   401  4.0000000000000D+00  0.0000000000000D+00  0.0000000000000D+00
   402  4.0100000000000D+00  0.0000000000000D+00  0.0000000000000D+00
   403  4.0200000000000D+00  0.0000000000000D+00  0.0000000000000D+00
   404  4.0300000000000D+00  0.0000000000000D+00  0.0000000000000D+00
   405  4.0400000000000D+00  0.0000000000000D+00  0.0000000000000D+00
   406  4.0500000000000D+00  0.0000000000000D+00  0.0000000000000D+00
   407  4.0600000000000D+00  0.0000000000000D+00  0.0000000000000D+00
   408  4.0700000000000D+00  0.0000000000000D+00  0.0000000000000D+00
   409  4.0800000000000D+00  0.0000000000000D+00  0.0000000000000D+00
   410  4.0900000000000D+00  0.0000000000000D+00  0.0000000000000D+00
   411  4.1000000000000D+00  0.0000000000000D+00  0.0000000000000D+00
   412  4.1100000000000D+00  0.0000000000000D+00  0.0000000000000D+00
   413  4.1200000000000D+00  0.0000000000000D+00  0.0000000000000D+00
   414  4.1300000000000D+00  0.0000000000000D+00  0.0000000000000D+00
   415  4.1400000000000D+00  0.0000000000000D+00  0.0000000000000D+00
   416  4.1500000000000D+00  0.0000000000000D+00  0.0000000000000D+00
   417  4.1600000000000D+00  0.0000000000000D+00  0.0000000000000D+00
   418  4.1700000000000D+00  0.0000000000000D+00  0.0000000000000D+00
   419  4.1800000000000D+00  0.0000000000000D+00  0.0000000000000D+00
   420  4.1900000000000D+00  0.0000000000000D+00  0.0000000000000D+00
   421  4.2000000000000D+00  0.0000000000000D+00  0.0000000000000D+00
   422  4.2100000000000D+00  0.0000000000000D+00  0.0000000000000D+00