Cu    ONCVPSP-3.3.1  r_core=   1.91598   1.87081   1.89326
     29.0000     19.0000      210905    zatom,zion,pspd
     8 -116133   2     4   600     0    pspcod,pspxc,lmax,lloc,mmax,r2well
  5.99000000  0.00000000  0.00000000    rchrg fchrg qchrg
     2     2     2     0    nproj
     3     1           extension_switch
     3     3     0    nprojso
   0                        -3.2623078108114D+00 -9.7695289064880D-02
     1  0.0000000000000D+00 -7.2513106630367D-12  2.4777363494266D-10
     2  1.0000000000000D-02  4.3562196655403D-02  3.2577505616332D-02
     3  2.0000000000000D-02  8.7074691196473D-02  6.5088691466947D-02
     4  3.0000000000000D-02  1.3048787233688D-01  9.7466932352272D-02
     5  4.0000000000000D-02  1.7375231014433D-01  1.2964499823488D-01
     6  5.0000000000000D-02  2.1681884596446D-01  1.6155476683179D-01
     7  6.0000000000000D-02  2.5963868144622D-01  1.9312695404334D-01
     8  7.0000000000000D-02  3.0216346637766D-01  2.2429086787097D-01
     9  8.0000000000000D-02  3.4434538504868D-01  2.5497419122824D-01
    10  9.0000000000000D-02  3.8613724086571D-01  2.8510279874383D-01
    11  1.0000000000000D-01  4.2749253895446D-01  3.1460061229443D-01
    12  1.1000000000000D-01  4.6836556649863D-01  3.4338949959272D-01
    13  1.2000000000000D-01  5.0871147057630D-01  3.7138921969498D-01
    14  1.3000000000000D-01  5.4848633327056D-01  3.9851741878835D-01
    15  1.4000000000000D-01  5.8764724384714D-01  4.2468967907336D-01
    16  1.5000000000000D-01  6.2615236780918D-01  4.4981962297911D-01
    17  1.6000000000000D-01  6.6396101265740D-01  4.7381907434025D-01
    18  1.7000000000000D-01  7.0103369020308D-01  4.9659827753401D-01
    19  1.8000000000000D-01  7.3733217530102D-01  5.1806617492541D-01
    20  1.9000000000000D-01  7.7281956088980D-01  5.3813074230796D-01
    21  2.0000000000000D-01  8.0746030924745D-01  5.5669938135953D-01
    22  2.1000000000000D-01  8.4122029939131D-01  5.7367936746647D-01
    23  2.2000000000000D-01  8.7406687057171D-01  5.8897835060832D-01
    24  2.3000000000000D-01  9.0596886183001D-01  6.0250490634819D-01
    25  2.4000000000000D-01  9.3689664761165D-01  6.1416913334515D-01
    26  2.5000000000000D-01  9.6682216944521D-01  6.2388329320083D-01
    27  2.6000000000000D-01  9.9571896371758D-01  6.3156248788017D-01
    28  2.7000000000000D-01  1.0235621855941D+00  6.3712536940880D-01
    29  2.8000000000000D-01  1.0503286291506D+00  6.4049487605522D-01
    30  2.9000000000000D-01  1.0759967437998D+00  6.4159898875759D-01
    31  3.0000000000000D-01  1.1005466471126D+00  6.4037150115813D-01
    32  3.1000000000000D-01  1.1239601341459D+00  6.3675279626727D-01
    33  3.2000000000000D-01  1.1462206834046D+00  6.3069062249753D-01
    34  3.3000000000000D-01  1.1673134595746D+00  6.2214086158878D-01
    35  3.4000000000000D-01  1.1872253131759D+00  6.1106828079255D-01
    36  3.5000000000000D-01  1.2059447772908D+00  5.9744726159816D-01
    37  3.6000000000000D-01  1.2234620615314D+00  5.8126249726661D-01
    38  3.7000000000000D-01  1.2397690434142D+00  5.6250965149320D-01
    39  3.8000000000000D-01  1.2548592573140D+00  5.4119597064526D-01
    40  3.9000000000000D-01  1.2687278811696D+00  5.1734084221791D-01
    41  4.0000000000000D-01  1.2813717211166D+00  4.9097629241772D-01
    42  4.1000000000000D-01  1.2927891942176D+00  4.6214741611944D-01
    43  4.2000000000000D-01  1.3029803094594D+00  4.3091273284449D-01
    44  4.3000000000000D-01  1.3119466471817D+00  3.9734446287622D-01
    45  4.4000000000000D-01  1.3196913370941D+00  3.6152871815544D-01
    46  4.5000000000000D-01  1.3262190350323D+00  3.2356560318670D-01
    47  4.6000000000000D-01  1.3315358985948D+00  2.8356922182341D-01
    48  4.7000000000000D-01  1.3356495617904D+00  2.4166758648976D-01
    49  4.8000000000000D-01  1.3385691088170D+00  1.9800242712786D-01
    50  4.9000000000000D-01  1.3403050470785D+00  1.5272889792752D-01
    51  5.0000000000000D-01  1.3408692795358D+00  1.0601518069824D-01
    52  5.1000000000000D-01  1.3402750764705D+00  5.8041984568221D-02
    53  5.2000000000000D-01  1.3385370467301D+00  9.0019425413160D-03
    54  5.3000000000000D-01  1.3356711085053D+00 -4.0901093700599D-02
    55  5.4000000000000D-01  1.3316944596773D+00 -9.1452858500546D-02
    56  5.5000000000000D-01  1.3266255477580D+00 -1.4242957332573D-01
    57  5.6000000000000D-01  1.3204840394294D+00 -1.9359894030500D-01
    58  5.7000000000000D-01  1.3132907896779D+00 -2.4472122341354D-01
    59  5.8000000000000D-01  1.3050678105009D+00 -2.9555041170546D-01
    60  5.9000000000000D-01  1.2958382391540D+00 -3.4583545821857D-01
    61  6.0000000000000D-01  1.2856263058909D+00 -3.9532158743618D-01
    62  6.1000000000000D-01  1.2744573011399D+00 -4.4375166349816D-01
    63  6.2000000000000D-01  1.2623575420470D+00 -4.9086761071109D-01
    64  6.3000000000000D-01  1.2493543383107D+00 -5.3641187732236D-01
    65  6.4000000000000D-01  1.2354759572200D+00 -5.8012893300311D-01
    66  6.5000000000000D-01  1.2207515878068D+00 -6.2176679003070D-01
    67  6.6000000000000D-01  1.2052113040129D+00 -6.6107853778209D-01
    68  6.7000000000000D-01  1.1888860267739D+00 -6.9782387984802D-01
    69  6.8000000000000D-01  1.1718074849157D+00 -7.3177066285439D-01
    70  6.9000000000000D-01  1.1540081747642D+00 -7.6269638594097D-01
    71  7.0000000000000D-01  1.1355213183646D+00 -7.9038967979512D-01
    72  7.1000000000000D-01  1.1163808202180D+00 -8.1465174417351D-01
    73  7.2000000000000D-01  1.0966212224402D+00 -8.3529773296970D-01
    74  7.3000000000000D-01  1.0762776582609D+00 -8.5215807609761D-01
    75  7.4000000000000D-01  1.0553858037881D+00 -8.6507972776333D-01
    76  7.5000000000000D-01  1.0339818279718D+00 -8.7392733108218D-01
    77  7.6000000000000D-01  1.0121023407164D+00 -8.7858428947383D-01
    78  7.7000000000000D-01  9.8978433910151D-01 -8.7895373582009D-01
    79  7.8000000000000D-01  9.6706515168935D-01 -8.7495939100367D-01
    80  7.9000000000000D-01  9.4398238091068D-01 -8.6654630415257D-01
    81  8.0000000000000D-01  9.2057384354050D-01 -8.5368146769150D-01
    82  8.1000000000000D-01  8.9687750929309D-01 -8.3635430114210D-01
    83  8.2000000000000D-01  8.7293143758548D-01 -8.1457699851157D-01
    84  8.3000000000000D-01  8.4877371253884D-01 -7.8838473505926D-01
    85  8.4000000000000D-01  8.2444237630826D-01 -7.5783573022517D-01
    86  8.5000000000000D-01  7.9997536085248D-01 -7.2301116453398D-01
    87  8.6000000000000D-01  7.7541041827678D-01 -6.8401494934884D-01
    88  8.7000000000000D-01  7.5078504990320D-01 -6.4097334942874D-01
    89  8.8000000000000D-01  7.2613643424376D-01 -5.9403445933565D-01
    90  8.9000000000000D-01  7.0150135407278D-01 -5.4336753583397D-01
    91  9.0000000000000D-01  6.7691612281439D-01 -4.8916218951455D-01
    92  9.1000000000000D-01  6.5241651048057D-01 -4.3162743995273D-01
    93  9.2000000000000D-01  6.2803766941290D-01 -3.7099063976260D-01
    94  9.3000000000000D-01  6.0381406009826D-01 -3.0749627393194D-01
    95  9.4000000000000D-01  5.7977937734380D-01 -2.4140464180382D-01
    96  9.5000000000000D-01  5.5596647711025D-01 -1.7299043000360D-01
    97  9.6000000000000D-01  5.3240730431474D-01 -1.0254118548727D-01
    98  9.7000000000000D-01  5.0913282192388D-01 -3.0355698698907D-02
    99  9.8000000000000D-01  4.8617294166599D-01  4.3257692429666D-02
   100  9.9000000000000D-01  4.6355645669675D-01  1.1798286624745D-01
   101  1.0000000000000D+00  4.4131097655577D-01  1.9349773694671D-01
   102  1.0100000000000D+00  4.1946286475275D-01  2.6947611745022D-01
   103  1.0200000000000D+00  3.9803717931950D-01  3.4558961276425D-01
   104  1.0300000000000D+00  3.7705761666060D-01  4.2150953063440D-01
   105  1.0400000000000D+00  3.5654645902796D-01  4.9690879614326D-01
   106  1.0500000000000D+00  3.3652452593503D-01  5.7146385680094D-01
   107  1.0600000000000D+00  3.1701112981530D-01  6.4485656467379D-01
   108  1.0700000000000D+00  2.9802403621369D-01  7.1677602222647D-01
   109  1.0800000000000D+00  2.7957942878301D-01  7.8692037876500D-01
   110  1.0900000000000D+00  2.6169187933789D-01  8.5499856470028D-01
   111  1.1000000000000D+00  2.4437432319578D-01  9.2073195129465D-01
   112  1.1100000000000D+00  2.2763804001320D-01  9.8385592401272D-01
   113  1.1200000000000D+00  2.1149264029499D-01  1.0441213583211D+00
   114  1.1300000000000D+00  1.9594605772965D-01  1.1012959874115D+00
   115  1.1400000000000D+00  1.8100454746905D-01  1.1551656522576D+00
   116  1.1500000000000D+00  1.6667269044902D-01  1.2055354250176D+00
   117  1.1600000000000D+00  1.5295340380221D-01  1.2522305980945D+00
   118  1.1700000000000D+00  1.3984795738839D-01  1.2950975319761D+00
   119  1.1800000000000D+00  1.2735599642865D-01  1.3340043561847D+00
   120  1.1900000000000D+00  1.1547557020208D-01  1.3688415185184D+00
   121  1.2000000000000D+00  1.0420316671596D-01  1.3995221793440D+00
   122  1.2100000000000D+00  9.3533753228574D-02  1.4259824487824D+00
   123  1.2200000000000D+00  8.3460822478376D-02  1.4481814654822D+00
   124  1.2300000000000D+00  7.3976444423273D-02  1.4661013174099D+00
   125  1.2400000000000D+00  6.5071323262240D-02  1.4797468062522D+00
   126  1.2500000000000D+00  5.6734859486290D-02  1.4891450579422D+00
   127  1.2600000000000D+00  4.8955216668665D-02  1.4943449831788D+00
   128  1.2700000000000D+00  4.1719392663677D-02  1.4954165933997D+00
   129  1.2800000000000D+00  3.5013294870078D-02  1.4924501782245D+00
   130  1.2900000000000D+00  2.8821819183384D-02  1.4855553515852D+00
   131  1.3000000000000D+00  2.3128932222812D-02  1.4748599754600D+00
   132  1.3100000000000D+00  1.7917756417518D-02  1.4605089701952D+00
   133  1.3200000000000D+00  1.3170657505143D-02  1.4426630217172D+00
   134  1.3300000000000D+00  8.8693339724721D-03  1.4214971972309D+00
   135  1.3400000000000D+00  4.9949079733565D-03  1.3971994806932D+00
   136  1.3500000000000D+00  1.5280172278819D-03  1.3699692409205D+00
   137  1.3600000000000D+00 -1.5510925885310D-03  1.3400156455152D+00
   138  1.3700000000000D+00 -4.2624754641953D-03  1.3075560336454D+00
   139  1.3800000000000D+00 -6.6263931827880D-03  1.2728142620602D+00
   140  1.3900000000000D+00 -8.6632244553772D-03  1.2360190379650D+00
   141  1.4000000000000D+00 -1.0393375561410D-02  1.1974022532249D+00
   142  1.4100000000000D+00 -1.1837192956312D-02  1.1571973337516D+00
   143  1.4200000000000D+00 -1.3014878339400D-02  1.1156376183390D+00
   144  1.4300000000000D+00 -1.3946406623635D-02  1.0729547807126D+00
   145  1.4400000000000D+00 -1.4651447225414D-02  1.0293773076910D+00
   146  1.4500000000000D+00 -1.5149289135444D-02  9.8512904766615D-01
   147  1.4600000000000D+00 -1.5458770076760D-02  9.4042783983657D-01
   148  1.4700000000000D+00 -1.5598210201110D-02  8.9548423818759D-01
   149  1.4800000000000D+00 -1.5585350570706D-02  8.5050033920154D-01
   150  1.4900000000000D+00 -1.5437296759217D-02  8.0566872429277D-01
   151  1.5000000000000D+00 -1.5170467849561D-02  7.6117152675837D-01
   152  1.5100000000000D+00 -1.4800550964665D-02  7.1717962884851D-01
   153  1.5200000000000D+00 -1.4342461666053D-02  6.7385200039237D-01
   154  1.5300000000000D+00 -1.3810310158808D-02  6.3133517890361D-01
   155  1.5400000000000D+00 -1.3217373636734D-02  5.8976290265410D-01
   156  1.5500000000000D+00 -1.2576074605248D-02  5.4925589359486D-01
   157  1.5600000000000D+00 -1.1897965383789D-02  5.0992179776895D-01
   158  1.5700000000000D+00 -1.1193718638037D-02  4.7185528039839D-01
   159  1.5800000000000D+00 -1.0473123940293D-02  4.3513827715237D-01
   160  1.5900000000000D+00 -9.7450902503640D-03  3.9984040004053D-01
   161  1.6000000000000D+00 -9.0176541099194D-03  3.6601949304170D-01
   162  1.6100000000000D+00 -8.2979934803584D-03  3.3372233712804D-01
   163  1.6200000000000D+00 -7.5924468332942D-03  3.0298549388933D-01
   164  1.6300000000000D+00 -6.9065375325605D-03  2.7383631260003D-01
   165  1.6400000000000D+00 -6.2450023570766D-03  2.4629391754525D-01
   166  1.6500000000000D+00 -5.6118265141406D-03  2.2037082052384D-01
   167  1.6600000000000D+00 -5.0102773539504D-03  1.9607327438648D-01
   168  1.6700000000000D+00 -4.4429493820691D-03  1.7340357402674D-01
   169  1.6800000000000D+00 -3.9118163408477D-03  1.5236372957912D-01
   170  1.6900000000000D+00 -3.4182560177527D-03  1.3295082141626D-01
   171  1.7000000000000D+00 -2.9630833619272D-03  1.1515390552103D-01
   172  1.7100000000000D+00 -2.5465826712163D-03  9.8951414618651D-02
   173  1.7200000000000D+00 -2.1685320624335D-03  8.4305964725607D-02
   174  1.7300000000000D+00 -1.8282587753904D-03  7.1167361184707D-02
   175  1.7400000000000D+00 -1.5246933599136D-03  5.9475400422066D-02
   176  1.7500000000000D+00 -1.2564171718057D-03  4.9160354020405D-02
   177  1.7600000000000D+00 -1.0217142390390D-03  4.0144767763171D-02
   178  1.7700000000000D+00 -8.1862135914020D-04  3.2344887798656D-02
   179  1.7800000000000D+00 -6.4497762726430D-04  2.5672115138296D-02
   180  1.7900000000000D+00 -4.9847249155065D-04  2.0034424968491D-02
   181  1.8000000000000D+00 -3.7669215834600D-04  1.5337728219250D-02
   182  1.8100000000000D+00 -2.7716367406676D-04  1.1487162387532D-02
   183  1.8200000000000D+00 -1.9739654813217D-04  8.3883074128397D-03
   184  1.8300000000000D+00 -1.3492141877450D-04  5.9483118781579D-03
   185  1.8400000000000D+00 -8.7325456060221D-05  4.0769205433144D-03
   186  1.8500000000000D+00 -5.2281233150150D-05  2.6874501713297D-03
   187  1.8600000000000D+00 -2.7572673841120D-05  1.6976261269724D-03
   188  1.8700000000000D+00 -1.1174584495172D-05  1.0293969115179D-03
   189  1.8800000000000D+00 -1.2701686356523D-06  6.0826129522861D-04
   190  1.8900000000000D+00  4.1779563228666D-06  3.7645578074785D-04
   191  1.9000000000000D+00  6.9895861732500D-06  2.8406788759725D-04
   192  1.9100000000000D+00  7.6644311409401D-06  2.5106170212245D-04
   193  1.9200000000000D+00  5.9702813332938D-06  1.9223256090773D-04
   194  1.9300000000000D+00  2.6399744586722D-06  8.6531481589985D-05
   195  1.9400000000000D+00 -1.5561050219414D-07 -4.8786706168490D-06
   196  1.9500000000000D+00 -7.3809128851450D-07 -2.3213817296039D-05
   197  1.9600000000000D+00 -1.7573197033153D-07 -5.5530234684510D-06
   198  1.9700000000000D+00  1.5930251352200D-07  4.7257036317095D-06
   199  1.9800000000000D+00  1.1116191217189D-07  3.2823532257407D-06
   200  1.9900000000000D+00 -1.1737775646573D-08 -3.7871396566514D-07
   201  2.0000000000000D+00 -1.8546012400688D-08 -5.9837861235574D-07
   202  2.0100000000000D+00  0.0000000000000D+00  0.0000000000000D+00
   203  2.0200000000000D+00  0.0000000000000D+00  0.0000000000000D+00
   204  2.0300000000000D+00  0.0000000000000D+00  0.0000000000000D+00
   205  2.0400000000000D+00  0.0000000000000D+00  0.0000000000000D+00
   206  2.0500000000000D+00  0.0000000000000D+00  0.0000000000000D+00
   207  2.0600000000000D+00  0.0000000000000D+00  0.0000000000000D+00
   208  2.0700000000000D+00  0.0000000000000D+00  0.0000000000000D+00
   209  2.0800000000000D+00  0.0000000000000D+00  0.0000000000000D+00
   210  2.0900000000000D+00  0.0000000000000D+00  0.0000000000000D+00
   211  2.1000000000000D+00  0.0000000000000D+00  0.0000000000000D+00
   212  2.1100000000000D+00  0.0000000000000D+00  0.0000000000000D+00
   213  2.1200000000000D+00  0.0000000000000D+00  0.0000000000000D+00
   214  2.1300000000000D+00  0.0000000000000D+00  0.0000000000000D+00
   215  2.1400000000000D+00  0.0000000000000D+00  0.0000000000000D+00
   216  2.1500000000000D+00  0.0000000000000D+00  0.0000000000000D+00
   217  2.1600000000000D+00  0.0000000000000D+00  0.0000000000000D+00
   218  2.1700000000000D+00  0.0000000000000D+00  0.0000000000000D+00
   219  2.1800000000000D+00  0.0000000000000D+00  0.0000000000000D+00
   220  2.1900000000000D+00  0.0000000000000D+00  0.0000000000000D+00
   221  2.2000000000000D+00  0.0000000000000D+00  0.0000000000000D+00
   222  2.2100000000000D+00  0.0000000000000D+00  0.0000000000000D+00
   223  2.2200000000000D+00  0.0000000000000D+00  0.0000000000000D+00
   224  2.2300000000000D+00  0.0000000000000D+00  0.0000000000000D+00
   225  2.2400000000000D+00  0.0000000000000D+00  0.0000000000000D+00
   226  2.2500000000000D+00  0.0000000000000D+00  0.0000000000000D+00
   227  2.2600000000000D+00  0.0000000000000D+00  0.0000000000000D+00
   228  2.2700000000000D+00  0.0000000000000D+00  0.0000000000000D+00
   229  2.2800000000000D+00  0.0000000000000D+00  0.0000000000000D+00
   230  2.2900000000000D+00  0.0000000000000D+00  0.0000000000000D+00
   231  2.3000000000000D+00  0.0000000000000D+00  0.0000000000000D+00
   232  2.3100000000000D+00  0.0000000000000D+00  0.0000000000000D+00
   233  2.3200000000000D+00  0.0000000000000D+00  0.0000000000000D+00
   234  2.3300000000000D+00  0.0000000000000D+00  0.0000000000000D+00
   235  2.3400000000000D+00  0.0000000000000D+00  0.0000000000000D+00
   236  2.3500000000000D+00  0.0000000000000D+00  0.0000000000000D+00
   237  2.3600000000000D+00  0.0000000000000D+00  0.0000000000000D+00
   238  2.3700000000000D+00  0.0000000000000D+00  0.0000000000000D+00
   239  2.3800000000000D+00  0.0000000000000D+00  0.0000000000000D+00
   240  2.3900000000000D+00  0.0000000000000D+00  0.0000000000000D+00
   241  2.4000000000000D+00  0.0000000000000D+00  0.0000000000000D+00
   242  2.4100000000000D+00  0.0000000000000D+00  0.0000000000000D+00
   243  2.4200000000000D+00  0.0000000000000D+00  0.0000000000000D+00
   244  2.4300000000000D+00  0.0000000000000D+00  0.0000000000000D+00
   245  2.4400000000000D+00  0.0000000000000D+00  0.0000000000000D+00
   246  2.4500000000000D+00  0.0000000000000D+00  0.0000000000000D+00
   247  2.4600000000000D+00  0.0000000000000D+00  0.0000000000000D+00
   248  2.4700000000000D+00  0.0000000000000D+00  0.0000000000000D+00
   249  2.4800000000000D+00  0.0000000000000D+00  0.0000000000000D+00
   250  2.4900000000000D+00  0.0000000000000D+00  0.0000000000000D+00
   251  2.5000000000000D+00  0.0000000000000D+00  0.0000000000000D+00
   252  2.5100000000000D+00  0.0000000000000D+00  0.0000000000000D+00
   253  2.5200000000000D+00  0.0000000000000D+00  0.0000000000000D+00
   254  2.5300000000000D+00  0.0000000000000D+00  0.0000000000000D+00
   255  2.5400000000000D+00  0.0000000000000D+00  0.0000000000000D+00
   256  2.5500000000000D+00  0.0000000000000D+00  0.0000000000000D+00
   257  2.5600000000000D+00  0.0000000000000D+00  0.0000000000000D+00
   258  2.5700000000000D+00  0.0000000000000D+00  0.0000000000000D+00
   259  2.5800000000000D+00  0.0000000000000D+00  0.0000000000000D+00
   260  2.5900000000000D+00  0.0000000000000D+00  0.0000000000000D+00
   261  2.6000000000000D+00  0.0000000000000D+00  0.0000000000000D+00
   262  2.6100000000000D+00  0.0000000000000D+00  0.0000000000000D+00
   263  2.6200000000000D+00  0.0000000000000D+00  0.0000000000000D+00
   264  2.6300000000000D+00  0.0000000000000D+00  0.0000000000000D+00
   265  2.6400000000000D+00  0.0000000000000D+00  0.0000000000000D+00
   266  2.6500000000000D+00  0.0000000000000D+00  0.0000000000000D+00
   267  2.6600000000000D+00  0.0000000000000D+00  0.0000000000000D+00
   268  2.6700000000000D+00  0.0000000000000D+00  0.0000000000000D+00
   269  2.6800000000000D+00  0.0000000000000D+00  0.0000000000000D+00
   270  2.6900000000000D+00  0.0000000000000D+00  0.0000000000000D+00
   271  2.7000000000000D+00  0.0000000000000D+00  0.0000000000000D+00
   272  2.7100000000000D+00  0.0000000000000D+00  0.0000000000000D+00
   273  2.7200000000000D+00  0.0000000000000D+00  0.0000000000000D+00
   274  2.7300000000000D+00  0.0000000000000D+00  0.0000000000000D+00
   275  2.7400000000000D+00  0.0000000000000D+00  0.0000000000000D+00
   276  2.7500000000000D+00  0.0000000000000D+00  0.0000000000000D+00
   277  2.7600000000000D+00  0.0000000000000D+00  0.0000000000000D+00
   278  2.7700000000000D+00  0.0000000000000D+00  0.0000000000000D+00
   279  2.7800000000000D+00  0.0000000000000D+00  0.0000000000000D+00
   280  2.7900000000000D+00  0.0000000000000D+00  0.0000000000000D+00
   281  2.8000000000000D+00  0.0000000000000D+00  0.0000000000000D+00
   282  2.8100000000000D+00  0.0000000000000D+00  0.0000000000000D+00
   283  2.8200000000000D+00  0.0000000000000D+00  0.0000000000000D+00
   284  2.8300000000000D+00  0.0000000000000D+00  0.0000000000000D+00
   285  2.8400000000000D+00  0.0000000000000D+00  0.0000000000000D+00
   286  2.8500000000000D+00  0.0000000000000D+00  0.0000000000000D+00
   287  2.8600000000000D+00  0.0000000000000D+00  0.0000000000000D+00
   288  2.8700000000000D+00  0.0000000000000D+00  0.0000000000000D+00
   289  2.8800000000000D+00  0.0000000000000D+00  0.0000000000000D+00
   290  2.8900000000000D+00  0.0000000000000D+00  0.0000000000000D+00
   291  2.9000000000000D+00  0.0000000000000D+00  0.0000000000000D+00
   292  2.9100000000000D+00  0.0000000000000D+00  0.0000000000000D+00
   293  2.9200000000000D+00  0.0000000000000D+00  0.0000000000000D+00
   294  2.9300000000000D+00  0.0000000000000D+00  0.0000000000000D+00
   295  2.9400000000000D+00  0.0000000000000D+00  0.0000000000000D+00
   296  2.9500000000000D+00  0.0000000000000D+00  0.0000000000000D+00
   297  2.9600000000000D+00  0.0000000000000D+00  0.0000000000000D+00
   298  2.9700000000000D+00  0.0000000000000D+00  0.0000000000000D+00
   299  2.9800000000000D+00  0.0000000000000D+00  0.0000000000000D+00
   300  2.9900000000000D+00  0.0000000000000D+00  0.0000000000000D+00
   301  3.0000000000000D+00  0.0000000000000D+00  0.0000000000000D+00
   302  3.0100000000000D+00  0.0000000000000D+00  0.0000000000000D+00
   303  3.0200000000000D+00  0.0000000000000D+00  0.0000000000000D+00
   304  3.0300000000000D+00  0.0000000000000D+00  0.0000000000000D+00
   305  3.0400000000000D+00  0.0000000000000D+00  0.0000000000000D+00
   306  3.0500000000000D+00  0.0000000000000D+00  0.0000000000000D+00
   307  3.0600000000000D+00  0.0000000000000D+00  0.0000000000000D+00
   308  3.0700000000000D+00  0.0000000000000D+00  0.0000000000000D+00
   309  3.0800000000000D+00  0.0000000000000D+00  0.0000000000000D+00
   310  3.0900000000000D+00  0.0000000000000D+00  0.0000000000000D+00
   311  3.1000000000000D+00  0.0000000000000D+00  0.0000000000000D+00
   312  3.1100000000000D+00  0.0000000000000D+00  0.0000000000000D+00
   313  3.1200000000000D+00  0.0000000000000D+00  0.0000000000000D+00
   314  3.1300000000000D+00  0.0000000000000D+00  0.0000000000000D+00
   315  3.1400000000000D+00  0.0000000000000D+00  0.0000000000000D+00
   316  3.1500000000000D+00  0.0000000000000D+00  0.0000000000000D+00
   317  3.1600000000000D+00  0.0000000000000D+00  0.0000000000000D+00
   318  3.1700000000000D+00  0.0000000000000D+00  0.0000000000000D+00
   319  3.1800000000000D+00  0.0000000000000D+00  0.0000000000000D+00
   320  3.1900000000000D+00  0.0000000000000D+00  0.0000000000000D+00
   321  3.2000000000000D+00  0.0000000000000D+00  0.0000000000000D+00
   322  3.2100000000000D+00  0.0000000000000D+00  0.0000000000000D+00
   323  3.2200000000000D+00  0.0000000000000D+00  0.0000000000000D+00
   324  3.2300000000000D+00  0.0000000000000D+00  0.0000000000000D+00
   325  3.2400000000000D+00  0.0000000000000D+00  0.0000000000000D+00
   326  3.2500000000000D+00  0.0000000000000D+00  0.0000000000000D+00
   327  3.2600000000000D+00  0.0000000000000D+00  0.0000000000000D+00
   328  3.2700000000000D+00  0.0000000000000D+00  0.0000000000000D+00
   329  3.2800000000000D+00  0.0000000000000D+00  0.0000000000000D+00
   330  3.2900000000000D+00  0.0000000000000D+00  0.0000000000000D+00
   331  3.3000000000000D+00  0.0000000000000D+00  0.0000000000000D+00
   332  3.3100000000000D+00  0.0000000000000D+00  0.0000000000000D+00
   333  3.3200000000000D+00  0.0000000000000D+00  0.0000000000000D+00
   334  3.3300000000000D+00  0.0000000000000D+00  0.0000000000000D+00
   335  3.3400000000000D+00  0.0000000000000D+00  0.0000000000000D+00
   336  3.3500000000000D+00  0.0000000000000D+00  0.0000000000000D+00
   337  3.3600000000000D+00  0.0000000000000D+00  0.0000000000000D+00
   338  3.3700000000000D+00  0.0000000000000D+00  0.0000000000000D+00
   339  3.3800000000000D+00  0.0000000000000D+00  0.0000000000000D+00
   340  3.3900000000000D+00  0.0000000000000D+00  0.0000000000000D+00
   341  3.4000000000000D+00  0.0000000000000D+00  0.0000000000000D+00
   342  3.4100000000000D+00  0.0000000000000D+00  0.0000000000000D+00
   343  3.4200000000000D+00  0.0000000000000D+00  0.0000000000000D+00
   344  3.4300000000000D+00  0.0000000000000D+00  0.0000000000000D+00
   345  3.4400000000000D+00  0.0000000000000D+00  0.0000000000000D+00
   346  3.4500000000000D+00  0.0000000000000D+00  0.0000000000000D+00
   347  3.4600000000000D+00  0.0000000000000D+00  0.0000000000000D+00
   348  3.4700000000000D+00  0.0000000000000D+00  0.0000000000000D+00
   349  3.4800000000000D+00  0.0000000000000D+00  0.0000000000000D+00
   350  3.4900000000000D+00  0.0000000000000D+00  0.0000000000000D+00
   351  3.5000000000000D+00  0.0000000000000D+00  0.0000000000000D+00
   352  3.5100000000000D+00  0.0000000000000D+00  0.0000000000000D+00
   353  3.5200000000000D+00  0.0000000000000D+00  0.0000000000000D+00
   354  3.5300000000000D+00  0.0000000000000D+00  0.0000000000000D+00
   355  3.5400000000000D+00  0.0000000000000D+00  0.0000000000000D+00
   356  3.5500000000000D+00  0.0000000000000D+00  0.0000000000000D+00
   357  3.5600000000000D+00  0.0000000000000D+00  0.0000000000000D+00
   358  3.5700000000000D+00  0.0000000000000D+00  0.0000000000000D+00
   359  3.5800000000000D+00  0.0000000000000D+00  0.0000000000000D+00
   360  3.5900000000000D+00  0.0000000000000D+00  0.0000000000000D+00
   361  3.6000000000000D+00  0.0000000000000D+00  0.0000000000000D+00
   362  3.6100000000000D+00  0.0000000000000D+00  0.0000000000000D+00
   363  3.6200000000000D+00  0.0000000000000D+00  0.0000000000000D+00
   364  3.6300000000000D+00  0.0000000000000D+00  0.0000000000000D+00
   365  3.6400000000000D+00  0.0000000000000D+00  0.0000000000000D+00
   366  3.6500000000000D+00  0.0000000000000D+00  0.0000000000000D+00
   367  3.6600000000000D+00  0.0000000000000D+00  0.0000000000000D+00
   368  3.6700000000000D+00  0.0000000000000D+00  0.0000000000000D+00
   369  3.6800000000000D+00  0.0000000000000D+00  0.0000000000000D+00
   370  3.6900000000000D+00  0.0000000000000D+00  0.0000000000000D+00
   371  3.7000000000000D+00  0.0000000000000D+00  0.0000000000000D+00
   372  3.7100000000000D+00  0.0000000000000D+00  0.0000000000000D+00
   373  3.7200000000000D+00  0.0000000000000D+00  0.0000000000000D+00
   374  3.7300000000000D+00  0.0000000000000D+00  0.0000000000000D+00
   375  3.7400000000000D+00  0.0000000000000D+00  0.0000000000000D+00
   376  3.7500000000000D+00  0.0000000000000D+00  0.0000000000000D+00
   377  3.7600000000000D+00  0.0000000000000D+00  0.0000000000000D+00
   378  3.7700000000000D+00  0.0000000000000D+00  0.0000000000000D+00
   379  3.7800000000000D+00  0.0000000000000D+00  0.0000000000000D+00
   380  3.7900000000000D+00  0.0000000000000D+00  0.0000000000000D+00
   381  3.8000000000000D+00  0.0000000000000D+00  0.0000000000000D+00
   382  3.8100000000000D+00  0.0000000000000D+00  0.0000000000000D+00
   383  3.8200000000000D+00  0.0000000000000D+00  0.0000000000000D+00
   384  3.8300000000000D+00  0.0000000000000D+00  0.0000000000000D+00
   385  3.8400000000000D+00  0.0000000000000D+00  0.0000000000000D+00
   386  3.8500000000000D+00  0.0000000000000D+00  0.0000000000000D+00
   387  3.8600000000000D+00  0.0000000000000D+00  0.0000000000000D+00
   388  3.8700000000000D+00  0.0000000000000D+00  0.0000000000000D+00
   389  3.8800000000000D+00  0.0000000000000D+00  0.0000000000000D+00
   390  3.8900000000000D+00  0.0000000000000D+00  0.0000000000000D+00
   391  3.9000000000000D+00  0.0000000000000D+00  0.0000000000000D+00
   392  3.9100000000000D+00  0.0000000000000D+00  0.0000000000000D+00
   393  3.9200000000000D+00  0.0000000000000D+00  0.0000000000000D+00
   394  3.9300000000000D+00  0.0000000000000D+00  0.0000000000000D+00
   395  3.9400000000000D+00  0.0000000000000D+00  0.0000000000000D+00
   396  3.9500000000000D+00  0.0000000000000D+00  0.0000000000000D+00
   397  3.9600000000000D+00  0.0000000000000D+00  0.0000000000000D+00
   398  3.9700000000000D+00  0.0000000000000D+00  0.0000000000000D+00
   399  3.9800000000000D+00  0.0000000000000D+00  0.0000000000000D+00
   400  3.9900000000000D+00  0.0000000000000D+00  0.0000000000000D+00
   401  4.0000000000000D+00  0.0000000000000D+00  0.0000000000000D+00
   402  4.0100000000000D+00  0.0000000000000D+00  0.0000000000000D+00
   403  4.0200000000000D+00  0.0000000000000D+00  0.0000000000000D+00
   404  4.0300000000000D+00  0.0000000000000D+00  0.0000000000000D+00
   405  4.0400000000000D+00  0.0000000000000D+00  0.0000000000000D+00
   406  4.0500000000000D+00  0.0000000000000D+00  0.0000000000000D+00
   407  4.0600000000000D+00  0.0000000000000D+00  0.0000000000000D+00
   408  4.0700000000000D+00  0.0000000000000D+00  0.0000000000000D+00
   409  4.0800000000000D+00  0.0000000000000D+00  0.0000000000000D+00
   410  4.0900000000000D+00  0.0000000000000D+00  0.0000000000000D+00
   411  4.1000000000000D+00  0.0000000000000D+00  0.0000000000000D+00
   412  4.1100000000000D+00  0.0000000000000D+00  0.0000000000000D+00
   413  4.1200000000000D+00  0.0000000000000D+00  0.0000000000000D+00
   414  4.1300000000000D+00  0.0000000000000D+00  0.0000000000000D+00
   415  4.1400000000000D+00  0.0000000000000D+00  0.0000000000000D+00
   416  4.1500000000000D+00  0.0000000000000D+00  0.0000000000000D+00
   417  4.1600000000000D+00  0.0000000000000D+00  0.0000000000000D+00
   418  4.1700000000000D+00  0.0000000000000D+00  0.0000000000000D+00
   419  4.1800000000000D+00  0.0000000000000D+00  0.0000000000000D+00
   420  4.1900000000000D+00  0.0000000000000D+00  0.0000000000000D+00
   421  4.2000000000000D+00  0.0000000000000D+00  0.0000000000000D+00
   422  4.2100000000000D+00  0.0000000000000D+00  0.0000000000000D+00