Cu    ONCVPSP-3.3.1  r_core=   1.91598   1.87081   1.89326
     29.0000     19.0000      210905    zatom,zion,pspd
     8 -116133   2     4   600     0    pspcod,pspxc,lmax,lloc,mmax,r2well
  5.99000000  0.00000000  0.00000000    rchrg fchrg qchrg
     2     2     2     0     0    nproj
     1     1           extension_switch
   0                        -3.2646594910063D+00 -9.7028324428825D-02
     1  0.0000000000000D+00 -7.2656325400544D-12  2.4685681276893D-10
     2  1.0000000000000D-02  4.3570294154878D-02  3.2305928762843D-02
     3  2.0000000000000D-02  8.7090865088296D-02  6.4545876894841D-02
     4  3.0000000000000D-02  1.3051208046654D-01  9.6653560505541D-02
     5  4.0000000000000D-02  1.7378448942916D-01  1.2856209518654D-01
     6  5.0000000000000D-02  2.1685891257187D-01  1.6020371069249D-01
     7  6.0000000000000D-02  2.5968653103011D-01  1.9150948337389D-01
     8  7.0000000000000D-02  3.0221897437217D-01  2.2240909198682D-01
     9  8.0000000000000D-02  3.4440840701785D-01  2.5283060225795D-01
    10  9.0000000000000D-02  3.8620761290772D-01  2.8270028527851D-01
    11  1.0000000000000D-01  4.2757007815879D-01  3.1194247444166D-01
    12  1.1000000000000D-01  4.6845007145414D-01  3.4047946522655D-01
    13  1.2000000000000D-01  5.0880272192825D-01  3.6823146167387D-01
    14  1.3000000000000D-01  5.4858409432424D-01  3.9511657289437D-01
    15  1.4000000000000D-01  5.8775126121571D-01  4.2105086241061D-01
    16  1.5000000000000D-01  6.2626237210313D-01  4.4594845255550D-01
    17  1.6000000000000D-01  6.6407671921289D-01  4.6972168554601D-01
    18  1.7000000000000D-01  7.0115479984632D-01  4.9228134222146D-01
    19  1.8000000000000D-01  7.3745837514574D-01  5.1353691878903D-01
    20  1.9000000000000D-01  7.7295052516479D-01  5.3339696126042D-01
    21  2.0000000000000D-01  8.0759570015105D-01  5.5176945659939D-01
    22  2.1000000000000D-01  8.4135976796971D-01  5.6856227893505D-01
    23  2.2000000000000D-01  8.7421005761790D-01  5.8368368853941D-01
    24  2.3000000000000D-01  9.0611539880014D-01  5.9704288062145D-01
    25  2.4000000000000D-01  9.3704615755569D-01  6.0855058036540D-01
    26  2.5000000000000D-01  9.6697426794868D-01  6.1811968003882D-01
    27  2.6000000000000D-01  9.9587325985129D-01  6.2566591342585D-01
    28  2.7000000000000D-01  1.0237182828688D+00  6.3110856230760D-01
    29  2.8000000000000D-01  1.0504861264735D+00  6.3437118921766D-01
    30  2.9000000000000D-01  1.0761552364304D+00  6.3538239025662D-01
    31  3.0000000000000D-01  1.1007057276142D+00  6.3407656135258D-01
    32  3.1000000000000D-01  1.1241193933313D+00  6.3039467101751D-01
    33  3.2000000000000D-01  1.1463797112725D+00  6.2428503236776D-01
    34  3.3000000000000D-01  1.1674718462345D+00  6.1570406695989D-01
    35  3.4000000000000D-01  1.1873826497594D+00  6.0461705284162D-01
    36  3.5000000000000D-01  1.2061006568471D+00  5.9099884913181D-01
    37  3.6000000000000D-01  1.2236160799048D+00  5.7483458942872D-01
    38  3.7000000000000D-01  1.2399208001024D+00  5.5612033640100D-01
    39  3.8000000000000D-01  1.2550083563048D+00  5.3486369004083D-01
    40  3.9000000000000D-01  1.2688739317550D+00  5.1108434225605D-01
    41  4.0000000000000D-01  1.2815143386830D+00  4.8481457074360D-01
    42  4.1000000000000D-01  1.2929280010105D+00  4.5609966542288D-01
    43  4.2000000000000D-01  1.3031149353221D+00  4.2499828110845D-01
    44  4.3000000000000D-01  1.3120767302673D+00  3.9158271056794D-01
    45  4.4000000000000D-01  1.3198165245495D+00  3.5593907263839D-01
    46  4.5000000000000D-01  1.3263389836541D+00  3.1816741065779D-01
    47  4.6000000000000D-01  1.3316502754567D+00  2.7838169710696D-01
    48  4.7000000000000D-01  1.3357580448419D+00  2.3670974104269D-01
    49  4.8000000000000D-01  1.3386713874525D+00  1.9329299563186D-01
    50  4.9000000000000D-01  1.3404008226787D+00  1.4828626386317D-01
    51  5.0000000000000D-01  1.3409582659785D+00  1.0185730131252D-01
    52  5.1000000000000D-01  1.3403570006140D+00  5.4186315660039D-02
    53  5.2000000000000D-01  1.3386116488673D+00  5.4653635005052D-03
    54  5.3000000000000D-01  1.3357381427896D+00 -4.4102354157876D-02
    55  5.4000000000000D-01  1.3317536945209D+00 -9.4303295451981D-02
    56  5.5000000000000D-01  1.3266767662020D+00 -1.4491447717019D-01
    57  5.6000000000000D-01  1.3205270394872D+00 -1.9570446624923D-01
    58  5.7000000000000D-01  1.3133253846513D+00 -2.4643445847672D-01
    59  5.8000000000000D-01  1.3050938292704D+00 -2.9685943880740D-01
    60  5.9000000000000D-01  1.2958555264421D+00 -3.4672941692942D-01
    61  6.0000000000000D-01  1.2856347225005D+00 -3.9579073097967D-01
    62  6.1000000000000D-01  1.2744567241665D+00 -4.4378741161838D-01
    63  6.2000000000000D-01  1.2623478650666D+00 -4.9046259803310D-01
    64  6.3000000000000D-01  1.2493354715416D+00 -5.3555999686038D-01
    65  6.4000000000000D-01  1.2354478276610D+00 -5.7882537449637D-01
    66  6.5000000000000D-01  1.2207141393494D+00 -6.2000807281485D-01
    67  6.6000000000000D-01  1.2051644975298D+00 -6.5886253793606D-01
    68  6.7000000000000D-01  1.1888298401818D+00 -6.9514985138771D-01
    69  6.8000000000000D-01  1.1717419132140D+00 -7.2863925278081D-01
    70  6.9000000000000D-01  1.1539332300473D+00 -7.5910964298591D-01
    71  7.0000000000000D-01  1.1354370298104D+00 -7.8635105674575D-01
    72  7.1000000000000D-01  1.1162872340486D+00 -8.1016609369593D-01
    73  7.2000000000000D-01  1.0965184018576D+00 -8.3037129689137D-01
    74  7.3000000000000D-01  1.0761656833557D+00 -8.4679846814942D-01
    75  7.4000000000000D-01  1.0552647714203D+00 -8.5929590982122D-01
    76  7.5000000000000D-01  1.0338518516240D+00 -8.6772958299091D-01
    77  7.6000000000000D-01  1.0119635503180D+00 -8.7198417257358D-01
    78  7.7000000000000D-01  9.8963688082407D-01 -8.7196405033787D-01
    79  7.8000000000000D-01  9.6690918771159D-01 -8.6759412750934D-01
    80  7.9000000000000D-01  9.4381808915259D-01 -8.5882058931725D-01
    81  8.0000000000000D-01  9.2040141736622D-01 -8.4561150462225D-01
    82  8.1000000000000D-01  8.9669715718157D-01 -8.2795730460090D-01
    83  8.2000000000000D-01  8.7274338276837D-01 -8.0587112535944D-01
    84  8.3000000000000D-01  8.4857819260501D-01 -7.7938901029656D-01
    85  8.4000000000000D-01  8.2423964277447D-01 -7.4856996902667D-01
    86  8.5000000000000D-01  7.9976567869970D-01 -7.1349589070291D-01
    87  8.6000000000000D-01  7.7519406545187D-01 -6.7427131063629D-01
    88  8.7000000000000D-01  7.5056231678570D-01 -6.3102303018420D-01
    89  8.8000000000000D-01  7.2590762307779D-01 -5.8389959097116D-01
    90  8.9000000000000D-01  7.0126677836392D-01 -5.3307060559689D-01
    91  9.0000000000000D-01  6.7667610669197D-01 -4.7872594807429D-01
    92  9.1000000000000D-01  6.5217138802560D-01 -4.2107480831278D-01
    93  9.2000000000000D-01  6.2778778395231D-01 -3.6034461601235D-01
    94  9.3000000000000D-01  6.0355976346611D-01 -2.9677984035232D-01
    95  9.4000000000000D-01  5.7952102911053D-01 -2.3064067283652D-01
    96  9.5000000000000D-01  5.5570444378112D-01 -1.6220160158664D-01
    97  9.6000000000000D-01  5.3214195849883D-01 -9.1749886248904D-02
    98  9.7000000000000D-01  5.0886454147529D-01 -1.9583943487557D-02
    99  9.8000000000000D-01  4.8590210879913D-01  5.3988346218479D-02
   100  9.9000000000000D-01  4.6328345707766D-01  1.2865139910662D-01
   101  1.0000000000000D+00  4.4103619837204D-01  2.0408374403803D-01
   102  1.0100000000000D+00  4.1918669776417D-01  2.7995988133796D-01
   103  1.0200000000000D+00  3.9776001389262D-01  3.5595217173822D-01
   104  1.0300000000000D+00  3.7677984278976D-01  4.3173274228950D-01
   105  1.0400000000000D+00  3.5626846534619D-01  5.0697539591503D-01
   106  1.0500000000000D+00  3.3624669871809D-01  5.8135751119107D-01
   107  1.0600000000000D+00  3.1673385198235D-01  6.5456191893543D-01
   108  1.0700000000000D+00  2.9774768632821D-01  7.2627874231641D-01
   109  1.0800000000000D+00  2.7930438005796D-01  7.9620718740813D-01
   110  1.0900000000000D+00  2.6141849864888D-01  8.6405727145044D-01
   111  1.1000000000000D+00  2.4410297010636D-01  9.2955147651571D-01
   112  1.1100000000000D+00  2.2736906581634D-01  9.9242631674287D-01
   113  1.1200000000000D+00  2.1122638707504D-01  1.0524338080230D+00
   114  1.1300000000000D+00  1.9568285744879D-01  1.1093428296496D+00
   115  1.1400000000000D+00  1.8074472108266D-01  1.1629403683827D+00
   116  1.1500000000000D+00  1.6641654705392D-01  1.2130326359748D+00
   117  1.1600000000000D+00  1.5270123982205D-01  1.2594460525083D+00
   118  1.1700000000000D+00  1.3960005580025D-01  1.3020280887000D+00
   119  1.1800000000000D+00  1.2711262603459D-01  1.3406479615338D+00
   120  1.1900000000000D+00  1.1523698494965D-01  1.3751971784384D+00
   121  1.2000000000000D+00  1.0396960507120D-01  1.4055899267938D+00
   122  1.2100000000000D+00  9.3305437604901D-02  1.4317633066369D+00
   123  1.2200000000000D+00  8.3237958724593D-02  1.4536774052847D+00
   124  1.2300000000000D+00  7.3759221373652D-02  1.4713152143241D+00
   125  1.2400000000000D+00  6.4859912351330D-02  1.4846823905821D+00
   126  1.2500000000000D+00  5.6529414430820D-02  1.4938068636039D+00
   127  1.2600000000000D+00  4.8755873218578D-02  1.4987382935209D+00
   128  1.2700000000000D+00  4.1526268424001D-02  1.4995473847763D+00
   129  1.2800000000000D+00  3.4826489194927D-02  1.4963250617337D+00
   130  1.2900000000000D+00  2.8641413143069D-02  1.4891815133870D+00
   131  1.3000000000000D+00  2.2954988644571D-02  1.4782451160895D+00
   132  1.3100000000000D+00  1.7750320000016D-02  1.4636612432808D+00
   133  1.3200000000000D+00  1.3009755006449D-02  1.4455909725140D+00
   134  1.3300000000000D+00  8.7149744707845D-03  1.4242097013621D+00
   135  1.3400000000000D+00  4.8470831993545D-03  1.3997056834896D+00
   136  1.3500000000000D+00  1.3867019671021D-03  1.3722784977286D+00
   137  1.3600000000000D+00 -1.6859400252959D-03  1.3421374633294D+00
   138  1.3700000000000D+00 -4.3909127049067D-03  1.3095000144034D+00
   139  1.3800000000000D+00 -6.7484931954332D-03  1.2745900479162D+00
   140  1.3900000000000D+00 -8.7790748897576D-03  1.2376362588359D+00
   141  1.4000000000000D+00 -1.0503078035105D-02  1.1988704768801D+00
   142  1.4100000000000D+00 -1.1940862288819D-02  1.1585260186883D+00
   143  1.4200000000000D+00 -1.3112641738843D-02  1.1168360696634D+00
   144  1.4300000000000D+00 -1.4038402830746D-02  1.0740321092140D+00
   145  1.4400000000000D+00 -1.4737825619783D-02  1.0303423922720D+00
   146  1.4500000000000D+00 -1.5230208809358D-02  9.8599050126076D-01
   147  1.4600000000000D+00 -1.5534398882124D-02  9.4119397891874D-01
   148  1.4700000000000D+00 -1.5668723775239D-02  8.9616305594533D-01
   149  1.4800000000000D+00 -1.5650931346894D-02  8.5109948242147D-01
   150  1.4900000000000D+00 -1.5498132968157D-02  8.0619547397265D-01
   151  1.5000000000000D+00 -1.5226752517815D-02  7.6163278243611D-01
   152  1.5100000000000D+00 -1.4852480916386D-02  7.1758189661295D-01
   153  1.5200000000000D+00 -1.4390236534304D-02  6.7420138451004D-01
   154  1.5300000000000D+00 -1.3854131412642D-02  6.3163737697930D-01
   155  1.5400000000000D+00 -1.3257443630348D-02  5.9002320421167D-01
   156  1.5500000000000D+00 -1.2612595655230D-02  5.4947918195271D-01
   157  1.5600000000000D+00 -1.1931138880507D-02  5.1011255505806D-01
   158  1.5700000000000D+00 -1.1223744196931D-02  4.7201759555905D-01
   159  1.5800000000000D+00 -1.0500198598676D-02  4.3527585672824D-01
   160  1.5900000000000D+00 -9.7694077150850D-03  3.9995658157494D-01
   161  1.6000000000000D+00 -9.0394040608998D-03  3.6611726087453D-01
   162  1.6100000000000D+00 -8.3173609348001D-03  3.3380434037561D-01
   163  1.6200000000000D+00 -7.6096115748466D-03  3.0305406639438D-01
   164  1.6300000000000D+00 -6.9216736102174D-03  2.7389349464253D-01
   165  1.6400000000000D+00 -6.2582776532788D-03  2.4634147896965D-01
   166  1.6500000000000D+00 -5.6234023992665D-03  2.2041028549414D-01
   167  1.6600000000000D+00 -5.0203083921296D-03  1.9610594635773D-01
   168  1.6700000000000D+00 -4.4515831410527D-03  1.7343056231240D-01
   169  1.6800000000000D+00 -3.9191933447589D-03  1.5238597847531D-01
   170  1.6900000000000D+00 -3.4245096089600D-03  1.3296913421798D-01
   171  1.7000000000000D+00 -2.9683395136885D-03  1.1516896457536D-01
   172  1.7100000000000D+00 -2.5509597701051D-03  9.8963797683602D-02
   173  1.7200000000000D+00 -2.1721405862359D-03  8.4316155128422D-02
   174  1.7300000000000D+00 -1.8312010943414D-03  7.1175758946738D-02
   175  1.7400000000000D+00 -1.5270636553914D-03  5.9482334050611D-02
   176  1.7500000000000D+00 -1.2583014035104D-03  4.9166090730932D-02
   177  1.7600000000000D+00 -1.0231901960189D-03  4.0149523229371D-02
   178  1.7700000000000D+00 -8.1975878171162D-04  3.2348835038644D-02
   179  1.7800000000000D+00 -6.4583839829178D-04  2.5675392524186D-02
   180  1.7900000000000D+00 -4.9911089357936D-04  2.0037143331858D-02
   181  1.8000000000000D+00 -3.7715519251794D-04  1.5339977018439D-02
   182  1.8100000000000D+00 -2.7749143625660D-04  1.1489014934019D-02
   183  1.8200000000000D+00 -1.9762265765935D-04  8.3898251620390D-03
   184  1.8300000000000D+00 -1.3507349457943D-04  5.9495478108692D-03
   185  1.8400000000000D+00 -8.7425634964223D-05  4.0779216769238D-03
   186  1.8500000000000D+00 -5.2346731695935D-05  2.6882593614241D-03
   187  1.8600000000000D+00 -2.7616385218784D-05  1.6982831922770D-03
   188  1.8700000000000D+00 -1.1205579650818D-05  1.0299370760884D-03
   189  1.8800000000000D+00 -1.2942010932924D-06  6.0871199956933D-04
   190  1.8900000000000D+00  4.1568688945862D-06  3.7685403746893D-04
   191  1.9000000000000D+00  6.9685080985972D-06  2.8445957397061D-04
   192  1.9100000000000D+00  7.6437344545771D-06  2.5144323312297D-04
   193  1.9200000000000D+00  5.9542832177761D-06  1.9252723505198D-04
   194  1.9300000000000D+00  2.6328273026226D-06  8.6662998232204D-05
   195  1.9400000000000D+00 -1.5519738543891D-07 -4.8862424062445D-06
   196  1.9500000000000D+00 -7.3612632561064D-07 -2.3249784146762D-05
   197  1.9600000000000D+00 -1.7526259167978D-07 -5.5616063508521D-06
   198  1.9700000000000D+00  1.5889243612950D-07  4.7332463333894D-06
   199  1.9800000000000D+00  1.1087637914465D-07  3.2876044435742D-06
   200  1.9900000000000D+00 -1.1706319428131D-08 -3.7929393950463D-07
   201  2.0000000000000D+00 -1.8496310699542D-08 -5.9929498717353D-07
   202  2.0100000000000D+00  0.0000000000000D+00  0.0000000000000D+00
   203  2.0200000000000D+00  0.0000000000000D+00  0.0000000000000D+00
   204  2.0300000000000D+00  0.0000000000000D+00  0.0000000000000D+00
   205  2.0400000000000D+00  0.0000000000000D+00  0.0000000000000D+00
   206  2.0500000000000D+00  0.0000000000000D+00  0.0000000000000D+00
   207  2.0600000000000D+00  0.0000000000000D+00  0.0000000000000D+00
   208  2.0700000000000D+00  0.0000000000000D+00  0.0000000000000D+00
   209  2.0800000000000D+00  0.0000000000000D+00  0.0000000000000D+00
   210  2.0900000000000D+00  0.0000000000000D+00  0.0000000000000D+00
   211  2.1000000000000D+00  0.0000000000000D+00  0.0000000000000D+00
   212  2.1100000000000D+00  0.0000000000000D+00  0.0000000000000D+00
   213  2.1200000000000D+00  0.0000000000000D+00  0.0000000000000D+00
   214  2.1300000000000D+00  0.0000000000000D+00  0.0000000000000D+00
   215  2.1400000000000D+00  0.0000000000000D+00  0.0000000000000D+00
   216  2.1500000000000D+00  0.0000000000000D+00  0.0000000000000D+00
   217  2.1600000000000D+00  0.0000000000000D+00  0.0000000000000D+00
   218  2.1700000000000D+00  0.0000000000000D+00  0.0000000000000D+00
   219  2.1800000000000D+00  0.0000000000000D+00  0.0000000000000D+00
   220  2.1900000000000D+00  0.0000000000000D+00  0.0000000000000D+00
   221  2.2000000000000D+00  0.0000000000000D+00  0.0000000000000D+00
   222  2.2100000000000D+00  0.0000000000000D+00  0.0000000000000D+00
   223  2.2200000000000D+00  0.0000000000000D+00  0.0000000000000D+00
   224  2.2300000000000D+00  0.0000000000000D+00  0.0000000000000D+00
   225  2.2400000000000D+00  0.0000000000000D+00  0.0000000000000D+00
   226  2.2500000000000D+00  0.0000000000000D+00  0.0000000000000D+00
   227  2.2600000000000D+00  0.0000000000000D+00  0.0000000000000D+00
   228  2.2700000000000D+00  0.0000000000000D+00  0.0000000000000D+00
   229  2.2800000000000D+00  0.0000000000000D+00  0.0000000000000D+00
   230  2.2900000000000D+00  0.0000000000000D+00  0.0000000000000D+00
   231  2.3000000000000D+00  0.0000000000000D+00  0.0000000000000D+00
   232  2.3100000000000D+00  0.0000000000000D+00  0.0000000000000D+00
   233  2.3200000000000D+00  0.0000000000000D+00  0.0000000000000D+00
   234  2.3300000000000D+00  0.0000000000000D+00  0.0000000000000D+00
   235  2.3400000000000D+00  0.0000000000000D+00  0.0000000000000D+00
   236  2.3500000000000D+00  0.0000000000000D+00  0.0000000000000D+00
   237  2.3600000000000D+00  0.0000000000000D+00  0.0000000000000D+00
   238  2.3700000000000D+00  0.0000000000000D+00  0.0000000000000D+00
   239  2.3800000000000D+00  0.0000000000000D+00  0.0000000000000D+00
   240  2.3900000000000D+00  0.0000000000000D+00  0.0000000000000D+00
   241  2.4000000000000D+00  0.0000000000000D+00  0.0000000000000D+00
   242  2.4100000000000D+00  0.0000000000000D+00  0.0000000000000D+00
   243  2.4200000000000D+00  0.0000000000000D+00  0.0000000000000D+00
   244  2.4300000000000D+00  0.0000000000000D+00  0.0000000000000D+00
   245  2.4400000000000D+00  0.0000000000000D+00  0.0000000000000D+00
   246  2.4500000000000D+00  0.0000000000000D+00  0.0000000000000D+00
   247  2.4600000000000D+00  0.0000000000000D+00  0.0000000000000D+00
   248  2.4700000000000D+00  0.0000000000000D+00  0.0000000000000D+00
   249  2.4800000000000D+00  0.0000000000000D+00  0.0000000000000D+00
   250  2.4900000000000D+00  0.0000000000000D+00  0.0000000000000D+00
   251  2.5000000000000D+00  0.0000000000000D+00  0.0000000000000D+00
   252  2.5100000000000D+00  0.0000000000000D+00  0.0000000000000D+00
   253  2.5200000000000D+00  0.0000000000000D+00  0.0000000000000D+00
   254  2.5300000000000D+00  0.0000000000000D+00  0.0000000000000D+00
   255  2.5400000000000D+00  0.0000000000000D+00  0.0000000000000D+00
   256  2.5500000000000D+00  0.0000000000000D+00  0.0000000000000D+00
   257  2.5600000000000D+00  0.0000000000000D+00  0.0000000000000D+00
   258  2.5700000000000D+00  0.0000000000000D+00  0.0000000000000D+00
   259  2.5800000000000D+00  0.0000000000000D+00  0.0000000000000D+00
   260  2.5900000000000D+00  0.0000000000000D+00  0.0000000000000D+00
   261  2.6000000000000D+00  0.0000000000000D+00  0.0000000000000D+00
   262  2.6100000000000D+00  0.0000000000000D+00  0.0000000000000D+00
   263  2.6200000000000D+00  0.0000000000000D+00  0.0000000000000D+00
   264  2.6300000000000D+00  0.0000000000000D+00  0.0000000000000D+00
   265  2.6400000000000D+00  0.0000000000000D+00  0.0000000000000D+00
   266  2.6500000000000D+00  0.0000000000000D+00  0.0000000000000D+00
   267  2.6600000000000D+00  0.0000000000000D+00  0.0000000000000D+00
   268  2.6700000000000D+00  0.0000000000000D+00  0.0000000000000D+00
   269  2.6800000000000D+00  0.0000000000000D+00  0.0000000000000D+00
   270  2.6900000000000D+00  0.0000000000000D+00  0.0000000000000D+00
   271  2.7000000000000D+00  0.0000000000000D+00  0.0000000000000D+00
   272  2.7100000000000D+00  0.0000000000000D+00  0.0000000000000D+00
   273  2.7200000000000D+00  0.0000000000000D+00  0.0000000000000D+00
   274  2.7300000000000D+00  0.0000000000000D+00  0.0000000000000D+00
   275  2.7400000000000D+00  0.0000000000000D+00  0.0000000000000D+00
   276  2.7500000000000D+00  0.0000000000000D+00  0.0000000000000D+00
   277  2.7600000000000D+00  0.0000000000000D+00  0.0000000000000D+00
   278  2.7700000000000D+00  0.0000000000000D+00  0.0000000000000D+00
   279  2.7800000000000D+00  0.0000000000000D+00  0.0000000000000D+00
   280  2.7900000000000D+00  0.0000000000000D+00  0.0000000000000D+00
   281  2.8000000000000D+00  0.0000000000000D+00  0.0000000000000D+00
   282  2.8100000000000D+00  0.0000000000000D+00  0.0000000000000D+00
   283  2.8200000000000D+00  0.0000000000000D+00  0.0000000000000D+00
   284  2.8300000000000D+00  0.0000000000000D+00  0.0000000000000D+00
   285  2.8400000000000D+00  0.0000000000000D+00  0.0000000000000D+00
   286  2.8500000000000D+00  0.0000000000000D+00  0.0000000000000D+00
   287  2.8600000000000D+00  0.0000000000000D+00  0.0000000000000D+00
   288  2.8700000000000D+00  0.0000000000000D+00  0.0000000000000D+00
   289  2.8800000000000D+00  0.0000000000000D+00  0.0000000000000D+00
   290  2.8900000000000D+00  0.0000000000000D+00  0.0000000000000D+00
   291  2.9000000000000D+00  0.0000000000000D+00  0.0000000000000D+00
   292  2.9100000000000D+00  0.0000000000000D+00  0.0000000000000D+00
   293  2.9200000000000D+00  0.0000000000000D+00  0.0000000000000D+00
   294  2.9300000000000D+00  0.0000000000000D+00  0.0000000000000D+00
   295  2.9400000000000D+00  0.0000000000000D+00  0.0000000000000D+00
   296  2.9500000000000D+00  0.0000000000000D+00  0.0000000000000D+00
   297  2.9600000000000D+00  0.0000000000000D+00  0.0000000000000D+00
   298  2.9700000000000D+00  0.0000000000000D+00  0.0000000000000D+00
   299  2.9800000000000D+00  0.0000000000000D+00  0.0000000000000D+00
   300  2.9900000000000D+00  0.0000000000000D+00  0.0000000000000D+00
   301  3.0000000000000D+00  0.0000000000000D+00  0.0000000000000D+00
   302  3.0100000000000D+00  0.0000000000000D+00  0.0000000000000D+00
   303  3.0200000000000D+00  0.0000000000000D+00  0.0000000000000D+00
   304  3.0300000000000D+00  0.0000000000000D+00  0.0000000000000D+00
   305  3.0400000000000D+00  0.0000000000000D+00  0.0000000000000D+00
   306  3.0500000000000D+00  0.0000000000000D+00  0.0000000000000D+00
   307  3.0600000000000D+00  0.0000000000000D+00  0.0000000000000D+00
   308  3.0700000000000D+00  0.0000000000000D+00  0.0000000000000D+00
   309  3.0800000000000D+00  0.0000000000000D+00  0.0000000000000D+00
   310  3.0900000000000D+00  0.0000000000000D+00  0.0000000000000D+00
   311  3.1000000000000D+00  0.0000000000000D+00  0.0000000000000D+00
   312  3.1100000000000D+00  0.0000000000000D+00  0.0000000000000D+00
   313  3.1200000000000D+00  0.0000000000000D+00  0.0000000000000D+00
   314  3.1300000000000D+00  0.0000000000000D+00  0.0000000000000D+00
   315  3.1400000000000D+00  0.0000000000000D+00  0.0000000000000D+00
   316  3.1500000000000D+00  0.0000000000000D+00  0.0000000000000D+00
   317  3.1600000000000D+00  0.0000000000000D+00  0.0000000000000D+00
   318  3.1700000000000D+00  0.0000000000000D+00  0.0000000000000D+00
   319  3.1800000000000D+00  0.0000000000000D+00  0.0000000000000D+00
   320  3.1900000000000D+00  0.0000000000000D+00  0.0000000000000D+00
   321  3.2000000000000D+00  0.0000000000000D+00  0.0000000000000D+00
   322  3.2100000000000D+00  0.0000000000000D+00  0.0000000000000D+00
   323  3.2200000000000D+00  0.0000000000000D+00  0.0000000000000D+00
   324  3.2300000000000D+00  0.0000000000000D+00  0.0000000000000D+00
   325  3.2400000000000D+00  0.0000000000000D+00  0.0000000000000D+00
   326  3.2500000000000D+00  0.0000000000000D+00  0.0000000000000D+00
   327  3.2600000000000D+00  0.0000000000000D+00  0.0000000000000D+00
   328  3.2700000000000D+00  0.0000000000000D+00  0.0000000000000D+00
   329  3.2800000000000D+00  0.0000000000000D+00  0.0000000000000D+00
   330  3.2900000000000D+00  0.0000000000000D+00  0.0000000000000D+00
   331  3.3000000000000D+00  0.0000000000000D+00  0.0000000000000D+00
   332  3.3100000000000D+00  0.0000000000000D+00  0.0000000000000D+00
   333  3.3200000000000D+00  0.0000000000000D+00  0.0000000000000D+00
   334  3.3300000000000D+00  0.0000000000000D+00  0.0000000000000D+00
   335  3.3400000000000D+00  0.0000000000000D+00  0.0000000000000D+00
   336  3.3500000000000D+00  0.0000000000000D+00  0.0000000000000D+00
   337  3.3600000000000D+00  0.0000000000000D+00  0.0000000000000D+00
   338  3.3700000000000D+00  0.0000000000000D+00  0.0000000000000D+00
   339  3.3800000000000D+00  0.0000000000000D+00  0.0000000000000D+00
   340  3.3900000000000D+00  0.0000000000000D+00  0.0000000000000D+00
   341  3.4000000000000D+00  0.0000000000000D+00  0.0000000000000D+00
   342  3.4100000000000D+00  0.0000000000000D+00  0.0000000000000D+00
   343  3.4200000000000D+00  0.0000000000000D+00  0.0000000000000D+00
   344  3.4300000000000D+00  0.0000000000000D+00  0.0000000000000D+00
   345  3.4400000000000D+00  0.0000000000000D+00  0.0000000000000D+00
   346  3.4500000000000D+00  0.0000000000000D+00  0.0000000000000D+00
   347  3.4600000000000D+00  0.0000000000000D+00  0.0000000000000D+00
   348  3.4700000000000D+00  0.0000000000000D+00  0.0000000000000D+00
   349  3.4800000000000D+00  0.0000000000000D+00  0.0000000000000D+00
   350  3.4900000000000D+00  0.0000000000000D+00  0.0000000000000D+00
   351  3.5000000000000D+00  0.0000000000000D+00  0.0000000000000D+00
   352  3.5100000000000D+00  0.0000000000000D+00  0.0000000000000D+00
   353  3.5200000000000D+00  0.0000000000000D+00  0.0000000000000D+00
   354  3.5300000000000D+00  0.0000000000000D+00  0.0000000000000D+00
   355  3.5400000000000D+00  0.0000000000000D+00  0.0000000000000D+00
   356  3.5500000000000D+00  0.0000000000000D+00  0.0000000000000D+00
   357  3.5600000000000D+00  0.0000000000000D+00  0.0000000000000D+00
   358  3.5700000000000D+00  0.0000000000000D+00  0.0000000000000D+00
   359  3.5800000000000D+00  0.0000000000000D+00  0.0000000000000D+00
   360  3.5900000000000D+00  0.0000000000000D+00  0.0000000000000D+00
   361  3.6000000000000D+00  0.0000000000000D+00  0.0000000000000D+00
   362  3.6100000000000D+00  0.0000000000000D+00  0.0000000000000D+00
   363  3.6200000000000D+00  0.0000000000000D+00  0.0000000000000D+00
   364  3.6300000000000D+00  0.0000000000000D+00  0.0000000000000D+00
   365  3.6400000000000D+00  0.0000000000000D+00  0.0000000000000D+00
   366  3.6500000000000D+00  0.0000000000000D+00  0.0000000000000D+00
   367  3.6600000000000D+00  0.0000000000000D+00  0.0000000000000D+00
   368  3.6700000000000D+00  0.0000000000000D+00  0.0000000000000D+00
   369  3.6800000000000D+00  0.0000000000000D+00  0.0000000000000D+00
   370  3.6900000000000D+00  0.0000000000000D+00  0.0000000000000D+00
   371  3.7000000000000D+00  0.0000000000000D+00  0.0000000000000D+00
   372  3.7100000000000D+00  0.0000000000000D+00  0.0000000000000D+00
   373  3.7200000000000D+00  0.0000000000000D+00  0.0000000000000D+00
   374  3.7300000000000D+00  0.0000000000000D+00  0.0000000000000D+00
   375  3.7400000000000D+00  0.0000000000000D+00  0.0000000000000D+00
   376  3.7500000000000D+00  0.0000000000000D+00  0.0000000000000D+00
   377  3.7600000000000D+00  0.0000000000000D+00  0.0000000000000D+00
   378  3.7700000000000D+00  0.0000000000000D+00  0.0000000000000D+00
   379  3.7800000000000D+00  0.0000000000000D+00  0.0000000000000D+00
   380  3.7900000000000D+00  0.0000000000000D+00  0.0000000000000D+00
   381  3.8000000000000D+00  0.0000000000000D+00  0.0000000000000D+00
   382  3.8100000000000D+00  0.0000000000000D+00  0.0000000000000D+00
   383  3.8200000000000D+00  0.0000000000000D+00  0.0000000000000D+00
   384  3.8300000000000D+00  0.0000000000000D+00  0.0000000000000D+00
   385  3.8400000000000D+00  0.0000000000000D+00  0.0000000000000D+00
   386  3.8500000000000D+00  0.0000000000000D+00  0.0000000000000D+00
   387  3.8600000000000D+00  0.0000000000000D+00  0.0000000000000D+00
   388  3.8700000000000D+00  0.0000000000000D+00  0.0000000000000D+00
   389  3.8800000000000D+00  0.0000000000000D+00  0.0000000000000D+00
   390  3.8900000000000D+00  0.0000000000000D+00  0.0000000000000D+00
   391  3.9000000000000D+00  0.0000000000000D+00  0.0000000000000D+00
   392  3.9100000000000D+00  0.0000000000000D+00  0.0000000000000D+00
   393  3.9200000000000D+00  0.0000000000000D+00  0.0000000000000D+00
   394  3.9300000000000D+00  0.0000000000000D+00  0.0000000000000D+00
   395  3.9400000000000D+00  0.0000000000000D+00  0.0000000000000D+00
   396  3.9500000000000D+00  0.0000000000000D+00  0.0000000000000D+00
   397  3.9600000000000D+00  0.0000000000000D+00  0.0000000000000D+00
   398  3.9700000000000D+00  0.0000000000000D+00  0.0000000000000D+00
   399  3.9800000000000D+00  0.0000000000000D+00  0.0000000000000D+00
   400  3.9900000000000D+00  0.0000000000000D+00  0.0000000000000D+00
   401  4.0000000000000D+00  0.0000000000000D+00  0.0000000000000D+00
   402  4.0100000000000D+00  0.0000000000000D+00  0.0000000000000D+00
   403  4.0200000000000D+00  0.0000000000000D+00  0.0000000000000D+00
   404  4.0300000000000D+00  0.0000000000000D+00  0.0000000000000D+00
   405  4.0400000000000D+00  0.0000000000000D+00  0.0000000000000D+00
   406  4.0500000000000D+00  0.0000000000000D+00  0.0000000000000D+00
   407  4.0600000000000D+00  0.0000000000000D+00  0.0000000000000D+00
   408  4.0700000000000D+00  0.0000000000000D+00  0.0000000000000D+00
   409  4.0800000000000D+00  0.0000000000000D+00  0.0000000000000D+00
   410  4.0900000000000D+00  0.0000000000000D+00  0.0000000000000D+00
   411  4.1000000000000D+00  0.0000000000000D+00  0.0000000000000D+00
   412  4.1100000000000D+00  0.0000000000000D+00  0.0000000000000D+00
   413  4.1200000000000D+00  0.0000000000000D+00  0.0000000000000D+00
   414  4.1300000000000D+00  0.0000000000000D+00  0.0000000000000D+00
   415  4.1400000000000D+00  0.0000000000000D+00  0.0000000000000D+00
   416  4.1500000000000D+00  0.0000000000000D+00  0.0000000000000D+00
   417  4.1600000000000D+00  0.0000000000000D+00  0.0000000000000D+00
   418  4.1700000000000D+00  0.0000000000000D+00  0.0000000000000D+00
   419  4.1800000000000D+00  0.0000000000000D+00  0.0000000000000D+00
   420  4.1900000000000D+00  0.0000000000000D+00  0.0000000000000D+00
   421  4.2000000000000D+00  0.0000000000000D+00  0.0000000000000D+00
   422  4.2100000000000D+00  0.0000000000000D+00  0.0000000000000D+00