F     ONCVPSP-3.3.1  r_core=   1.60379   1.68217
      9.0000      7.0000      210905    zatom,zion,pspd
     8 -116133   1     4   600     0    pspcod,pspxc,lmax,lloc,mmax,r2well
  5.99000000  0.00000000  0.00000000    rchrg fchrg qchrg
     2     2     0     0    nproj
     3     1           extension_switch
     3     0     0    nprojso
   0                         8.9453968481800D-01  5.5847198443012D+00
     1  0.0000000000000D+00 -3.9192668555010D-10  1.4662415726008D-10
     2  1.0000000000000D-02 -2.4566973382809D-02  9.0559902139980D-02
     3  2.0000000000000D-02 -4.8968117283904D-02  1.8087479692607D-01
     4  3.0000000000000D-02 -7.3037858887693D-02  2.7070028043734D-01
     5  4.0000000000000D-02 -9.6611144341142D-02  3.5979315645343D-01
     6  5.0000000000000D-02 -1.1952371220986D-01  4.4791204235343D-01
     7  6.0000000000000D-02 -1.4161238342251D-01  5.3481797736769D-01
     8  7.0000000000000D-02 -1.6271537273408D-01  6.2027503379209D-01
     9  8.0000000000000D-02 -1.8267262634672D-01  7.0405093162805D-01
    10  9.0000000000000D-02 -2.0132618984555D-01  7.8591765693171D-01
    11  1.0000000000000D-01 -2.1852061004267D-01  8.6565208394560D-01
    12  1.1000000000000D-01 -2.3410337368101D-01  9.4303660084788D-01
    13  1.2000000000000D-01 -2.4792538523989D-01  1.0178597386917D+00
    14  1.3000000000000D-01 -2.5984148531363D-01  1.0899168028232D+00
    15  1.4000000000000D-01 -2.6971101021355D-01  1.1590105057669D+00
    16  1.5000000000000D-01 -2.7739839258168D-01  1.2249516002505D+00
    17  1.6000000000000D-01 -2.8277380191257D-01  1.2875595107232D+00
    18  1.7000000000000D-01 -2.8571382296984D-01  1.3466629613909D+00
    19  1.8000000000000D-01 -2.8610216916585D-01  1.4021005984680D+00
    20  1.9000000000000D-01 -2.8383042706114D-01  1.4537216040274D+00
    21  2.0000000000000D-01 -2.7879882724477D-01  1.5013862985174D+00
    22  2.1000000000000D-01 -2.7091703599020D-01  1.5449667287234D+00
    23  2.2000000000000D-01 -2.6010496125697D-01  1.5843472376793D+00
    24  2.3000000000000D-01 -2.4629356583538D-01  1.6194250127823D+00
    25  2.4000000000000D-01 -2.2942567972445D-01  1.6501106081496D+00
    26  2.5000000000000D-01 -2.0945680319988D-01  1.6763284370696D+00
    27  2.6000000000000D-01 -1.8635589148151D-01  1.6980172302528D+00
    28  2.7000000000000D-01 -1.6010611145721D-01  1.7151304554840D+00
    29  2.8000000000000D-01 -1.3070556057044D-01  1.7276366942164D+00
    30  2.9000000000000D-01 -9.8167937740167D-02  1.7355199706364D+00
    31  3.0000000000000D-01 -6.2523156060468D-02  1.7387800287664D+00
    32  3.1000000000000D-01 -2.3817887028855D-02  1.7374325532612D+00
    33  3.2000000000000D-01  1.7883973821066D-02  1.7315093296997D+00
    34  3.3000000000000D-01  6.2500929748934D-02  1.7210583403688D+00
    35  3.4000000000000D-01  1.0993360357976D-01  1.7061437917899D+00
    36  3.5000000000000D-01  1.6006456538192D-01  1.6868460705425D+00
    37  3.6000000000000D-01  2.1275827537024D-01  1.6632616243003D+00
    38  3.7000000000000D-01  2.6786114958351D-01  1.6355027654011D+00
    39  3.8000000000000D-01  3.2520175499748D-01  1.6036973947331D+00
    40  3.9000000000000D-01  3.8459113973126D-01  1.5679886442207D+00
    41  4.0000000000000D-01  4.4582330289827D-01  1.5285344367400D+00
    42  4.1000000000000D-01  5.0867580744805D-01  1.4855069628780D+00
    43  4.2000000000000D-01  5.7291053805661D-01  1.4390920745627D+00
    44  4.3000000000000D-01  6.3827460475899D-01  1.3894885962383D+00
    45  4.4000000000000D-01  7.0450139159484D-01  1.3369075549256D+00
    46  4.5000000000000D-01  7.7131174806627D-01  1.2815713311868D+00
    47  4.6000000000000D-01  8.3841531970598D-01  1.2237127337101D+00
    48  4.7000000000000D-01  9.0551201253475D-01  1.1635740009195D+00
    49  4.8000000000000D-01  9.7229358466926D-01  1.1014057337095D+00
    50  4.9000000000000D-01  1.0384453568403D+00  1.0374657640797D+00
    51  5.0000000000000D-01  1.1036480321121D+00  9.7201796510841D-01
    52  5.1000000000000D-01  1.1675796136780D+00  9.0533100833632D-01
    53  5.2000000000000D-01  1.2299174082542D+00  8.3767707523635D-01
    54  5.3000000000000D-01  1.2903401013280D+00  7.6933053000672D-01
    55  5.4000000000000D-01  1.3485298893461D+00  7.0056656144231D-01
    56  5.5000000000000D-01  1.4041746528750D+00  6.3165980210359D-01
    57  5.6000000000000D-01  1.4569701538351D+00  5.6288293340850D-01
    58  5.7000000000000D-01  1.5066222391247D+00  4.9450528561567D-01
    59  5.8000000000000D-01  1.5528490323104D+00  4.2679144194208D-01
    60  5.9000000000000D-01  1.5953830945877D+00  3.5999985626005D-01
    61  6.0000000000000D-01  1.6339735359079D+00  2.9438149394501D-01
    62  6.1000000000000D-01  1.6683880570356D+00  2.3017850549367D-01
    63  6.2000000000000D-01  1.6984149033516D+00  1.6762294249940D-01
    64  6.3000000000000D-01  1.7238647114491D+00  1.0693552545793D-01
    65  6.4000000000000D-01  1.7445722299814D+00  4.8324472681975D-02
    66  6.5000000000000D-01  1.7603978968172D+00 -8.0156006733272D-03
    67  6.6000000000000D-01  1.7712292553353D+00 -6.1904704827767D-02
    68  6.7000000000000D-01  1.7769821936265D+00 -1.1317841061939D-01
    69  6.8000000000000D-01  1.7776019914832D+00 -1.6168869006449D-01
    70  6.9000000000000D-01  1.7730641613175D+00 -2.0730465509776D-01
    71  7.0000000000000D-01  1.7633750705452D+00 -2.4991318799418D-01
    72  7.1000000000000D-01  1.7485723345008D+00 -2.8941945766935D-01
    73  7.2000000000000D-01  1.7287249705946D+00 -3.2574731680526D-01
    74  7.3000000000000D-01  1.7039333061487D+00 -3.5883957553877D-01
    75  7.4000000000000D-01  1.6743286341644D+00 -3.8865814828006D-01
    76  7.5000000000000D-01  1.6400726131407D+00 -4.1518407108749D-01
    77  7.6000000000000D-01  1.6013564089614D+00 -4.3841738789925D-01
    78  7.7000000000000D-01  1.5583995787971D+00 -4.5837690481738D-01
    79  7.8000000000000D-01  1.5114486988757D+00 -4.7509981252641D-01
    80  7.9000000000000D-01  1.4607757398650D+00 -4.8864117781531D-01
    81  8.0000000000000D-01  1.4066761954470D+00 -4.9907330603961D-01
    82  8.1000000000000D-01  1.3494669714370D+00 -5.0648497720359D-01
    83  8.2000000000000D-01  1.2894840444756D+00 -5.1098055915239D-01
    84  8.3000000000000D-01  1.2270799008986D+00 -5.1267900213085D-01
    85  8.4000000000000D-01  1.1626207678295D+00 -5.1171271968366D-01
    86  8.5000000000000D-01  1.0964836498440D+00 -5.0822636153085D-01
    87  8.6000000000000D-01  1.0290531857000D+00 -5.0237548464876D-01
    88  8.7000000000000D-01  9.6071834059426D-01 -4.9432512931163D-01
    89  8.8000000000000D-01  8.9186895020228D-01 -4.8424830729961D-01
    90  8.9000000000000D-01  8.2289213335335D-01 -4.7232440984929D-01
    91  9.0000000000000D-01  7.5416859059487D-01 -4.5873754321023D-01
    92  9.1000000000000D-01  6.8606880610004D-01 -4.4367479987325D-01
    93  9.2000000000000D-01  6.1894917036993D-01 -4.2732447365151D-01
    94  9.3000000000000D-01  5.5314804097517D-01 -4.0987422682345D-01
    95  9.4000000000000D-01  4.8898175817916D-01 -3.9150921748840D-01
    96  9.5000000000000D-01  4.2674063017284D-01 -3.7241019478256D-01
    97  9.6000000000000D-01  3.6668491353067D-01 -3.5275157214958D-01
    98  9.7000000000000D-01  3.0904075729706D-01 -3.3269947493922D-01
    99  9.8000000000000D-01  2.5399642236976D-01 -3.1240984204680D-01
   100  9.9000000000000D-01  2.0169754176588D-01 -2.9202628774811D-01
   101  1.0000000000000D+00  1.5225421599636D-01 -2.7168079047653D-01
   102  1.0100000000000D+00  1.0575377427476D-01 -2.5149603980959D-01
   103  1.0200000000000D+00  6.2266795073773D-02 -2.3158648572623D-01
   104  1.0300000000000D+00  2.1845543858140D-02 -2.1205770321334D-01
   105  1.0400000000000D+00 -1.5475917836486D-02 -1.9300616881292D-01
   106  1.0500000000000D+00 -4.9681759272338D-02 -1.7451904715517D-01
   107  1.0600000000000D+00 -8.0774234124540D-02 -1.5667405463786D-01
   108  1.0700000000000D+00 -1.0877336792434D-01 -1.3953939917661D-01
   109  1.0800000000000D+00 -1.3371648949210D-01 -1.2317379344115D-01
   110  1.0900000000000D+00 -1.5565761335057D-01 -1.0762653941123D-01
   111  1.1000000000000D+00 -1.7466668139893D-01 -9.2937681542074D-02
   112  1.1100000000000D+00 -1.9082867359572D-01 -7.9138225204807D-02
   113  1.1200000000000D+00 -2.0424259855370D-01 -6.6250416566369D-02
   114  1.1300000000000D+00 -2.1502037604654D-01 -5.4288079591332D-02
   115  1.1400000000000D+00 -2.2328562434959D-01 -4.3257005433524D-02
   116  1.1500000000000D+00 -2.2917236616056D-01 -3.3155389108538D-02
   117  1.1600000000000D+00 -2.3282366757385D-01 -2.3974307986212D-02
   118  1.1700000000000D+00 -2.3439022498834D-01 -1.5698236422943D-02
   119  1.1800000000000D+00 -2.3402891516093D-01 -8.3055906670236D-03
   120  1.1900000000000D+00 -2.3190132387051D-01 -1.7692979988423D-03
   121  1.2000000000000D+00 -2.2817226860475D-01  3.9426159812558D-03
   122  1.2100000000000D+00 -2.2300833039243D-01  8.8664279656466D-03
   123  1.2200000000000D+00 -2.1657640987849D-01  1.3042111529674D-02
   124  1.2300000000000D+00 -2.0904232195436D-01  1.6512731584633D-02
   125  1.2400000000000D+00 -2.0056944254802D-01  1.9323844354469D-02
   126  1.2500000000000D+00 -1.9131742108821D-01  2.1522908530309D-02
   127  1.2600000000000D+00 -1.8144097008905D-01  2.3158712608644D-02
   128  1.2700000000000D+00 -1.7108874274852D-01  2.4280823217225D-02
   129  1.2800000000000D+00 -1.6040230918605D-01  2.4939059146526D-02
   130  1.2900000000000D+00 -1.4951523981837D-01  2.5182995109536D-02
   131  1.3000000000000D+00 -1.3855230240009D-01  2.5061498553064D-02
   132  1.3100000000000D+00 -1.2762877857902D-01  2.4622302632632D-02
   133  1.3200000000000D+00 -1.1684990512285D-01  2.3911618173430D-02
   134  1.3300000000000D+00 -1.0631044171766D-01  2.2973786309078D-02
   135  1.3400000000000D+00 -9.6094368291304D-02  2.1850973877563D-02
   136  1.3500000000000D+00 -8.6274710089498D-02  2.0582911951372D-02
   137  1.3600000000000D+00 -7.6913488833756D-02  1.9206677892762D-02
   138  1.3700000000000D+00 -6.8061798686057D-02  1.7756521474472D-02
   139  1.3800000000000D+00 -5.9760000285446D-02  1.6263733603210D-02
   140  1.3900000000000D+00 -5.2038028496439D-02  1.4756557048693D-02
   141  1.4000000000000D+00 -4.4915806556515D-02  1.3260137495568D-02
   142  1.4100000000000D+00 -3.8403757176414D-02  1.1796512384698D-02
   143  1.4200000000000D+00 -3.2503403451254D-02  1.0384635932412D-02
   144  1.4300000000000D+00 -2.7208047076498D-02  9.0404366078699D-03
   145  1.4400000000000D+00 -2.2503514381011D-02  7.7769045132044D-03
   146  1.4500000000000D+00 -1.8368957870405D-02  6.6042050391552D-03
   147  1.4600000000000D+00 -1.4777700960456D-02  5.5298150248496D-03
   148  1.4700000000000D+00 -1.1698113788737D-02  4.5586779042163D-03
   149  1.4800000000000D+00 -9.0945068597079D-03  3.6933735774336D-03
   150  1.4900000000000D+00 -6.9280300671954D-03  2.9342992783719D-03
   151  1.5000000000000D+00 -5.1575639861455D-03  2.2798572109585D-03
   152  1.5100000000000D+00 -3.7405918120279D-03  1.7266453032812D-03
   153  1.5200000000000D+00 -2.6340382571299D-03  1.2696467094911D-03
   154  1.5300000000000D+00 -1.7950668767757D-03  9.0241524723957D-04
   155  1.5400000000000D+00 -1.1818207315583D-03  6.1725196724727D-04
   156  1.5500000000000D+00 -7.5423405955938D-04  4.0542327640401D-04
   157  1.5600000000000D+00 -4.7428026803985D-04  2.5717190472325D-04
   158  1.5700000000000D+00 -3.0441183967069D-04  1.6094126270171D-04
   159  1.5800000000000D+00 -2.1642193941263D-04  1.0713384019281D-04
   160  1.5900000000000D+00 -1.9500588349435D-04  8.9826948706027D-05
   161  1.6000000000000D+00 -1.8932438593398D-04  8.4802481374072D-05
   162  1.6100000000000D+00 -1.2430372932086D-04  5.5448856983710D-05
   163  1.6200000000000D+00 -2.4683602006717D-05  1.1014555022860D-05
   164  1.6300000000000D+00  1.8372732745164D-05 -8.1506110486999D-06
   165  1.6400000000000D+00  5.9497685607591D-06 -2.6380340938504D-06
   166  1.6500000000000D+00 -4.0448564632278D-06  1.7922318950036D-06
   167  1.6600000000000D+00 -1.2993293544248D-06  5.7540015908888D-07
   168  1.6700000000000D+00  4.8461648373291D-07 -2.1663139266476D-07
   169  1.6800000000000D+00  1.5835614286287D-07 -7.0787752618649D-08
   170  1.6900000000000D+00  0.0000000000000D+00  0.0000000000000D+00
   171  1.7000000000000D+00  0.0000000000000D+00  0.0000000000000D+00
   172  1.7100000000000D+00  0.0000000000000D+00  0.0000000000000D+00
   173  1.7200000000000D+00  0.0000000000000D+00  0.0000000000000D+00
   174  1.7300000000000D+00  0.0000000000000D+00  0.0000000000000D+00
   175  1.7400000000000D+00  0.0000000000000D+00  0.0000000000000D+00
   176  1.7500000000000D+00  0.0000000000000D+00  0.0000000000000D+00
   177  1.7600000000000D+00  0.0000000000000D+00  0.0000000000000D+00
   178  1.7700000000000D+00  0.0000000000000D+00  0.0000000000000D+00
   179  1.7800000000000D+00  0.0000000000000D+00  0.0000000000000D+00
   180  1.7900000000000D+00  0.0000000000000D+00  0.0000000000000D+00
   181  1.8000000000000D+00  0.0000000000000D+00  0.0000000000000D+00
   182  1.8100000000000D+00  0.0000000000000D+00  0.0000000000000D+00
   183  1.8200000000000D+00  0.0000000000000D+00  0.0000000000000D+00
   184  1.8300000000000D+00  0.0000000000000D+00  0.0000000000000D+00
   185  1.8400000000000D+00  0.0000000000000D+00  0.0000000000000D+00
   186  1.8500000000000D+00  0.0000000000000D+00  0.0000000000000D+00
   187  1.8600000000000D+00  0.0000000000000D+00  0.0000000000000D+00
   188  1.8700000000000D+00  0.0000000000000D+00  0.0000000000000D+00
   189  1.8800000000000D+00  0.0000000000000D+00  0.0000000000000D+00
   190  1.8900000000000D+00  0.0000000000000D+00  0.0000000000000D+00
   191  1.9000000000000D+00  0.0000000000000D+00  0.0000000000000D+00
   192  1.9100000000000D+00  0.0000000000000D+00  0.0000000000000D+00
   193  1.9200000000000D+00  0.0000000000000D+00  0.0000000000000D+00
   194  1.9300000000000D+00  0.0000000000000D+00  0.0000000000000D+00
   195  1.9400000000000D+00  0.0000000000000D+00  0.0000000000000D+00
   196  1.9500000000000D+00  0.0000000000000D+00  0.0000000000000D+00
   197  1.9600000000000D+00  0.0000000000000D+00  0.0000000000000D+00
   198  1.9700000000000D+00  0.0000000000000D+00  0.0000000000000D+00
   199  1.9800000000000D+00  0.0000000000000D+00  0.0000000000000D+00
   200  1.9900000000000D+00  0.0000000000000D+00  0.0000000000000D+00
   201  2.0000000000000D+00  0.0000000000000D+00  0.0000000000000D+00
   202  2.0100000000000D+00  0.0000000000000D+00  0.0000000000000D+00
   203  2.0200000000000D+00  0.0000000000000D+00  0.0000000000000D+00
   204  2.0300000000000D+00  0.0000000000000D+00  0.0000000000000D+00
   205  2.0400000000000D+00  0.0000000000000D+00  0.0000000000000D+00
   206  2.0500000000000D+00  0.0000000000000D+00  0.0000000000000D+00
   207  2.0600000000000D+00  0.0000000000000D+00  0.0000000000000D+00
   208  2.0700000000000D+00  0.0000000000000D+00  0.0000000000000D+00
   209  2.0800000000000D+00  0.0000000000000D+00  0.0000000000000D+00
   210  2.0900000000000D+00  0.0000000000000D+00  0.0000000000000D+00
   211  2.1000000000000D+00  0.0000000000000D+00  0.0000000000000D+00
   212  2.1100000000000D+00  0.0000000000000D+00  0.0000000000000D+00
   213  2.1200000000000D+00  0.0000000000000D+00  0.0000000000000D+00
   214  2.1300000000000D+00  0.0000000000000D+00  0.0000000000000D+00
   215  2.1400000000000D+00  0.0000000000000D+00  0.0000000000000D+00
   216  2.1500000000000D+00  0.0000000000000D+00  0.0000000000000D+00
   217  2.1600000000000D+00  0.0000000000000D+00  0.0000000000000D+00
   218  2.1700000000000D+00  0.0000000000000D+00  0.0000000000000D+00
   219  2.1800000000000D+00  0.0000000000000D+00  0.0000000000000D+00
   220  2.1900000000000D+00  0.0000000000000D+00  0.0000000000000D+00
   221  2.2000000000000D+00  0.0000000000000D+00  0.0000000000000D+00
   222  2.2100000000000D+00  0.0000000000000D+00  0.0000000000000D+00
   223  2.2200000000000D+00  0.0000000000000D+00  0.0000000000000D+00
   224  2.2300000000000D+00  0.0000000000000D+00  0.0000000000000D+00
   225  2.2400000000000D+00  0.0000000000000D+00  0.0000000000000D+00
   226  2.2500000000000D+00  0.0000000000000D+00  0.0000000000000D+00
   227  2.2600000000000D+00  0.0000000000000D+00  0.0000000000000D+00
   228  2.2700000000000D+00  0.0000000000000D+00  0.0000000000000D+00
   229  2.2800000000000D+00  0.0000000000000D+00  0.0000000000000D+00
   230  2.2900000000000D+00  0.0000000000000D+00  0.0000000000000D+00
   231  2.3000000000000D+00  0.0000000000000D+00  0.0000000000000D+00
   232  2.3100000000000D+00  0.0000000000000D+00  0.0000000000000D+00
   233  2.3200000000000D+00  0.0000000000000D+00  0.0000000000000D+00
   234  2.3300000000000D+00  0.0000000000000D+00  0.0000000000000D+00
   235  2.3400000000000D+00  0.0000000000000D+00  0.0000000000000D+00
   236  2.3500000000000D+00  0.0000000000000D+00  0.0000000000000D+00
   237  2.3600000000000D+00  0.0000000000000D+00  0.0000000000000D+00
   238  2.3700000000000D+00  0.0000000000000D+00  0.0000000000000D+00
   239  2.3800000000000D+00  0.0000000000000D+00  0.0000000000000D+00
   240  2.3900000000000D+00  0.0000000000000D+00  0.0000000000000D+00
   241  2.4000000000000D+00  0.0000000000000D+00  0.0000000000000D+00
   242  2.4100000000000D+00  0.0000000000000D+00  0.0000000000000D+00
   243  2.4200000000000D+00  0.0000000000000D+00  0.0000000000000D+00
   244  2.4300000000000D+00  0.0000000000000D+00  0.0000000000000D+00
   245  2.4400000000000D+00  0.0000000000000D+00  0.0000000000000D+00
   246  2.4500000000000D+00  0.0000000000000D+00  0.0000000000000D+00
   247  2.4600000000000D+00  0.0000000000000D+00  0.0000000000000D+00
   248  2.4700000000000D+00  0.0000000000000D+00  0.0000000000000D+00
   249  2.4800000000000D+00  0.0000000000000D+00  0.0000000000000D+00
   250  2.4900000000000D+00  0.0000000000000D+00  0.0000000000000D+00
   251  2.5000000000000D+00  0.0000000000000D+00  0.0000000000000D+00
   252  2.5100000000000D+00  0.0000000000000D+00  0.0000000000000D+00
   253  2.5200000000000D+00  0.0000000000000D+00  0.0000000000000D+00
   254  2.5300000000000D+00  0.0000000000000D+00  0.0000000000000D+00
   255  2.5400000000000D+00  0.0000000000000D+00  0.0000000000000D+00
   256  2.5500000000000D+00  0.0000000000000D+00  0.0000000000000D+00
   257  2.5600000000000D+00  0.0000000000000D+00  0.0000000000000D+00
   258  2.5700000000000D+00  0.0000000000000D+00  0.0000000000000D+00
   259  2.5800000000000D+00  0.0000000000000D+00  0.0000000000000D+00
   260  2.5900000000000D+00  0.0000000000000D+00  0.0000000000000D+00
   261  2.6000000000000D+00  0.0000000000000D+00  0.0000000000000D+00
   262  2.6100000000000D+00  0.0000000000000D+00  0.0000000000000D+00
   263  2.6200000000000D+00  0.0000000000000D+00  0.0000000000000D+00
   264  2.6300000000000D+00  0.0000000000000D+00  0.0000000000000D+00
   265  2.6400000000000D+00  0.0000000000000D+00  0.0000000000000D+00
   266  2.6500000000000D+00  0.0000000000000D+00  0.0000000000000D+00
   267  2.6600000000000D+00  0.0000000000000D+00  0.0000000000000D+00
   268  2.6700000000000D+00  0.0000000000000D+00  0.0000000000000D+00
   269  2.6800000000000D+00  0.0000000000000D+00  0.0000000000000D+00
   270  2.6900000000000D+00  0.0000000000000D+00  0.0000000000000D+00
   271  2.7000000000000D+00  0.0000000000000D+00  0.0000000000000D+00
   272  2.7100000000000D+00  0.0000000000000D+00  0.0000000000000D+00
   273  2.7200000000000D+00  0.0000000000000D+00  0.0000000000000D+00
   274  2.7300000000000D+00  0.0000000000000D+00  0.0000000000000D+00
   275  2.7400000000000D+00  0.0000000000000D+00  0.0000000000000D+00
   276  2.7500000000000D+00  0.0000000000000D+00  0.0000000000000D+00
   277  2.7600000000000D+00  0.0000000000000D+00  0.0000000000000D+00
   278  2.7700000000000D+00  0.0000000000000D+00  0.0000000000000D+00
   279  2.7800000000000D+00  0.0000000000000D+00  0.0000000000000D+00
   280  2.7900000000000D+00  0.0000000000000D+00  0.0000000000000D+00
   281  2.8000000000000D+00  0.0000000000000D+00  0.0000000000000D+00
   282  2.8100000000000D+00  0.0000000000000D+00  0.0000000000000D+00
   283  2.8200000000000D+00  0.0000000000000D+00  0.0000000000000D+00
   284  2.8300000000000D+00  0.0000000000000D+00  0.0000000000000D+00
   285  2.8400000000000D+00  0.0000000000000D+00  0.0000000000000D+00
   286  2.8500000000000D+00  0.0000000000000D+00  0.0000000000000D+00
   287  2.8600000000000D+00  0.0000000000000D+00  0.0000000000000D+00
   288  2.8700000000000D+00  0.0000000000000D+00  0.0000000000000D+00
   289  2.8800000000000D+00  0.0000000000000D+00  0.0000000000000D+00
   290  2.8900000000000D+00  0.0000000000000D+00  0.0000000000000D+00
   291  2.9000000000000D+00  0.0000000000000D+00  0.0000000000000D+00
   292  2.9100000000000D+00  0.0000000000000D+00  0.0000000000000D+00
   293  2.9200000000000D+00  0.0000000000000D+00  0.0000000000000D+00
   294  2.9300000000000D+00  0.0000000000000D+00  0.0000000000000D+00
   295  2.9400000000000D+00  0.0000000000000D+00  0.0000000000000D+00
   296  2.9500000000000D+00  0.0000000000000D+00  0.0000000000000D+00
   297  2.9600000000000D+00  0.0000000000000D+00  0.0000000000000D+00
   298  2.9700000000000D+00  0.0000000000000D+00  0.0000000000000D+00
   299  2.9800000000000D+00  0.0000000000000D+00  0.0000000000000D+00
   300  2.9900000000000D+00  0.0000000000000D+00  0.0000000000000D+00
   301  3.0000000000000D+00  0.0000000000000D+00  0.0000000000000D+00
   302  3.0100000000000D+00  0.0000000000000D+00  0.0000000000000D+00
   303  3.0200000000000D+00  0.0000000000000D+00  0.0000000000000D+00
   304  3.0300000000000D+00  0.0000000000000D+00  0.0000000000000D+00
   305  3.0400000000000D+00  0.0000000000000D+00  0.0000000000000D+00
   306  3.0500000000000D+00  0.0000000000000D+00  0.0000000000000D+00
   307  3.0600000000000D+00  0.0000000000000D+00  0.0000000000000D+00
   308  3.0700000000000D+00  0.0000000000000D+00  0.0000000000000D+00
   309  3.0800000000000D+00  0.0000000000000D+00  0.0000000000000D+00
   310  3.0900000000000D+00  0.0000000000000D+00  0.0000000000000D+00
   311  3.1000000000000D+00  0.0000000000000D+00  0.0000000000000D+00
   312  3.1100000000000D+00  0.0000000000000D+00  0.0000000000000D+00
   313  3.1200000000000D+00  0.0000000000000D+00  0.0000000000000D+00
   314  3.1300000000000D+00  0.0000000000000D+00  0.0000000000000D+00
   315  3.1400000000000D+00  0.0000000000000D+00  0.0000000000000D+00
   316  3.1500000000000D+00  0.0000000000000D+00  0.0000000000000D+00
   317  3.1600000000000D+00  0.0000000000000D+00  0.0000000000000D+00
   318  3.1700000000000D+00  0.0000000000000D+00  0.0000000000000D+00
   319  3.1800000000000D+00  0.0000000000000D+00  0.0000000000000D+00
   320  3.1900000000000D+00  0.0000000000000D+00  0.0000000000000D+00
   321  3.2000000000000D+00  0.0000000000000D+00  0.0000000000000D+00
   322  3.2100000000000D+00  0.0000000000000D+00  0.0000000000000D+00
   323  3.2200000000000D+00  0.0000000000000D+00  0.0000000000000D+00
   324  3.2300000000000D+00  0.0000000000000D+00  0.0000000000000D+00
   325  3.2400000000000D+00  0.0000000000000D+00  0.0000000000000D+00
   326  3.2500000000000D+00  0.0000000000000D+00  0.0000000000000D+00
   327  3.2600000000000D+00  0.0000000000000D+00  0.0000000000000D+00
   328  3.2700000000000D+00  0.0000000000000D+00  0.0000000000000D+00
   329  3.2800000000000D+00  0.0000000000000D+00  0.0000000000000D+00
   330  3.2900000000000D+00  0.0000000000000D+00  0.0000000000000D+00
   331  3.3000000000000D+00  0.0000000000000D+00  0.0000000000000D+00
   332  3.3100000000000D+00  0.0000000000000D+00  0.0000000000000D+00
   333  3.3200000000000D+00  0.0000000000000D+00  0.0000000000000D+00
   334  3.3300000000000D+00  0.0000000000000D+00  0.0000000000000D+00
   335  3.3400000000000D+00  0.0000000000000D+00  0.0000000000000D+00
   336  3.3500000000000D+00  0.0000000000000D+00  0.0000000000000D+00
   337  3.3600000000000D+00  0.0000000000000D+00  0.0000000000000D+00
   338  3.3700000000000D+00  0.0000000000000D+00  0.0000000000000D+00
   339  3.3800000000000D+00  0.0000000000000D+00  0.0000000000000D+00
   340  3.3900000000000D+00  0.0000000000000D+00  0.0000000000000D+00
   341  3.4000000000000D+00  0.0000000000000D+00  0.0000000000000D+00
   342  3.4100000000000D+00  0.0000000000000D+00  0.0000000000000D+00
   343  3.4200000000000D+00  0.0000000000000D+00  0.0000000000000D+00
   344  3.4300000000000D+00  0.0000000000000D+00  0.0000000000000D+00
   345  3.4400000000000D+00  0.0000000000000D+00  0.0000000000000D+00
   346  3.4500000000000D+00  0.0000000000000D+00  0.0000000000000D+00
   347  3.4600000000000D+00  0.0000000000000D+00  0.0000000000000D+00
   348  3.4700000000000D+00  0.0000000000000D+00  0.0000000000000D+00
   349  3.4800000000000D+00  0.0000000000000D+00  0.0000000000000D+00
   350  3.4900000000000D+00  0.0000000000000D+00  0.0000000000000D+00
   351  3.5000000000000D+00  0.0000000000000D+00  0.0000000000000D+00
   352  3.5100000000000D+00  0.0000000000000D+00  0.0000000000000D+00
   353  3.5200000000000D+00  0.0000000000000D+00  0.0000000000000D+00
   354  3.5300000000000D+00  0.0000000000000D+00  0.0000000000000D+00
   355  3.5400000000000D+00  0.0000000000000D+00  0.0000000000000D+00
   356  3.5500000000000D+00  0.0000000000000D+00  0.0000000000000D+00
   357  3.5600000000000D+00  0.0000000000000D+00  0.0000000000000D+00
   358  3.5700000000000D+00  0.0000000000000D+00  0.0000000000000D+00
   359  3.5800000000000D+00  0.0000000000000D+00  0.0000000000000D+00
   360  3.5900000000000D+00  0.0000000000000D+00  0.0000000000000D+00
   361  3.6000000000000D+00  0.0000000000000D+00  0.0000000000000D+00
   362  3.6100000000000D+00  0.0000000000000D+00  0.0000000000000D+00
   363  3.6200000000000D+00  0.0000000000000D+00  0.0000000000000D+00
   364  3.6300000000000D+00  0.0000000000000D+00  0.0000000000000D+00
   365  3.6400000000000D+00  0.0000000000000D+00  0.0000000000000D+00
   366  3.6500000000000D+00  0.0000000000000D+00  0.0000000000000D+00
   367  3.6600000000000D+00  0.0000000000000D+00  0.0000000000000D+00
   368  3.6700000000000D+00  0.0000000000000D+00  0.0000000000000D+00
   369  3.6800000000000D+00  0.0000000000000D+00  0.0000000000000D+00
   370  3.6900000000000D+00  0.0000000000000D+00  0.0000000000000D+00
   371  3.7000000000000D+00  0.0000000000000D+00  0.0000000000000D+00
   372  3.7100000000000D+00  0.0000000000000D+00  0.0000000000000D+00
   373  3.7200000000000D+00  0.0000000000000D+00  0.0000000000000D+00
   374  3.7300000000000D+00  0.0000000000000D+00  0.0000000000000D+00
   375  3.7400000000000D+00  0.0000000000000D+00  0.0000000000000D+00
   376  3.7500000000000D+00  0.0000000000000D+00  0.0000000000000D+00
   377  3.7600000000000D+00  0.0000000000000D+00  0.0000000000000D+00
   378  3.7700000000000D+00  0.0000000000000D+00  0.0000000000000D+00
   379  3.7800000000000D+00  0.0000000000000D+00  0.0000000000000D+00
   380  3.7900000000000D+00  0.0000000000000D+00  0.0000000000000D+00
   381  3.8000000000000D+00  0.0000000000000D+00  0.0000000000000D+00
   382  3.8100000000000D+00  0.0000000000000D+00  0.0000000000000D+00
   383  3.8200000000000D+00  0.0000000000000D+00  0.0000000000000D+00
   384  3.8300000000000D+00  0.0000000000000D+00  0.0000000000000D+00
   385  3.8400000000000D+00  0.0000000000000D+00  0.0000000000000D+00
   386  3.8500000000000D+00  0.0000000000000D+00  0.0000000000000D+00
   387  3.8600000000000D+00  0.0000000000000D+00  0.0000000000000D+00
   388  3.8700000000000D+00  0.0000000000000D+00  0.0000000000000D+00
   389  3.8800000000000D+00  0.0000000000000D+00  0.0000000000000D+00
   390  3.8900000000000D+00  0.0000000000000D+00  0.0000000000000D+00
   391  3.9000000000000D+00  0.0000000000000D+00  0.0000000000000D+00
   392  3.9100000000000D+00  0.0000000000000D+00  0.0000000000000D+00
   393  3.9200000000000D+00  0.0000000000000D+00  0.0000000000000D+00
   394  3.9300000000000D+00  0.0000000000000D+00  0.0000000000000D+00
   395  3.9400000000000D+00  0.0000000000000D+00  0.0000000000000D+00
   396  3.9500000000000D+00  0.0000000000000D+00  0.0000000000000D+00
   397  3.9600000000000D+00  0.0000000000000D+00  0.0000000000000D+00
   398  3.9700000000000D+00  0.0000000000000D+00  0.0000000000000D+00
   399  3.9800000000000D+00  0.0000000000000D+00  0.0000000000000D+00
   400  3.9900000000000D+00  0.0000000000000D+00  0.0000000000000D+00
   401  4.0000000000000D+00  0.0000000000000D+00  0.0000000000000D+00
   402  4.0100000000000D+00  0.0000000000000D+00  0.0000000000000D+00
   403  4.0200000000000D+00  0.0000000000000D+00  0.0000000000000D+00
   404  4.0300000000000D+00  0.0000000000000D+00  0.0000000000000D+00
   405  4.0400000000000D+00  0.0000000000000D+00  0.0000000000000D+00
   406  4.0500000000000D+00  0.0000000000000D+00  0.0000000000000D+00
   407  4.0600000000000D+00  0.0000000000000D+00  0.0000000000000D+00
   408  4.0700000000000D+00  0.0000000000000D+00  0.0000000000000D+00
   409  4.0800000000000D+00  0.0000000000000D+00  0.0000000000000D+00
   410  4.0900000000000D+00  0.0000000000000D+00  0.0000000000000D+00
   411  4.1000000000000D+00  0.0000000000000D+00  0.0000000000000D+00
   412  4.1100000000000D+00  0.0000000000000D+00  0.0000000000000D+00
   413  4.1200000000000D+00  0.0000000000000D+00  0.0000000000000D+00
   414  4.1300000000000D+00  0.0000000000000D+00  0.0000000000000D+00
   415  4.1400000000000D+00  0.0000000000000D+00  0.0000000000000D+00
   416  4.1500000000000D+00  0.0000000000000D+00  0.0000000000000D+00
   417  4.1600000000000D+00  0.0000000000000D+00  0.0000000000000D+00
   418  4.1700000000000D+00  0.0000000000000D+00  0.0000000000000D+00
   419  4.1800000000000D+00  0.0000000000000D+00  0.0000000000000D+00
   420  4.1900000000000D+00  0.0000000000000D+00  0.0000000000000D+00
   421  4.2000000000000D+00  0.0000000000000D+00  0.0000000000000D+00
   422  4.2100000000000D+00  0.0000000000000D+00  0.0000000000000D+00