Fe    ONCVPSP-3.3.1  r_core=   2.08667   2.13706   2.06193
     26.0000     16.0000      210905    zatom,zion,pspd
     8 -116133   2     4   600     0    pspcod,pspxc,lmax,lloc,mmax,r2well
  5.99000000  0.00000000  0.00000000    rchrg fchrg qchrg
     2     2     2     0     0    nproj
     1     1           extension_switch
   0                         1.2206306291741D+01 -2.2974136851216D+00
     1  0.0000000000000D+00 -6.6267324960734D-11 -7.3160366653724D-12
     2  1.0000000000000D-02 -5.7755555239598D-02  3.2255857429591D-02
     3  2.0000000000000D-02 -1.1539102089154D-01  6.4487858368437D-02
     4  3.0000000000000D-02 -1.7278639213758D-01  9.6672186412318D-02
     5  4.0000000000000D-02 -2.2982183522650D-01  1.2878510509678D-01
     6  5.0000000000000D-02 -2.8637777681124D-01  1.6080299728568D-01
     7  6.0000000000000D-02 -3.4233499780325D-01  1.9270240386734D-01
     8  7.0000000000000D-02 -3.9757473317144D-01  2.2446006153607D-01
     9  8.0000000000000D-02 -4.5197877904705D-01  2.5605293944427D-01
    10  9.0000000000000D-02 -5.0542960841374D-01  2.8745827451922D-01
    11  1.0000000000000D-01 -5.5781049656563D-01  3.1865360524941D-01
    12  1.1000000000000D-01 -6.0900565740506D-01  3.4961680375748D-01
    13  1.2000000000000D-01 -6.5890039152765D-01  3.8032610599065D-01
    14  1.3000000000000D-01 -7.0738124690608D-01  4.1076013987453D-01
    15  1.4000000000000D-01 -7.5433619283631D-01  4.4089795129265D-01
    16  1.5000000000000D-01 -7.9965480765263D-01  4.7071902777150D-01
    17  1.6000000000000D-01 -8.4322848055175D-01  5.0020331976939D-01
    18  1.7000000000000D-01 -8.8495062769276D-01  5.2933125948680D-01
    19  1.8000000000000D-01 -9.2471692256053D-01  5.5808377713602D-01
    20  1.9000000000000D-01 -9.6242554039626D-01  5.8644231462828D-01
    21  2.0000000000000D-01 -9.9797741631244D-01  6.1438883665796D-01
    22  2.1000000000000D-01 -1.0312765165214D+00  6.4190583918432D-01
    23  2.2000000000000D-01 -1.0622301219196D+00  6.6897635533276D-01
    24  2.3000000000000D-01 -1.0907491230822D+00  6.9558395875877D-01
    25  2.4000000000000D-01 -1.1167483255433D+00  7.2171276453857D-01
    26  2.5000000000000D-01 -1.1401467640561D+00  7.4734742767107D-01
    27  2.6000000000000D-01 -1.1608680243594D+00  7.7247313929564D-01
    28  2.7000000000000D-01 -1.1788405708128D+00  7.9707562074926D-01
    29  2.8000000000000D-01 -1.1939980781103D+00  8.2114111560490D-01
    30  2.9000000000000D-01 -1.2062797651391D+00  8.4465637985021D-01
    31  3.0000000000000D-01 -1.2156307289224D+00  8.6760867038135D-01
    32  3.1000000000000D-01 -1.2220022764669D+00  8.8998573200167D-01
    33  3.2000000000000D-01 -1.2253522522345D+00  9.1177578312791D-01
    34  3.3000000000000D-01 -1.2256453588743D+00  9.3296750041821D-01
    35  3.4000000000000D-01 -1.2228534687788D+00  9.5355000254608D-01
    36  3.5000000000000D-01 -1.2169559239800D+00  9.7351283335273D-01
    37  3.6000000000000D-01 -1.2079398218669D+00  9.9284594461621D-01
    38  3.7000000000000D-01 -1.1958002841930D+00  1.0115396786803D+00
    39  3.8000000000000D-01 -1.1805407068473D+00  1.0295847511881D+00
    40  3.9000000000000D-01 -1.1621729878890D+00  1.0469722341671D+00
    41  4.0000000000000D-01 -1.1407177313907D+00  1.0636935397071D+00
    42  4.1000000000000D-01 -1.1162044247011D+00  1.0797404044744D+00
    43  4.2000000000000D-01 -1.0886715868246D+00  1.0951048752945D+00
    44  4.3000000000000D-01 -1.0581668857169D+00  1.1097792960299D+00
    45  4.4000000000000D-01 -1.0247472224257D+00  1.1237562959720D+00
    46  4.5000000000000D-01 -9.8847878014360D-01  1.1370287799496D+00
    47  4.6000000000000D-01 -9.4943703640471D-01  1.1495899203479D+00
    48  4.7000000000000D-01 -9.0770673683296D-01  1.1614331512137D+00
    49  4.8000000000000D-01 -8.6338182904638D-01  1.1725521646057D+00
    50  4.9000000000000D-01 -8.1656535552945D-01  1.1829409093324D+00
    51  5.0000000000000D-01 -7.6736930451073D-01  1.1925935921969D+00
    52  5.1000000000000D-01 -7.1591441811787D-01  1.2015046818499D+00
    53  5.2000000000000D-01 -6.6232995733000D-01  1.2096689153268D+00
    54  5.3000000000000D-01 -6.0675342350372D-01  1.2170813073245D+00
    55  5.4000000000000D-01 -5.4933023651368D-01  1.2237371622453D+00
    56  5.5000000000000D-01 -4.9021336981912D-01  1.2296320890153D+00
    57  5.6000000000000D-01 -4.2956294304329D-01  1.2347620186535D+00
    58  5.7000000000000D-01 -3.6754577292950D-01  1.2391232245484D+00
    59  5.8000000000000D-01 -3.0433488381667D-01  1.2427123453661D+00
    60  5.9000000000000D-01 -2.4010897905322D-01  1.2455264104957D+00
    61  6.0000000000000D-01 -1.7505187504248D-01  1.2475628679050D+00
    62  6.1000000000000D-01 -1.0935189988121D-01  1.2488196142599D+00
    63  6.2000000000000D-01 -4.3201258813648D-02  1.2492950271345D+00
    64  6.3000000000000D-01  2.3204631022985D-02  1.2489879991139D+00
    65  6.4000000000000D-01  8.9667833845199D-02  1.2478979735727D+00
    66  6.5000000000000D-01  1.5598861351648D-01  1.2460249818883D+00
    67  6.6000000000000D-01  2.2196617372679D-01  1.2433696818284D+00
    68  6.7000000000000D-01  2.8739941670057D-01  1.2399333968358D+00
    69  6.8000000000000D-01  3.5208771689441D-01  1.2357181559149D+00
    70  6.9000000000000D-01  4.1583170598439D-01  1.2307267338111D+00
    71  7.0000000000000D-01  4.7843406530291D-01  1.2249626911607D+00
    72  7.1000000000000D-01  5.3970032176553D-01  1.2184304142796D+00
    73  7.2000000000000D-01  5.9943964323309D-01  1.2111351542490D+00
    74  7.3000000000000D-01  6.5746562918194D-01  1.2030830649532D+00
    75  7.4000000000000D-01  7.1359709250895D-01  1.1942812397177D+00
    76  7.5000000000000D-01  7.6765882827574D-01  1.1847377461983D+00
    77  7.6000000000000D-01  8.1948236520132D-01  1.1744616591704D+00
    78  7.7000000000000D-01  8.6890669574316D-01  1.1634630908745D+00
    79  7.8000000000000D-01  9.1577898066363D-01  1.1517532185780D+00
    80  7.9000000000000D-01  9.5995522406269D-01  1.1393443090251D+00
    81  8.0000000000000D-01  1.0013009149675D+00  1.1262497394567D+00
    82  8.1000000000000D-01  1.0396916317055D+00  1.1124840148970D+00
    83  8.2000000000000D-01  1.0750136054481D+00  1.0980627814207D+00
    84  8.3000000000000D-01  1.1071642394986D+00  1.0830028351331D+00
    85  8.4000000000000D-01  1.1360525811069D+00  1.0673221266171D+00
    86  8.5000000000000D-01  1.1615997428245D+00  1.0510397606247D+00
    87  8.6000000000000D-01  1.1837392706692D+00  1.0341759908152D+00
    88  8.7000000000000D-01  1.2024174566376D+00  1.0167522093717D+00
    89  8.8000000000000D-01  1.2175935934017D+00  9.9879093135395D-01
    90  8.9000000000000D-01  1.2292401693259D+00  9.8031577367816D-01
    91  9.0000000000000D-01  1.2373430022716D+00  9.6135142864528D-01
    92  9.1000000000000D-01  1.2419013109887D+00  9.4192363197295D-01
    93  9.2000000000000D-01  1.2429277232390D+00  9.2205912531967D-01
    94  9.3000000000000D-01  1.2404482201573D+00  9.0178561332491D-01
    95  9.4000000000000D-01  1.2345020167130D+00  8.8113171522376D-01
    96  9.5000000000000D-01  1.2251413785046D+00  8.6012691113023D-01
    97  9.6000000000000D-01  1.2124313754868D+00  8.3880148311858D-01
    98  9.7000000000000D-01  1.1964495736011D+00  8.1718645126756D-01
    99  9.8000000000000D-01  1.1772856656383D+00  7.9531350486645D-01
   100  9.9000000000000D-01  1.1550410430300D+00  7.7321492901633D-01
   101  1.0000000000000D+00  1.1298283106135D+00  7.5092352689289D-01
   102  1.0100000000000D+00  1.1017707467599D+00  7.2847253796855D-01
   103  1.0200000000000D+00  1.0710017115814D+00  7.0589555252250D-01
   104  1.0300000000000D+00  1.0376640062525D+00  6.8322642279523D-01
   105  1.0400000000000D+00  1.0019091867856D+00  6.6049917117241D-01
   106  1.0500000000000D+00  9.6389683585826D-01  6.3774789580516D-01
   107  1.0600000000000D+00  9.2379379658210D-01  6.1500667409923D-01
   108  1.0700000000000D+00  8.8177337231591D-01  5.9230946452366D-01
   109  1.0800000000000D+00  8.3801449684781D-01  5.6969000720753D-01
   110  1.0900000000000D+00  7.9270087946324D-01  5.4718172380851D-01
   111  1.1000000000000D+00  7.4602012955627D-01  5.2481761714729D-01
   112  1.1100000000000D+00  6.9816286560261D-01  5.0263017111310D-01
   113  1.1200000000000D+00  6.4932181339369D-01  4.8065125134923D-01
   114  1.1300000000000D+00  5.9969089851077D-01  4.5891200723085D-01
   115  1.1400000000000D+00  5.4946433805604D-01  4.3744277564662D-01
   116  1.1500000000000D+00  4.9883573667744D-01  4.1627298709237D-01
   117  1.1600000000000D+00  4.4799719189613D-01  3.9543107457739D-01
   118  1.1700000000000D+00  3.9713841367838D-01  3.7494438583156D-01
   119  1.1800000000000D+00  3.4644586314637D-01  3.5483909929340D-01
   120  1.1900000000000D+00  2.9610191517726D-01  3.3514014433729D-01
   121  1.2000000000000D+00  2.4628404949727D-01  3.1587112617963D-01
   122  1.2100000000000D+00  1.9716407469381D-01  2.9705425588001D-01
   123  1.2200000000000D+00  1.4890738943476D-01  2.7871028583571D-01
   124  1.2300000000000D+00  1.0167228485788D-01  2.6085845112824D-01
   125  1.2400000000000D+00  5.5609291821650D-02  2.4351641704882D-01
   126  1.2500000000000D+00  1.0860576638602D-02  2.2670023312032D-01
   127  1.2600000000000D+00 -3.2440611661890D-02  2.1042429386666D-01
   128  1.2700000000000D+00 -7.4170439751682D-02  1.9470130655174D-01
   129  1.2800000000000D+00 -1.1421493141062D-01  1.7954226609828D-01
   130  1.2900000000000D+00 -1.5247034991315D-01  1.6495643731978D-01
   131  1.3000000000000D+00 -1.8884351973139D-01  1.5095134456110D-01
   132  1.3100000000000D+00 -2.2325208586104D-01  1.3753276884593D-01
   133  1.3200000000000D+00 -2.5562471002136D-01  1.2470475252515D-01
   134  1.3300000000000D+00 -2.8590120320740D-01  1.1246961139662D-01
   135  1.3400000000000D+00 -3.1403259400401D-01  1.0082795427318D-01
   136  1.3500000000000D+00 -3.3998113332274D-01  8.9778709841005D-02
   137  1.3600000000000D+00 -3.6372023598403D-01  7.9319160677224D-02
   138  1.3700000000000D+00 -3.8523435995574D-01  6.9444984252699D-02
   139  1.3800000000000D+00 -4.0451882512945D-01  6.0150300634249D-02
   140  1.3900000000000D+00 -4.2157957289632D-01  5.1427726665468D-02
   141  1.4000000000000D+00 -4.3643286895251D-01  4.3268436282572D-02
   142  1.4100000000000D+00 -4.4910495197658D-01  3.5662226602392D-02
   143  1.4200000000000D+00 -4.5963163048604D-01  2.8597589451241D-02
   144  1.4300000000000D+00 -4.6805783173607D-01  2.2061787847854D-02
   145  1.4400000000000D+00 -4.7443710550449D-01  1.6040937055859D-02
   146  1.4500000000000D+00 -4.7883108681611D-01  1.0520089699649D-02
   147  1.4600000000000D+00 -4.8130892160362D-01  5.4833244477721D-03
   148  1.4700000000000D+00 -4.8194665916435D-01  9.1383777535199D-04
   149  1.4800000000000D+00 -4.8082661631618D-01 -3.2059617731865D-03
   150  1.4900000000000D+00 -4.7803671724314D-01 -6.8943573222734D-03
   151  1.5000000000000D+00 -4.7366981417883D-01 -1.0170226002630D-02
   152  1.5100000000000D+00 -4.6782299336913D-01 -1.3052940424395D-02
   153  1.5200000000000D+00 -4.6059687137944D-01 -1.5562269878667D-02
   154  1.5300000000000D+00 -4.5209488642705D-01 -1.7718281808737D-02
   155  1.5400000000000D+00 -4.4242258988091D-01 -1.9541244158635D-02
   156  1.5500000000000D+00 -4.3168694234148D-01 -2.1051529088717D-02
   157  1.5600000000000D+00 -4.1999561971540D-01 -2.2269518700128D-02
   158  1.5700000000000D+00 -4.0745633315226D-01 -2.3215513182840D-02
   159  1.5800000000000D+00 -3.9417616829883D-01 -2.3909642026455D-02
   160  1.5900000000000D+00 -3.8026094735925D-01 -2.4371778664122D-02
   161  1.6000000000000D+00 -3.6581461897125D-01 -2.4621459124425D-02
   162  1.6100000000000D+00 -3.5093867924317D-01 -2.4677805047535D-02
   163  1.6200000000000D+00 -3.3573162809375D-01 -2.4559451528828D-02
   164  1.6300000000000D+00 -3.2028846425114D-01 -2.4284480149415D-02
   165  1.6400000000000D+00 -3.0470022187435D-01 -2.3870357512554D-02
   166  1.6500000000000D+00 -2.8905355223251D-01 -2.3333879654879D-02
   167  1.6600000000000D+00 -2.7343035204391D-01 -2.2691122489575D-02
   168  1.6700000000000D+00 -2.5790744195054D-01 -2.1957398654113D-02
   169  1.6800000000000D+00 -2.4255629533670D-01 -2.1147220757247D-02
   170  1.6900000000000D+00 -2.2744282085051D-01 -2.0274271382500D-02
   171  1.7000000000000D+00 -2.1262719757275D-01 -1.9351379697744D-02
   172  1.7100000000000D+00 -1.9816376579741D-01 -1.8390504980463D-02
   173  1.7200000000000D+00 -1.8410097139282D-01 -1.7402726797982D-02
   174  1.7300000000000D+00 -1.7048136592686D-01 -1.6398242060678D-02
   175  1.7400000000000D+00 -1.5734165997895D-01 -1.5386368626967D-02
   176  1.7500000000000D+00 -1.4471283057654D-01 -1.4375555534603D-02
   177  1.7600000000000D+00 -1.3262028015868D-01 -1.3373399536236D-02
   178  1.7700000000000D+00 -1.2108404627616D-01 -1.2386667817462D-02
   179  1.7800000000000D+00 -1.1011905995159D-01 -1.1421326634544D-02
   180  1.7900000000000D+00 -9.9735449783302D-02 -1.0482575511649D-02
   181  1.8000000000000D+00 -8.9938890664278D-02 -9.5748868399446D-03
   182  1.8100000000000D+00 -8.0730994095181D-02 -8.7020504768923D-03
   183  1.8200000000000D+00 -7.2109734996137D-02 -7.8672228163577D-03
   184  1.8300000000000D+00 -6.4069882142057D-02 -7.0729770145551D-03
   185  1.8400000000000D+00 -5.6603633070434D-02 -6.3213738398964D-03
   186  1.8500000000000D+00 -4.9700747636627D-02 -5.6139843082131D-03
   187  1.8600000000000D+00 -4.3349408610411D-02 -4.9519840067191D-03
   188  1.8700000000000D+00 -3.7537440395306D-02 -4.3362817105803D-03
   189  1.8800000000000D+00 -3.2251560521824D-02 -3.7674583870163D-03
   190  1.8900000000000D+00 -2.7476755172908D-02 -3.2457189830662D-03
   191  1.9000000000000D+00 -2.3195811565973D-02 -2.7708574591613D-03
   192  1.9100000000000D+00 -1.9388558378765D-02 -2.3421923534917D-03
   193  1.9200000000000D+00 -1.6031314843518D-02 -1.9585228848144D-03
   194  1.9300000000000D+00 -1.3097952916581D-02 -1.6182409966134D-03
   195  1.9400000000000D+00 -1.0560743120875D-02 -1.3194215400514D-03
   196  1.9500000000000D+00 -8.3903863535789D-03 -1.0598350143751D-03
   197  1.9600000000000D+00 -6.5566180725578D-03 -8.3701486411939D-04
   198  1.9700000000000D+00 -5.0286140367963D-03 -6.4830547885387D-04
   199  1.9800000000000D+00 -3.7753893469192D-03 -4.9090929677762D-04
   200  1.9900000000000D+00 -2.7661835416052D-03 -3.6193219663590D-04
   201  2.0000000000000D+00 -1.9708105787702D-03 -2.5842501586084D-04
   202  2.0100000000000D+00 -1.3599828397242D-03 -1.7742219723607D-04
   203  2.0200000000000D+00 -9.0567907163664D-04 -1.1596983032619D-04
   204  2.0300000000000D+00 -5.8107987370389D-04 -7.1179023447752D-05
   205  2.0400000000000D+00 -3.6068374722183D-04 -4.0228089912972D-05
   206  2.0500000000000D+00 -2.2129452445564D-04 -2.0375230014932D-05
   207  2.0600000000000D+00 -1.4432315885709D-04 -9.0092838127023D-06
   208  2.0700000000000D+00 -1.1405321314941D-04 -3.7553581862158D-06
   209  2.0800000000000D+00 -1.0218694742984D-04 -2.0048079230501D-06
   210  2.0900000000000D+00 -8.1912936843673D-05 -1.4720992557410D-06
   211  2.1000000000000D+00 -4.3238810722151D-05 -8.1246171111167D-07
   212  2.1100000000000D+00 -5.2469585008357D-06 -1.0756947185302D-07
   213  2.1200000000000D+00  9.1386168622740D-06  1.4216212993907D-07
   214  2.1300000000000D+00  6.2820416531437D-06  9.9031006514825D-08
   215  2.1400000000000D+00 -8.9481166771132D-07 -1.0456501823392D-08
   216  2.1500000000000D+00 -2.0665406630305D-06 -2.3302421638837D-08
   217  2.1600000000000D+00 -6.0646292953084D-07 -6.6374391756030D-09
   218  2.1700000000000D+00  2.1630655898274D-07  3.9479386405104D-09
   219  2.1800000000000D+00  2.1814880060582D-07  3.9815624793950D-09
   220  2.1900000000000D+00  0.0000000000000D+00  0.0000000000000D+00
   221  2.2000000000000D+00  0.0000000000000D+00  0.0000000000000D+00
   222  2.2100000000000D+00  0.0000000000000D+00  0.0000000000000D+00
   223  2.2200000000000D+00  0.0000000000000D+00  0.0000000000000D+00
   224  2.2300000000000D+00  0.0000000000000D+00  0.0000000000000D+00
   225  2.2400000000000D+00  0.0000000000000D+00  0.0000000000000D+00
   226  2.2500000000000D+00  0.0000000000000D+00  0.0000000000000D+00
   227  2.2600000000000D+00  0.0000000000000D+00  0.0000000000000D+00
   228  2.2700000000000D+00  0.0000000000000D+00  0.0000000000000D+00
   229  2.2800000000000D+00  0.0000000000000D+00  0.0000000000000D+00
   230  2.2900000000000D+00  0.0000000000000D+00  0.0000000000000D+00
   231  2.3000000000000D+00  0.0000000000000D+00  0.0000000000000D+00
   232  2.3100000000000D+00  0.0000000000000D+00  0.0000000000000D+00
   233  2.3200000000000D+00  0.0000000000000D+00  0.0000000000000D+00
   234  2.3300000000000D+00  0.0000000000000D+00  0.0000000000000D+00
   235  2.3400000000000D+00  0.0000000000000D+00  0.0000000000000D+00
   236  2.3500000000000D+00  0.0000000000000D+00  0.0000000000000D+00
   237  2.3600000000000D+00  0.0000000000000D+00  0.0000000000000D+00
   238  2.3700000000000D+00  0.0000000000000D+00  0.0000000000000D+00
   239  2.3800000000000D+00  0.0000000000000D+00  0.0000000000000D+00
   240  2.3900000000000D+00  0.0000000000000D+00  0.0000000000000D+00
   241  2.4000000000000D+00  0.0000000000000D+00  0.0000000000000D+00
   242  2.4100000000000D+00  0.0000000000000D+00  0.0000000000000D+00
   243  2.4200000000000D+00  0.0000000000000D+00  0.0000000000000D+00
   244  2.4300000000000D+00  0.0000000000000D+00  0.0000000000000D+00
   245  2.4400000000000D+00  0.0000000000000D+00  0.0000000000000D+00
   246  2.4500000000000D+00  0.0000000000000D+00  0.0000000000000D+00
   247  2.4600000000000D+00  0.0000000000000D+00  0.0000000000000D+00
   248  2.4700000000000D+00  0.0000000000000D+00  0.0000000000000D+00
   249  2.4800000000000D+00  0.0000000000000D+00  0.0000000000000D+00
   250  2.4900000000000D+00  0.0000000000000D+00  0.0000000000000D+00
   251  2.5000000000000D+00  0.0000000000000D+00  0.0000000000000D+00
   252  2.5100000000000D+00  0.0000000000000D+00  0.0000000000000D+00
   253  2.5200000000000D+00  0.0000000000000D+00  0.0000000000000D+00
   254  2.5300000000000D+00  0.0000000000000D+00  0.0000000000000D+00
   255  2.5400000000000D+00  0.0000000000000D+00  0.0000000000000D+00
   256  2.5500000000000D+00  0.0000000000000D+00  0.0000000000000D+00
   257  2.5600000000000D+00  0.0000000000000D+00  0.0000000000000D+00
   258  2.5700000000000D+00  0.0000000000000D+00  0.0000000000000D+00
   259  2.5800000000000D+00  0.0000000000000D+00  0.0000000000000D+00
   260  2.5900000000000D+00  0.0000000000000D+00  0.0000000000000D+00
   261  2.6000000000000D+00  0.0000000000000D+00  0.0000000000000D+00
   262  2.6100000000000D+00  0.0000000000000D+00  0.0000000000000D+00
   263  2.6200000000000D+00  0.0000000000000D+00  0.0000000000000D+00
   264  2.6300000000000D+00  0.0000000000000D+00  0.0000000000000D+00
   265  2.6400000000000D+00  0.0000000000000D+00  0.0000000000000D+00
   266  2.6500000000000D+00  0.0000000000000D+00  0.0000000000000D+00
   267  2.6600000000000D+00  0.0000000000000D+00  0.0000000000000D+00
   268  2.6700000000000D+00  0.0000000000000D+00  0.0000000000000D+00
   269  2.6800000000000D+00  0.0000000000000D+00  0.0000000000000D+00
   270  2.6900000000000D+00  0.0000000000000D+00  0.0000000000000D+00
   271  2.7000000000000D+00  0.0000000000000D+00  0.0000000000000D+00
   272  2.7100000000000D+00  0.0000000000000D+00  0.0000000000000D+00
   273  2.7200000000000D+00  0.0000000000000D+00  0.0000000000000D+00
   274  2.7300000000000D+00  0.0000000000000D+00  0.0000000000000D+00
   275  2.7400000000000D+00  0.0000000000000D+00  0.0000000000000D+00
   276  2.7500000000000D+00  0.0000000000000D+00  0.0000000000000D+00
   277  2.7600000000000D+00  0.0000000000000D+00  0.0000000000000D+00
   278  2.7700000000000D+00  0.0000000000000D+00  0.0000000000000D+00
   279  2.7800000000000D+00  0.0000000000000D+00  0.0000000000000D+00
   280  2.7900000000000D+00  0.0000000000000D+00  0.0000000000000D+00
   281  2.8000000000000D+00  0.0000000000000D+00  0.0000000000000D+00
   282  2.8100000000000D+00  0.0000000000000D+00  0.0000000000000D+00
   283  2.8200000000000D+00  0.0000000000000D+00  0.0000000000000D+00
   284  2.8300000000000D+00  0.0000000000000D+00  0.0000000000000D+00
   285  2.8400000000000D+00  0.0000000000000D+00  0.0000000000000D+00
   286  2.8500000000000D+00  0.0000000000000D+00  0.0000000000000D+00
   287  2.8600000000000D+00  0.0000000000000D+00  0.0000000000000D+00
   288  2.8700000000000D+00  0.0000000000000D+00  0.0000000000000D+00
   289  2.8800000000000D+00  0.0000000000000D+00  0.0000000000000D+00
   290  2.8900000000000D+00  0.0000000000000D+00  0.0000000000000D+00
   291  2.9000000000000D+00  0.0000000000000D+00  0.0000000000000D+00
   292  2.9100000000000D+00  0.0000000000000D+00  0.0000000000000D+00
   293  2.9200000000000D+00  0.0000000000000D+00  0.0000000000000D+00
   294  2.9300000000000D+00  0.0000000000000D+00  0.0000000000000D+00
   295  2.9400000000000D+00  0.0000000000000D+00  0.0000000000000D+00
   296  2.9500000000000D+00  0.0000000000000D+00  0.0000000000000D+00
   297  2.9600000000000D+00  0.0000000000000D+00  0.0000000000000D+00
   298  2.9700000000000D+00  0.0000000000000D+00  0.0000000000000D+00
   299  2.9800000000000D+00  0.0000000000000D+00  0.0000000000000D+00
   300  2.9900000000000D+00  0.0000000000000D+00  0.0000000000000D+00
   301  3.0000000000000D+00  0.0000000000000D+00  0.0000000000000D+00
   302  3.0100000000000D+00  0.0000000000000D+00  0.0000000000000D+00
   303  3.0200000000000D+00  0.0000000000000D+00  0.0000000000000D+00
   304  3.0300000000000D+00  0.0000000000000D+00  0.0000000000000D+00
   305  3.0400000000000D+00  0.0000000000000D+00  0.0000000000000D+00
   306  3.0500000000000D+00  0.0000000000000D+00  0.0000000000000D+00
   307  3.0600000000000D+00  0.0000000000000D+00  0.0000000000000D+00
   308  3.0700000000000D+00  0.0000000000000D+00  0.0000000000000D+00
   309  3.0800000000000D+00  0.0000000000000D+00  0.0000000000000D+00
   310  3.0900000000000D+00  0.0000000000000D+00  0.0000000000000D+00
   311  3.1000000000000D+00  0.0000000000000D+00  0.0000000000000D+00
   312  3.1100000000000D+00  0.0000000000000D+00  0.0000000000000D+00
   313  3.1200000000000D+00  0.0000000000000D+00  0.0000000000000D+00
   314  3.1300000000000D+00  0.0000000000000D+00  0.0000000000000D+00
   315  3.1400000000000D+00  0.0000000000000D+00  0.0000000000000D+00
   316  3.1500000000000D+00  0.0000000000000D+00  0.0000000000000D+00
   317  3.1600000000000D+00  0.0000000000000D+00  0.0000000000000D+00
   318  3.1700000000000D+00  0.0000000000000D+00  0.0000000000000D+00
   319  3.1800000000000D+00  0.0000000000000D+00  0.0000000000000D+00
   320  3.1900000000000D+00  0.0000000000000D+00  0.0000000000000D+00
   321  3.2000000000000D+00  0.0000000000000D+00  0.0000000000000D+00
   322  3.2100000000000D+00  0.0000000000000D+00  0.0000000000000D+00
   323  3.2200000000000D+00  0.0000000000000D+00  0.0000000000000D+00
   324  3.2300000000000D+00  0.0000000000000D+00  0.0000000000000D+00
   325  3.2400000000000D+00  0.0000000000000D+00  0.0000000000000D+00
   326  3.2500000000000D+00  0.0000000000000D+00  0.0000000000000D+00
   327  3.2600000000000D+00  0.0000000000000D+00  0.0000000000000D+00
   328  3.2700000000000D+00  0.0000000000000D+00  0.0000000000000D+00
   329  3.2800000000000D+00  0.0000000000000D+00  0.0000000000000D+00
   330  3.2900000000000D+00  0.0000000000000D+00  0.0000000000000D+00
   331  3.3000000000000D+00  0.0000000000000D+00  0.0000000000000D+00
   332  3.3100000000000D+00  0.0000000000000D+00  0.0000000000000D+00
   333  3.3200000000000D+00  0.0000000000000D+00  0.0000000000000D+00
   334  3.3300000000000D+00  0.0000000000000D+00  0.0000000000000D+00
   335  3.3400000000000D+00  0.0000000000000D+00  0.0000000000000D+00
   336  3.3500000000000D+00  0.0000000000000D+00  0.0000000000000D+00
   337  3.3600000000000D+00  0.0000000000000D+00  0.0000000000000D+00
   338  3.3700000000000D+00  0.0000000000000D+00  0.0000000000000D+00
   339  3.3800000000000D+00  0.0000000000000D+00  0.0000000000000D+00
   340  3.3900000000000D+00  0.0000000000000D+00  0.0000000000000D+00
   341  3.4000000000000D+00  0.0000000000000D+00  0.0000000000000D+00
   342  3.4100000000000D+00  0.0000000000000D+00  0.0000000000000D+00
   343  3.4200000000000D+00  0.0000000000000D+00  0.0000000000000D+00
   344  3.4300000000000D+00  0.0000000000000D+00  0.0000000000000D+00
   345  3.4400000000000D+00  0.0000000000000D+00  0.0000000000000D+00
   346  3.4500000000000D+00  0.0000000000000D+00  0.0000000000000D+00
   347  3.4600000000000D+00  0.0000000000000D+00  0.0000000000000D+00
   348  3.4700000000000D+00  0.0000000000000D+00  0.0000000000000D+00
   349  3.4800000000000D+00  0.0000000000000D+00  0.0000000000000D+00
   350  3.4900000000000D+00  0.0000000000000D+00  0.0000000000000D+00
   351  3.5000000000000D+00  0.0000000000000D+00  0.0000000000000D+00
   352  3.5100000000000D+00  0.0000000000000D+00  0.0000000000000D+00
   353  3.5200000000000D+00  0.0000000000000D+00  0.0000000000000D+00
   354  3.5300000000000D+00  0.0000000000000D+00  0.0000000000000D+00
   355  3.5400000000000D+00  0.0000000000000D+00  0.0000000000000D+00
   356  3.5500000000000D+00  0.0000000000000D+00  0.0000000000000D+00
   357  3.5600000000000D+00  0.0000000000000D+00  0.0000000000000D+00
   358  3.5700000000000D+00  0.0000000000000D+00  0.0000000000000D+00
   359  3.5800000000000D+00  0.0000000000000D+00  0.0000000000000D+00
   360  3.5900000000000D+00  0.0000000000000D+00  0.0000000000000D+00
   361  3.6000000000000D+00  0.0000000000000D+00  0.0000000000000D+00
   362  3.6100000000000D+00  0.0000000000000D+00  0.0000000000000D+00
   363  3.6200000000000D+00  0.0000000000000D+00  0.0000000000000D+00
   364  3.6300000000000D+00  0.0000000000000D+00  0.0000000000000D+00
   365  3.6400000000000D+00  0.0000000000000D+00  0.0000000000000D+00
   366  3.6500000000000D+00  0.0000000000000D+00  0.0000000000000D+00
   367  3.6600000000000D+00  0.0000000000000D+00  0.0000000000000D+00
   368  3.6700000000000D+00  0.0000000000000D+00  0.0000000000000D+00
   369  3.6800000000000D+00  0.0000000000000D+00  0.0000000000000D+00
   370  3.6900000000000D+00  0.0000000000000D+00  0.0000000000000D+00
   371  3.7000000000000D+00  0.0000000000000D+00  0.0000000000000D+00
   372  3.7100000000000D+00  0.0000000000000D+00  0.0000000000000D+00
   373  3.7200000000000D+00  0.0000000000000D+00  0.0000000000000D+00
   374  3.7300000000000D+00  0.0000000000000D+00  0.0000000000000D+00
   375  3.7400000000000D+00  0.0000000000000D+00  0.0000000000000D+00
   376  3.7500000000000D+00  0.0000000000000D+00  0.0000000000000D+00
   377  3.7600000000000D+00  0.0000000000000D+00  0.0000000000000D+00
   378  3.7700000000000D+00  0.0000000000000D+00  0.0000000000000D+00
   379  3.7800000000000D+00  0.0000000000000D+00  0.0000000000000D+00
   380  3.7900000000000D+00  0.0000000000000D+00  0.0000000000000D+00
   381  3.8000000000000D+00  0.0000000000000D+00  0.0000000000000D+00
   382  3.8100000000000D+00  0.0000000000000D+00  0.0000000000000D+00
   383  3.8200000000000D+00  0.0000000000000D+00  0.0000000000000D+00
   384  3.8300000000000D+00  0.0000000000000D+00  0.0000000000000D+00
   385  3.8400000000000D+00  0.0000000000000D+00  0.0000000000000D+00
   386  3.8500000000000D+00  0.0000000000000D+00  0.0000000000000D+00
   387  3.8600000000000D+00  0.0000000000000D+00  0.0000000000000D+00
   388  3.8700000000000D+00  0.0000000000000D+00  0.0000000000000D+00
   389  3.8800000000000D+00  0.0000000000000D+00  0.0000000000000D+00
   390  3.8900000000000D+00  0.0000000000000D+00  0.0000000000000D+00
   391  3.9000000000000D+00  0.0000000000000D+00  0.0000000000000D+00
   392  3.9100000000000D+00  0.0000000000000D+00  0.0000000000000D+00
   393  3.9200000000000D+00  0.0000000000000D+00  0.0000000000000D+00
   394  3.9300000000000D+00  0.0000000000000D+00  0.0000000000000D+00
   395  3.9400000000000D+00  0.0000000000000D+00  0.0000000000000D+00
   396  3.9500000000000D+00  0.0000000000000D+00  0.0000000000000D+00
   397  3.9600000000000D+00  0.0000000000000D+00  0.0000000000000D+00
   398  3.9700000000000D+00  0.0000000000000D+00  0.0000000000000D+00
   399  3.9800000000000D+00  0.0000000000000D+00  0.0000000000000D+00
   400  3.9900000000000D+00  0.0000000000000D+00  0.0000000000000D+00
   401  4.0000000000000D+00  0.0000000000000D+00  0.0000000000000D+00
   402  4.0100000000000D+00  0.0000000000000D+00  0.0000000000000D+00
   403  4.0200000000000D+00  0.0000000000000D+00  0.0000000000000D+00
   404  4.0300000000000D+00  0.0000000000000D+00  0.0000000000000D+00
   405  4.0400000000000D+00  0.0000000000000D+00  0.0000000000000D+00
   406  4.0500000000000D+00  0.0000000000000D+00  0.0000000000000D+00
   407  4.0600000000000D+00  0.0000000000000D+00  0.0000000000000D+00
   408  4.0700000000000D+00  0.0000000000000D+00  0.0000000000000D+00
   409  4.0800000000000D+00  0.0000000000000D+00  0.0000000000000D+00
   410  4.0900000000000D+00  0.0000000000000D+00  0.0000000000000D+00
   411  4.1000000000000D+00  0.0000000000000D+00  0.0000000000000D+00
   412  4.1100000000000D+00  0.0000000000000D+00  0.0000000000000D+00
   413  4.1200000000000D+00  0.0000000000000D+00  0.0000000000000D+00
   414  4.1300000000000D+00  0.0000000000000D+00  0.0000000000000D+00
   415  4.1400000000000D+00  0.0000000000000D+00  0.0000000000000D+00
   416  4.1500000000000D+00  0.0000000000000D+00  0.0000000000000D+00
   417  4.1600000000000D+00  0.0000000000000D+00  0.0000000000000D+00
   418  4.1700000000000D+00  0.0000000000000D+00  0.0000000000000D+00
   419  4.1800000000000D+00  0.0000000000000D+00  0.0000000000000D+00
   420  4.1900000000000D+00  0.0000000000000D+00  0.0000000000000D+00
   421  4.2000000000000D+00  0.0000000000000D+00  0.0000000000000D+00
   422  4.2100000000000D+00  0.0000000000000D+00  0.0000000000000D+00