Ga    ONCVPSP-3.3.1  r_core=   2.35819   2.44411   1.99550
     31.0000     13.0000      210905    zatom,zion,pspd
     8 -116133   2     4   600     0    pspcod,pspxc,lmax,lloc,mmax,r2well
  5.99000000  0.00000000  0.00000000    rchrg fchrg qchrg
     2     2     2     0     0    nproj
     1     1           extension_switch
   0                         4.7901217235838D+00  3.4344723403764D-01
     1  0.0000000000000D+00  3.0490887592549D-12 -2.5521487700964D-11
     2  1.0000000000000D-02  2.5494303023839D-02  3.9511392891146D-03
     3  2.0000000000000D-02  5.0986331967490D-02  7.8448351804342D-03
     4  3.0000000000000D-02  7.6473765671040D-02  1.1623961640738D-02
     5  4.0000000000000D-02  1.0195418902518D-01  1.5232025909084D-02
     6  5.0000000000000D-02  1.2742504652090D-01  1.8613481497251D-02
     7  6.0000000000000D-02  1.5288359642624D-01  2.1714036845399D-02
     8  7.0000000000000D-02  1.7832686579565D-01  2.4480958214730D-02
     9  8.0000000000000D-02  2.0375160651422D-01  2.6863365424487D-02
    10  9.0000000000000D-02  2.2915425257535D-01  2.8812519072415D-02
    11  1.0000000000000D-01  2.5453087878610D-01  3.0282097915510D-02
    12  1.1000000000000D-01  2.7987716108863D-01  3.1228465131716D-02
    13  1.2000000000000D-01  3.0518833868096D-01  3.1610922232404D-02
    14  1.3000000000000D-01  3.3045917811288D-01  3.1391949450439D-02
    15  1.4000000000000D-01  3.5568393952619D-01  3.0537431488609D-02
    16  1.5000000000000D-01  3.8085634520007D-01  2.9016867578246D-02
    17  1.6000000000000D-01  4.0596955055415D-01  2.6803564867517D-02
    18  1.7000000000000D-01  4.3101611775268D-01  2.3874814233041D-02
    19  1.8000000000000D-01  4.5598799204342D-01  2.0212047686384D-02
    20  1.9000000000000D-01  4.8087648095510D-01  1.5800976629077D-02
    21  2.0000000000000D-01  5.0567223646623D-01  1.0631710294662D-02
    22  2.1000000000000D-01  5.3036524024740D-01  4.6988538046489D-03
    23  2.2000000000000D-01  5.5494479206756D-01 -1.9984146443051D-03
    24  2.3000000000000D-01  5.7939950144302D-01 -9.4562878515221D-03
    25  2.4000000000000D-01  6.0371728259591D-01 -1.7666295236946D-02
    26  2.5000000000000D-01  6.2788535277626D-01 -2.6615290218266D-02
    27  2.6000000000000D-01  6.5189023398945D-01 -3.6285459442773D-02
    28  2.7000000000000D-01  6.7571775815803D-01 -4.6654353878732D-02
    29  2.8000000000000D-01  6.9935307573372D-01 -5.7694941673629D-02
    30  2.9000000000000D-01  7.2278066776261D-01 -6.9375682589489D-02
    31  3.0000000000000D-01  7.4598436139366D-01 -8.1660623729476D-02
    32  3.1000000000000D-01  7.6894734880711D-01 -9.4509516174505D-02
    33  3.2000000000000D-01  7.9165220952676D-01 -1.0787795205568D-01
    34  3.3000000000000D-01  8.1408093606716D-01 -1.2171752149670D-01
    35  3.4000000000000D-01  8.3621496285371D-01 -1.3597598877184D-01
    36  3.5000000000000D-01  8.5803519834135D-01 -1.5059748693895D-01
    37  3.6000000000000D-01  8.7952206024507D-01 -1.6552273012433D-01
    38  3.7000000000000D-01  9.0065551378332D-01 -1.8068924255744D-01
    39  3.8000000000000D-01  9.2141511282375D-01 -1.9603160337795D-01
    40  3.9000000000000D-01  9.4178004380926D-01 -2.1148170616736D-01
    41  4.0000000000000D-01  9.6172917233126D-01 -2.2696903209104D-01
    42  4.1000000000000D-01  9.8124109220676D-01 -2.4242093547552D-01
    43  4.2000000000000D-01  1.0002941769053D+00 -2.5776294058981D-01
    44  4.3000000000000D-01  1.0188666331632D+00 -2.7291904834932D-01
    45  4.4000000000000D-01  1.0369365566116D+00 -2.8781205161592D-01
    46  4.5000000000000D-01  1.0544819892397D+00 -3.0236385772891D-01
    47  4.6000000000000D-01  1.0714809785027D+00 -3.1649581686908D-01
    48  4.7000000000000D-01  1.0879116378805D+00 -3.3012905483120D-01
    49  4.8000000000000D-01  1.1037522086837D+00 -3.4318480876030D-01
    50  4.9000000000000D-01  1.1189811229012D+00 -3.5558476439329D-01
    51  5.0000000000000D-01  1.1335770668738D+00 -3.6725139334006D-01
    52  5.1000000000000D-01  1.1475190455794D+00 -3.7810828893799D-01
    53  5.2000000000000D-01  1.1607864473069D+00 -3.8808049921872D-01
    54  5.3000000000000D-01  1.1733591084973D+00 -3.9709485553954D-01
    55  5.4000000000000D-01  1.1852173785243D+00 -4.0508029544950D-01
    56  5.5000000000000D-01  1.1963421841904D+00 -4.1196817838626D-01
    57  5.6000000000000D-01  1.2067150937094D+00 -4.1769259283094D-01
    58  5.7000000000000D-01  1.2163183799490D+00 -4.2219065358537D-01
    59  5.8000000000000D-01  1.2251350827097D+00 -4.2540278788054D-01
    60  5.9000000000000D-01  1.2331490698139D+00 -4.2727300907354D-01
    61  6.0000000000000D-01  1.2403450967877D+00 -4.2774917674528D-01
    62  6.1000000000000D-01  1.2467088649154D+00 -4.2678324207159D-01
    63  6.2000000000000D-01  1.2522270774568D+00 -4.2433147740499D-01
    64  6.3000000000000D-01  1.2568874938179D+00 -4.2035468907443D-01
    65  6.4000000000000D-01  1.2606789814741D+00 -4.1481841248441D-01
    66  6.5000000000000D-01  1.2635915654518D+00 -4.0769308867249D-01
    67  6.6000000000000D-01  1.2656164751787D+00 -3.9895422156705D-01
    68  6.7000000000000D-01  1.2667461885262D+00 -3.8858251527145D-01
    69  6.8000000000000D-01  1.2669744728689D+00 -3.7656399078880D-01
    70  6.9000000000000D-01  1.2662964230043D+00 -3.6289008169243D-01
    71  7.0000000000000D-01  1.2647084957762D+00 -3.4755770833957D-01
    72  7.1000000000000D-01  1.2622085412637D+00 -3.3056933031973D-01
    73  7.2000000000000D-01  1.2587958304043D+00 -3.1193297692503D-01
    74  7.3000000000000D-01  1.2544710789310D+00 -2.9166225552550D-01
    75  7.4000000000000D-01  1.2492364675181D+00 -2.6977633782942D-01
    76  7.5000000000000D-01  1.2430956580400D+00 -2.4629992410457D-01
    77  7.6000000000000D-01  1.2360538058600D+00 -2.2126318553230D-01
    78  7.7000000000000D-01  1.2281175680812D+00 -1.9470168496141D-01
    79  7.8000000000000D-01  1.2192951077028D+00 -1.6665627642124D-01
    80  7.9000000000000D-01  1.2095960936389D+00 -1.3717298384578D-01
    81  8.0000000000000D-01  1.1990316965710D+00 -1.0630285954925D-01
    82  8.1000000000000D-01  1.1876145806198D+00 -7.4101823079765D-02
    83  8.2000000000000D-01  1.1753588908335D+00 -4.0630481161369D-02
    84  8.3000000000000D-01  1.1622802365056D+00 -5.9539295142819D-03
    85  8.4000000000000D-01  1.1483956703492D+00  2.9858462581046D-02
    86  8.5000000000000D-01  1.1337236635663D+00  6.6733284038550D-02
    87  8.6000000000000D-01  1.1182840768676D+00  1.0459332903541D-01
    88  8.7000000000000D-01  1.1020981275077D+00  1.4335785832831D-01
    89  8.8000000000000D-01  1.0851883524187D+00  1.8294287369327D-01
    90  8.9000000000000D-01  1.0675785675333D+00  2.2326140431320D-01
    91  9.0000000000000D-01  1.0492938234049D+00  2.6422380389118D-01
    92  9.1000000000000D-01  1.0303603572421D+00  3.0573805722748D-01
    93  9.2000000000000D-01  1.0108055414895D+00  3.4771009496327D-01
    94  9.3000000000000D-01  9.9065782909490D-01  3.9004411516599D-01
    95  9.4000000000000D-01  9.6994669561641D-01  4.3264291040959D-01
    96  9.5000000000000D-01  9.4870257833393D-01  4.7540819898622D-01
    97  9.6000000000000D-01  9.2695681253650D-01  5.1824095887742D-01
    98  9.7000000000000D-01  9.0474156516959D-01  5.6104176310896D-01
    99  9.8000000000000D-01  8.8208976603309D-01  6.0371111511729D-01
   100  9.9000000000000D-01  8.5903503672976D-01  6.4614978276495D-01
   101  1.0000000000000D+00  8.3561161757088D-01  6.8825912965774D-01
   102  1.0100000000000D+00  8.1185429265278D-01  7.2994144243866D-01
   103  1.0200000000000D+00  7.8779831332379D-01  7.7110025276173D-01
   104  1.0300000000000D+00  7.6347932026629D-01  8.1164065268177D-01
   105  1.0400000000000D+00  7.3893326442314D-01  8.5146960223526D-01
   106  1.0500000000000D+00  7.1419632700139D-01  8.9049622803329D-01
   107  1.0600000000000D+00  6.8930483878893D-01  9.2863211173587D-01
   108  1.0700000000000D+00  6.6429519902197D-01  9.6579156733227D-01
   109  1.0800000000000D+00  6.3920379404252D-01  1.0018919062129D+00
   110  1.0900000000000D+00  6.1406691598526D-01  1.0368536890743D+00
   111  1.1000000000000D+00  5.8892068173322D-01  1.0706009637772D+00
   112  1.1100000000000D+00  5.6380095238036D-01  1.1030614883375D+00
   113  1.1200000000000D+00  5.3874325343697D-01  1.1341669383155D+00
   114  1.1300000000000D+00  5.1378269601151D-01  1.1638530979300D+00
   115  1.1400000000000D+00  4.8895389919904D-01  1.1920600343159D+00
   116  1.1500000000000D+00  4.6429091390164D-01  1.2187322544188D+00
   117  1.1600000000000D+00  4.3982714830115D-01  1.2438188441103D+00
   118  1.1700000000000D+00  4.1559529520024D-01  1.2672735891717D+00
   119  1.1800000000000D+00  3.9162726143969D-01  1.2890550778989D+00
   120  1.1900000000000D+00  3.6795409959358D-01  1.3091267851563D+00
   121  1.2000000000000D+00  3.4460594213531D-01  1.3274571377992D+00
   122  1.2100000000000D+00  3.2161193826222D-01  1.3440195614393D+00
   123  1.2200000000000D+00  2.9900019355361D-01  1.3587925086512D+00
   124  1.2300000000000D+00  2.7679771262820D-01  1.3717594687829D+00
   125  1.2400000000000D+00  2.5503034496174D-01  1.3829089595822D+00
   126  1.2500000000000D+00  2.3372273400947D-01  1.3922345009722D+00
   127  1.2600000000000D+00  2.1289826976770D-01  1.3997345713715D+00
   128  1.2700000000000D+00  1.9257904490294D-01  1.4054125469934D+00
   129  1.2800000000000D+00  1.7278581456092D-01  1.4092766246627D+00
   130  1.2900000000000D+00  1.5353795995291D-01  1.4113397287538D+00
   131  1.3000000000000D+00  1.3485345581439D-01  1.4116194028716D+00
   132  1.3100000000000D+00  1.1674884181167D-01  1.4101376869943D+00
   133  1.3200000000000D+00  9.9239197954700D-02  1.4069209808488D+00
   134  1.3300000000000D+00  8.2338124078650D-02  1.4019998942854D+00
   135  1.3400000000000D+00  6.6057723427382D-02  1.3954090855224D+00
   136  1.3500000000000D+00  5.0408590359842D-02  1.3871870881411D+00
   137  1.3600000000000D+00  3.5399802209825D-02  1.3773761277115D+00
   138  1.3700000000000D+00  2.1038915283010D-02  1.3660219290210D+00
   139  1.3800000000000D+00  7.3319649881091D-03  1.3531735148355D+00
   140  1.3900000000000D+00 -5.7165299148879D-03  1.3388829971730D+00
   141  1.4000000000000D+00 -1.8103559002379D-02  1.3232053620678D+00
   142  1.4100000000000D+00 -2.9827607836683D-02  1.3061982488041D+00
   143  1.4200000000000D+00 -4.0888641651556D-02  1.2879217246087D+00
   144  1.4300000000000D+00 -5.1288085141975D-02  1.2684380557541D+00
   145  1.4400000000000D+00 -6.1028798425562D-02  1.2478114760747D+00
   146  1.4500000000000D+00 -7.0115049291838D-02  1.2261079537776D+00
   147  1.4600000000000D+00 -7.8552481812131D-02  1.2033949575381D+00
   148  1.4700000000000D+00 -8.6348081444962D-02  1.1797412227196D+00
   149  1.4800000000000D+00 -9.3510136744600D-02  1.1552165185921D+00
   150  1.4900000000000D+00 -1.0004819779962D-01  1.1298914174234D+00
   151  1.5000000000000D+00 -1.0597303155335D-01  1.1038370661070D+00
   152  1.5100000000000D+00 -1.1129657412472D-01  1.0771249612598D+00
   153  1.5200000000000D+00 -1.1603188031092D-01  1.0498267282451D+00
   154  1.5300000000000D+00 -1.2019307039927D-01  1.0220139050131D+00
   155  1.5400000000000D+00 -1.2379527447555D-01  9.9375773113272D-01
   156  1.5500000000000D+00 -1.2685457437924D-01  9.6512894270137D-01
   157  1.5600000000000D+00 -1.2938794348751D-01  9.3619757354514D-01
   158  1.5700000000000D+00 -1.3141318449973D-01  9.0703276309553D-01
   159  1.5800000000000D+00 -1.3294886540083D-01  8.7770257143513D-01
   160  1.5900000000000D+00 -1.3401425378678D-01  8.4827380156848D-01
   161  1.6000000000000D+00 -1.3462924973249D-01  8.1881182949680D-01
   162  1.6100000000000D+00 -1.3481431738595D-01  7.8938044182307D-01
   163  1.6200000000000D+00 -1.3459041547622D-01  7.6004168153652D-01
   164  1.6300000000000D+00 -1.3397892690968D-01  7.3085570140693D-01
   165  1.6400000000000D+00 -1.3300158765298D-01  7.0188062565018D-01
   166  1.6500000000000D+00 -1.3168041506136D-01  6.7317241910435D-01
   167  1.6600000000000D+00 -1.3003763586009D-01  6.4478476446528D-01
   168  1.6700000000000D+00 -1.2809561392032D-01  6.1676894675195D-01
   169  1.6800000000000D+00 -1.2587677804334D-01  5.8917374538500D-01
   170  1.6900000000000D+00 -1.2340354987441D-01  5.6204533300177D-01
   171  1.7000000000000D+00 -1.2069827216611D-01  5.3542718124489D-01
   172  1.7100000000000D+00 -1.1778313748693D-01  5.0935997260147D-01
   173  1.7200000000000D+00 -1.1468011760356D-01  4.8388151840571D-01
   174  1.7300000000000D+00 -1.1141089359946D-01  4.5902668204592D-01
   175  1.7400000000000D+00 -1.0799678697204D-01  4.3482730737528D-01
   176  1.7500000000000D+00 -1.0445869172792D-01  4.1131215136182D-01
   177  1.7600000000000D+00 -1.0081700773998D-01  3.8850682085156D-01
   178  1.7700000000000D+00 -9.7091575333555D-02  3.6643371253754D-01
   179  1.7800000000000D+00 -9.3301611386715D-02  3.4511195583657D-01
   180  1.7900000000000D+00 -8.9465646871525D-02  3.2455735791876D-01
   181  1.8000000000000D+00 -8.5601466113098D-02  3.0478235036488D-01
   182  1.8100000000000D+00 -8.1726047687920D-02  2.8579593690825D-01
   183  1.8200000000000D+00 -7.7855506520959D-02  2.6760363606375D-01
   184  1.8300000000000D+00 -7.4005041115481D-02  2.5020745062534D-01
   185  1.8400000000000D+00 -7.0188873314872D-02  2.3360576163781D-01
   186  1.8500000000000D+00 -6.6420208927447D-02  2.1779336609981D-01
   187  1.8600000000000D+00 -6.2711192856455D-02  2.0276146145575D-01
   188  1.8700000000000D+00 -5.9072823740593D-02  1.8849728997716D-01
   189  1.8800000000000D+00 -5.5514894410836D-02  1.7498394171021D-01
   190  1.8900000000000D+00 -5.2046104849640D-02  1.6220156082280D-01
   191  1.9000000000000D+00 -4.8674105517420D-02  1.5012800768850D-01
   192  1.9100000000000D+00 -4.5405588733886D-02  1.3873962880468D-01
   193  1.9200000000000D+00 -4.2246446222348D-02  1.2801260885960D-01
   194  1.9300000000000D+00 -3.9201771585687D-02  1.1792299107234D-01
   195  1.9400000000000D+00 -3.6275850043775D-02  1.0844653233911D-01
   196  1.9500000000000D+00 -3.3472177769915D-02  9.9558787425978D-02
   197  1.9600000000000D+00 -3.0793501685306D-02  9.1235365472224D-02
   198  1.9700000000000D+00 -2.8241835459265D-02  8.3451945474730D-02
   199  1.9800000000000D+00 -2.5818490869056D-02  7.6184403061380D-02
   200  1.9900000000000D+00 -2.3524105875397D-02  6.9408888842937D-02
   201  2.0000000000000D+00 -2.1358675252197D-02  6.3101906413927D-02
   202  2.0100000000000D+00 -1.9321582612992D-02  5.7240383393565D-02
   203  2.0200000000000D+00 -1.7411633754629D-02  5.1801734806627D-02
   204  2.0300000000000D+00 -1.5627091211629D-02  4.6763918488864D-02
   205  2.0400000000000D+00 -1.3965709811712D-02  4.2105483917549D-02
   206  2.0500000000000D+00 -1.2424773207007D-02  3.7805612512946D-02
   207  2.0600000000000D+00 -1.1001131144613D-02  3.3844151719831D-02
   208  2.0700000000000D+00 -9.6912374010859D-03  3.0201641462630D-02
   209  2.0800000000000D+00 -8.4911882231354D-03  2.6859333805480D-02
   210  2.0900000000000D+00 -7.3967611261735D-03  2.3799206572001D-02
   211  2.1000000000000D+00 -6.4034539200637D-03  2.1003969869805D-02
   212  2.1100000000000D+00 -5.5065238303740D-03  1.8457067530113D-02
   213  2.1200000000000D+00 -4.7010265452039D-03  1.6142672437469D-02
   214  2.1300000000000D+00 -3.9818550727808D-03  1.4045676791779D-02
   215  2.1400000000000D+00 -3.3437782914279D-03  1.2151677917640D-02
   216  2.1500000000000D+00 -2.7814789653967D-03  1.0446959228773D-02
   217  2.1600000000000D+00 -2.2895912373895D-03  8.9184677526572D-03
   218  2.1700000000000D+00 -1.8627373213584D-03  7.5537880312756D-03
   219  2.1800000000000D+00 -1.4955633219486D-03  6.3411130819279D-03
   220  2.1900000000000D+00 -1.1827741664774D-03  5.2692129600874D-03
   221  2.2000000000000D+00 -9.1916725063110D-04  4.3274013599297D-03
   222  2.2100000000000D+00 -6.9966500545282D-04  3.5055006163532D-03
   223  2.2200000000000D+00 -5.1934606563479D-04  2.7938057685672D-03
   224  2.2300000000000D+00 -3.7347489298914D-04  2.1830482866089D-03
   225  2.2400000000000D+00 -2.5753005681850D-04  1.6643591622116D-03
   226  2.2500000000000D+00 -1.6723062236465D-04  1.2292330890126D-03
   227  2.2600000000000D+00 -9.8560893566097D-05  8.6949313796542D-04
   228  2.2700000000000D+00 -4.7793446674452D-05  5.7725618038090D-04
   229  2.2800000000000D+00 -1.1455631389232D-05  3.4465486259525D-04
   230  2.2900000000000D+00  1.3493595101553D-05  1.6452134053614D-04
   231  2.3000000000000D+00  2.9660104580244D-05  3.0298260098744D-05
   232  2.3100000000000D+00  3.8857300353317D-05 -6.2805088744619D-05
   233  2.3200000000000D+00  4.4267851609297D-05 -1.2634099144855D-04
   234  2.3300000000000D+00  4.8386227982539D-05 -1.7056219322192D-04
   235  2.3400000000000D+00  5.4282606013635D-05 -2.0884553966250D-04
   236  2.3500000000000D+00  5.6198774701631D-05 -2.2236848406357D-04
   237  2.3600000000000D+00  4.9640583612599D-05 -1.9739107327792D-04
   238  2.3700000000000D+00  3.1404010909296D-05 -1.2499713988008D-04
   239  2.3800000000000D+00  1.1025217300737D-05 -4.3821200653741D-05
   240  2.3900000000000D+00 -2.8726821850902D-06  1.1509550416154D-05
   241  2.4000000000000D+00 -5.5342983178020D-06  2.2184271554025D-05
   242  2.4100000000000D+00 -2.4394345814220D-06  9.7805503651792D-06
   243  2.4200000000000D+00  7.4172403522337D-07 -2.9813199876275D-06
   244  2.4300000000000D+00  1.2407455327537D-06 -4.9899685669449D-06
   245  2.4400000000000D+00  4.8891937567830D-07 -1.9672407421903D-06
   246  2.4500000000000D+00 -9.6342772456218D-08  3.8283426244904D-07
   247  2.4600000000000D+00 -1.4455547344060D-07  5.7441556482871D-07
   248  2.4700000000000D+00 -5.0167791209372D-08  1.9935018327468D-07
   249  2.4800000000000D+00  0.0000000000000D+00  0.0000000000000D+00
   250  2.4900000000000D+00  0.0000000000000D+00  0.0000000000000D+00
   251  2.5000000000000D+00  0.0000000000000D+00  0.0000000000000D+00
   252  2.5100000000000D+00  0.0000000000000D+00  0.0000000000000D+00
   253  2.5200000000000D+00  0.0000000000000D+00  0.0000000000000D+00
   254  2.5300000000000D+00  0.0000000000000D+00  0.0000000000000D+00
   255  2.5400000000000D+00  0.0000000000000D+00  0.0000000000000D+00
   256  2.5500000000000D+00  0.0000000000000D+00  0.0000000000000D+00
   257  2.5600000000000D+00  0.0000000000000D+00  0.0000000000000D+00
   258  2.5700000000000D+00  0.0000000000000D+00  0.0000000000000D+00
   259  2.5800000000000D+00  0.0000000000000D+00  0.0000000000000D+00
   260  2.5900000000000D+00  0.0000000000000D+00  0.0000000000000D+00
   261  2.6000000000000D+00  0.0000000000000D+00  0.0000000000000D+00
   262  2.6100000000000D+00  0.0000000000000D+00  0.0000000000000D+00
   263  2.6200000000000D+00  0.0000000000000D+00  0.0000000000000D+00
   264  2.6300000000000D+00  0.0000000000000D+00  0.0000000000000D+00
   265  2.6400000000000D+00  0.0000000000000D+00  0.0000000000000D+00
   266  2.6500000000000D+00  0.0000000000000D+00  0.0000000000000D+00
   267  2.6600000000000D+00  0.0000000000000D+00  0.0000000000000D+00
   268  2.6700000000000D+00  0.0000000000000D+00  0.0000000000000D+00
   269  2.6800000000000D+00  0.0000000000000D+00  0.0000000000000D+00
   270  2.6900000000000D+00  0.0000000000000D+00  0.0000000000000D+00
   271  2.7000000000000D+00  0.0000000000000D+00  0.0000000000000D+00
   272  2.7100000000000D+00  0.0000000000000D+00  0.0000000000000D+00
   273  2.7200000000000D+00  0.0000000000000D+00  0.0000000000000D+00
   274  2.7300000000000D+00  0.0000000000000D+00  0.0000000000000D+00
   275  2.7400000000000D+00  0.0000000000000D+00  0.0000000000000D+00
   276  2.7500000000000D+00  0.0000000000000D+00  0.0000000000000D+00
   277  2.7600000000000D+00  0.0000000000000D+00  0.0000000000000D+00
   278  2.7700000000000D+00  0.0000000000000D+00  0.0000000000000D+00
   279  2.7800000000000D+00  0.0000000000000D+00  0.0000000000000D+00
   280  2.7900000000000D+00  0.0000000000000D+00  0.0000000000000D+00
   281  2.8000000000000D+00  0.0000000000000D+00  0.0000000000000D+00
   282  2.8100000000000D+00  0.0000000000000D+00  0.0000000000000D+00
   283  2.8200000000000D+00  0.0000000000000D+00  0.0000000000000D+00
   284  2.8300000000000D+00  0.0000000000000D+00  0.0000000000000D+00
   285  2.8400000000000D+00  0.0000000000000D+00  0.0000000000000D+00
   286  2.8500000000000D+00  0.0000000000000D+00  0.0000000000000D+00
   287  2.8600000000000D+00  0.0000000000000D+00  0.0000000000000D+00
   288  2.8700000000000D+00  0.0000000000000D+00  0.0000000000000D+00
   289  2.8800000000000D+00  0.0000000000000D+00  0.0000000000000D+00
   290  2.8900000000000D+00  0.0000000000000D+00  0.0000000000000D+00
   291  2.9000000000000D+00  0.0000000000000D+00  0.0000000000000D+00
   292  2.9100000000000D+00  0.0000000000000D+00  0.0000000000000D+00
   293  2.9200000000000D+00  0.0000000000000D+00  0.0000000000000D+00
   294  2.9300000000000D+00  0.0000000000000D+00  0.0000000000000D+00
   295  2.9400000000000D+00  0.0000000000000D+00  0.0000000000000D+00
   296  2.9500000000000D+00  0.0000000000000D+00  0.0000000000000D+00
   297  2.9600000000000D+00  0.0000000000000D+00  0.0000000000000D+00
   298  2.9700000000000D+00  0.0000000000000D+00  0.0000000000000D+00
   299  2.9800000000000D+00  0.0000000000000D+00  0.0000000000000D+00
   300  2.9900000000000D+00  0.0000000000000D+00  0.0000000000000D+00
   301  3.0000000000000D+00  0.0000000000000D+00  0.0000000000000D+00
   302  3.0100000000000D+00  0.0000000000000D+00  0.0000000000000D+00
   303  3.0200000000000D+00  0.0000000000000D+00  0.0000000000000D+00
   304  3.0300000000000D+00  0.0000000000000D+00  0.0000000000000D+00
   305  3.0400000000000D+00  0.0000000000000D+00  0.0000000000000D+00
   306  3.0500000000000D+00  0.0000000000000D+00  0.0000000000000D+00
   307  3.0600000000000D+00  0.0000000000000D+00  0.0000000000000D+00
   308  3.0700000000000D+00  0.0000000000000D+00  0.0000000000000D+00
   309  3.0800000000000D+00  0.0000000000000D+00  0.0000000000000D+00
   310  3.0900000000000D+00  0.0000000000000D+00  0.0000000000000D+00
   311  3.1000000000000D+00  0.0000000000000D+00  0.0000000000000D+00
   312  3.1100000000000D+00  0.0000000000000D+00  0.0000000000000D+00
   313  3.1200000000000D+00  0.0000000000000D+00  0.0000000000000D+00
   314  3.1300000000000D+00  0.0000000000000D+00  0.0000000000000D+00
   315  3.1400000000000D+00  0.0000000000000D+00  0.0000000000000D+00
   316  3.1500000000000D+00  0.0000000000000D+00  0.0000000000000D+00
   317  3.1600000000000D+00  0.0000000000000D+00  0.0000000000000D+00
   318  3.1700000000000D+00  0.0000000000000D+00  0.0000000000000D+00
   319  3.1800000000000D+00  0.0000000000000D+00  0.0000000000000D+00
   320  3.1900000000000D+00  0.0000000000000D+00  0.0000000000000D+00
   321  3.2000000000000D+00  0.0000000000000D+00  0.0000000000000D+00
   322  3.2100000000000D+00  0.0000000000000D+00  0.0000000000000D+00
   323  3.2200000000000D+00  0.0000000000000D+00  0.0000000000000D+00
   324  3.2300000000000D+00  0.0000000000000D+00  0.0000000000000D+00
   325  3.2400000000000D+00  0.0000000000000D+00  0.0000000000000D+00
   326  3.2500000000000D+00  0.0000000000000D+00  0.0000000000000D+00
   327  3.2600000000000D+00  0.0000000000000D+00  0.0000000000000D+00
   328  3.2700000000000D+00  0.0000000000000D+00  0.0000000000000D+00
   329  3.2800000000000D+00  0.0000000000000D+00  0.0000000000000D+00
   330  3.2900000000000D+00  0.0000000000000D+00  0.0000000000000D+00
   331  3.3000000000000D+00  0.0000000000000D+00  0.0000000000000D+00
   332  3.3100000000000D+00  0.0000000000000D+00  0.0000000000000D+00
   333  3.3200000000000D+00  0.0000000000000D+00  0.0000000000000D+00
   334  3.3300000000000D+00  0.0000000000000D+00  0.0000000000000D+00
   335  3.3400000000000D+00  0.0000000000000D+00  0.0000000000000D+00
   336  3.3500000000000D+00  0.0000000000000D+00  0.0000000000000D+00
   337  3.3600000000000D+00  0.0000000000000D+00  0.0000000000000D+00
   338  3.3700000000000D+00  0.0000000000000D+00  0.0000000000000D+00
   339  3.3800000000000D+00  0.0000000000000D+00  0.0000000000000D+00
   340  3.3900000000000D+00  0.0000000000000D+00  0.0000000000000D+00
   341  3.4000000000000D+00  0.0000000000000D+00  0.0000000000000D+00
   342  3.4100000000000D+00  0.0000000000000D+00  0.0000000000000D+00
   343  3.4200000000000D+00  0.0000000000000D+00  0.0000000000000D+00
   344  3.4300000000000D+00  0.0000000000000D+00  0.0000000000000D+00
   345  3.4400000000000D+00  0.0000000000000D+00  0.0000000000000D+00
   346  3.4500000000000D+00  0.0000000000000D+00  0.0000000000000D+00
   347  3.4600000000000D+00  0.0000000000000D+00  0.0000000000000D+00
   348  3.4700000000000D+00  0.0000000000000D+00  0.0000000000000D+00
   349  3.4800000000000D+00  0.0000000000000D+00  0.0000000000000D+00
   350  3.4900000000000D+00  0.0000000000000D+00  0.0000000000000D+00
   351  3.5000000000000D+00  0.0000000000000D+00  0.0000000000000D+00
   352  3.5100000000000D+00  0.0000000000000D+00  0.0000000000000D+00
   353  3.5200000000000D+00  0.0000000000000D+00  0.0000000000000D+00
   354  3.5300000000000D+00  0.0000000000000D+00  0.0000000000000D+00
   355  3.5400000000000D+00  0.0000000000000D+00  0.0000000000000D+00
   356  3.5500000000000D+00  0.0000000000000D+00  0.0000000000000D+00
   357  3.5600000000000D+00  0.0000000000000D+00  0.0000000000000D+00
   358  3.5700000000000D+00  0.0000000000000D+00  0.0000000000000D+00
   359  3.5800000000000D+00  0.0000000000000D+00  0.0000000000000D+00
   360  3.5900000000000D+00  0.0000000000000D+00  0.0000000000000D+00
   361  3.6000000000000D+00  0.0000000000000D+00  0.0000000000000D+00
   362  3.6100000000000D+00  0.0000000000000D+00  0.0000000000000D+00
   363  3.6200000000000D+00  0.0000000000000D+00  0.0000000000000D+00
   364  3.6300000000000D+00  0.0000000000000D+00  0.0000000000000D+00
   365  3.6400000000000D+00  0.0000000000000D+00  0.0000000000000D+00
   366  3.6500000000000D+00  0.0000000000000D+00  0.0000000000000D+00
   367  3.6600000000000D+00  0.0000000000000D+00  0.0000000000000D+00
   368  3.6700000000000D+00  0.0000000000000D+00  0.0000000000000D+00
   369  3.6800000000000D+00  0.0000000000000D+00  0.0000000000000D+00
   370  3.6900000000000D+00  0.0000000000000D+00  0.0000000000000D+00
   371  3.7000000000000D+00  0.0000000000000D+00  0.0000000000000D+00
   372  3.7100000000000D+00  0.0000000000000D+00  0.0000000000000D+00
   373  3.7200000000000D+00  0.0000000000000D+00  0.0000000000000D+00
   374  3.7300000000000D+00  0.0000000000000D+00  0.0000000000000D+00
   375  3.7400000000000D+00  0.0000000000000D+00  0.0000000000000D+00
   376  3.7500000000000D+00  0.0000000000000D+00  0.0000000000000D+00
   377  3.7600000000000D+00  0.0000000000000D+00  0.0000000000000D+00
   378  3.7700000000000D+00  0.0000000000000D+00  0.0000000000000D+00
   379  3.7800000000000D+00  0.0000000000000D+00  0.0000000000000D+00
   380  3.7900000000000D+00  0.0000000000000D+00  0.0000000000000D+00
   381  3.8000000000000D+00  0.0000000000000D+00  0.0000000000000D+00
   382  3.8100000000000D+00  0.0000000000000D+00  0.0000000000000D+00
   383  3.8200000000000D+00  0.0000000000000D+00  0.0000000000000D+00
   384  3.8300000000000D+00  0.0000000000000D+00  0.0000000000000D+00
   385  3.8400000000000D+00  0.0000000000000D+00  0.0000000000000D+00
   386  3.8500000000000D+00  0.0000000000000D+00  0.0000000000000D+00
   387  3.8600000000000D+00  0.0000000000000D+00  0.0000000000000D+00
   388  3.8700000000000D+00  0.0000000000000D+00  0.0000000000000D+00
   389  3.8800000000000D+00  0.0000000000000D+00  0.0000000000000D+00
   390  3.8900000000000D+00  0.0000000000000D+00  0.0000000000000D+00
   391  3.9000000000000D+00  0.0000000000000D+00  0.0000000000000D+00
   392  3.9100000000000D+00  0.0000000000000D+00  0.0000000000000D+00
   393  3.9200000000000D+00  0.0000000000000D+00  0.0000000000000D+00
   394  3.9300000000000D+00  0.0000000000000D+00  0.0000000000000D+00
   395  3.9400000000000D+00  0.0000000000000D+00  0.0000000000000D+00
   396  3.9500000000000D+00  0.0000000000000D+00  0.0000000000000D+00
   397  3.9600000000000D+00  0.0000000000000D+00  0.0000000000000D+00
   398  3.9700000000000D+00  0.0000000000000D+00  0.0000000000000D+00
   399  3.9800000000000D+00  0.0000000000000D+00  0.0000000000000D+00
   400  3.9900000000000D+00  0.0000000000000D+00  0.0000000000000D+00
   401  4.0000000000000D+00  0.0000000000000D+00  0.0000000000000D+00
   402  4.0100000000000D+00  0.0000000000000D+00  0.0000000000000D+00
   403  4.0200000000000D+00  0.0000000000000D+00  0.0000000000000D+00
   404  4.0300000000000D+00  0.0000000000000D+00  0.0000000000000D+00
   405  4.0400000000000D+00  0.0000000000000D+00  0.0000000000000D+00
   406  4.0500000000000D+00  0.0000000000000D+00  0.0000000000000D+00
   407  4.0600000000000D+00  0.0000000000000D+00  0.0000000000000D+00
   408  4.0700000000000D+00  0.0000000000000D+00  0.0000000000000D+00
   409  4.0800000000000D+00  0.0000000000000D+00  0.0000000000000D+00
   410  4.0900000000000D+00  0.0000000000000D+00  0.0000000000000D+00
   411  4.1000000000000D+00  0.0000000000000D+00  0.0000000000000D+00
   412  4.1100000000000D+00  0.0000000000000D+00  0.0000000000000D+00
   413  4.1200000000000D+00  0.0000000000000D+00  0.0000000000000D+00
   414  4.1300000000000D+00  0.0000000000000D+00  0.0000000000000D+00
   415  4.1400000000000D+00  0.0000000000000D+00  0.0000000000000D+00
   416  4.1500000000000D+00  0.0000000000000D+00  0.0000000000000D+00
   417  4.1600000000000D+00  0.0000000000000D+00  0.0000000000000D+00
   418  4.1700000000000D+00  0.0000000000000D+00  0.0000000000000D+00
   419  4.1800000000000D+00  0.0000000000000D+00  0.0000000000000D+00
   420  4.1900000000000D+00  0.0000000000000D+00  0.0000000000000D+00
   421  4.2000000000000D+00  0.0000000000000D+00  0.0000000000000D+00
   422  4.2100000000000D+00  0.0000000000000D+00  0.0000000000000D+00