Ge    ONCVPSP-3.3.1  r_core=   2.66770   2.57393   2.66770
     32.0000     14.0000      210905    zatom,zion,pspd
     8 -116133   2     4   600     0    pspcod,pspxc,lmax,lloc,mmax,r2well
  5.99000000  0.00000000  0.00000000    rchrg fchrg qchrg
     2     2     2     0     0    nproj
     1     1           extension_switch
   0                         8.5459231379511D+00  7.4836336184040D-01
     1  0.0000000000000D+00 -3.3764657736413D-12  6.7988115137751D-12
     2  1.0000000000000D-02  4.9541552747593D-02 -3.1342203252563D-02
     3  2.0000000000000D-02  9.9016164785425D-02 -6.2595885075353D-02
     4  3.0000000000000D-02  1.4835702629601D-01 -9.3672747037691D-02
     5  4.0000000000000D-02  1.9749758893052D-01 -1.2448493610413D-01
     6  5.0000000000000D-02  2.4637169575413D-01 -1.5494526582640D-01
     7  6.0000000000000D-02  2.9491371024704D-01 -1.8496743573336D-01
     8  7.0000000000000D-02  3.4305864405029D-01 -2.1446624832618D-01
     9  8.0000000000000D-02  3.9074228314892D-01 -2.4335782309291D-01
    10  9.0000000000000D-02  4.3790131218920D-01 -2.7155980696495D-01
    11  1.0000000000000D-01  4.8447343663170D-01 -2.9899158064801D-01
    12  1.1000000000000D-01  5.3039750244779D-01 -3.2557446027202D-01
    13  1.2000000000000D-01  5.7561361307372D-01 -3.5123189381743D-01
    14  1.3000000000000D-01  6.2006324334381D-01 -3.7588965179062D-01
    15  1.4000000000000D-01  6.6368935013245D-01 -3.9947601163689D-01
    16  1.5000000000000D-01  7.0643647944340D-01 -4.2192193539786D-01
    17  1.6000000000000D-01  7.4825086969441D-01 -4.4316124013885D-01
    18  1.7000000000000D-01  7.8908055095545D-01 -4.6313076069250D-01
    19  1.8000000000000D-01  8.2887543990968D-01 -4.8177050428688D-01
    20  1.9000000000000D-01  8.6758743031770D-01 -4.9902379664896D-01
    21  2.0000000000000D-01  9.0517047877789D-01 -5.1483741919899D-01
    22  2.1000000000000D-01  9.4158068558790D-01 -5.2916173697633D-01
    23  2.2000000000000D-01  9.7677637052597D-01 -5.4195081696369D-01
    24  2.3000000000000D-01  1.0107181433839D+00 -5.5316253650404D-01
    25  2.4000000000000D-01  1.0433689690981D+00 -5.6275868153258D-01
    26  2.5000000000000D-01  1.0746942273381D+00 -5.7070503437498D-01
    27  2.6000000000000D-01  1.1046617664306D+00 -5.7697145089301D-01
    28  2.7000000000000D-01  1.1332419515054D+00 -5.8153192678849D-01
    29  2.8000000000000D-01  1.1604077067739D+00 -5.8436465290779D-01
    30  2.9000000000000D-01  1.1861345518573D+00 -5.8545205941990D-01
    31  3.0000000000000D-01  1.2104006321057D+00 -5.8478084877287D-01
    32  3.1000000000000D-01  1.2331867428587D+00 -5.8234201736536D-01
    33  3.2000000000000D-01  1.2544763476188D+00 -5.7813086590175D-01
    34  3.3000000000000D-01  1.2742555901224D+00 -5.7214699843164D-01
    35  3.4000000000000D-01  1.2925133003109D+00 -5.6439431010638D-01
    36  3.5000000000000D-01  1.3092409942192D+00 -5.5488096371750D-01
    37  3.6000000000000D-01  1.3244328678161D+00 -5.4361935511332D-01
    38  3.7000000000000D-01  1.3380857848469D+00 -5.3062606762161D-01
    39  3.8000000000000D-01  1.3501992587422D+00 -5.1592181563741D-01
    40  3.9000000000000D-01  1.3607754286770D+00 -4.9953137756516D-01
    41  4.0000000000000D-01  1.3698190298738D+00 -4.8148351833477D-01
    42  4.1000000000000D-01  1.3773373582626D+00 -4.6181090174022D-01
    43  4.2000000000000D-01  1.3833402296240D+00 -4.4054999287801D-01
    44  4.3000000000000D-01  1.3878399333542D+00 -4.1774095099027D-01
    45  4.4000000000000D-01  1.3908511810083D+00 -3.9342751304439D-01
    46  4.5000000000000D-01  1.3923910497865D+00 -3.6765686840638D-01
    47  4.6000000000000D-01  1.3924789211456D+00 -3.4047952499025D-01
    48  4.7000000000000D-01  1.3911364147267D+00 -3.1194916728898D-01
    49  4.8000000000000D-01  1.3883873178040D+00 -2.8212250671476D-01
    50  4.9000000000000D-01  1.3842575104687D+00 -2.5105912469758D-01
    51  5.0000000000000D-01  1.3787748867743D+00 -2.1882130901032D-01
    52  5.1000000000000D-01  1.3719692720783D+00 -1.8547388380705D-01
    53  5.2000000000000D-01  1.3638723368232D+00 -1.5108403387768D-01
    54  5.3000000000000D-01  1.3545175070102D+00 -1.1572112363736D-01
    55  5.4000000000000D-01  1.3439398716254D+00 -7.9456511382440D-02
    56  5.5000000000000D-01  1.3321760872832D+00 -4.2363359356884D-02
    57  5.6000000000000D-01  1.3192642803617D+00 -4.5164401831054D-03
    58  5.7000000000000D-01  1.3052439469049D+00  3.4008059780144D-02
    59  5.8000000000000D-01  1.2901558505751D+00  7.3132739583414D-02
    60  5.9000000000000D-01  1.2740419189388D+00  1.1277918476126D-01
    61  6.0000000000000D-01  1.2569451383748D+00  1.5286816975825D-01
    62  6.1000000000000D-01  1.2389094478928D+00  1.9331986112685D-01
    63  6.2000000000000D-01  1.2199796321521D+00  2.3405402091831D-01
    64  6.3000000000000D-01  1.2002012139707D+00  2.7499020968920D-01
    65  6.4000000000000D-01  1.1796203466129D+00  3.1604798855071D-01
    66  6.5000000000000D-01  1.1582837061428D+00  3.5714711969277D-01
    67  6.6000000000000D-01  1.1362383841269D+00  3.9820776482272D-01
    68  6.7000000000000D-01  1.1135317809682D+00  4.3915068096711D-01
    69  6.8000000000000D-01  1.0902115001463D+00  4.7989741309609D-01
    70  6.9000000000000D-01  1.0663252436353D+00  5.2037048304201D-01
    71  7.0000000000000D-01  1.0419207087653D+00  5.6049357419799D-01
    72  7.1000000000000D-01  1.0170454867846D+00  6.0019171149761D-01
    73  7.2000000000000D-01  9.9174696337458D-01  6.3939143619425D-01
    74  7.3000000000000D-01  9.6607222135910D-01  6.7802097497656D-01
    75  7.4000000000000D-01  9.4006794584288D-01  7.1601040297712D-01
    76  7.5000000000000D-01  9.1378033200220D-01  7.5329180025218D-01
    77  7.6000000000000D-01  8.8725499574229D-01  7.8979940133277D-01
    78  7.7000000000000D-01  8.6053688742429D-01  8.2546973747181D-01
    79  7.8000000000000D-01  8.3367020885349D-01  8.6024177123569D-01
    80  7.9000000000000D-01  8.0669833370844D-01  8.9405702311555D-01
    81  8.0000000000000D-01  7.7966373157844D-01  9.2685968985953D-01
    82  8.1000000000000D-01  7.5260789576378D-01  9.5859675425528D-01
    83  8.2000000000000D-01  7.2557127498017D-01  9.8921808612009D-01
    84  8.3000000000000D-01  6.9859320909491D-01  1.0186765342853D+00
    85  8.4000000000000D-01  6.7171186900875D-01  1.0469280093906D+00
    86  8.5000000000000D-01  6.4496420078317D-01  1.0739315573352D+00
    87  8.6000000000000D-01  6.1838587409843D-01  1.0996494232607D+00
    88  8.7000000000000D-01  5.9201123511344D-01  1.1240471059745D+00
    89  8.8000000000000D-01  5.6587326378362D-01  1.1470934027493D+00
    90  8.9000000000000D-01  5.4000353567867D-01  1.1687604444701D+00
    91  9.0000000000000D-01  5.1443218832722D-01  1.1890237211245D+00
    92  9.1000000000000D-01  4.8918789210093D-01  1.2078620976690D+00
    93  9.2000000000000D-01  4.6429782563603D-01  1.2252578203300D+00
    94  9.3000000000000D-01  4.3978765577603D-01  1.2411965134287D+00
    95  9.4000000000000D-01  4.1568152200515D-01  1.2556671668514D+00
    96  9.5000000000000D-01  3.9200202532815D-01  1.2686621143111D+00
    97  9.6000000000000D-01  3.6877022153857D-01  1.2801770025780D+00
    98  9.7000000000000D-01  3.4600561880435D-01  1.2902107518819D+00
    99  9.8000000000000D-01  3.2372617948660D-01  1.2987655077172D+00
   100  9.9000000000000D-01  3.0194832609524D-01  1.3058465843056D+00
   101  1.0000000000000D+00  2.8068695127277D-01  1.3114623999966D+00
   102  1.0100000000000D+00  2.5995543168668D-01  1.3156244049100D+00
   103  1.0200000000000D+00  2.3976564569932D-01  1.3183470011453D+00
   104  1.0300000000000D+00  2.2012799467429D-01  1.3196474559043D+00
   105  1.0400000000000D+00  2.0105142776842D-01  1.3195458078933D+00
   106  1.0500000000000D+00  1.8254347004952D-01  1.3180647673899D+00
   107  1.0600000000000D+00  1.6461025377153D-01  1.3152296103724D+00
   108  1.0700000000000D+00  1.4725655263128D-01  1.3110680671308D+00
   109  1.0800000000000D+00  1.3048581882390D-01  1.3056102057860D+00
   110  1.0900000000000D+00  1.1430022270777D-01  1.2988883111602D+00
   111  1.1000000000000D+00  9.8700694884464D-02  1.2909367594490D+00
   112  1.1100000000000D+00  8.3686970494551D-02  1.2817918891559D+00
   113  1.1200000000000D+00  6.9257635526414D-02  1.2714918687549D+00
   114  1.1300000000000D+00  5.5410174931643D-02  1.2600765615552D+00
   115  1.1400000000000D+00  4.2141022338782D-02  1.2475873882419D+00
   116  1.1500000000000D+00  2.9445611155748D-02  1.2340671875699D+00
   117  1.1600000000000D+00  1.7318426850294D-02  1.2195600756896D+00
   118  1.1700000000000D+00  5.7530601981159D-03  1.2041113045788D+00
   119  1.1800000000000D+00 -5.2577387106214D-03  1.1877671200522D+00
   120  1.1900000000000D+00 -1.5722005913841D-02  1.1705746198173D+00
   121  1.2000000000000D+00 -2.5648508675014D-02  1.1525816120347D+00
   122  1.2100000000000D+00 -3.5046690437114D-02  1.1338364748374D+00
   123  1.2200000000000D+00 -4.3926615830097D-02  1.1143880172462D+00
   124  1.2300000000000D+00 -5.2298915927236D-02  1.0942853419176D+00
   125  1.2400000000000D+00 -6.0174733937003D-02  1.0735777101384D+00
   126  1.2500000000000D+00 -6.7565671511426D-02  1.0523144094678D+00
   127  1.2600000000000D+00 -7.4483735848411D-02  1.0305446244201D+00
   128  1.2700000000000D+00 -8.0941287755510D-02  1.0083173105562D+00
   129  1.2800000000000D+00 -8.6950990832888D-02  9.8568107233215D-01
   130  1.2900000000000D+00 -9.2525761930990D-02  9.6268404504451D-01
   131  1.3000000000000D+00 -9.7678723025484D-02  9.3937378118513D-01
   132  1.3100000000000D+00 -1.0242315463894D-01  9.1579714148632D-01
   133  1.3200000000000D+00 -1.0677245094036D-01  8.9200019094189D-01
   134  1.3300000000000D+00 -1.1074007663398D-01  8.6802810004366D-01
   135  1.3400000000000D+00 -1.1433952573527D-01  8.4392505144341D-01
   136  1.3500000000000D+00 -1.1758428234097D-01  8.1973415226895D-01
   137  1.3600000000000D+00 -1.2048778346348D-01  7.9549735224141D-01
   138  1.3700000000000D+00 -1.2306338400382D-01  7.7125536774840D-01
   139  1.3800000000000D+00 -1.2532432393339D-01  7.4704761201903D-01
   140  1.3900000000000D+00 -1.2728369771726D-01  7.2291213146165D-01
   141  1.4000000000000D+00 -1.2895442603269D-01  6.9888554827238D-01
   142  1.4100000000000D+00 -1.3034922980419D-01  6.7500300934887D-01
   143  1.4200000000000D+00 -1.3148060656242D-01  6.5129814151188D-01
   144  1.4300000000000D+00 -1.3236080915397D-01  6.2780301308176D-01
   145  1.4400000000000D+00 -1.3300182676877D-01  6.0454810171997D-01
   146  1.4500000000000D+00 -1.3341536829202D-01  5.8156226853639D-01
   147  1.4600000000000D+00 -1.3361284794236D-01  5.5887273836060D-01
   148  1.4700000000000D+00 -1.3360537315547D-01  5.3650508606874D-01
   149  1.4800000000000D+00 -1.3340373468597D-01  5.1448322888944D-01
   150  1.4900000000000D+00 -1.3301839884038D-01  4.9282942447288D-01
   151  1.5000000000000D+00 -1.3245950181287D-01  4.7156427464392D-01
   152  1.5100000000000D+00 -1.3173684601637D-01  4.5070673457626D-01
   153  1.5200000000000D+00 -1.3085989835205D-01  4.3027412724146D-01
   154  1.5300000000000D+00 -1.2983779031580D-01  4.1028216288354D-01
   155  1.5400000000000D+00 -1.2867931984579D-01  3.9074496328090D-01
   156  1.5500000000000D+00 -1.2739295481898D-01  3.7167509056892D-01
   157  1.5600000000000D+00 -1.2598683806865D-01  3.5308358030666D-01
   158  1.5700000000000D+00 -1.2446879383514D-01  3.3497997857270D-01
   159  1.5800000000000D+00 -1.2284633550169D-01  3.1737238272272D-01
   160  1.5900000000000D+00 -1.2112667452251D-01  3.0026748558244D-01
   161  1.6000000000000D+00 -1.1931673039055D-01  2.8367062269503D-01
   162  1.6100000000000D+00 -1.1742314153747D-01  2.6758582236107D-01
   163  1.6200000000000D+00 -1.1545227701917D-01  2.5201585810221D-01
   164  1.6300000000000D+00 -1.1341024886547D-01  2.3696230325090D-01
   165  1.6400000000000D+00 -1.1130292495348D-01  2.2242558731041D-01
   166  1.6500000000000D+00 -1.0913594227595D-01  2.0840505376642D-01
   167  1.6600000000000D+00 -1.0691472046859D-01  1.9489901900386D-01
   168  1.6700000000000D+00 -1.0464447546698D-01  1.8190483200389D-01
   169  1.6800000000000D+00 -1.0233023316075D-01  1.6941893448195D-01
   170  1.6900000000000D+00 -9.9976842919658D-02  1.5743692114676D-01
   171  1.7000000000000D+00 -9.7588990864425D-02  1.4595359975090D-01
   172  1.7100000000000D+00 -9.5171212762805D-02  1.3496305062301D-01
   173  1.7200000000000D+00 -9.2727906433280D-02  1.2445868537077D-01
   174  1.7300000000000D+00 -9.0263343541156D-02  1.1443330445257D-01
   175  1.7400000000000D+00 -8.7781680686645D-02  1.0487915334176D-01
   176  1.7500000000000D+00 -8.5286969668280D-02  9.5787976977801D-02
   177  1.7600000000000D+00 -8.2783166850251D-02  8.7151072288735D-02
   178  1.7700000000000D+00 -8.0274141505165D-02  7.8959338453071D-02
   179  1.7800000000000D+00 -7.7763683105704D-02  7.1203324781692D-02
   180  1.7900000000000D+00 -7.5255507410071D-02  6.3873275828971D-02
   181  1.8000000000000D+00 -7.2753261378770D-02  5.6959173753690D-02
   182  1.8100000000000D+00 -7.0260526723279D-02  5.0450777439295D-02
   183  1.8200000000000D+00 -6.7780822206853D-02  4.4337658578716D-02
   184  1.8300000000000D+00 -6.5317604447436D-02  3.8609234116554D-02
   185  1.8400000000000D+00 -6.2874267407673D-02  3.3254795403103D-02
   186  1.8500000000000D+00 -6.0454140323381D-02  2.8263533448858D-02
   187  1.8600000000000D+00 -5.8060484248644D-02  2.3624560626131D-02
   188  1.8700000000000D+00 -5.5696487043707D-02  1.9326928367599D-02
   189  1.8800000000000D+00 -5.3365256913957D-02  1.5359641056149D-02
   190  1.8900000000000D+00 -5.1069814452300D-02  1.1711665939536D-02
   191  1.9000000000000D+00 -4.8813083181355D-02  8.3719390084574D-03
   192  1.9100000000000D+00 -4.6597878707262D-02  5.3293670434857D-03
   193  1.9200000000000D+00 -4.4426896346118D-02  2.5728254464076D-03
   194  1.9300000000000D+00 -4.2302697496233D-02  9.1152453477281D-05
   195  1.9400000000000D+00 -4.0227694522929D-02 -2.1268608926121D-03
   196  1.9500000000000D+00 -3.8204134473138D-02 -4.0924842936652D-03
   197  1.9600000000000D+00 -3.6234081474739D-02 -5.8170656917348D-03
   198  1.9700000000000D+00 -3.4319397996576D-02 -7.3120523281976D-03
   199  1.9800000000000D+00 -3.2461724996224D-02 -8.5890153740887D-03
   200  1.9900000000000D+00 -3.0662459759876D-02 -9.6596815853077D-03
   201  2.0000000000000D+00 -2.8922740131449D-02 -1.0535947461644D-02
   202  2.0100000000000D+00 -2.7243404629409D-02 -1.1229961846919D-02
   203  2.0200000000000D+00 -2.5625002855899D-02 -1.1754069352488D-02
   204  2.0300000000000D+00 -2.4067754818643D-02 -1.2120895323295D-02
   205  2.0400000000000D+00 -2.2571493749083D-02 -1.2343479551100D-02
   206  2.0500000000000D+00 -2.1135605441466D-02 -1.2435425455251D-02
   207  2.0600000000000D+00 -1.9759190794577D-02 -1.2410413525042D-02
   208  2.0700000000000D+00 -1.8441123989325D-02 -1.2282003519061D-02
   209  2.0800000000000D+00 -1.7180139032903D-02 -1.2063392226865D-02
   210  2.0900000000000D+00 -1.5974952032594D-02 -1.1767067895220D-02
   211  2.1000000000000D+00 -1.4824363488389D-02 -1.1404524954024D-02
   212  2.1100000000000D+00 -1.3727188666689D-02 -1.0986469268778D-02
   213  2.1200000000000D+00 -1.2682222200636D-02 -1.0522937344697D-02
   214  2.1300000000000D+00 -1.1688274005815D-02 -1.0023201305423D-02
   215  2.1400000000000D+00 -1.0744163842428D-02 -9.4957974550315D-03
   216  2.1500000000000D+00 -9.8487133593116D-03 -8.9485632691888D-03
   217  2.1600000000000D+00 -9.0007491314556D-03 -8.3886435120374D-03
   218  2.1700000000000D+00 -8.1990994866404D-03 -7.8225152979891D-03
   219  2.1800000000000D+00 -7.4425925589066D-03 -7.2560108040269D-03
   220  2.1900000000000D+00 -6.7300542717351D-03 -6.6943412113517D-03
   221  2.2000000000000D+00 -6.0603062853732D-03 -6.1421217464403D-03
   222  2.2100000000000D+00 -5.4321640795314D-03 -5.6033975372824D-03
   223  2.2200000000000D+00 -4.8444350284133D-03 -5.0816703596043D-03
   224  2.2300000000000D+00 -4.2959166686373D-03 -4.5799259233945D-03
   225  2.2400000000000D+00 -3.7853951713813D-03 -4.1006615924591D-03
   226  2.2500000000000D+00 -3.3116438922730D-03 -3.6459146545403D-03
   227  2.2600000000000D+00 -2.8734223342207D-03 -3.2172905288865D-03
   228  2.2700000000000D+00 -2.4694752751200D-03 -2.8159912368899D-03
   229  2.2800000000000D+00 -2.0985321610665D-03 -2.4428438978138D-03
   230  2.2900000000000D+00 -1.7593069576072D-03 -2.0983288332903D-03
   231  2.3000000000000D+00 -1.4504981743846D-03 -1.7826077181359D-03
   232  2.3100000000000D+00 -1.1707893201230D-03 -1.4955512341334D-03
   233  2.3200000000000D+00 -9.1884976928073D-04 -1.2367661851305D-03
   234  2.3300000000000D+00 -6.9333582441108D-04 -1.0056224234738D-03
   235  2.3400000000000D+00 -4.9289232225773D-04 -8.0127882767693D-04
   236  2.3500000000000D+00 -3.1615455733742D-04 -6.2270870822462D-04
   237  2.3600000000000D+00 -1.6175042900890D-04 -4.6872477662344D-04
   238  2.3700000000000D+00 -2.8303167329026D-05 -3.3800284880552D-04
   239  2.3800000000000D+00  8.5565747071426D-05 -2.2910503343380D-04
   240  2.3900000000000D+00  1.8123336706342D-04 -1.4050212145297D-04
   241  2.4000000000000D+00  2.6007160828716D-04 -7.0594729100591D-05
   242  2.4100000000000D+00  3.2344342487565D-04 -1.7733825738763D-05
   243  2.4200000000000D+00  3.7269870166016D-04  1.9759738655630D-05
   244  2.4300000000000D+00  4.0916982891625D-04  4.3576885258500D-05
   245  2.4400000000000D+00  4.3416717017728D-04  5.5402650658636D-05
   246  2.4500000000000D+00  4.4897431033322D-04  5.6899632641595D-05
   247  2.4600000000000D+00  4.5484312623472D-04  4.9692519386332D-05
   248  2.4700000000000D+00  4.5298880187461D-04  3.5353366324273D-05
   249  2.4800000000000D+00  4.4458473344924D-04  1.5387976919866D-05
   250  2.4900000000000D+00  4.3075738712691D-04 -8.7767314148274D-06
   251  2.5000000000000D+00  4.1258116204709D-04 -3.5804594616519D-05
   252  2.5100000000000D+00  3.9107327747023D-04 -6.4461025733922D-05
   253  2.5200000000000D+00  3.6718873611507D-04 -9.3622961331164D-05
   254  2.5300000000000D+00  3.4181532958837D-04 -1.2228798014481D-04
   255  2.5400000000000D+00  3.1576885195967D-04 -1.4958258366508D-04
   256  2.5500000000000D+00  2.8978848215475D-04 -1.7476965160164D-04
   257  2.5600000000000D+00  2.6453230166402D-04 -1.9725516985236D-04
   258  2.5700000000000D+00  2.4057310318676D-04 -2.1659411879998D-04
   259  2.5800000000000D+00  2.1854518832218D-04 -2.3280765350633D-04
   260  2.5900000000000D+00  1.9866712479866D-04 -2.4540725865971D-04
   261  2.6000000000000D+00  1.8099652204397D-04 -2.5393285104079D-04
   262  2.6100000000000D+00  1.6480745497447D-04 -2.5679849255981D-04
   263  2.6200000000000D+00  1.5126030499638D-04 -2.5647028218811D-04
   264  2.6300000000000D+00  1.4269832591850D-04 -2.5809878365610D-04
   265  2.6400000000000D+00  1.4149055218828D-04 -2.6714543375185D-04
   266  2.6500000000000D+00  1.4500555231453D-04 -2.7981823767848D-04
   267  2.6600000000000D+00  1.4181724229156D-04 -2.7578956491840D-04
   268  2.6700000000000D+00  1.2291498338712D-04 -2.3931287937928D-04
   269  2.6800000000000D+00  8.2399075225856D-05 -1.6044579429425D-04
   270  2.6900000000000D+00  3.7239282795304D-05 -7.2455335747329D-05
   271  2.7000000000000D+00 -5.9377178750225D-07  1.1594703580485D-06
   272  2.7100000000000D+00 -1.2978830119906D-05  2.5348092959809D-05
   273  2.7200000000000D+00 -1.1381278966297D-05  2.2229003233002D-05
   274  2.7300000000000D+00 -2.1915521935644D-06  4.2802717926681D-06
   275  2.7400000000000D+00  2.3784067009538D-06 -4.6546854367738D-06
   276  2.7500000000000D+00  2.9836060245425D-06 -5.8404680917138D-06
   277  2.7600000000000D+00  1.2612350304239D-06 -2.4693829848906D-06
   278  2.7700000000000D+00 -1.9364312825057D-07  3.7692027780718D-07
   279  2.7800000000000D+00 -3.6899770558079D-07  7.1824246465256D-07
   280  2.7900000000000D+00 -2.4323360513202D-07  4.7344658623656D-07
   281  2.8000000000000D+00  0.0000000000000D+00  0.0000000000000D+00
   282  2.8100000000000D+00  0.0000000000000D+00  0.0000000000000D+00
   283  2.8200000000000D+00  0.0000000000000D+00  0.0000000000000D+00
   284  2.8300000000000D+00  0.0000000000000D+00  0.0000000000000D+00
   285  2.8400000000000D+00  0.0000000000000D+00  0.0000000000000D+00
   286  2.8500000000000D+00  0.0000000000000D+00  0.0000000000000D+00
   287  2.8600000000000D+00  0.0000000000000D+00  0.0000000000000D+00
   288  2.8700000000000D+00  0.0000000000000D+00  0.0000000000000D+00
   289  2.8800000000000D+00  0.0000000000000D+00  0.0000000000000D+00
   290  2.8900000000000D+00  0.0000000000000D+00  0.0000000000000D+00
   291  2.9000000000000D+00  0.0000000000000D+00  0.0000000000000D+00
   292  2.9100000000000D+00  0.0000000000000D+00  0.0000000000000D+00
   293  2.9200000000000D+00  0.0000000000000D+00  0.0000000000000D+00
   294  2.9300000000000D+00  0.0000000000000D+00  0.0000000000000D+00
   295  2.9400000000000D+00  0.0000000000000D+00  0.0000000000000D+00
   296  2.9500000000000D+00  0.0000000000000D+00  0.0000000000000D+00
   297  2.9600000000000D+00  0.0000000000000D+00  0.0000000000000D+00
   298  2.9700000000000D+00  0.0000000000000D+00  0.0000000000000D+00
   299  2.9800000000000D+00  0.0000000000000D+00  0.0000000000000D+00
   300  2.9900000000000D+00  0.0000000000000D+00  0.0000000000000D+00
   301  3.0000000000000D+00  0.0000000000000D+00  0.0000000000000D+00
   302  3.0100000000000D+00  0.0000000000000D+00  0.0000000000000D+00
   303  3.0200000000000D+00  0.0000000000000D+00  0.0000000000000D+00
   304  3.0300000000000D+00  0.0000000000000D+00  0.0000000000000D+00
   305  3.0400000000000D+00  0.0000000000000D+00  0.0000000000000D+00
   306  3.0500000000000D+00  0.0000000000000D+00  0.0000000000000D+00
   307  3.0600000000000D+00  0.0000000000000D+00  0.0000000000000D+00
   308  3.0700000000000D+00  0.0000000000000D+00  0.0000000000000D+00
   309  3.0800000000000D+00  0.0000000000000D+00  0.0000000000000D+00
   310  3.0900000000000D+00  0.0000000000000D+00  0.0000000000000D+00
   311  3.1000000000000D+00  0.0000000000000D+00  0.0000000000000D+00
   312  3.1100000000000D+00  0.0000000000000D+00  0.0000000000000D+00
   313  3.1200000000000D+00  0.0000000000000D+00  0.0000000000000D+00
   314  3.1300000000000D+00  0.0000000000000D+00  0.0000000000000D+00
   315  3.1400000000000D+00  0.0000000000000D+00  0.0000000000000D+00
   316  3.1500000000000D+00  0.0000000000000D+00  0.0000000000000D+00
   317  3.1600000000000D+00  0.0000000000000D+00  0.0000000000000D+00
   318  3.1700000000000D+00  0.0000000000000D+00  0.0000000000000D+00
   319  3.1800000000000D+00  0.0000000000000D+00  0.0000000000000D+00
   320  3.1900000000000D+00  0.0000000000000D+00  0.0000000000000D+00
   321  3.2000000000000D+00  0.0000000000000D+00  0.0000000000000D+00
   322  3.2100000000000D+00  0.0000000000000D+00  0.0000000000000D+00
   323  3.2200000000000D+00  0.0000000000000D+00  0.0000000000000D+00
   324  3.2300000000000D+00  0.0000000000000D+00  0.0000000000000D+00
   325  3.2400000000000D+00  0.0000000000000D+00  0.0000000000000D+00
   326  3.2500000000000D+00  0.0000000000000D+00  0.0000000000000D+00
   327  3.2600000000000D+00  0.0000000000000D+00  0.0000000000000D+00
   328  3.2700000000000D+00  0.0000000000000D+00  0.0000000000000D+00
   329  3.2800000000000D+00  0.0000000000000D+00  0.0000000000000D+00
   330  3.2900000000000D+00  0.0000000000000D+00  0.0000000000000D+00
   331  3.3000000000000D+00  0.0000000000000D+00  0.0000000000000D+00
   332  3.3100000000000D+00  0.0000000000000D+00  0.0000000000000D+00
   333  3.3200000000000D+00  0.0000000000000D+00  0.0000000000000D+00
   334  3.3300000000000D+00  0.0000000000000D+00  0.0000000000000D+00
   335  3.3400000000000D+00  0.0000000000000D+00  0.0000000000000D+00
   336  3.3500000000000D+00  0.0000000000000D+00  0.0000000000000D+00
   337  3.3600000000000D+00  0.0000000000000D+00  0.0000000000000D+00
   338  3.3700000000000D+00  0.0000000000000D+00  0.0000000000000D+00
   339  3.3800000000000D+00  0.0000000000000D+00  0.0000000000000D+00
   340  3.3900000000000D+00  0.0000000000000D+00  0.0000000000000D+00
   341  3.4000000000000D+00  0.0000000000000D+00  0.0000000000000D+00
   342  3.4100000000000D+00  0.0000000000000D+00  0.0000000000000D+00
   343  3.4200000000000D+00  0.0000000000000D+00  0.0000000000000D+00
   344  3.4300000000000D+00  0.0000000000000D+00  0.0000000000000D+00
   345  3.4400000000000D+00  0.0000000000000D+00  0.0000000000000D+00
   346  3.4500000000000D+00  0.0000000000000D+00  0.0000000000000D+00
   347  3.4600000000000D+00  0.0000000000000D+00  0.0000000000000D+00
   348  3.4700000000000D+00  0.0000000000000D+00  0.0000000000000D+00
   349  3.4800000000000D+00  0.0000000000000D+00  0.0000000000000D+00
   350  3.4900000000000D+00  0.0000000000000D+00  0.0000000000000D+00
   351  3.5000000000000D+00  0.0000000000000D+00  0.0000000000000D+00
   352  3.5100000000000D+00  0.0000000000000D+00  0.0000000000000D+00
   353  3.5200000000000D+00  0.0000000000000D+00  0.0000000000000D+00
   354  3.5300000000000D+00  0.0000000000000D+00  0.0000000000000D+00
   355  3.5400000000000D+00  0.0000000000000D+00  0.0000000000000D+00
   356  3.5500000000000D+00  0.0000000000000D+00  0.0000000000000D+00
   357  3.5600000000000D+00  0.0000000000000D+00  0.0000000000000D+00
   358  3.5700000000000D+00  0.0000000000000D+00  0.0000000000000D+00
   359  3.5800000000000D+00  0.0000000000000D+00  0.0000000000000D+00
   360  3.5900000000000D+00  0.0000000000000D+00  0.0000000000000D+00
   361  3.6000000000000D+00  0.0000000000000D+00  0.0000000000000D+00
   362  3.6100000000000D+00  0.0000000000000D+00  0.0000000000000D+00
   363  3.6200000000000D+00  0.0000000000000D+00  0.0000000000000D+00
   364  3.6300000000000D+00  0.0000000000000D+00  0.0000000000000D+00
   365  3.6400000000000D+00  0.0000000000000D+00  0.0000000000000D+00
   366  3.6500000000000D+00  0.0000000000000D+00  0.0000000000000D+00
   367  3.6600000000000D+00  0.0000000000000D+00  0.0000000000000D+00
   368  3.6700000000000D+00  0.0000000000000D+00  0.0000000000000D+00
   369  3.6800000000000D+00  0.0000000000000D+00  0.0000000000000D+00
   370  3.6900000000000D+00  0.0000000000000D+00  0.0000000000000D+00
   371  3.7000000000000D+00  0.0000000000000D+00  0.0000000000000D+00
   372  3.7100000000000D+00  0.0000000000000D+00  0.0000000000000D+00
   373  3.7200000000000D+00  0.0000000000000D+00  0.0000000000000D+00
   374  3.7300000000000D+00  0.0000000000000D+00  0.0000000000000D+00
   375  3.7400000000000D+00  0.0000000000000D+00  0.0000000000000D+00
   376  3.7500000000000D+00  0.0000000000000D+00  0.0000000000000D+00
   377  3.7600000000000D+00  0.0000000000000D+00  0.0000000000000D+00
   378  3.7700000000000D+00  0.0000000000000D+00  0.0000000000000D+00
   379  3.7800000000000D+00  0.0000000000000D+00  0.0000000000000D+00
   380  3.7900000000000D+00  0.0000000000000D+00  0.0000000000000D+00
   381  3.8000000000000D+00  0.0000000000000D+00  0.0000000000000D+00
   382  3.8100000000000D+00  0.0000000000000D+00  0.0000000000000D+00
   383  3.8200000000000D+00  0.0000000000000D+00  0.0000000000000D+00
   384  3.8300000000000D+00  0.0000000000000D+00  0.0000000000000D+00
   385  3.8400000000000D+00  0.0000000000000D+00  0.0000000000000D+00
   386  3.8500000000000D+00  0.0000000000000D+00  0.0000000000000D+00
   387  3.8600000000000D+00  0.0000000000000D+00  0.0000000000000D+00
   388  3.8700000000000D+00  0.0000000000000D+00  0.0000000000000D+00
   389  3.8800000000000D+00  0.0000000000000D+00  0.0000000000000D+00
   390  3.8900000000000D+00  0.0000000000000D+00  0.0000000000000D+00
   391  3.9000000000000D+00  0.0000000000000D+00  0.0000000000000D+00
   392  3.9100000000000D+00  0.0000000000000D+00  0.0000000000000D+00
   393  3.9200000000000D+00  0.0000000000000D+00  0.0000000000000D+00
   394  3.9300000000000D+00  0.0000000000000D+00  0.0000000000000D+00
   395  3.9400000000000D+00  0.0000000000000D+00  0.0000000000000D+00
   396  3.9500000000000D+00  0.0000000000000D+00  0.0000000000000D+00
   397  3.9600000000000D+00  0.0000000000000D+00  0.0000000000000D+00
   398  3.9700000000000D+00  0.0000000000000D+00  0.0000000000000D+00
   399  3.9800000000000D+00  0.0000000000000D+00  0.0000000000000D+00
   400  3.9900000000000D+00  0.0000000000000D+00  0.0000000000000D+00
   401  4.0000000000000D+00  0.0000000000000D+00  0.0000000000000D+00
   402  4.0100000000000D+00  0.0000000000000D+00  0.0000000000000D+00
   403  4.0200000000000D+00  0.0000000000000D+00  0.0000000000000D+00
   404  4.0300000000000D+00  0.0000000000000D+00  0.0000000000000D+00
   405  4.0400000000000D+00  0.0000000000000D+00  0.0000000000000D+00
   406  4.0500000000000D+00  0.0000000000000D+00  0.0000000000000D+00
   407  4.0600000000000D+00  0.0000000000000D+00  0.0000000000000D+00
   408  4.0700000000000D+00  0.0000000000000D+00  0.0000000000000D+00
   409  4.0800000000000D+00  0.0000000000000D+00  0.0000000000000D+00
   410  4.0900000000000D+00  0.0000000000000D+00  0.0000000000000D+00
   411  4.1000000000000D+00  0.0000000000000D+00  0.0000000000000D+00
   412  4.1100000000000D+00  0.0000000000000D+00  0.0000000000000D+00
   413  4.1200000000000D+00  0.0000000000000D+00  0.0000000000000D+00
   414  4.1300000000000D+00  0.0000000000000D+00  0.0000000000000D+00
   415  4.1400000000000D+00  0.0000000000000D+00  0.0000000000000D+00
   416  4.1500000000000D+00  0.0000000000000D+00  0.0000000000000D+00
   417  4.1600000000000D+00  0.0000000000000D+00  0.0000000000000D+00
   418  4.1700000000000D+00  0.0000000000000D+00  0.0000000000000D+00
   419  4.1800000000000D+00  0.0000000000000D+00  0.0000000000000D+00
   420  4.1900000000000D+00  0.0000000000000D+00  0.0000000000000D+00
   421  4.2000000000000D+00  0.0000000000000D+00  0.0000000000000D+00
   422  4.2100000000000D+00  0.0000000000000D+00  0.0000000000000D+00