Ge    ONCVPSP-3.3.1  r_core=   2.66770   2.57393   2.66770
     32.0000     14.0000      210905    zatom,zion,pspd
     8 -116133   2     4   600     0    pspcod,pspxc,lmax,lloc,mmax,r2well
  5.99000000  0.00000000  0.00000000    rchrg fchrg qchrg
     2     3     2     0    nproj
     3     1           extension_switch
     3     3     0    nprojso
   0                         7.4835122797931D-01  8.5491826698225D+00
     1  0.0000000000000D+00  6.7657268676413D-12 -3.3513192221335D-12
     2  1.0000000000000D-02 -3.1347002022530D-02  4.9536396825018D-02
     3  2.0000000000000D-02 -6.2605483494623D-02  9.9005866869764D-02
     4  3.0000000000000D-02 -9.3687146849828D-02  1.4834161421359D-01
     5  4.0000000000000D-02 -1.2450413988678D-01  1.9747710433926D-01
     6  5.0000000000000D-02 -1.5496927694625D-01  2.4634619404591D-01
     7  6.0000000000000D-02 -1.8499625828629D-01  2.9488326041793D-01
     8  7.0000000000000D-02 -2.1449988706302D-01  3.4302332853895D-01
     9  8.0000000000000D-02 -2.4339628333098D-01  3.9070219764362D-01
    10  9.0000000000000D-02 -2.7160309448572D-01  4.3785656540396D-01
    11  1.0000000000000D-01 -2.9903970158148D-01  4.8442415005211D-01
    12  1.1000000000000D-01 -3.2562742096805D-01  5.3034381004723D-01
    13  1.2000000000000D-01 -3.5128970070479D-01  5.7555566100064D-01
    14  1.3000000000000D-01 -3.7595231122412D-01  6.2000118958093D-01
    15  1.4000000000000D-01 -3.9954352973340D-01  6.6362336412877D-01
    16  1.5000000000000D-01 -4.2199431786179D-01  7.0636674171994D-01
    17  1.6000000000000D-01 -4.4323849207782D-01  7.4817757142470D-01
    18  1.7000000000000D-01 -4.6321288642403D-01  7.8900389352191D-01
    19  1.8000000000000D-01 -4.8185750713677D-01  8.2879563443695D-01
    20  1.9000000000000D-01 -4.9911567874234D-01  8.6750469718417D-01
    21  2.0000000000000D-01 -5.1493418124478D-01  9.0508504710664D-01
    22  2.1000000000000D-01 -5.2926337804610D-01  9.4149279271845D-01
    23  2.2000000000000D-01 -5.4205733426572D-01  9.7668626146804D-01
    24  2.3000000000000D-01 -5.5327392515366D-01  1.0106260702547D+00
    25  2.4000000000000D-01 -5.6287493431963D-01  1.0432751905443D+00
    26  2.5000000000000D-01 -5.7082614152945D-01  1.0745990079449D+00
    27  2.6000000000000D-01 -5.7709739984971D-01  1.1045653761172D+00
    28  2.7000000000000D-01 -5.8166270195189D-01  1.1331446649116D+00
    29  2.8000000000000D-01 -5.8450023541794D-01  1.1603098026361D+00
    30  2.9000000000000D-01 -5.8559242692035D-01  1.1860363123779D+00
    31  3.0000000000000D-01 -5.8492597518174D-01  1.2103023423160D+00
    32  3.1000000000000D-01 -5.8249187265040D-01  1.2330886899775D+00
    33  3.2000000000000D-01 -5.7828541586036D-01  1.2543788204082D+00
    34  3.3000000000000D-01 -5.7230620447685D-01  1.2741588782423D+00
    35  3.4000000000000D-01 -5.6455812905970D-01  1.2924176936740D+00
    36  3.5000000000000D-01 -5.5504934760954D-01  1.3091467823471D+00
    37  3.6000000000000D-01 -5.4379225099299D-01  1.3243403391997D+00
    38  3.7000000000000D-01 -5.3080341737492D-01  1.3379952263110D+00
    39  3.8000000000000D-01 -5.1610355581651D-01  1.3501109548170D+00
    40  3.9000000000000D-01 -4.9971743922845D-01  1.3606896609773D+00
    41  4.0000000000000D-01 -4.8167382689889D-01  1.3697360764871D+00
    42  4.1000000000000D-01 -4.6200537684462D-01  1.3772574931489D+00
    43  4.2000000000000D-01 -4.4074854826262D-01  1.3832637220265D+00
    44  4.3000000000000D-01 -4.1794349438710D-01  1.3877670472245D+00
    45  4.4000000000000D-01 -3.9363394608342D-01  1.3907821744456D+00
    46  4.5000000000000D-01 -3.6786708653647D-01  1.3923261744933D+00
    47  4.6000000000000D-01 -3.4069341741538D-01  1.3924184219000D+00
    48  4.7000000000000D-01 -3.1216661692032D-01  1.3910805288736D+00
    49  4.8000000000000D-01 -2.8234339013890D-01  1.3883362747650D+00
    50  4.9000000000000D-01 -2.5128331216131D-01  1.3842115312731D+00
    51  5.0000000000000D-01 -2.1904866442211D-01  1.3787341836110D+00
    52  5.1000000000000D-01 -1.8570426475554D-01  1.3719340478698D+00
    53  5.2000000000000D-01 -1.5131729166729D-01  1.3638427848233D+00
    54  5.3000000000000D-01 -1.1595710334107D-01  1.3544938104252D+00
    55  5.4000000000000D-01 -7.9695051911898D-02  1.3439222032595D+00
    56  5.5000000000000D-01 -4.2604293549706D-02  1.3321646092100D+00
    57  5.6000000000000D-01 -4.7595949073791D-03  1.3192591436207D+00
    58  5.7000000000000D-01  3.3762863504290D-02  1.3052452912246D+00
    59  5.8000000000000D-01  7.2885686445365D-02  1.2901638041225D+00
    60  5.9000000000000D-01  1.1253046500483D-01  1.2740565980963D+00
    61  6.0000000000000D-01  1.5261797901016D-01  1.2569666475443D+00
    62  6.1000000000000D-01  1.9306840020920D-01  1.2389378793272D+00
    63  6.2000000000000D-01  2.3380149564530D-01  1.2200150658146D+00
    64  6.3000000000000D-01  2.7473683064866D-01  1.2002437174217D+00
    65  6.4000000000000D-01  3.1579397087076D-01  1.1796699749251D+00
    66  6.5000000000000D-01  3.5689268279417D-01  1.1583405018430D+00
    67  6.6000000000000D-01  3.9795313215749D-01  1.1363023771666D+00
    68  6.7000000000000D-01  4.3889607974398D-01  1.1136029887208D+00
    69  6.8000000000000D-01  4.7964307399334D-01  1.0902899274310D+00
    70  6.9000000000000D-01  5.2011663990842D-01  1.0664108827688D+00
    71  7.0000000000000D-01  5.6024046374257D-01  1.0420135396391D+00
    72  7.1000000000000D-01  5.9993957296883D-01  1.0171454769682D+00
    73  7.2000000000000D-01  6.3914051104938D-01  9.9185406824457D-01
    74  7.3000000000000D-01  6.7777150654208D-01  9.6618638425266D-01
    75  7.4000000000000D-01  7.1576263610091D-01  9.4018909823558D-01
    76  7.5000000000000D-01  7.5304598094810D-01  9.1390839370942D-01
    77  7.6000000000000D-01  7.8955577641878D-01  8.8738987514343D-01
    78  7.7000000000000D-01  8.2522855420214D-01  8.6067848170908D-01
    79  7.8000000000000D-01  8.6000327692812D-01  8.3381840428954D-01
    80  7.9000000000000D-01  8.9382146477449D-01  8.0685300592919D-01
    81  8.0000000000000D-01  9.2662731379584D-01  7.7982474589073D-01
    82  8.1000000000000D-01  9.5836780570364D-01  7.5277510747395D-01
    83  8.2000000000000D-01  9.8899280885482D-01  7.2574452973788D-01
    84  8.3000000000000D-01  1.0184551702353D+00  6.9877234325365D-01
    85  8.4000000000000D-01  1.0467107982549D+00  6.7189671000204D-01
    86  8.5000000000000D-01  1.0737187361984D+00  6.4515456751540D-01
    87  8.6000000000000D-01  1.0994412262116D+00  6.1858157734939D-01
    88  8.7000000000000D-01  1.1238437637258D+00  5.9221207795529D-01
    89  8.8000000000000D-01  1.1468951422622D+00  5.6607904200944D-01
    90  8.9000000000000D-01  1.1685674885820D+00  5.4021403824137D-01
    91  9.0000000000000D-01  1.1888362881820D+00  5.1464719778770D-01
    92  9.1000000000000D-01  1.2076804011672D+00  4.8940718508447D-01
    93  9.2000000000000D-01  1.2250820685568D+00  4.6452117329576D-01
    94  9.3000000000000D-01  1.2410269091183D+00  4.4001482426237D-01
    95  9.4000000000000D-01  1.2555039068440D+00  4.1591227294016D-01
    96  9.5000000000000D-01  1.2685053892219D+00  3.9223611628359D-01
    97  9.6000000000000D-01  1.2800269964754D+00  3.6900740651676D-01
    98  9.7000000000000D-01  1.2900676419756D+00  3.4624564872053D-01
    99  9.8000000000000D-01  1.2986294640564D+00  3.2396880265195D-01
   100  9.9000000000000D-01  1.3057177694884D+00  3.0219328869935D-01
   101  1.0000000000000D+00  1.3113409688912D+00  2.8093399786461D-01
   102  1.0100000000000D+00  1.3155105043879D+00  2.6020430565299D-01
   103  1.0200000000000D+00  1.3182407698266D+00  2.4001608973955D-01
   104  1.0300000000000D+00  1.3195490239164D+00  2.2037975127098D-01
   105  1.0400000000000D+00  1.3194552966438D+00  2.0130423965217D-01
   106  1.0500000000000D+00  1.3179822893518D+00  1.8279708065766D-01
   107  1.0600000000000D+00  1.3151552688852D+00  1.6486440769949D-01
   108  1.0700000000000D+00  1.3110019562149D+00  1.4751099607591D-01
   109  1.0800000000000D+00  1.3055524099730D+00  1.3074030001793D-01
   110  1.0900000000000D+00  1.2988389053379D+00  1.1455449234450D-01
   111  1.1000000000000D+00  1.2908958087221D+00  9.8954506532058D-02
   112  1.1100000000000D+00  1.2817594487223D+00  8.3940080999157D-02
   113  1.1200000000000D+00  1.2714679837983D+00  6.9509805403417D-02
   114  1.1300000000000D+00  1.2600612671534D+00  5.5661168744426D-02
   115  1.1400000000000D+00  1.2475807092914D+00  4.2390609064390D-02
   116  1.1500000000000D+00  1.2340691387274D+00  2.9693564536870D-02
   117  1.1600000000000D+00  1.2195706613294D+00  1.7564525733028D-02
   118  1.1700000000000D+00  1.2041305187671D+00  5.9970888550411D-03
   119  1.1800000000000D+00  1.1877949465383D+00 -5.0159902725330D-03
   120  1.1900000000000D+00  1.1706110320406D+00 -1.5482741660887D-02
   121  1.2000000000000D+00  1.1526265731494D+00 -2.5411926270363D-02
   122  1.2100000000000D+00  1.1338899377533D+00 -3.4812980980680D-02
   123  1.2200000000000D+00  1.1144499246858D+00 -4.3695963614991D-02
   124  1.2300000000000D+00  1.0943556264906D+00 -5.2071498213055D-02
   125  1.2400000000000D+00  1.0736562944317D+00 -5.9950720740153D-02
   126  1.2500000000000D+00  1.0524012061523D+00 -6.7345225412651D-02
   127  1.2600000000000D+00  1.0306395363734D+00 -7.4267011817704D-02
   128  1.2700000000000D+00  1.0084202310017D+00 -8.0728432994472D-02
   129  1.2800000000000D+00  9.8579188499358D-01 -8.6742144634598D-02
   130  1.2900000000000D+00  9.6280262431612D-01 -9.2321055557430D-02
   131  1.3000000000000D+00  9.3949999231732D-01 -9.7478279602495D-02
   132  1.3100000000000D+00  9.1593084078642D-01 -1.0222708906866D-01
   133  1.3200000000000D+00  8.9214122598966D-01 -1.0658086983109D-01
   134  1.3300000000000D+00  8.6817630992145D-01 -1.1055307824726D-01
   135  1.3400000000000D+00  8.4408026698042D-01 -1.1415719995023D-01
   136  1.3500000000000D+00  8.1989619629951D-01 -1.1740671063549D-01
   137  1.3600000000000D+00  7.9566603987672D-01 -1.2031503891220D-01
   138  1.3700000000000D+00  7.7143050666137D-01 -1.2289553129261D-01
   139  1.3800000000000D+00  7.4722900274196D-01 -1.2516141939004D-01
   140  1.3900000000000D+00  7.2309956769614D-01 -1.2712578935809D-01
   141  1.4000000000000D+00  6.9907881721113D-01 -1.2880155362479D-01
   142  1.4100000000000D+00  6.7520189200893D-01 -1.3020142494287D-01
   143  1.4200000000000D+00  6.5150241307871D-01 -1.3133789276352D-01
   144  1.4300000000000D+00  6.2801244326378D-01 -1.3222320196062D-01
   145  1.4400000000000D+00  6.0476245511293D-01 -1.3286933387218D-01
   146  1.4500000000000D+00  5.8178130499704D-01 -1.3328798966588D-01
   147  1.4600000000000D+00  5.5909621338912D-01 -1.3349057599025D-01
   148  1.4700000000000D+00  5.3673275119931D-01 -1.3348819287097D-01
   149  1.4800000000000D+00  5.1471483208827D-01 -1.3329162382483D-01
   150  1.4900000000000D+00  4.9306471054315D-01 -1.3291132810427D-01
   151  1.5000000000000D+00  4.7180298563693D-01 -1.3235743504416D-01
   152  1.5100000000000D+00  4.5094861020810D-01 -1.3163974040338D-01
   153  1.5200000000000D+00  4.3051890531449D-01 -1.3076770464417D-01
   154  1.5300000000000D+00  4.1052957971198D-01 -1.2975045304802D-01
   155  1.5400000000000D+00  3.9099475411977D-01 -1.2859677757179D-01
   156  1.5500000000000D+00  3.7192699004553D-01 -1.2731514035247D-01
   157  1.5600000000000D+00  3.5333732285393D-01 -1.2591367873211D-01
   158  1.5700000000000D+00  3.3523529886347D-01 -1.2440021171545D-01
   159  1.5800000000000D+00  3.1762901610421D-01 -1.2278224771198D-01
   160  1.5900000000000D+00  3.0052516851009D-01 -1.2106699346963D-01
   161  1.6000000000000D+00  2.8392909316476D-01 -1.1926136404743D-01
   162  1.6100000000000D+00  2.6784482033918D-01 -1.1737199371980D-01
   163  1.6200000000000D+00  2.5227512595199D-01 -1.1540524766572D-01
   164  1.6300000000000D+00  2.3722158615508D-01 -1.1336723432141D-01
   165  1.6400000000000D+00  2.2268463368845D-01 -1.1126381825598D-01
   166  1.6500000000000D+00  2.0866361568588D-01 -1.0910063344152D-01
   167  1.6600000000000D+00  1.9515685258473D-01 -1.0688309678139D-01
   168  1.6700000000000D+00  1.8216169781505D-01 -1.0461642176750D-01
   169  1.6800000000000D+00  1.6967459792882D-01 -1.0230563213425D-01
   170  1.6900000000000D+00  1.5769115284910D-01 -9.9955575383626D-02
   171  1.7000000000000D+00  1.4620617590987D-01 -9.7570936054479D-02
   172  1.7100000000000D+00  1.3521375337650D-01 -9.5156248616411D-02
   173  1.7200000000000D+00  1.2470730313603D-01 -9.2715909870613D-02
   174  1.7300000000000D+00  1.1467963225521D-01 -9.0254190742511D-02
   175  1.7400000000000D+00  1.0512299313011D-01 -8.7775247365770D-02
   176  1.7500000000000D+00  9.6029137921755D-02 -8.5283131341042D-02
   177  1.7600000000000D+00  8.7389371062015D-02 -8.2781799098034D-02
   178  1.7700000000000D+00  7.9194599498100D-02 -8.0275120232413D-02
   179  1.7800000000000D+00  7.1435380556065D-02 -7.7766884791042D-02
   180  1.7900000000000D+00  6.4101967032635D-02 -7.5260809350441D-02
   181  1.8000000000000D+00  5.7184349535936D-02 -7.2760541926039D-02
   182  1.8100000000000D+00  5.0672295584684D-02 -7.0269665512785D-02
   183  1.8200000000000D+00  4.4555385671084D-02 -6.7791700377375D-02
   184  1.8300000000000D+00  3.8823045680226D-02 -6.5330104852077D-02
   185  1.8400000000000D+00  3.3464576020535D-02 -6.2888274815172D-02
   186  1.8500000000000D+00  2.8469176853893D-02 -6.0469541609385D-02
   187  1.8600000000000D+00  2.3825969772142D-02 -5.8077168576492D-02
   188  1.8700000000000D+00  1.9524015469758D-02 -5.5714346034281D-02
   189  1.8800000000000D+00  1.5552327607132D-02 -5.3384184804183D-02
   190  1.8900000000000D+00  1.1899882698004D-02 -5.1089708241908D-02
   191  1.9000000000000D+00  8.5556259596797D-03 -4.8833842767504D-02
   192  1.9100000000000D+00  5.5084733315413D-03 -4.6619407006687D-02
   193  1.9200000000000D+00  2.7473092773834D-03 -4.4449099404441D-02
   194  1.9300000000000D+00  2.6098096919832D-04 -4.2325484584147D-02
   195  1.9400000000000D+00 -1.9617117708269D-03 -4.0250978218914D-02
   196  1.9500000000000D+00 -3.9320300516134D-03 -3.8227830732470D-02
   197  1.9600000000000D+00 -5.6613134396818D-03 -3.6258109684510D-02
   198  1.9700000000000D+00 -7.1610010492789D-03 -3.4343681016512D-02
   199  1.9800000000000D+00 -8.4426562040635D-03 -3.2486189185074D-02
   200  1.9900000000000D+00 -9.5179981249059D-03 -3.0687034986992D-02
   201  2.0000000000000D+00 -1.0398916115726D-02 -2.8947359774494D-02
   202  2.0100000000000D+00 -1.1097552209905D-02 -2.7268005554324D-02
   203  2.0200000000000D+00 -1.1626244596701D-02 -2.5649525387752D-02
   204  2.0300000000000D+00 -1.1997612633690D-02 -2.4092142694125D-02
   205  2.0400000000000D+00 -1.2224690619769D-02 -2.2595694048257D-02
   206  2.0500000000000D+00 -1.2321077037506D-02 -2.1159568499400D-02
   207  2.0600000000000D+00 -1.2300447869088D-02 -1.9782870127060D-02
   208  2.0700000000000D+00 -1.2176358755792D-02 -1.8464476215000D-02
   209  2.0800000000000D+00 -1.1962002694296D-02 -1.7203123803608D-02
   210  2.0900000000000D+00 -1.1669864367169D-02 -1.5997531976955D-02
   211  2.1000000000000D+00 -1.1311434788244D-02 -1.4846504166495D-02
   212  2.1100000000000D+00 -1.0897416614163D-02 -1.3748858510933D-02
   213  2.1200000000000D+00 -1.0437843377939D-02 -1.2703392450270D-02
   214  2.1300000000000D+00 -9.9419844393270D-03 -1.1708918643053D-02
   215  2.1400000000000D+00 -9.4183735511544D-03 -1.0764259525343D-02
   216  2.1500000000000D+00 -8.8748458561601D-03 -9.8682393514144D-03
   217  2.1600000000000D+00 -8.3185439996385D-03 -9.0196872297472D-03
   218  2.1700000000000D+00 -7.7559431916550D-03 -8.2174339474191D-03
   219  2.1800000000000D+00 -7.1928739181033D-03 -7.4603100217509D-03
   220  2.1900000000000D+00 -6.6345458806482D-03 -6.7471436818487D-03
   221  2.2000000000000D+00 -6.0855730356270D-03 -6.0767588144702D-03
   222  2.2100000000000D+00 -5.5499994476391D-03 -5.4479730454755D-03
   223  2.2200000000000D+00 -5.0313260327109D-03 -4.8595958137746D-03
   224  2.2300000000000D+00 -4.5325378413276D-03 -4.3104266383532D-03
   225  2.2400000000000D+00 -4.0561317740816D-03 -3.7992535896997D-03
   226  2.2500000000000D+00 -3.6041448475361D-03 -3.3248518391262D-03
   227  2.2600000000000D+00 -3.1781823971157D-03 -2.8859826212187D-03
   228  2.2700000000000D+00 -2.7794465427471D-03 -2.4813923613035D-03
   229  2.2800000000000D+00 -2.4087646792651D-03 -2.1098120685689D-03
   230  2.2900000000000D+00 -2.0666175752733D-03 -1.7699571873707D-03
   231  2.3000000000000D+00 -1.7531675180583D-03 -1.4605276220587D-03
   232  2.3100000000000D+00 -1.4682859612017D-03 -1.1802081922750D-03
   233  2.3200000000000D+00 -1.2115806332685D-03 -9.2766950003797D-04
   234  2.3300000000000D+00 -9.8242245763736D-04 -7.0156899264358D-04
   235  2.3400000000000D+00 -7.7997152335840D-04 -5.0055256940780D-04
   236  2.3500000000000D+00 -6.0320248398808D-04 -3.2325650599222D-04
   237  2.3600000000000D+00 -4.5092951954857D-04 -1.6830960230171D-04
   238  2.3700000000000D+00 -3.2183003270158D-04 -3.4335909254335D-05
   239  2.3800000000000D+00 -2.1446782975136D-04  8.0042350358324D-05
   240  2.3900000000000D+00 -1.2731550282905D-04  1.7620156489517D-04
   241  2.4000000000000D+00 -5.8775565506440D-05  2.5551306202954D-04
   242  2.4100000000000D+00 -7.2009732171628D-06  3.1933928331483D-04
   243  2.4200000000000D+00  2.9085356645687D-05  3.6902967519116D-04
   244  2.4300000000000D+00  5.1772203840101D-05  4.0591626250274D-04
   245  2.4400000000000D+00  6.2542396819436D-05  4.3130911505057D-04
   246  2.4500000000000D+00  6.3056265701962D-05  4.4649159441288D-04
   247  2.4600000000000D+00  5.4936178553221D-05  4.5271542325006D-04
   248  2.4700000000000D+00  3.9751825098480D-05  4.5119569921915D-04
   249  2.4800000000000D+00  1.9006604298210D-05  4.4310579872371D-04
   250  2.4900000000000D+00 -5.8750033430380D-06  4.2957223346188D-04
   251  2.5000000000000D+00 -3.3559295990298D-05  4.1166951186104D-04
   252  2.5100000000000D+00 -6.2814168663614D-05  3.9041502518942D-04
   253  2.5200000000000D+00 -9.2519053711415D-05  3.6676400963557D-04
   254  2.5300000000000D+00 -1.2167403580462D-04  3.4160455132029D-04
   255  2.5400000000000D+00 -1.4940812592158D-04  3.1575279818305D-04
   256  2.5500000000000D+00 -1.7498671102835D-04  2.8994834092526D-04
   257  2.5600000000000D+00 -1.9781827636693D-04  2.6484972924791D-04
   258  2.5700000000000D+00 -2.1746028966777D-04  2.4103027955111D-04
   259  2.5800000000000D+00 -2.3393864772295D-04  2.1912599931006D-04
   260  2.5900000000000D+00 -2.4676469614897D-04  1.9935480102645D-04
   261  2.6000000000000D+00 -2.5547721646137D-04  1.8177320800332D-04
   262  2.6100000000000D+00 -2.5847879694499D-04  1.6564913927284D-04
   263  2.6200000000000D+00 -2.5825399776944D-04  1.5215175228624D-04
   264  2.6300000000000D+00 -2.5999121227988D-04  1.4364276119414D-04
   265  2.6400000000000D+00 -2.6919223814103D-04  1.4251099041228D-04
   266  2.6500000000000D+00 -2.8203096897720D-04  1.4610786685406D-04
   267  2.6600000000000D+00 -2.7801315632129D-04  1.4292439839316D-04
   268  2.6700000000000D+00 -2.4126396158754D-04  1.2388613215866D-04
   269  2.6800000000000D+00 -1.6176180409045D-04  8.3054010117895D-05
   270  2.6900000000000D+00 -7.3051905644600D-05  3.7536143271392D-05
   271  2.7000000000000D+00  1.1690106627706D-06 -5.9851948568476D-07
   272  2.7100000000000D+00  2.5556977685270D-05 -1.3082777361977D-05
   273  2.7200000000000D+00  2.2412394401251D-05 -1.1472537580288D-05
   274  2.7300000000000D+00  4.3156157972739D-06 -2.2091396446488D-06
   275  2.7400000000000D+00 -4.6928949384906D-06  2.3974223136178D-06
   276  2.7500000000000D+00 -5.8884293913022D-06  3.0074745689831D-06
   277  2.7600000000000D+00 -2.4896676994774D-06  1.2713298962694D-06
   278  2.7700000000000D+00  3.7998755157711D-07 -1.9516993474136D-07
   279  2.7800000000000D+00  7.2408732469855D-07 -3.7190711990939D-07
   280  2.7900000000000D+00  4.7729936461154D-07 -2.4515141471529D-07
   281  2.8000000000000D+00  0.0000000000000D+00  0.0000000000000D+00
   282  2.8100000000000D+00  0.0000000000000D+00  0.0000000000000D+00
   283  2.8200000000000D+00  0.0000000000000D+00  0.0000000000000D+00
   284  2.8300000000000D+00  0.0000000000000D+00  0.0000000000000D+00
   285  2.8400000000000D+00  0.0000000000000D+00  0.0000000000000D+00
   286  2.8500000000000D+00  0.0000000000000D+00  0.0000000000000D+00
   287  2.8600000000000D+00  0.0000000000000D+00  0.0000000000000D+00
   288  2.8700000000000D+00  0.0000000000000D+00  0.0000000000000D+00
   289  2.8800000000000D+00  0.0000000000000D+00  0.0000000000000D+00
   290  2.8900000000000D+00  0.0000000000000D+00  0.0000000000000D+00
   291  2.9000000000000D+00  0.0000000000000D+00  0.0000000000000D+00
   292  2.9100000000000D+00  0.0000000000000D+00  0.0000000000000D+00
   293  2.9200000000000D+00  0.0000000000000D+00  0.0000000000000D+00
   294  2.9300000000000D+00  0.0000000000000D+00  0.0000000000000D+00
   295  2.9400000000000D+00  0.0000000000000D+00  0.0000000000000D+00
   296  2.9500000000000D+00  0.0000000000000D+00  0.0000000000000D+00
   297  2.9600000000000D+00  0.0000000000000D+00  0.0000000000000D+00
   298  2.9700000000000D+00  0.0000000000000D+00  0.0000000000000D+00
   299  2.9800000000000D+00  0.0000000000000D+00  0.0000000000000D+00
   300  2.9900000000000D+00  0.0000000000000D+00  0.0000000000000D+00
   301  3.0000000000000D+00  0.0000000000000D+00  0.0000000000000D+00
   302  3.0100000000000D+00  0.0000000000000D+00  0.0000000000000D+00
   303  3.0200000000000D+00  0.0000000000000D+00  0.0000000000000D+00
   304  3.0300000000000D+00  0.0000000000000D+00  0.0000000000000D+00
   305  3.0400000000000D+00  0.0000000000000D+00  0.0000000000000D+00
   306  3.0500000000000D+00  0.0000000000000D+00  0.0000000000000D+00
   307  3.0600000000000D+00  0.0000000000000D+00  0.0000000000000D+00
   308  3.0700000000000D+00  0.0000000000000D+00  0.0000000000000D+00
   309  3.0800000000000D+00  0.0000000000000D+00  0.0000000000000D+00
   310  3.0900000000000D+00  0.0000000000000D+00  0.0000000000000D+00
   311  3.1000000000000D+00  0.0000000000000D+00  0.0000000000000D+00
   312  3.1100000000000D+00  0.0000000000000D+00  0.0000000000000D+00
   313  3.1200000000000D+00  0.0000000000000D+00  0.0000000000000D+00
   314  3.1300000000000D+00  0.0000000000000D+00  0.0000000000000D+00
   315  3.1400000000000D+00  0.0000000000000D+00  0.0000000000000D+00
   316  3.1500000000000D+00  0.0000000000000D+00  0.0000000000000D+00
   317  3.1600000000000D+00  0.0000000000000D+00  0.0000000000000D+00
   318  3.1700000000000D+00  0.0000000000000D+00  0.0000000000000D+00
   319  3.1800000000000D+00  0.0000000000000D+00  0.0000000000000D+00
   320  3.1900000000000D+00  0.0000000000000D+00  0.0000000000000D+00
   321  3.2000000000000D+00  0.0000000000000D+00  0.0000000000000D+00
   322  3.2100000000000D+00  0.0000000000000D+00  0.0000000000000D+00
   323  3.2200000000000D+00  0.0000000000000D+00  0.0000000000000D+00
   324  3.2300000000000D+00  0.0000000000000D+00  0.0000000000000D+00
   325  3.2400000000000D+00  0.0000000000000D+00  0.0000000000000D+00
   326  3.2500000000000D+00  0.0000000000000D+00  0.0000000000000D+00
   327  3.2600000000000D+00  0.0000000000000D+00  0.0000000000000D+00
   328  3.2700000000000D+00  0.0000000000000D+00  0.0000000000000D+00
   329  3.2800000000000D+00  0.0000000000000D+00  0.0000000000000D+00
   330  3.2900000000000D+00  0.0000000000000D+00  0.0000000000000D+00
   331  3.3000000000000D+00  0.0000000000000D+00  0.0000000000000D+00
   332  3.3100000000000D+00  0.0000000000000D+00  0.0000000000000D+00
   333  3.3200000000000D+00  0.0000000000000D+00  0.0000000000000D+00
   334  3.3300000000000D+00  0.0000000000000D+00  0.0000000000000D+00
   335  3.3400000000000D+00  0.0000000000000D+00  0.0000000000000D+00
   336  3.3500000000000D+00  0.0000000000000D+00  0.0000000000000D+00
   337  3.3600000000000D+00  0.0000000000000D+00  0.0000000000000D+00
   338  3.3700000000000D+00  0.0000000000000D+00  0.0000000000000D+00
   339  3.3800000000000D+00  0.0000000000000D+00  0.0000000000000D+00
   340  3.3900000000000D+00  0.0000000000000D+00  0.0000000000000D+00
   341  3.4000000000000D+00  0.0000000000000D+00  0.0000000000000D+00
   342  3.4100000000000D+00  0.0000000000000D+00  0.0000000000000D+00
   343  3.4200000000000D+00  0.0000000000000D+00  0.0000000000000D+00
   344  3.4300000000000D+00  0.0000000000000D+00  0.0000000000000D+00
   345  3.4400000000000D+00  0.0000000000000D+00  0.0000000000000D+00
   346  3.4500000000000D+00  0.0000000000000D+00  0.0000000000000D+00
   347  3.4600000000000D+00  0.0000000000000D+00  0.0000000000000D+00
   348  3.4700000000000D+00  0.0000000000000D+00  0.0000000000000D+00
   349  3.4800000000000D+00  0.0000000000000D+00  0.0000000000000D+00
   350  3.4900000000000D+00  0.0000000000000D+00  0.0000000000000D+00
   351  3.5000000000000D+00  0.0000000000000D+00  0.0000000000000D+00
   352  3.5100000000000D+00  0.0000000000000D+00  0.0000000000000D+00
   353  3.5200000000000D+00  0.0000000000000D+00  0.0000000000000D+00
   354  3.5300000000000D+00  0.0000000000000D+00  0.0000000000000D+00
   355  3.5400000000000D+00  0.0000000000000D+00  0.0000000000000D+00
   356  3.5500000000000D+00  0.0000000000000D+00  0.0000000000000D+00
   357  3.5600000000000D+00  0.0000000000000D+00  0.0000000000000D+00
   358  3.5700000000000D+00  0.0000000000000D+00  0.0000000000000D+00
   359  3.5800000000000D+00  0.0000000000000D+00  0.0000000000000D+00
   360  3.5900000000000D+00  0.0000000000000D+00  0.0000000000000D+00
   361  3.6000000000000D+00  0.0000000000000D+00  0.0000000000000D+00
   362  3.6100000000000D+00  0.0000000000000D+00  0.0000000000000D+00
   363  3.6200000000000D+00  0.0000000000000D+00  0.0000000000000D+00
   364  3.6300000000000D+00  0.0000000000000D+00  0.0000000000000D+00
   365  3.6400000000000D+00  0.0000000000000D+00  0.0000000000000D+00
   366  3.6500000000000D+00  0.0000000000000D+00  0.0000000000000D+00
   367  3.6600000000000D+00  0.0000000000000D+00  0.0000000000000D+00
   368  3.6700000000000D+00  0.0000000000000D+00  0.0000000000000D+00
   369  3.6800000000000D+00  0.0000000000000D+00  0.0000000000000D+00
   370  3.6900000000000D+00  0.0000000000000D+00  0.0000000000000D+00
   371  3.7000000000000D+00  0.0000000000000D+00  0.0000000000000D+00
   372  3.7100000000000D+00  0.0000000000000D+00  0.0000000000000D+00
   373  3.7200000000000D+00  0.0000000000000D+00  0.0000000000000D+00
   374  3.7300000000000D+00  0.0000000000000D+00  0.0000000000000D+00
   375  3.7400000000000D+00  0.0000000000000D+00  0.0000000000000D+00
   376  3.7500000000000D+00  0.0000000000000D+00  0.0000000000000D+00
   377  3.7600000000000D+00  0.0000000000000D+00  0.0000000000000D+00
   378  3.7700000000000D+00  0.0000000000000D+00  0.0000000000000D+00
   379  3.7800000000000D+00  0.0000000000000D+00  0.0000000000000D+00
   380  3.7900000000000D+00  0.0000000000000D+00  0.0000000000000D+00
   381  3.8000000000000D+00  0.0000000000000D+00  0.0000000000000D+00
   382  3.8100000000000D+00  0.0000000000000D+00  0.0000000000000D+00
   383  3.8200000000000D+00  0.0000000000000D+00  0.0000000000000D+00
   384  3.8300000000000D+00  0.0000000000000D+00  0.0000000000000D+00
   385  3.8400000000000D+00  0.0000000000000D+00  0.0000000000000D+00
   386  3.8500000000000D+00  0.0000000000000D+00  0.0000000000000D+00
   387  3.8600000000000D+00  0.0000000000000D+00  0.0000000000000D+00
   388  3.8700000000000D+00  0.0000000000000D+00  0.0000000000000D+00
   389  3.8800000000000D+00  0.0000000000000D+00  0.0000000000000D+00
   390  3.8900000000000D+00  0.0000000000000D+00  0.0000000000000D+00
   391  3.9000000000000D+00  0.0000000000000D+00  0.0000000000000D+00
   392  3.9100000000000D+00  0.0000000000000D+00  0.0000000000000D+00
   393  3.9200000000000D+00  0.0000000000000D+00  0.0000000000000D+00
   394  3.9300000000000D+00  0.0000000000000D+00  0.0000000000000D+00
   395  3.9400000000000D+00  0.0000000000000D+00  0.0000000000000D+00
   396  3.9500000000000D+00  0.0000000000000D+00  0.0000000000000D+00
   397  3.9600000000000D+00  0.0000000000000D+00  0.0000000000000D+00
   398  3.9700000000000D+00  0.0000000000000D+00  0.0000000000000D+00
   399  3.9800000000000D+00  0.0000000000000D+00  0.0000000000000D+00
   400  3.9900000000000D+00  0.0000000000000D+00  0.0000000000000D+00
   401  4.0000000000000D+00  0.0000000000000D+00  0.0000000000000D+00
   402  4.0100000000000D+00  0.0000000000000D+00  0.0000000000000D+00
   403  4.0200000000000D+00  0.0000000000000D+00  0.0000000000000D+00
   404  4.0300000000000D+00  0.0000000000000D+00  0.0000000000000D+00
   405  4.0400000000000D+00  0.0000000000000D+00  0.0000000000000D+00
   406  4.0500000000000D+00  0.0000000000000D+00  0.0000000000000D+00
   407  4.0600000000000D+00  0.0000000000000D+00  0.0000000000000D+00
   408  4.0700000000000D+00  0.0000000000000D+00  0.0000000000000D+00
   409  4.0800000000000D+00  0.0000000000000D+00  0.0000000000000D+00
   410  4.0900000000000D+00  0.0000000000000D+00  0.0000000000000D+00
   411  4.1000000000000D+00  0.0000000000000D+00  0.0000000000000D+00
   412  4.1100000000000D+00  0.0000000000000D+00  0.0000000000000D+00
   413  4.1200000000000D+00  0.0000000000000D+00  0.0000000000000D+00
   414  4.1300000000000D+00  0.0000000000000D+00  0.0000000000000D+00
   415  4.1400000000000D+00  0.0000000000000D+00  0.0000000000000D+00
   416  4.1500000000000D+00  0.0000000000000D+00  0.0000000000000D+00
   417  4.1600000000000D+00  0.0000000000000D+00  0.0000000000000D+00
   418  4.1700000000000D+00  0.0000000000000D+00  0.0000000000000D+00
   419  4.1800000000000D+00  0.0000000000000D+00  0.0000000000000D+00
   420  4.1900000000000D+00  0.0000000000000D+00  0.0000000000000D+00
   421  4.2000000000000D+00  0.0000000000000D+00  0.0000000000000D+00
   422  4.2100000000000D+00  0.0000000000000D+00  0.0000000000000D+00