H     ONCVPSP-3.3.1  r_core=   1.15113
      1.0000      1.0000      210905    zatom,zion,pspd
     8 -116133   0     4   600     0    pspcod,pspxc,lmax,lloc,mmax,r2well
  5.99000000  0.00000000  0.00000000    rchrg fchrg qchrg
     2     0     0     0    nproj
     3     1           extension_switch
     0     0     0    nprojso
   0                        -1.2601959910535D+00 -4.1030374289606D-01
     1  0.0000000000000D+00  4.6123485919480D-08 -3.4295404960361D-08
     2  1.0000000000000D-02  3.0188148194546D-02  1.2099876074455D-02
     3  2.0000000000000D-02  6.1485603592538D-02  2.3819818848489D-02
     4  3.0000000000000D-02  9.4972220836227D-02  3.4795742302145D-02
     5  4.0000000000000D-02  1.3166956458114D-01  4.4694844218669D-02
     6  5.0000000000000D-02  1.7251329024230D-01  5.3230230213428D-02
     7  6.0000000000000D-02  2.1832732197915D-01  6.0174341394795D-02
     8  7.0000000000000D-02  2.6980037160299D-01  6.5370828126747D-02
     9  8.0000000000000D-02  3.2746529596711D-01  6.8744546658321D-02
    10  9.0000000000000D-02  3.9168173441529D-01  7.0309396941136D-02
    11  1.0000000000000D-01  4.6262240308729D-01  7.0173767933030D-02
    12  1.1000000000000D-01  5.4026335055276D-01  6.8543410109841D-02
    13  1.2000000000000D-01  6.2437840075383D-01  6.5721612692229D-02
    14  1.3000000000000D-01  7.1453792609560D-01  6.2106624057504D-02
    15  1.4000000000000D-01  8.1011200733902D-01  5.8186316695311D-02
    16  1.5000000000000D-01  9.1027794939437D-01  5.4530161580544D-02
    17  1.6000000000000D-01  1.0140320348917D+00  5.1778639656250D-02
    18  1.7000000000000D-01  1.1202053122248D+00  5.0630278925344D-02
    19  1.8000000000000D-01  1.2274831332995D+00  5.1826563160656D-02
    20  1.9000000000000D-01  1.3344280800765D+00  5.6135011229632D-02
    21  2.0000000000000D-01  1.4395058496896D+00  6.4330773352536D-02
    22  2.1000000000000D-01  1.5411136068298D+00  7.7177131237976D-02
    23  2.2000000000000D-01  1.6376102604233D+00  9.5405322069009D-02
    24  2.3000000000000D-01  1.7273480804498D+00  1.1969413099675D-01
    25  2.4000000000000D-01  1.8087050408553D+00  1.5064971256504D-01
    26  2.5000000000000D-01  1.8801172565236D+00  1.8878610794997D-01
    27  2.6000000000000D-01  1.9401108765247D+00  2.3450692185773D-01
    28  2.7000000000000D-01  1.9873328024637D+00  2.8808861040640D-01
    29  2.8000000000000D-01  2.0205796195376D+00  3.4966580953481D-01
    30  2.9000000000000D-01  2.0388241584567D+00  4.1921910287622D-01
    31  3.0000000000000D-01  2.0412391480112D+00  4.9656558922971D-01
    32  3.1000000000000D-01  2.0272174698479D+00  5.8135256358634D-01
    33  3.2000000000000D-01  1.9963885878055D+00  6.7305457311649D-01
    34  3.3000000000000D-01  1.9486307925882D+00  7.7097405175654D-01
    35  3.4000000000000D-01  1.8840789770944D+00  8.7424567533280D-01
    36  3.5000000000000D-01  1.8031277366767D+00  9.8184451492603D-01
    37  3.6000000000000D-01  1.7064296701961D+00  1.0925980008776D+00
    38  3.7000000000000D-01  1.5948888400721D+00  1.2052016449829D+00
    39  3.8000000000000D-01  1.4696494307286D+00  1.3182384055334D+00
    40  3.9000000000000D-01  1.3320797229974D+00  1.4302015204415D+00
    41  4.0000000000000D-01  1.1837515753302D+00  1.5395205791616D+00
    42  4.1000000000000D-01  1.0264156693574D+00  1.6445905558224D+00
    43  4.2000000000000D-01  8.6197283581465D-01  1.7438034851301D+00
    44  4.3000000000000D-01  6.9244182571387D-01  1.8355824302261D+00
    45  4.4000000000000D-01  5.1992392967372D-01  1.9184173686429D+00
    46  4.5000000000000D-01  3.4656487456622D-01  1.9909026094388D+00
    47  4.6000000000000D-01  1.7451444040995D-01  2.0517753519204D+00
    48  4.7000000000000D-01  5.8842413367975D-03  2.0999550042429D+00
    49  4.8000000000000D-01 -1.5729589813637D-01  2.1345829007560D+00
    50  4.9000000000000D-01 -3.1312254589597D-01  2.1550620022978D+00
    51  5.0000000000000D-01 -4.5986360256837D-01  2.1610951307548D+00
    52  5.1000000000000D-01 -5.9598779126761D-01  2.1526606877680D+00
    53  5.2000000000000D-01 -7.2016536467160D-01  2.1299043535405D+00
    54  5.3000000000000D-01 -8.3127828990930D-01  2.0931158309115D+00
    55  5.4000000000000D-01 -9.2843243778744D-01  2.0427318882539D+00
    56  5.5000000000000D-01 -1.0109657572307D+00  1.9793364670656D+00
    57  5.6000000000000D-01 -1.0784523222094D+00  1.9036577558248D+00
    58  5.7000000000000D-01 -1.1307022326690D+00  1.8165622611017D+00
    59  5.8000000000000D-01 -1.1677574351710D+00  1.7190459828211D+00
    60  5.9000000000000D-01 -1.1898836087333D+00  1.6122228619034D+00
    61  6.0000000000000D-01 -1.1975583371422D+00  1.4973107274478D+00
    62  6.1000000000000D-01 -1.1914558600738D+00  1.3756150250486D+00
    63  6.2000000000000D-01 -1.1724287588588D+00  1.2485106552723D+00
    64  6.3000000000000D-01 -1.1414869887615D+00  1.1174222920386D+00
    65  6.4000000000000D-01 -1.0997747158735D+00  9.8380358261446D-01
    66  6.5000000000000D-01 -1.0485454531017D+00  8.4911565433478D-01
    67  6.6000000000000D-01 -9.8913601521635D-01  7.1480536703323D-01
    68  6.7000000000000D-01 -9.2293982702694D-01  5.8228375430566D-01
    69  6.8000000000000D-01 -8.5138012162190D-01  4.5290509139064D-01
    70  6.9000000000000D-01 -7.7588355691568D-01  3.2794701227691D-01
    71  7.0000000000000D-01 -6.9785475907294D-01  2.0859207443577D-01
    72  7.1000000000000D-01 -6.1865227129462D-01  9.5911136850381D-02
    73  7.2000000000000D-01 -5.3956634658730D-01 -9.1511236953978D-03
    74  7.3000000000000D-01 -4.6179897448239D-01 -1.0578828070521D-01
    75  7.4000000000000D-01 -3.8644647568612D-01 -1.9334158629981D-01
    76  7.5000000000000D-01 -3.1448493630593D-01 -2.7130659361573D-01
    77  7.6000000000000D-01 -2.4675868613907D-01 -3.3933686839464D-01
    78  7.7000000000000D-01 -1.8397195553257D-01 -3.9724474766877D-01
    79  7.8000000000000D-01 -1.2668377316068D-01 -4.4499916731760D-01
    80  7.9000000000000D-01 -7.5306095370246D-02 -4.8272064268528D-01
    81  8.0000000000000D-01 -3.0105087521159D-02 -5.1067354670378D-01
    82  8.1000000000000D-01  8.7945893508950D-03 -5.2925588656289D-01
    83  8.2000000000000D-01  4.1402695667822D-02 -5.3898683161461D-01
    84  8.3000000000000D-01  6.7853799811774D-02 -5.4049229074466D-01
    85  8.4000000000000D-01  8.8395448947665D-02 -5.3448887605522D-01
    86  8.5000000000000D-01  1.0337448026423D-01 -5.2176662035651D-01
    87  8.6000000000000D-01  1.1322186094592D-01 -5.0317083817793D-01
    88  8.7000000000000D-01  1.1843646782517D-01 -4.7958353328171D-01
    89  8.8000000000000D-01  1.1956823030715D-01 -4.5190475969560D-01
    90  8.9000000000000D-01  1.1720106277273D-01 -4.2103433819074D-01
    91  9.0000000000000D-01  1.1193600523160D-01 -3.8785431595004D-01
    92  9.1000000000000D-01  1.0437497390195D-01 -3.5321253436939D-01
    93  9.2000000000000D-01  9.5105497162062D-02 -3.1790763906770D-01
    94  9.3000000000000D-01  8.4686777697806D-02 -2.8267582800669D-01
    95  9.4000000000000D-01  7.3637379631317D-02 -2.4817958910560D-01
    96  9.5000000000000D-01  6.2424791097999D-02 -2.1499862896065D-01
    97  9.6000000000000D-01  5.1457058588293D-02 -1.8362313968397D-01
    98  9.7000000000000D-01  4.1076633634521D-02 -1.5444949554104D-01
    99  9.8000000000000D-01  3.1556511033570D-02 -1.2777841095041D-01
   100  9.9000000000000D-01  2.3098678441832D-02 -1.0381553400816D-01
   101  1.0000000000000D+00  1.5834837021292D-02 -8.2674392093074D-02
   102  1.0100000000000D+00  9.8292950061055D-03 -6.4381551337057D-02
   103  1.0200000000000D+00  5.0838818278866D-03 -4.8883800890559D-02
   104  1.0300000000000D+00  1.5446799273150D-03 -3.6057126132382D-02
   105  1.0400000000000D+00 -8.8967014211140D-04 -2.5717196973555D-02
   106  1.0500000000000D+00 -2.3583754594733D-03 -1.7631061692602D-02
   107  1.0600000000000D+00 -3.0279188024615D-03 -1.1529712951187D-02
   108  1.0700000000000D+00 -3.0808417415640D-03 -7.1211749224963D-03
   109  1.0800000000000D+00 -2.7042270297015D-03 -4.1037522708541D-03
   110  1.0900000000000D+00 -2.0782275293825D-03 -2.1790815220011D-03
   111  1.1000000000000D+00 -1.3649837021669D-03 -1.0646333994148D-03
   112  1.1100000000000D+00 -6.9825524902242D-04 -5.0533336508757D-04
   113  1.1200000000000D+00 -1.7342327926709D-04 -2.8441328933990D-04
   114  1.1300000000000D+00  1.5197937068327D-04 -2.2653285615260D-04
   115  1.1400000000000D+00  3.0927880938049D-04 -2.3614200340656D-04
   116  1.1500000000000D+00  3.1750123381112D-04 -2.2747573270480D-04
   117  1.1600000000000D+00  1.0338301643331D-04 -7.4834404078969D-05
   118  1.1700000000000D+00 -3.1662590048246D-05  2.2697049429235D-05
   119  1.1800000000000D+00  2.1754544815829D-06 -1.5384125511292D-06
   120  1.1900000000000D+00  4.2344412947422D-06 -2.9901279070019D-06
   121  1.2000000000000D+00 -8.6325048916105D-07  6.1930090027046D-07
   122  1.2100000000000D+00  0.0000000000000D+00  0.0000000000000D+00
   123  1.2200000000000D+00  0.0000000000000D+00  0.0000000000000D+00
   124  1.2300000000000D+00  0.0000000000000D+00  0.0000000000000D+00
   125  1.2400000000000D+00  0.0000000000000D+00  0.0000000000000D+00
   126  1.2500000000000D+00  0.0000000000000D+00  0.0000000000000D+00
   127  1.2600000000000D+00  0.0000000000000D+00  0.0000000000000D+00
   128  1.2700000000000D+00  0.0000000000000D+00  0.0000000000000D+00
   129  1.2800000000000D+00  0.0000000000000D+00  0.0000000000000D+00
   130  1.2900000000000D+00  0.0000000000000D+00  0.0000000000000D+00
   131  1.3000000000000D+00  0.0000000000000D+00  0.0000000000000D+00
   132  1.3100000000000D+00  0.0000000000000D+00  0.0000000000000D+00
   133  1.3200000000000D+00  0.0000000000000D+00  0.0000000000000D+00
   134  1.3300000000000D+00  0.0000000000000D+00  0.0000000000000D+00
   135  1.3400000000000D+00  0.0000000000000D+00  0.0000000000000D+00
   136  1.3500000000000D+00  0.0000000000000D+00  0.0000000000000D+00
   137  1.3600000000000D+00  0.0000000000000D+00  0.0000000000000D+00
   138  1.3700000000000D+00  0.0000000000000D+00  0.0000000000000D+00
   139  1.3800000000000D+00  0.0000000000000D+00  0.0000000000000D+00
   140  1.3900000000000D+00  0.0000000000000D+00  0.0000000000000D+00
   141  1.4000000000000D+00  0.0000000000000D+00  0.0000000000000D+00
   142  1.4100000000000D+00  0.0000000000000D+00  0.0000000000000D+00
   143  1.4200000000000D+00  0.0000000000000D+00  0.0000000000000D+00
   144  1.4300000000000D+00  0.0000000000000D+00  0.0000000000000D+00
   145  1.4400000000000D+00  0.0000000000000D+00  0.0000000000000D+00
   146  1.4500000000000D+00  0.0000000000000D+00  0.0000000000000D+00
   147  1.4600000000000D+00  0.0000000000000D+00  0.0000000000000D+00
   148  1.4700000000000D+00  0.0000000000000D+00  0.0000000000000D+00
   149  1.4800000000000D+00  0.0000000000000D+00  0.0000000000000D+00
   150  1.4900000000000D+00  0.0000000000000D+00  0.0000000000000D+00
   151  1.5000000000000D+00  0.0000000000000D+00  0.0000000000000D+00
   152  1.5100000000000D+00  0.0000000000000D+00  0.0000000000000D+00
   153  1.5200000000000D+00  0.0000000000000D+00  0.0000000000000D+00
   154  1.5300000000000D+00  0.0000000000000D+00  0.0000000000000D+00
   155  1.5400000000000D+00  0.0000000000000D+00  0.0000000000000D+00
   156  1.5500000000000D+00  0.0000000000000D+00  0.0000000000000D+00
   157  1.5600000000000D+00  0.0000000000000D+00  0.0000000000000D+00
   158  1.5700000000000D+00  0.0000000000000D+00  0.0000000000000D+00
   159  1.5800000000000D+00  0.0000000000000D+00  0.0000000000000D+00
   160  1.5900000000000D+00  0.0000000000000D+00  0.0000000000000D+00
   161  1.6000000000000D+00  0.0000000000000D+00  0.0000000000000D+00
   162  1.6100000000000D+00  0.0000000000000D+00  0.0000000000000D+00
   163  1.6200000000000D+00  0.0000000000000D+00  0.0000000000000D+00
   164  1.6300000000000D+00  0.0000000000000D+00  0.0000000000000D+00
   165  1.6400000000000D+00  0.0000000000000D+00  0.0000000000000D+00
   166  1.6500000000000D+00  0.0000000000000D+00  0.0000000000000D+00
   167  1.6600000000000D+00  0.0000000000000D+00  0.0000000000000D+00
   168  1.6700000000000D+00  0.0000000000000D+00  0.0000000000000D+00
   169  1.6800000000000D+00  0.0000000000000D+00  0.0000000000000D+00
   170  1.6900000000000D+00  0.0000000000000D+00  0.0000000000000D+00
   171  1.7000000000000D+00  0.0000000000000D+00  0.0000000000000D+00
   172  1.7100000000000D+00  0.0000000000000D+00  0.0000000000000D+00
   173  1.7200000000000D+00  0.0000000000000D+00  0.0000000000000D+00
   174  1.7300000000000D+00  0.0000000000000D+00  0.0000000000000D+00
   175  1.7400000000000D+00  0.0000000000000D+00  0.0000000000000D+00
   176  1.7500000000000D+00  0.0000000000000D+00  0.0000000000000D+00
   177  1.7600000000000D+00  0.0000000000000D+00  0.0000000000000D+00
   178  1.7700000000000D+00  0.0000000000000D+00  0.0000000000000D+00
   179  1.7800000000000D+00  0.0000000000000D+00  0.0000000000000D+00
   180  1.7900000000000D+00  0.0000000000000D+00  0.0000000000000D+00
   181  1.8000000000000D+00  0.0000000000000D+00  0.0000000000000D+00
   182  1.8100000000000D+00  0.0000000000000D+00  0.0000000000000D+00
   183  1.8200000000000D+00  0.0000000000000D+00  0.0000000000000D+00
   184  1.8300000000000D+00  0.0000000000000D+00  0.0000000000000D+00
   185  1.8400000000000D+00  0.0000000000000D+00  0.0000000000000D+00
   186  1.8500000000000D+00  0.0000000000000D+00  0.0000000000000D+00
   187  1.8600000000000D+00  0.0000000000000D+00  0.0000000000000D+00
   188  1.8700000000000D+00  0.0000000000000D+00  0.0000000000000D+00
   189  1.8800000000000D+00  0.0000000000000D+00  0.0000000000000D+00
   190  1.8900000000000D+00  0.0000000000000D+00  0.0000000000000D+00
   191  1.9000000000000D+00  0.0000000000000D+00  0.0000000000000D+00
   192  1.9100000000000D+00  0.0000000000000D+00  0.0000000000000D+00
   193  1.9200000000000D+00  0.0000000000000D+00  0.0000000000000D+00
   194  1.9300000000000D+00  0.0000000000000D+00  0.0000000000000D+00
   195  1.9400000000000D+00  0.0000000000000D+00  0.0000000000000D+00
   196  1.9500000000000D+00  0.0000000000000D+00  0.0000000000000D+00
   197  1.9600000000000D+00  0.0000000000000D+00  0.0000000000000D+00
   198  1.9700000000000D+00  0.0000000000000D+00  0.0000000000000D+00
   199  1.9800000000000D+00  0.0000000000000D+00  0.0000000000000D+00
   200  1.9900000000000D+00  0.0000000000000D+00  0.0000000000000D+00
   201  2.0000000000000D+00  0.0000000000000D+00  0.0000000000000D+00
   202  2.0100000000000D+00  0.0000000000000D+00  0.0000000000000D+00
   203  2.0200000000000D+00  0.0000000000000D+00  0.0000000000000D+00
   204  2.0300000000000D+00  0.0000000000000D+00  0.0000000000000D+00
   205  2.0400000000000D+00  0.0000000000000D+00  0.0000000000000D+00
   206  2.0500000000000D+00  0.0000000000000D+00  0.0000000000000D+00
   207  2.0600000000000D+00  0.0000000000000D+00  0.0000000000000D+00
   208  2.0700000000000D+00  0.0000000000000D+00  0.0000000000000D+00
   209  2.0800000000000D+00  0.0000000000000D+00  0.0000000000000D+00
   210  2.0900000000000D+00  0.0000000000000D+00  0.0000000000000D+00
   211  2.1000000000000D+00  0.0000000000000D+00  0.0000000000000D+00
   212  2.1100000000000D+00  0.0000000000000D+00  0.0000000000000D+00
   213  2.1200000000000D+00  0.0000000000000D+00  0.0000000000000D+00
   214  2.1300000000000D+00  0.0000000000000D+00  0.0000000000000D+00
   215  2.1400000000000D+00  0.0000000000000D+00  0.0000000000000D+00
   216  2.1500000000000D+00  0.0000000000000D+00  0.0000000000000D+00
   217  2.1600000000000D+00  0.0000000000000D+00  0.0000000000000D+00
   218  2.1700000000000D+00  0.0000000000000D+00  0.0000000000000D+00
   219  2.1800000000000D+00  0.0000000000000D+00  0.0000000000000D+00
   220  2.1900000000000D+00  0.0000000000000D+00  0.0000000000000D+00
   221  2.2000000000000D+00  0.0000000000000D+00  0.0000000000000D+00
   222  2.2100000000000D+00  0.0000000000000D+00  0.0000000000000D+00
   223  2.2200000000000D+00  0.0000000000000D+00  0.0000000000000D+00
   224  2.2300000000000D+00  0.0000000000000D+00  0.0000000000000D+00
   225  2.2400000000000D+00  0.0000000000000D+00  0.0000000000000D+00
   226  2.2500000000000D+00  0.0000000000000D+00  0.0000000000000D+00
   227  2.2600000000000D+00  0.0000000000000D+00  0.0000000000000D+00
   228  2.2700000000000D+00  0.0000000000000D+00  0.0000000000000D+00
   229  2.2800000000000D+00  0.0000000000000D+00  0.0000000000000D+00
   230  2.2900000000000D+00  0.0000000000000D+00  0.0000000000000D+00
   231  2.3000000000000D+00  0.0000000000000D+00  0.0000000000000D+00
   232  2.3100000000000D+00  0.0000000000000D+00  0.0000000000000D+00
   233  2.3200000000000D+00  0.0000000000000D+00  0.0000000000000D+00
   234  2.3300000000000D+00  0.0000000000000D+00  0.0000000000000D+00
   235  2.3400000000000D+00  0.0000000000000D+00  0.0000000000000D+00
   236  2.3500000000000D+00  0.0000000000000D+00  0.0000000000000D+00
   237  2.3600000000000D+00  0.0000000000000D+00  0.0000000000000D+00
   238  2.3700000000000D+00  0.0000000000000D+00  0.0000000000000D+00
   239  2.3800000000000D+00  0.0000000000000D+00  0.0000000000000D+00
   240  2.3900000000000D+00  0.0000000000000D+00  0.0000000000000D+00
   241  2.4000000000000D+00  0.0000000000000D+00  0.0000000000000D+00
   242  2.4100000000000D+00  0.0000000000000D+00  0.0000000000000D+00
   243  2.4200000000000D+00  0.0000000000000D+00  0.0000000000000D+00
   244  2.4300000000000D+00  0.0000000000000D+00  0.0000000000000D+00
   245  2.4400000000000D+00  0.0000000000000D+00  0.0000000000000D+00
   246  2.4500000000000D+00  0.0000000000000D+00  0.0000000000000D+00
   247  2.4600000000000D+00  0.0000000000000D+00  0.0000000000000D+00
   248  2.4700000000000D+00  0.0000000000000D+00  0.0000000000000D+00
   249  2.4800000000000D+00  0.0000000000000D+00  0.0000000000000D+00
   250  2.4900000000000D+00  0.0000000000000D+00  0.0000000000000D+00
   251  2.5000000000000D+00  0.0000000000000D+00  0.0000000000000D+00
   252  2.5100000000000D+00  0.0000000000000D+00  0.0000000000000D+00
   253  2.5200000000000D+00  0.0000000000000D+00  0.0000000000000D+00
   254  2.5300000000000D+00  0.0000000000000D+00  0.0000000000000D+00
   255  2.5400000000000D+00  0.0000000000000D+00  0.0000000000000D+00
   256  2.5500000000000D+00  0.0000000000000D+00  0.0000000000000D+00
   257  2.5600000000000D+00  0.0000000000000D+00  0.0000000000000D+00
   258  2.5700000000000D+00  0.0000000000000D+00  0.0000000000000D+00
   259  2.5800000000000D+00  0.0000000000000D+00  0.0000000000000D+00
   260  2.5900000000000D+00  0.0000000000000D+00  0.0000000000000D+00
   261  2.6000000000000D+00  0.0000000000000D+00  0.0000000000000D+00
   262  2.6100000000000D+00  0.0000000000000D+00  0.0000000000000D+00
   263  2.6200000000000D+00  0.0000000000000D+00  0.0000000000000D+00
   264  2.6300000000000D+00  0.0000000000000D+00  0.0000000000000D+00
   265  2.6400000000000D+00  0.0000000000000D+00  0.0000000000000D+00
   266  2.6500000000000D+00  0.0000000000000D+00  0.0000000000000D+00
   267  2.6600000000000D+00  0.0000000000000D+00  0.0000000000000D+00
   268  2.6700000000000D+00  0.0000000000000D+00  0.0000000000000D+00
   269  2.6800000000000D+00  0.0000000000000D+00  0.0000000000000D+00
   270  2.6900000000000D+00  0.0000000000000D+00  0.0000000000000D+00
   271  2.7000000000000D+00  0.0000000000000D+00  0.0000000000000D+00
   272  2.7100000000000D+00  0.0000000000000D+00  0.0000000000000D+00
   273  2.7200000000000D+00  0.0000000000000D+00  0.0000000000000D+00
   274  2.7300000000000D+00  0.0000000000000D+00  0.0000000000000D+00
   275  2.7400000000000D+00  0.0000000000000D+00  0.0000000000000D+00
   276  2.7500000000000D+00  0.0000000000000D+00  0.0000000000000D+00
   277  2.7600000000000D+00  0.0000000000000D+00  0.0000000000000D+00
   278  2.7700000000000D+00  0.0000000000000D+00  0.0000000000000D+00
   279  2.7800000000000D+00  0.0000000000000D+00  0.0000000000000D+00
   280  2.7900000000000D+00  0.0000000000000D+00  0.0000000000000D+00
   281  2.8000000000000D+00  0.0000000000000D+00  0.0000000000000D+00
   282  2.8100000000000D+00  0.0000000000000D+00  0.0000000000000D+00
   283  2.8200000000000D+00  0.0000000000000D+00  0.0000000000000D+00
   284  2.8300000000000D+00  0.0000000000000D+00  0.0000000000000D+00
   285  2.8400000000000D+00  0.0000000000000D+00  0.0000000000000D+00
   286  2.8500000000000D+00  0.0000000000000D+00  0.0000000000000D+00
   287  2.8600000000000D+00  0.0000000000000D+00  0.0000000000000D+00
   288  2.8700000000000D+00  0.0000000000000D+00  0.0000000000000D+00
   289  2.8800000000000D+00  0.0000000000000D+00  0.0000000000000D+00
   290  2.8900000000000D+00  0.0000000000000D+00  0.0000000000000D+00
   291  2.9000000000000D+00  0.0000000000000D+00  0.0000000000000D+00
   292  2.9100000000000D+00  0.0000000000000D+00  0.0000000000000D+00
   293  2.9200000000000D+00  0.0000000000000D+00  0.0000000000000D+00
   294  2.9300000000000D+00  0.0000000000000D+00  0.0000000000000D+00
   295  2.9400000000000D+00  0.0000000000000D+00  0.0000000000000D+00
   296  2.9500000000000D+00  0.0000000000000D+00  0.0000000000000D+00
   297  2.9600000000000D+00  0.0000000000000D+00  0.0000000000000D+00
   298  2.9700000000000D+00  0.0000000000000D+00  0.0000000000000D+00
   299  2.9800000000000D+00  0.0000000000000D+00  0.0000000000000D+00
   300  2.9900000000000D+00  0.0000000000000D+00  0.0000000000000D+00
   301  3.0000000000000D+00  0.0000000000000D+00  0.0000000000000D+00
   302  3.0100000000000D+00  0.0000000000000D+00  0.0000000000000D+00
   303  3.0200000000000D+00  0.0000000000000D+00  0.0000000000000D+00
   304  3.0300000000000D+00  0.0000000000000D+00  0.0000000000000D+00
   305  3.0400000000000D+00  0.0000000000000D+00  0.0000000000000D+00
   306  3.0500000000000D+00  0.0000000000000D+00  0.0000000000000D+00
   307  3.0600000000000D+00  0.0000000000000D+00  0.0000000000000D+00
   308  3.0700000000000D+00  0.0000000000000D+00  0.0000000000000D+00
   309  3.0800000000000D+00  0.0000000000000D+00  0.0000000000000D+00
   310  3.0900000000000D+00  0.0000000000000D+00  0.0000000000000D+00
   311  3.1000000000000D+00  0.0000000000000D+00  0.0000000000000D+00
   312  3.1100000000000D+00  0.0000000000000D+00  0.0000000000000D+00
   313  3.1200000000000D+00  0.0000000000000D+00  0.0000000000000D+00
   314  3.1300000000000D+00  0.0000000000000D+00  0.0000000000000D+00
   315  3.1400000000000D+00  0.0000000000000D+00  0.0000000000000D+00
   316  3.1500000000000D+00  0.0000000000000D+00  0.0000000000000D+00
   317  3.1600000000000D+00  0.0000000000000D+00  0.0000000000000D+00
   318  3.1700000000000D+00  0.0000000000000D+00  0.0000000000000D+00
   319  3.1800000000000D+00  0.0000000000000D+00  0.0000000000000D+00
   320  3.1900000000000D+00  0.0000000000000D+00  0.0000000000000D+00
   321  3.2000000000000D+00  0.0000000000000D+00  0.0000000000000D+00
   322  3.2100000000000D+00  0.0000000000000D+00  0.0000000000000D+00
   323  3.2200000000000D+00  0.0000000000000D+00  0.0000000000000D+00
   324  3.2300000000000D+00  0.0000000000000D+00  0.0000000000000D+00
   325  3.2400000000000D+00  0.0000000000000D+00  0.0000000000000D+00
   326  3.2500000000000D+00  0.0000000000000D+00  0.0000000000000D+00
   327  3.2600000000000D+00  0.0000000000000D+00  0.0000000000000D+00
   328  3.2700000000000D+00  0.0000000000000D+00  0.0000000000000D+00
   329  3.2800000000000D+00  0.0000000000000D+00  0.0000000000000D+00
   330  3.2900000000000D+00  0.0000000000000D+00  0.0000000000000D+00
   331  3.3000000000000D+00  0.0000000000000D+00  0.0000000000000D+00
   332  3.3100000000000D+00  0.0000000000000D+00  0.0000000000000D+00
   333  3.3200000000000D+00  0.0000000000000D+00  0.0000000000000D+00
   334  3.3300000000000D+00  0.0000000000000D+00  0.0000000000000D+00
   335  3.3400000000000D+00  0.0000000000000D+00  0.0000000000000D+00
   336  3.3500000000000D+00  0.0000000000000D+00  0.0000000000000D+00
   337  3.3600000000000D+00  0.0000000000000D+00  0.0000000000000D+00
   338  3.3700000000000D+00  0.0000000000000D+00  0.0000000000000D+00
   339  3.3800000000000D+00  0.0000000000000D+00  0.0000000000000D+00
   340  3.3900000000000D+00  0.0000000000000D+00  0.0000000000000D+00
   341  3.4000000000000D+00  0.0000000000000D+00  0.0000000000000D+00
   342  3.4100000000000D+00  0.0000000000000D+00  0.0000000000000D+00
   343  3.4200000000000D+00  0.0000000000000D+00  0.0000000000000D+00
   344  3.4300000000000D+00  0.0000000000000D+00  0.0000000000000D+00
   345  3.4400000000000D+00  0.0000000000000D+00  0.0000000000000D+00
   346  3.4500000000000D+00  0.0000000000000D+00  0.0000000000000D+00
   347  3.4600000000000D+00  0.0000000000000D+00  0.0000000000000D+00
   348  3.4700000000000D+00  0.0000000000000D+00  0.0000000000000D+00
   349  3.4800000000000D+00  0.0000000000000D+00  0.0000000000000D+00
   350  3.4900000000000D+00  0.0000000000000D+00  0.0000000000000D+00
   351  3.5000000000000D+00  0.0000000000000D+00  0.0000000000000D+00
   352  3.5100000000000D+00  0.0000000000000D+00  0.0000000000000D+00
   353  3.5200000000000D+00  0.0000000000000D+00  0.0000000000000D+00
   354  3.5300000000000D+00  0.0000000000000D+00  0.0000000000000D+00
   355  3.5400000000000D+00  0.0000000000000D+00  0.0000000000000D+00
   356  3.5500000000000D+00  0.0000000000000D+00  0.0000000000000D+00
   357  3.5600000000000D+00  0.0000000000000D+00  0.0000000000000D+00
   358  3.5700000000000D+00  0.0000000000000D+00  0.0000000000000D+00
   359  3.5800000000000D+00  0.0000000000000D+00  0.0000000000000D+00
   360  3.5900000000000D+00  0.0000000000000D+00  0.0000000000000D+00
   361  3.6000000000000D+00  0.0000000000000D+00  0.0000000000000D+00
   362  3.6100000000000D+00  0.0000000000000D+00  0.0000000000000D+00
   363  3.6200000000000D+00  0.0000000000000D+00  0.0000000000000D+00
   364  3.6300000000000D+00  0.0000000000000D+00  0.0000000000000D+00
   365  3.6400000000000D+00  0.0000000000000D+00  0.0000000000000D+00
   366  3.6500000000000D+00  0.0000000000000D+00  0.0000000000000D+00
   367  3.6600000000000D+00  0.0000000000000D+00  0.0000000000000D+00
   368  3.6700000000000D+00  0.0000000000000D+00  0.0000000000000D+00
   369  3.6800000000000D+00  0.0000000000000D+00  0.0000000000000D+00
   370  3.6900000000000D+00  0.0000000000000D+00  0.0000000000000D+00
   371  3.7000000000000D+00  0.0000000000000D+00  0.0000000000000D+00
   372  3.7100000000000D+00  0.0000000000000D+00  0.0000000000000D+00
   373  3.7200000000000D+00  0.0000000000000D+00  0.0000000000000D+00
   374  3.7300000000000D+00  0.0000000000000D+00  0.0000000000000D+00
   375  3.7400000000000D+00  0.0000000000000D+00  0.0000000000000D+00
   376  3.7500000000000D+00  0.0000000000000D+00  0.0000000000000D+00
   377  3.7600000000000D+00  0.0000000000000D+00  0.0000000000000D+00
   378  3.7700000000000D+00  0.0000000000000D+00  0.0000000000000D+00
   379  3.7800000000000D+00  0.0000000000000D+00  0.0000000000000D+00
   380  3.7900000000000D+00  0.0000000000000D+00  0.0000000000000D+00
   381  3.8000000000000D+00  0.0000000000000D+00  0.0000000000000D+00
   382  3.8100000000000D+00  0.0000000000000D+00  0.0000000000000D+00
   383  3.8200000000000D+00  0.0000000000000D+00  0.0000000000000D+00
   384  3.8300000000000D+00  0.0000000000000D+00  0.0000000000000D+00
   385  3.8400000000000D+00  0.0000000000000D+00  0.0000000000000D+00
   386  3.8500000000000D+00  0.0000000000000D+00  0.0000000000000D+00
   387  3.8600000000000D+00  0.0000000000000D+00  0.0000000000000D+00
   388  3.8700000000000D+00  0.0000000000000D+00  0.0000000000000D+00
   389  3.8800000000000D+00  0.0000000000000D+00  0.0000000000000D+00
   390  3.8900000000000D+00  0.0000000000000D+00  0.0000000000000D+00
   391  3.9000000000000D+00  0.0000000000000D+00  0.0000000000000D+00
   392  3.9100000000000D+00  0.0000000000000D+00  0.0000000000000D+00
   393  3.9200000000000D+00  0.0000000000000D+00  0.0000000000000D+00
   394  3.9300000000000D+00  0.0000000000000D+00  0.0000000000000D+00
   395  3.9400000000000D+00  0.0000000000000D+00  0.0000000000000D+00
   396  3.9500000000000D+00  0.0000000000000D+00  0.0000000000000D+00
   397  3.9600000000000D+00  0.0000000000000D+00  0.0000000000000D+00
   398  3.9700000000000D+00  0.0000000000000D+00  0.0000000000000D+00
   399  3.9800000000000D+00  0.0000000000000D+00  0.0000000000000D+00
   400  3.9900000000000D+00  0.0000000000000D+00  0.0000000000000D+00
   401  4.0000000000000D+00  0.0000000000000D+00  0.0000000000000D+00
   402  4.0100000000000D+00  0.0000000000000D+00  0.0000000000000D+00
   403  4.0200000000000D+00  0.0000000000000D+00  0.0000000000000D+00
   404  4.0300000000000D+00  0.0000000000000D+00  0.0000000000000D+00
   405  4.0400000000000D+00  0.0000000000000D+00  0.0000000000000D+00
   406  4.0500000000000D+00  0.0000000000000D+00  0.0000000000000D+00
   407  4.0600000000000D+00  0.0000000000000D+00  0.0000000000000D+00
   408  4.0700000000000D+00  0.0000000000000D+00  0.0000000000000D+00
   409  4.0800000000000D+00  0.0000000000000D+00  0.0000000000000D+00
   410  4.0900000000000D+00  0.0000000000000D+00  0.0000000000000D+00
   411  4.1000000000000D+00  0.0000000000000D+00  0.0000000000000D+00
   412  4.1100000000000D+00  0.0000000000000D+00  0.0000000000000D+00
   413  4.1200000000000D+00  0.0000000000000D+00  0.0000000000000D+00
   414  4.1300000000000D+00  0.0000000000000D+00  0.0000000000000D+00
   415  4.1400000000000D+00  0.0000000000000D+00  0.0000000000000D+00
   416  4.1500000000000D+00  0.0000000000000D+00  0.0000000000000D+00
   417  4.1600000000000D+00  0.0000000000000D+00  0.0000000000000D+00
   418  4.1700000000000D+00  0.0000000000000D+00  0.0000000000000D+00
   419  4.1800000000000D+00  0.0000000000000D+00  0.0000000000000D+00
   420  4.1900000000000D+00  0.0000000000000D+00  0.0000000000000D+00
   421  4.2000000000000D+00  0.0000000000000D+00  0.0000000000000D+00
   422  4.2100000000000D+00  0.0000000000000D+00  0.0000000000000D+00