Hf    ONCVPSP-3.3.1  r_core=   1.93355   2.12716   2.05238   3.04240
     72.0000     26.0000      210905    zatom,zion,pspd
     8 -116133   3     4   600     0    pspcod,pspxc,lmax,lloc,mmax,r2well
  5.99000000  0.00000000  0.00000000    rchrg fchrg qchrg
     2     2     2     2     0    nproj
     1     1           extension_switch
   0                         1.0005310363568D+01 -1.7440381624463D-01
     1  0.0000000000000D+00 -7.4439343578092D-12  2.3432825124736D-11
     2  1.0000000000000D-02  6.7640750965058D-02 -6.4296880291088D-03
     3  2.0000000000000D-02  1.3514922096983D-01 -1.2832837197215D-02
     4  3.0000000000000D-02  2.0239346625483D-01 -1.9182958932114D-02
     5  4.0000000000000D-02  2.6924221654986D-01 -2.5453664807685D-02
     6  5.0000000000000D-02  3.3556520953965D-01 -3.1618715544247D-02
     7  6.0000000000000D-02  4.0123352259992D-01 -3.7652068738560D-02
     8  7.0000000000000D-02  4.6611990090253D-01 -4.3527924928130D-02
     9  8.0000000000000D-02  5.3009908099595D-01 -4.9220771617875D-02
    10  9.0000000000000D-02  5.9304810897663D-01 -5.4705424926313D-02
    11  1.0000000000000D-01  6.5484665237776D-01 -5.9957068542372D-02
    12  1.1000000000000D-01  7.1537730491554D-01 -6.4951289722548D-02
    13  1.2000000000000D-01  7.7452588324781D-01 -6.9664112100936D-02
    14  1.3000000000000D-01  8.3218171491716D-01 -7.4072025131292D-02
    15  1.4000000000000D-01  8.8823791666982D-01 -7.8152010029672D-02
    16  1.5000000000000D-01  9.4259166236273D-01 -8.1881562138568D-02
    17  1.6000000000000D-01  9.9514443969439D-01 -8.5238709687361D-02
    18  1.7000000000000D-01  1.0458022950206D+00 -8.8202028979365D-02
    19  1.8000000000000D-01  1.0944760655437D+00 -9.0750656091466D-02
    20  1.9000000000000D-01  1.1410815981929D+00 -9.2864295228175D-02
    21  2.0000000000000D-01  1.1855399545468D+00 -9.4523223927134D-02
    22  2.1000000000000D-01  1.2277776011803D+00 -9.5708295365960D-02
    23  2.2000000000000D-01  1.2677265848573D+00 -9.6400938072201D-02
    24  2.3000000000000D-01  1.3053246920267D+00 -9.6583153386371D-02
    25  2.4000000000000D-01  1.3405155921207D+00 -9.6237511072337D-02
    26  2.5000000000000D-01  1.3732489641954D+00 -9.5347143511323D-02
    27  2.6000000000000D-01  1.4034806065011D+00 -9.3895738950157D-02
    28  2.7000000000000D-01  1.4311725286129D+00 -9.1867534306697D-02
    29  2.8000000000000D-01  1.4562930258036D+00 -8.9247308059211D-02
    30  2.9000000000000D-01  1.4788167353879D+00 -8.6020373765827D-02
    31  3.0000000000000D-01  1.4987246748243D+00 -8.2172574772424D-02
    32  3.1000000000000D-01  1.5160042614080D+00 -7.7690280672068D-02
    33  3.2000000000000D-01  1.5306493134498D+00 -7.2560386078323D-02
    34  3.3000000000000D-01  1.5426600328887D+00 -6.6770312264549D-02
    35  3.4000000000000D-01  1.5520429693453D+00 -6.0308012205889D-02
    36  3.5000000000000D-01  1.5588109656815D+00 -5.3161979535584D-02
    37  3.6000000000000D-01  1.5629830851935D+00 -4.5321261897470D-02
    38  3.7000000000000D-01  1.5645845206228D+00 -3.6775479136469D-02
    39  3.8000000000000D-01  1.5636464852337D+00 -2.7514846724718D-02
    40  3.9000000000000D-01  1.5602060862657D+00 -1.7530204768218D-02
    41  4.0000000000000D-01  1.5543061811307D+00 -6.8130528803704D-03
    42  4.1000000000000D-01  1.5459952167854D+00  4.6444088552250D-03
    43  4.2000000000000D-01  1.5353270527725D+00  1.6849232680310D-02
    44  4.3000000000000D-01  1.5223607684788D+00  2.9807669637900D-02
    45  4.4000000000000D-01  1.5071604552237D+00  4.3525109729420D-02
    46  4.5000000000000D-01  1.4897949938432D+00  5.8006015835161D-02
    47  4.6000000000000D-01  1.4703378184941D+00  7.3253851566431D-02
    48  4.7000000000000D-01  1.4488666674547D+00  8.9271003302637D-02
    49  4.8000000000000D-01  1.4254633217524D+00  1.0605869675544D-01
    50  4.9000000000000D-01  1.4002133324949D+00  1.2361690848939D-01
    51  5.0000000000000D-01  1.3732057378316D+00  1.4194427291594D-01
    52  5.1000000000000D-01  1.3445327705117D+00  1.6103798536262D-01
    53  5.2000000000000D-01  1.3142895570499D+00  1.8089370190309D-01
    54  5.3000000000000D-01  1.2825738095429D+00  2.0150543671257D-01
    55  5.4000000000000D-01  1.2494855112170D+00  2.2286545778848D-01
    56  5.5000000000000D-01  1.2151265968121D+00  2.4496418194703D-01
    57  5.6000000000000D-01  1.1796006289351D+00  2.6779007006893D-01
    58  5.7000000000000D-01  1.1430124715344D+00  2.9132952362647D-01
    59  5.8000000000000D-01  1.1054679616628D+00  3.1556678357205D-01
    60  5.9000000000000D-01  1.0670735807073D+00  3.4048383271020D-01
    61  6.0000000000000D-01  1.0279361262697D+00  3.6606030270793D-01
    62  6.1000000000000D-01  9.8816238588353D-01  3.9227338691956D-01
    63  6.2000000000000D-01  9.4785881374683D-01  4.1909776021580D-01
    64  6.3000000000000D-01  9.0713121164309D-01  4.4650550700857D-01
    65  6.4000000000000D-01  8.6608441520594D-01  4.7446605865449D-01
    66  6.5000000000000D-01  8.2482198666412D-01  5.0294614139911D-01
    67  6.6000000000000D-01  7.8344591517807D-01  5.3190973599438D-01
    68  6.7000000000000D-01  7.4205632584904D-01  5.6131805007805D-01
    69  6.8000000000000D-01  7.0075119844603D-01  5.9112950434989D-01
    70  6.9000000000000D-01  6.5962609685595D-01  6.2129973351584D-01
    71  7.0000000000000D-01  6.1877391021699D-01  6.5178160289378D-01
    72  7.1000000000000D-01  5.7828460664540D-01  6.8252524148920D-01
    73  7.2000000000000D-01  5.3824500041183D-01  7.1347809225194D-01
    74  7.3000000000000D-01  4.9873853336482D-01  7.4458498011888D-01
    75  7.4000000000000D-01  4.5984507133690D-01  7.7578819833287D-01
    76  7.5000000000000D-01  4.2164071620262D-01  8.0702761340435D-01
    77  7.6000000000000D-01  3.8419763418853D-01  8.3824078895079D-01
    78  7.7000000000000D-01  3.4758390096289D-01  8.6936312851328D-01
    79  7.8000000000000D-01  3.1186336395790D-01  9.0032803730487D-01
    80  7.9000000000000D-01  2.7709552229982D-01  9.3106710269981D-01
    81  8.0000000000000D-01  2.4333542464358D-01  9.6151029312033D-01
    82  8.1000000000000D-01  2.1063358512744D-01  9.9158617482627D-01
    83  8.2000000000000D-01  1.7903591758192D-01  1.0212221459577D+00
    84  8.3000000000000D-01  1.4858368804492D-01  1.0503446870280D+00
    85  8.4000000000000D-01  1.1931348555213D-01  1.0788796269119D+00
    86  8.5000000000000D-01  9.1257211090104D-02  1.1067524232234D+00
    87  8.6000000000000D-01  6.4442084517418D-02  1.1338884558342D+00
    88  8.7000000000000D-01  3.8890669179296D-02  1.1602133321424D+00
    89  8.8000000000000D-01  1.4620913861971D-02  1.1856532025674D+00
    90  8.9000000000000D-01 -8.3537883434218D-03  1.2101350846224D+00
    91  9.0000000000000D-01 -3.0024524772344D-02  1.2335871937988D+00
    92  9.1000000000000D-01 -5.0386772089651D-02  1.2559392793903D+00
    93  9.2000000000000D-01 -6.9440290008347D-02  1.2771229632896D+00
    94  9.3000000000000D-01 -8.7189000533313D-02  1.2970720797078D+00
    95  9.4000000000000D-01 -1.0364085349965D-01  1.3157230136974D+00
    96  9.5000000000000D-01 -1.1880767923168D-01  1.3330150363035D+00
    97  9.6000000000000D-01 -1.3270502920030D-01  1.3488906341288D+00
    98  9.7000000000000D-01 -1.4535200560309D-01  1.3632958310709D+00
    99  9.8000000000000D-01 -1.5677108083326D-01  1.3761804999841D+00
   100  9.9000000000000D-01 -1.6698790783952D-01  1.3874986620225D+00
   101  1.0000000000000D+00 -1.7603112241007D-01  1.3972087714501D+00
   102  1.0100000000000D+00 -1.8393213843777D-01  1.4052739837390D+00
   103  1.0200000000000D+00 -1.9072493724370D-01  1.4116624048418D+00
   104  1.0300000000000D+00 -1.9644585204860D-01  1.4163473195960D+00
   105  1.0400000000000D+00 -2.0113334868902D-01  1.4193073973111D+00
   106  1.0500000000000D+00 -2.0482780367600D-01  1.4205268727002D+00
   107  1.0600000000000D+00 -2.0757128068839D-01  1.4199957004450D+00
   108  1.0700000000000D+00 -2.0940730658379D-01  1.4177096818113D+00
   109  1.0800000000000D+00 -2.1038064799150D-01  1.4136705619058D+00
   110  1.0900000000000D+00 -2.1053708953058D-01  1.4078860963196D+00
   111  1.1000000000000D+00 -2.0992321466747D-01  1.4003700860932D+00
   112  1.1100000000000D+00 -2.0858619019323D-01  1.3911423801372D+00
   113  1.1200000000000D+00 -2.0657355526752D-01  1.3802288444190D+00
   114  1.1300000000000D+00 -2.0393301592531D-01  1.3676612974823D+00
   115  1.1400000000000D+00 -2.0071224590075D-01  1.3534774120539D+00
   116  1.1500000000000D+00 -1.9695869456339D-01  1.3377205827561D+00
   117  1.1600000000000D+00 -1.9271940272225D-01  1.3204397601073D+00
   118  1.1700000000000D+00 -1.8804082697332D-01  1.3016892513212D+00
   119  1.1800000000000D+00 -1.8296867321536D-01  1.2815284885974D+00
   120  1.1900000000000D+00 -1.7754773989259D-01  1.2600217658447D+00
   121  1.2000000000000D+00 -1.7182177146215D-01  1.2372379449991D+00
   122  1.2100000000000D+00 -1.6583332250061D-01  1.2132501333762D+00
   123  1.2200000000000D+00 -1.5962363279197D-01  1.1881353337271D+00
   124  1.2300000000000D+00 -1.5323251370674D-01  1.1619740687769D+00
   125  1.2400000000000D+00 -1.4669824605586D-01  1.1348499824072D+00
   126  1.2500000000000D+00 -1.4005748955416D-01  1.1068494197619D+00
   127  1.2600000000000D+00 -1.3334520398389D-01  1.0780609886915D+00
   128  1.2700000000000D+00 -1.2659458203845D-01  1.0485751052410D+00
   129  1.2800000000000D+00 -1.1983699375976D-01  1.0184835260204D+00
   130  1.2900000000000D+00 -1.1310194246040D-01  9.8787887036068D-01
   131  1.3000000000000D+00 -1.0641703190904D-01  9.5685413540503D-01
   132  1.3100000000000D+00 -9.9807944492392D-02  9.2550220736361D-01
   133  1.3200000000000D+00 -9.3298430069926D-02  8.9391537217930D-01
   134  1.3300000000000D+00 -8.6910305108346D-02  8.6218482905154D-01
   135  1.3400000000000D+00 -8.0663461646481D-02  8.3040021022188D-01
   136  1.3500000000000D+00 -7.4575885660297D-02  7.9864911048945D-01
   137  1.3600000000000D+00 -6.8663684239993D-02  7.6701662995876D-01
   138  1.3700000000000D+00 -6.2941121039387D-02  7.3558493343165D-01
   139  1.3800000000000D+00 -5.7420659403379D-02  7.0443282996565D-01
   140  1.3900000000000D+00 -5.2113012502427D-02  6.7363537584666D-01
   141  1.4000000000000D+00 -4.7027199852702D-02  6.4326350437779D-01
   142  1.4100000000000D+00 -4.2170609510690D-02  6.1338368565907D-01
   143  1.4200000000000D+00 -3.7549065255740D-02  5.8405761926534D-01
   144  1.4300000000000D+00 -3.3166898052014D-02  5.5534196308688D-01
   145  1.4400000000000D+00 -2.9027021068946D-02  5.2728810064179D-01
   146  1.4500000000000D+00 -2.5131007550053D-02  4.9994194983619D-01
   147  1.4600000000000D+00 -2.1479170806561D-02  4.7334381533832D-01
   148  1.4700000000000D+00 -1.8070645657909D-02  4.4752828658632D-01
   149  1.4800000000000D+00 -1.4903470577076D-02  4.2252418387572D-01
   150  1.4900000000000D+00 -1.1974669950919D-02  3.9835455327265D-01
   151  1.5000000000000D+00 -9.2803356966594D-03  3.7503671292571D-01
   152  1.5100000000000D+00 -6.8157077199902D-03  3.5258235074038D-01
   153  1.5200000000000D+00 -4.5752525332083D-03  3.3099767516197D-01
   154  1.5300000000000D+00 -2.5527395113434D-03  3.1028361915390D-01
   155  1.5400000000000D+00 -7.4131427892882D-04  2.9043609760810D-01
   156  1.5500000000000D+00  8.6643134955909D-04  2.7144631870284D-01
   157  1.5600000000000D+00  2.2783931544721D-03  2.5330114778313D-01
   158  1.5700000000000D+00  3.5028926739470D-03  2.3598352473568D-01
   159  1.5800000000000D+00  4.5486197732305D-03  2.1947293184652D-01
   160  1.5900000000000D+00  5.4245803222793D-03  2.0374591330783D-01
   161  1.6000000000000D+00  6.1400488333492D-03  1.8877664238958D-01
   162  1.6100000000000D+00  6.7045266716363D-03  1.7453753678609D-01
   163  1.6200000000000D+00  7.1277056477329D-03  1.6099991804243D-01
   164  1.6300000000000D+00  7.4194374304567D-03  1.4813471447874D-01
   165  1.6400000000000D+00  7.5897085779055D-03  1.3591320357985D-01
   166  1.6500000000000D+00  7.6486214500005D-03  1.2430779227762D-01
   167  1.6600000000000D+00  7.6063816686869D-03  1.1329284516574D-01
   168  1.6700000000000D+00  7.4732873504475D-03  1.0284548059586D-01
   169  1.6800000000000D+00  7.2597355527668D-03  9.2946577099242D-02
   170  1.6900000000000D+00  6.9762069609089D-03  8.3581384390048D-02
   171  1.7000000000000D+00  6.6332613836784D-03  7.4740223313132D-02
   172  1.7100000000000D+00  6.2416656555780D-03  6.6421229939358D-02
   173  1.7200000000000D+00  5.8123261874870D-03  5.8629961510675D-02
   174  1.7300000000000D+00  5.3559700751746D-03  5.1374858571276D-02
   175  1.7400000000000D+00  4.8829158336892D-03  4.4664254417722D-02
   176  1.7500000000000D+00  4.4027609850011D-03  3.8502299280295D-02
   177  1.7600000000000D+00  3.9241387934570D-03  3.2885883208430D-02
   178  1.7700000000000D+00  3.4548152658222D-03  2.7806986535435D-02
   179  1.7800000000000D+00  3.0017031156367D-03  2.3253688508507D-02
   180  1.7900000000000D+00  2.5707945580108D-03  1.9209698613335D-02
   181  1.8000000000000D+00  2.1671738778359D-03  1.5655155998170D-02
   182  1.8100000000000D+00  1.7950022767689D-03  1.2566899898904D-02
   183  1.8200000000000D+00  1.4575157385584D-03  9.9188877038924D-03
   184  1.8300000000000D+00  1.1570237786496D-03  7.6825647780511D-03
   185  1.8400000000000D+00  8.9491089025119D-04  5.8272177541327D-03
   186  1.8500000000000D+00  6.7163987357707D-04  4.3203024993770D-03
   187  1.8600000000000D+00  4.8675721788096D-04  3.1277499504409D-03
   188  1.8700000000000D+00  3.3892280825177D-04  2.2147149971341D-03
   189  1.8800000000000D+00  2.2584318843139D-04  1.5442899341517D-03
   190  1.8900000000000D+00  1.4413931856397D-04  1.0760339050938D-03
   191  1.9000000000000D+00  8.9692026895849D-05  7.7174600781133D-04
   192  1.9100000000000D+00  5.9027276344376D-05  6.1267804337670D-04
   193  1.9200000000000D+00  4.8080127758859D-05  5.7981807424545D-04
   194  1.9300000000000D+00  4.2840772400503D-05  5.4393135466969D-04
   195  1.9400000000000D+00  2.9874107892860D-05  3.8159935304369D-04
   196  1.9500000000000D+00  1.0994110399048D-05  1.3993768562571D-04
   197  1.9600000000000D+00 -2.3414664554082D-06 -3.0357655561496D-05
   198  1.9700000000000D+00 -3.7805038094085D-06 -4.9051994191736D-05
   199  1.9800000000000D+00 -1.0133872638258D-07 -1.3147835021937D-06
   200  1.9900000000000D+00  9.0125247397391D-07  1.1829885849186D-05
   201  2.0000000000000D+00  4.1488124710843D-07  5.4546495120748D-06
   202  2.0100000000000D+00 -8.6991264446597D-08 -1.1072984074126D-06
   203  2.0200000000000D+00 -9.5099544535820D-08 -1.2105074558931D-06
   204  2.0300000000000D+00  0.0000000000000D+00  0.0000000000000D+00
   205  2.0400000000000D+00  0.0000000000000D+00  0.0000000000000D+00
   206  2.0500000000000D+00  0.0000000000000D+00  0.0000000000000D+00
   207  2.0600000000000D+00  0.0000000000000D+00  0.0000000000000D+00
   208  2.0700000000000D+00  0.0000000000000D+00  0.0000000000000D+00
   209  2.0800000000000D+00  0.0000000000000D+00  0.0000000000000D+00
   210  2.0900000000000D+00  0.0000000000000D+00  0.0000000000000D+00
   211  2.1000000000000D+00  0.0000000000000D+00  0.0000000000000D+00
   212  2.1100000000000D+00  0.0000000000000D+00  0.0000000000000D+00
   213  2.1200000000000D+00  0.0000000000000D+00  0.0000000000000D+00
   214  2.1300000000000D+00  0.0000000000000D+00  0.0000000000000D+00
   215  2.1400000000000D+00  0.0000000000000D+00  0.0000000000000D+00
   216  2.1500000000000D+00  0.0000000000000D+00  0.0000000000000D+00
   217  2.1600000000000D+00  0.0000000000000D+00  0.0000000000000D+00
   218  2.1700000000000D+00  0.0000000000000D+00  0.0000000000000D+00
   219  2.1800000000000D+00  0.0000000000000D+00  0.0000000000000D+00
   220  2.1900000000000D+00  0.0000000000000D+00  0.0000000000000D+00
   221  2.2000000000000D+00  0.0000000000000D+00  0.0000000000000D+00
   222  2.2100000000000D+00  0.0000000000000D+00  0.0000000000000D+00
   223  2.2200000000000D+00  0.0000000000000D+00  0.0000000000000D+00
   224  2.2300000000000D+00  0.0000000000000D+00  0.0000000000000D+00
   225  2.2400000000000D+00  0.0000000000000D+00  0.0000000000000D+00
   226  2.2500000000000D+00  0.0000000000000D+00  0.0000000000000D+00
   227  2.2600000000000D+00  0.0000000000000D+00  0.0000000000000D+00
   228  2.2700000000000D+00  0.0000000000000D+00  0.0000000000000D+00
   229  2.2800000000000D+00  0.0000000000000D+00  0.0000000000000D+00
   230  2.2900000000000D+00  0.0000000000000D+00  0.0000000000000D+00
   231  2.3000000000000D+00  0.0000000000000D+00  0.0000000000000D+00
   232  2.3100000000000D+00  0.0000000000000D+00  0.0000000000000D+00
   233  2.3200000000000D+00  0.0000000000000D+00  0.0000000000000D+00
   234  2.3300000000000D+00  0.0000000000000D+00  0.0000000000000D+00
   235  2.3400000000000D+00  0.0000000000000D+00  0.0000000000000D+00
   236  2.3500000000000D+00  0.0000000000000D+00  0.0000000000000D+00
   237  2.3600000000000D+00  0.0000000000000D+00  0.0000000000000D+00
   238  2.3700000000000D+00  0.0000000000000D+00  0.0000000000000D+00
   239  2.3800000000000D+00  0.0000000000000D+00  0.0000000000000D+00
   240  2.3900000000000D+00  0.0000000000000D+00  0.0000000000000D+00
   241  2.4000000000000D+00  0.0000000000000D+00  0.0000000000000D+00
   242  2.4100000000000D+00  0.0000000000000D+00  0.0000000000000D+00
   243  2.4200000000000D+00  0.0000000000000D+00  0.0000000000000D+00
   244  2.4300000000000D+00  0.0000000000000D+00  0.0000000000000D+00
   245  2.4400000000000D+00  0.0000000000000D+00  0.0000000000000D+00
   246  2.4500000000000D+00  0.0000000000000D+00  0.0000000000000D+00
   247  2.4600000000000D+00  0.0000000000000D+00  0.0000000000000D+00
   248  2.4700000000000D+00  0.0000000000000D+00  0.0000000000000D+00
   249  2.4800000000000D+00  0.0000000000000D+00  0.0000000000000D+00
   250  2.4900000000000D+00  0.0000000000000D+00  0.0000000000000D+00
   251  2.5000000000000D+00  0.0000000000000D+00  0.0000000000000D+00
   252  2.5100000000000D+00  0.0000000000000D+00  0.0000000000000D+00
   253  2.5200000000000D+00  0.0000000000000D+00  0.0000000000000D+00
   254  2.5300000000000D+00  0.0000000000000D+00  0.0000000000000D+00
   255  2.5400000000000D+00  0.0000000000000D+00  0.0000000000000D+00
   256  2.5500000000000D+00  0.0000000000000D+00  0.0000000000000D+00
   257  2.5600000000000D+00  0.0000000000000D+00  0.0000000000000D+00
   258  2.5700000000000D+00  0.0000000000000D+00  0.0000000000000D+00
   259  2.5800000000000D+00  0.0000000000000D+00  0.0000000000000D+00
   260  2.5900000000000D+00  0.0000000000000D+00  0.0000000000000D+00
   261  2.6000000000000D+00  0.0000000000000D+00  0.0000000000000D+00
   262  2.6100000000000D+00  0.0000000000000D+00  0.0000000000000D+00
   263  2.6200000000000D+00  0.0000000000000D+00  0.0000000000000D+00
   264  2.6300000000000D+00  0.0000000000000D+00  0.0000000000000D+00
   265  2.6400000000000D+00  0.0000000000000D+00  0.0000000000000D+00
   266  2.6500000000000D+00  0.0000000000000D+00  0.0000000000000D+00
   267  2.6600000000000D+00  0.0000000000000D+00  0.0000000000000D+00
   268  2.6700000000000D+00  0.0000000000000D+00  0.0000000000000D+00
   269  2.6800000000000D+00  0.0000000000000D+00  0.0000000000000D+00
   270  2.6900000000000D+00  0.0000000000000D+00  0.0000000000000D+00
   271  2.7000000000000D+00  0.0000000000000D+00  0.0000000000000D+00
   272  2.7100000000000D+00  0.0000000000000D+00  0.0000000000000D+00
   273  2.7200000000000D+00  0.0000000000000D+00  0.0000000000000D+00
   274  2.7300000000000D+00  0.0000000000000D+00  0.0000000000000D+00
   275  2.7400000000000D+00  0.0000000000000D+00  0.0000000000000D+00
   276  2.7500000000000D+00  0.0000000000000D+00  0.0000000000000D+00
   277  2.7600000000000D+00  0.0000000000000D+00  0.0000000000000D+00
   278  2.7700000000000D+00  0.0000000000000D+00  0.0000000000000D+00
   279  2.7800000000000D+00  0.0000000000000D+00  0.0000000000000D+00
   280  2.7900000000000D+00  0.0000000000000D+00  0.0000000000000D+00
   281  2.8000000000000D+00  0.0000000000000D+00  0.0000000000000D+00
   282  2.8100000000000D+00  0.0000000000000D+00  0.0000000000000D+00
   283  2.8200000000000D+00  0.0000000000000D+00  0.0000000000000D+00
   284  2.8300000000000D+00  0.0000000000000D+00  0.0000000000000D+00
   285  2.8400000000000D+00  0.0000000000000D+00  0.0000000000000D+00
   286  2.8500000000000D+00  0.0000000000000D+00  0.0000000000000D+00
   287  2.8600000000000D+00  0.0000000000000D+00  0.0000000000000D+00
   288  2.8700000000000D+00  0.0000000000000D+00  0.0000000000000D+00
   289  2.8800000000000D+00  0.0000000000000D+00  0.0000000000000D+00
   290  2.8900000000000D+00  0.0000000000000D+00  0.0000000000000D+00
   291  2.9000000000000D+00  0.0000000000000D+00  0.0000000000000D+00
   292  2.9100000000000D+00  0.0000000000000D+00  0.0000000000000D+00
   293  2.9200000000000D+00  0.0000000000000D+00  0.0000000000000D+00
   294  2.9300000000000D+00  0.0000000000000D+00  0.0000000000000D+00
   295  2.9400000000000D+00  0.0000000000000D+00  0.0000000000000D+00
   296  2.9500000000000D+00  0.0000000000000D+00  0.0000000000000D+00
   297  2.9600000000000D+00  0.0000000000000D+00  0.0000000000000D+00
   298  2.9700000000000D+00  0.0000000000000D+00  0.0000000000000D+00
   299  2.9800000000000D+00  0.0000000000000D+00  0.0000000000000D+00
   300  2.9900000000000D+00  0.0000000000000D+00  0.0000000000000D+00
   301  3.0000000000000D+00  0.0000000000000D+00  0.0000000000000D+00
   302  3.0100000000000D+00  0.0000000000000D+00  0.0000000000000D+00
   303  3.0200000000000D+00  0.0000000000000D+00  0.0000000000000D+00
   304  3.0300000000000D+00  0.0000000000000D+00  0.0000000000000D+00
   305  3.0400000000000D+00  0.0000000000000D+00  0.0000000000000D+00
   306  3.0500000000000D+00  0.0000000000000D+00  0.0000000000000D+00
   307  3.0600000000000D+00  0.0000000000000D+00  0.0000000000000D+00
   308  3.0700000000000D+00  0.0000000000000D+00  0.0000000000000D+00
   309  3.0800000000000D+00  0.0000000000000D+00  0.0000000000000D+00
   310  3.0900000000000D+00  0.0000000000000D+00  0.0000000000000D+00
   311  3.1000000000000D+00  0.0000000000000D+00  0.0000000000000D+00
   312  3.1100000000000D+00  0.0000000000000D+00  0.0000000000000D+00
   313  3.1200000000000D+00  0.0000000000000D+00  0.0000000000000D+00
   314  3.1300000000000D+00  0.0000000000000D+00  0.0000000000000D+00
   315  3.1400000000000D+00  0.0000000000000D+00  0.0000000000000D+00
   316  3.1500000000000D+00  0.0000000000000D+00  0.0000000000000D+00
   317  3.1600000000000D+00  0.0000000000000D+00  0.0000000000000D+00
   318  3.1700000000000D+00  0.0000000000000D+00  0.0000000000000D+00
   319  3.1800000000000D+00  0.0000000000000D+00  0.0000000000000D+00
   320  3.1900000000000D+00  0.0000000000000D+00  0.0000000000000D+00
   321  3.2000000000000D+00  0.0000000000000D+00  0.0000000000000D+00
   322  3.2100000000000D+00  0.0000000000000D+00  0.0000000000000D+00
   323  3.2200000000000D+00  0.0000000000000D+00  0.0000000000000D+00
   324  3.2300000000000D+00  0.0000000000000D+00  0.0000000000000D+00
   325  3.2400000000000D+00  0.0000000000000D+00  0.0000000000000D+00
   326  3.2500000000000D+00  0.0000000000000D+00  0.0000000000000D+00
   327  3.2600000000000D+00  0.0000000000000D+00  0.0000000000000D+00
   328  3.2700000000000D+00  0.0000000000000D+00  0.0000000000000D+00
   329  3.2800000000000D+00  0.0000000000000D+00  0.0000000000000D+00
   330  3.2900000000000D+00  0.0000000000000D+00  0.0000000000000D+00
   331  3.3000000000000D+00  0.0000000000000D+00  0.0000000000000D+00
   332  3.3100000000000D+00  0.0000000000000D+00  0.0000000000000D+00
   333  3.3200000000000D+00  0.0000000000000D+00  0.0000000000000D+00
   334  3.3300000000000D+00  0.0000000000000D+00  0.0000000000000D+00
   335  3.3400000000000D+00  0.0000000000000D+00  0.0000000000000D+00
   336  3.3500000000000D+00  0.0000000000000D+00  0.0000000000000D+00
   337  3.3600000000000D+00  0.0000000000000D+00  0.0000000000000D+00
   338  3.3700000000000D+00  0.0000000000000D+00  0.0000000000000D+00
   339  3.3800000000000D+00  0.0000000000000D+00  0.0000000000000D+00
   340  3.3900000000000D+00  0.0000000000000D+00  0.0000000000000D+00
   341  3.4000000000000D+00  0.0000000000000D+00  0.0000000000000D+00
   342  3.4100000000000D+00  0.0000000000000D+00  0.0000000000000D+00
   343  3.4200000000000D+00  0.0000000000000D+00  0.0000000000000D+00
   344  3.4300000000000D+00  0.0000000000000D+00  0.0000000000000D+00
   345  3.4400000000000D+00  0.0000000000000D+00  0.0000000000000D+00
   346  3.4500000000000D+00  0.0000000000000D+00  0.0000000000000D+00
   347  3.4600000000000D+00  0.0000000000000D+00  0.0000000000000D+00
   348  3.4700000000000D+00  0.0000000000000D+00  0.0000000000000D+00
   349  3.4800000000000D+00  0.0000000000000D+00  0.0000000000000D+00
   350  3.4900000000000D+00  0.0000000000000D+00  0.0000000000000D+00
   351  3.5000000000000D+00  0.0000000000000D+00  0.0000000000000D+00
   352  3.5100000000000D+00  0.0000000000000D+00  0.0000000000000D+00
   353  3.5200000000000D+00  0.0000000000000D+00  0.0000000000000D+00
   354  3.5300000000000D+00  0.0000000000000D+00  0.0000000000000D+00
   355  3.5400000000000D+00  0.0000000000000D+00  0.0000000000000D+00
   356  3.5500000000000D+00  0.0000000000000D+00  0.0000000000000D+00
   357  3.5600000000000D+00  0.0000000000000D+00  0.0000000000000D+00
   358  3.5700000000000D+00  0.0000000000000D+00  0.0000000000000D+00
   359  3.5800000000000D+00  0.0000000000000D+00  0.0000000000000D+00
   360  3.5900000000000D+00  0.0000000000000D+00  0.0000000000000D+00
   361  3.6000000000000D+00  0.0000000000000D+00  0.0000000000000D+00
   362  3.6100000000000D+00  0.0000000000000D+00  0.0000000000000D+00
   363  3.6200000000000D+00  0.0000000000000D+00  0.0000000000000D+00
   364  3.6300000000000D+00  0.0000000000000D+00  0.0000000000000D+00
   365  3.6400000000000D+00  0.0000000000000D+00  0.0000000000000D+00
   366  3.6500000000000D+00  0.0000000000000D+00  0.0000000000000D+00
   367  3.6600000000000D+00  0.0000000000000D+00  0.0000000000000D+00
   368  3.6700000000000D+00  0.0000000000000D+00  0.0000000000000D+00
   369  3.6800000000000D+00  0.0000000000000D+00  0.0000000000000D+00
   370  3.6900000000000D+00  0.0000000000000D+00  0.0000000000000D+00
   371  3.7000000000000D+00  0.0000000000000D+00  0.0000000000000D+00
   372  3.7100000000000D+00  0.0000000000000D+00  0.0000000000000D+00
   373  3.7200000000000D+00  0.0000000000000D+00  0.0000000000000D+00
   374  3.7300000000000D+00  0.0000000000000D+00  0.0000000000000D+00
   375  3.7400000000000D+00  0.0000000000000D+00  0.0000000000000D+00
   376  3.7500000000000D+00  0.0000000000000D+00  0.0000000000000D+00
   377  3.7600000000000D+00  0.0000000000000D+00  0.0000000000000D+00
   378  3.7700000000000D+00  0.0000000000000D+00  0.0000000000000D+00
   379  3.7800000000000D+00  0.0000000000000D+00  0.0000000000000D+00
   380  3.7900000000000D+00  0.0000000000000D+00  0.0000000000000D+00
   381  3.8000000000000D+00  0.0000000000000D+00  0.0000000000000D+00
   382  3.8100000000000D+00  0.0000000000000D+00  0.0000000000000D+00
   383  3.8200000000000D+00  0.0000000000000D+00  0.0000000000000D+00
   384  3.8300000000000D+00  0.0000000000000D+00  0.0000000000000D+00
   385  3.8400000000000D+00  0.0000000000000D+00  0.0000000000000D+00
   386  3.8500000000000D+00  0.0000000000000D+00  0.0000000000000D+00
   387  3.8600000000000D+00  0.0000000000000D+00  0.0000000000000D+00
   388  3.8700000000000D+00  0.0000000000000D+00  0.0000000000000D+00
   389  3.8800000000000D+00  0.0000000000000D+00  0.0000000000000D+00
   390  3.8900000000000D+00  0.0000000000000D+00  0.0000000000000D+00
   391  3.9000000000000D+00  0.0000000000000D+00  0.0000000000000D+00
   392  3.9100000000000D+00  0.0000000000000D+00  0.0000000000000D+00
   393  3.9200000000000D+00  0.0000000000000D+00  0.0000000000000D+00
   394  3.9300000000000D+00  0.0000000000000D+00  0.0000000000000D+00
   395  3.9400000000000D+00  0.0000000000000D+00  0.0000000000000D+00
   396  3.9500000000000D+00  0.0000000000000D+00  0.0000000000000D+00
   397  3.9600000000000D+00  0.0000000000000D+00  0.0000000000000D+00
   398  3.9700000000000D+00  0.0000000000000D+00  0.0000000000000D+00
   399  3.9800000000000D+00  0.0000000000000D+00  0.0000000000000D+00
   400  3.9900000000000D+00  0.0000000000000D+00  0.0000000000000D+00
   401  4.0000000000000D+00  0.0000000000000D+00  0.0000000000000D+00
   402  4.0100000000000D+00  0.0000000000000D+00  0.0000000000000D+00
   403  4.0200000000000D+00  0.0000000000000D+00  0.0000000000000D+00
   404  4.0300000000000D+00  0.0000000000000D+00  0.0000000000000D+00
   405  4.0400000000000D+00  0.0000000000000D+00  0.0000000000000D+00
   406  4.0500000000000D+00  0.0000000000000D+00  0.0000000000000D+00
   407  4.0600000000000D+00  0.0000000000000D+00  0.0000000000000D+00
   408  4.0700000000000D+00  0.0000000000000D+00  0.0000000000000D+00
   409  4.0800000000000D+00  0.0000000000000D+00  0.0000000000000D+00
   410  4.0900000000000D+00  0.0000000000000D+00  0.0000000000000D+00
   411  4.1000000000000D+00  0.0000000000000D+00  0.0000000000000D+00
   412  4.1100000000000D+00  0.0000000000000D+00  0.0000000000000D+00
   413  4.1200000000000D+00  0.0000000000000D+00  0.0000000000000D+00
   414  4.1300000000000D+00  0.0000000000000D+00  0.0000000000000D+00
   415  4.1400000000000D+00  0.0000000000000D+00  0.0000000000000D+00
   416  4.1500000000000D+00  0.0000000000000D+00  0.0000000000000D+00
   417  4.1600000000000D+00  0.0000000000000D+00  0.0000000000000D+00
   418  4.1700000000000D+00  0.0000000000000D+00  0.0000000000000D+00
   419  4.1800000000000D+00  0.0000000000000D+00  0.0000000000000D+00
   420  4.1900000000000D+00  0.0000000000000D+00  0.0000000000000D+00
   421  4.2000000000000D+00  0.0000000000000D+00  0.0000000000000D+00
   422  4.2100000000000D+00  0.0000000000000D+00  0.0000000000000D+00