Hg    ONCVPSP-3.3.1  r_core=   2.34483   2.34483   2.18287   3.27466
     80.0000     20.0000      210905    zatom,zion,pspd
     8 -116133   3     4   600     0    pspcod,pspxc,lmax,lloc,mmax,r2well
  5.99000000  0.00000000  0.00000000    rchrg fchrg qchrg
     2     4     4     3    nproj
     3     1           extension_switch
     4     4     4    nprojso
   0                         6.5602448764347D-01  4.5745316617430D+00
     1  0.0000000000000D+00 -2.1001492211958D-11  9.6556096451650D-13
     2  1.0000000000000D-02  5.1124323154882D-03  5.9138615365627D-02
     3  2.0000000000000D-02  1.0232106684933D-02  1.1817623331987D-01
     4  3.0000000000000D-02  1.5366348724905D-02  1.7701203850983D-01
     5  4.0000000000000D-02  2.0522650337670D-02  2.3554557944814D-01
     6  5.0000000000000D-02  2.5708750760504D-02  2.9367694981670D-01
     7  6.0000000000000D-02  3.0932715117610D-02  3.5130696901504D-01
     8  7.0000000000000D-02  3.6203009666810D-02  4.0833736170024D-01
     9  8.0000000000000D-02  4.1528572954147D-02  4.6467093606447D-01
    10  9.0000000000000D-02  4.6918882115492D-02  5.2021176059504D-01
    11  1.0000000000000D-01  5.2384013595203D-02  5.7486533906065D-01
    12  1.1000000000000D-01  5.7934697587410D-02  6.2853878346566D-01
    13  1.2000000000000D-01  6.3582365545723D-02  6.8114098471290D-01
    14  1.3000000000000D-01  6.9339190151640D-02  7.3258278071373D-01
    15  1.4000000000000D-01  7.5218117180534D-02  7.8277712168206D-01
    16  1.5000000000000D-01  8.1232888756488D-02  8.3163923234752D-01
    17  1.6000000000000D-01  8.7398057543283D-02  8.7908677082102D-01
    18  1.7000000000000D-01  9.3728991478103D-02  9.2503998384423D-01
    19  1.8000000000000D-01  1.0024186871662D-01  9.6942185815301D-01
    20  1.9000000000000D-01  1.0695366252309D-01  1.0121582676834D+00
    21  2.0000000000000D-01  1.1388211590590D-01  1.0531781163474D+00
    22  2.1000000000000D-01  1.2104570586826D-01  1.0924134761054D+00
    23  2.2000000000000D-01  1.2846359721376D-01  1.1297997200610D+00
    24  2.3000000000000D-01  1.3615558591863D-01  1.1652756503039D+00
    25  2.4000000000000D-01  1.4414203215419D-01  1.1987836202278D+00
    26  2.5000000000000D-01  1.5244378311615D-01  1.2302696510490D+00
    27  2.6000000000000D-01  1.6108208588965D-01  1.2596835422557D+00
    28  2.7000000000000D-01  1.7007849065091D-01  1.2869789757179D+00
    29  2.8000000000000D-01  1.7945474457759D-01  1.3121136131902D+00
    30  2.9000000000000D-01  1.8923267690965D-01  1.3350491869467D+00
    31  3.0000000000000D-01  1.9943407567050D-01  1.3557515832865D+00
    32  3.1000000000000D-01  2.1008055662414D-01  1.3741909186593D+00
    33  3.2000000000000D-01  2.2119342510726D-01  1.3903416081603D+00
    34  3.3000000000000D-01  2.3279353143572D-01  1.4041824261570D+00
    35  3.4000000000000D-01  2.4490112064186D-01  1.4156965588142D+00
    36  3.5000000000000D-01  2.5753567735258D-01  1.4248716482948D+00
    37  3.6000000000000D-01  2.7071576666748D-01  1.4316998284229D+00
    38  3.7000000000000D-01  2.8445887194132D-01  1.4361777516088D+00
    39  3.8000000000000D-01  2.9878123041576D-01  1.4383066068463D+00
    40  3.9000000000000D-01  3.1369766768039D-01  1.4380921286073D+00
    41  4.0000000000000D-01  3.2922143197370D-01  1.4355445964737D+00
    42  4.1000000000000D-01  3.4536402935907D-01  1.4306788253614D+00
    43  4.2000000000000D-01  3.6213506083058D-01  1.4235141462102D+00
    44  4.3000000000000D-01  3.7954206241590D-01  1.4140743770305D+00
    45  4.4000000000000D-01  3.9759034935185D-01  1.4023877842176D+00
    46  4.5000000000000D-01  4.1628286540843D-01  1.3884870340656D+00
    47  4.6000000000000D-01  4.3562003843296D-01  1.3724091344336D+00
    48  4.7000000000000D-01  4.5559964317388D-01  1.3541953665412D+00
    49  4.8000000000000D-01  4.7621667242689D-01  1.3338912068941D+00
    50  4.9000000000000D-01  4.9746321752166D-01  1.3115462393630D+00
    51  5.0000000000000D-01  5.1932835913743D-01  1.2872140574703D+00
    52  5.1000000000000D-01  5.4179806939957D-01  1.2609521569591D+00
    53  5.2000000000000D-01  5.6485512616663D-01  1.2328218187531D+00
    54  5.3000000000000D-01  5.8847904036915D-01  1.2028879824387D+00
    55  5.4000000000000D-01  6.1264599720753D-01  1.1712191104341D+00
    56  5.5000000000000D-01  6.3732881195675D-01  1.1378870430359D+00
    57  5.6000000000000D-01  6.6249690106071D-01  1.1029668445662D+00
    58  5.7000000000000D-01  6.8811626912944D-01  1.0665366408725D+00
    59  5.8000000000000D-01  7.1414951237772D-01  1.0286774484615D+00
    60  5.9000000000000D-01  7.4055583896504D-01  9.8947299558179D-01
    61  6.0000000000000D-01  7.6729110661394D-01  9.4900953559688D-01
    62  6.1000000000000D-01  7.9430787779765D-01  9.0737565302336D-01
    63  6.2000000000000D-01  8.2155549269817D-01  8.6466206263689D-01
    64  6.3000000000000D-01  8.4898016004435D-01  8.2096140207897D-01
    65  6.4000000000000D-01  8.7652506584470D-01  7.7636801842598D-01
    66  6.5000000000000D-01  9.0413049993390D-01  7.3097774921019D-01
    67  6.6000000000000D-01  9.3173400015470D-01  6.8488769840923D-01
    68  6.7000000000000D-01  9.5927051389897D-01  6.3819600794690D-01
    69  6.8000000000000D-01  9.8667257663341D-01  5.9100162527297D-01
    70  6.9000000000000D-01  1.0138705069378D+00  5.4340406761310D-01
    71  7.0000000000000D-01  1.0407926174868D+00  4.9550318350209D-01
    72  7.1000000000000D-01  1.0673654413117D+00  4.4739891223398D-01
    73  7.2000000000000D-01  1.0935139725828D+00  3.9919104188144D-01
    74  7.3000000000000D-01  1.1191619210662D+00  3.5097896655313D-01
    75  7.4000000000000D-01  1.1442319793169D+00  3.0286144357280D-01
    76  7.5000000000000D-01  1.1686461015893D+00  2.5493635127631D-01
    77  7.6000000000000D-01  1.1923257933644D+00  2.0730044813273D-01
    78  7.7000000000000D-01  1.2151924103179D+00  1.6004913390407D-01
    79  7.8000000000000D-01  1.2371674654838D+00  1.1327621356288D-01
    80  7.9000000000000D-01  1.2581729433025D+00  6.7073664690468D-02
    81  8.0000000000000D-01  1.2781316191845D+00  2.1531409077971D-02
    82  8.1000000000000D-01  1.2969673831674D+00 -2.3262910749532D-02
    83  8.2000000000000D-01  1.3146055661986D+00 -6.7224149371400D-02
    84  8.3000000000000D-01  1.3309732675385D+00 -1.1026986996579D-01
    85  8.4000000000000D-01  1.3459996817458D+00 -1.5232054876462D-01
    86  8.5000000000000D-01  1.3596164236841D+00 -1.9329977178762D-01
    87  8.6000000000000D-01  1.3717578499727D+00 -2.3313442319065D-01
    88  8.7000000000000D-01  1.3823613752975D+00 -2.7175486458324D-01
    89  8.8000000000000D-01  1.3913677819965D+00 -3.0909510469256D-01
    90  8.9000000000000D-01  1.3987215213444D+00 -3.4509295877639D-01
    91  9.0000000000000D-01  1.4043710049776D+00 -3.7969019721564D-01
    92  9.1000000000000D-01  1.4082688849238D+00 -4.1283268274749D-01
    93  9.2000000000000D-01  1.4103723207374D+00 -4.4447049583349D-01
    94  9.3000000000000D-01  1.4106432322789D+00 -4.7455804769278D-01
    95  9.4000000000000D-01  1.4090485367293D+00 -5.0305418056817D-01
    96  9.5000000000000D-01  1.4055603684863D+00 -5.2992225483378D-01
    97  9.6000000000000D-01  1.4001562806517D+00 -5.5513022259451D-01
    98  9.7000000000000D-01  1.3928194268953D+00 -5.7865068747248D-01
    99  9.8000000000000D-01  1.3835387225552D+00 -6.0046095032101D-01
   100  9.9000000000000D-01  1.3723089839230D+00 -6.2054304065560D-01
   101  1.0000000000000D+00  1.3591310447492D+00 -6.3888373363762D-01
   102  1.0100000000000D+00  1.3440118491073D+00 -6.5547455249977D-01
   103  1.0200000000000D+00  1.3269645198505D+00 -6.7031175635122D-01
   104  1.0300000000000D+00  1.3080084020078D+00 -6.8339631335299D-01
   105  1.0400000000000D+00  1.2871690805708D+00 -6.9473385930600D-01
   106  1.0500000000000D+00  1.2644783722459D+00 -7.0433464174839D-01
   107  1.0600000000000D+00  1.2399742908500D+00 -7.1221344970754D-01
   108  1.0700000000000D+00  1.2137009861612D+00 -7.1838952930886D-01
   109  1.0800000000000D+00  1.1857086561504D+00 -7.2288648549314D-01
   110  1.0900000000000D+00  1.1560534326387D+00 -7.2573217014486D-01
   111  1.1000000000000D+00  1.1247972405621D+00 -7.2695855698822D-01
   112  1.1100000000000D+00  1.0920076311189D+00 -7.2660160364732D-01
   113  1.1200000000000D+00  1.0577575892294D+00 -7.2470110132622D-01
   114  1.1300000000000D+00  1.0221253158317D+00 -7.2130051260182D-01
   115  1.1400000000000D+00  9.8519398567335D-01 -7.1644679787261D-01
   116  1.1500000000000D+00  9.4705148134578D-01 -7.1019023103968D-01
   117  1.1600000000000D+00  9.0779010444750D-01 -7.0258420504527D-01
   118  1.1700000000000D+00  8.6750626484914D-01 -6.9368502792531D-01
   119  1.1800000000000D+00  8.2630014915125D-01 -6.8355171007137D-01
   120  1.1900000000000D+00  7.8427536948336D-01 -6.7224574341710D-01
   121  1.2000000000000D+00  7.4153859393282D-01 -6.5983087330886D-01
   122  1.2100000000000D+00  6.9819915994375D-01 -6.4637286383404D-01
   123  1.2200000000000D+00  6.5436867209951D-01 -6.3193925740250D-01
   124  1.2300000000000D+00  6.1016058578151D-01 -6.1659912939802D-01
   125  1.2400000000000D+00  5.6568977826253D-01 -6.0042283873143D-01
   126  1.2500000000000D+00  5.2107210882910D-01 -5.8348177513275D-01
   127  1.2600000000000D+00  4.7642396957428D-01 -5.6584810403114D-01
   128  1.2700000000000D+00  4.3186182855462D-01 -5.4759450987444D-01
   129  1.2800000000000D+00  3.8750176700644D-01 -5.2879393873337D-01
   130  1.2900000000000D+00  3.4345901234849D-01 -5.0951934104244D-01
   131  1.3000000000000D+00  2.9984746870725D-01 -4.8984341530953D-01
   132  1.3100000000000D+00  2.5677924668192D-01 -4.6983835361560D-01
   133  1.3200000000000D+00  2.1436419408944D-01 -4.4957558972727D-01
   134  1.3300000000000D+00  1.7270942936972D-01 -4.2912555059479D-01
   135  1.3400000000000D+00  1.3191887932736D-01 -4.0855741200992D-01
   136  1.3500000000000D+00  9.2092822871849D-02 -3.8793885917718D-01
   137  1.3600000000000D+00  5.3327442287707D-02 -3.6733585287630D-01
   138  1.3700000000000D+00  1.5714383636352D-02 -3.4681240193374D-01
   139  1.3800000000000D+00 -2.0659672261598D-02 -3.2643034262834D-01
   140  1.3900000000000D+00 -5.5713426912139D-02 -3.0624912561066D-01
   141  1.4000000000000D+00 -8.9371367835094D-02 -2.8632561096995D-01
   142  1.4100000000000D+00 -1.2156415776957D-01 -2.6671387188516D-01
   143  1.4200000000000D+00 -1.5222900811707D-01 -2.4746500739964D-01
   144  1.4300000000000D+00 -1.8131003556430D-01 -2.2862696474178D-01
   145  1.4400000000000D+00 -2.0875860105447D-01 -2.1024437150980D-01
   146  1.4500000000000D+00 -2.3453362997161D-01 -1.9235837818017D-01
   147  1.4600000000000D+00 -2.5860191310291D-01 -1.7500651106757D-01
   148  1.4700000000000D+00 -2.8093838744187D-01 -1.5822253610226D-01
   149  1.4800000000000D+00 -3.0152639645393D-01 -1.4203633352635D-01
   150  1.4900000000000D+00 -3.2035792938796D-01 -1.2647378363376D-01
   151  1.5000000000000D+00 -3.3743384806622D-01 -1.1155666106468D-01
   152  1.5100000000000D+00 -3.5276405629608D-01 -9.7302550733339D-02
   153  1.5200000000000D+00 -3.6636772611920D-01 -8.3724752053890D-02
   154  1.5300000000000D+00 -3.7827313932118D-01 -7.0832302381434D-02
   155  1.5400000000000D+00 -3.8851873079426D-01 -5.8629645367979D-02
   156  1.5500000000000D+00 -3.9715248365932D-01 -4.7116798714221D-02
   157  1.5600000000000D+00 -4.0422883195337D-01 -3.6290255487895D-02
   158  1.5700000000000D+00 -4.0980635384686D-01 -2.6143692972519D-02
   159  1.5800000000000D+00 -4.1394462177433D-01 -1.6668965082291D-02
   160  1.5900000000000D+00 -4.1670363217336D-01 -7.8563328616443D-03
   161  1.6000000000000D+00 -4.1814461546664D-01  3.0569802571954D-04
   162  1.6100000000000D+00 -4.1832958443679D-01  7.8301776529555D-03
   163  1.6200000000000D+00 -4.1732128052194D-01  1.4731627251047D-02
   164  1.6300000000000D+00 -4.1518303051477D-01  2.1025928563910D-02
   165  1.6400000000000D+00 -4.1197862105050D-01  2.6730219016225D-02
   166  1.6500000000000D+00 -4.0777216249427D-01  3.1862784428389D-02
   167  1.6600000000000D+00 -4.0262794551515D-01  3.6442950334194D-02
   168  1.6700000000000D+00 -3.9661029267120D-01  4.0490972729873D-02
   169  1.6800000000000D+00 -3.8978340569510D-01  4.4027928523567D-02
   170  1.6900000000000D+00 -3.8221121056039D-01  4.7075606479075D-02
   171  1.7000000000000D+00 -3.7395720058953D-01  4.9656398762775D-02
   172  1.7100000000000D+00 -3.6508427717747D-01  5.1793193099162D-02
   173  1.7200000000000D+00 -3.5565459073552D-01  5.3509266368535D-02
   174  1.7300000000000D+00 -3.4572938373504D-01  5.4828180374996D-02
   175  1.7400000000000D+00 -3.3536883496771D-01  5.5773679496637D-02
   176  1.7500000000000D+00 -3.2463190789424D-01  5.6369591288862D-02
   177  1.7600000000000D+00 -3.1357620291137D-01  5.6639729932271D-02
   178  1.7700000000000D+00 -3.0225781308678D-01  5.6607802534325D-02
   179  1.7800000000000D+00 -2.9073118522728D-01  5.6297318819571D-02
   180  1.7900000000000D+00 -2.7904898875850D-01  5.5731505143731D-02
   181  1.8000000000000D+00 -2.6726199099071D-01  5.4933222306052D-02
   182  1.8100000000000D+00 -2.5541894085075D-01  5.3924887953143D-02
   183  1.8200000000000D+00 -2.4356646091193D-01  5.2728403457651D-02
   184  1.8300000000000D+00 -2.3174894853578D-01  5.1365085611877D-02
   185  1.8400000000000D+00 -2.2000848627291D-01  4.9855603152052D-02
   186  1.8500000000000D+00 -2.0838476260790D-01  4.8219918488809D-02
   187  1.8600000000000D+00 -1.9691500350742D-01  4.6477234802073D-02
   188  1.8700000000000D+00 -1.8563391436053D-01  4.4645948319912D-02
   189  1.8800000000000D+00 -1.7457363366169D-01  4.2743606285726D-02
   190  1.8900000000000D+00 -1.6376369714926D-01  4.0786870070281D-02
   191  1.9000000000000D+00 -1.5323101454165D-01  3.8791484242687D-02
   192  1.9100000000000D+00 -1.4299985669721D-01  3.6772250722110D-02
   193  1.9200000000000D+00 -1.3309185533379D-01  3.4743008812153D-02
   194  1.9300000000000D+00 -1.2352601354241D-01  3.2716620405078D-02
   195  1.9400000000000D+00 -1.1431872803098D-01  3.0704960687348D-02
   196  1.9500000000000D+00 -1.0548382263524D-01  2.8718914140128D-02
   197  1.9600000000000D+00 -9.7032592267978D-02  2.6768375486795D-02
   198  1.9700000000000D+00 -8.8973858387575D-02  2.4862255970179D-02
   199  1.9800000000000D+00 -8.1314033572608D-02  2.3008494012129D-02
   200  1.9900000000000D+00 -7.4057197093907D-02  2.1214070939478D-02
   201  2.0000000000000D+00 -6.7205178942006D-02  1.9485030786968D-02
   202  2.0100000000000D+00 -6.0757653099923D-02  1.7826504440241D-02
   203  2.0200000000000D+00 -5.4712239119344D-02  1.6242737733933D-02
   204  2.0300000000000D+00 -4.9064610817696D-02  1.4737123030919D-02
   205  2.0400000000000D+00 -4.3808612681592D-02  1.3312234461274D-02
   206  2.0500000000000D+00 -3.8936381755142D-02  1.1969865971116D-02
   207  2.0600000000000D+00 -3.4438475626338D-02  1.0711072360493D-02
   208  2.0700000000000D+00 -3.0304004936695D-02  9.5362127042048D-03
   209  2.0800000000000D+00 -2.6520769815990D-02  8.4449958957182D-03
   210  2.0900000000000D+00 -2.3075399748871D-02  7.4365280867726D-03
   211  2.1000000000000D+00 -1.9953495591185D-02  6.5093615419875D-03
   212  2.1100000000000D+00 -1.7139773257168D-02  5.6615446593849D-03
   213  2.1200000000000D+00 -1.4618208152555D-02  4.8906728179030D-03
   214  2.1300000000000D+00 -1.2372179508432D-02  4.1939396918752D-03
   215  2.1400000000000D+00 -1.0384613627516D-02  3.5681886207558D-03
   216  2.1500000000000D+00 -8.6381258796029D-03  3.0099639897893D-03
   217  2.1600000000000D+00 -7.1151595506475D-03  2.5155618284972D-03
   218  2.1700000000000D+00 -5.7981218118020D-03  2.0810797494558D-03
   219  2.1800000000000D+00 -4.6695157827066D-03  1.7024658073627D-03
   220  2.1900000000000D+00 -3.7120669975892D-03  1.3755655916783D-03
   221  2.2000000000000D+00 -2.9088456303012D-03  1.0961680997927D-03
   222  2.2100000000000D+00 -2.2433814935138D-03  8.6004918906114D-04
   223  2.2200000000000D+00 -1.6997724116071D-03  6.6301284455599D-04
   224  2.2300000000000D+00 -1.2627864678956D-03  5.0093045480323D-04
   225  2.2400000000000D+00 -9.1795422385865D-04  3.6977654323958D-04
   226  2.2500000000000D+00 -6.5165441601447D-04  2.6566233594486D-04
   227  2.2600000000000D+00 -4.5119030351528D-04  1.8486604246609D-04
   228  2.2700000000000D+00 -3.0491116468590D-04  1.2385962039827D-04
   229  2.2800000000000D+00 -2.0206524885487D-04  7.9332241964526D-05
   230  2.2900000000000D+00 -1.3301175947875D-04  4.8208519955075D-05
   231  2.3000000000000D+00 -8.8957317234816D-05  2.7634485430170D-05
   232  2.3100000000000D+00 -6.3756619822494D-05  1.5140041764917D-05
   233  2.3200000000000D+00 -5.2132763265235D-05  8.5312355071411D-06
   234  2.3300000000000D+00 -4.8701440598367D-05  5.7838823221195D-06
   235  2.3400000000000D+00 -4.5362417826710D-05  4.7462219289420D-06
   236  2.3500000000000D+00 -3.5467282184168D-05  3.6790252911268D-06
   237  2.3600000000000D+00 -1.9418835033162D-05  2.0526647351931D-06
   238  2.3700000000000D+00 -3.7688688502581D-06  4.1006425018786D-07
   239  2.3800000000000D+00  3.7286761866717D-06 -3.7324615625628D-07
   240  2.3900000000000D+00  3.8631805228056D-06 -3.8858913331817D-07
   241  2.4000000000000D+00  5.5094843505673D-07 -5.5739973484487D-08
   242  2.4100000000000D+00 -8.5341757169291D-07  7.8281333322574D-08
   243  2.4200000000000D+00 -8.2881994936041D-07  7.5535920028320D-08
   244  2.4300000000000D+00 -2.4670418778271D-08  2.2362578698593D-09
   245  2.4400000000000D+00  1.0875124933365D-07 -1.1309874575219D-08
   246  2.4500000000000D+00  9.7661530033441D-08 -1.0156569807428D-08
   247  2.4600000000000D+00  0.0000000000000D+00  0.0000000000000D+00
   248  2.4700000000000D+00  0.0000000000000D+00  0.0000000000000D+00
   249  2.4800000000000D+00  0.0000000000000D+00  0.0000000000000D+00
   250  2.4900000000000D+00  0.0000000000000D+00  0.0000000000000D+00
   251  2.5000000000000D+00  0.0000000000000D+00  0.0000000000000D+00
   252  2.5100000000000D+00  0.0000000000000D+00  0.0000000000000D+00
   253  2.5200000000000D+00  0.0000000000000D+00  0.0000000000000D+00
   254  2.5300000000000D+00  0.0000000000000D+00  0.0000000000000D+00
   255  2.5400000000000D+00  0.0000000000000D+00  0.0000000000000D+00
   256  2.5500000000000D+00  0.0000000000000D+00  0.0000000000000D+00
   257  2.5600000000000D+00  0.0000000000000D+00  0.0000000000000D+00
   258  2.5700000000000D+00  0.0000000000000D+00  0.0000000000000D+00
   259  2.5800000000000D+00  0.0000000000000D+00  0.0000000000000D+00
   260  2.5900000000000D+00  0.0000000000000D+00  0.0000000000000D+00
   261  2.6000000000000D+00  0.0000000000000D+00  0.0000000000000D+00
   262  2.6100000000000D+00  0.0000000000000D+00  0.0000000000000D+00
   263  2.6200000000000D+00  0.0000000000000D+00  0.0000000000000D+00
   264  2.6300000000000D+00  0.0000000000000D+00  0.0000000000000D+00
   265  2.6400000000000D+00  0.0000000000000D+00  0.0000000000000D+00
   266  2.6500000000000D+00  0.0000000000000D+00  0.0000000000000D+00
   267  2.6600000000000D+00  0.0000000000000D+00  0.0000000000000D+00
   268  2.6700000000000D+00  0.0000000000000D+00  0.0000000000000D+00
   269  2.6800000000000D+00  0.0000000000000D+00  0.0000000000000D+00
   270  2.6900000000000D+00  0.0000000000000D+00  0.0000000000000D+00
   271  2.7000000000000D+00  0.0000000000000D+00  0.0000000000000D+00
   272  2.7100000000000D+00  0.0000000000000D+00  0.0000000000000D+00
   273  2.7200000000000D+00  0.0000000000000D+00  0.0000000000000D+00
   274  2.7300000000000D+00  0.0000000000000D+00  0.0000000000000D+00
   275  2.7400000000000D+00  0.0000000000000D+00  0.0000000000000D+00
   276  2.7500000000000D+00  0.0000000000000D+00  0.0000000000000D+00
   277  2.7600000000000D+00  0.0000000000000D+00  0.0000000000000D+00
   278  2.7700000000000D+00  0.0000000000000D+00  0.0000000000000D+00
   279  2.7800000000000D+00  0.0000000000000D+00  0.0000000000000D+00
   280  2.7900000000000D+00  0.0000000000000D+00  0.0000000000000D+00
   281  2.8000000000000D+00  0.0000000000000D+00  0.0000000000000D+00
   282  2.8100000000000D+00  0.0000000000000D+00  0.0000000000000D+00
   283  2.8200000000000D+00  0.0000000000000D+00  0.0000000000000D+00
   284  2.8300000000000D+00  0.0000000000000D+00  0.0000000000000D+00
   285  2.8400000000000D+00  0.0000000000000D+00  0.0000000000000D+00
   286  2.8500000000000D+00  0.0000000000000D+00  0.0000000000000D+00
   287  2.8600000000000D+00  0.0000000000000D+00  0.0000000000000D+00
   288  2.8700000000000D+00  0.0000000000000D+00  0.0000000000000D+00
   289  2.8800000000000D+00  0.0000000000000D+00  0.0000000000000D+00
   290  2.8900000000000D+00  0.0000000000000D+00  0.0000000000000D+00
   291  2.9000000000000D+00  0.0000000000000D+00  0.0000000000000D+00
   292  2.9100000000000D+00  0.0000000000000D+00  0.0000000000000D+00
   293  2.9200000000000D+00  0.0000000000000D+00  0.0000000000000D+00
   294  2.9300000000000D+00  0.0000000000000D+00  0.0000000000000D+00
   295  2.9400000000000D+00  0.0000000000000D+00  0.0000000000000D+00
   296  2.9500000000000D+00  0.0000000000000D+00  0.0000000000000D+00
   297  2.9600000000000D+00  0.0000000000000D+00  0.0000000000000D+00
   298  2.9700000000000D+00  0.0000000000000D+00  0.0000000000000D+00
   299  2.9800000000000D+00  0.0000000000000D+00  0.0000000000000D+00
   300  2.9900000000000D+00  0.0000000000000D+00  0.0000000000000D+00
   301  3.0000000000000D+00  0.0000000000000D+00  0.0000000000000D+00
   302  3.0100000000000D+00  0.0000000000000D+00  0.0000000000000D+00
   303  3.0200000000000D+00  0.0000000000000D+00  0.0000000000000D+00
   304  3.0300000000000D+00  0.0000000000000D+00  0.0000000000000D+00
   305  3.0400000000000D+00  0.0000000000000D+00  0.0000000000000D+00
   306  3.0500000000000D+00  0.0000000000000D+00  0.0000000000000D+00
   307  3.0600000000000D+00  0.0000000000000D+00  0.0000000000000D+00
   308  3.0700000000000D+00  0.0000000000000D+00  0.0000000000000D+00
   309  3.0800000000000D+00  0.0000000000000D+00  0.0000000000000D+00
   310  3.0900000000000D+00  0.0000000000000D+00  0.0000000000000D+00
   311  3.1000000000000D+00  0.0000000000000D+00  0.0000000000000D+00
   312  3.1100000000000D+00  0.0000000000000D+00  0.0000000000000D+00
   313  3.1200000000000D+00  0.0000000000000D+00  0.0000000000000D+00
   314  3.1300000000000D+00  0.0000000000000D+00  0.0000000000000D+00
   315  3.1400000000000D+00  0.0000000000000D+00  0.0000000000000D+00
   316  3.1500000000000D+00  0.0000000000000D+00  0.0000000000000D+00
   317  3.1600000000000D+00  0.0000000000000D+00  0.0000000000000D+00
   318  3.1700000000000D+00  0.0000000000000D+00  0.0000000000000D+00
   319  3.1800000000000D+00  0.0000000000000D+00  0.0000000000000D+00
   320  3.1900000000000D+00  0.0000000000000D+00  0.0000000000000D+00
   321  3.2000000000000D+00  0.0000000000000D+00  0.0000000000000D+00
   322  3.2100000000000D+00  0.0000000000000D+00  0.0000000000000D+00
   323  3.2200000000000D+00  0.0000000000000D+00  0.0000000000000D+00
   324  3.2300000000000D+00  0.0000000000000D+00  0.0000000000000D+00
   325  3.2400000000000D+00  0.0000000000000D+00  0.0000000000000D+00
   326  3.2500000000000D+00  0.0000000000000D+00  0.0000000000000D+00
   327  3.2600000000000D+00  0.0000000000000D+00  0.0000000000000D+00
   328  3.2700000000000D+00  0.0000000000000D+00  0.0000000000000D+00
   329  3.2800000000000D+00  0.0000000000000D+00  0.0000000000000D+00
   330  3.2900000000000D+00  0.0000000000000D+00  0.0000000000000D+00
   331  3.3000000000000D+00  0.0000000000000D+00  0.0000000000000D+00
   332  3.3100000000000D+00  0.0000000000000D+00  0.0000000000000D+00
   333  3.3200000000000D+00  0.0000000000000D+00  0.0000000000000D+00
   334  3.3300000000000D+00  0.0000000000000D+00  0.0000000000000D+00
   335  3.3400000000000D+00  0.0000000000000D+00  0.0000000000000D+00
   336  3.3500000000000D+00  0.0000000000000D+00  0.0000000000000D+00
   337  3.3600000000000D+00  0.0000000000000D+00  0.0000000000000D+00
   338  3.3700000000000D+00  0.0000000000000D+00  0.0000000000000D+00
   339  3.3800000000000D+00  0.0000000000000D+00  0.0000000000000D+00
   340  3.3900000000000D+00  0.0000000000000D+00  0.0000000000000D+00
   341  3.4000000000000D+00  0.0000000000000D+00  0.0000000000000D+00
   342  3.4100000000000D+00  0.0000000000000D+00  0.0000000000000D+00
   343  3.4200000000000D+00  0.0000000000000D+00  0.0000000000000D+00
   344  3.4300000000000D+00  0.0000000000000D+00  0.0000000000000D+00
   345  3.4400000000000D+00  0.0000000000000D+00  0.0000000000000D+00
   346  3.4500000000000D+00  0.0000000000000D+00  0.0000000000000D+00
   347  3.4600000000000D+00  0.0000000000000D+00  0.0000000000000D+00
   348  3.4700000000000D+00  0.0000000000000D+00  0.0000000000000D+00
   349  3.4800000000000D+00  0.0000000000000D+00  0.0000000000000D+00
   350  3.4900000000000D+00  0.0000000000000D+00  0.0000000000000D+00
   351  3.5000000000000D+00  0.0000000000000D+00  0.0000000000000D+00
   352  3.5100000000000D+00  0.0000000000000D+00  0.0000000000000D+00
   353  3.5200000000000D+00  0.0000000000000D+00  0.0000000000000D+00
   354  3.5300000000000D+00  0.0000000000000D+00  0.0000000000000D+00
   355  3.5400000000000D+00  0.0000000000000D+00  0.0000000000000D+00
   356  3.5500000000000D+00  0.0000000000000D+00  0.0000000000000D+00
   357  3.5600000000000D+00  0.0000000000000D+00  0.0000000000000D+00
   358  3.5700000000000D+00  0.0000000000000D+00  0.0000000000000D+00
   359  3.5800000000000D+00  0.0000000000000D+00  0.0000000000000D+00
   360  3.5900000000000D+00  0.0000000000000D+00  0.0000000000000D+00
   361  3.6000000000000D+00  0.0000000000000D+00  0.0000000000000D+00
   362  3.6100000000000D+00  0.0000000000000D+00  0.0000000000000D+00
   363  3.6200000000000D+00  0.0000000000000D+00  0.0000000000000D+00
   364  3.6300000000000D+00  0.0000000000000D+00  0.0000000000000D+00
   365  3.6400000000000D+00  0.0000000000000D+00  0.0000000000000D+00
   366  3.6500000000000D+00  0.0000000000000D+00  0.0000000000000D+00
   367  3.6600000000000D+00  0.0000000000000D+00  0.0000000000000D+00
   368  3.6700000000000D+00  0.0000000000000D+00  0.0000000000000D+00
   369  3.6800000000000D+00  0.0000000000000D+00  0.0000000000000D+00
   370  3.6900000000000D+00  0.0000000000000D+00  0.0000000000000D+00
   371  3.7000000000000D+00  0.0000000000000D+00  0.0000000000000D+00
   372  3.7100000000000D+00  0.0000000000000D+00  0.0000000000000D+00
   373  3.7200000000000D+00  0.0000000000000D+00  0.0000000000000D+00
   374  3.7300000000000D+00  0.0000000000000D+00  0.0000000000000D+00
   375  3.7400000000000D+00  0.0000000000000D+00  0.0000000000000D+00
   376  3.7500000000000D+00  0.0000000000000D+00  0.0000000000000D+00
   377  3.7600000000000D+00  0.0000000000000D+00  0.0000000000000D+00
   378  3.7700000000000D+00  0.0000000000000D+00  0.0000000000000D+00
   379  3.7800000000000D+00  0.0000000000000D+00  0.0000000000000D+00
   380  3.7900000000000D+00  0.0000000000000D+00  0.0000000000000D+00
   381  3.8000000000000D+00  0.0000000000000D+00  0.0000000000000D+00
   382  3.8100000000000D+00  0.0000000000000D+00  0.0000000000000D+00
   383  3.8200000000000D+00  0.0000000000000D+00  0.0000000000000D+00
   384  3.8300000000000D+00  0.0000000000000D+00  0.0000000000000D+00
   385  3.8400000000000D+00  0.0000000000000D+00  0.0000000000000D+00
   386  3.8500000000000D+00  0.0000000000000D+00  0.0000000000000D+00
   387  3.8600000000000D+00  0.0000000000000D+00  0.0000000000000D+00
   388  3.8700000000000D+00  0.0000000000000D+00  0.0000000000000D+00
   389  3.8800000000000D+00  0.0000000000000D+00  0.0000000000000D+00
   390  3.8900000000000D+00  0.0000000000000D+00  0.0000000000000D+00
   391  3.9000000000000D+00  0.0000000000000D+00  0.0000000000000D+00
   392  3.9100000000000D+00  0.0000000000000D+00  0.0000000000000D+00
   393  3.9200000000000D+00  0.0000000000000D+00  0.0000000000000D+00
   394  3.9300000000000D+00  0.0000000000000D+00  0.0000000000000D+00
   395  3.9400000000000D+00  0.0000000000000D+00  0.0000000000000D+00
   396  3.9500000000000D+00  0.0000000000000D+00  0.0000000000000D+00
   397  3.9600000000000D+00  0.0000000000000D+00  0.0000000000000D+00
   398  3.9700000000000D+00  0.0000000000000D+00  0.0000000000000D+00
   399  3.9800000000000D+00  0.0000000000000D+00  0.0000000000000D+00
   400  3.9900000000000D+00  0.0000000000000D+00  0.0000000000000D+00
   401  4.0000000000000D+00  0.0000000000000D+00  0.0000000000000D+00
   402  4.0100000000000D+00  0.0000000000000D+00  0.0000000000000D+00
   403  4.0200000000000D+00  0.0000000000000D+00  0.0000000000000D+00
   404  4.0300000000000D+00  0.0000000000000D+00  0.0000000000000D+00
   405  4.0400000000000D+00  0.0000000000000D+00  0.0000000000000D+00
   406  4.0500000000000D+00  0.0000000000000D+00  0.0000000000000D+00
   407  4.0600000000000D+00  0.0000000000000D+00  0.0000000000000D+00
   408  4.0700000000000D+00  0.0000000000000D+00  0.0000000000000D+00
   409  4.0800000000000D+00  0.0000000000000D+00  0.0000000000000D+00
   410  4.0900000000000D+00  0.0000000000000D+00  0.0000000000000D+00
   411  4.1000000000000D+00  0.0000000000000D+00  0.0000000000000D+00
   412  4.1100000000000D+00  0.0000000000000D+00  0.0000000000000D+00
   413  4.1200000000000D+00  0.0000000000000D+00  0.0000000000000D+00
   414  4.1300000000000D+00  0.0000000000000D+00  0.0000000000000D+00
   415  4.1400000000000D+00  0.0000000000000D+00  0.0000000000000D+00
   416  4.1500000000000D+00  0.0000000000000D+00  0.0000000000000D+00
   417  4.1600000000000D+00  0.0000000000000D+00  0.0000000000000D+00
   418  4.1700000000000D+00  0.0000000000000D+00  0.0000000000000D+00
   419  4.1800000000000D+00  0.0000000000000D+00  0.0000000000000D+00
   420  4.1900000000000D+00  0.0000000000000D+00  0.0000000000000D+00
   421  4.2000000000000D+00  0.0000000000000D+00  0.0000000000000D+00
   422  4.2100000000000D+00  0.0000000000000D+00  0.0000000000000D+00