Hg    ONCVPSP-3.3.1  r_core=   2.34483   2.34483   2.18287   3.27466
     80.0000     20.0000      210905    zatom,zion,pspd
     8 -116133   3     4   600     0    pspcod,pspxc,lmax,lloc,mmax,r2well
  5.99000000  0.00000000  0.00000000    rchrg fchrg qchrg
     2     2     2     2     0    nproj
     1     1           extension_switch
   0                         4.5660829856126D+00  6.4863746743069D-01
     1  0.0000000000000D+00  9.1332497120789D-13 -2.1316524934090D-11
     2  1.0000000000000D-02  5.9198929358751D-02  5.3938823973513D-03
     3  2.0000000000000D-02  1.1829647790745D-01  1.0794140371878D-02
     4  3.0000000000000D-02  1.7719144806244D-01  1.6207236789639D-02
     5  4.0000000000000D-02  2.3578300843813D-01  2.1639808236413D-02
     6  5.0000000000000D-02  2.9397087630919D-01  2.7098749737821D-02
     7  6.0000000000000D-02  3.5165549930760D-01  3.2591296926856D-02
     8  7.0000000000000D-02  4.0873823609877D-01  3.8125104833050D-02
     9  8.0000000000000D-02  4.6512153577937D-01  4.3708322488782D-02
    10  9.0000000000000D-02  5.2070911573902D-01  4.9349662574716D-02
    11  1.0000000000000D-01  5.7540613772607D-01  5.5058465357763D-02
    12  1.1000000000000D-01  6.2911938185674D-01  6.0844756211216D-02
    13  1.2000000000000D-01  6.8175741830514D-01  6.6719296047539D-02
    14  1.3000000000000D-01  7.3323077640982D-01  7.2693624039618D-02
    15  1.4000000000000D-01  7.8345211093113D-01  7.8780092055694D-02
    16  1.5000000000000D-01  8.3233636519174D-01  8.4991890286558D-02
    17  1.6000000000000D-01  8.7980093083106D-01  9.1343063600569D-02
    18  1.7000000000000D-01  9.2576580390251D-01  9.7848518222423D-02
    19  1.8000000000000D-01  9.7015373704151D-01  1.0452401839470D-01
    20  1.9000000000000D-01  1.0128903874303D+00  1.1138617274747D-01
    21  2.0000000000000D-01  1.0539044602850D+00  1.1845241016917D-01
    22  2.1000000000000D-01  1.0931278475894D+00  1.2574094504244D-01
    23  2.2000000000000D-01  1.1304957617991D+00  1.3327073177999D-01
    24  2.3000000000000D-01  1.1659468642416D+00  1.4106140866876D-01
    25  2.4000000000000D-01  1.1994233879346D+00  1.4913323110407D-01
    26  2.5000000000000D-01  1.2308712545500D+00  1.5750699436932D-01
    27  2.6000000000000D-01  1.2602401852503D+00  1.6620394619083D-01
    28  2.7000000000000D-01  1.2874838051256D+00  1.7524568937072D-01
    29  2.8000000000000D-01  1.3125597409654D+00  1.8465407487286D-01
    30  2.9000000000000D-01  1.3354297120993D+00  1.9445108580856D-01
    31  3.0000000000000D-01  1.3560596140491D+00  2.0465871283730D-01
    32  3.1000000000000D-01  1.3744195947360D+00  2.1529882156555D-01
    33  3.2000000000000D-01  1.3904841229969D+00  2.2639301259083D-01
    34  3.3000000000000D-01  1.4042320491680D+00  2.3796247490009D-01
    35  3.4000000000000D-01  1.4156466575049D+00  2.5002783338942D-01
    36  3.5000000000000D-01  1.4247157102142D+00  2.6260899132683D-01
    37  3.6000000000000D-01  1.4314314828859D+00  2.7572496863025D-01
    38  3.7000000000000D-01  1.4357907911249D+00  2.8939373687892D-01
    39  3.8000000000000D-01  1.4377950081931D+00  3.0363205201745D-01
    40  3.9000000000000D-01  1.4374500734877D+00  3.1845528574855D-01
    41  4.0000000000000D-01  1.4347664916970D+00  3.3387725664106D-01
    42  4.1000000000000D-01  1.4297593224888D+00  3.4991006200557D-01
    43  4.2000000000000D-01  1.4224481606073D+00  3.6656391160966D-01
    44  4.3000000000000D-01  1.4128571062699D+00  3.8384696431856D-01
    45  4.4000000000000D-01  1.4010147257766D+00  4.0176516875474D-01
    46  4.5000000000000D-01  1.3869540022660D+00  4.2032210907155D-01
    47  4.6000000000000D-01  1.3707122765715D+00  4.3951885693108D-01
    48  4.7000000000000D-01  1.3523311781581D+00  4.5935383076531D-01
    49  4.8000000000000D-01  1.3318565461403D+00  4.7982266338209D-01
    50  4.9000000000000D-01  1.3093383404101D+00  5.0091807895324D-01
    51  5.0000000000000D-01  1.2848305429276D+00  5.2262978039234D-01
    52  5.1000000000000D-01  1.2583910492556D+00  5.4494434809227D-01
    53  5.2000000000000D-01  1.2300815504456D+00  5.6784515095078D-01
    54  5.3000000000000D-01  1.1999674054121D+00  5.9131227056281D-01
    55  5.4000000000000D-01  1.1681175039609D+00  6.1532243940402D-01
    56  5.5000000000000D-01  1.1346041206664D+00  6.3984899377006D-01
    57  5.6000000000000D-01  1.0995027598224D+00  6.6486184216968D-01
    58  5.7000000000000D-01  1.0628919917230D+00  6.9032744980028D-01
    59  5.8000000000000D-01  1.0248532805576D+00  7.1620883965799D-01
    60  5.9000000000000D-01  9.8547080423839D-01  7.4246561075551D-01
    61  6.0000000000000D-01  9.4483126650452D-01  7.6905397383646D-01
    62  6.1000000000000D-01  9.0302370168246D-01  7.9592680488781D-01
    63  6.2000000000000D-01  8.6013927250744D-01  8.2303371666147D-01
    64  6.3000000000000D-01  8.1627106144344D-01  8.5032114832230D-01
    65  6.4000000000000D-01  7.7151385596634D-01  8.7773247324467D-01
    66  6.5000000000000D-01  7.2596392830367D-01  9.0520812488211D-01
    67  6.6000000000000D-01  6.7971881015119D-01  9.3268574053558D-01
    68  6.7000000000000D-01  6.3287706291285D-01  9.6010032274737D-01
    69  6.8000000000000D-01  5.8553804403531D-01  9.8738441794734D-01
    70  6.9000000000000D-01  5.3780167003199D-01  1.0144683118789D+00
    71  7.0000000000000D-01  4.8976817681346D-01  1.0412802412353D+00
    72  7.1000000000000D-01  4.4153787796131D-01  1.0677466208371D+00
    73  7.2000000000000D-01  3.9321092160154D-01  1.0937922855913D+00
    74  7.3000000000000D-01  3.4488704654970D-01  1.1193407463750D+00
    75  7.4000000000000D-01  2.9666533841509D-01  1.1443144589020D+00
    76  7.5000000000000D-01  2.4864398636348D-01  1.1686351045428D+00
    77  7.6000000000000D-01  2.0092004124809D-01  1.1922238819883D+00
    78  7.7000000000000D-01  1.5358917582633D-01  1.2150018085685D+00
    79  7.8000000000000D-01  1.0674544778497D-01  1.2368900299711D+00
    80  7.9000000000000D-01  6.0481066299318D-02  1.2578101370320D+00
    81  8.0000000000000D-01  1.4886162851749D-02  1.2776844882164D+00
    82  8.1000000000000D-01 -2.9951432967701D-02  1.2964365363509D+00
    83  8.2000000000000D-01 -7.3946411961333D-02  1.3139911581237D+00
    84  8.3000000000000D-01 -1.1701619741552D-01  1.3302749848288D+00
    85  8.4000000000000D-01 -1.5908115008645D-01  1.3452167327968D+00
    86  8.5000000000000D-01 -2.0006476539623D-01  1.3587475319355D+00
    87  8.6000000000000D-01 -2.3989386217260D-01  1.3708012507794D+00
    88  8.7000000000000D-01 -2.7849876228538D-01  1.3813148164476D+00
    89  8.8000000000000D-01 -3.1581346055540D-01  1.3902285279013D+00
    90  8.9000000000000D-01 -3.5177578433704D-01  1.3974863609067D+00
    91  9.0000000000000D-01 -3.8632754220392D-01  1.4030362631222D+00
    92  9.1000000000000D-01 -4.1941466119775D-01  1.4068304377545D+00
    93  9.2000000000000D-01 -4.5098731213417D-01  1.4088256142626D+00
    94  9.3000000000000D-01 -4.8100002249510D-01  1.4089833046290D+00
    95  9.4000000000000D-01 -5.0941177647544D-01  1.4072700437670D+00
    96  9.5000000000000D-01 -5.3618610179252D-01  1.4036576126915D+00
    97  9.6000000000000D-01 -5.6129114290915D-01  1.3981232431443D+00
    98  9.7000000000000D-01 -5.8469972036576D-01  1.3906498024394D+00
    99  9.8000000000000D-01 -6.0638937596316D-01  1.3812259573693D+00
   100  9.9000000000000D-01 -6.2634240358628D-01  1.3698463161057D+00
   101  1.0000000000000D+00 -6.4454586550591D-01  1.3565115471125D+00
   102  1.0100000000000D+00 -6.6099159404924D-01  1.3412284741924D+00
   103  1.0200000000000D+00 -6.7567617857860D-01  1.3240101468906D+00
   104  1.0300000000000D+00 -6.8860093777121D-01  1.3048758855855D+00
   105  1.0400000000000D+00 -6.9977187724453D-01  1.2838513007081D+00
   106  1.0500000000000D+00 -7.0919963262642D-01  1.2609682856528D+00
   107  1.0600000000000D+00 -7.1689939821805D-01  1.2362649830500D+00
   108  1.0700000000000D+00 -7.2289084145487D-01  1.2097857242024D+00
   109  1.0800000000000D+00 -7.2719800342017D-01  1.1815809416048D+00
   110  1.0900000000000D+00 -7.2984918571740D-01  1.1517070545887D+00
   111  1.1000000000000D+00 -7.3087682406124D-01  1.1202263282674D+00
   112  1.1100000000000D+00 -7.3031734898756D-01  1.0872067060576D+00
   113  1.1200000000000D+00 -7.2821103414199D-01  1.0527216162028D+00
   114  1.1300000000000D+00 -7.2460183264386D-01  1.0168497528279D+00
   115  1.1400000000000D+00 -7.1953720207288D-01  9.7967483218324D-01
   116  1.1500000000000D+00 -7.1306791865897D-01  9.4128532483132D-01
   117  1.1600000000000D+00 -7.0524788130493D-01  9.0177416466594D-01
   118  1.1700000000000D+00 -6.9613390610297D-01  8.6123843574493D-01
   119  1.1800000000000D+00 -6.8578551204469D-01  8.1977903803472D-01
   120  1.1900000000000D+00 -6.7426469864436D-01  7.7750033322466D-01
   121  1.2000000000000D+00 -6.6163571623959D-01  7.3450977191063D-01
   122  1.2100000000000D+00 -6.4796482974755D-01  6.9091750349986D-01
   123  1.2200000000000D+00 -6.3332007667657D-01  6.4683597026353D-01
   124  1.2300000000000D+00 -6.1777102021471D-01  6.0237948704364D-01
   125  1.2400000000000D+00 -6.0138849823114D-01  5.5766380818765D-01
   126  1.2500000000000D+00 -5.8424436903233D-01  5.1280568332110D-01
   127  1.2600000000000D+00 -5.6641125472596D-01  4.6792240361585D-01
   128  1.2700000000000D+00 -5.4796228304855D-01  4.2313134026546D-01
   129  1.2800000000000D+00 -5.2897082850604D-01  3.7854947688044D-01
   130  1.2900000000000D+00 -5.0951025368307D-01  3.3429293754846D-01
   131  1.3000000000000D+00 -4.8965365155693D-01  2.9047651231480D-01
   132  1.3100000000000D+00 -4.6947358964099D-01  2.4721318181895D-01
   133  1.3200000000000D+00 -4.4904185678392D-01  2.0461364284646D-01
   134  1.3300000000000D+00 -4.2842921340023D-01  1.6278583649567D-01
   135  1.3400000000000D+00 -4.0770514590969D-01  1.2183448065432D-01
   136  1.3500000000000D+00 -3.8693762614194D-01  8.1860608467252D-02
   137  1.3600000000000D+00 -3.6619287638620D-01  4.2961114344823D-02
   138  1.3700000000000D+00 -3.4553514080664D-01  5.2283091324410D-03
   139  1.3800000000000D+00 -3.2502646385016D-01 -3.1250514092397D-02
   140  1.3900000000000D+00 -3.0472647622770D-01 -6.6393502227462D-02
   141  1.4000000000000D+00 -2.8469218910492D-01 -1.0012465087303D-01
   142  1.4100000000000D+00 -2.6497779693907D-01 -1.3237419848152D-01
   143  1.4200000000000D+00 -2.4563448950311D-01 -1.6307900463282D-01
   144  1.4300000000000D+00 -2.2671027351974D-01 -1.9218291136333D-01
   145  1.4400000000000D+00 -2.0824980422342D-01 -2.1963708670551D-01
   146  1.4500000000000D+00 -1.9029422731054D-01 -2.4540034928782D-01
   147  1.4600000000000D+00 -1.7288103140454D-01 -2.6943947355193D-01
   148  1.4700000000000D+00 -1.5604391140189D-01 -2.9172947463724D-01
   149  1.4800000000000D+00 -1.3981264279915D-01 -3.1225387254704D-01
   150  1.4900000000000D+00 -1.2421296712494D-01 -3.3100493517201D-01
   151  1.5000000000000D+00 -1.0926648594556D-01 -3.4798390876379D-01
   152  1.5100000000000D+00 -9.4990576726247D-02 -3.6320119014794D-01
   153  1.5200000000000D+00 -8.1398296688112D-02 -3.7667655706068D-01
   154  1.5300000000000D+00 -6.8498407586101D-02 -3.8843900670029D-01
   155  1.5400000000000D+00 -5.6295039894681D-02 -3.9852781890990D-01
   156  1.5500000000000D+00 -4.4787863822698D-02 -4.0699194039693D-01
   157  1.5600000000000D+00 -3.3973005234251D-02 -4.1388682936563D-01
   158  1.5700000000000D+00 -2.3843765296974D-02 -4.1927210693213D-01
   159  1.5800000000000D+00 -1.4391627362548D-02 -4.2320835063225D-01
   160  1.5900000000000D+00 -5.6064901280042D-03 -4.2575651631305D-01
   161  1.6000000000000D+00  2.5234985966380D-03 -4.2697876680611D-01
   162  1.6100000000000D+00  1.0011740248542D-02 -4.2693801491965D-01
   163  1.6200000000000D+00  1.6873100830167D-02 -4.2569787204973D-01
   164  1.6300000000000D+00  2.3123799732495D-02 -4.2332250529606D-01
   165  1.6400000000000D+00  2.8781304484466D-02 -4.1987651267056D-01
   166  1.6500000000000D+00  3.3864223146964D-02 -4.1542478784372D-01
   167  1.6600000000000D+00  3.8392195233401D-02 -4.1003237717048D-01
   168  1.6700000000000D+00  4.2385782201339D-02 -4.0376433200189D-01
   169  1.6800000000000D+00  4.5866357748893D-02 -3.9668555688364D-01
   170  1.6900000000000D+00  4.8855998046132D-02 -3.8886065361296D-01
   171  1.7000000000000D+00  5.1377372643576D-02 -3.8035376342744D-01
   172  1.7100000000000D+00  5.3453636640449D-02 -3.7122840876509D-01
   173  1.7200000000000D+00  5.5108324062799D-02 -3.6154733438710D-01
   174  1.7300000000000D+00  5.6365243535849D-02 -3.5137235082253D-01
   175  1.7400000000000D+00  5.7248376143739D-02 -3.4076417988423D-01
   176  1.7500000000000D+00  5.7781775268645D-02 -3.2978230113045D-01
   177  1.7600000000000D+00  5.7989469265684D-02 -3.1848480210454D-01
   178  1.7700000000000D+00  5.7895367994399D-02 -3.0692823510542D-01
   179  1.7800000000000D+00  5.7523172497458D-02 -2.9516747845458D-01
   180  1.7900000000000D+00  5.6896288908536D-02 -2.8325560517206D-01
   181  1.8000000000000D+00  5.6037746380094D-02 -2.7124375865421D-01
   182  1.8100000000000D+00  5.4970119325691D-02 -2.5918103590594D-01
   183  1.8200000000000D+00  5.3715454058555D-02 -2.4711437876643D-01
   184  1.8300000000000D+00  5.2295200519288D-02 -2.3508847503868D-01
   185  1.8400000000000D+00  5.0730148956740D-02 -2.2314566920787D-01
   186  1.8500000000000D+00  4.9040371741477D-02 -2.1132588323577D-01
   187  1.8600000000000D+00  4.7245170517744D-02 -1.9966654804300D-01
   188  1.8700000000000D+00  4.5363028611669D-02 -1.8820254557447D-01
   189  1.8800000000000D+00  4.3411569177498D-02 -1.7696616273784D-01
   190  1.8900000000000D+00  4.1407518504880D-02 -1.6598705582352D-01
   191  1.9000000000000D+00  3.9366675316764D-02 -1.5529222760894D-01
   192  1.9100000000000D+00  3.7303885177395D-02 -1.4490601496117D-01
   193  1.9200000000000D+00  3.5233020813965D-02 -1.3485008909207D-01
   194  1.9300000000000D+00  3.3166967634602D-02 -1.2514346668287D-01
   195  1.9400000000000D+00  3.1117614775278D-02 -1.1580253282585D-01
   196  1.9500000000000D+00  2.9095851467511D-02 -1.0684107531716D-01
   197  1.9600000000000D+00  2.7111568376382D-02 -9.8270329463731D-02
   198  1.9700000000000D+00  2.5173664292851D-02 -9.0099034499314D-02
   199  1.9800000000000D+00  2.3290057227415D-02 -8.2333499170749D-02
   200  1.9900000000000D+00  2.1467700591792D-02 -7.4977678408645D-02
   201  2.0000000000000D+00  1.9712603473661D-02 -6.8033258513486D-02
   202  2.0100000000000D+00  1.8029855267947D-02 -6.1499751657610D-02
   203  2.0200000000000D+00  1.6423654277119D-02 -5.5374598752085D-02
   204  2.0300000000000D+00  1.4897339803585D-02 -4.9653279484251D-02
   205  2.0400000000000D+00  1.3453427912478D-02 -4.4329430119724D-02
   206  2.0500000000000D+00  1.2093650010797D-02 -3.9394966823685D-02
   207  2.0600000000000D+00  1.0818994421392D-02 -3.4840215123497D-02
   208  2.0700000000000D+00  9.6297503427193D-03 -3.0654043921383D-02
   209  2.0800000000000D+00  8.5255539323667D-03 -2.6824003453925D-02
   210  2.0900000000000D+00  7.5054362846611D-03 -2.3336466701466D-02
   211  2.1000000000000D+00  6.5678728199893D-03 -2.0176772951642D-02
   212  2.1100000000000D+00  5.7108338331646D-03 -1.7329373035322D-02
   213  2.1200000000000D+00  4.9318358612746D-03 -1.4777975300197D-02
   214  2.1300000000000D+00  4.2279935080127D-03 -1.2505691469214D-02
   215  2.1400000000000D+00  3.5960713096357D-03 -1.0495181386341D-02
   216  2.1500000000000D+00  3.0325355994502D-03 -8.7287964846413D-03
   217  2.1600000000000D+00  2.5336055708713D-03 -7.1887200630932D-03
   218  2.1700000000000D+00  2.0953036638136D-03 -5.8571046412683D-03
   219  2.1800000000000D+00  1.7135048514810D-03 -4.7162053563773D-03
   220  2.1900000000000D+00  1.3839841358318D-03 -3.7485076946971D-03
   221  2.2000000000000D+00  1.1024628037640D-03 -2.9368509276279D-03
   222  2.2100000000000D+00  8.6465223349335D-04 -2.2645442378988D-03
   223  2.2200000000000D+00  6.6629549037137D-04 -1.7154761420279D-03
   224  2.2300000000000D+00  5.0320690624838D-04 -1.2742177153174D-03
   225  2.2400000000000D+00  3.7130807925083D-04 -9.2611567781360D-04
   226  2.2500000000000D+00  2.6666168491751D-04 -6.5737888314718D-04
   227  2.2600000000000D+00  1.8550196790433D-04 -4.5515535504453D-04
   228  2.2700000000000D+00  1.2426195062744D-04 -3.0765564196376D-04
   229  2.2800000000000D+00  7.9596055738976D-05 -2.0400151172053D-04
   230  2.2900000000000D+00  4.8399273992842D-05 -1.3444217997742D-04
   231  2.3000000000000D+00  2.7792232237267D-05 -9.0084978571225D-05
   232  2.3100000000000D+00  1.5289999197139D-05 -6.4732791763600D-05
   233  2.3200000000000D+00  8.6875721046034D-06 -5.3066179212725D-05
   234  2.3300000000000D+00  5.9502123091966D-06 -4.9648274451097D-05
   235  2.3400000000000D+00  4.9074759771602D-06 -4.6265114444149D-05
   236  2.3500000000000D+00  3.8056457803329D-06 -3.6173324396164D-05
   237  2.3600000000000D+00  2.1217816918282D-06 -1.9803752569857D-05
   238  2.3700000000000D+00  4.2338835498461D-07 -3.8431271095454D-06
   239  2.3800000000000D+00 -3.8674843815664D-07  3.8032863102559D-06
   240  2.3900000000000D+00 -4.0257665623023D-07  3.9403966373089D-06
   241  2.4000000000000D+00 -5.7733682904122D-08  5.6194714999036D-07
   242  2.4100000000000D+00  8.1419179832411D-08 -8.7076318388616D-07
   243  2.4200000000000D+00  7.8587885416968D-08 -8.4568220570343D-07
   244  2.4300000000000D+00  2.3272148018922D-09 -2.5172747009205D-08
   245  2.4400000000000D+00 -1.1697292558385D-08  1.1091635179389D-07
   246  2.4500000000000D+00 -1.0504481516308D-08  9.9605849940037D-08
   247  2.4600000000000D+00  0.0000000000000D+00  0.0000000000000D+00
   248  2.4700000000000D+00  0.0000000000000D+00  0.0000000000000D+00
   249  2.4800000000000D+00  0.0000000000000D+00  0.0000000000000D+00
   250  2.4900000000000D+00  0.0000000000000D+00  0.0000000000000D+00
   251  2.5000000000000D+00  0.0000000000000D+00  0.0000000000000D+00
   252  2.5100000000000D+00  0.0000000000000D+00  0.0000000000000D+00
   253  2.5200000000000D+00  0.0000000000000D+00  0.0000000000000D+00
   254  2.5300000000000D+00  0.0000000000000D+00  0.0000000000000D+00
   255  2.5400000000000D+00  0.0000000000000D+00  0.0000000000000D+00
   256  2.5500000000000D+00  0.0000000000000D+00  0.0000000000000D+00
   257  2.5600000000000D+00  0.0000000000000D+00  0.0000000000000D+00
   258  2.5700000000000D+00  0.0000000000000D+00  0.0000000000000D+00
   259  2.5800000000000D+00  0.0000000000000D+00  0.0000000000000D+00
   260  2.5900000000000D+00  0.0000000000000D+00  0.0000000000000D+00
   261  2.6000000000000D+00  0.0000000000000D+00  0.0000000000000D+00
   262  2.6100000000000D+00  0.0000000000000D+00  0.0000000000000D+00
   263  2.6200000000000D+00  0.0000000000000D+00  0.0000000000000D+00
   264  2.6300000000000D+00  0.0000000000000D+00  0.0000000000000D+00
   265  2.6400000000000D+00  0.0000000000000D+00  0.0000000000000D+00
   266  2.6500000000000D+00  0.0000000000000D+00  0.0000000000000D+00
   267  2.6600000000000D+00  0.0000000000000D+00  0.0000000000000D+00
   268  2.6700000000000D+00  0.0000000000000D+00  0.0000000000000D+00
   269  2.6800000000000D+00  0.0000000000000D+00  0.0000000000000D+00
   270  2.6900000000000D+00  0.0000000000000D+00  0.0000000000000D+00
   271  2.7000000000000D+00  0.0000000000000D+00  0.0000000000000D+00
   272  2.7100000000000D+00  0.0000000000000D+00  0.0000000000000D+00
   273  2.7200000000000D+00  0.0000000000000D+00  0.0000000000000D+00
   274  2.7300000000000D+00  0.0000000000000D+00  0.0000000000000D+00
   275  2.7400000000000D+00  0.0000000000000D+00  0.0000000000000D+00
   276  2.7500000000000D+00  0.0000000000000D+00  0.0000000000000D+00
   277  2.7600000000000D+00  0.0000000000000D+00  0.0000000000000D+00
   278  2.7700000000000D+00  0.0000000000000D+00  0.0000000000000D+00
   279  2.7800000000000D+00  0.0000000000000D+00  0.0000000000000D+00
   280  2.7900000000000D+00  0.0000000000000D+00  0.0000000000000D+00
   281  2.8000000000000D+00  0.0000000000000D+00  0.0000000000000D+00
   282  2.8100000000000D+00  0.0000000000000D+00  0.0000000000000D+00
   283  2.8200000000000D+00  0.0000000000000D+00  0.0000000000000D+00
   284  2.8300000000000D+00  0.0000000000000D+00  0.0000000000000D+00
   285  2.8400000000000D+00  0.0000000000000D+00  0.0000000000000D+00
   286  2.8500000000000D+00  0.0000000000000D+00  0.0000000000000D+00
   287  2.8600000000000D+00  0.0000000000000D+00  0.0000000000000D+00
   288  2.8700000000000D+00  0.0000000000000D+00  0.0000000000000D+00
   289  2.8800000000000D+00  0.0000000000000D+00  0.0000000000000D+00
   290  2.8900000000000D+00  0.0000000000000D+00  0.0000000000000D+00
   291  2.9000000000000D+00  0.0000000000000D+00  0.0000000000000D+00
   292  2.9100000000000D+00  0.0000000000000D+00  0.0000000000000D+00
   293  2.9200000000000D+00  0.0000000000000D+00  0.0000000000000D+00
   294  2.9300000000000D+00  0.0000000000000D+00  0.0000000000000D+00
   295  2.9400000000000D+00  0.0000000000000D+00  0.0000000000000D+00
   296  2.9500000000000D+00  0.0000000000000D+00  0.0000000000000D+00
   297  2.9600000000000D+00  0.0000000000000D+00  0.0000000000000D+00
   298  2.9700000000000D+00  0.0000000000000D+00  0.0000000000000D+00
   299  2.9800000000000D+00  0.0000000000000D+00  0.0000000000000D+00
   300  2.9900000000000D+00  0.0000000000000D+00  0.0000000000000D+00
   301  3.0000000000000D+00  0.0000000000000D+00  0.0000000000000D+00
   302  3.0100000000000D+00  0.0000000000000D+00  0.0000000000000D+00
   303  3.0200000000000D+00  0.0000000000000D+00  0.0000000000000D+00
   304  3.0300000000000D+00  0.0000000000000D+00  0.0000000000000D+00
   305  3.0400000000000D+00  0.0000000000000D+00  0.0000000000000D+00
   306  3.0500000000000D+00  0.0000000000000D+00  0.0000000000000D+00
   307  3.0600000000000D+00  0.0000000000000D+00  0.0000000000000D+00
   308  3.0700000000000D+00  0.0000000000000D+00  0.0000000000000D+00
   309  3.0800000000000D+00  0.0000000000000D+00  0.0000000000000D+00
   310  3.0900000000000D+00  0.0000000000000D+00  0.0000000000000D+00
   311  3.1000000000000D+00  0.0000000000000D+00  0.0000000000000D+00
   312  3.1100000000000D+00  0.0000000000000D+00  0.0000000000000D+00
   313  3.1200000000000D+00  0.0000000000000D+00  0.0000000000000D+00
   314  3.1300000000000D+00  0.0000000000000D+00  0.0000000000000D+00
   315  3.1400000000000D+00  0.0000000000000D+00  0.0000000000000D+00
   316  3.1500000000000D+00  0.0000000000000D+00  0.0000000000000D+00
   317  3.1600000000000D+00  0.0000000000000D+00  0.0000000000000D+00
   318  3.1700000000000D+00  0.0000000000000D+00  0.0000000000000D+00
   319  3.1800000000000D+00  0.0000000000000D+00  0.0000000000000D+00
   320  3.1900000000000D+00  0.0000000000000D+00  0.0000000000000D+00
   321  3.2000000000000D+00  0.0000000000000D+00  0.0000000000000D+00
   322  3.2100000000000D+00  0.0000000000000D+00  0.0000000000000D+00
   323  3.2200000000000D+00  0.0000000000000D+00  0.0000000000000D+00
   324  3.2300000000000D+00  0.0000000000000D+00  0.0000000000000D+00
   325  3.2400000000000D+00  0.0000000000000D+00  0.0000000000000D+00
   326  3.2500000000000D+00  0.0000000000000D+00  0.0000000000000D+00
   327  3.2600000000000D+00  0.0000000000000D+00  0.0000000000000D+00
   328  3.2700000000000D+00  0.0000000000000D+00  0.0000000000000D+00
   329  3.2800000000000D+00  0.0000000000000D+00  0.0000000000000D+00
   330  3.2900000000000D+00  0.0000000000000D+00  0.0000000000000D+00
   331  3.3000000000000D+00  0.0000000000000D+00  0.0000000000000D+00
   332  3.3100000000000D+00  0.0000000000000D+00  0.0000000000000D+00
   333  3.3200000000000D+00  0.0000000000000D+00  0.0000000000000D+00
   334  3.3300000000000D+00  0.0000000000000D+00  0.0000000000000D+00
   335  3.3400000000000D+00  0.0000000000000D+00  0.0000000000000D+00
   336  3.3500000000000D+00  0.0000000000000D+00  0.0000000000000D+00
   337  3.3600000000000D+00  0.0000000000000D+00  0.0000000000000D+00
   338  3.3700000000000D+00  0.0000000000000D+00  0.0000000000000D+00
   339  3.3800000000000D+00  0.0000000000000D+00  0.0000000000000D+00
   340  3.3900000000000D+00  0.0000000000000D+00  0.0000000000000D+00
   341  3.4000000000000D+00  0.0000000000000D+00  0.0000000000000D+00
   342  3.4100000000000D+00  0.0000000000000D+00  0.0000000000000D+00
   343  3.4200000000000D+00  0.0000000000000D+00  0.0000000000000D+00
   344  3.4300000000000D+00  0.0000000000000D+00  0.0000000000000D+00
   345  3.4400000000000D+00  0.0000000000000D+00  0.0000000000000D+00
   346  3.4500000000000D+00  0.0000000000000D+00  0.0000000000000D+00
   347  3.4600000000000D+00  0.0000000000000D+00  0.0000000000000D+00
   348  3.4700000000000D+00  0.0000000000000D+00  0.0000000000000D+00
   349  3.4800000000000D+00  0.0000000000000D+00  0.0000000000000D+00
   350  3.4900000000000D+00  0.0000000000000D+00  0.0000000000000D+00
   351  3.5000000000000D+00  0.0000000000000D+00  0.0000000000000D+00
   352  3.5100000000000D+00  0.0000000000000D+00  0.0000000000000D+00
   353  3.5200000000000D+00  0.0000000000000D+00  0.0000000000000D+00
   354  3.5300000000000D+00  0.0000000000000D+00  0.0000000000000D+00
   355  3.5400000000000D+00  0.0000000000000D+00  0.0000000000000D+00
   356  3.5500000000000D+00  0.0000000000000D+00  0.0000000000000D+00
   357  3.5600000000000D+00  0.0000000000000D+00  0.0000000000000D+00
   358  3.5700000000000D+00  0.0000000000000D+00  0.0000000000000D+00
   359  3.5800000000000D+00  0.0000000000000D+00  0.0000000000000D+00
   360  3.5900000000000D+00  0.0000000000000D+00  0.0000000000000D+00
   361  3.6000000000000D+00  0.0000000000000D+00  0.0000000000000D+00
   362  3.6100000000000D+00  0.0000000000000D+00  0.0000000000000D+00
   363  3.6200000000000D+00  0.0000000000000D+00  0.0000000000000D+00
   364  3.6300000000000D+00  0.0000000000000D+00  0.0000000000000D+00
   365  3.6400000000000D+00  0.0000000000000D+00  0.0000000000000D+00
   366  3.6500000000000D+00  0.0000000000000D+00  0.0000000000000D+00
   367  3.6600000000000D+00  0.0000000000000D+00  0.0000000000000D+00
   368  3.6700000000000D+00  0.0000000000000D+00  0.0000000000000D+00
   369  3.6800000000000D+00  0.0000000000000D+00  0.0000000000000D+00
   370  3.6900000000000D+00  0.0000000000000D+00  0.0000000000000D+00
   371  3.7000000000000D+00  0.0000000000000D+00  0.0000000000000D+00
   372  3.7100000000000D+00  0.0000000000000D+00  0.0000000000000D+00
   373  3.7200000000000D+00  0.0000000000000D+00  0.0000000000000D+00
   374  3.7300000000000D+00  0.0000000000000D+00  0.0000000000000D+00
   375  3.7400000000000D+00  0.0000000000000D+00  0.0000000000000D+00
   376  3.7500000000000D+00  0.0000000000000D+00  0.0000000000000D+00
   377  3.7600000000000D+00  0.0000000000000D+00  0.0000000000000D+00
   378  3.7700000000000D+00  0.0000000000000D+00  0.0000000000000D+00
   379  3.7800000000000D+00  0.0000000000000D+00  0.0000000000000D+00
   380  3.7900000000000D+00  0.0000000000000D+00  0.0000000000000D+00
   381  3.8000000000000D+00  0.0000000000000D+00  0.0000000000000D+00
   382  3.8100000000000D+00  0.0000000000000D+00  0.0000000000000D+00
   383  3.8200000000000D+00  0.0000000000000D+00  0.0000000000000D+00
   384  3.8300000000000D+00  0.0000000000000D+00  0.0000000000000D+00
   385  3.8400000000000D+00  0.0000000000000D+00  0.0000000000000D+00
   386  3.8500000000000D+00  0.0000000000000D+00  0.0000000000000D+00
   387  3.8600000000000D+00  0.0000000000000D+00  0.0000000000000D+00
   388  3.8700000000000D+00  0.0000000000000D+00  0.0000000000000D+00
   389  3.8800000000000D+00  0.0000000000000D+00  0.0000000000000D+00
   390  3.8900000000000D+00  0.0000000000000D+00  0.0000000000000D+00
   391  3.9000000000000D+00  0.0000000000000D+00  0.0000000000000D+00
   392  3.9100000000000D+00  0.0000000000000D+00  0.0000000000000D+00
   393  3.9200000000000D+00  0.0000000000000D+00  0.0000000000000D+00
   394  3.9300000000000D+00  0.0000000000000D+00  0.0000000000000D+00
   395  3.9400000000000D+00  0.0000000000000D+00  0.0000000000000D+00
   396  3.9500000000000D+00  0.0000000000000D+00  0.0000000000000D+00
   397  3.9600000000000D+00  0.0000000000000D+00  0.0000000000000D+00
   398  3.9700000000000D+00  0.0000000000000D+00  0.0000000000000D+00
   399  3.9800000000000D+00  0.0000000000000D+00  0.0000000000000D+00
   400  3.9900000000000D+00  0.0000000000000D+00  0.0000000000000D+00
   401  4.0000000000000D+00  0.0000000000000D+00  0.0000000000000D+00
   402  4.0100000000000D+00  0.0000000000000D+00  0.0000000000000D+00
   403  4.0200000000000D+00  0.0000000000000D+00  0.0000000000000D+00
   404  4.0300000000000D+00  0.0000000000000D+00  0.0000000000000D+00
   405  4.0400000000000D+00  0.0000000000000D+00  0.0000000000000D+00
   406  4.0500000000000D+00  0.0000000000000D+00  0.0000000000000D+00
   407  4.0600000000000D+00  0.0000000000000D+00  0.0000000000000D+00
   408  4.0700000000000D+00  0.0000000000000D+00  0.0000000000000D+00
   409  4.0800000000000D+00  0.0000000000000D+00  0.0000000000000D+00
   410  4.0900000000000D+00  0.0000000000000D+00  0.0000000000000D+00
   411  4.1000000000000D+00  0.0000000000000D+00  0.0000000000000D+00
   412  4.1100000000000D+00  0.0000000000000D+00  0.0000000000000D+00
   413  4.1200000000000D+00  0.0000000000000D+00  0.0000000000000D+00
   414  4.1300000000000D+00  0.0000000000000D+00  0.0000000000000D+00
   415  4.1400000000000D+00  0.0000000000000D+00  0.0000000000000D+00
   416  4.1500000000000D+00  0.0000000000000D+00  0.0000000000000D+00
   417  4.1600000000000D+00  0.0000000000000D+00  0.0000000000000D+00
   418  4.1700000000000D+00  0.0000000000000D+00  0.0000000000000D+00
   419  4.1800000000000D+00  0.0000000000000D+00  0.0000000000000D+00
   420  4.1900000000000D+00  0.0000000000000D+00  0.0000000000000D+00
   421  4.2000000000000D+00  0.0000000000000D+00  0.0000000000000D+00
   422  4.2100000000000D+00  0.0000000000000D+00  0.0000000000000D+00