In    ONCVPSP-3.3.1  r_core=   3.39782   3.43859   2.67664
     49.0000     13.0000      210905    zatom,zion,pspd
     8 -116133   2     4   600     0    pspcod,pspxc,lmax,lloc,mmax,r2well
  5.99000000  0.00000000  0.00000000    rchrg fchrg qchrg
     2     4     2     0    nproj
     3     1           extension_switch
     4     3     0    nprojso
   0                         4.5677470147801D-01  4.8381734853886D+00
     1  0.0000000000000D+00  1.5198398095606D-12 -1.0631773239567D-13
     2  1.0000000000000D-02 -3.0924832243185D-03  1.4791402631687D-02
     3  2.0000000000000D-02 -6.1905590343712D-03  2.9587093711783D-02
     4  3.0000000000000D-02 -9.2998027229722D-03  4.4391341939997D-02
     5  4.0000000000000D-02 -1.2425754978833D-02  5.9208376548502D-02
     6  5.0000000000000D-02 -1.5573904539247D-02  7.4042367642855D-02
     7  6.0000000000000D-02 -1.8749670789532D-02  8.8897406632616D-02
     8  7.0000000000000D-02 -2.1958386293252D-02  1.0377748678169D-01
     9  8.0000000000000D-02 -2.5205279238772D-02  1.1868648390853D-01
    10  9.0000000000000D-02 -2.8495455789553D-02  1.3362813726642D-01
    11  1.0000000000000D-01 -3.1833882327819D-02  1.4860603063428D-01
    12  1.1000000000000D-01 -3.5225367583770D-02  1.6362357364858D-01
    13  1.2000000000000D-01 -3.8674544645392D-02  1.7868398340692D-01
    14  1.3000000000000D-01 -4.2185852847068D-02  1.9379026637452D-01
    15  1.4000000000000D-01 -4.5763519538633D-02  2.0894520062441D-01
    16  1.5000000000000D-01 -4.9411541740238D-02  2.2415131844284D-01
    17  1.6000000000000D-01 -5.3133667692231D-02  2.3941088933135D-01
    18  1.7000000000000D-01 -5.6933378313503D-02  2.5472590343718D-01
    19  1.8000000000000D-01 -6.0813868585929D-02  2.7009805544386D-01
    20  1.9000000000000D-01 -6.4778028887077D-02  2.8552872895410D-01
    21  2.0000000000000D-01 -6.8828426297828D-02  3.0101898139692D-01
    22  2.1000000000000D-01 -7.2967285916280D-02  3.1656952949147D-01
    23  2.2000000000000D-01 -7.7196472213931D-02  3.3218073529967D-01
    24  2.3000000000000D-01 -8.1517470474891D-02  3.4785259290007D-01
    25  2.4000000000000D-01 -8.5931368363540D-02  3.6358471571518D-01
    26  2.5000000000000D-01 -9.0438837670729D-02  3.7937632452448D-01
    27  2.6000000000000D-01 -9.5040116293109D-02  3.9522623619512D-01
    28  2.7000000000000D-01 -9.9734990504753D-02  4.1113285316219D-01
    29  2.8000000000000D-01 -1.0452277758430D-01  4.2709415369013D-01
    30  2.9000000000000D-01 -1.0940230886520D-01  4.4310768294627D-01
    31  3.0000000000000D-01 -1.1437191328031D-01  4.5917054491753D-01
    32  3.1000000000000D-01 -1.1942940147586D-01  4.7527939520019D-01
    33  3.2000000000000D-01 -1.2457205057293D-01  4.9143043469238D-01
    34  3.3000000000000D-01 -1.2979658965799D-01  5.0761940421817D-01
    35  3.4000000000000D-01 -1.3509918608623D-01  5.2384158011103D-01
    36  3.5000000000000D-01 -1.4047543268403D-01  5.4009177078386D-01
    37  3.6000000000000D-01 -1.4592033593885D-01  5.5636431431142D-01
    38  3.7000000000000D-01 -1.5142830526590D-01  5.7265307704993D-01
    39  3.8000000000000D-01 -1.5699314344250D-01  5.8895145331736D-01
    40  3.9000000000000D-01 -1.6260803830115D-01  6.0525236615636D-01
    41  4.0000000000000D-01 -1.6826555577252D-01  6.2154826920041D-01
    42  4.1000000000000D-01 -1.7395763436927D-01  6.3783114966193D-01
    43  4.2000000000000D-01 -1.7967558120038D-01  6.5409253245946D-01
    44  4.3000000000000D-01 -1.8541006960433D-01  6.7032348549896D-01
    45  4.4000000000000D-01 -1.9115113848737D-01  6.8651462612235D-01
    46  4.5000000000000D-01 -1.9688819345051D-01  7.0265612873418D-01
    47  4.6000000000000D-01 -2.0261000978572D-01  7.1873773361503D-01
    48  4.7000000000000D-01 -2.0830473741821D-01  7.3474875692794D-01
    49  4.8000000000000D-01 -2.1395990786712D-01  7.5067810192146D-01
    50  4.9000000000000D-01 -2.1956244329261D-01  7.6651427133053D-01
    51  5.0000000000000D-01 -2.2509866769151D-01  7.8224538097344D-01
    52  5.1000000000000D-01 -2.3055432029826D-01  7.9785917454040D-01
    53  5.2000000000000D-01 -2.3591457124104D-01  8.1334303956639D-01
    54  5.3000000000000D-01 -2.4116403949662D-01  8.2868402457775D-01
    55  5.4000000000000D-01 -2.4628681317959D-01  8.4386885739901D-01
    56  5.5000000000000D-01 -2.5126647219430D-01  8.5888396460335D-01
    57  5.6000000000000D-01 -2.5608611326898D-01  8.7371549208667D-01
    58  5.7000000000000D-01 -2.6072837738378D-01  8.8834932674209D-01
    59  5.8000000000000D-01 -2.6517547959425D-01  9.0277111920834D-01
    60  5.9000000000000D-01 -2.6940924124366D-01  9.1696630766210D-01
    61  6.0000000000000D-01 -2.7341112454676D-01  9.3092014262104D-01
    62  6.1000000000000D-01 -2.7716226951857D-01  9.4461771272075D-01
    63  6.2000000000000D-01 -2.8064353321092D-01  9.5804397142557D-01
    64  6.3000000000000D-01 -2.8383553120946D-01  9.7118376462959D-01
    65  6.4000000000000D-01 -2.8671868133336D-01  9.8402185910121D-01
    66  6.5000000000000D-01 -2.8927324946897D-01  9.9654297172073D-01
    67  6.6000000000000D-01 -2.9147939745853D-01  1.0087317994576D+00
    68  6.7000000000000D-01 -2.9331723295380D-01  1.0205730500307D+00
    69  6.8000000000000D-01 -2.9476686113437D-01  1.0320514731910D+00
    70  6.9000000000000D-01 -2.9580843817937D-01  1.0431518925651D+00
    71  7.0000000000000D-01 -2.9642222637122D-01  1.0538592379917D+00
    72  7.1000000000000D-01 -2.9658865069960D-01  1.0641585782837D+00
    73  7.2000000000000D-01 -2.9628835682407D-01  1.0740351543439D+00
    74  7.3000000000000D-01 -2.9550227024366D-01  1.0834744125598D+00
    75  7.4000000000000D-01 -2.9421165651276D-01  1.0924620384013D+00
    76  7.5000000000000D-01 -2.9239818233368D-01  1.1009839901423D+00
    77  7.6000000000000D-01 -2.9004397734694D-01  1.1090265326248D+00
    78  7.7000000000000D-01 -2.8713169643364D-01  1.1165762709836D+00
    79  7.8000000000000D-01 -2.8364458233516D-01  1.1236201842456D+00
    80  7.9000000000000D-01 -2.7956652838977D-01  1.1301456587187D+00
    81  8.0000000000000D-01 -2.7488214117863D-01  1.1361405210826D+00
    82  8.1000000000000D-01 -2.6957680286809D-01  1.1415930710926D+00
    83  8.2000000000000D-01 -2.6363673303055D-01  1.1464921138076D+00
    84  8.3000000000000D-01 -2.5704904972138D-01  1.1508269912524D+00
    85  8.4000000000000D-01 -2.4980182958633D-01  1.1545876134240D+00
    86  8.5000000000000D-01 -2.4188416677105D-01  1.1577644885519D+00
    87  8.6000000000000D-01 -2.3328623040235D-01  1.1603487525226D+00
    88  8.7000000000000D-01 -2.2399932041016D-01  1.1623321973785D+00
    89  8.8000000000000D-01 -2.1401592145890D-01  1.1637072988029D+00
    90  8.9000000000000D-01 -2.0332975475762D-01  1.1644672425036D+00
    91  9.0000000000000D-01 -1.9193582752055D-01  1.1646059494086D+00
    92  9.1000000000000D-01 -1.7983047985180D-01  1.1641180995896D+00
    93  9.2000000000000D-01 -1.6701142883199D-01  1.1629991548314D+00
    94  9.3000000000000D-01 -1.5347780958911D-01  1.1612453797653D+00
    95  9.4000000000000D-01 -1.3923021314135D-01  1.1588538614902D+00
    96  9.5000000000000D-01 -1.2427072080651D-01  1.1558225276062D+00
    97  9.6000000000000D-01 -1.0860293497958D-01  1.1521501625877D+00
    98  9.7000000000000D-01 -9.2232006089161D-02  1.1478364224295D+00
    99  9.8000000000000D-01 -7.5164655552198D-02  1.1428818474991D+00
   100  9.9000000000000D-01 -5.7409194557264D-02  1.1372878735356D+00
   101  1.0000000000000D+00 -3.8975538517421D-02  1.1310568407383D+00
   102  1.0100000000000D+00 -1.9875217046244D-02  1.1241920008919D+00
   103  1.0200000000000D+00 -1.2137932319336D-04  1.1166975224827D+00
   104  1.0300000000000D+00  2.0271205271669D-02  1.1085784937605D+00
   105  1.0400000000000D+00  4.1286151358852D-02  1.0998409237111D+00
   106  1.0500000000000D+00  6.2905466686441D-02  1.0904917409060D+00
   107  1.0600000000000D+00  8.5109566257664D-02  1.0805387902031D+00
   108  1.0700000000000D+00  1.0787729151565D-01  1.0699908272771D+00
   109  1.0800000000000D+00  1.3118593462594D-01  1.0588575109656D+00
   110  1.0900000000000D+00  1.5501126787877D-01  1.0471493934209D+00
   111  1.1000000000000D+00  1.7932757821486D-01  1.0348779080660D+00
   112  1.1100000000000D+00  2.0410770686087D-01  1.0220553553572D+00
   113  1.1200000000000D+00  2.2932309403921D-01  1.0086948863633D+00
   114  1.1300000000000D+00  2.5494382869918D-01  9.9481048418011D-01
   115  1.1400000000000D+00  2.8093870319492D-01  9.8041694320000D-01
   116  1.1500000000000D+00  3.0727527281948D-01  9.6552984626861D-01
   117  1.1600000000000D+00  3.3391992007889D-01  9.5016553976382D-01
   118  1.1700000000000D+00  3.6083792357296D-01  9.3434110664051D-01
   119  1.1800000000000D+00  3.8799353132889D-01  9.1807433749048D-01
   120  1.1900000000000D+00  4.1535003841584D-01  9.0138369967280D-01
   121  1.2000000000000D+00  4.4286986864372D-01  8.8428830457827D-01
   122  1.2100000000000D+00  4.7051466013120D-01  8.6680787309727D-01
   123  1.2200000000000D+00  4.9824535451534D-01  8.4896269936464D-01
   124  1.2300000000000D+00  5.2602228954586D-01  8.3077361286474D-01
   125  1.2400000000000D+00  5.5380529479234D-01  8.1226193898452D-01
   126  1.2500000000000D+00  5.8155379017889D-01  7.9344945810710D-01
   127  1.2600000000000D+00  6.0922688703870D-01  7.7435836334549D-01
   128  1.2700000000000D+00  6.3678349136072D-01  7.5501121702259D-01
   129  1.2800000000000D+00  6.6418240889299D-01  7.3543090600641D-01
   130  1.2900000000000D+00  6.9138245174762D-01  7.1564059601544D-01
   131  1.3000000000000D+00  7.1834254613128D-01  6.9566368501666D-01
   132  1.3100000000000D+00  7.4502184082383D-01  6.7552375583844D-01
   133  1.3200000000000D+00  7.7137981600713D-01  6.5524452812798D-01
   134  1.3300000000000D+00  7.9737639202983D-01  6.3484980978823D-01
   135  1.3400000000000D+00  8.2297203769775D-01  6.1436344802777D-01
   136  1.3500000000000D+00  8.4812787765524D-01  5.9380928016568D-01
   137  1.3600000000000D+00  8.7280579841819D-01  5.7321108433518D-01
   138  1.3700000000000D+00  8.9696855262261D-01  5.5259253022830D-01
   139  1.3800000000000D+00  9.2057986102783D-01  5.3197713003329D-01
   140  1.3900000000000D+00  9.4360451182570D-01  5.1138818971191D-01
   141  1.4000000000000D+00  9.6600845679390D-01  4.9084876076865D-01
   142  1.4100000000000D+00  9.8775890383229D-01  4.7038159266449D-01
   143  1.4200000000000D+00  1.0088244054210D+00  4.5000908602736D-01
   144  1.4300000000000D+00  1.0291749425365D+00  4.2975324681365D-01
   145  1.4400000000000D+00  1.0487820035713D+00  4.0963564157232D-01
   146  1.4500000000000D+00  1.0676186577890D+00  3.8967735396692D-01
   147  1.4600000000000D+00  1.0856596228830D+00  3.6989894270279D-01
   148  1.4700000000000D+00  1.1028813261667D+00  3.5032040101538D-01
   149  1.4800000000000D+00  1.1192619589819D+00  3.3096111786270D-01
   150  1.4900000000000D+00  1.1347815238805D+00  3.1183984097141D-01
   151  1.5000000000000D+00  1.1494218741587D+00  2.9297464188114D-01
   152  1.5100000000000D+00  1.1631667453577D+00  2.7438288312106D-01
   153  1.5200000000000D+00  1.1760017782886D+00  2.5608118766951D-01
   154  1.5300000000000D+00  1.1879145332737D+00  2.3808541080946D-01
   155  1.5400000000000D+00  1.1988944951432D+00  2.2041061453530D-01
   156  1.5500000000000D+00  1.2089330687393D+00  2.0307104460787D-01
   157  1.5600000000000D+00  1.2180235645037D+00  1.8608011040275D-01
   158  1.5700000000000D+00  1.2261611739069D+00  1.6945036764686D-01
   159  1.5800000000000D+00  1.2333429343804D+00  1.5319350416465D-01
   160  1.5900000000000D+00  1.2395676834941D+00  1.3732032873333D-01
   161  1.6000000000000D+00  1.2448360021469D+00  1.2184076313801D-01
   162  1.6100000000000D+00  1.2491501464874D+00  1.0676383753380D-01
   163  1.6200000000000D+00  1.2525139684534D+00  9.2097689170793D-02
   164  1.6300000000000D+00  1.2549328246168D+00  7.7849564597776D-02
   165  1.6400000000000D+00  1.2564134733512D+00  6.4025825363305D-02
   166  1.6500000000000D+00  1.2569639599813D+00  5.0631957338398D-02
   167  1.6600000000000D+00  1.2565934900601D+00  3.7672583641520D-02
   168  1.6700000000000D+00  1.2553122904098D+00  2.5151481296931D-02
   169  1.6800000000000D+00  1.2531314581997D+00  1.3071601569867D-02
   170  1.6900000000000D+00  1.2500627938910D+00  1.4350941306707D-03
   171  1.7000000000000D+00  1.2461186441718D+00 -9.7566651588295D-03
   172  1.7100000000000D+00  1.2413116545137D+00 -2.0503041738400D-02
   173  1.7200000000000D+00  1.2356547229800D+00 -3.0804110004211D-02
   174  1.7300000000000D+00  1.2291606577186D+00 -4.0660608733450D-02
   175  1.7400000000000D+00  1.2218416560140D+00 -5.0073901721481D-02
   176  1.7500000000000D+00  1.2137097900409D+00 -5.9045931872847D-02
   177  1.7600000000000D+00  1.2047773925773D+00 -6.7579167728843D-02
   178  1.7700000000000D+00  1.1950574864310D+00 -7.5676583960649D-02
   179  1.7800000000000D+00  1.1845645478361D+00 -8.3341645459975D-02
   180  1.7900000000000D+00  1.1733145167889D+00 -9.0578292338183D-02
   181  1.8000000000000D+00  1.1613245353932D+00 -9.7390932095138D-02
   182  1.8100000000000D+00  1.1486129320816D+00 -1.0378442731568D-01
   183  1.8200000000000D+00  1.1351992220531D+00 -1.0976408046745D-01
   184  1.8300000000000D+00  1.1211040282637D+00 -1.1533562040225D-01
   185  1.8400000000000D+00  1.1063490416535D+00 -1.2050518733502D-01
   186  1.8500000000000D+00  1.0909569636718D+00 -1.2527931738979D-01
   187  1.8600000000000D+00  1.0749514501885D+00 -1.2966492650491D-01
   188  1.8700000000000D+00  1.0583570537691D+00 -1.3366929380131D-01
   189  1.8800000000000D+00  1.0411991644261D+00 -1.3730004443602D-01
   190  1.8900000000000D+00  1.0235039490553D+00 -1.4056513200577D-01
   191  1.9000000000000D+00  1.0052982897030D+00 -1.4347282053094D-01
   192  1.9100000000000D+00  9.8660972083612D-01 -1.4603166607472D-01
   193  1.9200000000000D+00  9.6746636579430D-01 -1.4825049804043D-01
   194  1.9300000000000D+00  9.4789687258023D-01 -1.5013840019285D-01
   195  1.9400000000000D+00  9.2793034915779D-01 -1.5170469145090D-01
   196  1.9500000000000D+00  9.0759629844726D-01 -1.5295890650037D-01
   197  1.9600000000000D+00  8.8692455312211D-01 -1.5391077626308D-01
   198  1.9700000000000D+00  8.6594521046732D-01 -1.5457020828616D-01
   199  1.9800000000000D+00  8.4468856733972D-01 -1.5494726707257D-01
   200  1.9900000000000D+00  8.2318505549950D-01 -1.5505215442154D-01
   201  2.0000000000000D+00  8.0146517738945D-01 -1.5489518980525D-01
   202  2.0100000000000D+00  7.7955944252486D-01 -1.5448679082801D-01
   203  2.0200000000000D+00  7.5749830471164D-01 -1.5383745382712D-01
   204  2.0300000000000D+00  7.3531210006723D-01 -1.5295773461516D-01
   205  2.0400000000000D+00  7.1303098621768D-01 -1.5185822946313D-01
   206  2.0500000000000D+00  6.9068488256239D-01 -1.5054955630147D-01
   207  2.0600000000000D+00  6.6830341189977D-01 -1.4904233621938D-01
   208  2.0700000000000D+00  6.4591584350103D-01 -1.4734717528937D-01
   209  2.0800000000000D+00  6.2355103762599D-01 -1.4547464671882D-01
   210  2.0900000000000D+00  6.0123739185129D-01 -1.4343527343116D-01
   211  2.1000000000000D+00  5.7900278900103D-01 -1.4123951102327D-01
   212  2.1100000000000D+00  5.5687454704203D-01 -1.3889773120006D-01
   213  2.1200000000000D+00  5.3487937092926D-01 -1.3642020568524D-01
   214  2.1300000000000D+00  5.1304330638483D-01 -1.3381709060672D-01
   215  2.1400000000000D+00  4.9139169599200D-01 -1.3109841146322D-01
   216  2.1500000000000D+00  4.6994913729910D-01 -1.2827404859202D-01
   217  2.1600000000000D+00  4.4873944331042D-01 -1.2535372324316D-01
   218  2.1700000000000D+00  4.2778560533655D-01 -1.2234698425548D-01
   219  2.1800000000000D+00  4.0710975806171D-01 -1.1926319529902D-01
   220  2.1900000000000D+00  3.8673314731647D-01 -1.1611152281853D-01
   221  2.2000000000000D+00  3.6667610012660D-01 -1.1290092456550D-01
   222  2.2100000000000D+00  3.4695799735802D-01 -1.0964013880779D-01
   223  2.2200000000000D+00  3.2759724903155D-01 -1.0633767423936D-01
   224  2.2300000000000D+00  3.0861127198454D-01 -1.0300180050765D-01
   225  2.2400000000000D+00  2.9001647039449D-01 -9.9640539498029D-02
   226  2.2500000000000D+00  2.7182821880778D-01 -9.6261657284317D-02
   227  2.2600000000000D+00  2.5406084769051D-01 -9.2872656753174D-02
   228  2.2700000000000D+00  2.3672763186723D-01 -8.9480771001240D-02
   229  2.2800000000000D+00  2.1984078132833D-01 -8.6092957372742D-02
   230  2.2900000000000D+00  2.0341143474923D-01 -8.2715892230038D-02
   231  2.3000000000000D+00  1.8744965570899D-01 -7.9355966457048D-02
   232  2.3100000000000D+00  1.7196443121354D-01 -7.6019281596580D-02
   233  2.3200000000000D+00  1.5696367301443D-01 -7.2711646751583D-02
   234  2.3300000000000D+00  1.4245422137084D-01 -6.9438576162505D-02
   235  2.3400000000000D+00  1.2844185105057D-01 -6.6205287411257D-02
   236  2.3500000000000D+00  1.1493128010052D-01 -6.3016700391785D-02
   237  2.3600000000000D+00  1.0192618073895D-01 -5.9877436883256D-02
   238  2.3700000000000D+00  8.9429192510264D-02 -5.6791820765358D-02
   239  2.3800000000000D+00  7.7441937915351D-02 -5.3763878934119D-02
   240  2.3900000000000D+00  6.5965039972148D-02 -5.0797342780027D-02
   241  2.4000000000000D+00  5.4998141932677D-02 -4.7895650290552D-02
   242  2.4100000000000D+00  4.4539929150090D-02 -4.5061948779013D-02
   243  2.4200000000000D+00  3.4588152662521D-02 -4.2299098129169D-02
   244  2.4300000000000D+00  2.5139654751881D-02 -3.9609674627647D-02
   245  2.4400000000000D+00  1.6190396306333D-02 -3.6995975342682D-02
   246  2.4500000000000D+00  7.7354856644329D-03 -3.4460022965829D-02
   247  2.4600000000000D+00 -2.3079082168604D-04 -3.2003571186267D-02
   248  2.4700000000000D+00 -7.7149367708753D-03 -2.9628110529252D-02
   249  2.4800000000000D+00 -1.4724212530692D-02 -2.7334874599049D-02
   250  2.4900000000000D+00 -2.1266600539604D-02 -2.5124846782050D-02
   251  2.5000000000000D+00 -2.7350769583104D-02 -2.2998767332210D-02
   252  2.5100000000000D+00 -3.2986038093391D-02 -2.0957140797705D-02
   253  2.5200000000000D+00 -3.8182336432625D-02 -1.9000243820826D-02
   254  2.5300000000000D+00 -4.2950168405606D-02 -1.7128133240106D-02
   255  2.5400000000000D+00 -4.7300572096922D-02 -1.5340654466834D-02
   256  2.5500000000000D+00 -5.1245080107896D-02 -1.3637450137356D-02
   257  2.5600000000000D+00 -5.4795679348418D-02 -1.2017968989307D-02
   258  2.5700000000000D+00 -5.7964770437944D-02 -1.0481474943418D-02
   259  2.5800000000000D+00 -6.0765126936465D-02 -9.0270563583011D-03
   260  2.5900000000000D+00 -6.3209854451673D-02 -7.6536354315146D-03
   261  2.6000000000000D+00 -6.5312349637728D-02 -6.3599777368307D-03
   262  2.6100000000000D+00 -6.7086259437536D-02 -5.1447018332394D-03
   263  2.6200000000000D+00 -6.8545440531018D-02 -4.0062889404470D-03
   264  2.6300000000000D+00 -6.9703918949633D-02 -2.9430926820396D-03
   265  2.6400000000000D+00 -7.0575850294739D-02 -1.9533488090516D-03
   266  2.6500000000000D+00 -7.1175480518254D-02 -1.0351849040740D-03
   267  2.6600000000000D+00 -7.1517107133428D-02 -1.8663008608915D-04
   268  2.6700000000000D+00 -7.1615041293796D-02  5.9437537572707D-04
   269  2.6800000000000D+00 -7.1483570839348D-02  1.3099705649543D-03
   270  2.6900000000000D+00 -7.1136924024587D-02  1.9623644851100D-03
   271  2.7000000000000D+00 -7.0589234240373D-02  2.5538267591486D-03
   272  2.7100000000000D+00 -6.9854506176977D-02  3.0866785593592D-03
   273  2.7200000000000D+00 -6.8946582908915D-02  3.5632836644579D-03
   274  2.7300000000000D+00 -6.7879113925761D-02  3.9860396514303D-03
   275  2.7400000000000D+00 -6.6665525176840D-02  4.3573694548777D-03
   276  2.7500000000000D+00 -6.5318990154248D-02  4.6797130902323D-03
   277  2.7600000000000D+00 -6.3852401965831D-02  4.9555195318844D-03
   278  2.7700000000000D+00 -6.2278347724032D-02  5.1872390397700D-03
   279  2.7800000000000D+00 -6.0609084165163D-02  5.3773157020601D-03
   280  2.7900000000000D+00 -5.8856514498609D-02  5.5281801961426D-03
   281  2.8000000000000D+00 -5.7032167302090D-02  5.6422429526754D-03
   282  2.8100000000000D+00 -5.5147177218355D-02  5.7218876725385D-03
   283  2.8200000000000D+00 -5.3212267013959D-02  5.7694651026936D-03
   284  2.8300000000000D+00 -5.1237731160268D-02  5.7872871097698D-03
   285  2.8400000000000D+00 -4.9233421935181D-02  5.7776212798606D-03
   286  2.8500000000000D+00 -4.7208736862438D-02  5.7426857827427D-03
   287  2.8600000000000D+00 -4.5172607287915D-02  5.6846444564863D-03
   288  2.8700000000000D+00 -4.3133489841013D-02  5.6056025148707D-03
   289  2.8800000000000D+00 -4.1099359162929D-02  5.5076025129328D-03
   290  2.8900000000000D+00 -3.9077702077293D-02  5.3926206130366D-03
   291  2.9000000000000D+00 -3.7075513739237D-02  5.2625632790946D-03
   292  2.9100000000000D+00 -3.5099295853350D-02  5.1192644236928D-03
   293  2.9200000000000D+00 -3.3155056326499D-02  4.9644828659958D-03
   294  2.9300000000000D+00 -3.1248309870943D-02  4.7998999890715D-03
   295  2.9400000000000D+00 -2.9384081562557D-02  4.6271180706165D-03
   296  2.9500000000000D+00 -2.7566911248439D-02  4.4476587979699D-03
   297  2.9600000000000D+00 -2.5800859278719D-02  4.2629620805322D-03
   298  2.9700000000000D+00 -2.4089514060550D-02  4.0743852831804D-03
   299  2.9800000000000D+00 -2.2436001247597D-02  3.8832028402107D-03
   300  2.9900000000000D+00 -2.0842994141868D-02  3.6906061538551D-03
   301  3.0000000000000D+00 -1.9312724778054D-02  3.4977036498248D-03
   302  3.0100000000000D+00 -1.7846997412780D-02  3.3055214160834D-03
   303  3.0200000000000D+00 -1.6447202543835D-02  3.1150039712931D-03
   304  3.0300000000000D+00 -1.5114331999436D-02  2.9270152969694D-03
   305  3.0400000000000D+00 -1.3848995132315D-02  2.7423401488882D-03
   306  3.0500000000000D+00 -1.2651436283761D-02  2.5616856949652D-03
   307  3.0600000000000D+00 -1.1521552899390D-02  2.3856833289506D-03
   308  3.0700000000000D+00 -1.0458914229992D-02  2.2148906391354D-03
   309  3.0800000000000D+00 -9.4627811638801D-03  2.0497936941938D-03
   310  3.0900000000000D+00 -8.5321265227186D-03  1.8908094667455D-03
   311  3.1000000000000D+00 -7.6656558973537D-03  1.7382884232607D-03
   312  3.1100000000000D+00 -6.8618288678836D-03  1.5925172346801D-03
   313  3.1200000000000D+00 -6.1188807890045D-03  1.4537216918476D-03
   314  3.1300000000000D+00 -5.4348447140438D-03  1.3220696882651D-03
   315  3.1400000000000D+00 -4.8075736253175D-03  1.1976743208528D-03
   316  3.1500000000000D+00 -4.2347627419642D-03  1.0805970684364D-03
   317  3.1600000000000D+00 -3.7139717380235D-03  9.7085102181819D-04
   318  3.1700000000000D+00 -3.2426469365936D-03  8.6840415954835D-04
   319  3.1800000000000D+00 -2.8181436494779D-03  7.7318270419284D-04
   320  3.1900000000000D+00 -2.4377478859501D-03  6.8507442260540D-04
   321  3.2000000000000D+00 -2.0986978318867D-03  6.0393193545763D-04
   322  3.2100000000000D+00 -1.7982048612475D-03  5.2957598933880D-04
   323  3.2200000000000D+00 -1.5334747875088D-03  4.6179882721090D-04
   324  3.2300000000000D+00 -1.3017274400557D-03  4.0036729135834D-04
   325  3.2400000000000D+00 -1.1002162007048D-03  3.4502596810998D-04
   326  3.2500000000000D+00 -9.2624656207940D-04  2.9550019281741D-04
   327  3.2600000000000D+00 -7.7719513911198D-04  2.5149919979893D-04
   328  3.2700000000000D+00 -6.5052575992931D-04  2.1271874299663D-04
   329  3.2800000000000D+00 -5.4384580892771D-04  1.7885351408977D-04
   330  3.2900000000000D+00 -4.5497698725976D-04  1.4961316313958D-04
   331  3.3000000000000D+00 -3.8143142378926D-04  1.2459418192283D-04
   332  3.3100000000000D+00 -3.2110917984374D-04  1.0344813258837D-04
   333  3.3200000000000D+00 -2.7178645480709D-04  8.5746916215188D-05
   334  3.3300000000000D+00 -2.3123041966819D-04  7.1012220103466D-05
   335  3.3400000000000D+00 -2.0003306863565D-04  5.9477411235622D-05
   336  3.3500000000000D+00 -1.7750221219087D-04  5.0982678743299D-05
   337  3.3600000000000D+00 -1.6369252528593D-04  4.5535197092005D-05
   338  3.3700000000000D+00 -1.5853339734778D-04  4.3071987645857D-05
   339  3.3800000000000D+00 -1.5395196887745D-04  4.1269131752594D-05
   340  3.3900000000000D+00 -1.4543351404134D-04  3.8774858058998D-05
   341  3.4000000000000D+00 -1.2776329818592D-04  3.4032671969387D-05
   342  3.4100000000000D+00 -9.5829432026016D-05  2.5513306268401D-05
   343  3.4200000000000D+00 -5.9728872605630D-05  1.5909650273331D-05
   344  3.4300000000000D+00 -2.4850136047319D-05  6.6255757219668D-06
   345  3.4400000000000D+00  2.2503286519285D-06 -5.9652779755317D-07
   346  3.4500000000000D+00  1.2303625606742D-05 -3.2605225929281D-06
   347  3.4600000000000D+00  1.3219140712128D-05 -3.5025128889046D-06
   348  3.4700000000000D+00  7.8665860384981D-06 -2.0841094816427D-06
   349  3.4800000000000D+00 -4.4089247514956D-08  1.1662819048565D-08
   350  3.4900000000000D+00 -2.4072872419153D-06  6.3659646911677D-07
   351  3.5000000000000D+00 -3.0976580081414D-06  8.1894166238292D-07
   352  3.5100000000000D+00 -2.2025867378186D-06  5.8217042921284D-07
   353  3.5200000000000D+00 -3.3461359603140D-07  8.8424018531996D-08
   354  3.5300000000000D+00  2.4457790337596D-07 -6.5169990084581D-08
   355  3.5400000000000D+00  3.7633150051606D-07 -1.0027692534205D-07
   356  3.5500000000000D+00  3.1250435962407D-07 -8.3269607503270D-08
   357  3.5600000000000D+00  1.0129519460948D-07 -2.6991018964490D-08
   358  3.5700000000000D+00  0.0000000000000D+00  0.0000000000000D+00
   359  3.5800000000000D+00  0.0000000000000D+00  0.0000000000000D+00
   360  3.5900000000000D+00  0.0000000000000D+00  0.0000000000000D+00
   361  3.6000000000000D+00  0.0000000000000D+00  0.0000000000000D+00
   362  3.6100000000000D+00  0.0000000000000D+00  0.0000000000000D+00
   363  3.6200000000000D+00  0.0000000000000D+00  0.0000000000000D+00
   364  3.6300000000000D+00  0.0000000000000D+00  0.0000000000000D+00
   365  3.6400000000000D+00  0.0000000000000D+00  0.0000000000000D+00
   366  3.6500000000000D+00  0.0000000000000D+00  0.0000000000000D+00
   367  3.6600000000000D+00  0.0000000000000D+00  0.0000000000000D+00
   368  3.6700000000000D+00  0.0000000000000D+00  0.0000000000000D+00
   369  3.6800000000000D+00  0.0000000000000D+00  0.0000000000000D+00
   370  3.6900000000000D+00  0.0000000000000D+00  0.0000000000000D+00
   371  3.7000000000000D+00  0.0000000000000D+00  0.0000000000000D+00
   372  3.7100000000000D+00  0.0000000000000D+00  0.0000000000000D+00
   373  3.7200000000000D+00  0.0000000000000D+00  0.0000000000000D+00
   374  3.7300000000000D+00  0.0000000000000D+00  0.0000000000000D+00
   375  3.7400000000000D+00  0.0000000000000D+00  0.0000000000000D+00
   376  3.7500000000000D+00  0.0000000000000D+00  0.0000000000000D+00
   377  3.7600000000000D+00  0.0000000000000D+00  0.0000000000000D+00
   378  3.7700000000000D+00  0.0000000000000D+00  0.0000000000000D+00
   379  3.7800000000000D+00  0.0000000000000D+00  0.0000000000000D+00
   380  3.7900000000000D+00  0.0000000000000D+00  0.0000000000000D+00
   381  3.8000000000000D+00  0.0000000000000D+00  0.0000000000000D+00
   382  3.8100000000000D+00  0.0000000000000D+00  0.0000000000000D+00
   383  3.8200000000000D+00  0.0000000000000D+00  0.0000000000000D+00
   384  3.8300000000000D+00  0.0000000000000D+00  0.0000000000000D+00
   385  3.8400000000000D+00  0.0000000000000D+00  0.0000000000000D+00
   386  3.8500000000000D+00  0.0000000000000D+00  0.0000000000000D+00
   387  3.8600000000000D+00  0.0000000000000D+00  0.0000000000000D+00
   388  3.8700000000000D+00  0.0000000000000D+00  0.0000000000000D+00
   389  3.8800000000000D+00  0.0000000000000D+00  0.0000000000000D+00
   390  3.8900000000000D+00  0.0000000000000D+00  0.0000000000000D+00
   391  3.9000000000000D+00  0.0000000000000D+00  0.0000000000000D+00
   392  3.9100000000000D+00  0.0000000000000D+00  0.0000000000000D+00
   393  3.9200000000000D+00  0.0000000000000D+00  0.0000000000000D+00
   394  3.9300000000000D+00  0.0000000000000D+00  0.0000000000000D+00
   395  3.9400000000000D+00  0.0000000000000D+00  0.0000000000000D+00
   396  3.9500000000000D+00  0.0000000000000D+00  0.0000000000000D+00
   397  3.9600000000000D+00  0.0000000000000D+00  0.0000000000000D+00
   398  3.9700000000000D+00  0.0000000000000D+00  0.0000000000000D+00
   399  3.9800000000000D+00  0.0000000000000D+00  0.0000000000000D+00
   400  3.9900000000000D+00  0.0000000000000D+00  0.0000000000000D+00
   401  4.0000000000000D+00  0.0000000000000D+00  0.0000000000000D+00
   402  4.0100000000000D+00  0.0000000000000D+00  0.0000000000000D+00
   403  4.0200000000000D+00  0.0000000000000D+00  0.0000000000000D+00
   404  4.0300000000000D+00  0.0000000000000D+00  0.0000000000000D+00
   405  4.0400000000000D+00  0.0000000000000D+00  0.0000000000000D+00
   406  4.0500000000000D+00  0.0000000000000D+00  0.0000000000000D+00
   407  4.0600000000000D+00  0.0000000000000D+00  0.0000000000000D+00
   408  4.0700000000000D+00  0.0000000000000D+00  0.0000000000000D+00
   409  4.0800000000000D+00  0.0000000000000D+00  0.0000000000000D+00
   410  4.0900000000000D+00  0.0000000000000D+00  0.0000000000000D+00
   411  4.1000000000000D+00  0.0000000000000D+00  0.0000000000000D+00
   412  4.1100000000000D+00  0.0000000000000D+00  0.0000000000000D+00
   413  4.1200000000000D+00  0.0000000000000D+00  0.0000000000000D+00
   414  4.1300000000000D+00  0.0000000000000D+00  0.0000000000000D+00
   415  4.1400000000000D+00  0.0000000000000D+00  0.0000000000000D+00
   416  4.1500000000000D+00  0.0000000000000D+00  0.0000000000000D+00
   417  4.1600000000000D+00  0.0000000000000D+00  0.0000000000000D+00
   418  4.1700000000000D+00  0.0000000000000D+00  0.0000000000000D+00
   419  4.1800000000000D+00  0.0000000000000D+00  0.0000000000000D+00
   420  4.1900000000000D+00  0.0000000000000D+00  0.0000000000000D+00
   421  4.2000000000000D+00  0.0000000000000D+00  0.0000000000000D+00
   422  4.2100000000000D+00  0.0000000000000D+00  0.0000000000000D+00