Kr    ONCVPSP-3.3.1  r_core=   2.83591   2.86994   2.86994
     36.0000      8.0000      210905    zatom,zion,pspd
     8 -116133   2     4   600     0    pspcod,pspxc,lmax,lloc,mmax,r2well
  5.99000000  0.00000000  0.00000000    rchrg fchrg qchrg
     2     4     2     0    nproj
     3     1           extension_switch
     4     3     0    nprojso
   0                        -8.5697810265769D-02  2.0877253651463D+00
     1  0.0000000000000D+00  1.5736578706793D-12 -1.1801670751765D-13
     2  1.0000000000000D-02  1.7156945699886D-02  3.8664799048012D-02
     3  2.0000000000000D-02  3.4289487035363D-02  7.7293296935466D-02
     4  3.0000000000000D-02  5.1373248661987D-02  1.1584923349231D-01
     5  4.0000000000000D-02  6.8383913304611D-02  1.5429643048342D-01
     6  5.0000000000000D-02  8.5297250865094D-02  1.9259883246097D-01
     7  6.0000000000000D-02  1.0208914761653D-01  2.3072054747863D-01
     8  7.0000000000000D-02  1.1873563551101D-01  2.6862588762185D-01
     9  8.0000000000000D-02  1.3521292162628D-01  3.0627940930842D-01
    10  9.0000000000000D-02  1.5149741777475D-01  3.4364595331358D-01
    11  1.0000000000000D-01  1.6756577029595D-01  3.8069068447440D-01
    12  1.1000000000000D-01  1.8339489005078D-01  4.1737913102812D-01
    13  1.2000000000000D-01  1.9896198263299D-01  4.5367722353940D-01
    14  1.3000000000000D-01  2.1424457880980D-01  4.8955133337199D-01
    15  1.4000000000000D-01  2.2922056520002D-01  5.2496831066016D-01
    16  1.5000000000000D-01  2.4386821519400D-01  5.5989552173602D-01
    17  1.6000000000000D-01  2.5816622011546D-01  5.9430088596907D-01
    18  1.7000000000000D-01  2.7209372062087D-01  6.2815291197459D-01
    19  1.8000000000000D-01  2.8563033832724D-01  6.6142073314827D-01
    20  1.9000000000000D-01  2.9875620765433D-01  6.9407414248462D-01
    21  2.0000000000000D-01  3.1145200786210D-01  7.2608362663752D-01
    22  2.1000000000000D-01  3.2369899525916D-01  7.5742039918165D-01
    23  2.2000000000000D-01  3.3547903555254D-01  7.8805643303429D-01
    24  2.3000000000000D-01  3.4677463630359D-01  8.1796449199756D-01
    25  2.4000000000000D-01  3.5756897944950D-01  8.4711816138189D-01
    26  2.5000000000000D-01  3.6784595384433D-01  8.7549187767226D-01
    27  2.6000000000000D-01  3.7759018776785D-01  9.0306095719971D-01
    28  2.7000000000000D-01  3.8678708134533D-01  9.2980162378105D-01
    29  2.8000000000000D-01  3.9542283881547D-01  9.5569103529111D-01
    30  2.9000000000000D-01  4.0348450057910D-01  9.8070730913244D-01
    31  3.0000000000000D-01  4.1095997495533D-01  1.0048295465685D+00
    32  3.1000000000000D-01  4.1783806956757D-01  1.0280378558877D+00
    33  3.2000000000000D-01  4.2410852227639D-01  1.0503133743654D+00
    34  3.3000000000000D-01  4.2976203157217D-01  1.0716382889954D+00
    35  3.4000000000000D-01  4.3479028633579D-01  1.0919958559589D+00
    36  3.5000000000000D-01  4.3918599487171D-01  1.1113704188040D+00
    37  3.6000000000000D-01  4.4294291311420D-01  1.1297474253097D+00
    38  3.7000000000000D-01  4.4605587190394D-01  1.1471134430069D+00
    39  3.8000000000000D-01  4.4852080322921D-01  1.1634561733339D+00
    40  3.9000000000000D-01  4.5033476532351D-01  1.1787644644031D+00
    41  4.0000000000000D-01  4.5149596650897D-01  1.1930283223581D+00
    42  4.1000000000000D-01  4.5200378767338D-01  1.2062389213011D+00
    43  4.2000000000000D-01  4.5185880326733D-01  1.2183886117738D+00
    44  4.3000000000000D-01  4.5106280070708D-01  1.2294709277750D+00
    45  4.4000000000000D-01  4.4961879806854D-01  1.2394805922999D+00
    46  4.5000000000000D-01  4.4753105995797D-01  1.2484135213897D+00
    47  4.6000000000000D-01  4.4480511144565D-01  1.2562668266799D+00
    48  4.7000000000000D-01  4.4144774995019D-01  1.2630388164389D+00
    49  4.8000000000000D-01  4.3746705496262D-01  1.2687289950891D+00
    50  4.9000000000000D-01  4.3287239550230D-01  1.2733380612064D+00
    51  5.0000000000000D-01  4.2767443519906D-01  1.2768679039952D+00
    52  5.1000000000000D-01  4.2188513489971D-01  1.2793215982369D+00
    53  5.2000000000000D-01  4.1551775270117D-01  1.2807033977144D+00
    54  5.3000000000000D-01  4.0858684131675D-01  1.2810187271152D+00
    55  5.4000000000000D-01  4.0110824268752D-01  1.2802741724188D+00
    56  5.5000000000000D-01  3.9309907975616D-01  1.2784774697759D+00
    57  5.6000000000000D-01  3.8457774532699D-01  1.2756374928895D+00
    58  5.7000000000000D-01  3.7556388794248D-01  1.2717642389105D+00
    59  5.8000000000000D-01  3.6607839471388D-01  1.2668688128608D+00
    60  5.9000000000000D-01  3.5614337105100D-01  1.2609634106021D+00
    61  6.0000000000000D-01  3.4578211724474D-01  1.2540613003686D+00
    62  6.1000000000000D-01  3.3501910186408D-01  1.2461768028848D+00
    63  6.2000000000000D-01  3.2387993193867D-01  1.2373252700919D+00
    64  6.3000000000000D-01  3.1239131990709D-01  1.2275230625090D+00
    65  6.4000000000000D-01  3.0058104732107D-01  1.2167875252562D+00
    66  6.5000000000000D-01  2.8847792530560D-01  1.2051369627718D+00
    67  6.6000000000000D-01  2.7611175178551D-01  1.1925906122532D+00
    68  6.7000000000000D-01  2.6351326549960D-01  1.1791686158597D+00
    69  6.8000000000000D-01  2.5071409683427D-01  1.1648919917107D+00
    70  6.9000000000000D-01  2.3774671551964D-01  1.1497826037220D+00
    71  7.0000000000000D-01  2.2464437524242D-01  1.1338631303179D+00
    72  7.1000000000000D-01  2.1144105524085D-01  1.1171570320649D+00
    73  7.2000000000000D-01  1.9817139895877D-01  1.0996885182718D+00
    74  7.3000000000000D-01  1.8487064984689D-01  1.0814825126025D+00
    75  7.4000000000000D-01  1.7157458441099D-01  1.0625646177518D+00
    76  7.5000000000000D-01  1.5831944261784D-01  1.0429610792351D+00
    77  7.6000000000000D-01  1.4514185578109D-01  1.0226987483446D+00
    78  7.7000000000000D-01  1.3207877206025D-01  1.0018050443265D+00
    79  7.8000000000000D-01  1.1916737971679D-01  9.8030791583565D-01
    80  7.9000000000000D-01  1.0644502828197D-01  9.5823580172551D-01
    81  8.0000000000000D-01  9.3949147801454D-02  9.3561759123204D-01
    82  8.1000000000000D-01  8.1717166331594D-02  9.1248258361272D-01
    83  8.2000000000000D-01  6.9786425871984D-02  8.8886044730214D-01
    84  8.3000000000000D-01  5.8194096928131D-02  8.6478117864724D-01
    85  8.4000000000000D-01  4.6977091906674D-02  8.4027506028623D-01
    86  8.5000000000000D-01  3.6171977554109D-02  8.1537261923616D-01
    87  8.6000000000000D-01  2.5814886657174D-02  7.9010458475499D-01
    88  8.7000000000000D-01  1.5941429230945D-02  7.6450184604456D-01
    89  8.8000000000000D-01  6.5866034262821D-03  7.3859540986171D-01
    90  8.9000000000000D-01 -2.2152936050664D-03  7.1241635810496D-01
    91  9.0000000000000D-01 -1.0430754644850D-02  6.8599580544482D-01
    92  9.1000000000000D-01 -1.8027150894373D-02  6.5936485706565D-01
    93  9.2000000000000D-01 -2.4972819761186D-02  6.3255456658739D-01
    94  9.3000000000000D-01 -3.1237151692095D-02  6.0559589423530D-01
    95  9.4000000000000D-01 -3.6790675796180D-02  5.7851966532548D-01
    96  9.5000000000000D-01 -4.1605144000199D-02  5.5135652913390D-01
    97  9.6000000000000D-01 -4.5653613478280D-02  5.2413691821606D-01
    98  9.7000000000000D-01 -4.8910527098140D-02  4.9689100824373D-01
    99  9.8000000000000D-01 -5.1351791627378D-02  4.6964867842456D-01
   100  9.9000000000000D-01 -5.2954853445496D-02  4.4243947256947D-01
   101  1.0000000000000D+00 -5.3698771510350D-02  4.1529256087168D-01
   102  1.0100000000000D+00 -5.3564287331442D-02  3.8823670246001D-01
   103  1.0200000000000D+00 -5.2533891707587D-02  3.6130020878796D-01
   104  1.0300000000000D+00 -5.0591887991913D-02  3.3451090791843D-01
   105  1.0400000000000D+00 -4.7724451653721D-02  3.0789610976258D-01
   106  1.0500000000000D+00 -4.3919685914399D-02  2.8148257232950D-01
   107  1.0600000000000D+00 -3.9167673242683D-02  2.5529646904149D-01
   108  1.0700000000000D+00 -3.3460522503385D-02  2.2936335716819D-01
   109  1.0800000000000D+00 -2.6792411564458D-02  2.0370814743005D-01
   110  1.0900000000000D+00 -1.9159625177250D-02  1.7835507482024D-01
   111  1.1000000000000D+00 -1.0560587957208D-02  1.5332767069100D-01
   112  1.1100000000000D+00 -9.9589230322854D-04  1.2864873614879D-01
   113  1.1200000000000D+00  9.5316788918790D-03  1.0434031679966D-01
   114  1.1300000000000D+00  2.1017134874214D-02  8.0423678883589D-02
   115  1.1400000000000D+00  3.3453265124274D-02  5.6919286834067D-02
   116  1.1500000000000D+00  4.6830633020957D-02  3.3846782296451D-02
   117  1.1600000000000D+00  6.1137575163806D-02  1.1224964635629D-02
   118  1.1700000000000D+00  7.6360206426482D-02 -1.0928227039429D-02
   119  1.1800000000000D+00  9.2482430797130D-02 -3.2595730309854D-02
   120  1.1900000000000D+00  1.0948595804928D-01 -5.3761374317654D-02
   121  1.2000000000000D+00  1.2735032626389D-01 -7.4409893055017D-02
   122  1.2100000000000D+00  1.4605293020758D-01 -9.4526937056955D-02
   123  1.2200000000000D+00  1.6556905555475D-01 -1.1409908348518D-01
   124  1.2300000000000D+00  1.8587191892643D-01 -1.3311384459377D-01
   125  1.2400000000000D+00  2.0693271369345D-01 -1.5155967457178D-01
   126  1.2500000000000D+00  2.2872066147559D-01 -1.6942597476070D-01
   127  1.2600000000000D+00  2.5120306926046D-01 -1.8670309724628D-01
   128  1.2700000000000D+00  2.7434539203082D-01 -2.0338234683029D-01
   129  1.2800000000000D+00  2.9811130077795D-01 -2.1945598139009D-01
   130  1.2900000000000D+00  3.2246275577364D-01 -2.3491721063466D-01
   131  1.3000000000000D+00  3.4736008493290D-01 -2.4976019327311D-01
   132  1.3100000000000D+00  3.7276206709382D-01 -2.6398003261278D-01
   133  1.3200000000000D+00  3.9862602003609D-01 -2.7757277060519D-01
   134  1.3300000000000D+00  4.2490789301622D-01 -2.9053538036569D-01
   135  1.3400000000000D+00  4.5156236360205D-01 -3.0286575719256D-01
   136  1.3500000000000D+00  4.7854293857541D-01 -3.1456270811335D-01
   137  1.3600000000000D+00  5.0580205863403D-01 -3.2562593999389D-01
   138  1.3700000000000D+00  5.3329120663912D-01 -3.3605604624247D-01
   139  1.3800000000000D+00  5.6096101912411D-01 -3.4585449214768D-01
   140  1.3900000000000D+00  5.8876140076020D-01 -3.5502359889288D-01
   141  1.4000000000000D+00  6.1664164149485D-01 -3.6356652628579D-01
   142  1.4100000000000D+00  6.4455053602485D-01 -3.7148725425342D-01
   143  1.4200000000000D+00  6.7243650529090D-01 -3.7879056314769D-01
   144  1.4300000000000D+00  7.0024771965803D-01 -3.8548201291108D-01
   145  1.4400000000000D+00  7.2793222342789D-01 -3.9156792115829D-01
   146  1.4500000000000D+00  7.5543806035014D-01 -3.9705534022232D-01
   147  1.4600000000000D+00  7.8271339975934D-01 -4.0195203322635D-01
   148  1.4700000000000D+00  8.0970666298964D-01 -4.0626644923540D-01
   149  1.4800000000000D+00  8.3636664969553D-01 -4.1000769754798D-01
   150  1.4900000000000D+00  8.6264266371602D-01 -4.1318552118929D-01
   151  1.5000000000000D+00  8.8848463811072D-01 -4.1581026966489D-01
   152  1.5100000000000D+00  9.1384325900557D-01 -4.1789287104129D-01
   153  1.5200000000000D+00  9.3867008787297D-01 -4.1944480341331D-01
   154  1.5300000000000D+00  9.6291768189168D-01 -4.2047806582585D-01
   155  1.5400000000000D+00  9.8653971201819D-01 -4.2100514871280D-01
   156  1.5500000000000D+00  1.0094910784154D+00 -4.2103900391999D-01
   157  1.5600000000000D+00  1.0317280228970D+00 -4.2059301437680D-01
   158  1.5700000000000D+00  1.0532082380230D+00 -4.1968096348335D-01
   159  1.5800000000000D+00  1.0738909725525D+00 -4.1831700427743D-01
   160  1.5900000000000D+00  1.0937371328671D+00 -4.1651562844933D-01
   161  1.6000000000000D+00  1.1127093801380D+00 -4.1429163526542D-01
   162  1.6100000000000D+00  1.1307722228236D+00 -4.1166010047142D-01
   163  1.6200000000000D+00  1.1478921043434D+00 -4.0863634523087D-01
   164  1.6300000000000D+00  1.1640374854992D+00 -4.0523590517199D-01
   165  1.6400000000000D+00  1.1791789215514D+00 -4.0147449959361D-01
   166  1.6500000000000D+00  1.1932891335332D+00 -3.9736800090341D-01
   167  1.6600000000000D+00  1.2063430737510D+00 -3.9293240433478D-01
   168  1.6700000000000D+00  1.2183179850846D+00 -3.8818379801489D-01
   169  1.6800000000000D+00  1.2291934540792D+00 -3.8313833342509D-01
   170  1.6900000000000D+00  1.2389514574679D+00 -3.7781219632522D-01
   171  1.7000000000000D+00  1.2475764021734D+00 -3.7222157817694D-01
   172  1.7100000000000D+00  1.2550551584454D+00 -3.6638264813706D-01
   173  1.7200000000000D+00  1.2613770862560D+00 -3.6031152564784D-01
   174  1.7300000000000D+00  1.2665340546088D+00 -3.5402425369651D-01
   175  1.7400000000000D+00  1.2705204539839D+00 -3.4753677275960D-01
   176  1.7500000000000D+00  1.2733332015514D+00 -3.4086489550837D-01
   177  1.7600000000000D+00  1.2749717395003D+00 -3.3402428227581D-01
   178  1.7700000000000D+00  1.2754380260665D+00 -3.2703041736892D-01
   179  1.7800000000000D+00  1.2747365197614D+00 -3.1989858620741D-01
   180  1.7900000000000D+00  1.2728741563240D+00 -3.1264385338183D-01
   181  1.8000000000000D+00  1.2698603190165D+00 -3.0528104159594D-01
   182  1.8100000000000D+00  1.2657068018210D+00 -2.9782471158524D-01
   183  1.8200000000000D+00  1.2604277661484D+00 -2.9028914297420D-01
   184  1.8300000000000D+00  1.2540396907700D+00 -2.8268831614863D-01
   185  1.8400000000000D+00  1.2465613154783D+00 -2.7503589511603D-01
   186  1.8500000000000D+00  1.2380135784133D+00 -2.6734521140340D-01
   187  1.8600000000000D+00  1.2284195473899D+00 -2.5962924898632D-01
   188  1.8700000000000D+00  1.2178043454465D+00 -2.5190063026131D-01
   189  1.8800000000000D+00  1.2061950707250D+00 -2.4417160308675D-01
   190  1.8900000000000D+00  1.1936207112179D+00 -2.3645402885719D-01
   191  1.9000000000000D+00  1.1801120542594D+00 -2.2875937167487D-01
   192  1.9100000000000D+00  1.1657015915642D+00 -2.2109868853609D-01
   193  1.9200000000000D+00  1.1504234195813D+00 -2.1348262062122D-01
   194  1.9300000000000D+00  1.1343131359905D+00 -2.0592138559402D-01
   195  1.9400000000000D+00  1.1174077323164D+00 -1.9842477097066D-01
   196  1.9500000000000D+00  1.0997454832175D+00 -1.9100212850673D-01
   197  1.9600000000000D+00  1.0813658327861D+00 -1.8366236959689D-01
   198  1.9700000000000D+00  1.0623092781217D+00 -1.7641396169715D-01
   199  1.9800000000000D+00  1.0426172507956D+00 -1.6926492569346D-01
   200  1.9900000000000D+00  1.0223319963214D+00 -1.6222283427799D-01
   201  2.0000000000000D+00  1.0014964522891D+00 -1.5529481122463D-01
   202  2.0100000000000D+00  9.8015412540651D-01 -1.4848753160996D-01
   203  2.0200000000000D+00  9.5834896792227D-01 -1.4180722291341D-01
   204  2.0300000000000D+00  9.3612525384998D-01 -1.3525966697340D-01
   205  2.0400000000000D+00  9.1352745540266D-01 -1.2885020280022D-01
   206  2.0500000000000D+00  8.9060011999415D-01 -1.2258373015898D-01
   207  2.0600000000000D+00  8.6738774837231D-01 -1.1646471395678D-01
   208  2.0700000000000D+00  8.4393467409256D-01 -1.1049718934491D-01
   209  2.0800000000000D+00  8.2028494488998D-01 -1.0468476753128D-01
   210  2.0900000000000D+00  7.9648220637403D-01 -9.9030642268624D-02
   211  2.1000000000000D+00  7.7256958812490D-01 -9.3537596957613D-02
   212  2.1100000000000D+00  7.4858959316684D-01 -8.8208012363708D-02
   213  2.1200000000000D+00  7.2458399050544D-01 -8.3043874879331D-02
   214  2.1300000000000D+00  7.0059371158022D-01 -7.8046785309603D-02
   215  2.1400000000000D+00  6.7665875095878D-01 -7.3217968140963D-02
   216  2.1500000000000D+00  6.5281807098899D-01 -6.8558281253010D-02
   217  2.1600000000000D+00  6.2910951187622D-01 -6.4068226031766D-02
   218  2.1700000000000D+00  6.0556970626764D-01 -5.9747957855618D-02
   219  2.1800000000000D+00  5.8223399934069D-01 -5.5597296907453D-02
   220  2.1900000000000D+00  5.5913637482130D-01 -5.1615739270161D-02
   221  2.2000000000000D+00  5.3630938611451D-01 -4.7802468296486D-02
   222  2.2100000000000D+00  5.1378409434020D-01 -4.4156366169670D-02
   223  2.2200000000000D+00  4.9159001219484D-01 -4.0676025660217D-02
   224  2.2300000000000D+00  4.6975505404207D-01 -3.7359762037430D-02
   225  2.2400000000000D+00  4.4830549341567D-01 -3.4205625059275D-02
   226  2.2500000000000D+00  4.2726592633482D-01 -3.1211411081158D-02
   227  2.2600000000000D+00  4.0665924203985D-01 -2.8374675183810D-02
   228  2.2700000000000D+00  3.8650660088690D-01 -2.5692743304131D-02
   229  2.2800000000000D+00  3.6682741821266D-01 -2.3162724404430D-02
   230  2.2900000000000D+00  3.4763935655194D-01 -2.0781522526064D-02
   231  2.3000000000000D+00  3.2895832417914D-01 -1.8545848810837D-02
   232  2.3100000000000D+00  3.1079848032053D-01 -1.6452233446456D-02
   233  2.3200000000000D+00  2.9317224850423D-01 -1.4497037420576D-02
   234  2.3300000000000D+00  2.7609033572224D-01 -1.2676464198473D-02
   235  2.3400000000000D+00  2.5956175878462D-01 -1.0986571211317D-02
   236  2.3500000000000D+00  2.4359387797894D-01 -9.4232811187658D-03
   237  2.3600000000000D+00  2.2819243615347D-01 -7.9823929463488D-03
   238  2.3700000000000D+00  2.1336160513036D-01 -6.6595929368589D-03
   239  2.3800000000000D+00  1.9910403836812D-01 -5.4504651629465D-03
   240  2.3900000000000D+00  1.8542092854909D-01 -4.3505019735767D-03
   241  2.4000000000000D+00  1.7231207248145D-01 -3.3551140575396D-03
   242  2.4100000000000D+00  1.5977594661972D-01 -2.4596397509836D-03
   243  2.4200000000000D+00  1.4780975606413D-01 -1.6593570307173D-03
   244  2.4300000000000D+00  1.3640955429636D-01 -9.4948904279978D-04
   245  2.4400000000000D+00  1.2557033632583D-01 -3.2521224016044D-04
   246  2.4500000000000D+00  1.1528598031202D-01  2.1832052940839D-04
   247  2.4600000000000D+00  1.0554950602548D-01  6.8598810583047D-04
   248  2.4700000000000D+00  9.6353159629916D-02  1.0826916224679D-03
   249  2.4800000000000D+00  8.7688762005229D-02  1.4133690865138D-03
   250  2.4900000000000D+00  7.9547228003915D-02  1.6829340811193D-03
   251  2.5000000000000D+00  7.1918567163240D-02  1.8962587330160D-03
   252  2.5100000000000D+00  6.4791749412039D-02  2.0581454183833D-03
   253  2.5200000000000D+00  5.8154681288433D-02  2.1733019005826D-03
   254  2.5300000000000D+00  5.1994040355876D-02  2.2463072851587D-03
   255  2.5400000000000D+00  4.6295023130455D-02  2.2815686528497D-03
   256  2.5500000000000D+00  4.1041801194722D-02  2.2833446199128D-03
   257  2.5600000000000D+00  3.6217576442647D-02  2.2557308119822D-03
   258  2.5700000000000D+00  3.1804845311908D-02  2.2026645718191D-03
   259  2.5800000000000D+00  2.7785334991015D-02  2.1279024575266D-03
   260  2.5900000000000D+00  2.4140177288175D-02  2.0350183853131D-03
   261  2.6000000000000D+00  2.0850048125157D-02  1.9273994717174D-03
   262  2.6100000000000D+00  1.7895258831033D-02  1.8082382510658D-03
   263  2.6200000000000D+00  1.5255877287727D-02  1.6805281030932D-03
   264  2.6300000000000D+00  1.2911840816153D-02  1.5470585212001D-03
   265  2.6400000000000D+00  1.0843065557010D-02  1.4104108439672D-03
   266  2.6500000000000D+00  9.0295536099991D-03  1.2729543958295D-03
   267  2.6600000000000D+00  7.4514982204212D-03  1.1368430485684D-03
   268  2.6700000000000D+00  6.0893833645830D-03  1.0040121679244D-03
   269  2.6800000000000D+00  4.9240804897755D-03  8.7617594323057D-04
   270  2.6900000000000D+00  3.9369423211517D-03  7.5482511041017D-04
   271  2.7000000000000D+00  3.1098900518721D-03  6.4122498856369D-04
   272  2.7100000000000D+00  2.4254964054321D-03  5.3641386571638D-04
   273  2.7200000000000D+00  1.8670650157427D-03  4.4120174648154D-04
   274  2.7300000000000D+00  1.4187029304180D-03  3.5616937220604D-04
   275  2.7400000000000D+00  1.0655077133977D-03  2.8167685681416D-04
   276  2.7500000000000D+00  7.9337610037952D-04  2.1784369398185D-04
   277  2.7600000000000D+00  5.8882744286279D-04  1.6453065906748D-04
   278  2.7700000000000D+00  4.3953931636053D-04  1.2135747697065D-04
   279  2.7800000000000D+00  3.3314286924324D-04  8.7504787954771D-05
   280  2.7900000000000D+00  2.6357697876331D-04  6.2778956302166D-05
   281  2.8000000000000D+00  2.2320276605354D-04  4.6295251441375D-05
   282  2.8100000000000D+00  2.0933953879872D-04  3.7744216936919D-05
   283  2.8200000000000D+00  2.0515471660169D-04  3.3741809471888D-05
   284  2.8300000000000D+00  1.9529009356045D-04  3.0929793559386D-05
   285  2.8400000000000D+00  1.6429219224004D-04  2.5793430743080D-05
   286  2.8500000000000D+00  1.0962222542647D-04  1.7159628087281D-05
   287  2.8600000000000D+00  5.0250881957777D-05  7.8865587183686D-06
   288  2.8700000000000D+00 -1.5740082376695D-07 -2.4104076863933D-08
   289  2.8800000000000D+00 -1.7573376433013D-05 -2.6844951682799D-06
   290  2.8900000000000D+00 -1.7155117386184D-05 -2.6166331118808D-06
   291  2.9000000000000D+00 -6.0044757070310D-06 -9.1501879796577D-07
   292  2.9100000000000D+00  2.4333869603004D-06  3.6925716784328D-07
   293  2.9200000000000D+00  4.2619281917393D-06  6.4562090299391D-07
   294  2.9300000000000D+00  2.9077610057308D-06  4.3983874768834D-07
   295  2.9400000000000D+00 -4.2400667271762D-08 -6.6845814832729D-09
   296  2.9500000000000D+00 -4.4826847866488D-07 -7.0670755080635D-08
   297  2.9600000000000D+00 -4.8513551090962D-07 -7.6482943825375D-08
   298  2.9700000000000D+00 -1.9035688395514D-07 -3.0010284827463D-08
   299  2.9800000000000D+00  0.0000000000000D+00  0.0000000000000D+00
   300  2.9900000000000D+00  0.0000000000000D+00  0.0000000000000D+00
   301  3.0000000000000D+00  0.0000000000000D+00  0.0000000000000D+00
   302  3.0100000000000D+00  0.0000000000000D+00  0.0000000000000D+00
   303  3.0200000000000D+00  0.0000000000000D+00  0.0000000000000D+00
   304  3.0300000000000D+00  0.0000000000000D+00  0.0000000000000D+00
   305  3.0400000000000D+00  0.0000000000000D+00  0.0000000000000D+00
   306  3.0500000000000D+00  0.0000000000000D+00  0.0000000000000D+00
   307  3.0600000000000D+00  0.0000000000000D+00  0.0000000000000D+00
   308  3.0700000000000D+00  0.0000000000000D+00  0.0000000000000D+00
   309  3.0800000000000D+00  0.0000000000000D+00  0.0000000000000D+00
   310  3.0900000000000D+00  0.0000000000000D+00  0.0000000000000D+00
   311  3.1000000000000D+00  0.0000000000000D+00  0.0000000000000D+00
   312  3.1100000000000D+00  0.0000000000000D+00  0.0000000000000D+00
   313  3.1200000000000D+00  0.0000000000000D+00  0.0000000000000D+00
   314  3.1300000000000D+00  0.0000000000000D+00  0.0000000000000D+00
   315  3.1400000000000D+00  0.0000000000000D+00  0.0000000000000D+00
   316  3.1500000000000D+00  0.0000000000000D+00  0.0000000000000D+00
   317  3.1600000000000D+00  0.0000000000000D+00  0.0000000000000D+00
   318  3.1700000000000D+00  0.0000000000000D+00  0.0000000000000D+00
   319  3.1800000000000D+00  0.0000000000000D+00  0.0000000000000D+00
   320  3.1900000000000D+00  0.0000000000000D+00  0.0000000000000D+00
   321  3.2000000000000D+00  0.0000000000000D+00  0.0000000000000D+00
   322  3.2100000000000D+00  0.0000000000000D+00  0.0000000000000D+00
   323  3.2200000000000D+00  0.0000000000000D+00  0.0000000000000D+00
   324  3.2300000000000D+00  0.0000000000000D+00  0.0000000000000D+00
   325  3.2400000000000D+00  0.0000000000000D+00  0.0000000000000D+00
   326  3.2500000000000D+00  0.0000000000000D+00  0.0000000000000D+00
   327  3.2600000000000D+00  0.0000000000000D+00  0.0000000000000D+00
   328  3.2700000000000D+00  0.0000000000000D+00  0.0000000000000D+00
   329  3.2800000000000D+00  0.0000000000000D+00  0.0000000000000D+00
   330  3.2900000000000D+00  0.0000000000000D+00  0.0000000000000D+00
   331  3.3000000000000D+00  0.0000000000000D+00  0.0000000000000D+00
   332  3.3100000000000D+00  0.0000000000000D+00  0.0000000000000D+00
   333  3.3200000000000D+00  0.0000000000000D+00  0.0000000000000D+00
   334  3.3300000000000D+00  0.0000000000000D+00  0.0000000000000D+00
   335  3.3400000000000D+00  0.0000000000000D+00  0.0000000000000D+00
   336  3.3500000000000D+00  0.0000000000000D+00  0.0000000000000D+00
   337  3.3600000000000D+00  0.0000000000000D+00  0.0000000000000D+00
   338  3.3700000000000D+00  0.0000000000000D+00  0.0000000000000D+00
   339  3.3800000000000D+00  0.0000000000000D+00  0.0000000000000D+00
   340  3.3900000000000D+00  0.0000000000000D+00  0.0000000000000D+00
   341  3.4000000000000D+00  0.0000000000000D+00  0.0000000000000D+00
   342  3.4100000000000D+00  0.0000000000000D+00  0.0000000000000D+00
   343  3.4200000000000D+00  0.0000000000000D+00  0.0000000000000D+00
   344  3.4300000000000D+00  0.0000000000000D+00  0.0000000000000D+00
   345  3.4400000000000D+00  0.0000000000000D+00  0.0000000000000D+00
   346  3.4500000000000D+00  0.0000000000000D+00  0.0000000000000D+00
   347  3.4600000000000D+00  0.0000000000000D+00  0.0000000000000D+00
   348  3.4700000000000D+00  0.0000000000000D+00  0.0000000000000D+00
   349  3.4800000000000D+00  0.0000000000000D+00  0.0000000000000D+00
   350  3.4900000000000D+00  0.0000000000000D+00  0.0000000000000D+00
   351  3.5000000000000D+00  0.0000000000000D+00  0.0000000000000D+00
   352  3.5100000000000D+00  0.0000000000000D+00  0.0000000000000D+00
   353  3.5200000000000D+00  0.0000000000000D+00  0.0000000000000D+00
   354  3.5300000000000D+00  0.0000000000000D+00  0.0000000000000D+00
   355  3.5400000000000D+00  0.0000000000000D+00  0.0000000000000D+00
   356  3.5500000000000D+00  0.0000000000000D+00  0.0000000000000D+00
   357  3.5600000000000D+00  0.0000000000000D+00  0.0000000000000D+00
   358  3.5700000000000D+00  0.0000000000000D+00  0.0000000000000D+00
   359  3.5800000000000D+00  0.0000000000000D+00  0.0000000000000D+00
   360  3.5900000000000D+00  0.0000000000000D+00  0.0000000000000D+00
   361  3.6000000000000D+00  0.0000000000000D+00  0.0000000000000D+00
   362  3.6100000000000D+00  0.0000000000000D+00  0.0000000000000D+00
   363  3.6200000000000D+00  0.0000000000000D+00  0.0000000000000D+00
   364  3.6300000000000D+00  0.0000000000000D+00  0.0000000000000D+00
   365  3.6400000000000D+00  0.0000000000000D+00  0.0000000000000D+00
   366  3.6500000000000D+00  0.0000000000000D+00  0.0000000000000D+00
   367  3.6600000000000D+00  0.0000000000000D+00  0.0000000000000D+00
   368  3.6700000000000D+00  0.0000000000000D+00  0.0000000000000D+00
   369  3.6800000000000D+00  0.0000000000000D+00  0.0000000000000D+00
   370  3.6900000000000D+00  0.0000000000000D+00  0.0000000000000D+00
   371  3.7000000000000D+00  0.0000000000000D+00  0.0000000000000D+00
   372  3.7100000000000D+00  0.0000000000000D+00  0.0000000000000D+00
   373  3.7200000000000D+00  0.0000000000000D+00  0.0000000000000D+00
   374  3.7300000000000D+00  0.0000000000000D+00  0.0000000000000D+00
   375  3.7400000000000D+00  0.0000000000000D+00  0.0000000000000D+00
   376  3.7500000000000D+00  0.0000000000000D+00  0.0000000000000D+00
   377  3.7600000000000D+00  0.0000000000000D+00  0.0000000000000D+00
   378  3.7700000000000D+00  0.0000000000000D+00  0.0000000000000D+00
   379  3.7800000000000D+00  0.0000000000000D+00  0.0000000000000D+00
   380  3.7900000000000D+00  0.0000000000000D+00  0.0000000000000D+00
   381  3.8000000000000D+00  0.0000000000000D+00  0.0000000000000D+00
   382  3.8100000000000D+00  0.0000000000000D+00  0.0000000000000D+00
   383  3.8200000000000D+00  0.0000000000000D+00  0.0000000000000D+00
   384  3.8300000000000D+00  0.0000000000000D+00  0.0000000000000D+00
   385  3.8400000000000D+00  0.0000000000000D+00  0.0000000000000D+00
   386  3.8500000000000D+00  0.0000000000000D+00  0.0000000000000D+00
   387  3.8600000000000D+00  0.0000000000000D+00  0.0000000000000D+00
   388  3.8700000000000D+00  0.0000000000000D+00  0.0000000000000D+00
   389  3.8800000000000D+00  0.0000000000000D+00  0.0000000000000D+00
   390  3.8900000000000D+00  0.0000000000000D+00  0.0000000000000D+00
   391  3.9000000000000D+00  0.0000000000000D+00  0.0000000000000D+00
   392  3.9100000000000D+00  0.0000000000000D+00  0.0000000000000D+00
   393  3.9200000000000D+00  0.0000000000000D+00  0.0000000000000D+00
   394  3.9300000000000D+00  0.0000000000000D+00  0.0000000000000D+00
   395  3.9400000000000D+00  0.0000000000000D+00  0.0000000000000D+00
   396  3.9500000000000D+00  0.0000000000000D+00  0.0000000000000D+00
   397  3.9600000000000D+00  0.0000000000000D+00  0.0000000000000D+00
   398  3.9700000000000D+00  0.0000000000000D+00  0.0000000000000D+00
   399  3.9800000000000D+00  0.0000000000000D+00  0.0000000000000D+00
   400  3.9900000000000D+00  0.0000000000000D+00  0.0000000000000D+00
   401  4.0000000000000D+00  0.0000000000000D+00  0.0000000000000D+00
   402  4.0100000000000D+00  0.0000000000000D+00  0.0000000000000D+00
   403  4.0200000000000D+00  0.0000000000000D+00  0.0000000000000D+00
   404  4.0300000000000D+00  0.0000000000000D+00  0.0000000000000D+00
   405  4.0400000000000D+00  0.0000000000000D+00  0.0000000000000D+00
   406  4.0500000000000D+00  0.0000000000000D+00  0.0000000000000D+00
   407  4.0600000000000D+00  0.0000000000000D+00  0.0000000000000D+00
   408  4.0700000000000D+00  0.0000000000000D+00  0.0000000000000D+00
   409  4.0800000000000D+00  0.0000000000000D+00  0.0000000000000D+00
   410  4.0900000000000D+00  0.0000000000000D+00  0.0000000000000D+00
   411  4.1000000000000D+00  0.0000000000000D+00  0.0000000000000D+00
   412  4.1100000000000D+00  0.0000000000000D+00  0.0000000000000D+00
   413  4.1200000000000D+00  0.0000000000000D+00  0.0000000000000D+00
   414  4.1300000000000D+00  0.0000000000000D+00  0.0000000000000D+00
   415  4.1400000000000D+00  0.0000000000000D+00  0.0000000000000D+00
   416  4.1500000000000D+00  0.0000000000000D+00  0.0000000000000D+00
   417  4.1600000000000D+00  0.0000000000000D+00  0.0000000000000D+00
   418  4.1700000000000D+00  0.0000000000000D+00  0.0000000000000D+00
   419  4.1800000000000D+00  0.0000000000000D+00  0.0000000000000D+00
   420  4.1900000000000D+00  0.0000000000000D+00  0.0000000000000D+00
   421  4.2000000000000D+00  0.0000000000000D+00  0.0000000000000D+00
   422  4.2100000000000D+00  0.0000000000000D+00  0.0000000000000D+00