Kr    ONCVPSP-3.3.1  r_core=   2.83591   2.86994   2.86994
     36.0000      8.0000      210905    zatom,zion,pspd
     8 -116133   2     4   600     0    pspcod,pspxc,lmax,lloc,mmax,r2well
  5.99000000  0.00000000  0.00000000    rchrg fchrg qchrg
     2     2     2     0     0    nproj
     1     1           extension_switch
   0                         2.0865392015203D+00 -8.5781306071765D-02
     1  0.0000000000000D+00 -1.1324274851177D-13  1.5729084701377D-12
     2  1.0000000000000D-02  3.8672398107666D-02  1.7112004161088D-02
     3  2.0000000000000D-02  7.7308476294221D-02  3.4199705194179D-02
     4  3.0000000000000D-02  1.1587195565868D-01  5.1238828866405D-02
     5  4.0000000000000D-02  1.5432663929422D-01  6.8205158764514D-02
     6  5.0000000000000D-02  1.9263645317000D-01  8.5074565277694D-02
     7  6.0000000000000D-02  2.3076548687483D-01  1.0182303466688D-01
     8  7.0000000000000D-02  2.6867803417668D-01  1.1842669824754D-01
     9  8.0000000000000D-02  3.0633863335227D-01  1.3486186171129D-01
    10  9.0000000000000D-02  3.4371210724110D-01  1.5110503460979D-01
    11  1.0000000000000D-01  3.8076360297833D-01  1.6713296002208D-01
    12  1.1000000000000D-01  4.1745863136146D-01  1.8292264442356D-01
    13  1.2000000000000D-01  4.5376310580552D-01  1.9845138777230D-01
    14  1.3000000000000D-01  4.8964338084230D-01  2.1369681382435D-01
    15  1.4000000000000D-01  5.2506629011895D-01  2.2863690068670D-01
    16  1.5000000000000D-01  5.5999918385210D-01  2.4325001161202D-01
    17  1.6000000000000D-01  5.9440996569352D-01  2.5751492603553D-01
    18  1.7000000000000D-01  6.2826712896437D-01  2.7141087084948D-01
    19  1.8000000000000D-01  6.6153979221494D-01  2.8491755190645D-01
    20  1.9000000000000D-01  6.9419773406763D-01  2.9801518573724D-01
    21  2.0000000000000D-01  7.2621142730151D-01  3.1068453146459D-01
    22  2.1000000000000D-01  7.5755207213702D-01  3.2290692288843D-01
    23  2.2000000000000D-01  7.8819162868035D-01  3.3466430071307D-01
    24  2.3000000000000D-01  8.1810284848761D-01  3.4593924488137D-01
    25  2.4000000000000D-01  8.4725930520935D-01  3.5671500697553D-01
    26  2.5000000000000D-01  8.7563542427714D-01  3.6697554263842D-01
    27  2.6000000000000D-01  9.0320651159455D-01  3.7670554396417D-01
    28  2.7000000000000D-01  9.2994878119544D-01  3.8589047180098D-01
    29  2.8000000000000D-01  9.5583938183399D-01  3.9451658790397D-01
    30  2.9000000000000D-01  9.8085642247110D-01  4.0257098687051D-01
    31  3.0000000000000D-01  1.0049789966235D+00  4.1004162778527D-01
    32  3.1000000000000D-01  1.0281872055423D+00  4.1691736549732D-01
    33  3.2000000000000D-01  1.0504621801897D+00  4.2318798144683D-01
    34  3.3000000000000D-01  1.0717861019818D+00  4.2884421395425D-01
    35  3.4000000000000D-01  1.0921422222705D+00  4.3387778788076D-01
    36  3.5000000000000D-01  1.1115148805332D+00  4.3828144356443D-01
    37  3.6000000000000D-01  1.1298895212460D+00  4.4204896493314D-01
    38  3.7000000000000D-01  1.1472527094132D+00  4.4517520669192D-01
    39  3.8000000000000D-01  1.1635921447300D+00  4.4765612047905D-01
    40  3.9000000000000D-01  1.1788966743551D+00  4.4948877988310D-01
    41  4.0000000000000D-01  1.1931563042720D+00  4.5067140421071D-01
    42  4.1000000000000D-01  1.2063622092210D+00  4.5120338089297D-01
    43  4.2000000000000D-01  1.2185067411815D+00  4.5108528641748D-01
    44  4.3000000000000D-01  1.2295834363902D+00  4.5031890567181D-01
    45  4.4000000000000D-01  1.2395870208811D+00  4.4890724958420D-01
    46  4.5000000000000D-01  1.2485134145329D+00  4.4685457094726D-01
    47  4.6000000000000D-01  1.2563597336144D+00  4.4416637831137D-01
    48  4.7000000000000D-01  1.2631242918187D+00  4.4084944783558D-01
    49  4.8000000000000D-01  1.2688065997791D+00  4.3691183298566D-01
    50  4.9000000000000D-01  1.2734073630615D+00  4.3236287197136D-01
    51  5.0000000000000D-01  1.2769284786314D+00  4.2721319281770D-01
    52  5.1000000000000D-01  1.2793730297924D+00  4.2147471596882D-01
    53  5.2000000000000D-01  1.2807452796004D+00  4.1516065432661D-01
    54  5.3000000000000D-01  1.2810506627540D+00  4.0828551063102D-01
    55  5.4000000000000D-01  1.2802957759690D+00  4.0086507209429D-01
    56  5.5000000000000D-01  1.2784883668420D+00  3.9291640220662D-01
    57  5.6000000000000D-01  1.2756373212165D+00  3.8445782963708D-01
    58  5.7000000000000D-01  1.2717526490599D+00  3.7550893416041D-01
    59  5.8000000000000D-01  1.2668454688690D+00  3.6609052954728D-01
    60  5.9000000000000D-01  1.2609279906185D+00  3.5622464336347D-01
    61  6.0000000000000D-01  1.2540134972727D+00  3.4593449363132D-01
    62  6.1000000000000D-01  1.2461163248809D+00  3.3524446231555D-01
    63  6.2000000000000D-01  1.2372518412805D+00  3.2418006560433D-01
    64  6.3000000000000D-01  1.2274364234336D+00  3.1276792096616D-01
    65  6.4000000000000D-01  1.2166874334249D+00  3.0103571097228D-01
    66  6.5000000000000D-01  1.2050231931509D+00  2.8901214388504D-01
    67  6.6000000000000D-01  1.1924629577347D+00  2.7672691102245D-01
    68  6.7000000000000D-01  1.1790268876987D+00  2.6421064091994D-01
    69  6.8000000000000D-01  1.1647360199339D+00  2.5149485032134D-01
    70  6.9000000000000D-01  1.1496122375053D+00  2.3861189204174D-01
    71  7.0000000000000D-01  1.1336782383325D+00  2.2559489975644D-01
    72  7.1000000000000D-01  1.1169575027914D+00  2.1247772978109D-01
    73  7.2000000000000D-01  1.0994742602813D+00  1.9929489991975D-01
    74  7.3000000000000D-01  1.0812534548036D+00  1.8608152546888D-01
    75  7.4000000000000D-01  1.0623207096038D+00  1.7287325247653D-01
    76  7.5000000000000D-01  1.0427022909264D+00  1.5970618836721D-01
    77  7.6000000000000D-01  1.0224250709349D+00  1.4661683005451D-01
    78  7.7000000000000D-01  1.0015164898540D+00  1.3364198967396D-01
    79  7.8000000000000D-01  9.8000451738770D-01  1.2081871807997D-01
    80  7.9000000000000D-01  9.5791761347256D-01  1.0818422626087D-01
    81  8.0000000000000D-01  9.3528468842504D-01  9.5775804836748D-02
    82  8.1000000000000D-01  9.1213506254340D-01  8.3630741814356D-02
    83  8.2000000000000D-01  8.8849842522624D-01  7.1786238783376D-02
    84  8.3000000000000D-01  8.6440479367062D-01  6.0279325747068D-02
    85  8.4000000000000D-01  8.3988447121386D-01  4.9146774789426D-02
    86  8.5000000000000D-01  8.1496800538416D-01  3.8425012788972D-02
    87  8.6000000000000D-01  7.8968614572588D-01  2.8150033397081D-02
    88  8.7000000000000D-01  7.6406980146596D-01  1.8357308505713D-02
    89  8.8000000000000D-01  7.3814999908886D-01  9.0816994361705D-03
    90  8.9000000000000D-01  7.1195783988745D-01  3.5736808605832D-04
    91  9.0000000000000D-01  6.8552445755802D-01 -7.7823117231890D-03
    92  9.1000000000000D-01  6.5888097590741D-01 -1.5304842451113D-02
    93  9.2000000000000D-01  6.3205846674068D-01 -2.2178690345003D-02
    94  9.3000000000000D-01  6.0508790799741D-01 -2.8373371995106D-02
    95  9.4000000000000D-01  5.7800014220466D-01 -3.3859539682611D-02
    96  9.5000000000000D-01  5.5082583531427D-01 -3.8609065263502D-02
    97  9.6000000000000D-01  5.2359543599169D-01 -4.2595122330972D-02
    98  9.7000000000000D-01  4.9633913542292D-01 -4.5792266399356D-02
    99  9.8000000000000D-01  4.6908682770539D-01 -4.8176512853702D-02
   100  9.9000000000000D-01  4.4186807088776D-01 -4.9725412411593D-02
   101  1.0000000000000D+00  4.1471204872249D-01 -5.0418123846407D-02
   102  1.0100000000000D+00  3.8764753319407D-01 -5.0235483725289D-02
   103  1.0200000000000D+00  3.6070284788424D-01 -4.9160072919956D-02
   104  1.0300000000000D+00  3.3390583223428D-01 -4.7176279654021D-02
   105  1.0400000000000D+00  3.0728380676290D-01 -4.4270358857024D-02
   106  1.0500000000000D+00  2.8086353929629D-01 -4.0430487602981D-02
   107  1.0600000000000D+00  2.5467121226560D-01 -3.5646816419300D-02
   108  1.0700000000000D+00  2.2873239112448D-01 -2.9911516260995D-02
   109  1.0800000000000D+00  2.0307199393794D-01 -2.3218820955409D-02
   110  1.0900000000000D+00  1.7771426219103D-01 -1.5565064932918D-02
   111  1.1000000000000D+00  1.5268273286388D-01 -6.9487160714817D-03
   112  1.1100000000000D+00  1.2800021181713D-01  2.6295965063873D-03
   113  1.1200000000000D+00  1.0368874852935D-01  1.3167059831310D-02
   114  1.1300000000000D+00  7.9769612225312D-02  2.4658659813298D-02
   115  1.1400000000000D+00  5.6263269431227D-02  3.7097169415584D-02
   116  1.1500000000000D+00  3.3189362990549D-02  5.0473142381651D-02
   117  1.1600000000000D+00  1.0566692570988D-02  6.4774912604767D-02
   118  1.1700000000000D+00 -1.1586803309790D-02  7.9988599212777D-02
   119  1.1800000000000D+00 -3.3254063715363D-02  9.6098117423583D-02
   120  1.1900000000000D+00 -5.4418920156490D-02  1.1308519521489D-01
   121  1.2000000000000D+00 -7.5066109873767D-02  1.3092939582856D-01
   122  1.2100000000000D+00 -9.5181287521784D-02  1.4960814611462D-01
   123  1.2200000000000D+00 -1.1475103524272D-01  1.6909677070251D-01
   124  1.2300000000000D+00 -1.3376287111997D-01  1.8936853197259D-01
   125  1.2400000000000D+00 -1.5220525600688D-01  2.1039467577527D-01
   126  1.2500000000000D+00 -1.7006759872870D-01  2.3214448282997D-01
   127  1.2600000000000D+00 -1.8734025965715D-01  2.5458532572722D-01
   128  1.2700000000000D+00 -2.0401455266322D-01  2.7768273142344D-01
   129  1.2800000000000D+00 -2.2008274545630D-01  3.0140044910577D-01
   130  1.2900000000000D+00 -2.3553805831805D-01  3.2570052330019D-01
   131  1.3000000000000D+00 -2.5037466124728D-01  3.5054337205498D-01
   132  1.3100000000000D+00 -2.6458766953304D-01  3.7588787002686D-01
   133  1.3200000000000D+00 -2.7817313777398D-01  4.0169143629118D-01
   134  1.3300000000000D+00 -2.9112805237025D-01  4.2791012665519D-01
   135  1.3400000000000D+00 -3.0345032251342D-01  4.5449873025724D-01
   136  1.3500000000000D+00 -3.1513876970251D-01  4.8141087022131D-01
   137  1.3600000000000D+00 -3.2619311582155D-01  5.0859910809878D-01
   138  1.3700000000000D+00 -3.3661396981119D-01  5.3601505184440D-01
   139  1.3800000000000D+00 -3.4640281297304D-01  5.6360946704251D-01
   140  1.3900000000000D+00 -3.5556198294971D-01  5.9133239108022D-01
   141  1.4000000000000D+00 -3.6409465641918D-01  6.1913324998406D-01
   142  1.4100000000000D+00 -3.7200483055369D-01  6.4696097758286D-01
   143  1.4200000000000D+00 -3.7929730328876D-01  6.7476413668425D-01
   144  1.4300000000000D+00 -3.8597765245170D-01  7.0249104193044D-01
   145  1.4400000000000D+00 -3.9205221380554D-01  7.3008988397971D-01
   146  1.4500000000000D+00 -3.9752805805708D-01  7.5750885468201D-01
   147  1.4600000000000D+00 -4.0241296689053D-01  7.8469627287590D-01
   148  1.4700000000000D+00 -4.0671540808057D-01  8.1160071046003D-01
   149  1.4800000000000D+00 -4.1044450974548D-01  8.3817111836846D-01
   150  1.4900000000000D+00 -4.1361003380172D-01  8.6435695208808D-01
   151  1.5000000000000D+00 -4.1622234867907D-01  8.9010829634753D-01
   152  1.5100000000000D+00 -4.1829240136296D-01  9.1537598861642D-01
   153  1.5200000000000D+00 -4.1983168882377D-01  9.4011174104047D-01
   154  1.5300000000000D+00 -4.2085222890099D-01  9.6426826045899D-01
   155  1.5400000000000D+00 -4.2136653070491D-01  9.8779936613737D-01
   156  1.5500000000000D+00 -4.2138756460302D-01  1.0106601048612D+00
   157  1.5600000000000D+00 -4.2092873185555D-01  1.0328068630519D+00
   158  1.5700000000000D+00 -4.2000383396755D-01  1.0541974755390D+00
   159  1.5800000000000D+00 -4.1862704182137D-01  1.0747913306977D+00
   160  1.5900000000000D+00 -4.1681286465791D-01  1.0945494715652D+00
   161  1.6000000000000D+00 -4.1457611896784D-01  1.1134346927090D+00
   162  1.6100000000000D+00 -4.1193189736325D-01  1.1314116324362D+00
   163  1.6200000000000D+00 -4.0889553748592D-01  1.1484468601895D+00
   164  1.6300000000000D+00 -4.0548259102501D-01  1.1645089587022D+00
   165  1.6400000000000D+00 -4.0170879289516D-01  1.1795686008200D+00
   166  1.6500000000000D+00 -3.9759003064820D-01  1.1935986205740D+00
   167  1.6600000000000D+00 -3.9314231416497D-01  1.2065740784535D+00
   168  1.6700000000000D+00 -3.8838174569965D-01  1.2184723204928D+00
   169  1.6800000000000D+00 -3.8332449031805D-01  1.2292730311640D+00
   170  1.6900000000000D+00 -3.7798674680130D-01  1.2389582797165D+00
   171  1.7000000000000D+00 -3.7238471905015D-01  1.2475125600113D+00
   172  1.7100000000000D+00 -3.6653458806095D-01  1.2549228235065D+00
   173  1.7200000000000D+00 -3.6045248450016D-01  1.2611785055187D+00
   174  1.7300000000000D+00 -3.5415446194988D-01  1.2662715444144D+00
   175  1.7400000000000D+00 -3.4765647083979D-01  1.2701963939543D+00
   176  1.7500000000000D+00 -3.4097433314205D-01  1.2729500284243D+00
   177  1.7600000000000D+00 -3.3412371782936D-01  1.2745319408992D+00
   178  1.7700000000000D+00 -3.2712011718016D-01  1.2749441342237D+00
   179  1.7800000000000D+00 -3.1997882391195D-01  1.2741911052106D+00
   180  1.7900000000000D+00 -3.1271490923577D-01  1.2722798215828D+00
   181  1.8000000000000D+00 -3.0534320179677D-01  1.2692196922738D+00
   182  1.8100000000000D+00 -2.9787826759246D-01  1.2650225306491D+00
   183  1.8200000000000D+00 -2.9033439083155D-01  1.2597025112563D+00
   184  1.8300000000000D+00 -2.8272555580956D-01  1.2532761198158D+00
   185  1.8400000000000D+00 -2.7506542977399D-01  1.2457620969568D+00
   186  1.8500000000000D+00 -2.6736734682870D-01  1.2371813756365D+00
   187  1.8600000000000D+00 -2.5964429287102D-01  1.2275570125766D+00
   188  1.8700000000000D+00 -2.5190889157379D-01  1.2169141139358D+00
   189  1.8800000000000D+00 -2.4417339143736D-01  1.2052797553301D+00
   190  1.8900000000000D+00 -2.3644965387647D-01  1.1926828967346D+00
   191  1.9000000000000D+00 -2.2874914240575D-01  1.1791542921436D+00
   192  1.9100000000000D+00 -2.2108291284134D-01  1.1647263947920D+00
   193  1.9200000000000D+00 -2.1346160460750D-01  1.1494332577043D+00
   194  1.9300000000000D+00 -2.0589543305361D-01  1.1333104303983D+00
   195  1.9400000000000D+00 -1.9839418284216D-01  1.1163948517188D+00
   196  1.9500000000000D+00 -1.9096720235566D-01  1.0987247393554D+00
   197  1.9600000000000D+00 -1.8362339911717D-01  1.0803394763819D+00
   198  1.9700000000000D+00 -1.7637123623452D-01  1.0612794950779D+00
   199  1.9800000000000D+00 -1.6921872979147D-01  1.0415861586488D+00
   200  1.9900000000000D+00 -1.6217344724746D-01  1.0213016409601D+00
   201  2.0000000000000D+00 -1.5524250673713D-01  1.0004688049405D+00
   202  2.0100000000000D+00 -1.4843257731594D-01  9.7913107989680D-01
   203  2.0200000000000D+00 -1.4174988008548D-01  9.5733233821673D-01
   204  2.0300000000000D+00 -1.3520019017517D-01  9.3511677187365D-01
   205  2.0400000000000D+00 -1.2878883958093D-01  9.1252876914532D-01
   206  2.0500000000000D+00 -1.2252072077424D-01  8.8961279190019D-01
   207  2.0600000000000D+00 -1.1640029111551D-01  8.6641325401578D-01
   208  2.0700000000000D+00 -1.1043157798260D-01  8.4297440113663D-01
   209  2.0800000000000D+00 -1.0461818460943D-01  8.1934019232894D-01
   210  2.0900000000000D+00 -9.8963296600300D-02  7.9555418405493D-01
   211  2.1000000000000D+00 -9.3469689058934D-02  7.7165941654550D-01
   212  2.1100000000000D+00 -8.8139734330931D-02  7.4769830354444D-01
   213  2.1200000000000D+00 -8.2975410291193D-02  7.2371252511165D-01
   214  2.1300000000000D+00 -7.7978309154459D-02  6.9974292433474D-01
   215  2.1400000000000D+00 -7.3149646768161D-02  6.7582940827449D-01
   216  2.1500000000000D+00 -6.8490272347989D-02  6.5201085286107D-01
   217  2.1600000000000D+00 -6.4000678614085D-02  6.2832501320467D-01
   218  2.1700000000000D+00 -5.9681012299263D-02  6.0480843840466D-01
   219  2.1800000000000D+00 -5.5531084982591D-02  5.8149639185171D-01
   220  2.1900000000000D+00 -5.1550384205408D-02  5.5842277744777D-01
   221  2.2000000000000D+00 -4.7738084860893D-02  5.3562007092793D-01
   222  2.2100000000000D+00 -4.4093060773293D-02  5.1311925807304D-01
   223  2.2200000000000D+00 -4.0613896472319D-02  4.9094977873608D-01
   224  2.2300000000000D+00 -3.7298899121272D-02  4.6913947708424D-01
   225  2.2400000000000D+00 -3.4146110522226D-02  4.4771455923734D-01
   226  2.2500000000000D+00 -3.1153319239146D-02  4.2669955670618D-01
   227  2.2600000000000D+00 -2.8318072738802D-02  4.0611729723514D-01
   228  2.2700000000000D+00 -2.5637689533391D-02  3.8598888278795D-01
   229  2.2800000000000D+00 -2.3109271360496D-02  3.6633367349056D-01
   230  2.2900000000000D+00 -2.0729715245941D-02  3.4716927990806D-01
   231  2.3000000000000D+00 -1.8495725533250D-02  3.2851156163151D-01
   232  2.3100000000000D+00 -1.6403825835968D-02  3.1037463252061D-01
   233  2.3200000000000D+00 -1.4450370797041D-02  2.9277087406554D-01
   234  2.3300000000000D+00 -1.2631557770755D-02  2.7571095454785D-01
   235  2.3400000000000D+00 -1.0943438313925D-02  2.5920385537692D-01
   236  2.3500000000000D+00 -9.3819294500178D-03  2.4325690471492D-01
   237  2.3600000000000D+00 -7.9428248070235D-03  2.2787581651309D-01
   238  2.3700000000000D+00 -6.6218054679273D-03  2.1306473686086D-01
   239  2.3800000000000D+00 -5.4144505811583D-03  1.9882629656980D-01
   240  2.3900000000000D+00 -4.3162478039347D-03  1.8516166867095D-01
   241  2.4000000000000D+00 -3.3226033611954D-03  1.7207063320951D-01
   242  2.4100000000000D+00 -2.4288513460796D-03  1.5955165263493D-01
   243  2.4200000000000D+00 -1.6302657133467D-03  1.4760192072075D-01
   244  2.4300000000000D+00 -9.2206579013016D-04  1.3621748207577D-01
   245  2.4400000000000D+00 -2.9942440290371D-04  1.2539332511596D-01
   246  2.4500000000000D+00  2.4250900819812D-04  1.1512332384723D-01
   247  2.4600000000000D+00  7.0861652266049D-04  1.0540049578167D-01
   248  2.4700000000000D+00  1.1038023533667D-03  9.6217086559642D-02
   249  2.4800000000000D+00  1.4330074984380D-03  8.7564917538706D-02
   250  2.4900000000000D+00  1.7011483140118D-03  7.9434906107987D-02
   251  2.5000000000000D+00  1.9130994693282D-03  7.1817066416780D-02
   252  2.5100000000000D+00  2.0736656085255D-03  6.4700375390728D-02
   253  2.5200000000000D+00  2.1875564645578D-03  5.8072749016215D-02
   254  2.5300000000000D+00  2.2593527594687D-03  5.1920877128086D-02
   255  2.5400000000000D+00  2.2934627598769D-03  4.6229971889167D-02
   256  2.5500000000000D+00  2.2941459362750D-03  4.0984222958257D-02
   257  2.5600000000000D+00  2.2654984357096D-03  3.6166852636018D-02
   258  2.5700000000000D+00  2.2114578400141D-03  3.1760379556542D-02
   259  2.5800000000000D+00  2.1357806355791D-03  2.7746555039595D-02
   260  2.5900000000000D+00  2.0420403855090D-03  2.4106536604960D-02
   261  2.6000000000000D+00  1.9336235934127D-03  2.0821027182671D-02
   262  2.6100000000000D+00  1.8137219309834D-03  1.7870366221927D-02
   263  2.6200000000000D+00  1.6853276835537D-03  1.5234650588562D-02
   264  2.6300000000000D+00  1.5512290346954D-03  1.2893847219197D-02
   265  2.6400000000000D+00  1.4140058138171D-03  1.0827902276326D-02
   266  2.6500000000000D+00  1.2760256528757D-03  9.0168480657307D-03
   267  2.6600000000000D+00  1.1394405638953D-03  7.4409080043864D-03
   268  2.6700000000000D+00  1.0061839010014D-03  6.0805959986401D-03
   269  2.6800000000000D+00  8.7796770531079D-04  4.9168129822767D-03
   270  2.6900000000000D+00  7.5628044300236D-04  3.9309405269266D-03
   271  2.7000000000000D+00  6.4238505619237D-04  3.1049278498502D-03
   272  2.7100000000000D+00  5.3731736258305D-04  2.4213747022479D-03
   273  2.7200000000000D+00  4.4188481670466D-04  1.8636105825816D-03
   274  2.7300000000000D+00  3.5666554279915D-04  1.4157670880085D-03
   275  2.7400000000000D+00  2.8201688995980D-04  1.0629637516827D-03
   276  2.7500000000000D+00  2.1805564626871D-04  7.9111893889671D-04
   277  2.7600000000000D+00  1.6464013080867D-04  5.8677534922266D-04
   278  2.7700000000000D+00  1.2138747936957D-04  4.3763096143330D-04
   279  2.7800000000000D+00  8.7476497450371D-05  3.3134592626106D-04
   280  2.7900000000000D+00  6.2708082587603D-05  2.6183778152998D-04
   281  2.8000000000000D+00  4.6193932448790D-05  2.2146966938485D-04
   282  2.8100000000000D+00  3.7618670931933D-05  2.0752676178619D-04
   283  2.8200000000000D+00  3.3602464376026D-05  2.0328033327596D-04
   284  2.8300000000000D+00  3.0791348412547D-05  1.9347194214962D-04
   285  2.8400000000000D+00  2.5675929112602D-05  1.6275718126340D-04
   286  2.8500000000000D+00  1.7081233053719D-05  1.0859867151531D-04
   287  2.8600000000000D+00  7.8508056355983D-06  4.9782997035085D-05
   288  2.8700000000000D+00 -2.3989595992140D-08 -1.5592059813224D-07
   289  2.8800000000000D+00 -2.6717119296901D-06 -1.7408156063912D-05
   290  2.8900000000000D+00 -2.6041609157266D-06 -1.6993915023961D-05
   291  2.9000000000000D+00 -9.1065735010722D-07 -5.9480904994505D-06
   292  2.9100000000000D+00  3.6744762626158D-07  2.4102272421781D-06
   293  2.9200000000000D+00  6.4244586496123D-07  4.2213307606770D-06
   294  2.9300000000000D+00  4.3766919915604D-07  2.8800427233510D-06
   295  2.9400000000000D+00 -6.6543449258204D-09 -4.2004924182709D-08
   296  2.9500000000000D+00 -7.0351088045152D-08 -4.4408460223354D-07
   297  2.9600000000000D+00 -7.6136986351313D-08 -4.8060753910989D-07
   298  2.9700000000000D+00 -2.9874538452971D-08 -1.8858020386669D-07
   299  2.9800000000000D+00  0.0000000000000D+00  0.0000000000000D+00
   300  2.9900000000000D+00  0.0000000000000D+00  0.0000000000000D+00
   301  3.0000000000000D+00  0.0000000000000D+00  0.0000000000000D+00
   302  3.0100000000000D+00  0.0000000000000D+00  0.0000000000000D+00
   303  3.0200000000000D+00  0.0000000000000D+00  0.0000000000000D+00
   304  3.0300000000000D+00  0.0000000000000D+00  0.0000000000000D+00
   305  3.0400000000000D+00  0.0000000000000D+00  0.0000000000000D+00
   306  3.0500000000000D+00  0.0000000000000D+00  0.0000000000000D+00
   307  3.0600000000000D+00  0.0000000000000D+00  0.0000000000000D+00
   308  3.0700000000000D+00  0.0000000000000D+00  0.0000000000000D+00
   309  3.0800000000000D+00  0.0000000000000D+00  0.0000000000000D+00
   310  3.0900000000000D+00  0.0000000000000D+00  0.0000000000000D+00
   311  3.1000000000000D+00  0.0000000000000D+00  0.0000000000000D+00
   312  3.1100000000000D+00  0.0000000000000D+00  0.0000000000000D+00
   313  3.1200000000000D+00  0.0000000000000D+00  0.0000000000000D+00
   314  3.1300000000000D+00  0.0000000000000D+00  0.0000000000000D+00
   315  3.1400000000000D+00  0.0000000000000D+00  0.0000000000000D+00
   316  3.1500000000000D+00  0.0000000000000D+00  0.0000000000000D+00
   317  3.1600000000000D+00  0.0000000000000D+00  0.0000000000000D+00
   318  3.1700000000000D+00  0.0000000000000D+00  0.0000000000000D+00
   319  3.1800000000000D+00  0.0000000000000D+00  0.0000000000000D+00
   320  3.1900000000000D+00  0.0000000000000D+00  0.0000000000000D+00
   321  3.2000000000000D+00  0.0000000000000D+00  0.0000000000000D+00
   322  3.2100000000000D+00  0.0000000000000D+00  0.0000000000000D+00
   323  3.2200000000000D+00  0.0000000000000D+00  0.0000000000000D+00
   324  3.2300000000000D+00  0.0000000000000D+00  0.0000000000000D+00
   325  3.2400000000000D+00  0.0000000000000D+00  0.0000000000000D+00
   326  3.2500000000000D+00  0.0000000000000D+00  0.0000000000000D+00
   327  3.2600000000000D+00  0.0000000000000D+00  0.0000000000000D+00
   328  3.2700000000000D+00  0.0000000000000D+00  0.0000000000000D+00
   329  3.2800000000000D+00  0.0000000000000D+00  0.0000000000000D+00
   330  3.2900000000000D+00  0.0000000000000D+00  0.0000000000000D+00
   331  3.3000000000000D+00  0.0000000000000D+00  0.0000000000000D+00
   332  3.3100000000000D+00  0.0000000000000D+00  0.0000000000000D+00
   333  3.3200000000000D+00  0.0000000000000D+00  0.0000000000000D+00
   334  3.3300000000000D+00  0.0000000000000D+00  0.0000000000000D+00
   335  3.3400000000000D+00  0.0000000000000D+00  0.0000000000000D+00
   336  3.3500000000000D+00  0.0000000000000D+00  0.0000000000000D+00
   337  3.3600000000000D+00  0.0000000000000D+00  0.0000000000000D+00
   338  3.3700000000000D+00  0.0000000000000D+00  0.0000000000000D+00
   339  3.3800000000000D+00  0.0000000000000D+00  0.0000000000000D+00
   340  3.3900000000000D+00  0.0000000000000D+00  0.0000000000000D+00
   341  3.4000000000000D+00  0.0000000000000D+00  0.0000000000000D+00
   342  3.4100000000000D+00  0.0000000000000D+00  0.0000000000000D+00
   343  3.4200000000000D+00  0.0000000000000D+00  0.0000000000000D+00
   344  3.4300000000000D+00  0.0000000000000D+00  0.0000000000000D+00
   345  3.4400000000000D+00  0.0000000000000D+00  0.0000000000000D+00
   346  3.4500000000000D+00  0.0000000000000D+00  0.0000000000000D+00
   347  3.4600000000000D+00  0.0000000000000D+00  0.0000000000000D+00
   348  3.4700000000000D+00  0.0000000000000D+00  0.0000000000000D+00
   349  3.4800000000000D+00  0.0000000000000D+00  0.0000000000000D+00
   350  3.4900000000000D+00  0.0000000000000D+00  0.0000000000000D+00
   351  3.5000000000000D+00  0.0000000000000D+00  0.0000000000000D+00
   352  3.5100000000000D+00  0.0000000000000D+00  0.0000000000000D+00
   353  3.5200000000000D+00  0.0000000000000D+00  0.0000000000000D+00
   354  3.5300000000000D+00  0.0000000000000D+00  0.0000000000000D+00
   355  3.5400000000000D+00  0.0000000000000D+00  0.0000000000000D+00
   356  3.5500000000000D+00  0.0000000000000D+00  0.0000000000000D+00
   357  3.5600000000000D+00  0.0000000000000D+00  0.0000000000000D+00
   358  3.5700000000000D+00  0.0000000000000D+00  0.0000000000000D+00
   359  3.5800000000000D+00  0.0000000000000D+00  0.0000000000000D+00
   360  3.5900000000000D+00  0.0000000000000D+00  0.0000000000000D+00
   361  3.6000000000000D+00  0.0000000000000D+00  0.0000000000000D+00
   362  3.6100000000000D+00  0.0000000000000D+00  0.0000000000000D+00
   363  3.6200000000000D+00  0.0000000000000D+00  0.0000000000000D+00
   364  3.6300000000000D+00  0.0000000000000D+00  0.0000000000000D+00
   365  3.6400000000000D+00  0.0000000000000D+00  0.0000000000000D+00
   366  3.6500000000000D+00  0.0000000000000D+00  0.0000000000000D+00
   367  3.6600000000000D+00  0.0000000000000D+00  0.0000000000000D+00
   368  3.6700000000000D+00  0.0000000000000D+00  0.0000000000000D+00
   369  3.6800000000000D+00  0.0000000000000D+00  0.0000000000000D+00
   370  3.6900000000000D+00  0.0000000000000D+00  0.0000000000000D+00
   371  3.7000000000000D+00  0.0000000000000D+00  0.0000000000000D+00
   372  3.7100000000000D+00  0.0000000000000D+00  0.0000000000000D+00
   373  3.7200000000000D+00  0.0000000000000D+00  0.0000000000000D+00
   374  3.7300000000000D+00  0.0000000000000D+00  0.0000000000000D+00
   375  3.7400000000000D+00  0.0000000000000D+00  0.0000000000000D+00
   376  3.7500000000000D+00  0.0000000000000D+00  0.0000000000000D+00
   377  3.7600000000000D+00  0.0000000000000D+00  0.0000000000000D+00
   378  3.7700000000000D+00  0.0000000000000D+00  0.0000000000000D+00
   379  3.7800000000000D+00  0.0000000000000D+00  0.0000000000000D+00
   380  3.7900000000000D+00  0.0000000000000D+00  0.0000000000000D+00
   381  3.8000000000000D+00  0.0000000000000D+00  0.0000000000000D+00
   382  3.8100000000000D+00  0.0000000000000D+00  0.0000000000000D+00
   383  3.8200000000000D+00  0.0000000000000D+00  0.0000000000000D+00
   384  3.8300000000000D+00  0.0000000000000D+00  0.0000000000000D+00
   385  3.8400000000000D+00  0.0000000000000D+00  0.0000000000000D+00
   386  3.8500000000000D+00  0.0000000000000D+00  0.0000000000000D+00
   387  3.8600000000000D+00  0.0000000000000D+00  0.0000000000000D+00
   388  3.8700000000000D+00  0.0000000000000D+00  0.0000000000000D+00
   389  3.8800000000000D+00  0.0000000000000D+00  0.0000000000000D+00
   390  3.8900000000000D+00  0.0000000000000D+00  0.0000000000000D+00
   391  3.9000000000000D+00  0.0000000000000D+00  0.0000000000000D+00
   392  3.9100000000000D+00  0.0000000000000D+00  0.0000000000000D+00
   393  3.9200000000000D+00  0.0000000000000D+00  0.0000000000000D+00
   394  3.9300000000000D+00  0.0000000000000D+00  0.0000000000000D+00
   395  3.9400000000000D+00  0.0000000000000D+00  0.0000000000000D+00
   396  3.9500000000000D+00  0.0000000000000D+00  0.0000000000000D+00
   397  3.9600000000000D+00  0.0000000000000D+00  0.0000000000000D+00
   398  3.9700000000000D+00  0.0000000000000D+00  0.0000000000000D+00
   399  3.9800000000000D+00  0.0000000000000D+00  0.0000000000000D+00
   400  3.9900000000000D+00  0.0000000000000D+00  0.0000000000000D+00
   401  4.0000000000000D+00  0.0000000000000D+00  0.0000000000000D+00
   402  4.0100000000000D+00  0.0000000000000D+00  0.0000000000000D+00
   403  4.0200000000000D+00  0.0000000000000D+00  0.0000000000000D+00
   404  4.0300000000000D+00  0.0000000000000D+00  0.0000000000000D+00
   405  4.0400000000000D+00  0.0000000000000D+00  0.0000000000000D+00
   406  4.0500000000000D+00  0.0000000000000D+00  0.0000000000000D+00
   407  4.0600000000000D+00  0.0000000000000D+00  0.0000000000000D+00
   408  4.0700000000000D+00  0.0000000000000D+00  0.0000000000000D+00
   409  4.0800000000000D+00  0.0000000000000D+00  0.0000000000000D+00
   410  4.0900000000000D+00  0.0000000000000D+00  0.0000000000000D+00
   411  4.1000000000000D+00  0.0000000000000D+00  0.0000000000000D+00
   412  4.1100000000000D+00  0.0000000000000D+00  0.0000000000000D+00
   413  4.1200000000000D+00  0.0000000000000D+00  0.0000000000000D+00
   414  4.1300000000000D+00  0.0000000000000D+00  0.0000000000000D+00
   415  4.1400000000000D+00  0.0000000000000D+00  0.0000000000000D+00
   416  4.1500000000000D+00  0.0000000000000D+00  0.0000000000000D+00
   417  4.1600000000000D+00  0.0000000000000D+00  0.0000000000000D+00
   418  4.1700000000000D+00  0.0000000000000D+00  0.0000000000000D+00
   419  4.1800000000000D+00  0.0000000000000D+00  0.0000000000000D+00
   420  4.1900000000000D+00  0.0000000000000D+00  0.0000000000000D+00
   421  4.2000000000000D+00  0.0000000000000D+00  0.0000000000000D+00
   422  4.2100000000000D+00  0.0000000000000D+00  0.0000000000000D+00