La    ONCVPSP-3.3.1  r_core=   2.92093   2.92093   2.92093   2.47169
     57.0000     11.0000      210905    zatom,zion,pspd
     8 -116133   3     4   600     0    pspcod,pspxc,lmax,lloc,mmax,r2well
  5.99000000  0.00000000  0.00000000    rchrg fchrg qchrg
     2     2     2     2     0    nproj
     1     1           extension_switch
   0                         3.8313645535680D+00  5.6595036576518D-01
     1  0.0000000000000D+00  1.3428147482841D-12 -3.4302734264191D-12
     2  1.0000000000000D-02  3.0033545892750D-02 -1.4903529736002D-03
     3  2.0000000000000D-02  6.0052862603810D-02 -2.9864149228660D-03
     4  3.0000000000000D-02  9.0043706942176D-02 -4.4938325397067D-03
     5  4.0000000000000D-02  1.1999180779448D-01 -6.0181282070797D-03
     6  5.0000000000000D-02  1.4988285240412D-01 -7.5646384900392D-03
     7  6.0000000000000D-02  1.7970247293783D-01 -9.1384533989976D-03
     8  7.0000000000000D-02  2.0943623343394D-01 -1.0744356678555D-02
     9  8.0000000000000D-02  2.3906961722507D-01 -1.2386767371823D-02
    10  9.0000000000000D-02  2.6858801492669D-01 -1.4069682905886D-02
    11  1.0000000000000D-01  2.9797671308049D-01 -1.5796623938893D-02
    12  1.1000000000000D-01  3.2722088353954D-01 -1.7570581203405D-02
    13  1.2000000000000D-01  3.5630557367951D-01 -1.9393964573818D-02
    14  1.3000000000000D-01  3.8521569751709D-01 -2.1268554578244D-02
    15  1.4000000000000D-01  4.1393602781371D-01 -2.3195456566939D-02
    16  1.5000000000000D-01  4.4245118923914D-01 -2.5175057740361D-02
    17  1.6000000000000D-01  4.7074565266557D-01 -2.7206987230304D-02
    18  1.7000000000000D-01  4.9880373065883D-01 -2.9290079417110D-02
    19  1.8000000000000D-01  5.2660957422909D-01 -3.1422340654997D-02
    20  1.9000000000000D-01  5.5414717089886D-01 -3.3600919565912D-02
    21  2.0000000000000D-01  5.8140034414110D-01 -3.5822081050086D-02
    22  2.1000000000000D-01  6.0835275423558D-01 -3.8081184148763D-02
    23  2.2000000000000D-01  6.3498790058619D-01 -4.0372663881276D-02
    24  2.3000000000000D-01  6.6128912553659D-01 -4.2690017165042D-02
    25  2.4000000000000D-01  6.8723961971615D-01 -4.5025792912762D-02
    26  2.5000000000000D-01  7.1282242894231D-01 -4.7371586386790D-02
    27  2.6000000000000D-01  7.3802046269969D-01 -4.9718037875648D-02
    28  2.7000000000000D-01  7.6281650421048D-01 -5.2054835742653D-02
    29  2.8000000000000D-01  7.8719322210448D-01 -5.4370723881154D-02
    30  2.9000000000000D-01  8.1113318369112D-01 -5.6653513595442D-02
    31  3.0000000000000D-01  8.3461886982960D-01 -5.8890099910612D-02
    32  3.1000000000000D-01  8.5763269138717D-01 -6.1066482298853D-02
    33  3.2000000000000D-01  8.8015700726939D-01 -6.3167789793890D-02
    34  3.3000000000000D-01  9.0217414399972D-01 -6.5178310449357D-02
    35  3.4000000000000D-01  9.2366641682018D-01 -6.7081525081225D-02
    36  3.5000000000000D-01  9.4461615227791D-01 -6.8860145218563D-02
    37  3.6000000000000D-01  9.6500571225727D-01 -7.0496155171636D-02
    38  3.7000000000000D-01  9.8481751941027D-01 -7.1970858110756D-02
    39  3.8000000000000D-01  1.0040340839328D+00 -7.3264926034507D-02
    40  3.9000000000000D-01  1.0226380316284D+00 -7.4358453491051D-02
    41  4.0000000000000D-01  1.0406121331948D+00 -7.5231014901905D-02
    42  4.1000000000000D-01  1.0579393346645D+00 -7.5861725323584D-02
    43  4.2000000000000D-01  1.0746027889240D+00 -7.6229304469007D-02
    44  4.3000000000000D-01  1.0905858882317D+00 -7.6312143797452D-02
    45  4.4000000000000D-01  1.1058722976502D+00 -7.6088376469491D-02
    46  4.5000000000000D-01  1.1204459893024D+00 -7.5535949951308D-02
    47  4.6000000000000D-01  1.1342912773592D+00 -7.4632701041613D-02
    48  4.7000000000000D-01  1.1473928536588D+00 -7.3356433083809D-02
    49  4.8000000000000D-01  1.1597358238575D+00 -7.1684995116082D-02
    50  4.9000000000000D-01  1.1713057440058D+00 -6.9596362703050D-02
    51  5.0000000000000D-01  1.1820886574406D+00 -6.7068720184242D-02
    52  5.1000000000000D-01  1.1920711318835D+00 -6.4080544067123D-02
    53  5.2000000000000D-01  1.2012402966290D+00 -6.0610687285677D-02
    54  5.3000000000000D-01  1.2095838797080D+00 -5.6638464039915D-02
    55  5.4000000000000D-01  1.2170902449076D+00 -5.2143734926533D-02
    56  5.5000000000000D-01  1.2237484285264D+00 -4.7106992067165D-02
    57  5.6000000000000D-01  1.2295481757466D+00 -4.1509443937575D-02
    58  5.7000000000000D-01  1.2344799764984D+00 -3.5333099599072D-02
    59  5.8000000000000D-01  1.2385351006974D+00 -2.8560852032334D-02
    60  5.9000000000000D-01  1.2417056327307D+00 -2.1176560273760D-02
    61  6.0000000000000D-01  1.2439845050705D+00 -1.3165130055395D-02
    62  6.1000000000000D-01  1.2453655308961D+00 -4.5125926512572D-03
    63  6.2000000000000D-01  1.2458434356014D+00  4.7938183639786D-03
    64  6.3000000000000D-01  1.2454138870726D+00  1.4765592734271D-02
    65  6.4000000000000D-01  1.2440735246192D+00  2.5412871804788D-02
    66  6.5000000000000D-01  1.2418199864437D+00  3.6744379747111D-02
    67  6.6000000000000D-01  1.2386519355402D+00  4.8767357999668D-02
    68  6.7000000000000D-01  1.2345690839140D+00  6.1487503187912D-02
    69  6.8000000000000D-01  1.2295722150177D+00  7.4908908780206D-02
    70  6.9000000000000D-01  1.2236632043035D+00  8.9034010725369D-02
    71  7.0000000000000D-01  1.2168450377964D+00  1.0386353730726D-01
    72  7.1000000000000D-01  1.2091218285961D+00  1.1939646344047D-01
    73  7.2000000000000D-01  1.2004988312220D+00  1.3562996961838D-01
    74  7.3000000000000D-01  1.1909824537202D+00  1.5255940571197D-01
    75  7.4000000000000D-01  1.1805802674562D+00  1.7017825980375D-01
    76  7.5000000000000D-01  1.1693010145250D+00  1.8847813222626D-01
    77  7.6000000000000D-01  1.1571546127151D+00  2.0744871495947D-01
    78  7.7000000000000D-01  1.1441521579685D+00  2.2707777652502D-01
    79  7.8000000000000D-01  1.1303059242884D+00  2.4735115249891D-01
    80  7.9000000000000D-01  1.1156293610496D+00  2.6825274174674D-01
    81  8.0000000000000D-01  1.1001370876778D+00  2.8976450846800D-01
    82  8.1000000000000D-01  1.0838448856663D+00  3.1186649011783D-01
    83  8.2000000000000D-01  1.0667696879121D+00  3.3453681125584D-01
    84  8.3000000000000D-01  1.0489295653557D+00  3.5775170335308D-01
    85  8.4000000000000D-01  1.0303437109200D+00  3.8148553056862D-01
    86  8.5000000000000D-01  1.0110324207496D+00  4.0571082148835D-01
    87  8.6000000000000D-01  9.9101707276186D-01  4.3039830679865D-01
    88  8.7000000000000D-01  9.7032010252702D-01  4.5551696284821D-01
    89  8.8000000000000D-01  9.4896497650316D-01  4.8103406103172D-01
    90  8.9000000000000D-01  9.2697616266114D-01  5.0691522290939D-01
    91  9.0000000000000D-01  9.0437909854087D-01  5.3312448095708D-01
    92  9.1000000000000D-01  8.8120015678918D-01  5.5962434482224D-01
    93  9.2000000000000D-01  8.5746660823720D-01  5.8637587294226D-01
    94  9.3000000000000D-01  8.3320658258271D-01  6.1333874936283D-01
    95  9.4000000000000D-01  8.0844902675075D-01  6.4047136557559D-01
    96  9.5000000000000D-01  7.8322366101319D-01  6.6773090717680D-01
    97  9.6000000000000D-01  7.5756093295495D-01  6.9507344513116D-01
    98  9.7000000000000D-01  7.3149196938200D-01  7.2245403140813D-01
    99  9.8000000000000D-01  7.0504852627277D-01  7.4982679874221D-01
   100  9.9000000000000D-01  6.7826293688130D-01  7.7714506425290D-01
   101  1.0000000000000D+00  6.5116805810676D-01  8.0436143664555D-01
   102  1.0100000000000D+00  6.2379721524981D-01  8.3142792670056D-01
   103  1.0200000000000D+00  5.9618414528198D-01  8.5829606074512D-01
   104  1.0300000000000D+00  5.6836293875978D-01  8.8491699678966D-01
   105  1.0400000000000D+00  5.4036798051961D-01  9.1124164300055D-01
   106  1.0500000000000D+00  5.1223388929469D-01  9.3722077816959D-01
   107  1.0600000000000D+00  4.8399545639925D-01  9.6280517383244D-01
   108  1.0700000000000D+00  4.5568758362852D-01  9.8794571768021D-01
   109  1.0800000000000D+00  4.2734522052709D-01  1.0125935379009D+00
   110  1.0900000000000D+00  3.9900330118028D-01  1.0367001280830D+00
   111  1.1000000000000D+00  3.7069668068629D-01  1.0602174723070D+00
   112  1.1100000000000D+00  3.4246007146825D-01  1.0830981700505D+00
   113  1.1200000000000D+00  3.1432797958723D-01  1.1052955605260D+00
   114  1.1300000000000D+00  2.8633464121767D-01  1.1267638460752D+00
   115  1.1400000000000D+00  2.5851395944777D-01  1.1474582142386D+00
   116  1.1500000000000D+00  2.3089944156704D-01  1.1673349581255D+00
   117  1.1600000000000D+00  2.0352413700246D-01  1.1863515947087D+00
   118  1.1700000000000D+00  1.7642057606427D-01  1.2044669806768D+00
   119  1.1800000000000D+00  1.4962070966041D-01  1.2216414254764D+00
   120  1.1900000000000D+00  1.2315585013696D-01  1.2378368011905D+00
   121  1.2000000000000D+00  9.7056613398456D-02  1.2530166489020D+00
   122  1.2100000000000D+00  7.1352862460950D-02  1.2671462812020D+00
   123  1.2200000000000D+00  4.6073652585280D-02  1.2801928805133D+00
   124  1.2300000000000D+00  2.1247178134237D-02  1.2921255929131D+00
   125  1.2400000000000D+00 -3.0992787056133D-03  1.3029156171466D+00
   126  1.2500000000000D+00 -2.6939397202450D-02  1.3125362885405D+00
   127  1.2600000000000D+00 -5.0247865229743D-02  1.3209631575421D+00
   128  1.2700000000000D+00 -7.3000424163925D-02  1.3281740626212D+00
   129  1.2800000000000D+00 -9.5173911410238D-02  1.3341491972885D+00
   130  1.2900000000000D+00 -1.1674630044833D-01  1.3388711710094D+00
   131  1.3000000000000D+00 -1.3769673829109D-01  1.3423250638029D+00
   132  1.3100000000000D+00 -1.5800558025810D-01  1.3444984743315D+00
   133  1.3200000000000D+00 -1.7765442197870D-01  1.3453815613262D+00
   134  1.3300000000000D+00 -1.9662612853781D-01  1.3449670781877D+00
   135  1.3400000000000D+00 -2.1490486069130D-01  1.3432504006359D+00
   136  1.3500000000000D+00 -2.3247609809155D-01  1.3402295473223D+00
   137  1.3600000000000D+00 -2.4932665945556D-01  1.3359051932931D+00
   138  1.3700000000000D+00 -2.6544471963580D-01  1.3302806762650D+00
   139  1.3800000000000D+00 -2.8081982355476D-01  1.3233619956780D+00
   140  1.3900000000000D+00 -2.9544289696259D-01  1.3151578044855D+00
   141  1.4000000000000D+00 -3.0930625401213D-01  1.3056793937284D+00
   142  1.4100000000000D+00 -3.2240360162590D-01  1.2949406698935D+00
   143  1.4200000000000D+00 -3.3473004065687D-01  1.2829581251226D+00
   144  1.4300000000000D+00 -3.4628206385752D-01  1.2697508003707D+00
   145  1.4400000000000D+00 -3.5705755065329D-01  1.2553402415667D+00
   146  1.4500000000000D+00 -3.6705575877014D-01  1.2397504489617D+00
   147  1.4600000000000D+00 -3.7627731272795D-01  1.2230078197566D+00
   148  1.4700000000000D+00 -3.8472418925550D-01  1.2051410842078D+00
   149  1.4800000000000D+00 -3.9239969967923D-01  1.1861812354023D+00
   150  1.4900000000000D+00 -3.9930846933078D-01  1.1661614528735D+00
   151  1.5000000000000D+00 -4.0545641407114D-01  1.1451170203568D+00
   152  1.5100000000000D+00 -4.1085071397022D-01  1.1230852378450D+00
   153  1.5200000000000D+00 -4.1549978426582D-01  1.1001053282980D+00
   154  1.5300000000000D+00 -4.1941324366255D-01  1.0762183392214D+00
   155  1.5400000000000D+00 -4.2260188009149D-01  1.0514670394586D+00
   156  1.5500000000000D+00 -4.2507761402831D-01  1.0258958114938D+00
   157  1.5600000000000D+00 -4.2685345948139D-01  9.9955053959123D-01
   158  1.5700000000000D+00 -4.2794348278181D-01  9.7247849413946D-01
   159  1.5800000000000D+00 -4.2836275927969D-01  9.4472821251394D-01
   160  1.5900000000000D+00 -4.2812732810645D-01  9.1634937687804D-01
   161  1.6000000000000D+00 -4.2725414510486D-01  8.8739268923694D-01
   162  1.6100000000000D+00 -4.2576103410420D-01  8.5790974419045D-01
   163  1.6200000000000D+00 -4.2366663664826D-01  8.2795289971690D-01
   164  1.6300000000000D+00 -4.2099036035777D-01  7.9757514643287D-01
   165  1.6400000000000D+00 -4.1775232604962D-01  7.6682997569182D-01
   166  1.6500000000000D+00 -4.1397331378950D-01  7.3577124694757D-01
   167  1.6600000000000D+00 -4.0967470801535D-01  7.0445305477482D-01
   168  1.6700000000000D+00 -4.0487844190195D-01  6.7292959594964D-01
   169  1.6800000000000D+00 -3.9960694111561D-01  6.4125503700273D-01
   170  1.6900000000000D+00 -3.9388306712173D-01  6.0948338262125D-01
   171  1.7000000000000D+00 -3.8773006020316D-01  5.7766834532746D-01
   172  1.7100000000000D+00 -3.8117148234237D-01  5.4586321677372D-01
   173  1.7200000000000D+00 -3.7423116013344D-01  5.1412074109880D-01
   174  1.7300000000000D+00 -3.6693312786225D-01  4.8249299063256D-01
   175  1.7400000000000D+00 -3.5930157093126D-01  4.5103124442035D-01
   176  1.7500000000000D+00 -3.5136076974441D-01  4.1978586977609D-01
   177  1.7600000000000D+00 -3.4313504424508D-01  3.8880620738260D-01
   178  1.7700000000000D+00 -3.3464869918755D-01  3.5814046003364D-01
   179  1.7800000000000D+00 -3.2592597036188D-01  3.2783558561492D-01
   180  1.7900000000000D+00 -3.1699097180238D-01  2.9793719426182D-01
   181  1.8000000000000D+00 -3.0786764423386D-01  2.6848945038806D-01
   182  1.8100000000000D+00 -2.9857970473830D-01  2.3953497938339D-01
   183  1.8200000000000D+00 -2.8915059790614D-01  2.1111477968931D-01
   184  1.8300000000000D+00 -2.7960344844044D-01  1.8326814002108D-01
   185  1.8400000000000D+00 -2.6996101544929D-01  1.5603256233954D-01
   186  1.8500000000000D+00 -2.6024564841561D-01  1.2944369041775D-01
   187  1.8600000000000D+00 -2.5047924501243D-01  1.0353524439004D-01
   188  1.8700000000000D+00 -2.4068321081184D-01  7.8338961314207D-02
   189  1.8800000000000D+00 -2.3087842094553D-01  5.3884541800999D-02
   190  1.8900000000000D+00 -2.2108518386688D-01  3.0199603041445D-02
   191  1.9000000000000D+00 -2.1132320712039D-01  7.3096378475031D-03
   192  1.9100000000000D+00 -2.0161156539412D-01 -1.4762019610699D-02
   193  1.9200000000000D+00 -1.9196867062441D-01 -3.5994222132721D-02
   194  1.9300000000000D+00 -1.8241224447661D-01 -5.6368031077087D-02
   195  1.9400000000000D+00 -1.7295929297243D-01 -7.5866731954266D-02
   196  1.9500000000000D+00 -1.6362608346273D-01 -9.4475843581245D-02
   197  1.9600000000000D+00 -1.5442812388102D-01 -1.1218312107610D-01
   198  1.9700000000000D+00 -1.4538014423222D-01 -1.2897855292101D-01
   199  1.9800000000000D+00 -1.3649608048441D-01 -1.4485435174888D-01
   200  1.9900000000000D+00 -1.2778906056086D-01 -1.5980493975581D-01
   201  2.0000000000000D+00 -1.1927139276265D-01 -1.7382692798434D-01
   202  2.0100000000000D+00 -1.1095455625909D-01 -1.8691909051656D-01
   203  2.0200000000000D+00 -1.0284919383380D-01 -1.9908233320728D-01
   204  2.0300000000000D+00 -9.4965106769868D-02 -2.1031965735694D-01
   205  2.0400000000000D+00 -8.7311251727685D-02 -2.2063611879415D-01
   206  2.0500000000000D+00 -7.9895739787024D-02 -2.3003878206914D-01
   207  2.0600000000000D+00 -7.2725837284542D-02 -2.3853667074241D-01
   208  2.0700000000000D+00 -6.5807968659986D-02 -2.4614071340080D-01
   209  2.0800000000000D+00 -5.9147721047209D-02 -2.5286368611516D-01
   210  2.0900000000000D+00 -5.2749850560457D-02 -2.5872015157788D-01
   211  2.1000000000000D+00 -4.6618290302248D-02 -2.6372639500710D-01
   212  2.1100000000000D+00 -4.0756159785162D-02 -2.6790035756739D-01
   213  2.1200000000000D+00 -3.5165775901616D-02 -2.7126156722580D-01
   214  2.1300000000000D+00 -2.9848665173580D-02 -2.7383106767221D-01
   215  2.1400000000000D+00 -2.4805577224396D-02 -2.7563134558151D-01
   216  2.1500000000000D+00 -2.0036499427216D-02 -2.7668625650703D-01
   217  2.1600000000000D+00 -1.5540672501142D-02 -2.7702094985459D-01
   218  2.1700000000000D+00 -1.1316607051251D-02 -2.7666179328007D-01
   219  2.1800000000000D+00 -7.3621008778866D-03 -2.7563629684067D-01
   220  2.1900000000000D+00 -3.6742569483383D-03 -2.7397303723662D-01
   221  2.2000000000000D+00 -2.4950192487460D-04 -2.7170158268587D-01
   222  2.2100000000000D+00  2.9163948595582D-03 -2.6885241843329D-01
   223  2.2200000000000D+00  5.8283021242740D-03 -2.6545687361012D-01
   224  2.2300000000000D+00  8.4917091414766D-03 -2.6154705554317D-01
   225  2.2400000000000D+00  1.0912697994797D-02 -2.5715575557446D-01
   226  2.2500000000000D+00  1.3097940388272D-02 -2.5231642987259D-01
   227  2.2600000000000D+00  1.5054663912195D-02 -2.4706309244982D-01
   228  2.2700000000000D+00  1.6790612215625D-02 -2.4143019248059D-01
   229  2.2800000000000D+00  1.8314052260057D-02 -2.3545262839914D-01
   230  2.2900000000000D+00  1.9633838405028D-02 -2.2916594167538D-01
   231  2.3000000000000D+00  2.0759303974226D-02 -2.2260599309477D-01
   232  2.3100000000000D+00  2.1700117367088D-02 -2.1580854142818D-01
   233  2.3200000000000D+00  2.2466190324536D-02 -2.0880896115876D-01
   234  2.3300000000000D+00  2.3067566328156D-02 -2.0164194517078D-01
   235  2.3400000000000D+00  2.3514320922804D-02 -1.9434122993546D-01
   236  2.3500000000000D+00  2.3816342217345D-02 -1.8693897081934D-01
   237  2.3600000000000D+00  2.3983434219185D-02 -1.7946607960859D-01
   238  2.3700000000000D+00  2.4025272465919D-02 -1.7195212879890D-01
   239  2.3800000000000D+00  2.3951409477687D-02 -1.6442540602483D-01
   240  2.3900000000000D+00  2.3771203352623D-02 -1.5691273156890D-01
   241  2.4000000000000D+00  2.3493812771597D-02 -1.4943948160038D-01
   242  2.4100000000000D+00  2.3128175697885D-02 -1.4202956196027D-01
   243  2.4200000000000D+00  2.2682985485829D-02 -1.3470537479260D-01
   244  2.4300000000000D+00  2.2166673375705D-02 -1.2748780514198D-01
   245  2.4400000000000D+00  2.1587391653522D-02 -1.2039621011342D-01
   246  2.4500000000000D+00  2.0952998542276D-02 -1.1344841374381D-01
   247  2.4600000000000D+00  2.0271044436132D-02 -1.0666070634512D-01
   248  2.4700000000000D+00  1.9548760226930D-02 -1.0004785048621D-01
   249  2.4800000000000D+00  1.8793047242907D-02 -9.3623092099058D-02
   250  2.4900000000000D+00  1.8010468507054D-02 -8.7398175778939D-02
   251  2.5000000000000D+00  1.7207242082527D-02 -8.1383366453359D-02
   252  2.5100000000000D+00  1.6389235891131D-02 -7.5587475538091D-02
   253  2.5200000000000D+00  1.5561963793711D-02 -7.0017890908727D-02
   254  2.5300000000000D+00  1.4730583650907D-02 -6.4680612663924D-02
   255  2.5400000000000D+00  1.3899896702917D-02 -5.9580292702914D-02
   256  2.5500000000000D+00  1.3074348114786D-02 -5.4720277629243D-02
   257  2.5600000000000D+00  1.2258029296456D-02 -5.0102656577861D-02
   258  2.5700000000000D+00  1.1454681382829D-02 -4.5728312175227D-02
   259  2.5800000000000D+00  1.0667699749415D-02 -4.1596974243761D-02
   260  2.5900000000000D+00  9.9001400137610D-03 -3.7707277325510D-02
   261  2.6000000000000D+00  9.1547250327933D-03 -3.4056820644811D-02
   262  2.6100000000000D+00  8.4338527788044D-03 -3.0642230162485D-02
   263  2.6200000000000D+00  7.7396053542991D-03 -2.7459223197009D-02
   264  2.6300000000000D+00  7.0737588250969D-03 -2.4502674746537D-02
   265  2.6400000000000D+00  6.4377937542473D-03 -2.1766685198322D-02
   266  2.6500000000000D+00  5.8329065088565D-03 -1.9244649335174D-02
   267  2.6600000000000D+00  5.2600211748954D-03 -1.6929326195480D-02
   268  2.6700000000000D+00  4.7198019788860D-03 -1.4812909579770D-02
   269  2.6800000000000D+00  4.2126661499000D-03 -1.2887098739546D-02
   270  2.6900000000000D+00  3.7387971175704D-03 -1.1143168866938D-02
   271  2.7000000000000D+00  3.2981580093535D-03 -9.5720414599288D-03
   272  2.7100000000000D+00  2.8905053519404D-03 -8.1643541154543D-03
   273  2.7200000000000D+00  2.5154027399466D-03 -6.9105287516759D-03
   274  2.7300000000000D+00  2.1722345830216D-03 -5.8008389048694D-03
   275  2.7400000000000D+00  1.8602199811863D-03 -4.8254762645202D-03
   276  2.7500000000000D+00  1.5784260530235D-03 -3.9746137822659D-03
   277  2.7600000000000D+00  1.3257812161520D-03 -3.2384674304257D-03
   278  2.7700000000000D+00  1.1010884580065D-03 -2.6073567027943D-03
   279  2.7800000000000D+00  9.0303773887193D-04 -2.0717606531009D-03
   280  2.7900000000000D+00  7.3021810414068D-04 -1.6223716847994D-03
   281  2.8000000000000D+00  5.8112956519773D-04 -1.2501473015951D-03
   282  2.8100000000000D+00  4.5419418620747D-04 -9.4635777580580D-04
   283  2.8200000000000D+00  3.4776744023408D-04 -7.0264090287365D-04
   284  2.8300000000000D+00  2.6014884711005D-04 -5.1105102767244D-04
   285  2.8400000000000D+00  1.8957801555980D-04 -3.6395916493414D-04
   286  2.8500000000000D+00  1.3426102059883D-04 -2.5427529069901D-04
   287  2.8600000000000D+00  9.2208930717043D-05 -1.7500733384335D-04
   288  2.8700000000000D+00  6.1806547382253D-05 -1.2076576795432D-04
   289  2.8800000000000D+00  4.1328219917403D-05 -8.6481483971371D-05
   290  2.8900000000000D+00  2.9217222886072D-05 -6.7988393496932D-05
   291  2.9000000000000D+00  2.3420330384056D-05 -6.0461828888826D-05
   292  2.9100000000000D+00  2.0666000761721D-05 -5.6699792353760D-05
   293  2.9200000000000D+00  1.8568858874891D-05 -5.1821240166241D-05
   294  2.9300000000000D+00  1.4013484298744D-05 -3.9347800911046D-05
   295  2.9400000000000D+00  8.3921633559638D-06 -2.3534904463511D-05
   296  2.9500000000000D+00  2.8163701372483D-06 -7.8595967620839D-06
   297  2.9600000000000D+00 -8.9883808385842D-07  2.5868125185499D-06
   298  2.9700000000000D+00 -1.8597911401447D-06  5.3614818305916D-06
   299  2.9800000000000D+00 -1.3866491665538D-06  4.0011001019985D-06
   300  2.9900000000000D+00 -1.8754729476131D-07  5.4137685248327D-07
   301  3.0000000000000D+00  3.0482192543786D-07 -8.8903072480201D-07
   302  3.0100000000000D+00  3.9128706537956D-07 -1.1433618862352D-06
   303  3.0200000000000D+00  2.1656653970395D-07 -6.3384646056472D-07
   304  3.0300000000000D+00 -1.3832968863006D-08  3.8605342105441D-08
   305  3.0400000000000D+00 -4.8143023483235D-08  1.3435856828472D-07
   306  3.0500000000000D+00 -4.6627730210619D-08  1.3012965576719D-07
   307  3.0600000000000D+00 -1.5311341354545D-08  4.2731215326176D-08
   308  3.0700000000000D+00  0.0000000000000D+00  0.0000000000000D+00
   309  3.0800000000000D+00  0.0000000000000D+00  0.0000000000000D+00
   310  3.0900000000000D+00  0.0000000000000D+00  0.0000000000000D+00
   311  3.1000000000000D+00  0.0000000000000D+00  0.0000000000000D+00
   312  3.1100000000000D+00  0.0000000000000D+00  0.0000000000000D+00
   313  3.1200000000000D+00  0.0000000000000D+00  0.0000000000000D+00
   314  3.1300000000000D+00  0.0000000000000D+00  0.0000000000000D+00
   315  3.1400000000000D+00  0.0000000000000D+00  0.0000000000000D+00
   316  3.1500000000000D+00  0.0000000000000D+00  0.0000000000000D+00
   317  3.1600000000000D+00  0.0000000000000D+00  0.0000000000000D+00
   318  3.1700000000000D+00  0.0000000000000D+00  0.0000000000000D+00
   319  3.1800000000000D+00  0.0000000000000D+00  0.0000000000000D+00
   320  3.1900000000000D+00  0.0000000000000D+00  0.0000000000000D+00
   321  3.2000000000000D+00  0.0000000000000D+00  0.0000000000000D+00
   322  3.2100000000000D+00  0.0000000000000D+00  0.0000000000000D+00
   323  3.2200000000000D+00  0.0000000000000D+00  0.0000000000000D+00
   324  3.2300000000000D+00  0.0000000000000D+00  0.0000000000000D+00
   325  3.2400000000000D+00  0.0000000000000D+00  0.0000000000000D+00
   326  3.2500000000000D+00  0.0000000000000D+00  0.0000000000000D+00
   327  3.2600000000000D+00  0.0000000000000D+00  0.0000000000000D+00
   328  3.2700000000000D+00  0.0000000000000D+00  0.0000000000000D+00
   329  3.2800000000000D+00  0.0000000000000D+00  0.0000000000000D+00
   330  3.2900000000000D+00  0.0000000000000D+00  0.0000000000000D+00
   331  3.3000000000000D+00  0.0000000000000D+00  0.0000000000000D+00
   332  3.3100000000000D+00  0.0000000000000D+00  0.0000000000000D+00
   333  3.3200000000000D+00  0.0000000000000D+00  0.0000000000000D+00
   334  3.3300000000000D+00  0.0000000000000D+00  0.0000000000000D+00
   335  3.3400000000000D+00  0.0000000000000D+00  0.0000000000000D+00
   336  3.3500000000000D+00  0.0000000000000D+00  0.0000000000000D+00
   337  3.3600000000000D+00  0.0000000000000D+00  0.0000000000000D+00
   338  3.3700000000000D+00  0.0000000000000D+00  0.0000000000000D+00
   339  3.3800000000000D+00  0.0000000000000D+00  0.0000000000000D+00
   340  3.3900000000000D+00  0.0000000000000D+00  0.0000000000000D+00
   341  3.4000000000000D+00  0.0000000000000D+00  0.0000000000000D+00
   342  3.4100000000000D+00  0.0000000000000D+00  0.0000000000000D+00
   343  3.4200000000000D+00  0.0000000000000D+00  0.0000000000000D+00
   344  3.4300000000000D+00  0.0000000000000D+00  0.0000000000000D+00
   345  3.4400000000000D+00  0.0000000000000D+00  0.0000000000000D+00
   346  3.4500000000000D+00  0.0000000000000D+00  0.0000000000000D+00
   347  3.4600000000000D+00  0.0000000000000D+00  0.0000000000000D+00
   348  3.4700000000000D+00  0.0000000000000D+00  0.0000000000000D+00
   349  3.4800000000000D+00  0.0000000000000D+00  0.0000000000000D+00
   350  3.4900000000000D+00  0.0000000000000D+00  0.0000000000000D+00
   351  3.5000000000000D+00  0.0000000000000D+00  0.0000000000000D+00
   352  3.5100000000000D+00  0.0000000000000D+00  0.0000000000000D+00
   353  3.5200000000000D+00  0.0000000000000D+00  0.0000000000000D+00
   354  3.5300000000000D+00  0.0000000000000D+00  0.0000000000000D+00
   355  3.5400000000000D+00  0.0000000000000D+00  0.0000000000000D+00
   356  3.5500000000000D+00  0.0000000000000D+00  0.0000000000000D+00
   357  3.5600000000000D+00  0.0000000000000D+00  0.0000000000000D+00
   358  3.5700000000000D+00  0.0000000000000D+00  0.0000000000000D+00
   359  3.5800000000000D+00  0.0000000000000D+00  0.0000000000000D+00
   360  3.5900000000000D+00  0.0000000000000D+00  0.0000000000000D+00
   361  3.6000000000000D+00  0.0000000000000D+00  0.0000000000000D+00
   362  3.6100000000000D+00  0.0000000000000D+00  0.0000000000000D+00
   363  3.6200000000000D+00  0.0000000000000D+00  0.0000000000000D+00
   364  3.6300000000000D+00  0.0000000000000D+00  0.0000000000000D+00
   365  3.6400000000000D+00  0.0000000000000D+00  0.0000000000000D+00
   366  3.6500000000000D+00  0.0000000000000D+00  0.0000000000000D+00
   367  3.6600000000000D+00  0.0000000000000D+00  0.0000000000000D+00
   368  3.6700000000000D+00  0.0000000000000D+00  0.0000000000000D+00
   369  3.6800000000000D+00  0.0000000000000D+00  0.0000000000000D+00
   370  3.6900000000000D+00  0.0000000000000D+00  0.0000000000000D+00
   371  3.7000000000000D+00  0.0000000000000D+00  0.0000000000000D+00
   372  3.7100000000000D+00  0.0000000000000D+00  0.0000000000000D+00
   373  3.7200000000000D+00  0.0000000000000D+00  0.0000000000000D+00
   374  3.7300000000000D+00  0.0000000000000D+00  0.0000000000000D+00
   375  3.7400000000000D+00  0.0000000000000D+00  0.0000000000000D+00
   376  3.7500000000000D+00  0.0000000000000D+00  0.0000000000000D+00
   377  3.7600000000000D+00  0.0000000000000D+00  0.0000000000000D+00
   378  3.7700000000000D+00  0.0000000000000D+00  0.0000000000000D+00
   379  3.7800000000000D+00  0.0000000000000D+00  0.0000000000000D+00
   380  3.7900000000000D+00  0.0000000000000D+00  0.0000000000000D+00
   381  3.8000000000000D+00  0.0000000000000D+00  0.0000000000000D+00
   382  3.8100000000000D+00  0.0000000000000D+00  0.0000000000000D+00
   383  3.8200000000000D+00  0.0000000000000D+00  0.0000000000000D+00
   384  3.8300000000000D+00  0.0000000000000D+00  0.0000000000000D+00
   385  3.8400000000000D+00  0.0000000000000D+00  0.0000000000000D+00
   386  3.8500000000000D+00  0.0000000000000D+00  0.0000000000000D+00
   387  3.8600000000000D+00  0.0000000000000D+00  0.0000000000000D+00
   388  3.8700000000000D+00  0.0000000000000D+00  0.0000000000000D+00
   389  3.8800000000000D+00  0.0000000000000D+00  0.0000000000000D+00
   390  3.8900000000000D+00  0.0000000000000D+00  0.0000000000000D+00
   391  3.9000000000000D+00  0.0000000000000D+00  0.0000000000000D+00
   392  3.9100000000000D+00  0.0000000000000D+00  0.0000000000000D+00
   393  3.9200000000000D+00  0.0000000000000D+00  0.0000000000000D+00
   394  3.9300000000000D+00  0.0000000000000D+00  0.0000000000000D+00
   395  3.9400000000000D+00  0.0000000000000D+00  0.0000000000000D+00
   396  3.9500000000000D+00  0.0000000000000D+00  0.0000000000000D+00
   397  3.9600000000000D+00  0.0000000000000D+00  0.0000000000000D+00
   398  3.9700000000000D+00  0.0000000000000D+00  0.0000000000000D+00
   399  3.9800000000000D+00  0.0000000000000D+00  0.0000000000000D+00
   400  3.9900000000000D+00  0.0000000000000D+00  0.0000000000000D+00
   401  4.0000000000000D+00  0.0000000000000D+00  0.0000000000000D+00
   402  4.0100000000000D+00  0.0000000000000D+00  0.0000000000000D+00
   403  4.0200000000000D+00  0.0000000000000D+00  0.0000000000000D+00
   404  4.0300000000000D+00  0.0000000000000D+00  0.0000000000000D+00
   405  4.0400000000000D+00  0.0000000000000D+00  0.0000000000000D+00
   406  4.0500000000000D+00  0.0000000000000D+00  0.0000000000000D+00
   407  4.0600000000000D+00  0.0000000000000D+00  0.0000000000000D+00
   408  4.0700000000000D+00  0.0000000000000D+00  0.0000000000000D+00
   409  4.0800000000000D+00  0.0000000000000D+00  0.0000000000000D+00
   410  4.0900000000000D+00  0.0000000000000D+00  0.0000000000000D+00
   411  4.1000000000000D+00  0.0000000000000D+00  0.0000000000000D+00
   412  4.1100000000000D+00  0.0000000000000D+00  0.0000000000000D+00
   413  4.1200000000000D+00  0.0000000000000D+00  0.0000000000000D+00
   414  4.1300000000000D+00  0.0000000000000D+00  0.0000000000000D+00
   415  4.1400000000000D+00  0.0000000000000D+00  0.0000000000000D+00
   416  4.1500000000000D+00  0.0000000000000D+00  0.0000000000000D+00
   417  4.1600000000000D+00  0.0000000000000D+00  0.0000000000000D+00
   418  4.1700000000000D+00  0.0000000000000D+00  0.0000000000000D+00
   419  4.1800000000000D+00  0.0000000000000D+00  0.0000000000000D+00
   420  4.1900000000000D+00  0.0000000000000D+00  0.0000000000000D+00
   421  4.2000000000000D+00  0.0000000000000D+00  0.0000000000000D+00
   422  4.2100000000000D+00  0.0000000000000D+00  0.0000000000000D+00