Li    ONCVPSP-3.3.1  r_core=   1.76647   1.40824
      3.0000      3.0000      210905    zatom,zion,pspd
     8 -116133   1     4   600     0    pspcod,pspxc,lmax,lloc,mmax,r2well
  5.99000000  0.00000000  0.00000000    rchrg fchrg qchrg
     2     2     0     0    nproj
     3     1           extension_switch
     4     0     0    nprojso
   0                        -4.1951476635573D+00 -1.9594764068266D+00
     1  0.0000000000000D+00  5.2644755221820D-10 -5.7154568577911D-10
     2  1.0000000000000D-02  6.8076453333101D-02  1.0384573649646D-02
     3  2.0000000000000D-02  1.3608030155603D-01  2.0724279705961D-02
     4  3.0000000000000D-02  2.0393809350595D-01  3.0975365246172D-02
     5  4.0000000000000D-02  2.7157469878351D-01  4.1096292509200D-02
     6  5.0000000000000D-02  3.3891250017211D-01  5.1048811174107D-02
     7  6.0000000000000D-02  4.0587062412624D-01  6.0798988683670D-02
     8  7.0000000000000D-02  4.7236422139621D-01  7.0318185304083D-02
     9  8.0000000000000D-02  5.3830380932964D-01  7.9583961183378D-02
    10  9.0000000000000D-02  6.0359468674152D-01  8.8580903375719D-02
    11  1.0000000000000D-01  6.6813643147861D-01  9.7301361630000D-02
    12  1.1000000000000D-01  7.3182248992865D-01  1.0574608269148D-01
    13  1.2000000000000D-01  7.9453986674781D-01  1.1392473392586D-01
    14  1.3000000000000D-01  8.5616892200971D-01  1.2185630823638D-01
    15  1.4000000000000D-01  9.1658328182723D-01  1.2956940349561D-01
    16  1.5000000000000D-01  9.7564986727282D-01  1.3710237104286D-01
    17  1.6000000000000D-01  1.0332290451382D+00  1.4450332919311D-01
    18  1.7000000000000D-01  1.0891749027393D+00  1.5183003915130D-01
    19  1.8000000000000D-01  1.1433356476029D+00  1.5914964221225D-01
    20  1.9000000000000D-01  1.1955541314773D+00  1.6653825863843D-01
    21  2.0000000000000D-01  1.2456684967055D+00  1.7408045012919D-01
    22  2.1000000000000D-01  1.2935129416023D+00  1.8186854931290D-01
    23  2.2000000000000D-01  1.3389186000920D+00  1.9000186119139D-01
    24  2.3000000000000D-01  1.3817145295141D+00  1.9858574293005D-01
    25  2.4000000000000D-01  1.4217287991979D+00  2.0773056980220D-01
    26  2.5000000000000D-01  1.4587896711580D+00  2.1755059644863D-01
    27  2.6000000000000D-01  1.4927268630846D+00  2.2816272388784D-01
    28  2.7000000000000D-01  1.5233728827074D+00  2.3968518389745D-01
    29  2.8000000000000D-01  1.5505644216120D+00  2.5223615346839D-01
    30  2.9000000000000D-01  1.5741437956911D+00  2.6593231299986D-01
    31  3.0000000000000D-01  1.5939604186345D+00  2.8088736274371D-01
    32  3.1000000000000D-01  1.6098722942060D+00  2.9721051271118D-01
    33  3.2000000000000D-01  1.6217475125341D+00  3.1500496181517D-01
    34  3.3000000000000D-01  1.6294657352598D+00  3.3436638242918D-01
    35  3.4000000000000D-01  1.6329196541473D+00  3.5538142679416D-01
    36  3.5000000000000D-01  1.6320164076779D+00  3.7812627179145D-01
    37  3.6000000000000D-01  1.6266789402086D+00  4.0266521852177D-01
    38  3.7000000000000D-01  1.6168472884997D+00  4.2904936288354D-01
    39  3.8000000000000D-01  1.6024797807872D+00  4.5731535293079D-01
    40  3.9000000000000D-01  1.5835541341018D+00  4.8748424821116D-01
    41  4.0000000000000D-01  1.5600684362147D+00  5.1956049554288D-01
    42  4.1000000000000D-01  1.5320419994100D+00  5.5353103479014D-01
    43  4.2000000000000D-01  1.4995160742473D+00  5.8936454714628D-01
    44  4.3000000000000D-01  1.4625544125703D+00  6.2701085724087D-01
    45  4.4000000000000D-01  1.4212436702381D+00  6.6640049906122D-01
    46  4.5000000000000D-01  1.3756936413839D+00  7.0744445423105D-01
    47  4.6000000000000D-01  1.3260373174416D+00  7.5003406963195D-01
    48  4.7000000000000D-01  1.2724307657055D+00  7.9404115970188D-01
    49  4.8000000000000D-01  1.2150528237834D+00  8.3931829701221D-01
    50  4.9000000000000D-01  1.1541046079707D+00  8.8569929292889D-01
    51  5.0000000000000D-01  1.0898088352735D+00  9.3299986832094D-01
    52  5.1000000000000D-01  1.0224089605509D+00  9.8101851240669D-01
    53  5.2000000000000D-01  9.5216813199332D-01  1.0295375259459D+00
    54  5.3000000000000D-01  8.7936796990161D-01  1.0783242431120D+00
    55  5.4000000000000D-01  8.0430717545548D-01  1.1271324245305D+00
    56  5.5000000000000D-01  7.2729997784679D-01  1.1757038121702D+00
    57  5.6000000000000D-01  6.4867442978231D-01  1.2237698350377D+00
    58  5.7000000000000D-01  5.6877056292008D-01  1.2710534529730D+00
    59  5.8000000000000D-01  4.8793841626894D-01  1.3172711242978D+00
    60  5.9000000000000D-01  4.0653595194640D-01  1.3621348816335D+00
    61  6.0000000000000D-01  3.2492687392992D-01  1.4053544989149D+00
    62  6.1000000000000D-01  2.4347836654839D-01  1.4466397314772D+00
    63  6.2000000000000D-01  1.6255877041801D-01  1.4857026101201D+00
    64  6.3000000000000D-01  8.2535214333729D-02  1.5222597692439D+00
    65  6.4000000000000D-01  3.7712222577884D-03  1.5560347885430D+00
    66  6.5000000000000D-01 -7.3375684994209D-02  1.5867605273201D+00
    67  6.6000000000000D-01 -1.4855637349755D-01  1.6141814302732D+00
    68  6.7000000000000D-01 -2.2143244543738D-01  1.6380557836007D+00
    69  6.8000000000000D-01 -2.9167853395536D-01  1.6581579004745D+00
    70  6.9000000000000D-01 -3.5898452407967D-01  1.6742802153534D+00
    71  7.0000000000000D-01 -4.2305768069084D-01  1.6862352672378D+00
    72  7.1000000000000D-01 -4.8362466515760D-01  1.6938575528007D+00
    73  7.2000000000000D-01 -5.4043342315210D-01  1.6970052313744D+00
    74  7.3000000000000D-01 -5.9325492720131D-01  1.6955616650030D+00
    75  7.4000000000000D-01 -6.4188475875112D-01  1.6894367781836D+00
    76  7.5000000000000D-01 -6.8614451590053D-01  1.6785682235120D+00
    77  7.6000000000000D-01 -7.2588303448835D-01  1.6629223411869D+00
    78  7.7000000000000D-01 -7.6097741187450D-01  1.6424949022122D+00
    79  7.8000000000000D-01 -7.9133382453991D-01  1.6173116271477D+00
    80  7.9000000000000D-01 -8.1688813250447D-01  1.5874284743651D+00
    81  8.0000000000000D-01 -8.3760626552685D-01  1.5529316939624D+00
    82  8.1000000000000D-01 -8.5348438807592D-01  1.5139376457457D+00
    83  8.2000000000000D-01 -8.6454884213410D-01  1.4705923819775D+00
    84  8.3000000000000D-01 -8.7085586898671D-01  1.4230709979070D+00
    85  8.4000000000000D-01 -8.7249111324761D-01  1.3715767553913D+00
    86  8.5000000000000D-01 -8.6956891444867D-01  1.3163399871918D+00
    87  8.6000000000000D-01 -8.6223139355787D-01  1.2576167917405D+00
    88  8.7000000000000D-01 -8.5064734376700D-01  1.1956875303058D+00
    89  8.8000000000000D-01 -8.3501093706880D-01  1.1308551411107D+00
    90  8.9000000000000D-01 -8.1554025960233D-01  1.0634432859363D+00
    91  9.0000000000000D-01 -7.9247567459253D-01  9.9379431538109D-01
    92  9.1000000000000D-01 -7.6607812300943D-01  9.2226726360407D-01
    93  9.2000000000000D-01 -7.3662670185216D-01  8.4923449020155D-01
    94  9.3000000000000D-01 -7.0441534458931D-01  7.7507675897681D-01
    95  9.4000000000000D-01 -6.6974975290031D-01  7.0017921391533D-01
    96  9.5000000000000D-01 -6.3294495777456D-01  6.2492883497261D-01
    97  9.6000000000000D-01 -5.9432277310690D-01  5.4971172160582D-01
    98  9.7000000000000D-01 -5.5420924340006D-01  4.7491040826311D-01
    99  9.8000000000000D-01 -5.1293209171397D-01  4.0090120090366D-01
   100  9.9000000000000D-01 -4.7081818847971D-01  3.2805155731912D-01
   101  1.0000000000000D+00 -4.2819106183577D-01  2.5671753404872D-01
   102  1.0100000000000D+00 -3.8536846949806D-01  1.8724132164569D-01
   103  1.0200000000000D+00 -3.4266005159011D-01  1.1994888933757D-01
   104  1.0300000000000D+00 -3.0036508310036D-01  5.5147759207574D-02
   105  1.0400000000000D+00 -2.5877034369231D-01 -6.8750710986327D-03
   106  1.0500000000000D+00 -2.1814812158852D-01 -6.5855039327757D-02
   107  1.0600000000000D+00 -1.7875436692235D-01 -1.2155174698731D-01
   108  1.0700000000000D+00 -1.4082700867082D-01 -1.7375049038287D-01
   109  1.0800000000000D+00 -1.0458444777530D-01 -2.2226358134244D-01
   110  1.0900000000000D+00 -7.0224237393709D-02 -2.6693144658422D-01
   111  1.1000000000000D+00 -3.7921959781634D-02 -3.0762349636837D-01
   112  1.1100000000000D+00 -7.8303072118642D-03 -3.4423875549259D-01
   113  1.1200000000000D+00  1.9921627219041D-02 -3.7670625149667D-01
   114  1.1300000000000D+00  4.5228845163304D-02 -4.0498515737839D-01
   115  1.1400000000000D+00  6.8010722739537D-02 -4.2906468784920D-01
   116  1.1500000000000D+00  8.8211074493459D-02 -4.4896375083297D-01
   117  1.1600000000000D+00  1.0579800332910D-01 -4.6473035777193D-01
   118  1.1700000000000D+00  1.2076354027562D-01 -4.7644079873663D-01
   119  1.1800000000000D+00  1.3312307915007D-01 -4.8419858969773D-01
   120  1.1900000000000D+00  1.4291461374854D-01 -4.8813320222751D-01
   121  1.2000000000000D+00  1.5019778641323D-01 -4.8839858725927D-01
   122  1.2100000000000D+00  1.5505275842431D-01 -4.8517150632769D-01
   123  1.2200000000000D+00  1.5757891410445D-01 -4.7864968532233D-01
   124  1.2300000000000D+00  1.5789341222459D-01 -4.6904980766293D-01
   125  1.2400000000000D+00  1.5612959926404D-01 -4.5660536484485D-01
   126  1.2500000000000D+00  1.5243529984772D-01 -4.4156438316149D-01
   127  1.2600000000000D+00  1.4697100138384D-01 -4.2418704722439D-01
   128  1.2700000000000D+00  1.3990795013576D-01 -4.0474324107276D-01
   129  1.2800000000000D+00  1.3142617649085D-01 -3.8351002825933D-01
   130  1.2900000000000D+00  1.2171246822927D-01 -3.6076909329874D-01
   131  1.3000000000000D+00  1.1095831025673D-01 -3.3680416641132D-01
   132  1.3100000000000D+00  9.9357809776528D-02 -3.1189845408596D-01
   133  1.3200000000000D+00  8.7105625800022D-02 -2.8633209763930D-01
   134  1.3300000000000D+00  7.4394921400059D-02 -2.6037968136989D-01
   135  1.3400000000000D+00  6.1415357565265D-02 -2.3430781239505D-01
   136  1.3500000000000D+00  4.8351146114994D-02 -2.0837279237457D-01
   137  1.3600000000000D+00  3.5379179296263D-02 -1.8281840157910D-01
   138  1.3700000000000D+00  2.2667253243514D-02 -1.5787381512286D-01
   139  1.3800000000000D+00  1.0372400551465D-02 -1.3375166873959D-01
   140  1.3900000000000D+00 -1.3606514856935D-03 -1.1064629312787D-01
   141  1.4000000000000D+00 -1.2400883059252D-02 -8.8732132533752D-02
   142  1.4100000000000D+00 -2.2632230471479D-02 -6.8162363321647D-02
   143  1.4200000000000D+00 -3.1954667102591D-02 -4.9067728462593D-02
   144  1.4300000000000D+00 -4.0285105442863D-02 -3.1555600220386D-02
   145  1.4400000000000D+00 -4.7558106863202D-02 -1.5709285969679D-02
   146  1.4500000000000D+00 -5.3726388519556D-02 -1.5875885622532D-03
   147  1.4600000000000D+00 -5.8761116374338D-02  1.0775366918779D-02
   148  1.4700000000000D+00 -6.2651972902928D-02  2.1370027489676D-02
   149  1.4800000000000D+00 -6.5406991337862D-02  3.0211019794533D-02
   150  1.4900000000000D+00 -6.7052144328443D-02  3.7336457410699D-02
   151  1.5000000000000D+00 -6.7630680631580D-02  4.2806942516083D-02
   152  1.5100000000000D+00 -6.7202200802690D-02  4.6704252593955D-02
   153  1.5200000000000D+00 -6.5841463250146D-02  4.9129704040369D-02
   154  1.5300000000000D+00 -6.3636923714281D-02  5.0202198547076D-02
   155  1.5400000000000D+00 -6.0688989559420D-02  5.0055932123300D-02
   156  1.5500000000000D+00 -5.7108021099264D-02  4.8837808063980D-02
   157  1.5600000000000D+00 -5.3012040690235D-02  4.6704509306140D-02
   158  1.5700000000000D+00 -4.8524228872008D-02  4.3819327571578D-02
   159  1.5800000000000D+00 -4.3770152314092D-02  4.0348686437338D-02
   160  1.5900000000000D+00 -3.8874847600051D-02  3.6458508220286D-02
   161  1.6000000000000D+00 -3.3959723017564D-02  3.2310383133370D-02
   162  1.6100000000000D+00 -2.9139430540750D-02  2.8057723065899D-02
   163  1.6200000000000D+00 -2.4518721210499D-02  2.3841918420034D-02
   164  1.6300000000000D+00 -2.0189463104654D-02  1.9788711674027D-02
   165  1.6400000000000D+00 -1.6227888298445D-02  1.6004866472190D-02
   166  1.6500000000000D+00 -1.2692302710531D-02  1.2575410030009D-02
   167  1.6600000000000D+00 -9.6213155597848D-03  9.5615117829120D-03
   168  1.6700000000000D+00 -7.0329359696512D-03  6.9994081912853D-03
   169  1.6800000000000D+00 -4.9244458965539D-03  4.9002587706476D-03
   170  1.6900000000000D+00 -3.2735360652204D-03  3.2515006263457D-03
   171  1.7000000000000D+00 -2.0403493380820D-03  2.0192763609793D-03
   172  1.7100000000000D+00 -1.1708449195156D-03  1.1524242719861D-03
   173  1.7200000000000D+00 -6.0123600305187D-04  5.8761790278965D-04
   174  1.7300000000000D+00 -2.6330348309486D-04  2.5556712205496D-04
   175  1.7400000000000D+00 -8.8393588685033D-05  8.6076142070246D-05
   176  1.7500000000000D+00 -1.3130681139142D-05  1.4451158536584D-05
   177  1.7600000000000D+00  1.0093831730743D-05 -7.4187285033494D-06
   178  1.7700000000000D+00  1.0063874706218D-05 -7.8430510735190D-06
   179  1.7800000000000D+00  3.6532611758192D-06 -2.7417753946878D-06
   180  1.7900000000000D+00 -6.4769306098034D-07  5.0919295043700D-07
   181  1.8000000000000D+00 -1.2172140696556D-06  9.4596060813597D-07
   182  1.8100000000000D+00  6.5958946778165D-08 -5.5084687925873D-08
   183  1.8200000000000D+00  4.1502050649199D-07 -3.4767859486261D-07
   184  1.8300000000000D+00  4.5565895166616D-08 -3.8260310467765D-08
   185  1.8400000000000D+00 -3.2310047814304D-08  2.5223704578103D-08
   186  1.8500000000000D+00 -1.2050335158133D-08  9.4074170314695D-09
   187  1.8600000000000D+00  0.0000000000000D+00  0.0000000000000D+00
   188  1.8700000000000D+00  0.0000000000000D+00  0.0000000000000D+00
   189  1.8800000000000D+00  0.0000000000000D+00  0.0000000000000D+00
   190  1.8900000000000D+00  0.0000000000000D+00  0.0000000000000D+00
   191  1.9000000000000D+00  0.0000000000000D+00  0.0000000000000D+00
   192  1.9100000000000D+00  0.0000000000000D+00  0.0000000000000D+00
   193  1.9200000000000D+00  0.0000000000000D+00  0.0000000000000D+00
   194  1.9300000000000D+00  0.0000000000000D+00  0.0000000000000D+00
   195  1.9400000000000D+00  0.0000000000000D+00  0.0000000000000D+00
   196  1.9500000000000D+00  0.0000000000000D+00  0.0000000000000D+00
   197  1.9600000000000D+00  0.0000000000000D+00  0.0000000000000D+00
   198  1.9700000000000D+00  0.0000000000000D+00  0.0000000000000D+00
   199  1.9800000000000D+00  0.0000000000000D+00  0.0000000000000D+00
   200  1.9900000000000D+00  0.0000000000000D+00  0.0000000000000D+00
   201  2.0000000000000D+00  0.0000000000000D+00  0.0000000000000D+00
   202  2.0100000000000D+00  0.0000000000000D+00  0.0000000000000D+00
   203  2.0200000000000D+00  0.0000000000000D+00  0.0000000000000D+00
   204  2.0300000000000D+00  0.0000000000000D+00  0.0000000000000D+00
   205  2.0400000000000D+00  0.0000000000000D+00  0.0000000000000D+00
   206  2.0500000000000D+00  0.0000000000000D+00  0.0000000000000D+00
   207  2.0600000000000D+00  0.0000000000000D+00  0.0000000000000D+00
   208  2.0700000000000D+00  0.0000000000000D+00  0.0000000000000D+00
   209  2.0800000000000D+00  0.0000000000000D+00  0.0000000000000D+00
   210  2.0900000000000D+00  0.0000000000000D+00  0.0000000000000D+00
   211  2.1000000000000D+00  0.0000000000000D+00  0.0000000000000D+00
   212  2.1100000000000D+00  0.0000000000000D+00  0.0000000000000D+00
   213  2.1200000000000D+00  0.0000000000000D+00  0.0000000000000D+00
   214  2.1300000000000D+00  0.0000000000000D+00  0.0000000000000D+00
   215  2.1400000000000D+00  0.0000000000000D+00  0.0000000000000D+00
   216  2.1500000000000D+00  0.0000000000000D+00  0.0000000000000D+00
   217  2.1600000000000D+00  0.0000000000000D+00  0.0000000000000D+00
   218  2.1700000000000D+00  0.0000000000000D+00  0.0000000000000D+00
   219  2.1800000000000D+00  0.0000000000000D+00  0.0000000000000D+00
   220  2.1900000000000D+00  0.0000000000000D+00  0.0000000000000D+00
   221  2.2000000000000D+00  0.0000000000000D+00  0.0000000000000D+00
   222  2.2100000000000D+00  0.0000000000000D+00  0.0000000000000D+00
   223  2.2200000000000D+00  0.0000000000000D+00  0.0000000000000D+00
   224  2.2300000000000D+00  0.0000000000000D+00  0.0000000000000D+00
   225  2.2400000000000D+00  0.0000000000000D+00  0.0000000000000D+00
   226  2.2500000000000D+00  0.0000000000000D+00  0.0000000000000D+00
   227  2.2600000000000D+00  0.0000000000000D+00  0.0000000000000D+00
   228  2.2700000000000D+00  0.0000000000000D+00  0.0000000000000D+00
   229  2.2800000000000D+00  0.0000000000000D+00  0.0000000000000D+00
   230  2.2900000000000D+00  0.0000000000000D+00  0.0000000000000D+00
   231  2.3000000000000D+00  0.0000000000000D+00  0.0000000000000D+00
   232  2.3100000000000D+00  0.0000000000000D+00  0.0000000000000D+00
   233  2.3200000000000D+00  0.0000000000000D+00  0.0000000000000D+00
   234  2.3300000000000D+00  0.0000000000000D+00  0.0000000000000D+00
   235  2.3400000000000D+00  0.0000000000000D+00  0.0000000000000D+00
   236  2.3500000000000D+00  0.0000000000000D+00  0.0000000000000D+00
   237  2.3600000000000D+00  0.0000000000000D+00  0.0000000000000D+00
   238  2.3700000000000D+00  0.0000000000000D+00  0.0000000000000D+00
   239  2.3800000000000D+00  0.0000000000000D+00  0.0000000000000D+00
   240  2.3900000000000D+00  0.0000000000000D+00  0.0000000000000D+00
   241  2.4000000000000D+00  0.0000000000000D+00  0.0000000000000D+00
   242  2.4100000000000D+00  0.0000000000000D+00  0.0000000000000D+00
   243  2.4200000000000D+00  0.0000000000000D+00  0.0000000000000D+00
   244  2.4300000000000D+00  0.0000000000000D+00  0.0000000000000D+00
   245  2.4400000000000D+00  0.0000000000000D+00  0.0000000000000D+00
   246  2.4500000000000D+00  0.0000000000000D+00  0.0000000000000D+00
   247  2.4600000000000D+00  0.0000000000000D+00  0.0000000000000D+00
   248  2.4700000000000D+00  0.0000000000000D+00  0.0000000000000D+00
   249  2.4800000000000D+00  0.0000000000000D+00  0.0000000000000D+00
   250  2.4900000000000D+00  0.0000000000000D+00  0.0000000000000D+00
   251  2.5000000000000D+00  0.0000000000000D+00  0.0000000000000D+00
   252  2.5100000000000D+00  0.0000000000000D+00  0.0000000000000D+00
   253  2.5200000000000D+00  0.0000000000000D+00  0.0000000000000D+00
   254  2.5300000000000D+00  0.0000000000000D+00  0.0000000000000D+00
   255  2.5400000000000D+00  0.0000000000000D+00  0.0000000000000D+00
   256  2.5500000000000D+00  0.0000000000000D+00  0.0000000000000D+00
   257  2.5600000000000D+00  0.0000000000000D+00  0.0000000000000D+00
   258  2.5700000000000D+00  0.0000000000000D+00  0.0000000000000D+00
   259  2.5800000000000D+00  0.0000000000000D+00  0.0000000000000D+00
   260  2.5900000000000D+00  0.0000000000000D+00  0.0000000000000D+00
   261  2.6000000000000D+00  0.0000000000000D+00  0.0000000000000D+00
   262  2.6100000000000D+00  0.0000000000000D+00  0.0000000000000D+00
   263  2.6200000000000D+00  0.0000000000000D+00  0.0000000000000D+00
   264  2.6300000000000D+00  0.0000000000000D+00  0.0000000000000D+00
   265  2.6400000000000D+00  0.0000000000000D+00  0.0000000000000D+00
   266  2.6500000000000D+00  0.0000000000000D+00  0.0000000000000D+00
   267  2.6600000000000D+00  0.0000000000000D+00  0.0000000000000D+00
   268  2.6700000000000D+00  0.0000000000000D+00  0.0000000000000D+00
   269  2.6800000000000D+00  0.0000000000000D+00  0.0000000000000D+00
   270  2.6900000000000D+00  0.0000000000000D+00  0.0000000000000D+00
   271  2.7000000000000D+00  0.0000000000000D+00  0.0000000000000D+00
   272  2.7100000000000D+00  0.0000000000000D+00  0.0000000000000D+00
   273  2.7200000000000D+00  0.0000000000000D+00  0.0000000000000D+00
   274  2.7300000000000D+00  0.0000000000000D+00  0.0000000000000D+00
   275  2.7400000000000D+00  0.0000000000000D+00  0.0000000000000D+00
   276  2.7500000000000D+00  0.0000000000000D+00  0.0000000000000D+00
   277  2.7600000000000D+00  0.0000000000000D+00  0.0000000000000D+00
   278  2.7700000000000D+00  0.0000000000000D+00  0.0000000000000D+00
   279  2.7800000000000D+00  0.0000000000000D+00  0.0000000000000D+00
   280  2.7900000000000D+00  0.0000000000000D+00  0.0000000000000D+00
   281  2.8000000000000D+00  0.0000000000000D+00  0.0000000000000D+00
   282  2.8100000000000D+00  0.0000000000000D+00  0.0000000000000D+00
   283  2.8200000000000D+00  0.0000000000000D+00  0.0000000000000D+00
   284  2.8300000000000D+00  0.0000000000000D+00  0.0000000000000D+00
   285  2.8400000000000D+00  0.0000000000000D+00  0.0000000000000D+00
   286  2.8500000000000D+00  0.0000000000000D+00  0.0000000000000D+00
   287  2.8600000000000D+00  0.0000000000000D+00  0.0000000000000D+00
   288  2.8700000000000D+00  0.0000000000000D+00  0.0000000000000D+00
   289  2.8800000000000D+00  0.0000000000000D+00  0.0000000000000D+00
   290  2.8900000000000D+00  0.0000000000000D+00  0.0000000000000D+00
   291  2.9000000000000D+00  0.0000000000000D+00  0.0000000000000D+00
   292  2.9100000000000D+00  0.0000000000000D+00  0.0000000000000D+00
   293  2.9200000000000D+00  0.0000000000000D+00  0.0000000000000D+00
   294  2.9300000000000D+00  0.0000000000000D+00  0.0000000000000D+00
   295  2.9400000000000D+00  0.0000000000000D+00  0.0000000000000D+00
   296  2.9500000000000D+00  0.0000000000000D+00  0.0000000000000D+00
   297  2.9600000000000D+00  0.0000000000000D+00  0.0000000000000D+00
   298  2.9700000000000D+00  0.0000000000000D+00  0.0000000000000D+00
   299  2.9800000000000D+00  0.0000000000000D+00  0.0000000000000D+00
   300  2.9900000000000D+00  0.0000000000000D+00  0.0000000000000D+00
   301  3.0000000000000D+00  0.0000000000000D+00  0.0000000000000D+00
   302  3.0100000000000D+00  0.0000000000000D+00  0.0000000000000D+00
   303  3.0200000000000D+00  0.0000000000000D+00  0.0000000000000D+00
   304  3.0300000000000D+00  0.0000000000000D+00  0.0000000000000D+00
   305  3.0400000000000D+00  0.0000000000000D+00  0.0000000000000D+00
   306  3.0500000000000D+00  0.0000000000000D+00  0.0000000000000D+00
   307  3.0600000000000D+00  0.0000000000000D+00  0.0000000000000D+00
   308  3.0700000000000D+00  0.0000000000000D+00  0.0000000000000D+00
   309  3.0800000000000D+00  0.0000000000000D+00  0.0000000000000D+00
   310  3.0900000000000D+00  0.0000000000000D+00  0.0000000000000D+00
   311  3.1000000000000D+00  0.0000000000000D+00  0.0000000000000D+00
   312  3.1100000000000D+00  0.0000000000000D+00  0.0000000000000D+00
   313  3.1200000000000D+00  0.0000000000000D+00  0.0000000000000D+00
   314  3.1300000000000D+00  0.0000000000000D+00  0.0000000000000D+00
   315  3.1400000000000D+00  0.0000000000000D+00  0.0000000000000D+00
   316  3.1500000000000D+00  0.0000000000000D+00  0.0000000000000D+00
   317  3.1600000000000D+00  0.0000000000000D+00  0.0000000000000D+00
   318  3.1700000000000D+00  0.0000000000000D+00  0.0000000000000D+00
   319  3.1800000000000D+00  0.0000000000000D+00  0.0000000000000D+00
   320  3.1900000000000D+00  0.0000000000000D+00  0.0000000000000D+00
   321  3.2000000000000D+00  0.0000000000000D+00  0.0000000000000D+00
   322  3.2100000000000D+00  0.0000000000000D+00  0.0000000000000D+00
   323  3.2200000000000D+00  0.0000000000000D+00  0.0000000000000D+00
   324  3.2300000000000D+00  0.0000000000000D+00  0.0000000000000D+00
   325  3.2400000000000D+00  0.0000000000000D+00  0.0000000000000D+00
   326  3.2500000000000D+00  0.0000000000000D+00  0.0000000000000D+00
   327  3.2600000000000D+00  0.0000000000000D+00  0.0000000000000D+00
   328  3.2700000000000D+00  0.0000000000000D+00  0.0000000000000D+00
   329  3.2800000000000D+00  0.0000000000000D+00  0.0000000000000D+00
   330  3.2900000000000D+00  0.0000000000000D+00  0.0000000000000D+00
   331  3.3000000000000D+00  0.0000000000000D+00  0.0000000000000D+00
   332  3.3100000000000D+00  0.0000000000000D+00  0.0000000000000D+00
   333  3.3200000000000D+00  0.0000000000000D+00  0.0000000000000D+00
   334  3.3300000000000D+00  0.0000000000000D+00  0.0000000000000D+00
   335  3.3400000000000D+00  0.0000000000000D+00  0.0000000000000D+00
   336  3.3500000000000D+00  0.0000000000000D+00  0.0000000000000D+00
   337  3.3600000000000D+00  0.0000000000000D+00  0.0000000000000D+00
   338  3.3700000000000D+00  0.0000000000000D+00  0.0000000000000D+00
   339  3.3800000000000D+00  0.0000000000000D+00  0.0000000000000D+00
   340  3.3900000000000D+00  0.0000000000000D+00  0.0000000000000D+00
   341  3.4000000000000D+00  0.0000000000000D+00  0.0000000000000D+00
   342  3.4100000000000D+00  0.0000000000000D+00  0.0000000000000D+00
   343  3.4200000000000D+00  0.0000000000000D+00  0.0000000000000D+00
   344  3.4300000000000D+00  0.0000000000000D+00  0.0000000000000D+00
   345  3.4400000000000D+00  0.0000000000000D+00  0.0000000000000D+00
   346  3.4500000000000D+00  0.0000000000000D+00  0.0000000000000D+00
   347  3.4600000000000D+00  0.0000000000000D+00  0.0000000000000D+00
   348  3.4700000000000D+00  0.0000000000000D+00  0.0000000000000D+00
   349  3.4800000000000D+00  0.0000000000000D+00  0.0000000000000D+00
   350  3.4900000000000D+00  0.0000000000000D+00  0.0000000000000D+00
   351  3.5000000000000D+00  0.0000000000000D+00  0.0000000000000D+00
   352  3.5100000000000D+00  0.0000000000000D+00  0.0000000000000D+00
   353  3.5200000000000D+00  0.0000000000000D+00  0.0000000000000D+00
   354  3.5300000000000D+00  0.0000000000000D+00  0.0000000000000D+00
   355  3.5400000000000D+00  0.0000000000000D+00  0.0000000000000D+00
   356  3.5500000000000D+00  0.0000000000000D+00  0.0000000000000D+00
   357  3.5600000000000D+00  0.0000000000000D+00  0.0000000000000D+00
   358  3.5700000000000D+00  0.0000000000000D+00  0.0000000000000D+00
   359  3.5800000000000D+00  0.0000000000000D+00  0.0000000000000D+00
   360  3.5900000000000D+00  0.0000000000000D+00  0.0000000000000D+00
   361  3.6000000000000D+00  0.0000000000000D+00  0.0000000000000D+00
   362  3.6100000000000D+00  0.0000000000000D+00  0.0000000000000D+00
   363  3.6200000000000D+00  0.0000000000000D+00  0.0000000000000D+00
   364  3.6300000000000D+00  0.0000000000000D+00  0.0000000000000D+00
   365  3.6400000000000D+00  0.0000000000000D+00  0.0000000000000D+00
   366  3.6500000000000D+00  0.0000000000000D+00  0.0000000000000D+00
   367  3.6600000000000D+00  0.0000000000000D+00  0.0000000000000D+00
   368  3.6700000000000D+00  0.0000000000000D+00  0.0000000000000D+00
   369  3.6800000000000D+00  0.0000000000000D+00  0.0000000000000D+00
   370  3.6900000000000D+00  0.0000000000000D+00  0.0000000000000D+00
   371  3.7000000000000D+00  0.0000000000000D+00  0.0000000000000D+00
   372  3.7100000000000D+00  0.0000000000000D+00  0.0000000000000D+00
   373  3.7200000000000D+00  0.0000000000000D+00  0.0000000000000D+00
   374  3.7300000000000D+00  0.0000000000000D+00  0.0000000000000D+00
   375  3.7400000000000D+00  0.0000000000000D+00  0.0000000000000D+00
   376  3.7500000000000D+00  0.0000000000000D+00  0.0000000000000D+00
   377  3.7600000000000D+00  0.0000000000000D+00  0.0000000000000D+00
   378  3.7700000000000D+00  0.0000000000000D+00  0.0000000000000D+00
   379  3.7800000000000D+00  0.0000000000000D+00  0.0000000000000D+00
   380  3.7900000000000D+00  0.0000000000000D+00  0.0000000000000D+00
   381  3.8000000000000D+00  0.0000000000000D+00  0.0000000000000D+00
   382  3.8100000000000D+00  0.0000000000000D+00  0.0000000000000D+00
   383  3.8200000000000D+00  0.0000000000000D+00  0.0000000000000D+00
   384  3.8300000000000D+00  0.0000000000000D+00  0.0000000000000D+00
   385  3.8400000000000D+00  0.0000000000000D+00  0.0000000000000D+00
   386  3.8500000000000D+00  0.0000000000000D+00  0.0000000000000D+00
   387  3.8600000000000D+00  0.0000000000000D+00  0.0000000000000D+00
   388  3.8700000000000D+00  0.0000000000000D+00  0.0000000000000D+00
   389  3.8800000000000D+00  0.0000000000000D+00  0.0000000000000D+00
   390  3.8900000000000D+00  0.0000000000000D+00  0.0000000000000D+00
   391  3.9000000000000D+00  0.0000000000000D+00  0.0000000000000D+00
   392  3.9100000000000D+00  0.0000000000000D+00  0.0000000000000D+00
   393  3.9200000000000D+00  0.0000000000000D+00  0.0000000000000D+00
   394  3.9300000000000D+00  0.0000000000000D+00  0.0000000000000D+00
   395  3.9400000000000D+00  0.0000000000000D+00  0.0000000000000D+00
   396  3.9500000000000D+00  0.0000000000000D+00  0.0000000000000D+00
   397  3.9600000000000D+00  0.0000000000000D+00  0.0000000000000D+00
   398  3.9700000000000D+00  0.0000000000000D+00  0.0000000000000D+00
   399  3.9800000000000D+00  0.0000000000000D+00  0.0000000000000D+00
   400  3.9900000000000D+00  0.0000000000000D+00  0.0000000000000D+00
   401  4.0000000000000D+00  0.0000000000000D+00  0.0000000000000D+00
   402  4.0100000000000D+00  0.0000000000000D+00  0.0000000000000D+00
   403  4.0200000000000D+00  0.0000000000000D+00  0.0000000000000D+00
   404  4.0300000000000D+00  0.0000000000000D+00  0.0000000000000D+00
   405  4.0400000000000D+00  0.0000000000000D+00  0.0000000000000D+00
   406  4.0500000000000D+00  0.0000000000000D+00  0.0000000000000D+00
   407  4.0600000000000D+00  0.0000000000000D+00  0.0000000000000D+00
   408  4.0700000000000D+00  0.0000000000000D+00  0.0000000000000D+00
   409  4.0800000000000D+00  0.0000000000000D+00  0.0000000000000D+00
   410  4.0900000000000D+00  0.0000000000000D+00  0.0000000000000D+00
   411  4.1000000000000D+00  0.0000000000000D+00  0.0000000000000D+00
   412  4.1100000000000D+00  0.0000000000000D+00  0.0000000000000D+00
   413  4.1200000000000D+00  0.0000000000000D+00  0.0000000000000D+00
   414  4.1300000000000D+00  0.0000000000000D+00  0.0000000000000D+00
   415  4.1400000000000D+00  0.0000000000000D+00  0.0000000000000D+00
   416  4.1500000000000D+00  0.0000000000000D+00  0.0000000000000D+00
   417  4.1600000000000D+00  0.0000000000000D+00  0.0000000000000D+00
   418  4.1700000000000D+00  0.0000000000000D+00  0.0000000000000D+00
   419  4.1800000000000D+00  0.0000000000000D+00  0.0000000000000D+00
   420  4.1900000000000D+00  0.0000000000000D+00  0.0000000000000D+00
   421  4.2000000000000D+00  0.0000000000000D+00  0.0000000000000D+00
   422  4.2100000000000D+00  0.0000000000000D+00  0.0000000000000D+00