Mo    ONCVPSP-3.3.1  r_core=   2.31752   2.51934   2.58017
     42.0000     14.0000      210905    zatom,zion,pspd
     8 -116133   2     4   600     0    pspcod,pspxc,lmax,lloc,mmax,r2well
  5.99000000  0.00000000  0.00000000    rchrg fchrg qchrg
     2     3     3     0    nproj
     3     1           extension_switch
     4     4     0    nprojso
   0                         1.0655534996057D+00  5.6037178044380D+00
     1  0.0000000000000D+00 -1.6405668490371D-11  7.0241035210472D-12
     2  1.0000000000000D-02 -8.1720350012068D-03  4.9282948359084D-02
     3  2.0000000000000D-02 -1.6321819494546D-02  9.8509494817983D-02
     4  3.0000000000000D-02 -2.4427044952492D-02  1.4762327279645D-01
     5  4.0000000000000D-02 -3.2465287508875D-02  1.9656798658178D-01
     6  5.0000000000000D-02 -4.0413952037095D-02  2.4528744732998D-01
     7  6.0000000000000D-02 -4.8250218313786D-02  2.9372560974289D-01
     8  7.0000000000000D-02 -5.5950989943826D-02  3.4182660963816D-01
     9  8.0000000000000D-02 -6.3492846706161D-02  3.8953480262233D-01
    10  9.0000000000000D-02 -7.0852000959587D-02  4.3679480406814D-01
    11  1.0000000000000D-01 -7.8004258723358D-02  4.8355153058708D-01
    12  1.1000000000000D-01 -8.4924986019471D-02  5.2975024317617D-01
    13  1.2000000000000D-01 -9.1589081031890D-02  5.7533659220439D-01
    14  1.3000000000000D-01 -9.7970952602731D-02  6.2025666438934D-01
    15  1.4000000000000D-01 -1.0404450554702D-01  6.6445703189814D-01
    16  1.5000000000000D-01 -1.0978313322591D-01  7.0788480368910D-01
    17  1.6000000000000D-01 -1.1515971777367D-01  7.5048767919161D-01
    18  1.7000000000000D-01 -1.2014663832628D-01  7.9221400440160D-01
    19  1.8000000000000D-01 -1.2471578754953D-01  8.3301283044912D-01
    20  1.9000000000000D-01 -1.2883859671231D-01  8.7283397467224D-01
    21  2.0000000000000D-01 -1.3248606949635D-01  9.1162808420881D-01
    22  2.1000000000000D-01 -1.3562882467741D-01  9.4934670209413D-01
    23  2.2000000000000D-01 -1.3823714775558D-01  9.8594233582846D-01
    24  2.3000000000000D-01 -1.4028105155291D-01  1.0213685283538D+00
    25  2.4000000000000D-01 -1.4173034573709D-01  1.0555799313548D+00
    26  2.5000000000000D-01 -1.4255471516902D-01  1.0885323807727D+00
    27  2.6000000000000D-01 -1.4272380691136D-01  1.1201829743981D+00
    28  2.7000000000000D-01 -1.4220732567403D-01  1.1504901513812D+00
    29  2.8000000000000D-01 -1.4097513741203D-01  1.1794137734758D+00
    30  2.9000000000000D-01 -1.3899738073076D-01  1.2069152078066D+00
    31  3.0000000000000D-01 -1.3624458569488D-01  1.2329574109280D+00
    32  3.1000000000000D-01 -1.3268779957881D-01  1.2575050139190D+00
    33  3.2000000000000D-01 -1.2829871904067D-01  1.2805244082347D+00
    34  3.3000000000000D-01 -1.2304982814693D-01  1.3019838320167D+00
    35  3.4000000000000D-01 -1.1691454162295D-01  1.3218534565436D+00
    36  3.5000000000000D-01 -1.0986735265479D-01  1.3401054724814D+00
    37  3.6000000000000D-01 -1.0188398452100D-01  1.3567141755815D+00
    38  3.7000000000000D-01 -9.2941545289250D-02  1.3716560514523D+00
    39  3.8000000000000D-01 -8.3018684772706D-02  1.3849098590206D+00
    40  3.9000000000000D-01 -7.2095752904276D-02  1.3964567122844D+00
    41  4.0000000000000D-01 -6.0154958654532D-02  1.4062801599472D+00
    42  4.1000000000000D-01 -4.7180528590816D-02  1.4143662625185D+00
    43  4.2000000000000D-01 -3.3158864151185D-02  1.4207036664548D+00
    44  4.3000000000000D-01 -1.8078696687714D-02  1.4252836749131D+00
    45  4.4000000000000D-01 -1.9312393196840D-03  1.4281003146866D+00
    46  4.5000000000000D-01  1.5289665372477D-02  1.4291503988914D+00
    47  4.6000000000000D-01  3.3587402785026D-02  1.4284335849754D+00
    48  4.7000000000000D-01  5.2962449832212D-02  1.4259524276276D+00
    49  4.8000000000000D-01  7.3412245555631D-02  1.4217124261693D+00
    50  4.9000000000000D-01  9.4931069754114D-02  1.4157220660212D+00
    51  5.0000000000000D-01  1.1750993056877D-01  1.4079928538526D+00
    52  5.1000000000000D-01  1.4113646193444D-01  1.3985393460312D+00
    53  5.2000000000000D-01  1.6579483177990D-01  1.3873791700107D+00
    54  5.3000000000000D-01  1.9146566182485D-01  1.3745330383126D+00
    55  5.4000000000000D-01  2.1812595978154D-01  1.3600247547790D+00
    56  5.5000000000000D-01  2.4574906472450D-01  1.3438812127991D+00
    57  5.6000000000000D-01  2.7430460634053D-01  1.3261323852367D+00
    58  5.7000000000000D-01  3.0375847871672D-01  1.3068113058139D+00
    59  5.8000000000000D-01  3.3407282926359D-01  1.2859540417397D+00
    60  5.9000000000000D-01  3.6520606330599D-01  1.2635996573989D+00
    61  6.0000000000000D-01  3.9711286480536D-01  1.2397901689571D+00
    62  6.1000000000000D-01  4.2974423360404D-01  1.2145704897671D+00
    63  6.2000000000000D-01  4.6304753950556D-01  1.1879883665046D+00
    64  6.3000000000000D-01  4.9696659342484D-01  1.1600943059952D+00
    65  6.4000000000000D-01  5.3144173575937D-01  1.1309414927368D+00
    66  6.5000000000000D-01  5.6640994204667D-01  1.1005856971618D+00
    67  6.6000000000000D-01  6.0180494588582D-01  1.0690851747241D+00
    68  6.7000000000000D-01  6.3755737901153D-01  1.0365005559387D+00
    69  6.8000000000000D-01  6.7359492831827D-01  1.0028947275430D+00
    70  6.9000000000000D-01  7.0984250954083D-01  9.6833270499373D-01
    71  7.0000000000000D-01  7.4622245720602D-01  9.3288149655257D-01
    72  7.1000000000000D-01  7.8265473037868D-01  8.9660995925858D-01
    73  7.2000000000000D-01  8.1905713363430D-01  8.5958864712632D-01
    74  7.3000000000000D-01  8.5534555260146D-01  8.2188965194886D-01
    75  7.4000000000000D-01  8.9143420332908D-01  7.8358643712614D-01
    76  7.5000000000000D-01  9.2723589464874D-01  7.4475366497691D-01
    77  7.6000000000000D-01  9.6266230261891D-01  7.0546701803081D-01
    78  7.7000000000000D-01  9.9762425605915D-01  6.6580301483243D-01
    79  7.8000000000000D-01  1.0320320321066D+00  6.2583882082344D-01
    80  7.9000000000000D-01  1.0657956606559D+00  5.8565205490090D-01
    81  8.0000000000000D-01  1.0988252364770D+00  5.4532059227930D-01
    82  8.1000000000000D-01  1.1310312377441D+00  5.0492236431160D-01
    83  8.2000000000000D-01  1.1623248496537D+00  4.6453515594873D-01
    84  8.3000000000000D-01  1.1926182917583D+00  4.2423640153923D-01
    85  8.4000000000000D-01  1.2218251476022D+00  3.8410297968955D-01
    86  8.5000000000000D-01  1.2498606952053D+00  3.4421100792123D-01
    87  8.6000000000000D-01  1.2766422369142D+00  3.0463563787396D-01
    88  8.7000000000000D-01  1.3020894271166D+00  2.6545085181274D-01
    89  8.8000000000000D-01  1.3261245962993D+00  2.2672926120324D-01
    90  8.9000000000000D-01  1.3486730699248D+00  1.8854190812167D-01
    91  9.0000000000000D-01  1.3696634806009D+00  1.5095807026451D-01
    92  9.1000000000000D-01  1.3890280720258D+00  1.1404507031836D-01
    93  9.2000000000000D-01  1.4067029932109D+00  7.7868090441847D-02
    94  9.3000000000000D-01  1.4226285815038D+00  4.2489992599424D-02
    95  9.4000000000000D-01  1.4367496329706D+00  7.9711454711493D-03
    96  9.5000000000000D-01  1.4490156587347D+00 -2.5630741356681D-02
    97  9.6000000000000D-01  1.4593811259189D+00 -5.8260775238031D-02
    98  9.7000000000000D-01  1.4678056818926D+00 -8.9867029694887D-02
    99  9.8000000000000D-01  1.4742543605894D+00 -1.2040068439994D-01
   100  9.9000000000000D-01  1.4786977697319D+00 -1.4981615532120D-01
   101  1.0000000000000D+00  1.4811122578740D+00 -1.7807121446976D-01
   102  1.0100000000000D+00  1.4814800602593D+00 -2.0512709873288D-01
   103  1.0200000000000D+00  1.4797894225788D+00 -2.3094860731438D-01
   104  1.0300000000000D+00  1.4760347018102D+00 -2.5550418734906D-01
   105  1.0400000000000D+00  1.4702164434163D+00 -2.7876600730371D-01
   106  1.0500000000000D+00  1.4623414342919D+00 -3.0071001782803D-01
   107  1.0600000000000D+00  1.4524227309451D+00 -3.2131599976366D-01
   108  1.0700000000000D+00  1.4404796625232D+00 -3.4056759907819D-01
   109  1.0800000000000D+00  1.4265378084014D+00 -3.5845234853980D-01
   110  1.0900000000000D+00  1.4106289501669D+00 -3.7496167600360D-01
   111  1.1000000000000D+00  1.3927909979626D+00 -3.9009089923970D-01
   112  1.1100000000000D+00  1.3730678912467D+00 -4.0383920727830D-01
   113  1.1200000000000D+00  1.3515094741750D+00 -4.1620962831672D-01
   114  1.1300000000000D+00  1.3281713459099D+00 -4.2720898427860D-01
   115  1.1400000000000D+00  1.3031146862932D+00 -4.3684783217982D-01
   116  1.1500000000000D+00  1.2764060574097D+00 -4.4514039249707D-01
   117  1.1600000000000D+00  1.2481171817133D+00 -4.5210446480421D-01
   118  1.1700000000000D+00  1.2183246974763D+00 -4.5776133098456D-01
   119  1.1800000000000D+00  1.1871098924444D+00 -4.6213564638600D-01
   120  1.1900000000000D+00  1.1545584166476D+00 -4.6525531931806D-01
   121  1.2000000000000D+00  1.1207599754602D+00 -4.6715137936096D-01
   122  1.2100000000000D+00  1.0858080040684D+00 -4.6785783498797D-01
   123  1.2200000000000D+00  1.0497993245780D+00 -4.6741152104080D-01
   124  1.2300000000000D+00  1.0128337870911D+00 -4.6585193664547D-01
   125  1.2400000000000D+00  9.7501389615473D-01 -4.6322107419426D-01
   126  1.2500000000000D+00  9.3644442402804D-01 -4.5956324004425D-01
   127  1.2600000000000D+00  8.9723201227433D-01 -4.5492486761308D-01
   128  1.2700000000000D+00  8.5748476325267D-01 -4.4935432359166D-01
   129  1.2800000000000D+00  8.1731182309204D-01 -4.4290170800124D-01
   130  1.2900000000000D+00  7.7682295777300D-01 -4.3561864884422D-01
   131  1.3000000000000D+00  7.3612812397249D-01 -4.2755809212373D-01
   132  1.3100000000000D+00  6.9533703631356D-01 -4.1877408800194D-01
   133  1.3200000000000D+00  6.5455873269301D-01 -4.0932157388620D-01
   134  1.3300000000000D+00  6.1390113932552D-01 -3.9925615522979D-01
   135  1.3400000000000D+00  5.7347063713899D-01 -3.8863388483060D-01
   136  1.3500000000000D+00  5.3337163115214D-01 -3.7751104141835D-01
   137  1.3600000000000D+00  4.9370612435903D-01 -3.6594390828599D-01
   138  1.3700000000000D+00  4.5457329771124D-01 -3.5398855274316D-01
   139  1.3800000000000D+00  4.1606909764776D-01 -3.4170060712653D-01
   140  1.3900000000000D+00  3.7828583255350D-01 -3.2913505207210D-01
   141  1.4000000000000D+00  3.4131177961430D-01 -3.1634600279120D-01
   142  1.4100000000000D+00  3.0523080319790D-01 -3.0338649896483D-01
   143  1.4200000000000D+00  2.7012198608008D-01 -2.9030829894140D-01
   144  1.4300000000000D+00  2.3605927459973D-01 -2.7716167883616D-01
   145  1.4400000000000D+00  2.0311113865324D-01 -2.6399523705820D-01
   146  1.4500000000000D+00  1.7134024768837D-01 -2.5085570489389D-01
   147  1.4600000000000D+00  1.4080316320516D-01 -2.3778776351164D-01
   148  1.4700000000000D+00  1.1155004877171D-01 -2.2483386795547D-01
   149  1.4800000000000D+00  8.3624397964919D-02 -2.1203407845240D-01
   150  1.4900000000000D+00  5.7062780758568D-02 -1.9942589940044D-01
   151  1.5000000000000D+00  3.1894604067961D-02 -1.8704412499518D-01
   152  1.5100000000000D+00  8.1419120321305D-03 -1.7492069906721D-01
   153  1.5200000000000D+00 -1.4180846331240D-02 -1.6308456835590D-01
   154  1.5300000000000D+00 -3.5066811193804D-02 -1.5156160952551D-01
   155  1.5400000000000D+00 -5.4517352571696D-02 -1.4037436597918D-01
   156  1.5500000000000D+00 -7.2541888850998D-02 -1.2954203511946D-01
   157  1.5600000000000D+00 -8.9156297952421D-02 -1.1908086452174D-01
   158  1.5700000000000D+00 -1.0438167419161D-01 -1.0900447952141D-01
   159  1.5800000000000D+00 -1.1824257146884D-01 -9.9324391543456D-02
   160  1.5900000000000D+00 -1.3076653546763D-01 -9.0050132522980D-02
   161  1.6000000000000D+00 -1.4198442509628D-01 -8.1189172736011D-02
   162  1.6100000000000D+00 -1.5193007744162D-01 -7.2747025805017D-02
   163  1.6200000000000D+00 -1.6064014329347D-01 -6.4727307873664D-02
   164  1.6300000000000D+00 -1.6815388883654D-01 -5.7131809443113D-02
   165  1.6400000000000D+00 -1.7451299570500D-01 -4.9960569891261D-02
   166  1.6500000000000D+00 -1.7976135257857D-01 -4.3211956733458D-02
   167  1.6600000000000D+00 -1.8394483920788D-01 -3.6882749165664D-02
   168  1.6700000000000D+00 -1.8711110517864D-01 -3.0968225153680D-02
   169  1.6800000000000D+00 -1.8930934422443D-01 -2.5462251660789D-02
   170  1.6900000000000D+00 -1.9059006520329D-01 -2.0357377603372D-02
   171  1.7000000000000D+00 -1.9100486108129D-01 -1.5644928970007D-02
   172  1.7100000000000D+00 -1.9060617715015D-01 -1.1315105642565D-02
   173  1.7200000000000D+00 -1.8944707946625D-01 -7.3570794715725D-03
   174  1.7300000000000D+00 -1.8758102499010D-01 -3.7590930507952D-03
   175  1.7400000000000D+00 -1.8506163412869D-01 -5.0855884341772D-04
   176  1.7500000000000D+00 -1.8194246739483D-01  2.4078419854863D-03
   177  1.7600000000000D+00 -1.7827680653668D-01  5.0040612522489D-03
   178  1.7700000000000D+00 -1.7411744204859D-01  7.2945866785842D-03
   179  1.7800000000000D+00 -1.6951646711506D-01  9.2943461646523D-03
   180  1.7900000000000D+00 -1.6452507996859D-01  1.1018614172824D-02
   181  1.8000000000000D+00 -1.5919339452881D-01  1.2482920256239D-02
   182  1.8100000000000D+00 -1.5357026117923D-01  1.3702960460568D-02
   183  1.8200000000000D+00 -1.4770309756103D-01  1.4694511629360D-02
   184  1.8300000000000D+00 -1.4163773084115D-01  1.5473349206666D-02
   185  1.8400000000000D+00 -1.3541825163045D-01  1.6055168668558D-02
   186  1.8500000000000D+00 -1.2908688025845D-01  1.6455510910251D-02
   187  1.8600000000000D+00 -1.2268384622798D-01  1.6689691954198D-02
   188  1.8700000000000D+00 -1.1624728041916D-01  1.6772736890325D-02
   189  1.8800000000000D+00 -1.0981312187110D-01  1.6719318786092D-02
   190  1.8900000000000D+00 -1.0341503726961D-01  1.6543701940489D-02
   191  1.9000000000000D+00 -9.7084355980034D-02  1.6259690601978D-02
   192  1.9100000000000D+00 -9.0850017917900D-02  1.5880582204854D-02
   193  1.9200000000000D+00 -8.4738536796393D-02  1.5419126141588D-02
   194  1.9300000000000D+00 -7.8773976797937D-02  1.4887487399394D-02
   195  1.9400000000000D+00 -7.2977943560118D-02  1.4297215464736D-02
   196  1.9500000000000D+00 -6.7369589209887D-02  1.3659218458706D-02
   197  1.9600000000000D+00 -6.1965630134194D-02  1.2983742068422D-02
   198  1.9700000000000D+00 -5.6780379076558D-02  1.2280353952739D-02
   199  1.9800000000000D+00 -5.1825788480803D-02  1.1557932497488D-02
   200  1.9900000000000D+00 -4.7111507334746D-02  1.0824660868797D-02
   201  2.0000000000000D+00 -4.2644948598846D-02  1.0088025289806D-02
   202  2.0100000000000D+00 -3.8431367953039D-02  9.3548179040321D-03
   203  2.0200000000000D+00 -3.4473952977077D-02  8.6311439464627D-03
   204  2.0300000000000D+00 -3.0773921045661D-02  7.9224326071926D-03
   205  2.0400000000000D+00 -2.7330626805065D-02  7.2334520279436D-03
   206  2.0500000000000D+00 -2.4141676586794D-02  6.5683274116302D-03
   207  2.0600000000000D+00 -2.1203050190277D-02  5.9305625390862D-03
   208  2.0700000000000D+00 -1.8509228409284D-02  5.3230640793169D-03
   209  2.0800000000000D+00 -1.6053325448811D-02  4.7481684267628D-03
   210  2.0900000000000D+00 -1.3827225855712D-02  4.2076710215964D-03
   211  2.1000000000000D+00 -1.1821724220739D-02  3.7028574422260D-03
   212  2.1100000000000D+00 -1.0026666939460D-02  3.2345361686840D-03
   213  2.1200000000000D+00 -8.4310951835670D-03  2.8030726386178D-03
   214  2.1300000000000D+00 -7.0233879579287D-03  2.4084242417825D-03
   215  2.1400000000000D+00 -5.7914037270038D-03  2.0501757739117D-03
   216  2.1500000000000D+00 -4.7226208671421D-03  1.7275753540845D-03
   217  2.1600000000000D+00 -3.8042747403780D-03  1.4395701592772D-03
   218  2.1700000000000D+00 -3.0234914505413D-03  1.1848419166868D-03
   219  2.1800000000000D+00 -2.3674173851937D-03  9.6184185450088D-04
   220  2.1900000000000D+00 -1.8233420243649D-03  7.6882428831685D-04
   221  2.2000000000000D+00 -1.3788162917891D-03  6.0387955156213D-04
   222  2.2100000000000D+00 -1.0217625271320D-03  4.6496497010011D-04
   223  2.2200000000000D+00 -7.4057669147257D-04  3.4993406597102D-04
   224  2.2300000000000D+00 -5.2422414216565D-04  2.5656441825185D-04
   225  2.2400000000000D+00 -3.6235927395822D-04  1.8258821066526D-04
   226  2.2500000000000D+00 -2.4531077735805D-04  1.2570040392467D-04
   227  2.2600000000000D+00 -1.6410538383318D-04  8.3572207529736D-05
   228  2.2700000000000D+00 -1.1029779172597D-04  5.3762402935967D-05
   229  2.2800000000000D+00 -7.7675064284620D-05  3.4253264061182D-05
   230  2.2900000000000D+00 -6.0788982164877D-05  2.3005143496994D-05
   231  2.3000000000000D+00 -5.6037942857740D-05  1.8411785259605D-05
   232  2.3100000000000D+00 -5.3351413057234D-05  1.6403428947112D-05
   233  2.3200000000000D+00 -4.5096616556279D-05  1.3693078906110D-05
   234  2.3300000000000D+00 -2.7358653755787D-05  8.2976842419977D-06
   235  2.3400000000000D+00 -8.3697394414986D-06  2.5520870765267D-06
   236  2.3500000000000D+00  3.3232132592142D-06 -9.8826483491783D-07
   237  2.3600000000000D+00  4.9041584309778D-06 -1.4570541109223D-06
   238  2.3700000000000D+00  1.5532000767250D-06 -4.6138673582431D-07
   239  2.3800000000000D+00 -8.4004679288249D-07  2.4654498156964D-07
   240  2.3900000000000D+00 -1.0523620622466D-06  3.0827558176231D-07
   241  2.4000000000000D+00 -2.1557733548322D-07  6.3051882176715D-08
   242  2.4100000000000D+00  1.1324891867534D-07 -3.4469265708300D-08
   243  2.4200000000000D+00  1.2315718216144D-07 -3.7485016947297D-08
   244  2.4300000000000D+00  1.1040886879528D-08 -3.3604847442010D-09
   245  2.4400000000000D+00  0.0000000000000D+00  0.0000000000000D+00
   246  2.4500000000000D+00  0.0000000000000D+00  0.0000000000000D+00
   247  2.4600000000000D+00  0.0000000000000D+00  0.0000000000000D+00
   248  2.4700000000000D+00  0.0000000000000D+00  0.0000000000000D+00
   249  2.4800000000000D+00  0.0000000000000D+00  0.0000000000000D+00
   250  2.4900000000000D+00  0.0000000000000D+00  0.0000000000000D+00
   251  2.5000000000000D+00  0.0000000000000D+00  0.0000000000000D+00
   252  2.5100000000000D+00  0.0000000000000D+00  0.0000000000000D+00
   253  2.5200000000000D+00  0.0000000000000D+00  0.0000000000000D+00
   254  2.5300000000000D+00  0.0000000000000D+00  0.0000000000000D+00
   255  2.5400000000000D+00  0.0000000000000D+00  0.0000000000000D+00
   256  2.5500000000000D+00  0.0000000000000D+00  0.0000000000000D+00
   257  2.5600000000000D+00  0.0000000000000D+00  0.0000000000000D+00
   258  2.5700000000000D+00  0.0000000000000D+00  0.0000000000000D+00
   259  2.5800000000000D+00  0.0000000000000D+00  0.0000000000000D+00
   260  2.5900000000000D+00  0.0000000000000D+00  0.0000000000000D+00
   261  2.6000000000000D+00  0.0000000000000D+00  0.0000000000000D+00
   262  2.6100000000000D+00  0.0000000000000D+00  0.0000000000000D+00
   263  2.6200000000000D+00  0.0000000000000D+00  0.0000000000000D+00
   264  2.6300000000000D+00  0.0000000000000D+00  0.0000000000000D+00
   265  2.6400000000000D+00  0.0000000000000D+00  0.0000000000000D+00
   266  2.6500000000000D+00  0.0000000000000D+00  0.0000000000000D+00
   267  2.6600000000000D+00  0.0000000000000D+00  0.0000000000000D+00
   268  2.6700000000000D+00  0.0000000000000D+00  0.0000000000000D+00
   269  2.6800000000000D+00  0.0000000000000D+00  0.0000000000000D+00
   270  2.6900000000000D+00  0.0000000000000D+00  0.0000000000000D+00
   271  2.7000000000000D+00  0.0000000000000D+00  0.0000000000000D+00
   272  2.7100000000000D+00  0.0000000000000D+00  0.0000000000000D+00
   273  2.7200000000000D+00  0.0000000000000D+00  0.0000000000000D+00
   274  2.7300000000000D+00  0.0000000000000D+00  0.0000000000000D+00
   275  2.7400000000000D+00  0.0000000000000D+00  0.0000000000000D+00
   276  2.7500000000000D+00  0.0000000000000D+00  0.0000000000000D+00
   277  2.7600000000000D+00  0.0000000000000D+00  0.0000000000000D+00
   278  2.7700000000000D+00  0.0000000000000D+00  0.0000000000000D+00
   279  2.7800000000000D+00  0.0000000000000D+00  0.0000000000000D+00
   280  2.7900000000000D+00  0.0000000000000D+00  0.0000000000000D+00
   281  2.8000000000000D+00  0.0000000000000D+00  0.0000000000000D+00
   282  2.8100000000000D+00  0.0000000000000D+00  0.0000000000000D+00
   283  2.8200000000000D+00  0.0000000000000D+00  0.0000000000000D+00
   284  2.8300000000000D+00  0.0000000000000D+00  0.0000000000000D+00
   285  2.8400000000000D+00  0.0000000000000D+00  0.0000000000000D+00
   286  2.8500000000000D+00  0.0000000000000D+00  0.0000000000000D+00
   287  2.8600000000000D+00  0.0000000000000D+00  0.0000000000000D+00
   288  2.8700000000000D+00  0.0000000000000D+00  0.0000000000000D+00
   289  2.8800000000000D+00  0.0000000000000D+00  0.0000000000000D+00
   290  2.8900000000000D+00  0.0000000000000D+00  0.0000000000000D+00
   291  2.9000000000000D+00  0.0000000000000D+00  0.0000000000000D+00
   292  2.9100000000000D+00  0.0000000000000D+00  0.0000000000000D+00
   293  2.9200000000000D+00  0.0000000000000D+00  0.0000000000000D+00
   294  2.9300000000000D+00  0.0000000000000D+00  0.0000000000000D+00
   295  2.9400000000000D+00  0.0000000000000D+00  0.0000000000000D+00
   296  2.9500000000000D+00  0.0000000000000D+00  0.0000000000000D+00
   297  2.9600000000000D+00  0.0000000000000D+00  0.0000000000000D+00
   298  2.9700000000000D+00  0.0000000000000D+00  0.0000000000000D+00
   299  2.9800000000000D+00  0.0000000000000D+00  0.0000000000000D+00
   300  2.9900000000000D+00  0.0000000000000D+00  0.0000000000000D+00
   301  3.0000000000000D+00  0.0000000000000D+00  0.0000000000000D+00
   302  3.0100000000000D+00  0.0000000000000D+00  0.0000000000000D+00
   303  3.0200000000000D+00  0.0000000000000D+00  0.0000000000000D+00
   304  3.0300000000000D+00  0.0000000000000D+00  0.0000000000000D+00
   305  3.0400000000000D+00  0.0000000000000D+00  0.0000000000000D+00
   306  3.0500000000000D+00  0.0000000000000D+00  0.0000000000000D+00
   307  3.0600000000000D+00  0.0000000000000D+00  0.0000000000000D+00
   308  3.0700000000000D+00  0.0000000000000D+00  0.0000000000000D+00
   309  3.0800000000000D+00  0.0000000000000D+00  0.0000000000000D+00
   310  3.0900000000000D+00  0.0000000000000D+00  0.0000000000000D+00
   311  3.1000000000000D+00  0.0000000000000D+00  0.0000000000000D+00
   312  3.1100000000000D+00  0.0000000000000D+00  0.0000000000000D+00
   313  3.1200000000000D+00  0.0000000000000D+00  0.0000000000000D+00
   314  3.1300000000000D+00  0.0000000000000D+00  0.0000000000000D+00
   315  3.1400000000000D+00  0.0000000000000D+00  0.0000000000000D+00
   316  3.1500000000000D+00  0.0000000000000D+00  0.0000000000000D+00
   317  3.1600000000000D+00  0.0000000000000D+00  0.0000000000000D+00
   318  3.1700000000000D+00  0.0000000000000D+00  0.0000000000000D+00
   319  3.1800000000000D+00  0.0000000000000D+00  0.0000000000000D+00
   320  3.1900000000000D+00  0.0000000000000D+00  0.0000000000000D+00
   321  3.2000000000000D+00  0.0000000000000D+00  0.0000000000000D+00
   322  3.2100000000000D+00  0.0000000000000D+00  0.0000000000000D+00
   323  3.2200000000000D+00  0.0000000000000D+00  0.0000000000000D+00
   324  3.2300000000000D+00  0.0000000000000D+00  0.0000000000000D+00
   325  3.2400000000000D+00  0.0000000000000D+00  0.0000000000000D+00
   326  3.2500000000000D+00  0.0000000000000D+00  0.0000000000000D+00
   327  3.2600000000000D+00  0.0000000000000D+00  0.0000000000000D+00
   328  3.2700000000000D+00  0.0000000000000D+00  0.0000000000000D+00
   329  3.2800000000000D+00  0.0000000000000D+00  0.0000000000000D+00
   330  3.2900000000000D+00  0.0000000000000D+00  0.0000000000000D+00
   331  3.3000000000000D+00  0.0000000000000D+00  0.0000000000000D+00
   332  3.3100000000000D+00  0.0000000000000D+00  0.0000000000000D+00
   333  3.3200000000000D+00  0.0000000000000D+00  0.0000000000000D+00
   334  3.3300000000000D+00  0.0000000000000D+00  0.0000000000000D+00
   335  3.3400000000000D+00  0.0000000000000D+00  0.0000000000000D+00
   336  3.3500000000000D+00  0.0000000000000D+00  0.0000000000000D+00
   337  3.3600000000000D+00  0.0000000000000D+00  0.0000000000000D+00
   338  3.3700000000000D+00  0.0000000000000D+00  0.0000000000000D+00
   339  3.3800000000000D+00  0.0000000000000D+00  0.0000000000000D+00
   340  3.3900000000000D+00  0.0000000000000D+00  0.0000000000000D+00
   341  3.4000000000000D+00  0.0000000000000D+00  0.0000000000000D+00
   342  3.4100000000000D+00  0.0000000000000D+00  0.0000000000000D+00
   343  3.4200000000000D+00  0.0000000000000D+00  0.0000000000000D+00
   344  3.4300000000000D+00  0.0000000000000D+00  0.0000000000000D+00
   345  3.4400000000000D+00  0.0000000000000D+00  0.0000000000000D+00
   346  3.4500000000000D+00  0.0000000000000D+00  0.0000000000000D+00
   347  3.4600000000000D+00  0.0000000000000D+00  0.0000000000000D+00
   348  3.4700000000000D+00  0.0000000000000D+00  0.0000000000000D+00
   349  3.4800000000000D+00  0.0000000000000D+00  0.0000000000000D+00
   350  3.4900000000000D+00  0.0000000000000D+00  0.0000000000000D+00
   351  3.5000000000000D+00  0.0000000000000D+00  0.0000000000000D+00
   352  3.5100000000000D+00  0.0000000000000D+00  0.0000000000000D+00
   353  3.5200000000000D+00  0.0000000000000D+00  0.0000000000000D+00
   354  3.5300000000000D+00  0.0000000000000D+00  0.0000000000000D+00
   355  3.5400000000000D+00  0.0000000000000D+00  0.0000000000000D+00
   356  3.5500000000000D+00  0.0000000000000D+00  0.0000000000000D+00
   357  3.5600000000000D+00  0.0000000000000D+00  0.0000000000000D+00
   358  3.5700000000000D+00  0.0000000000000D+00  0.0000000000000D+00
   359  3.5800000000000D+00  0.0000000000000D+00  0.0000000000000D+00
   360  3.5900000000000D+00  0.0000000000000D+00  0.0000000000000D+00
   361  3.6000000000000D+00  0.0000000000000D+00  0.0000000000000D+00
   362  3.6100000000000D+00  0.0000000000000D+00  0.0000000000000D+00
   363  3.6200000000000D+00  0.0000000000000D+00  0.0000000000000D+00
   364  3.6300000000000D+00  0.0000000000000D+00  0.0000000000000D+00
   365  3.6400000000000D+00  0.0000000000000D+00  0.0000000000000D+00
   366  3.6500000000000D+00  0.0000000000000D+00  0.0000000000000D+00
   367  3.6600000000000D+00  0.0000000000000D+00  0.0000000000000D+00
   368  3.6700000000000D+00  0.0000000000000D+00  0.0000000000000D+00
   369  3.6800000000000D+00  0.0000000000000D+00  0.0000000000000D+00
   370  3.6900000000000D+00  0.0000000000000D+00  0.0000000000000D+00
   371  3.7000000000000D+00  0.0000000000000D+00  0.0000000000000D+00
   372  3.7100000000000D+00  0.0000000000000D+00  0.0000000000000D+00
   373  3.7200000000000D+00  0.0000000000000D+00  0.0000000000000D+00
   374  3.7300000000000D+00  0.0000000000000D+00  0.0000000000000D+00
   375  3.7400000000000D+00  0.0000000000000D+00  0.0000000000000D+00
   376  3.7500000000000D+00  0.0000000000000D+00  0.0000000000000D+00
   377  3.7600000000000D+00  0.0000000000000D+00  0.0000000000000D+00
   378  3.7700000000000D+00  0.0000000000000D+00  0.0000000000000D+00
   379  3.7800000000000D+00  0.0000000000000D+00  0.0000000000000D+00
   380  3.7900000000000D+00  0.0000000000000D+00  0.0000000000000D+00
   381  3.8000000000000D+00  0.0000000000000D+00  0.0000000000000D+00
   382  3.8100000000000D+00  0.0000000000000D+00  0.0000000000000D+00
   383  3.8200000000000D+00  0.0000000000000D+00  0.0000000000000D+00
   384  3.8300000000000D+00  0.0000000000000D+00  0.0000000000000D+00
   385  3.8400000000000D+00  0.0000000000000D+00  0.0000000000000D+00
   386  3.8500000000000D+00  0.0000000000000D+00  0.0000000000000D+00
   387  3.8600000000000D+00  0.0000000000000D+00  0.0000000000000D+00
   388  3.8700000000000D+00  0.0000000000000D+00  0.0000000000000D+00
   389  3.8800000000000D+00  0.0000000000000D+00  0.0000000000000D+00
   390  3.8900000000000D+00  0.0000000000000D+00  0.0000000000000D+00
   391  3.9000000000000D+00  0.0000000000000D+00  0.0000000000000D+00
   392  3.9100000000000D+00  0.0000000000000D+00  0.0000000000000D+00
   393  3.9200000000000D+00  0.0000000000000D+00  0.0000000000000D+00
   394  3.9300000000000D+00  0.0000000000000D+00  0.0000000000000D+00
   395  3.9400000000000D+00  0.0000000000000D+00  0.0000000000000D+00
   396  3.9500000000000D+00  0.0000000000000D+00  0.0000000000000D+00
   397  3.9600000000000D+00  0.0000000000000D+00  0.0000000000000D+00
   398  3.9700000000000D+00  0.0000000000000D+00  0.0000000000000D+00
   399  3.9800000000000D+00  0.0000000000000D+00  0.0000000000000D+00
   400  3.9900000000000D+00  0.0000000000000D+00  0.0000000000000D+00
   401  4.0000000000000D+00  0.0000000000000D+00  0.0000000000000D+00
   402  4.0100000000000D+00  0.0000000000000D+00  0.0000000000000D+00
   403  4.0200000000000D+00  0.0000000000000D+00  0.0000000000000D+00
   404  4.0300000000000D+00  0.0000000000000D+00  0.0000000000000D+00
   405  4.0400000000000D+00  0.0000000000000D+00  0.0000000000000D+00
   406  4.0500000000000D+00  0.0000000000000D+00  0.0000000000000D+00
   407  4.0600000000000D+00  0.0000000000000D+00  0.0000000000000D+00
   408  4.0700000000000D+00  0.0000000000000D+00  0.0000000000000D+00
   409  4.0800000000000D+00  0.0000000000000D+00  0.0000000000000D+00
   410  4.0900000000000D+00  0.0000000000000D+00  0.0000000000000D+00
   411  4.1000000000000D+00  0.0000000000000D+00  0.0000000000000D+00
   412  4.1100000000000D+00  0.0000000000000D+00  0.0000000000000D+00
   413  4.1200000000000D+00  0.0000000000000D+00  0.0000000000000D+00
   414  4.1300000000000D+00  0.0000000000000D+00  0.0000000000000D+00
   415  4.1400000000000D+00  0.0000000000000D+00  0.0000000000000D+00
   416  4.1500000000000D+00  0.0000000000000D+00  0.0000000000000D+00
   417  4.1600000000000D+00  0.0000000000000D+00  0.0000000000000D+00
   418  4.1700000000000D+00  0.0000000000000D+00  0.0000000000000D+00
   419  4.1800000000000D+00  0.0000000000000D+00  0.0000000000000D+00
   420  4.1900000000000D+00  0.0000000000000D+00  0.0000000000000D+00
   421  4.2000000000000D+00  0.0000000000000D+00  0.0000000000000D+00
   422  4.2100000000000D+00  0.0000000000000D+00  0.0000000000000D+00