N     ONCVPSP-3.3.1  r_core=   1.60510   1.53031
      7.0000      5.0000      210905    zatom,zion,pspd
     8 -116133   1     4   600     0    pspcod,pspxc,lmax,lloc,mmax,r2well
  5.99000000  0.00000000  0.00000000    rchrg fchrg qchrg
     2     2     0     0     0    nproj
     1     1           extension_switch
   0                         7.1433032069711D+00  1.0038695337819D+00
     1  0.0000000000000D+00  4.3743231259441D-11 -1.9713641830066D-10
     2  1.0000000000000D-02  8.6808996309809D-02 -3.8174205515786D-02
     3  2.0000000000000D-02  1.7338968772073D-01 -7.6123678093749D-02
     4  3.0000000000000D-02  2.5951444748375D-01 -1.1362443391567D-01
     5  4.0000000000000D-02  3.4495700392064D-01 -1.5045398795181D-01
     6  5.0000000000000D-02  4.2949311487563D-01 -1.8639210467717D-01
     7  6.0000000000000D-02  5.1290123843429D-01 -2.2122155023126D-01
     8  7.0000000000000D-02  5.9496319861314D-01 -2.5472884626724D-01
     9  8.0000000000000D-02  6.7546484467901D-01 -2.8670502553872D-01
    10  9.0000000000000D-02  7.5419670270479D-01 -3.1694638903236D-01
    11  1.0000000000000D-01  8.3095461790691D-01 -3.4525526417369D-01
    12  1.1000000000000D-01  9.0554038624201D-01 -3.7144076331860D-01
    13  1.2000000000000D-01  9.7776237366752D-01 -3.9531954139712D-01
    14  1.3000000000000D-01  1.0474361213936D+00 -4.1671655120601D-01
    15  1.4000000000000D-01  1.1143849353757D+00 -4.3546579445834D-01
    16  1.5000000000000D-01  1.1784404582185D+00 -4.5141106629720D-01
    17  1.6000000000000D-01  1.2394432215845D+00 -4.6440669057528D-01
    18  1.7000000000000D-01  1.2972431771296D+00 -4.7431824279745D-01
    19  1.8000000000000D-01  1.3517002039195D+00 -4.8102325722849D-01
    20  1.9000000000000D-01  1.4026845902247D+00 -4.8441191428869D-01
    21  2.0000000000000D-01  1.4500774875412D+00 -4.8438770400396D-01
    22  2.1000000000000D-01  1.4937713346501D+00 -4.8086806095113D-01
    23  2.2000000000000D-01  1.5336702495074D+00 -4.7378496585006D-01
    24  2.3000000000000D-01  1.5696903867465D+00 -4.6308550870851D-01
    25  2.4000000000000D-01  1.6017602585920D+00 -4.4873240822923D-01
    26  2.5000000000000D-01  1.6298210170099D+00 -4.3070448204752D-01
    27  2.6000000000000D-01  1.6538266949717D+00 -4.0899706228541D-01
    28  2.7000000000000D-01  1.6737444047840D+00 -3.8362235089153D-01
    29  2.8000000000000D-01  1.6895544915257D+00 -3.5460970928552D-01
    30  2.9000000000000D-01  1.7012506397562D+00 -3.2200587694652D-01
    31  3.0000000000000D-01  1.7088399317971D+00 -2.8587511377829D-01
    32  3.1000000000000D-01  1.7123428560538D+00 -2.4629926135005D-01
    33  3.2000000000000D-01  1.7117932640306D+00 -2.0337771845224D-01
    34  3.3000000000000D-01  1.7072382749040D+00 -1.5722732681957D-01
    35  3.4000000000000D-01  1.6987381267479D+00 -1.0798216335804D-01
    36  3.5000000000000D-01  1.6863659737595D+00 -5.5793235765805D-02
    37  3.6000000000000D-01  1.6702076291046D+00 -8.2807905528026D-04
    38  3.7000000000000D-01  1.6503612532905D+00  5.6729748836982D-02
    39  3.8000000000000D-01  1.6269369882810D+00  1.1668127343273D-01
    40  3.9000000000000D-01  1.6000565378861D+00  1.7881281238386D-01
    41  4.0000000000000D-01  1.5698526952873D+00  2.4289678590583D-01
    42  4.1000000000000D-01  1.5364688189020D+00  3.0869262758561D-01
    43  4.2000000000000D-01  1.5000582581296D+00  3.7594779329157D-01
    44  4.3000000000000D-01  1.4607837308734D+00  4.4439886501010D-01
    45  4.4000000000000D-01  1.4188166550763D+00  5.1377274552307D-01
    46  4.5000000000000D-01  1.3743364368519D+00  5.8378793893138D-01
    47  4.6000000000000D-01  1.3275297181297D+00  6.5415591113276D-01
    48  4.7000000000000D-01  1.2785895870572D+00  7.2458252348621D-01
    49  4.8000000000000D-01  1.2277147547162D+00  7.9476953205206D-01
    50  4.9000000000000D-01  1.1751087020046D+00  8.6441614399482D-01
    51  5.0000000000000D-01  1.1209788008108D+00  9.3322062198573D-01
    52  5.1000000000000D-01  1.0655354138606D+00  1.0008819267533D+00
    53  5.2000000000000D-01  1.0089909778425D+00  1.0671013873108D+00
    54  5.3000000000000D-01  9.5155907461476D-01  1.1315843878497D+00
    55  5.4000000000000D-01  8.9345349546374D-01  1.1940420598346D+00
    56  5.5000000000000D-01  8.3488730351486D-01  1.2541929674753D+00
    57  5.6000000000000D-01  7.7607189949507D-01  1.3117647744891D+00
    58  5.7000000000000D-01  7.1721609610406D-01  1.3664958799135D+00
    59  5.8000000000000D-01  6.5852520627271D-01  1.4181370106806D+00
    60  5.9000000000000D-01  6.0020015056726D-01  1.4664527587309D+00
    61  6.0000000000000D-01  5.4243658893883D-01  1.5112230506221D+00
    62  6.1000000000000D-01  4.8542408191680D-01  1.5522445378849D+00
    63  6.2000000000000D-01  4.2934528620467D-01  1.5893318967807D+00
    64  6.3000000000000D-01  3.7437518945528D-01  1.6223190266430D+00
    65  6.4000000000000D-01  3.2068038878379D-01  1.6510601366063D+00
    66  6.5000000000000D-01  2.6841841731885D-01  1.6754307112628D+00
    67  6.6000000000000D-01  2.1773712279920D-01  1.6953283466240D+00
    68  6.7000000000000D-01  1.6877410189737D-01  1.7106734486794D+00
    69  6.8000000000000D-01  1.2165619359322D-01  1.7214097878649D+00
    70  6.9000000000000D-01  7.6499034534439D-02  1.7275049038301D+00
    71  7.0000000000000D-01  3.3406678909384D-02  1.7289503560511D+00
    72  7.1000000000000D-01 -7.5287150733788D-03  1.7257618170309D+00
    73  7.2000000000000D-01 -4.6227130457879D-02  1.7179790060885D+00
    74  7.3000000000000D-01 -8.2620867387617D-02  1.7056654630103D+00
    75  7.4000000000000D-01 -1.1665464882351D-01  1.6889081621335D+00
    76  7.5000000000000D-01 -1.4828565591034D-01  1.6678169687408D+00
    77  7.6000000000000D-01 -1.7748349324935D-01  1.6425239409276D+00
    78  7.7000000000000D-01 -2.0423008481385D-01  1.6131824813873D+00
    79  7.8000000000000D-01 -2.2851950171500D-01  1.5799663447863D+00
    80  7.9000000000000D-01 -2.5035772348303D-01  1.5430685075966D+00
    81  8.0000000000000D-01 -2.6976233497183D-01  1.5026999083741D+00
    82  8.1000000000000D-01 -2.8676216141655D-01  1.4590880675282D+00
    83  8.2000000000000D-01 -3.0139684457172D-01  1.4124755965949D+00
    84  8.3000000000000D-01 -3.1371636322644D-01  1.3631186078984D+00
    85  8.4000000000000D-01 -3.2378050173183D-01  1.3112850362508D+00
    86  8.5000000000000D-01 -3.3165827047876D-01  1.2572528849953D+00
    87  8.6000000000000D-01 -3.3742728253036D-01  1.2013084092228D+00
    88  8.7000000000000D-01 -3.4117309083964D-01  1.1437442493993D+00
    89  8.8000000000000D-01 -3.4298849066706D-01  1.0848575289033D+00
    90  8.9000000000000D-01 -3.4297279195385D-01  1.0249479291105D+00
    91  9.0000000000000D-01 -3.4123106650339D-01  9.6431575564898D-01
    92  9.1000000000000D-01 -3.3787337487419D-01  9.0326000930771D-01
    93  9.2000000000000D-01 -3.3301397789428D-01  8.4207647479361D-01
    94  9.3000000000000D-01 -3.2677053766754D-01  7.8105584011331D-01
    95  9.4000000000000D-01 -3.1926331285994D-01  7.2048185880665D-01
    96  9.5000000000000D-01 -3.1061435292691D-01  6.6062956658231D-01
    97  9.6000000000000D-01 -3.0094669577701D-01  6.0176356311549D-01
    98  9.7000000000000D-01 -2.9038357315737D-01  5.4413636885286D-01
    99  9.8000000000000D-01 -2.7904762780984D-01  4.8798686569297D-01
   100  9.9000000000000D-01 -2.6706014616493D-01  4.3353882929616D-01
   101  1.0000000000000D+00 -2.5454031003599D-01  3.8099955962149D-01
   102  1.0100000000000D+00 -2.4160447044406D-01  3.3055861506160D-01
   103  1.0200000000000D+00 -2.2836544634758D-01  2.8238665426615D-01
   104  1.0300000000000D+00 -2.1493185067922D-01  2.3663438843932D-01
   105  1.0400000000000D+00 -2.0140744569042D-01  1.9343164552173D-01
   106  1.0500000000000D+00 -1.8789052924250D-01  1.5288654644872D-01
   107  1.0600000000000D+00 -1.7447335323328D-01  1.1508479219830D-01
   108  1.0700000000000D+00 -1.6124157497906D-01  8.0089059157414D-02
   109  1.0800000000000D+00 -1.4827374196350D-01  4.7938499047797D-02
   110  1.0900000000000D+00 -1.3564080902842D-01  1.8648334661867D-02
   111  1.1000000000000D+00 -1.2340568888358D-01 -7.7904488105983D-03
   112  1.1100000000000D+00 -1.1162285873612D-01 -3.1411235345759D-02
   113  1.1200000000000D+00 -1.0033791633735D-01 -5.2272148985808D-02
   114  1.1300000000000D+00 -8.9587279798761D-02 -7.0455912793577D-02
   115  1.1400000000000D+00 -7.9399160888080D-02 -8.6064629870657D-02
   116  1.1500000000000D+00 -6.9794906447826D-02 -9.9213621682766D-02
   117  1.1600000000000D+00 -6.0789906349619D-02 -1.1002738859255D-01
   118  1.1700000000000D+00 -5.2393695713131D-02 -1.1863904937986D-01
   119  1.1800000000000D+00 -4.4610335428331D-02 -1.2518869336111D-01
   120  1.1900000000000D+00 -3.7438751821743D-02 -1.2982200142282D-01
   121  1.2000000000000D+00 -3.0873111297001D-02 -1.3268880601101D-01
   122  1.2100000000000D+00 -2.4903208058072D-02 -1.3394167935699D-01
   123  1.2200000000000D+00 -1.9514865205363D-02 -1.3373454457922D-01
   124  1.2300000000000D+00 -1.4690344414939D-02 -1.3222132524396D-01
   125  1.2400000000000D+00 -1.0408760217909D-02 -1.2955464540756D-01
   126  1.2500000000000D+00 -6.6464948854878D-03 -1.2588459207338D-01
   127  1.2600000000000D+00 -3.3776102354713D-03 -1.2135755036736D-01
   128  1.2700000000000D+00 -5.7425287570619D-04 -1.1611512090075D-01
   129  1.2800000000000D+00  1.7929505726905D-03 -1.1029312856472D-01
   130  1.2900000000000D+00  3.7545112426999D-03 -1.0402072982988D-01
   131  1.3000000000000D+00  5.3417114603028D-03 -9.7419624487830D-02
   132  1.3100000000000D+00  6.5862565907517D-03 -9.0603377919732D-02
   133  1.3200000000000D+00  7.5199472574218D-03 -8.3676856821042D-02
   134  1.3300000000000D+00  8.1743737062610D-03 -7.6735780638315D-02
   135  1.3400000000000D+00  8.5806341499894D-03 -6.9866391120110D-02
   136  1.3500000000000D+00  8.7690778685706D-03 -6.3145238318766D-02
   137  1.3600000000000D+00  8.7690740487067D-03 -5.6639082230383D-02
   138  1.3700000000000D+00  8.6088069979421D-03 -5.0404907855241D-02
   139  1.3800000000000D+00  8.3150974732869D-03 -4.4490048242310D-02
   140  1.3900000000000D+00  7.9132503920264D-03 -3.8932411984994D-02
   141  1.4000000000000D+00  7.4269281772493D-03 -3.3760807938219D-02
   142  1.4100000000000D+00  6.8780488869037D-03 -2.8995359721754D-02
   143  1.4200000000000D+00  6.2867084684351D-03 -2.4648003068687D-02
   144  1.4300000000000D+00  5.6711253140782D-03 -2.0723055297594D-02
   145  1.4400000000000D+00  5.0476060736276D-03 -1.7217848744150D-02
   146  1.4500000000000D+00  4.4305307335538D-03 -1.4123416872964D-02
   147  1.4600000000000D+00  3.8323551550814D-03 -1.1425222706645D-02
   148  1.4700000000000D+00  3.2636291801334D-03 -9.1039184934288D-03
   149  1.4800000000000D+00  2.7330280086289D-03 -7.1361252159473D-03
   150  1.4900000000000D+00  2.2473948741834D-03 -5.4952206185329D-03
   151  1.5000000000000D+00  1.8117926590477D-03 -4.1521245034278D-03
   152  1.5100000000000D+00  1.4295623850628D-03 -3.0760703567897D-03
   153  1.5200000000000D+00  1.1023862285257D-03 -2.2353519088147D-03
   154  1.5300000000000D+00  8.3035326685891D-04 -1.5980358770352D-03
   155  1.5400000000000D+00  6.1202541033590D-04 -1.1326283860068D-03
   156  1.5500000000000D+00  4.4457244585403D-04 -8.0885568230613D-04
   157  1.5600000000000D+00  3.2381866129750D-04 -5.9817981241192D-04
   158  1.5700000000000D+00  2.4198837528011D-04 -4.6898646921763D-04
   159  1.5800000000000D+00  1.9395110902904D-04 -4.0116609108958D-04
   160  1.5900000000000D+00  1.8496538410139D-04 -4.0316835894352D-04
   161  1.6000000000000D+00  1.8740794281297D-04 -4.1631803203790D-04
   162  1.6100000000000D+00  1.3413146779600D-04 -2.9881938861679D-04
   163  1.6200000000000D+00  3.6027316710029D-05 -8.0264929534695D-05
   164  1.6300000000000D+00 -1.6765336028696D-05  3.7460070069374D-05
   165  1.6400000000000D+00 -8.8399437453621D-06  1.9758111239276D-05
   166  1.6500000000000D+00  3.6872464078758D-06 -8.2435666335449D-06
   167  1.6600000000000D+00  2.0154408717137D-06 -4.5072380035434D-06
   168  1.6700000000000D+00 -4.3763560593782D-07  9.7399152436695D-07
   169  1.6800000000000D+00 -2.4546822775521D-07  5.4630832156039D-07
   170  1.6900000000000D+00  0.0000000000000D+00  0.0000000000000D+00
   171  1.7000000000000D+00  0.0000000000000D+00  0.0000000000000D+00
   172  1.7100000000000D+00  0.0000000000000D+00  0.0000000000000D+00
   173  1.7200000000000D+00  0.0000000000000D+00  0.0000000000000D+00
   174  1.7300000000000D+00  0.0000000000000D+00  0.0000000000000D+00
   175  1.7400000000000D+00  0.0000000000000D+00  0.0000000000000D+00
   176  1.7500000000000D+00  0.0000000000000D+00  0.0000000000000D+00
   177  1.7600000000000D+00  0.0000000000000D+00  0.0000000000000D+00
   178  1.7700000000000D+00  0.0000000000000D+00  0.0000000000000D+00
   179  1.7800000000000D+00  0.0000000000000D+00  0.0000000000000D+00
   180  1.7900000000000D+00  0.0000000000000D+00  0.0000000000000D+00
   181  1.8000000000000D+00  0.0000000000000D+00  0.0000000000000D+00
   182  1.8100000000000D+00  0.0000000000000D+00  0.0000000000000D+00
   183  1.8200000000000D+00  0.0000000000000D+00  0.0000000000000D+00
   184  1.8300000000000D+00  0.0000000000000D+00  0.0000000000000D+00
   185  1.8400000000000D+00  0.0000000000000D+00  0.0000000000000D+00
   186  1.8500000000000D+00  0.0000000000000D+00  0.0000000000000D+00
   187  1.8600000000000D+00  0.0000000000000D+00  0.0000000000000D+00
   188  1.8700000000000D+00  0.0000000000000D+00  0.0000000000000D+00
   189  1.8800000000000D+00  0.0000000000000D+00  0.0000000000000D+00
   190  1.8900000000000D+00  0.0000000000000D+00  0.0000000000000D+00
   191  1.9000000000000D+00  0.0000000000000D+00  0.0000000000000D+00
   192  1.9100000000000D+00  0.0000000000000D+00  0.0000000000000D+00
   193  1.9200000000000D+00  0.0000000000000D+00  0.0000000000000D+00
   194  1.9300000000000D+00  0.0000000000000D+00  0.0000000000000D+00
   195  1.9400000000000D+00  0.0000000000000D+00  0.0000000000000D+00
   196  1.9500000000000D+00  0.0000000000000D+00  0.0000000000000D+00
   197  1.9600000000000D+00  0.0000000000000D+00  0.0000000000000D+00
   198  1.9700000000000D+00  0.0000000000000D+00  0.0000000000000D+00
   199  1.9800000000000D+00  0.0000000000000D+00  0.0000000000000D+00
   200  1.9900000000000D+00  0.0000000000000D+00  0.0000000000000D+00
   201  2.0000000000000D+00  0.0000000000000D+00  0.0000000000000D+00
   202  2.0100000000000D+00  0.0000000000000D+00  0.0000000000000D+00
   203  2.0200000000000D+00  0.0000000000000D+00  0.0000000000000D+00
   204  2.0300000000000D+00  0.0000000000000D+00  0.0000000000000D+00
   205  2.0400000000000D+00  0.0000000000000D+00  0.0000000000000D+00
   206  2.0500000000000D+00  0.0000000000000D+00  0.0000000000000D+00
   207  2.0600000000000D+00  0.0000000000000D+00  0.0000000000000D+00
   208  2.0700000000000D+00  0.0000000000000D+00  0.0000000000000D+00
   209  2.0800000000000D+00  0.0000000000000D+00  0.0000000000000D+00
   210  2.0900000000000D+00  0.0000000000000D+00  0.0000000000000D+00
   211  2.1000000000000D+00  0.0000000000000D+00  0.0000000000000D+00
   212  2.1100000000000D+00  0.0000000000000D+00  0.0000000000000D+00
   213  2.1200000000000D+00  0.0000000000000D+00  0.0000000000000D+00
   214  2.1300000000000D+00  0.0000000000000D+00  0.0000000000000D+00
   215  2.1400000000000D+00  0.0000000000000D+00  0.0000000000000D+00
   216  2.1500000000000D+00  0.0000000000000D+00  0.0000000000000D+00
   217  2.1600000000000D+00  0.0000000000000D+00  0.0000000000000D+00
   218  2.1700000000000D+00  0.0000000000000D+00  0.0000000000000D+00
   219  2.1800000000000D+00  0.0000000000000D+00  0.0000000000000D+00
   220  2.1900000000000D+00  0.0000000000000D+00  0.0000000000000D+00
   221  2.2000000000000D+00  0.0000000000000D+00  0.0000000000000D+00
   222  2.2100000000000D+00  0.0000000000000D+00  0.0000000000000D+00
   223  2.2200000000000D+00  0.0000000000000D+00  0.0000000000000D+00
   224  2.2300000000000D+00  0.0000000000000D+00  0.0000000000000D+00
   225  2.2400000000000D+00  0.0000000000000D+00  0.0000000000000D+00
   226  2.2500000000000D+00  0.0000000000000D+00  0.0000000000000D+00
   227  2.2600000000000D+00  0.0000000000000D+00  0.0000000000000D+00
   228  2.2700000000000D+00  0.0000000000000D+00  0.0000000000000D+00
   229  2.2800000000000D+00  0.0000000000000D+00  0.0000000000000D+00
   230  2.2900000000000D+00  0.0000000000000D+00  0.0000000000000D+00
   231  2.3000000000000D+00  0.0000000000000D+00  0.0000000000000D+00
   232  2.3100000000000D+00  0.0000000000000D+00  0.0000000000000D+00
   233  2.3200000000000D+00  0.0000000000000D+00  0.0000000000000D+00
   234  2.3300000000000D+00  0.0000000000000D+00  0.0000000000000D+00
   235  2.3400000000000D+00  0.0000000000000D+00  0.0000000000000D+00
   236  2.3500000000000D+00  0.0000000000000D+00  0.0000000000000D+00
   237  2.3600000000000D+00  0.0000000000000D+00  0.0000000000000D+00
   238  2.3700000000000D+00  0.0000000000000D+00  0.0000000000000D+00
   239  2.3800000000000D+00  0.0000000000000D+00  0.0000000000000D+00
   240  2.3900000000000D+00  0.0000000000000D+00  0.0000000000000D+00
   241  2.4000000000000D+00  0.0000000000000D+00  0.0000000000000D+00
   242  2.4100000000000D+00  0.0000000000000D+00  0.0000000000000D+00
   243  2.4200000000000D+00  0.0000000000000D+00  0.0000000000000D+00
   244  2.4300000000000D+00  0.0000000000000D+00  0.0000000000000D+00
   245  2.4400000000000D+00  0.0000000000000D+00  0.0000000000000D+00
   246  2.4500000000000D+00  0.0000000000000D+00  0.0000000000000D+00
   247  2.4600000000000D+00  0.0000000000000D+00  0.0000000000000D+00
   248  2.4700000000000D+00  0.0000000000000D+00  0.0000000000000D+00
   249  2.4800000000000D+00  0.0000000000000D+00  0.0000000000000D+00
   250  2.4900000000000D+00  0.0000000000000D+00  0.0000000000000D+00
   251  2.5000000000000D+00  0.0000000000000D+00  0.0000000000000D+00
   252  2.5100000000000D+00  0.0000000000000D+00  0.0000000000000D+00
   253  2.5200000000000D+00  0.0000000000000D+00  0.0000000000000D+00
   254  2.5300000000000D+00  0.0000000000000D+00  0.0000000000000D+00
   255  2.5400000000000D+00  0.0000000000000D+00  0.0000000000000D+00
   256  2.5500000000000D+00  0.0000000000000D+00  0.0000000000000D+00
   257  2.5600000000000D+00  0.0000000000000D+00  0.0000000000000D+00
   258  2.5700000000000D+00  0.0000000000000D+00  0.0000000000000D+00
   259  2.5800000000000D+00  0.0000000000000D+00  0.0000000000000D+00
   260  2.5900000000000D+00  0.0000000000000D+00  0.0000000000000D+00
   261  2.6000000000000D+00  0.0000000000000D+00  0.0000000000000D+00
   262  2.6100000000000D+00  0.0000000000000D+00  0.0000000000000D+00
   263  2.6200000000000D+00  0.0000000000000D+00  0.0000000000000D+00
   264  2.6300000000000D+00  0.0000000000000D+00  0.0000000000000D+00
   265  2.6400000000000D+00  0.0000000000000D+00  0.0000000000000D+00
   266  2.6500000000000D+00  0.0000000000000D+00  0.0000000000000D+00
   267  2.6600000000000D+00  0.0000000000000D+00  0.0000000000000D+00
   268  2.6700000000000D+00  0.0000000000000D+00  0.0000000000000D+00
   269  2.6800000000000D+00  0.0000000000000D+00  0.0000000000000D+00
   270  2.6900000000000D+00  0.0000000000000D+00  0.0000000000000D+00
   271  2.7000000000000D+00  0.0000000000000D+00  0.0000000000000D+00
   272  2.7100000000000D+00  0.0000000000000D+00  0.0000000000000D+00
   273  2.7200000000000D+00  0.0000000000000D+00  0.0000000000000D+00
   274  2.7300000000000D+00  0.0000000000000D+00  0.0000000000000D+00
   275  2.7400000000000D+00  0.0000000000000D+00  0.0000000000000D+00
   276  2.7500000000000D+00  0.0000000000000D+00  0.0000000000000D+00
   277  2.7600000000000D+00  0.0000000000000D+00  0.0000000000000D+00
   278  2.7700000000000D+00  0.0000000000000D+00  0.0000000000000D+00
   279  2.7800000000000D+00  0.0000000000000D+00  0.0000000000000D+00
   280  2.7900000000000D+00  0.0000000000000D+00  0.0000000000000D+00
   281  2.8000000000000D+00  0.0000000000000D+00  0.0000000000000D+00
   282  2.8100000000000D+00  0.0000000000000D+00  0.0000000000000D+00
   283  2.8200000000000D+00  0.0000000000000D+00  0.0000000000000D+00
   284  2.8300000000000D+00  0.0000000000000D+00  0.0000000000000D+00
   285  2.8400000000000D+00  0.0000000000000D+00  0.0000000000000D+00
   286  2.8500000000000D+00  0.0000000000000D+00  0.0000000000000D+00
   287  2.8600000000000D+00  0.0000000000000D+00  0.0000000000000D+00
   288  2.8700000000000D+00  0.0000000000000D+00  0.0000000000000D+00
   289  2.8800000000000D+00  0.0000000000000D+00  0.0000000000000D+00
   290  2.8900000000000D+00  0.0000000000000D+00  0.0000000000000D+00
   291  2.9000000000000D+00  0.0000000000000D+00  0.0000000000000D+00
   292  2.9100000000000D+00  0.0000000000000D+00  0.0000000000000D+00
   293  2.9200000000000D+00  0.0000000000000D+00  0.0000000000000D+00
   294  2.9300000000000D+00  0.0000000000000D+00  0.0000000000000D+00
   295  2.9400000000000D+00  0.0000000000000D+00  0.0000000000000D+00
   296  2.9500000000000D+00  0.0000000000000D+00  0.0000000000000D+00
   297  2.9600000000000D+00  0.0000000000000D+00  0.0000000000000D+00
   298  2.9700000000000D+00  0.0000000000000D+00  0.0000000000000D+00
   299  2.9800000000000D+00  0.0000000000000D+00  0.0000000000000D+00
   300  2.9900000000000D+00  0.0000000000000D+00  0.0000000000000D+00
   301  3.0000000000000D+00  0.0000000000000D+00  0.0000000000000D+00
   302  3.0100000000000D+00  0.0000000000000D+00  0.0000000000000D+00
   303  3.0200000000000D+00  0.0000000000000D+00  0.0000000000000D+00
   304  3.0300000000000D+00  0.0000000000000D+00  0.0000000000000D+00
   305  3.0400000000000D+00  0.0000000000000D+00  0.0000000000000D+00
   306  3.0500000000000D+00  0.0000000000000D+00  0.0000000000000D+00
   307  3.0600000000000D+00  0.0000000000000D+00  0.0000000000000D+00
   308  3.0700000000000D+00  0.0000000000000D+00  0.0000000000000D+00
   309  3.0800000000000D+00  0.0000000000000D+00  0.0000000000000D+00
   310  3.0900000000000D+00  0.0000000000000D+00  0.0000000000000D+00
   311  3.1000000000000D+00  0.0000000000000D+00  0.0000000000000D+00
   312  3.1100000000000D+00  0.0000000000000D+00  0.0000000000000D+00
   313  3.1200000000000D+00  0.0000000000000D+00  0.0000000000000D+00
   314  3.1300000000000D+00  0.0000000000000D+00  0.0000000000000D+00
   315  3.1400000000000D+00  0.0000000000000D+00  0.0000000000000D+00
   316  3.1500000000000D+00  0.0000000000000D+00  0.0000000000000D+00
   317  3.1600000000000D+00  0.0000000000000D+00  0.0000000000000D+00
   318  3.1700000000000D+00  0.0000000000000D+00  0.0000000000000D+00
   319  3.1800000000000D+00  0.0000000000000D+00  0.0000000000000D+00
   320  3.1900000000000D+00  0.0000000000000D+00  0.0000000000000D+00
   321  3.2000000000000D+00  0.0000000000000D+00  0.0000000000000D+00
   322  3.2100000000000D+00  0.0000000000000D+00  0.0000000000000D+00
   323  3.2200000000000D+00  0.0000000000000D+00  0.0000000000000D+00
   324  3.2300000000000D+00  0.0000000000000D+00  0.0000000000000D+00
   325  3.2400000000000D+00  0.0000000000000D+00  0.0000000000000D+00
   326  3.2500000000000D+00  0.0000000000000D+00  0.0000000000000D+00
   327  3.2600000000000D+00  0.0000000000000D+00  0.0000000000000D+00
   328  3.2700000000000D+00  0.0000000000000D+00  0.0000000000000D+00
   329  3.2800000000000D+00  0.0000000000000D+00  0.0000000000000D+00
   330  3.2900000000000D+00  0.0000000000000D+00  0.0000000000000D+00
   331  3.3000000000000D+00  0.0000000000000D+00  0.0000000000000D+00
   332  3.3100000000000D+00  0.0000000000000D+00  0.0000000000000D+00
   333  3.3200000000000D+00  0.0000000000000D+00  0.0000000000000D+00
   334  3.3300000000000D+00  0.0000000000000D+00  0.0000000000000D+00
   335  3.3400000000000D+00  0.0000000000000D+00  0.0000000000000D+00
   336  3.3500000000000D+00  0.0000000000000D+00  0.0000000000000D+00
   337  3.3600000000000D+00  0.0000000000000D+00  0.0000000000000D+00
   338  3.3700000000000D+00  0.0000000000000D+00  0.0000000000000D+00
   339  3.3800000000000D+00  0.0000000000000D+00  0.0000000000000D+00
   340  3.3900000000000D+00  0.0000000000000D+00  0.0000000000000D+00
   341  3.4000000000000D+00  0.0000000000000D+00  0.0000000000000D+00
   342  3.4100000000000D+00  0.0000000000000D+00  0.0000000000000D+00
   343  3.4200000000000D+00  0.0000000000000D+00  0.0000000000000D+00
   344  3.4300000000000D+00  0.0000000000000D+00  0.0000000000000D+00
   345  3.4400000000000D+00  0.0000000000000D+00  0.0000000000000D+00
   346  3.4500000000000D+00  0.0000000000000D+00  0.0000000000000D+00
   347  3.4600000000000D+00  0.0000000000000D+00  0.0000000000000D+00
   348  3.4700000000000D+00  0.0000000000000D+00  0.0000000000000D+00
   349  3.4800000000000D+00  0.0000000000000D+00  0.0000000000000D+00
   350  3.4900000000000D+00  0.0000000000000D+00  0.0000000000000D+00
   351  3.5000000000000D+00  0.0000000000000D+00  0.0000000000000D+00
   352  3.5100000000000D+00  0.0000000000000D+00  0.0000000000000D+00
   353  3.5200000000000D+00  0.0000000000000D+00  0.0000000000000D+00
   354  3.5300000000000D+00  0.0000000000000D+00  0.0000000000000D+00
   355  3.5400000000000D+00  0.0000000000000D+00  0.0000000000000D+00
   356  3.5500000000000D+00  0.0000000000000D+00  0.0000000000000D+00
   357  3.5600000000000D+00  0.0000000000000D+00  0.0000000000000D+00
   358  3.5700000000000D+00  0.0000000000000D+00  0.0000000000000D+00
   359  3.5800000000000D+00  0.0000000000000D+00  0.0000000000000D+00
   360  3.5900000000000D+00  0.0000000000000D+00  0.0000000000000D+00
   361  3.6000000000000D+00  0.0000000000000D+00  0.0000000000000D+00
   362  3.6100000000000D+00  0.0000000000000D+00  0.0000000000000D+00
   363  3.6200000000000D+00  0.0000000000000D+00  0.0000000000000D+00
   364  3.6300000000000D+00  0.0000000000000D+00  0.0000000000000D+00
   365  3.6400000000000D+00  0.0000000000000D+00  0.0000000000000D+00
   366  3.6500000000000D+00  0.0000000000000D+00  0.0000000000000D+00
   367  3.6600000000000D+00  0.0000000000000D+00  0.0000000000000D+00
   368  3.6700000000000D+00  0.0000000000000D+00  0.0000000000000D+00
   369  3.6800000000000D+00  0.0000000000000D+00  0.0000000000000D+00
   370  3.6900000000000D+00  0.0000000000000D+00  0.0000000000000D+00
   371  3.7000000000000D+00  0.0000000000000D+00  0.0000000000000D+00
   372  3.7100000000000D+00  0.0000000000000D+00  0.0000000000000D+00
   373  3.7200000000000D+00  0.0000000000000D+00  0.0000000000000D+00
   374  3.7300000000000D+00  0.0000000000000D+00  0.0000000000000D+00
   375  3.7400000000000D+00  0.0000000000000D+00  0.0000000000000D+00
   376  3.7500000000000D+00  0.0000000000000D+00  0.0000000000000D+00
   377  3.7600000000000D+00  0.0000000000000D+00  0.0000000000000D+00
   378  3.7700000000000D+00  0.0000000000000D+00  0.0000000000000D+00
   379  3.7800000000000D+00  0.0000000000000D+00  0.0000000000000D+00
   380  3.7900000000000D+00  0.0000000000000D+00  0.0000000000000D+00
   381  3.8000000000000D+00  0.0000000000000D+00  0.0000000000000D+00
   382  3.8100000000000D+00  0.0000000000000D+00  0.0000000000000D+00
   383  3.8200000000000D+00  0.0000000000000D+00  0.0000000000000D+00
   384  3.8300000000000D+00  0.0000000000000D+00  0.0000000000000D+00
   385  3.8400000000000D+00  0.0000000000000D+00  0.0000000000000D+00
   386  3.8500000000000D+00  0.0000000000000D+00  0.0000000000000D+00
   387  3.8600000000000D+00  0.0000000000000D+00  0.0000000000000D+00
   388  3.8700000000000D+00  0.0000000000000D+00  0.0000000000000D+00
   389  3.8800000000000D+00  0.0000000000000D+00  0.0000000000000D+00
   390  3.8900000000000D+00  0.0000000000000D+00  0.0000000000000D+00
   391  3.9000000000000D+00  0.0000000000000D+00  0.0000000000000D+00
   392  3.9100000000000D+00  0.0000000000000D+00  0.0000000000000D+00
   393  3.9200000000000D+00  0.0000000000000D+00  0.0000000000000D+00
   394  3.9300000000000D+00  0.0000000000000D+00  0.0000000000000D+00
   395  3.9400000000000D+00  0.0000000000000D+00  0.0000000000000D+00
   396  3.9500000000000D+00  0.0000000000000D+00  0.0000000000000D+00
   397  3.9600000000000D+00  0.0000000000000D+00  0.0000000000000D+00
   398  3.9700000000000D+00  0.0000000000000D+00  0.0000000000000D+00
   399  3.9800000000000D+00  0.0000000000000D+00  0.0000000000000D+00
   400  3.9900000000000D+00  0.0000000000000D+00  0.0000000000000D+00
   401  4.0000000000000D+00  0.0000000000000D+00  0.0000000000000D+00
   402  4.0100000000000D+00  0.0000000000000D+00  0.0000000000000D+00
   403  4.0200000000000D+00  0.0000000000000D+00  0.0000000000000D+00
   404  4.0300000000000D+00  0.0000000000000D+00  0.0000000000000D+00
   405  4.0400000000000D+00  0.0000000000000D+00  0.0000000000000D+00
   406  4.0500000000000D+00  0.0000000000000D+00  0.0000000000000D+00
   407  4.0600000000000D+00  0.0000000000000D+00  0.0000000000000D+00
   408  4.0700000000000D+00  0.0000000000000D+00  0.0000000000000D+00
   409  4.0800000000000D+00  0.0000000000000D+00  0.0000000000000D+00
   410  4.0900000000000D+00  0.0000000000000D+00  0.0000000000000D+00
   411  4.1000000000000D+00  0.0000000000000D+00  0.0000000000000D+00
   412  4.1100000000000D+00  0.0000000000000D+00  0.0000000000000D+00
   413  4.1200000000000D+00  0.0000000000000D+00  0.0000000000000D+00
   414  4.1300000000000D+00  0.0000000000000D+00  0.0000000000000D+00
   415  4.1400000000000D+00  0.0000000000000D+00  0.0000000000000D+00
   416  4.1500000000000D+00  0.0000000000000D+00  0.0000000000000D+00
   417  4.1600000000000D+00  0.0000000000000D+00  0.0000000000000D+00
   418  4.1700000000000D+00  0.0000000000000D+00  0.0000000000000D+00
   419  4.1800000000000D+00  0.0000000000000D+00  0.0000000000000D+00
   420  4.1900000000000D+00  0.0000000000000D+00  0.0000000000000D+00
   421  4.2000000000000D+00  0.0000000000000D+00  0.0000000000000D+00
   422  4.2100000000000D+00  0.0000000000000D+00  0.0000000000000D+00
   423  4.2200000000000D+00  0.0000000000000D+00  0.0000000000000D+00