N     ONCVPSP-3.3.1  r_core=   1.60510   1.53031
      7.0000      5.0000      210905    zatom,zion,pspd
     8 -116133   1     4   600     0    pspcod,pspxc,lmax,lloc,mmax,r2well
  5.99000000  0.00000000  0.00000000    rchrg fchrg qchrg
     2     2     0     0    nproj
     3     1           extension_switch
     3     0     0    nprojso
   0                         1.0038653296777D+00  7.1433585406440D+00
     1  0.0000000000000D+00 -1.9714796462011D-10  4.3746783973120D-11
     2  1.0000000000000D-02 -3.8175010348726D-02  8.6808935031015D-02
     3  2.0000000000000D-02 -7.6125283525197D-02  1.7338956497361D-01
     4  3.0000000000000D-02 -1.1362683151281D-01  2.5951426289963D-01
     5  4.0000000000000D-02 -1.5045716515519D-01  3.4495675697233D-01
     6  5.0000000000000D-02 -1.8639604490741D-01  4.2949280490796D-01
     7  6.0000000000000D-02 -2.2122623302971D-01  5.1290086470427D-01
     8  7.0000000000000D-02 -2.5473424746913D-01  5.9496276033895D-01
     9  8.0000000000000D-02 -2.8671111747719D-01  6.7546434109736D-01
    10  9.0000000000000D-02 -3.1695314077118D-01  7.5419613313567D-01
    11  1.0000000000000D-01 -3.4526264176656D-01  8.3095398182489D-01
    12  1.1000000000000D-01 -3.7144873009234D-01  9.0553968335304D-01
    13  1.2000000000000D-01 -3.9532805825596D-01  9.7776160399011D-01
    14  1.3000000000000D-01 -4.1672557695405D-01  1.0474352853432D+00
    15  1.4000000000000D-01 -4.3547528613690D-01  1.1143840338511D+00
    16  1.5000000000000D-01 -4.5142097953382D-01  1.1784394926885D+00
    17  1.6000000000000D-01 -4.6441697994086D-01  1.2394421941746D+00
    18  1.7000000000000D-01 -4.7432886216809D-01  1.2972420907058D+00
    19  1.8000000000000D-01 -4.8103416014845D-01  1.3516990621695D+00
    20  1.9000000000000D-01 -4.8442305433095D-01  1.4026833977336D+00
    21  2.0000000000000D-01 -4.8439903512478D-01  1.4500762498616D+00
    22  2.1000000000000D-01 -4.8087953783527D-01  1.4937700583650D+00
    23  2.2000000000000D-01 -4.7379654424330D-01  1.5336689422841D+00
    24  2.3000000000000D-01 -4.6309714573418D-01  1.5696890573814D+00
    25  2.4000000000000D-01 -4.4874406268588D-01  1.6017589170444D+00
    26  2.5000000000000D-01 -4.3071611468472D-01  1.6298196744240D+00
    27  2.6000000000000D-01 -4.0900863605526D-01  1.6538253636872D+00
    28  2.7000000000000D-01 -3.8363383117352D-01  1.6737430983323D+00
    29  2.8000000000000D-01 -3.5462106408253D-01  1.6895532246131D+00
    30  2.9000000000000D-01 -3.2201707705044D-01  1.7012494282333D+00
    31  3.0000000000000D-01 -2.8588613290376D-01  1.7088387926136D+00
    32  3.1000000000000D-01 -2.4631007623516D-01  1.7123418071987D+00
    33  3.2000000000000D-01 -2.0338830892559D-01  1.7117923244588D+00
    34  3.3000000000000D-01 -1.5723767583326D-01  1.7072374644481D+00
    35  3.4000000000000D-01 -1.0799225698658D-01  1.6987374660169D+00
    36  3.5000000000000D-01 -5.5803063171296D-02  1.6863654840239D+00
    37  3.6000000000000D-01 -8.3763241955776D-04  1.6702073321693D+00
    38  3.7000000000000D-01  5.6720474412106D-02  1.6503611713564D+00
    39  3.8000000000000D-01  1.1667228005584D-01  1.6269371437958D+00
    40  3.9000000000000D-01  1.7880409953310D-01  1.6000569533857D+00
    41  4.0000000000000D-01  2.4288835061488D-01  1.5698533932294D+00
    42  4.1000000000000D-01  3.0868446465425D-01  1.5364698214925D+00
    43  4.2000000000000D-01  3.7593989551801D-01  1.5000595871445D+00
    44  4.3000000000000D-01  4.4439122344257D-01  1.4607854074763D+00
    45  4.4000000000000D-01  5.1376534972743D-01  1.4188186996345D+00
    46  4.5000000000000D-01  5.8378077727181D-01  1.3743388687519D+00
    47  4.6000000000000D-01  6.5414897106193D-01  1.3275325555944D+00
    48  4.7000000000000D-01  7.2457579184179D-01  1.2785928469660D+00
    49  4.8000000000000D-01  7.9476299535592D-01  1.2277184524308D+00
    50  4.9000000000000D-01  8.6440978875155D-01  1.1751128512007D+00
    51  5.0000000000000D-01  9.3321443497699D-01  1.1209834133190D+00
    52  5.1000000000000D-01  1.0008758953244D+00  1.0655404995171D+00
    53  5.2000000000000D-01  1.0670954996462D+00  1.0089965443516D+00
    54  5.3000000000000D-01  1.1315786332347D+00  9.5156512742492D-01
    55  5.4000000000000D-01  1.1940364288995D+00  8.9346003765808D-01
    56  5.5000000000000D-01  1.2541874524195D+00  8.3489433571768D-01
    57  5.6000000000000D-01  1.3117593692821D+00  7.7607941979559D-01
    58  5.7000000000000D-01  1.3664905804716D+00  7.1722409999832D-01
    59  5.8000000000000D-01  1.4181318150155D+00  6.5853368662446D-01
    60  5.9000000000000D-01  1.4664476670698D+00  6.0020909758863D-01
    61  6.0000000000000D-01  1.5112180654974D+00  5.4244599019118D-01
    62  6.1000000000000D-01  1.5522396641916D+00  4.8543392233212D-01
    63  6.2000000000000D-01  1.5893271418023D+00  4.2935554812769D-01
    64  6.3000000000000D-01  1.6223144000442D+00  3.7438585270622D-01
    65  6.4000000000000D-01  1.6510556503926D+00  3.2069143074149D-01
    66  6.5000000000000D-01  1.6754263797084D+00  2.6842981302388D-01
    67  6.6000000000000D-01  1.6953241861670D+00  2.1774884507628D-01
    68  6.7000000000000D-01  1.7106694777868D+00  1.6878612149636D-01
    69  6.8000000000000D-01  1.7214060268683D+00  1.2166847934757D-01
    70  6.9000000000000D-01  1.7275013747335D+00  7.6511553536094D-02
    71  7.0000000000000D-01  1.7289470823132D+00  3.3419396698722D-02
    72  7.1000000000000D-01  1.7257588233246D+00 -7.5158343040131D-03
    73  7.2000000000000D-01  1.7179763180391D+00 -4.6214123648582D-02
    74  7.3000000000000D-01  1.7056631069163D+00 -8.2607772385085D-02
    75  7.4000000000000D-01  1.6889061646730D+00 -1.1664150414665D-01
    76  7.5000000000000D-01  1.6678153566652D+00 -1.4827250050935D-01
    77  7.6000000000000D-01  1.6425227407489D+00 -1.7747036626014D-01
    78  7.7000000000000D-01  1.6131817190588D+00 -2.0421702530984D-01
    79  7.8000000000000D-01  1.5799660453836D+00 -2.2850654845838D-01
    80  7.9000000000000D-01  1.5430686950002D+00 -2.5034491467747D-01
    81  8.0000000000000D-01  1.5027006049578D+00 -2.6974970801878D-01
    82  8.1000000000000D-01  1.4590892938574D+00 -2.8674975267705D-01
    83  8.2000000000000D-01  1.4124773711371D+00 -3.0138468913570D-01
    84  8.3000000000000D-01  1.3631209467499D+00 -3.1370449469153D-01
    85  8.4000000000000D-01  1.3112879528828D+00 -3.2376895199334D-01
    86  8.5000000000000D-01  1.2572563900216D+00 -3.3164706953272D-01
    87  8.6000000000000D-01  1.2013125101927D+00 -3.3741645829106D-01
    88  8.7000000000000D-01  1.1437489506172D+00 -3.4116266897333D-01
    89  8.8000000000000D-01  1.0848628312783D+00 -3.4297849444302D-01
    90  8.9000000000000D-01  1.0249538300367D+00 -3.4296324211412D-01
    91  9.0000000000000D-01  9.6432224891925D-01 -3.4122198115216D-01
    92  9.1000000000000D-01  9.0326708506123D-01 -3.3786476938771D-01
    93  9.2000000000000D-01  8.4208411949863D-01 -3.3300586485198D-01
    94  9.3000000000000D-01  7.8106403658575D-01 -3.2676292680501D-01
    95  9.4000000000000D-01  7.2049058626450D-01 -3.1925621104392D-01
    96  9.5000000000000D-01  6.6063880073604D-01 -3.1060776415264D-01
    97  9.6000000000000D-01  6.0177327629407D-01 -3.0094062118786D-01
    98  9.7000000000000D-01  5.4414653016451D-01 -2.9037801108657D-01
    99  9.8000000000000D-01  4.8799744121974D-01 -2.7904257384407D-01
   100  9.9000000000000D-01  4.3354978232111D-01 -2.6705559322916D-01
   101  1.0000000000000D+00  3.8101085088679D-01 -2.5453624849905D-01
   102  1.0100000000000D+00  3.3057020305577D-01 -2.4160088824415D-01
   103  1.0200000000000D+00  2.8239849553857D-01 -2.2836232913677D-01
   104  1.0300000000000D+00  2.3664643793959D-01 -2.1492918198604D-01
   105  1.0400000000000D+00  1.9344385696164D-01 -2.0140520709936D-01
   106  1.0500000000000D+00  1.5289887268437D-01 -1.8788870058928D-01
   107  1.0600000000000D+00  1.1509718562977D-01 -1.7447191281473D-01
   108  1.0700000000000D+00  8.0101472143262D-02 -1.6124049977620D-01
   109  1.0800000000000D+00  4.7950884331877D-02 -1.4827300787653D-01
   110  1.0900000000000D+00  1.8660645809718D-02 -1.3564039112239D-01
   111  1.1000000000000D+00 -7.7782569682898D-03 -1.2340556164332D-01
   112  1.1100000000000D+00 -3.1399206267459D-02 -1.1162299632823D-01
   113  1.1200000000000D+00 -5.2260323965997D-02 -1.0033829288107D-01
   114  1.1300000000000D+00 -7.0444330515315D-02 -8.9587869640058D-02
   115  1.1400000000000D+00 -8.6053326090461D-02 -7.9399938827587D-02
   116  1.1500000000000D+00 -9.9202629065298D-02 -6.9795847911567D-02
   117  1.1600000000000D+00 -1.1001673663758D-01 -6.0790987521856D-02
   118  1.1700000000000D+00 -1.1862876435175D-01 -5.2394893664346D-02
   119  1.1800000000000D+00 -1.2517879824892D-01 -4.4611628227570D-02
   120  1.1900000000000D+00 -1.2981251592377D-01 -3.7440118635557D-02
   121  1.2000000000000D+00 -1.3267974653880D-01 -3.0874532474117D-02
   122  1.2100000000000D+00 -1.3393305907420D-01 -2.4904665199766D-02
   123  1.2200000000000D+00 -1.3372637345349D-01 -1.9516341221462D-02
   124  1.2300000000000D+00 -1.3221361012703D-01 -1.4691823565555D-02
   125  1.2400000000000D+00 -1.2954739013628D-01 -1.0410228141151D-02
   126  1.2500000000000D+00 -1.2587779759116D-01 -6.6479386115720D-03
   127  1.2600000000000D+00 -1.2135121486473D-01 -3.3790181877174D-03
   128  1.2700000000000D+00 -1.1610923997344D-01 -5.7561485899076D-04
   129  1.2800000000000D+00 -1.1028769538745D-01  1.7916433952740D-03
   130  1.2900000000000D+00 -1.0401573534375D-01  3.7532663841664D-03
   131  1.3000000000000D+00 -9.7415057599449D-02  5.3405351541993D-03
   132  1.3100000000000D+00 -9.0599225709407D-02  6.5851538446413D-03
   133  1.3200000000000D+00 -8.3673104758111D-02  7.5189219144434D-03
   134  1.3300000000000D+00 -7.6732412801311D-02  8.1734285137296D-03
   135  1.3400000000000D+00 -6.9863390419373D-02  8.5797708339091D-03
   136  1.3500000000000D+00 -6.3142586719131D-02  8.7682972129346D-03
   137  1.3600000000000D+00 -5.6636760971526D-02  8.7683759784207D-03
   138  1.3700000000000D+00 -5.0402897667570D-02  8.6081906642914D-03
   139  1.3800000000000D+00 -4.4488329556309D-02  8.3145613408684D-03
   140  1.3900000000000D+00 -3.8930965131874D-02  7.9127923260593D-03
   141  1.4000000000000D+00 -3.3759613340066D-02  7.4265455302736D-03
   142  1.4100000000000D+00 -2.8994398069500D-02  6.8777385839405D-03
   143  1.4200000000000D+00 -2.4647255486201D-02  6.2864670896758D-03
   144  1.4300000000000D+00 -2.0722503490583D-02  5.6709491743146D-03
   145  1.4400000000000D+00 -1.7217475132753D-02  5.0474912977142D-03
   146  1.4500000000000D+00 -1.4123204707150D-02  4.4304733272865D-03
   147  1.4600000000000D+00 -1.1425156163754D-02  3.8323510709805D-03
   148  1.4700000000000D+00 -9.1039827573787D-03  3.2636743776972D-03
   149  1.4800000000000D+00 -7.1363065379372D-03  2.7331185087506D-03
   150  1.4900000000000D+00 -5.4955063592077D-03  2.2475268075045D-03
   151  1.5000000000000D+00 -4.1525031568547D-03  1.8119623081670D-03
   152  1.5100000000000D+00 -3.0765315568797D-03  1.4297662206445D-03
   153  1.5200000000000D+00 -2.2358864188780D-03  1.1026209394004D-03
   154  1.5300000000000D+00 -1.5986355633980D-03  8.3061578431398D-04
   155  1.5400000000000D+00 -1.1332861768725D-03  6.1231292690816D-04
   156  1.5500000000000D+00 -8.0956593794576D-04  4.4488261245186D-04
   157  1.5600000000000D+00 -5.9893859413781D-04  3.2414974111946D-04
   158  1.5700000000000D+00 -4.6977837853615D-04  2.4233359713988D-04
   159  1.5800000000000D+00 -4.0198699299531D-04  1.9430852071358D-04
   160  1.5900000000000D+00 -4.0408908837026D-04  1.8536541414904D-04
   161  1.6000000000000D+00 -4.1731005752143D-04  1.8783811930773D-04
   162  1.6100000000000D+00 -2.9953966875032D-04  1.3444349400423D-04
   163  1.6200000000000D+00 -8.0458969942630D-05  3.6111337651907D-05
   164  1.6300000000000D+00  3.7550821169034D-05 -1.6804637407361D-05
   165  1.6400000000000D+00  1.9806013387374D-05 -8.8606864769275D-06
   166  1.6500000000000D+00 -8.2635559266514D-06  3.6959054443000D-06
   167  1.6600000000000D+00 -4.5181740274249D-06  2.0201780637796D-06
   168  1.6700000000000D+00  9.7633080896518D-07 -4.3864933274432D-07
   169  1.6800000000000D+00  5.4762041782667D-07 -2.4603682345274D-07
   170  1.6900000000000D+00  0.0000000000000D+00  0.0000000000000D+00
   171  1.7000000000000D+00  0.0000000000000D+00  0.0000000000000D+00
   172  1.7100000000000D+00  0.0000000000000D+00  0.0000000000000D+00
   173  1.7200000000000D+00  0.0000000000000D+00  0.0000000000000D+00
   174  1.7300000000000D+00  0.0000000000000D+00  0.0000000000000D+00
   175  1.7400000000000D+00  0.0000000000000D+00  0.0000000000000D+00
   176  1.7500000000000D+00  0.0000000000000D+00  0.0000000000000D+00
   177  1.7600000000000D+00  0.0000000000000D+00  0.0000000000000D+00
   178  1.7700000000000D+00  0.0000000000000D+00  0.0000000000000D+00
   179  1.7800000000000D+00  0.0000000000000D+00  0.0000000000000D+00
   180  1.7900000000000D+00  0.0000000000000D+00  0.0000000000000D+00
   181  1.8000000000000D+00  0.0000000000000D+00  0.0000000000000D+00
   182  1.8100000000000D+00  0.0000000000000D+00  0.0000000000000D+00
   183  1.8200000000000D+00  0.0000000000000D+00  0.0000000000000D+00
   184  1.8300000000000D+00  0.0000000000000D+00  0.0000000000000D+00
   185  1.8400000000000D+00  0.0000000000000D+00  0.0000000000000D+00
   186  1.8500000000000D+00  0.0000000000000D+00  0.0000000000000D+00
   187  1.8600000000000D+00  0.0000000000000D+00  0.0000000000000D+00
   188  1.8700000000000D+00  0.0000000000000D+00  0.0000000000000D+00
   189  1.8800000000000D+00  0.0000000000000D+00  0.0000000000000D+00
   190  1.8900000000000D+00  0.0000000000000D+00  0.0000000000000D+00
   191  1.9000000000000D+00  0.0000000000000D+00  0.0000000000000D+00
   192  1.9100000000000D+00  0.0000000000000D+00  0.0000000000000D+00
   193  1.9200000000000D+00  0.0000000000000D+00  0.0000000000000D+00
   194  1.9300000000000D+00  0.0000000000000D+00  0.0000000000000D+00
   195  1.9400000000000D+00  0.0000000000000D+00  0.0000000000000D+00
   196  1.9500000000000D+00  0.0000000000000D+00  0.0000000000000D+00
   197  1.9600000000000D+00  0.0000000000000D+00  0.0000000000000D+00
   198  1.9700000000000D+00  0.0000000000000D+00  0.0000000000000D+00
   199  1.9800000000000D+00  0.0000000000000D+00  0.0000000000000D+00
   200  1.9900000000000D+00  0.0000000000000D+00  0.0000000000000D+00
   201  2.0000000000000D+00  0.0000000000000D+00  0.0000000000000D+00
   202  2.0100000000000D+00  0.0000000000000D+00  0.0000000000000D+00
   203  2.0200000000000D+00  0.0000000000000D+00  0.0000000000000D+00
   204  2.0300000000000D+00  0.0000000000000D+00  0.0000000000000D+00
   205  2.0400000000000D+00  0.0000000000000D+00  0.0000000000000D+00
   206  2.0500000000000D+00  0.0000000000000D+00  0.0000000000000D+00
   207  2.0600000000000D+00  0.0000000000000D+00  0.0000000000000D+00
   208  2.0700000000000D+00  0.0000000000000D+00  0.0000000000000D+00
   209  2.0800000000000D+00  0.0000000000000D+00  0.0000000000000D+00
   210  2.0900000000000D+00  0.0000000000000D+00  0.0000000000000D+00
   211  2.1000000000000D+00  0.0000000000000D+00  0.0000000000000D+00
   212  2.1100000000000D+00  0.0000000000000D+00  0.0000000000000D+00
   213  2.1200000000000D+00  0.0000000000000D+00  0.0000000000000D+00
   214  2.1300000000000D+00  0.0000000000000D+00  0.0000000000000D+00
   215  2.1400000000000D+00  0.0000000000000D+00  0.0000000000000D+00
   216  2.1500000000000D+00  0.0000000000000D+00  0.0000000000000D+00
   217  2.1600000000000D+00  0.0000000000000D+00  0.0000000000000D+00
   218  2.1700000000000D+00  0.0000000000000D+00  0.0000000000000D+00
   219  2.1800000000000D+00  0.0000000000000D+00  0.0000000000000D+00
   220  2.1900000000000D+00  0.0000000000000D+00  0.0000000000000D+00
   221  2.2000000000000D+00  0.0000000000000D+00  0.0000000000000D+00
   222  2.2100000000000D+00  0.0000000000000D+00  0.0000000000000D+00
   223  2.2200000000000D+00  0.0000000000000D+00  0.0000000000000D+00
   224  2.2300000000000D+00  0.0000000000000D+00  0.0000000000000D+00
   225  2.2400000000000D+00  0.0000000000000D+00  0.0000000000000D+00
   226  2.2500000000000D+00  0.0000000000000D+00  0.0000000000000D+00
   227  2.2600000000000D+00  0.0000000000000D+00  0.0000000000000D+00
   228  2.2700000000000D+00  0.0000000000000D+00  0.0000000000000D+00
   229  2.2800000000000D+00  0.0000000000000D+00  0.0000000000000D+00
   230  2.2900000000000D+00  0.0000000000000D+00  0.0000000000000D+00
   231  2.3000000000000D+00  0.0000000000000D+00  0.0000000000000D+00
   232  2.3100000000000D+00  0.0000000000000D+00  0.0000000000000D+00
   233  2.3200000000000D+00  0.0000000000000D+00  0.0000000000000D+00
   234  2.3300000000000D+00  0.0000000000000D+00  0.0000000000000D+00
   235  2.3400000000000D+00  0.0000000000000D+00  0.0000000000000D+00
   236  2.3500000000000D+00  0.0000000000000D+00  0.0000000000000D+00
   237  2.3600000000000D+00  0.0000000000000D+00  0.0000000000000D+00
   238  2.3700000000000D+00  0.0000000000000D+00  0.0000000000000D+00
   239  2.3800000000000D+00  0.0000000000000D+00  0.0000000000000D+00
   240  2.3900000000000D+00  0.0000000000000D+00  0.0000000000000D+00
   241  2.4000000000000D+00  0.0000000000000D+00  0.0000000000000D+00
   242  2.4100000000000D+00  0.0000000000000D+00  0.0000000000000D+00
   243  2.4200000000000D+00  0.0000000000000D+00  0.0000000000000D+00
   244  2.4300000000000D+00  0.0000000000000D+00  0.0000000000000D+00
   245  2.4400000000000D+00  0.0000000000000D+00  0.0000000000000D+00
   246  2.4500000000000D+00  0.0000000000000D+00  0.0000000000000D+00
   247  2.4600000000000D+00  0.0000000000000D+00  0.0000000000000D+00
   248  2.4700000000000D+00  0.0000000000000D+00  0.0000000000000D+00
   249  2.4800000000000D+00  0.0000000000000D+00  0.0000000000000D+00
   250  2.4900000000000D+00  0.0000000000000D+00  0.0000000000000D+00
   251  2.5000000000000D+00  0.0000000000000D+00  0.0000000000000D+00
   252  2.5100000000000D+00  0.0000000000000D+00  0.0000000000000D+00
   253  2.5200000000000D+00  0.0000000000000D+00  0.0000000000000D+00
   254  2.5300000000000D+00  0.0000000000000D+00  0.0000000000000D+00
   255  2.5400000000000D+00  0.0000000000000D+00  0.0000000000000D+00
   256  2.5500000000000D+00  0.0000000000000D+00  0.0000000000000D+00
   257  2.5600000000000D+00  0.0000000000000D+00  0.0000000000000D+00
   258  2.5700000000000D+00  0.0000000000000D+00  0.0000000000000D+00
   259  2.5800000000000D+00  0.0000000000000D+00  0.0000000000000D+00
   260  2.5900000000000D+00  0.0000000000000D+00  0.0000000000000D+00
   261  2.6000000000000D+00  0.0000000000000D+00  0.0000000000000D+00
   262  2.6100000000000D+00  0.0000000000000D+00  0.0000000000000D+00
   263  2.6200000000000D+00  0.0000000000000D+00  0.0000000000000D+00
   264  2.6300000000000D+00  0.0000000000000D+00  0.0000000000000D+00
   265  2.6400000000000D+00  0.0000000000000D+00  0.0000000000000D+00
   266  2.6500000000000D+00  0.0000000000000D+00  0.0000000000000D+00
   267  2.6600000000000D+00  0.0000000000000D+00  0.0000000000000D+00
   268  2.6700000000000D+00  0.0000000000000D+00  0.0000000000000D+00
   269  2.6800000000000D+00  0.0000000000000D+00  0.0000000000000D+00
   270  2.6900000000000D+00  0.0000000000000D+00  0.0000000000000D+00
   271  2.7000000000000D+00  0.0000000000000D+00  0.0000000000000D+00
   272  2.7100000000000D+00  0.0000000000000D+00  0.0000000000000D+00
   273  2.7200000000000D+00  0.0000000000000D+00  0.0000000000000D+00
   274  2.7300000000000D+00  0.0000000000000D+00  0.0000000000000D+00
   275  2.7400000000000D+00  0.0000000000000D+00  0.0000000000000D+00
   276  2.7500000000000D+00  0.0000000000000D+00  0.0000000000000D+00
   277  2.7600000000000D+00  0.0000000000000D+00  0.0000000000000D+00
   278  2.7700000000000D+00  0.0000000000000D+00  0.0000000000000D+00
   279  2.7800000000000D+00  0.0000000000000D+00  0.0000000000000D+00
   280  2.7900000000000D+00  0.0000000000000D+00  0.0000000000000D+00
   281  2.8000000000000D+00  0.0000000000000D+00  0.0000000000000D+00
   282  2.8100000000000D+00  0.0000000000000D+00  0.0000000000000D+00
   283  2.8200000000000D+00  0.0000000000000D+00  0.0000000000000D+00
   284  2.8300000000000D+00  0.0000000000000D+00  0.0000000000000D+00
   285  2.8400000000000D+00  0.0000000000000D+00  0.0000000000000D+00
   286  2.8500000000000D+00  0.0000000000000D+00  0.0000000000000D+00
   287  2.8600000000000D+00  0.0000000000000D+00  0.0000000000000D+00
   288  2.8700000000000D+00  0.0000000000000D+00  0.0000000000000D+00
   289  2.8800000000000D+00  0.0000000000000D+00  0.0000000000000D+00
   290  2.8900000000000D+00  0.0000000000000D+00  0.0000000000000D+00
   291  2.9000000000000D+00  0.0000000000000D+00  0.0000000000000D+00
   292  2.9100000000000D+00  0.0000000000000D+00  0.0000000000000D+00
   293  2.9200000000000D+00  0.0000000000000D+00  0.0000000000000D+00
   294  2.9300000000000D+00  0.0000000000000D+00  0.0000000000000D+00
   295  2.9400000000000D+00  0.0000000000000D+00  0.0000000000000D+00
   296  2.9500000000000D+00  0.0000000000000D+00  0.0000000000000D+00
   297  2.9600000000000D+00  0.0000000000000D+00  0.0000000000000D+00
   298  2.9700000000000D+00  0.0000000000000D+00  0.0000000000000D+00
   299  2.9800000000000D+00  0.0000000000000D+00  0.0000000000000D+00
   300  2.9900000000000D+00  0.0000000000000D+00  0.0000000000000D+00
   301  3.0000000000000D+00  0.0000000000000D+00  0.0000000000000D+00
   302  3.0100000000000D+00  0.0000000000000D+00  0.0000000000000D+00
   303  3.0200000000000D+00  0.0000000000000D+00  0.0000000000000D+00
   304  3.0300000000000D+00  0.0000000000000D+00  0.0000000000000D+00
   305  3.0400000000000D+00  0.0000000000000D+00  0.0000000000000D+00
   306  3.0500000000000D+00  0.0000000000000D+00  0.0000000000000D+00
   307  3.0600000000000D+00  0.0000000000000D+00  0.0000000000000D+00
   308  3.0700000000000D+00  0.0000000000000D+00  0.0000000000000D+00
   309  3.0800000000000D+00  0.0000000000000D+00  0.0000000000000D+00
   310  3.0900000000000D+00  0.0000000000000D+00  0.0000000000000D+00
   311  3.1000000000000D+00  0.0000000000000D+00  0.0000000000000D+00
   312  3.1100000000000D+00  0.0000000000000D+00  0.0000000000000D+00
   313  3.1200000000000D+00  0.0000000000000D+00  0.0000000000000D+00
   314  3.1300000000000D+00  0.0000000000000D+00  0.0000000000000D+00
   315  3.1400000000000D+00  0.0000000000000D+00  0.0000000000000D+00
   316  3.1500000000000D+00  0.0000000000000D+00  0.0000000000000D+00
   317  3.1600000000000D+00  0.0000000000000D+00  0.0000000000000D+00
   318  3.1700000000000D+00  0.0000000000000D+00  0.0000000000000D+00
   319  3.1800000000000D+00  0.0000000000000D+00  0.0000000000000D+00
   320  3.1900000000000D+00  0.0000000000000D+00  0.0000000000000D+00
   321  3.2000000000000D+00  0.0000000000000D+00  0.0000000000000D+00
   322  3.2100000000000D+00  0.0000000000000D+00  0.0000000000000D+00
   323  3.2200000000000D+00  0.0000000000000D+00  0.0000000000000D+00
   324  3.2300000000000D+00  0.0000000000000D+00  0.0000000000000D+00
   325  3.2400000000000D+00  0.0000000000000D+00  0.0000000000000D+00
   326  3.2500000000000D+00  0.0000000000000D+00  0.0000000000000D+00
   327  3.2600000000000D+00  0.0000000000000D+00  0.0000000000000D+00
   328  3.2700000000000D+00  0.0000000000000D+00  0.0000000000000D+00
   329  3.2800000000000D+00  0.0000000000000D+00  0.0000000000000D+00
   330  3.2900000000000D+00  0.0000000000000D+00  0.0000000000000D+00
   331  3.3000000000000D+00  0.0000000000000D+00  0.0000000000000D+00
   332  3.3100000000000D+00  0.0000000000000D+00  0.0000000000000D+00
   333  3.3200000000000D+00  0.0000000000000D+00  0.0000000000000D+00
   334  3.3300000000000D+00  0.0000000000000D+00  0.0000000000000D+00
   335  3.3400000000000D+00  0.0000000000000D+00  0.0000000000000D+00
   336  3.3500000000000D+00  0.0000000000000D+00  0.0000000000000D+00
   337  3.3600000000000D+00  0.0000000000000D+00  0.0000000000000D+00
   338  3.3700000000000D+00  0.0000000000000D+00  0.0000000000000D+00
   339  3.3800000000000D+00  0.0000000000000D+00  0.0000000000000D+00
   340  3.3900000000000D+00  0.0000000000000D+00  0.0000000000000D+00
   341  3.4000000000000D+00  0.0000000000000D+00  0.0000000000000D+00
   342  3.4100000000000D+00  0.0000000000000D+00  0.0000000000000D+00
   343  3.4200000000000D+00  0.0000000000000D+00  0.0000000000000D+00
   344  3.4300000000000D+00  0.0000000000000D+00  0.0000000000000D+00
   345  3.4400000000000D+00  0.0000000000000D+00  0.0000000000000D+00
   346  3.4500000000000D+00  0.0000000000000D+00  0.0000000000000D+00
   347  3.4600000000000D+00  0.0000000000000D+00  0.0000000000000D+00
   348  3.4700000000000D+00  0.0000000000000D+00  0.0000000000000D+00
   349  3.4800000000000D+00  0.0000000000000D+00  0.0000000000000D+00
   350  3.4900000000000D+00  0.0000000000000D+00  0.0000000000000D+00
   351  3.5000000000000D+00  0.0000000000000D+00  0.0000000000000D+00
   352  3.5100000000000D+00  0.0000000000000D+00  0.0000000000000D+00
   353  3.5200000000000D+00  0.0000000000000D+00  0.0000000000000D+00
   354  3.5300000000000D+00  0.0000000000000D+00  0.0000000000000D+00
   355  3.5400000000000D+00  0.0000000000000D+00  0.0000000000000D+00
   356  3.5500000000000D+00  0.0000000000000D+00  0.0000000000000D+00
   357  3.5600000000000D+00  0.0000000000000D+00  0.0000000000000D+00
   358  3.5700000000000D+00  0.0000000000000D+00  0.0000000000000D+00
   359  3.5800000000000D+00  0.0000000000000D+00  0.0000000000000D+00
   360  3.5900000000000D+00  0.0000000000000D+00  0.0000000000000D+00
   361  3.6000000000000D+00  0.0000000000000D+00  0.0000000000000D+00
   362  3.6100000000000D+00  0.0000000000000D+00  0.0000000000000D+00
   363  3.6200000000000D+00  0.0000000000000D+00  0.0000000000000D+00
   364  3.6300000000000D+00  0.0000000000000D+00  0.0000000000000D+00
   365  3.6400000000000D+00  0.0000000000000D+00  0.0000000000000D+00
   366  3.6500000000000D+00  0.0000000000000D+00  0.0000000000000D+00
   367  3.6600000000000D+00  0.0000000000000D+00  0.0000000000000D+00
   368  3.6700000000000D+00  0.0000000000000D+00  0.0000000000000D+00
   369  3.6800000000000D+00  0.0000000000000D+00  0.0000000000000D+00
   370  3.6900000000000D+00  0.0000000000000D+00  0.0000000000000D+00
   371  3.7000000000000D+00  0.0000000000000D+00  0.0000000000000D+00
   372  3.7100000000000D+00  0.0000000000000D+00  0.0000000000000D+00
   373  3.7200000000000D+00  0.0000000000000D+00  0.0000000000000D+00
   374  3.7300000000000D+00  0.0000000000000D+00  0.0000000000000D+00
   375  3.7400000000000D+00  0.0000000000000D+00  0.0000000000000D+00
   376  3.7500000000000D+00  0.0000000000000D+00  0.0000000000000D+00
   377  3.7600000000000D+00  0.0000000000000D+00  0.0000000000000D+00
   378  3.7700000000000D+00  0.0000000000000D+00  0.0000000000000D+00
   379  3.7800000000000D+00  0.0000000000000D+00  0.0000000000000D+00
   380  3.7900000000000D+00  0.0000000000000D+00  0.0000000000000D+00
   381  3.8000000000000D+00  0.0000000000000D+00  0.0000000000000D+00
   382  3.8100000000000D+00  0.0000000000000D+00  0.0000000000000D+00
   383  3.8200000000000D+00  0.0000000000000D+00  0.0000000000000D+00
   384  3.8300000000000D+00  0.0000000000000D+00  0.0000000000000D+00
   385  3.8400000000000D+00  0.0000000000000D+00  0.0000000000000D+00
   386  3.8500000000000D+00  0.0000000000000D+00  0.0000000000000D+00
   387  3.8600000000000D+00  0.0000000000000D+00  0.0000000000000D+00
   388  3.8700000000000D+00  0.0000000000000D+00  0.0000000000000D+00
   389  3.8800000000000D+00  0.0000000000000D+00  0.0000000000000D+00
   390  3.8900000000000D+00  0.0000000000000D+00  0.0000000000000D+00
   391  3.9000000000000D+00  0.0000000000000D+00  0.0000000000000D+00
   392  3.9100000000000D+00  0.0000000000000D+00  0.0000000000000D+00
   393  3.9200000000000D+00  0.0000000000000D+00  0.0000000000000D+00
   394  3.9300000000000D+00  0.0000000000000D+00  0.0000000000000D+00
   395  3.9400000000000D+00  0.0000000000000D+00  0.0000000000000D+00
   396  3.9500000000000D+00  0.0000000000000D+00  0.0000000000000D+00
   397  3.9600000000000D+00  0.0000000000000D+00  0.0000000000000D+00
   398  3.9700000000000D+00  0.0000000000000D+00  0.0000000000000D+00
   399  3.9800000000000D+00  0.0000000000000D+00  0.0000000000000D+00
   400  3.9900000000000D+00  0.0000000000000D+00  0.0000000000000D+00
   401  4.0000000000000D+00  0.0000000000000D+00  0.0000000000000D+00
   402  4.0100000000000D+00  0.0000000000000D+00  0.0000000000000D+00
   403  4.0200000000000D+00  0.0000000000000D+00  0.0000000000000D+00
   404  4.0300000000000D+00  0.0000000000000D+00  0.0000000000000D+00
   405  4.0400000000000D+00  0.0000000000000D+00  0.0000000000000D+00
   406  4.0500000000000D+00  0.0000000000000D+00  0.0000000000000D+00
   407  4.0600000000000D+00  0.0000000000000D+00  0.0000000000000D+00
   408  4.0700000000000D+00  0.0000000000000D+00  0.0000000000000D+00
   409  4.0800000000000D+00  0.0000000000000D+00  0.0000000000000D+00
   410  4.0900000000000D+00  0.0000000000000D+00  0.0000000000000D+00
   411  4.1000000000000D+00  0.0000000000000D+00  0.0000000000000D+00
   412  4.1100000000000D+00  0.0000000000000D+00  0.0000000000000D+00
   413  4.1200000000000D+00  0.0000000000000D+00  0.0000000000000D+00
   414  4.1300000000000D+00  0.0000000000000D+00  0.0000000000000D+00
   415  4.1400000000000D+00  0.0000000000000D+00  0.0000000000000D+00
   416  4.1500000000000D+00  0.0000000000000D+00  0.0000000000000D+00
   417  4.1600000000000D+00  0.0000000000000D+00  0.0000000000000D+00
   418  4.1700000000000D+00  0.0000000000000D+00  0.0000000000000D+00
   419  4.1800000000000D+00  0.0000000000000D+00  0.0000000000000D+00
   420  4.1900000000000D+00  0.0000000000000D+00  0.0000000000000D+00
   421  4.2000000000000D+00  0.0000000000000D+00  0.0000000000000D+00
   422  4.2100000000000D+00  0.0000000000000D+00  0.0000000000000D+00