Na    ONCVPSP-3.3.1  r_core=   1.47844   2.29870
     11.0000      9.0000      210905    zatom,zion,pspd
     8 -116133   1     4   600     0    pspcod,pspxc,lmax,lloc,mmax,r2well
  5.99000000  0.00000000  0.00000000    rchrg fchrg qchrg
     2     2     0     0     0    nproj
     1     1           extension_switch
   0                         2.7034709276684D+00 -1.2062227147617D+00
     1  0.0000000000000D+00 -7.6764339329571D-10  1.7434093058100D-10
     2  1.0000000000000D-02  1.2898374017984D-01  2.3708452881493D-02
     3  2.0000000000000D-02  2.5729987050734D-01  4.7491105044178D-02
     4  3.0000000000000D-02  3.8428484636668D-01  7.1421406598489D-02
     5  4.0000000000000D-02  5.0928322613492D-01  9.5571315082865D-02
     6  5.0000000000000D-02  6.3165165417361D-01  1.2001056355711D-01
     7  6.0000000000000D-02  7.5076276216003D-01  1.4480594582685D-01
     8  7.0000000000000D-02  8.6600896244313D-01  1.7002062430354D-01
     9  8.0000000000000D-02  9.7680610787670D-01  1.9571346583023D-01
    10  9.0000000000000D-02  1.0825969935317D+00  2.2193841058789D-01
    11  1.0000000000000D-01  1.1828546768134D+00  2.4874387894251D-01
    12  1.1000000000000D-01  1.2770855938015D+00  2.7617222080140D-01
    13  1.2000000000000D-01  1.3648324510782D+00  3.0425921172013D-01
    14  1.3000000000000D-01  1.4456768739078D+00  3.3303359964279D-01
    15  1.4000000000000D-01  1.5192417933631D+00  3.6251670576902D-01
    16  1.5000000000000D-01  1.5851935568511D+00  3.9272208262687D-01
    17  1.6000000000000D-01  1.6432437484560D+00  4.2365523199151D-01
    18  1.7000000000000D-01  1.6931507075827D+00  4.5531338483271D-01
    19  1.8000000000000D-01  1.7347207365283D+00  4.8768534499923D-01
    20  1.9000000000000D-01  1.7678089898207D+00  5.2075139786246D-01
    21  2.0000000000000D-01  1.7923200404233D+00  5.5448328464650D-01
    22  2.1000000000000D-01  1.8082081202028D+00  5.8884424267243D-01
    23  2.2000000000000D-01  1.8154770343659D+00  6.2378911124439D-01
    24  2.3000000000000D-01  1.8141797518870D+00  6.5926450240804D-01
    25  2.4000000000000D-01  1.8044176762407D+00  6.9520903532218D-01
    26  2.5000000000000D-01  1.7863396030188D+00  7.3155363250523D-01
    27  2.6000000000000D-01  1.7601403732202D+00  7.6822187575428D-01
    28  2.7000000000000D-01  1.7260592331502D+00  8.0513041908795D-01
    29  2.8000000000000D-01  1.6843779139253D+00  8.4218945564035D-01
    30  2.9000000000000D-01  1.6354184455471D+00  8.7930323503394D-01
    31  3.0000000000000D-01  1.5795407223570D+00  9.1637062738752D-01
    32  3.1000000000000D-01  1.5171398384126D+00  9.5328572977546D-01
    33  3.2000000000000D-01  1.4486432129068D+00  9.8993851064683D-01
    34  3.3000000000000D-01  1.3745075271882D+00  1.0262154874419D+00
    35  3.4000000000000D-01  1.2952154962076D+00  1.0620004324092D+00
    36  3.5000000000000D-01  1.2112724983154D+00  1.0971751014339D+00
    37  3.6000000000000D-01  1.1232030882494D+00  1.1316199805304D+00
    38  3.7000000000000D-01  1.0315474188801D+00  1.1652150445469D+00
    39  3.8000000000000D-01  9.3685759781363D-01  1.1978405225526D+00
    40  3.9000000000000D-01  8.3969400528889D-01  1.2293776643585D+00
    41  4.0000000000000D-01  7.4062159993673D-01  1.2597095026342D+00
    42  4.1000000000000D-01  6.4020623890151D-01  1.2887216051456D+00
    43  4.2000000000000D-01  5.3901103855443D-01  1.3163028117345D+00
    44  4.3000000000000D-01  4.3759280155618D-01  1.3423459508082D+00
    45  4.4000000000000D-01  3.3649853536011D-01  1.3667485302813D+00
    46  4.5000000000000D-01  2.3626208638691D-01  1.3894133981375D+00
    47  4.6000000000000D-01  1.3740091305956D-01  1.4102493680253D+00
    48  4.7000000000000D-01  4.0413019666515D-02  1.4291718055983D+00
    49  4.8000000000000D-01 -5.4225928365111D-02  1.4461031716211D+00
    50  4.9000000000000D-01 -1.4606528874697D-01  1.4609735182152D+00
    51  5.0000000000000D-01 -2.3468190880374D-01  1.4737209349886D+00
    52  5.1000000000000D-01 -3.1968235860542D-01  1.4842919421885D+00
    53  5.2000000000000D-01 -4.0070491714957D-01  1.4926418284296D+00
    54  5.3000000000000D-01 -4.7742130001383D-01  1.4987349309802D+00
    55  5.4000000000000D-01 -5.4953811901109D-01  1.5025448570291D+00
    56  5.5000000000000D-01 -6.1679806655851D-01  1.5040546448049D+00
    57  5.6000000000000D-01 -6.7898081969134D-01  1.5032568638741D+00
    58  5.7000000000000D-01 -7.3590366091187D-01  1.5001536543986D+00
    59  5.8000000000000D-01 -7.8742181531964D-01  1.4947567055859D+00
    60  5.9000000000000D-01 -8.3342850573051D-01  1.4870871740107D+00
    61  6.0000000000000D-01 -8.7385472971038D-01  1.4771755429232D+00
    62  6.1000000000000D-01 -9.0866876463879D-01  1.4650614240815D+00
    63  6.2000000000000D-01 -9.3787540902177D-01  1.4507933040526D+00
    64  6.3000000000000D-01 -9.6151497031630D-01  1.4344282373130D+00
    65  6.4000000000000D-01 -9.7966201145414D-01  1.4160314888441D+00
    66  6.5000000000000D-01 -9.9242387007132D-01  1.3956761292557D+00
    67  6.6000000000000D-01 -9.9993896613720D-01  1.3734425857844D+00
    68  6.7000000000000D-01 -1.0023749152132D+00  1.3494181527932D+00
    69  6.8000000000000D-01 -9.9992646595283D-01  1.3236964656483D+00
    70  6.9000000000000D-01 -9.9281328166727D-01  1.2963769420663D+00
    71  7.0000000000000D-01 -9.8127758681021D-01  1.2675641952055D+00
    72  7.1000000000000D-01 -9.6558170007603D-01  1.2373674229206D+00
    73  7.2000000000000D-01 -9.4600547645434D-01  1.2058997777084D+00
    74  7.3000000000000D-01 -9.2284368102901D-01  1.1732777219451D+00
    75  7.4000000000000D-01 -8.9640331755198D-01  1.1396203730494D+00
    76  7.5000000000000D-01 -8.6700093486078D-01  1.1050488432035D+00
    77  7.6000000000000D-01 -8.3495993404022D-01  1.0696855782269D+00
    78  7.7000000000000D-01 -8.0060789886358D-01  1.0336537001229D+00
    79  7.8000000000000D-01 -7.6427397147892D-01  9.9707635770841D-01
    80  7.9000000000000D-01 -7.2628629455126D-01  9.6007608960076D-01
    81  8.0000000000000D-01 -6.8696954012944D-01  9.2277420365692D-01
    82  8.1000000000000D-01 -6.4664254439229D-01  8.8529017676434D-01
    83  8.2000000000000D-01 -6.0561606615147D-01  8.4774107865084D-01
    84  8.3000000000000D-01 -5.6419068556178D-01  8.1024102312877D-01
    85  8.4000000000000D-01 -5.2265485792729D-01  7.7290064991284D-01
    86  8.5000000000000D-01 -4.8128313580935D-01  7.3582663985616D-01
    87  8.6000000000000D-01 -4.4033457085751D-01  6.9912126613738D-01
    88  8.7000000000000D-01 -4.0005130491235D-01  6.6288198360649D-01
    89  8.8000000000000D-01 -3.6065735799100D-01  6.2720105816103D-01
    90  8.9000000000000D-01 -3.2235761877873D-01  5.9216523768103D-01
    91  9.0000000000000D-01 -2.8533704123410D-01  5.5785546570278D-01
    92  9.1000000000000D-01 -2.4976004888926D-01  5.2434663866258D-01
    93  9.2000000000000D-01 -2.1577014641248D-01  4.9170740719345D-01
    94  9.3000000000000D-01 -1.8348973601400D-01  4.6000002161490D-01
    95  9.4000000000000D-01 -1.5302013434067D-01  4.2928022142016D-01
    96  9.5000000000000D-01 -1.2444178363791D-01  3.9959716824013D-01
    97  9.6000000000000D-01 -9.7814649162666D-02  3.7099342144871D-01
    98  9.7000000000000D-01 -7.3178793176518D-02  3.4350495528154D-01
    99  9.8000000000000D-01 -5.0555114258931D-02  3.1716121605572D-01
   100  9.9000000000000D-01 -2.9946239261177D-02  2.9198521781994D-01
   101  1.0000000000000D+00 -1.1337553941363D-02  2.6799367452626D-01
   102  1.0100000000000D+00  5.3016428089674D-03  2.4519716659877D-01
   103  1.0200000000000D+00  2.0016877192912D-02  2.2360033958368D-01
   104  1.0300000000000D+00  3.2867148026226D-02  2.0320213239786D-01
   105  1.0400000000000D+00  4.3923500960434D-02  1.8399603255879D-01
   106  1.0500000000000D+00  5.3267547270342D-02  1.6597035566062D-01
   107  1.0600000000000D+00  6.0989945271706D-02  1.4910854627868D-01
   108  1.0700000000000D+00  6.7188862477697D-02  1.3338949742748D-01
   109  1.0800000000000D+00  7.1968436437509D-02  1.1878788566617D-01
   110  1.0900000000000D+00  7.5437251878178D-02  1.0527451894219D-01
   111  1.1000000000000D+00  7.7706851280943D-02  9.2816694280785D-02
   112  1.1100000000000D+00  7.8890295285486D-02  8.1378562480234D-02
   113  1.1200000000000D+00  7.9100788517442D-02  7.0921497038309D-02
   114  1.1300000000000D+00  7.8450385323473D-02  6.1404464639404D-02
   115  1.1400000000000D+00  7.7048789044988D-02  5.2784394614089D-02
   116  1.1500000000000D+00  7.5002256838074D-02  4.5016544952150D-02
   117  1.1600000000000D+00  7.2412620905969D-02  3.8054862575474D-02
   118  1.1700000000000D+00  6.9376435386743D-02  3.1852335758099D-02
   119  1.1800000000000D+00  6.5984256967287D-02  2.6361336712613D-02
   120  1.1900000000000D+00  6.2320065167501D-02  2.1533952610203D-02
   121  1.2000000000000D+00  5.8460826802425D-02  1.7322303474644D-02
   122  1.2100000000000D+00  5.4476207807946D-02  1.3678845548250D-02
   123  1.2200000000000D+00  5.0428433529342D-02  1.0556658981850D-02
   124  1.2300000000000D+00  4.6372296907954D-02  7.9097189108814D-03
   125  1.2400000000000D+00  4.2355312656428D-02  5.6931491508380D-03
   126  1.2500000000000D+00  3.8418014095064D-02  3.8634579232404D-03
   127  1.2600000000000D+00  3.4594387119773D-02  2.3787553142974D-03
   128  1.2700000000000D+00  3.0912434968086D-02  1.1989522820559D-03
   129  1.2800000000000D+00  2.7394866413256D-02  2.8594115983248D-04
   130  1.2900000000000D+00  2.4059902784544D-02 -3.9624159531413D-04
   131  1.3000000000000D+00  2.0922179301718D-02 -8.8127174239808D-04
   132  1.3100000000000D+00  1.7993708915305D-02 -1.2004130861078D-03
   133  1.3200000000000D+00  1.5284893046916D-02 -1.3824154519262D-03
   134  1.3300000000000D+00  1.2806440103503D-02 -1.4533454090234D-03
   135  1.3400000000000D+00  1.0568064866989D-02 -1.4367531838253D-03
   136  1.3500000000000D+00  8.5764389930200D-03 -1.3539092458428D-03
   137  1.3600000000000D+00  6.8326973493444D-03 -1.2240314595493D-03
   138  1.3700000000000D+00  5.3321051567968D-03 -1.0643074618862D-03
   139  1.3800000000000D+00  4.0655364839230D-03 -8.8973531862043D-04
   140  1.3900000000000D+00  3.0198314638043D-03 -7.1310013664619D-04
   141  1.4000000000000D+00  2.1785496974868D-03 -5.4491714902106D-04
   142  1.4100000000000D+00  1.5225794935793D-03 -3.9339868618865D-04
   143  1.4200000000000D+00  1.0307418709980D-03 -2.6442766820753D-04
   144  1.4300000000000D+00  6.8055581062143D-04 -1.6152328472920D-04
   145  1.4400000000000D+00  4.4792638395256D-04 -8.5899416243182D-05
   146  1.4500000000000D+00  3.0507323024980D-04 -3.6478244360595D-05
   147  1.4600000000000D+00  2.3722535574663D-04 -9.4635119967857D-06
   148  1.4700000000000D+00  2.3117111677910D-04  1.0141772430664D-06
   149  1.4800000000000D+00  1.9207260345449D-04  2.3236295185962D-06
   150  1.4900000000000D+00  6.9349057949472D-05  8.4069830880659D-07
   151  1.5000000000000D+00 -1.6766143601386D-05 -2.6107409168311D-07
   152  1.5100000000000D+00 -1.2039558799510D-05 -1.8936670861289D-07
   153  1.5200000000000D+00  4.4367912640234D-06  7.8672101577273D-08
   154  1.5300000000000D+00  1.6976375517259D-06  3.0822154023646D-08
   155  1.5400000000000D+00 -5.7793402606030D-07 -6.7348942866394D-09
   156  1.5500000000000D+00 -6.5136339807118D-08 -7.5905958645493D-10
   157  1.5600000000000D+00  0.0000000000000D+00  0.0000000000000D+00
   158  1.5700000000000D+00  0.0000000000000D+00  0.0000000000000D+00
   159  1.5800000000000D+00  0.0000000000000D+00  0.0000000000000D+00
   160  1.5900000000000D+00  0.0000000000000D+00  0.0000000000000D+00
   161  1.6000000000000D+00  0.0000000000000D+00  0.0000000000000D+00
   162  1.6100000000000D+00  0.0000000000000D+00  0.0000000000000D+00
   163  1.6200000000000D+00  0.0000000000000D+00  0.0000000000000D+00
   164  1.6300000000000D+00  0.0000000000000D+00  0.0000000000000D+00
   165  1.6400000000000D+00  0.0000000000000D+00  0.0000000000000D+00
   166  1.6500000000000D+00  0.0000000000000D+00  0.0000000000000D+00
   167  1.6600000000000D+00  0.0000000000000D+00  0.0000000000000D+00
   168  1.6700000000000D+00  0.0000000000000D+00  0.0000000000000D+00
   169  1.6800000000000D+00  0.0000000000000D+00  0.0000000000000D+00
   170  1.6900000000000D+00  0.0000000000000D+00  0.0000000000000D+00
   171  1.7000000000000D+00  0.0000000000000D+00  0.0000000000000D+00
   172  1.7100000000000D+00  0.0000000000000D+00  0.0000000000000D+00
   173  1.7200000000000D+00  0.0000000000000D+00  0.0000000000000D+00
   174  1.7300000000000D+00  0.0000000000000D+00  0.0000000000000D+00
   175  1.7400000000000D+00  0.0000000000000D+00  0.0000000000000D+00
   176  1.7500000000000D+00  0.0000000000000D+00  0.0000000000000D+00
   177  1.7600000000000D+00  0.0000000000000D+00  0.0000000000000D+00
   178  1.7700000000000D+00  0.0000000000000D+00  0.0000000000000D+00
   179  1.7800000000000D+00  0.0000000000000D+00  0.0000000000000D+00
   180  1.7900000000000D+00  0.0000000000000D+00  0.0000000000000D+00
   181  1.8000000000000D+00  0.0000000000000D+00  0.0000000000000D+00
   182  1.8100000000000D+00  0.0000000000000D+00  0.0000000000000D+00
   183  1.8200000000000D+00  0.0000000000000D+00  0.0000000000000D+00
   184  1.8300000000000D+00  0.0000000000000D+00  0.0000000000000D+00
   185  1.8400000000000D+00  0.0000000000000D+00  0.0000000000000D+00
   186  1.8500000000000D+00  0.0000000000000D+00  0.0000000000000D+00
   187  1.8600000000000D+00  0.0000000000000D+00  0.0000000000000D+00
   188  1.8700000000000D+00  0.0000000000000D+00  0.0000000000000D+00
   189  1.8800000000000D+00  0.0000000000000D+00  0.0000000000000D+00
   190  1.8900000000000D+00  0.0000000000000D+00  0.0000000000000D+00
   191  1.9000000000000D+00  0.0000000000000D+00  0.0000000000000D+00
   192  1.9100000000000D+00  0.0000000000000D+00  0.0000000000000D+00
   193  1.9200000000000D+00  0.0000000000000D+00  0.0000000000000D+00
   194  1.9300000000000D+00  0.0000000000000D+00  0.0000000000000D+00
   195  1.9400000000000D+00  0.0000000000000D+00  0.0000000000000D+00
   196  1.9500000000000D+00  0.0000000000000D+00  0.0000000000000D+00
   197  1.9600000000000D+00  0.0000000000000D+00  0.0000000000000D+00
   198  1.9700000000000D+00  0.0000000000000D+00  0.0000000000000D+00
   199  1.9800000000000D+00  0.0000000000000D+00  0.0000000000000D+00
   200  1.9900000000000D+00  0.0000000000000D+00  0.0000000000000D+00
   201  2.0000000000000D+00  0.0000000000000D+00  0.0000000000000D+00
   202  2.0100000000000D+00  0.0000000000000D+00  0.0000000000000D+00
   203  2.0200000000000D+00  0.0000000000000D+00  0.0000000000000D+00
   204  2.0300000000000D+00  0.0000000000000D+00  0.0000000000000D+00
   205  2.0400000000000D+00  0.0000000000000D+00  0.0000000000000D+00
   206  2.0500000000000D+00  0.0000000000000D+00  0.0000000000000D+00
   207  2.0600000000000D+00  0.0000000000000D+00  0.0000000000000D+00
   208  2.0700000000000D+00  0.0000000000000D+00  0.0000000000000D+00
   209  2.0800000000000D+00  0.0000000000000D+00  0.0000000000000D+00
   210  2.0900000000000D+00  0.0000000000000D+00  0.0000000000000D+00
   211  2.1000000000000D+00  0.0000000000000D+00  0.0000000000000D+00
   212  2.1100000000000D+00  0.0000000000000D+00  0.0000000000000D+00
   213  2.1200000000000D+00  0.0000000000000D+00  0.0000000000000D+00
   214  2.1300000000000D+00  0.0000000000000D+00  0.0000000000000D+00
   215  2.1400000000000D+00  0.0000000000000D+00  0.0000000000000D+00
   216  2.1500000000000D+00  0.0000000000000D+00  0.0000000000000D+00
   217  2.1600000000000D+00  0.0000000000000D+00  0.0000000000000D+00
   218  2.1700000000000D+00  0.0000000000000D+00  0.0000000000000D+00
   219  2.1800000000000D+00  0.0000000000000D+00  0.0000000000000D+00
   220  2.1900000000000D+00  0.0000000000000D+00  0.0000000000000D+00
   221  2.2000000000000D+00  0.0000000000000D+00  0.0000000000000D+00
   222  2.2100000000000D+00  0.0000000000000D+00  0.0000000000000D+00
   223  2.2200000000000D+00  0.0000000000000D+00  0.0000000000000D+00
   224  2.2300000000000D+00  0.0000000000000D+00  0.0000000000000D+00
   225  2.2400000000000D+00  0.0000000000000D+00  0.0000000000000D+00
   226  2.2500000000000D+00  0.0000000000000D+00  0.0000000000000D+00
   227  2.2600000000000D+00  0.0000000000000D+00  0.0000000000000D+00
   228  2.2700000000000D+00  0.0000000000000D+00  0.0000000000000D+00
   229  2.2800000000000D+00  0.0000000000000D+00  0.0000000000000D+00
   230  2.2900000000000D+00  0.0000000000000D+00  0.0000000000000D+00
   231  2.3000000000000D+00  0.0000000000000D+00  0.0000000000000D+00
   232  2.3100000000000D+00  0.0000000000000D+00  0.0000000000000D+00
   233  2.3200000000000D+00  0.0000000000000D+00  0.0000000000000D+00
   234  2.3300000000000D+00  0.0000000000000D+00  0.0000000000000D+00
   235  2.3400000000000D+00  0.0000000000000D+00  0.0000000000000D+00
   236  2.3500000000000D+00  0.0000000000000D+00  0.0000000000000D+00
   237  2.3600000000000D+00  0.0000000000000D+00  0.0000000000000D+00
   238  2.3700000000000D+00  0.0000000000000D+00  0.0000000000000D+00
   239  2.3800000000000D+00  0.0000000000000D+00  0.0000000000000D+00
   240  2.3900000000000D+00  0.0000000000000D+00  0.0000000000000D+00
   241  2.4000000000000D+00  0.0000000000000D+00  0.0000000000000D+00
   242  2.4100000000000D+00  0.0000000000000D+00  0.0000000000000D+00
   243  2.4200000000000D+00  0.0000000000000D+00  0.0000000000000D+00
   244  2.4300000000000D+00  0.0000000000000D+00  0.0000000000000D+00
   245  2.4400000000000D+00  0.0000000000000D+00  0.0000000000000D+00
   246  2.4500000000000D+00  0.0000000000000D+00  0.0000000000000D+00
   247  2.4600000000000D+00  0.0000000000000D+00  0.0000000000000D+00
   248  2.4700000000000D+00  0.0000000000000D+00  0.0000000000000D+00
   249  2.4800000000000D+00  0.0000000000000D+00  0.0000000000000D+00
   250  2.4900000000000D+00  0.0000000000000D+00  0.0000000000000D+00
   251  2.5000000000000D+00  0.0000000000000D+00  0.0000000000000D+00
   252  2.5100000000000D+00  0.0000000000000D+00  0.0000000000000D+00
   253  2.5200000000000D+00  0.0000000000000D+00  0.0000000000000D+00
   254  2.5300000000000D+00  0.0000000000000D+00  0.0000000000000D+00
   255  2.5400000000000D+00  0.0000000000000D+00  0.0000000000000D+00
   256  2.5500000000000D+00  0.0000000000000D+00  0.0000000000000D+00
   257  2.5600000000000D+00  0.0000000000000D+00  0.0000000000000D+00
   258  2.5700000000000D+00  0.0000000000000D+00  0.0000000000000D+00
   259  2.5800000000000D+00  0.0000000000000D+00  0.0000000000000D+00
   260  2.5900000000000D+00  0.0000000000000D+00  0.0000000000000D+00
   261  2.6000000000000D+00  0.0000000000000D+00  0.0000000000000D+00
   262  2.6100000000000D+00  0.0000000000000D+00  0.0000000000000D+00
   263  2.6200000000000D+00  0.0000000000000D+00  0.0000000000000D+00
   264  2.6300000000000D+00  0.0000000000000D+00  0.0000000000000D+00
   265  2.6400000000000D+00  0.0000000000000D+00  0.0000000000000D+00
   266  2.6500000000000D+00  0.0000000000000D+00  0.0000000000000D+00
   267  2.6600000000000D+00  0.0000000000000D+00  0.0000000000000D+00
   268  2.6700000000000D+00  0.0000000000000D+00  0.0000000000000D+00
   269  2.6800000000000D+00  0.0000000000000D+00  0.0000000000000D+00
   270  2.6900000000000D+00  0.0000000000000D+00  0.0000000000000D+00
   271  2.7000000000000D+00  0.0000000000000D+00  0.0000000000000D+00
   272  2.7100000000000D+00  0.0000000000000D+00  0.0000000000000D+00
   273  2.7200000000000D+00  0.0000000000000D+00  0.0000000000000D+00
   274  2.7300000000000D+00  0.0000000000000D+00  0.0000000000000D+00
   275  2.7400000000000D+00  0.0000000000000D+00  0.0000000000000D+00
   276  2.7500000000000D+00  0.0000000000000D+00  0.0000000000000D+00
   277  2.7600000000000D+00  0.0000000000000D+00  0.0000000000000D+00
   278  2.7700000000000D+00  0.0000000000000D+00  0.0000000000000D+00
   279  2.7800000000000D+00  0.0000000000000D+00  0.0000000000000D+00
   280  2.7900000000000D+00  0.0000000000000D+00  0.0000000000000D+00
   281  2.8000000000000D+00  0.0000000000000D+00  0.0000000000000D+00
   282  2.8100000000000D+00  0.0000000000000D+00  0.0000000000000D+00
   283  2.8200000000000D+00  0.0000000000000D+00  0.0000000000000D+00
   284  2.8300000000000D+00  0.0000000000000D+00  0.0000000000000D+00
   285  2.8400000000000D+00  0.0000000000000D+00  0.0000000000000D+00
   286  2.8500000000000D+00  0.0000000000000D+00  0.0000000000000D+00
   287  2.8600000000000D+00  0.0000000000000D+00  0.0000000000000D+00
   288  2.8700000000000D+00  0.0000000000000D+00  0.0000000000000D+00
   289  2.8800000000000D+00  0.0000000000000D+00  0.0000000000000D+00
   290  2.8900000000000D+00  0.0000000000000D+00  0.0000000000000D+00
   291  2.9000000000000D+00  0.0000000000000D+00  0.0000000000000D+00
   292  2.9100000000000D+00  0.0000000000000D+00  0.0000000000000D+00
   293  2.9200000000000D+00  0.0000000000000D+00  0.0000000000000D+00
   294  2.9300000000000D+00  0.0000000000000D+00  0.0000000000000D+00
   295  2.9400000000000D+00  0.0000000000000D+00  0.0000000000000D+00
   296  2.9500000000000D+00  0.0000000000000D+00  0.0000000000000D+00
   297  2.9600000000000D+00  0.0000000000000D+00  0.0000000000000D+00
   298  2.9700000000000D+00  0.0000000000000D+00  0.0000000000000D+00
   299  2.9800000000000D+00  0.0000000000000D+00  0.0000000000000D+00
   300  2.9900000000000D+00  0.0000000000000D+00  0.0000000000000D+00
   301  3.0000000000000D+00  0.0000000000000D+00  0.0000000000000D+00
   302  3.0100000000000D+00  0.0000000000000D+00  0.0000000000000D+00
   303  3.0200000000000D+00  0.0000000000000D+00  0.0000000000000D+00
   304  3.0300000000000D+00  0.0000000000000D+00  0.0000000000000D+00
   305  3.0400000000000D+00  0.0000000000000D+00  0.0000000000000D+00
   306  3.0500000000000D+00  0.0000000000000D+00  0.0000000000000D+00
   307  3.0600000000000D+00  0.0000000000000D+00  0.0000000000000D+00
   308  3.0700000000000D+00  0.0000000000000D+00  0.0000000000000D+00
   309  3.0800000000000D+00  0.0000000000000D+00  0.0000000000000D+00
   310  3.0900000000000D+00  0.0000000000000D+00  0.0000000000000D+00
   311  3.1000000000000D+00  0.0000000000000D+00  0.0000000000000D+00
   312  3.1100000000000D+00  0.0000000000000D+00  0.0000000000000D+00
   313  3.1200000000000D+00  0.0000000000000D+00  0.0000000000000D+00
   314  3.1300000000000D+00  0.0000000000000D+00  0.0000000000000D+00
   315  3.1400000000000D+00  0.0000000000000D+00  0.0000000000000D+00
   316  3.1500000000000D+00  0.0000000000000D+00  0.0000000000000D+00
   317  3.1600000000000D+00  0.0000000000000D+00  0.0000000000000D+00
   318  3.1700000000000D+00  0.0000000000000D+00  0.0000000000000D+00
   319  3.1800000000000D+00  0.0000000000000D+00  0.0000000000000D+00
   320  3.1900000000000D+00  0.0000000000000D+00  0.0000000000000D+00
   321  3.2000000000000D+00  0.0000000000000D+00  0.0000000000000D+00
   322  3.2100000000000D+00  0.0000000000000D+00  0.0000000000000D+00
   323  3.2200000000000D+00  0.0000000000000D+00  0.0000000000000D+00
   324  3.2300000000000D+00  0.0000000000000D+00  0.0000000000000D+00
   325  3.2400000000000D+00  0.0000000000000D+00  0.0000000000000D+00
   326  3.2500000000000D+00  0.0000000000000D+00  0.0000000000000D+00
   327  3.2600000000000D+00  0.0000000000000D+00  0.0000000000000D+00
   328  3.2700000000000D+00  0.0000000000000D+00  0.0000000000000D+00
   329  3.2800000000000D+00  0.0000000000000D+00  0.0000000000000D+00
   330  3.2900000000000D+00  0.0000000000000D+00  0.0000000000000D+00
   331  3.3000000000000D+00  0.0000000000000D+00  0.0000000000000D+00
   332  3.3100000000000D+00  0.0000000000000D+00  0.0000000000000D+00
   333  3.3200000000000D+00  0.0000000000000D+00  0.0000000000000D+00
   334  3.3300000000000D+00  0.0000000000000D+00  0.0000000000000D+00
   335  3.3400000000000D+00  0.0000000000000D+00  0.0000000000000D+00
   336  3.3500000000000D+00  0.0000000000000D+00  0.0000000000000D+00
   337  3.3600000000000D+00  0.0000000000000D+00  0.0000000000000D+00
   338  3.3700000000000D+00  0.0000000000000D+00  0.0000000000000D+00
   339  3.3800000000000D+00  0.0000000000000D+00  0.0000000000000D+00
   340  3.3900000000000D+00  0.0000000000000D+00  0.0000000000000D+00
   341  3.4000000000000D+00  0.0000000000000D+00  0.0000000000000D+00
   342  3.4100000000000D+00  0.0000000000000D+00  0.0000000000000D+00
   343  3.4200000000000D+00  0.0000000000000D+00  0.0000000000000D+00
   344  3.4300000000000D+00  0.0000000000000D+00  0.0000000000000D+00
   345  3.4400000000000D+00  0.0000000000000D+00  0.0000000000000D+00
   346  3.4500000000000D+00  0.0000000000000D+00  0.0000000000000D+00
   347  3.4600000000000D+00  0.0000000000000D+00  0.0000000000000D+00
   348  3.4700000000000D+00  0.0000000000000D+00  0.0000000000000D+00
   349  3.4800000000000D+00  0.0000000000000D+00  0.0000000000000D+00
   350  3.4900000000000D+00  0.0000000000000D+00  0.0000000000000D+00
   351  3.5000000000000D+00  0.0000000000000D+00  0.0000000000000D+00
   352  3.5100000000000D+00  0.0000000000000D+00  0.0000000000000D+00
   353  3.5200000000000D+00  0.0000000000000D+00  0.0000000000000D+00
   354  3.5300000000000D+00  0.0000000000000D+00  0.0000000000000D+00
   355  3.5400000000000D+00  0.0000000000000D+00  0.0000000000000D+00
   356  3.5500000000000D+00  0.0000000000000D+00  0.0000000000000D+00
   357  3.5600000000000D+00  0.0000000000000D+00  0.0000000000000D+00
   358  3.5700000000000D+00  0.0000000000000D+00  0.0000000000000D+00
   359  3.5800000000000D+00  0.0000000000000D+00  0.0000000000000D+00
   360  3.5900000000000D+00  0.0000000000000D+00  0.0000000000000D+00
   361  3.6000000000000D+00  0.0000000000000D+00  0.0000000000000D+00
   362  3.6100000000000D+00  0.0000000000000D+00  0.0000000000000D+00
   363  3.6200000000000D+00  0.0000000000000D+00  0.0000000000000D+00
   364  3.6300000000000D+00  0.0000000000000D+00  0.0000000000000D+00
   365  3.6400000000000D+00  0.0000000000000D+00  0.0000000000000D+00
   366  3.6500000000000D+00  0.0000000000000D+00  0.0000000000000D+00
   367  3.6600000000000D+00  0.0000000000000D+00  0.0000000000000D+00
   368  3.6700000000000D+00  0.0000000000000D+00  0.0000000000000D+00
   369  3.6800000000000D+00  0.0000000000000D+00  0.0000000000000D+00
   370  3.6900000000000D+00  0.0000000000000D+00  0.0000000000000D+00
   371  3.7000000000000D+00  0.0000000000000D+00  0.0000000000000D+00
   372  3.7100000000000D+00  0.0000000000000D+00  0.0000000000000D+00
   373  3.7200000000000D+00  0.0000000000000D+00  0.0000000000000D+00
   374  3.7300000000000D+00  0.0000000000000D+00  0.0000000000000D+00
   375  3.7400000000000D+00  0.0000000000000D+00  0.0000000000000D+00
   376  3.7500000000000D+00  0.0000000000000D+00  0.0000000000000D+00
   377  3.7600000000000D+00  0.0000000000000D+00  0.0000000000000D+00
   378  3.7700000000000D+00  0.0000000000000D+00  0.0000000000000D+00
   379  3.7800000000000D+00  0.0000000000000D+00  0.0000000000000D+00
   380  3.7900000000000D+00  0.0000000000000D+00  0.0000000000000D+00
   381  3.8000000000000D+00  0.0000000000000D+00  0.0000000000000D+00
   382  3.8100000000000D+00  0.0000000000000D+00  0.0000000000000D+00
   383  3.8200000000000D+00  0.0000000000000D+00  0.0000000000000D+00
   384  3.8300000000000D+00  0.0000000000000D+00  0.0000000000000D+00
   385  3.8400000000000D+00  0.0000000000000D+00  0.0000000000000D+00
   386  3.8500000000000D+00  0.0000000000000D+00  0.0000000000000D+00
   387  3.8600000000000D+00  0.0000000000000D+00  0.0000000000000D+00
   388  3.8700000000000D+00  0.0000000000000D+00  0.0000000000000D+00
   389  3.8800000000000D+00  0.0000000000000D+00  0.0000000000000D+00
   390  3.8900000000000D+00  0.0000000000000D+00  0.0000000000000D+00
   391  3.9000000000000D+00  0.0000000000000D+00  0.0000000000000D+00
   392  3.9100000000000D+00  0.0000000000000D+00  0.0000000000000D+00
   393  3.9200000000000D+00  0.0000000000000D+00  0.0000000000000D+00
   394  3.9300000000000D+00  0.0000000000000D+00  0.0000000000000D+00
   395  3.9400000000000D+00  0.0000000000000D+00  0.0000000000000D+00
   396  3.9500000000000D+00  0.0000000000000D+00  0.0000000000000D+00
   397  3.9600000000000D+00  0.0000000000000D+00  0.0000000000000D+00
   398  3.9700000000000D+00  0.0000000000000D+00  0.0000000000000D+00
   399  3.9800000000000D+00  0.0000000000000D+00  0.0000000000000D+00
   400  3.9900000000000D+00  0.0000000000000D+00  0.0000000000000D+00
   401  4.0000000000000D+00  0.0000000000000D+00  0.0000000000000D+00
   402  4.0100000000000D+00  0.0000000000000D+00  0.0000000000000D+00
   403  4.0200000000000D+00  0.0000000000000D+00  0.0000000000000D+00
   404  4.0300000000000D+00  0.0000000000000D+00  0.0000000000000D+00
   405  4.0400000000000D+00  0.0000000000000D+00  0.0000000000000D+00
   406  4.0500000000000D+00  0.0000000000000D+00  0.0000000000000D+00
   407  4.0600000000000D+00  0.0000000000000D+00  0.0000000000000D+00
   408  4.0700000000000D+00  0.0000000000000D+00  0.0000000000000D+00
   409  4.0800000000000D+00  0.0000000000000D+00  0.0000000000000D+00
   410  4.0900000000000D+00  0.0000000000000D+00  0.0000000000000D+00
   411  4.1000000000000D+00  0.0000000000000D+00  0.0000000000000D+00
   412  4.1100000000000D+00  0.0000000000000D+00  0.0000000000000D+00
   413  4.1200000000000D+00  0.0000000000000D+00  0.0000000000000D+00
   414  4.1300000000000D+00  0.0000000000000D+00  0.0000000000000D+00
   415  4.1400000000000D+00  0.0000000000000D+00  0.0000000000000D+00
   416  4.1500000000000D+00  0.0000000000000D+00  0.0000000000000D+00
   417  4.1600000000000D+00  0.0000000000000D+00  0.0000000000000D+00
   418  4.1700000000000D+00  0.0000000000000D+00  0.0000000000000D+00
   419  4.1800000000000D+00  0.0000000000000D+00  0.0000000000000D+00
   420  4.1900000000000D+00  0.0000000000000D+00  0.0000000000000D+00
   421  4.2000000000000D+00  0.0000000000000D+00  0.0000000000000D+00
   422  4.2100000000000D+00  0.0000000000000D+00  0.0000000000000D+00
   423  4.2200000000000D+00  0.0000000000000D+00  0.0000000000000D+00