Na    ONCVPSP-3.3.1  r_core=   1.47844   2.29870
     11.0000      9.0000      210905    zatom,zion,pspd
     8 -116133   1     4   600     0    pspcod,pspxc,lmax,lloc,mmax,r2well
  5.99000000  0.00000000  0.00000000    rchrg fchrg qchrg
     2     2     0     0    nproj
     3     1           extension_switch
     2     0     0    nprojso
   0                        -1.2059873249838D+00  2.7036561704290D+00
     1  0.0000000000000D+00  1.7435342059002D-10 -7.6757245004444D-10
     2  1.0000000000000D-02  2.3702089436343D-02  1.2898275421037D-01
     3  2.0000000000000D-02  4.7478400788305D-02  2.5729793000288D-01
     4  3.0000000000000D-02  7.1402406714876D-02  3.8428201390097D-01
     5  4.0000000000000D-02  9.5546087131668D-02  5.0927959483324D-01
     6  5.0000000000000D-02  1.1997919721948D-01  6.3164734683769D-01
     7  6.0000000000000D-02  1.4476855256500D-01  7.5075793011342D-01
     8  7.0000000000000D-02  1.6997733693850D-01  8.6600378410730D-01
     9  8.0000000000000D-02  1.9566443803903D-01  9.7680078709057D-01
    10  9.0000000000000D-02  2.2188381632220D-01  1.0825917576294D+00
    11  1.0000000000000D-01  2.4868391177123D-01  1.1828497744778D+00
    12  1.1000000000000D-01  2.7610709317974D-01  1.2770812927116D+00
    13  1.2000000000000D-01  3.0418915418841D-01  1.3648290353723D+00
    14  1.3000000000000D-01  3.3295885995795D-01  1.4456746414848D+00
    15  1.4000000000000D-01  3.6243754797261D-01  1.5192410530451D+00
    16  1.5000000000000D-01  3.9263878605312D-01  1.5851946254330D+00
    17  1.6000000000000D-01  4.2356809021960D-01  1.6432469476682D+00
    18  1.7000000000000D-01  4.5522270458735D-01  1.6931563609939D+00
    19  1.8000000000000D-01  4.8759144500398D-01  1.7347291664151D+00
    20  1.9000000000000D-01  5.2065460765037D-01  1.7678205140322D+00
    21  2.0000000000000D-01  5.5438394333269D-01  1.7923349692678D+00
    22  2.1000000000000D-01  5.8874269769352D-01  1.8082267533845D+00
    23  2.2000000000000D-01  6.2368571706964D-01  1.8154996579984D+00
    24  2.3000000000000D-01  6.5915961922728D-01  1.8142066356086D+00
    25  2.4000000000000D-01  6.9510302771550D-01  1.8044490704587D+00
    26  2.5000000000000D-01  7.3144686809969D-01  1.7863757363049D+00
    27  2.6000000000000D-01  7.6811472387266D-01  1.7601814498807D+00
    28  2.7000000000000D-01  8.0502324939471D-01  1.7261054309917D+00
    29  2.8000000000000D-01  8.4208263679005D-01  1.6844293822351D+00
    30  2.9000000000000D-01  8.7919713332702D-01  1.6354753033055D+00
    31  3.0000000000000D-01  9.1626560543870D-01  1.5796030566974D+00
    32  3.1000000000000D-01  9.5318214519961D-01  1.5172077033411D+00
    33  3.2000000000000D-01  9.8983671476725D-01  1.4487166282935D+00
    34  3.3000000000000D-01  1.0261158240258D+00  1.3745864780374D+00
    35  3.4000000000000D-01  1.0619032364356D+00  1.2952999322133D+00
    36  3.5000000000000D-01  1.0970806978969D+00  1.2113623337050D+00
    37  3.6000000000000D-01  1.1315286832850D+00  1.1232982019170D+00
    38  3.7000000000000D-01  1.1651271551987D+00  1.0316476548066D+00
    39  3.8000000000000D-01  1.1977563293977D+00  9.3696276577089D-01
    40  3.9000000000000D-01  1.2292974413765D+00  8.3980388181988D-01
    41  4.0000000000000D-01  1.2596335085388D+00  7.4073592960355D-01
    42  4.1000000000000D-01  1.2886500824950D+00  6.4032473578966D-01
    43  4.2000000000000D-01  1.3162359861070D+00  5.3913338801976D-01
    44  4.3000000000000D-01  1.3422840300442D+00  4.3771866219940D-01
    45  4.4000000000000D-01  1.3666917037968D+00  3.3662754121106D-01
    46  4.5000000000000D-01  1.3893618363086D+00  2.3639384927993D-01
    47  4.6000000000000D-01  1.4102032216506D+00  1.3753502517909D-01
    48  4.7000000000000D-01  1.4291312054367D+00  4.0549056241098D-02
    49  4.8000000000000D-01  1.4460682280108D+00 -5.4088406243330D-02
    50  4.9000000000000D-01  1.4609443207732D+00 -1.4592673120151D-01
    51  5.0000000000000D-01  1.4736975523934D+00 -2.3454277417617D-01
    52  5.1000000000000D-01  1.4842744220459D+00 -3.1954311040616D-01
    53  5.2000000000000D-01  1.4926301972241D+00 -4.0056602098243D-01
    54  5.3000000000000D-01  1.4987291941107D+00 -4.7728322049961D-01
    55  5.4000000000000D-01  1.5025449989303D+00 -5.4940131673554D-01
    56  5.5000000000000D-01  1.5040606291539D+00 -6.1666299506918D-01
    57  5.6000000000000D-01  1.5032686338813D+00 -6.7884792256753D-01
    58  5.7000000000000D-01  1.5001711331827D+00 -7.3577336893093D-01
    59  5.8000000000000D-01  1.4947797966316D+00 -7.8729454374167D-01
    60  5.9000000000000D-01  1.4871157617072D+00 -8.3330465172240D-01
    61  6.0000000000000D-01  1.4772094931822D+00 -8.7373466992874D-01
    62  6.1000000000000D-01  1.4651005850319D+00 -9.0855285298967D-01
    63  6.2000000000000D-01  1.4508375068097D+00 -9.3776397461331D-01
    64  6.3000000000000D-01  1.4344772968187D+00 -9.6140831561871D-01
    65  6.4000000000000D-01  1.4160852047751D+00 -9.7956041067948D-01
    66  6.5000000000000D-01  1.3957342869960D+00 -9.9232756778318D-01
    67  6.6000000000000D-01  1.3735049574576D+00 -9.9984817609885D-01
    68  6.7000000000000D-01  1.3494844983506D+00 -1.0022898194801D+00
    69  6.8000000000000D-01  1.3237665340077D+00 -9.9984721421319D-01
    70  6.9000000000000D-01  1.2964504722964D+00 -9.9273999083311D-01
    71  7.0000000000000D-01  1.2676409177507D+00 -9.8121034085729D-01
    72  7.1000000000000D-01  1.2374470608601D+00 -9.6552055013107D-01
    73  7.2000000000000D-01  1.2059820480439D+00 -9.4595044112416D-01
    74  7.3000000000000D-01  1.1733623369107D+00 -9.2279474696499D-01
    75  7.4000000000000D-01  1.1397070414373D+00 -8.9636044024127D-01
    76  7.5000000000000D-01  1.1051372716987D+00 -8.6696403963349D-01
    77  7.6000000000000D-01  1.0697754727440D+00 -8.3492891728057D-01
    78  7.7000000000000D-01  1.0337447671382D+00 -8.0058262941083D-01
    79  7.8000000000000D-01  9.9716830558074D-01 -7.6425429220332D-01
    80  7.9000000000000D-01  9.6016862987242D-01 -7.2627202408804D-01
    81  8.0000000000000D-01  9.2286705232942D-01 -6.8696047475340D-01
    82  8.1000000000000D-01  8.8538305554080D-01 -6.4663846001443D-01
    83  8.2000000000000D-01  8.4783371613841D-01 -6.0561672041846D-01
    84  8.3000000000000D-01  8.1033315599412D-01 -5.6419582003820D-01
    85  8.4000000000000D-01  7.7299202398422D-01 -5.2266420034062D-01
    86  8.5000000000000D-01  7.3591701116549D-01 -4.8129640233735D-01
    87  8.6000000000000D-01  6.9921040189628D-01 -4.4035146843755D-01
    88  8.7000000000000D-01  6.6296966311039D-01 -4.0007153355260D-01
    89  8.8000000000000D-01  6.2728707361613D-01 -3.6068061306377D-01
    90  8.9000000000000D-01  5.9224939494882D-01 -3.2238359327676D-01
    91  9.0000000000000D-01  5.5793758495795D-01 -2.8536542797133D-01
    92  9.1000000000000D-01  5.2442655496005D-01 -2.4979054262870D-01
    93  9.2000000000000D-01  4.9178497094126D-01 -2.1580244590447D-01
    94  9.3000000000000D-01  4.6007509895006D-01 -1.8352354592979D-01
    95  9.4000000000000D-01  4.2935269448532D-01 -1.5305516708715D-01
    96  9.5000000000000D-01  3.9966693535949D-01 -1.2447776104106D-01
    97  9.6000000000000D-01  3.7106039720242D-01 -9.7851304008598D-02
    98  9.7000000000000D-01  3.4356907047839D-01 -7.3215870600626D-02
    99  9.8000000000000D-01  3.1722241760482D-01 -5.0592372975462D-02
   100  9.9000000000000D-01  2.9204346850265D-01 -2.9983452626994D-02
   101  1.0000000000000D+00  2.6804895267062D-01 -1.1374510849641D-02
   102  1.0100000000000D+00  2.4524946565915D-01  5.2651372077526D-03
   103  1.0200000000000D+00  2.2364966762935D-01  1.9981000943604D-02
   104  1.0300000000000D+00  2.0324851151473D-01  3.2832061994313D-02
   105  1.0400000000000D+00  1.8403949816947D-01  4.3889348627503D-02
   106  1.0500000000000D+00  1.6601095576833D-01  5.3234454695453D-02
   107  1.0600000000000D+00  1.4914634064164D-01  6.0958021212966D-02
   108  1.0700000000000D+00  1.3342455667054D-01  6.7158198666723D-02
   109  1.0800000000000D+00  1.1882029033736D-01  7.1939107998007D-02
   110  1.0900000000000D+00  1.0530435852225D-01  7.5409317878739D-02
   111  1.1000000000000D+00  9.2844066154207D-02  7.7680355410783D-02
   112  1.1100000000000D+00  8.1403570876786D-02  7.8865266640885D-02
   113  1.1200000000000D+00  7.0944251954342D-02  7.9077242485682D-02
   114  1.1300000000000D+00  6.1425080748517D-02  7.8428324550211D-02
   115  1.1400000000000D+00  5.2802990176925D-02  7.7028204470415D-02
   116  1.1500000000000D+00  4.5033240735260D-02  7.4983128786609D-02
   117  1.1600000000000D+00  3.8069780789211D-02  7.2394920213923D-02
   118  1.1700000000000D+00  3.1865599023487D-02  6.9360124552222D-02
   119  1.1800000000000D+00  2.6373067067051D-02  6.5969291306355D-02
   120  1.1900000000000D+00  2.1544270561684D-02  6.2306393960834D-02
   121  1.2000000000000D+00  1.7331327113908D-02  5.8448394416895D-02
   122  1.2100000000000D+00  1.3686689727964D-02  5.4464954777900D-02
   123  1.2200000000000D+00  1.0563434571523D-02  5.0418297582794D-02
   124  1.2300000000000D+00  7.9155321357190D-03  4.6363213923528D-02
   125  1.2400000000000D+00  5.6981010222232D-03  4.2347217537704D-02
   126  1.2500000000000D+00  3.8676437679333D-03  3.8410841549695D-02
   127  1.2600000000000D+00  2.3822644087668D-03  3.4588072331736D-02
   128  1.2700000000000D+00  1.2018675976613D-03  3.0906914152465D-02
   129  1.2800000000000D+00  2.8833922382209D-04  2.7390077243960D-02
   130  1.2900000000000D+00 -3.9429071833588D-04  2.4055784685805D-02
   131  1.3000000000000D+00 -8.7970434621468D-04  2.0918673597793D-02
   132  1.3100000000000D+00 -1.1991715961763D-03  1.7990758837422D-02
   133  1.3200000000000D+00 -1.3814480784497D-03  1.5282443598965D-02
   134  1.3300000000000D+00 -1.4526055953075D-03  1.2804437643298D-02
   135  1.3400000000000D+00 -1.4361991764165D-03  1.0566456941510D-02
   136  1.3500000000000D+00 -1.3535038616295D-03  8.5751745473500D-03
   137  1.3600000000000D+00 -1.2237420847298D-03  6.8317273542234D-03
   138  1.3700000000000D+00 -1.0641060694817D-03  5.3313833031292D-03
   139  1.3800000000000D+00 -8.8959832386529D-04  4.0650196438763D-03
   140  1.3900000000000D+00 -7.1300820885346D-04  3.0194801069375D-03
   141  1.4000000000000D+00 -5.4485494252507D-04  2.1783281961938D-03
   142  1.4100000000000D+00 -3.9335450782989D-04  1.5224563420275D-03
   143  1.4200000000000D+00 -2.6439308417088D-04  1.0306898175703D-03
   144  1.4300000000000D+00 -1.6149263285159D-04  6.8055195171884D-04
   145  1.4400000000000D+00 -8.5869427426504D-05  4.4795203285574D-04
   146  1.4500000000000D+00 -3.6448032129671D-05  3.0511332619452D-04
   147  1.4600000000000D+00 -9.4317442543295D-06  2.3727054380048D-04
   148  1.4700000000000D+00  1.0499893249942D-06  2.3121769333987D-04
   149  1.4800000000000D+00  2.3543463999601D-06  1.9210916883456D-04
   150  1.4900000000000D+00  8.5183769846628D-07  6.9361768713296D-05
   151  1.5000000000000D+00 -2.6378939520472D-07 -1.6769266830960D-05
   152  1.5100000000000D+00 -1.9131884428051D-07 -1.2041783620567D-05
   153  1.5200000000000D+00  7.9393735738962D-08  4.4376403670647D-06
   154  1.5300000000000D+00  3.1098634441747D-08  1.6979624090431D-06
   155  1.5400000000000D+00 -6.8271207173513D-09 -5.7804478931318D-07
   156  1.5500000000000D+00 -7.6945401187230D-10 -6.5148823434232D-08
   157  1.5600000000000D+00  0.0000000000000D+00  0.0000000000000D+00
   158  1.5700000000000D+00  0.0000000000000D+00  0.0000000000000D+00
   159  1.5800000000000D+00  0.0000000000000D+00  0.0000000000000D+00
   160  1.5900000000000D+00  0.0000000000000D+00  0.0000000000000D+00
   161  1.6000000000000D+00  0.0000000000000D+00  0.0000000000000D+00
   162  1.6100000000000D+00  0.0000000000000D+00  0.0000000000000D+00
   163  1.6200000000000D+00  0.0000000000000D+00  0.0000000000000D+00
   164  1.6300000000000D+00  0.0000000000000D+00  0.0000000000000D+00
   165  1.6400000000000D+00  0.0000000000000D+00  0.0000000000000D+00
   166  1.6500000000000D+00  0.0000000000000D+00  0.0000000000000D+00
   167  1.6600000000000D+00  0.0000000000000D+00  0.0000000000000D+00
   168  1.6700000000000D+00  0.0000000000000D+00  0.0000000000000D+00
   169  1.6800000000000D+00  0.0000000000000D+00  0.0000000000000D+00
   170  1.6900000000000D+00  0.0000000000000D+00  0.0000000000000D+00
   171  1.7000000000000D+00  0.0000000000000D+00  0.0000000000000D+00
   172  1.7100000000000D+00  0.0000000000000D+00  0.0000000000000D+00
   173  1.7200000000000D+00  0.0000000000000D+00  0.0000000000000D+00
   174  1.7300000000000D+00  0.0000000000000D+00  0.0000000000000D+00
   175  1.7400000000000D+00  0.0000000000000D+00  0.0000000000000D+00
   176  1.7500000000000D+00  0.0000000000000D+00  0.0000000000000D+00
   177  1.7600000000000D+00  0.0000000000000D+00  0.0000000000000D+00
   178  1.7700000000000D+00  0.0000000000000D+00  0.0000000000000D+00
   179  1.7800000000000D+00  0.0000000000000D+00  0.0000000000000D+00
   180  1.7900000000000D+00  0.0000000000000D+00  0.0000000000000D+00
   181  1.8000000000000D+00  0.0000000000000D+00  0.0000000000000D+00
   182  1.8100000000000D+00  0.0000000000000D+00  0.0000000000000D+00
   183  1.8200000000000D+00  0.0000000000000D+00  0.0000000000000D+00
   184  1.8300000000000D+00  0.0000000000000D+00  0.0000000000000D+00
   185  1.8400000000000D+00  0.0000000000000D+00  0.0000000000000D+00
   186  1.8500000000000D+00  0.0000000000000D+00  0.0000000000000D+00
   187  1.8600000000000D+00  0.0000000000000D+00  0.0000000000000D+00
   188  1.8700000000000D+00  0.0000000000000D+00  0.0000000000000D+00
   189  1.8800000000000D+00  0.0000000000000D+00  0.0000000000000D+00
   190  1.8900000000000D+00  0.0000000000000D+00  0.0000000000000D+00
   191  1.9000000000000D+00  0.0000000000000D+00  0.0000000000000D+00
   192  1.9100000000000D+00  0.0000000000000D+00  0.0000000000000D+00
   193  1.9200000000000D+00  0.0000000000000D+00  0.0000000000000D+00
   194  1.9300000000000D+00  0.0000000000000D+00  0.0000000000000D+00
   195  1.9400000000000D+00  0.0000000000000D+00  0.0000000000000D+00
   196  1.9500000000000D+00  0.0000000000000D+00  0.0000000000000D+00
   197  1.9600000000000D+00  0.0000000000000D+00  0.0000000000000D+00
   198  1.9700000000000D+00  0.0000000000000D+00  0.0000000000000D+00
   199  1.9800000000000D+00  0.0000000000000D+00  0.0000000000000D+00
   200  1.9900000000000D+00  0.0000000000000D+00  0.0000000000000D+00
   201  2.0000000000000D+00  0.0000000000000D+00  0.0000000000000D+00
   202  2.0100000000000D+00  0.0000000000000D+00  0.0000000000000D+00
   203  2.0200000000000D+00  0.0000000000000D+00  0.0000000000000D+00
   204  2.0300000000000D+00  0.0000000000000D+00  0.0000000000000D+00
   205  2.0400000000000D+00  0.0000000000000D+00  0.0000000000000D+00
   206  2.0500000000000D+00  0.0000000000000D+00  0.0000000000000D+00
   207  2.0600000000000D+00  0.0000000000000D+00  0.0000000000000D+00
   208  2.0700000000000D+00  0.0000000000000D+00  0.0000000000000D+00
   209  2.0800000000000D+00  0.0000000000000D+00  0.0000000000000D+00
   210  2.0900000000000D+00  0.0000000000000D+00  0.0000000000000D+00
   211  2.1000000000000D+00  0.0000000000000D+00  0.0000000000000D+00
   212  2.1100000000000D+00  0.0000000000000D+00  0.0000000000000D+00
   213  2.1200000000000D+00  0.0000000000000D+00  0.0000000000000D+00
   214  2.1300000000000D+00  0.0000000000000D+00  0.0000000000000D+00
   215  2.1400000000000D+00  0.0000000000000D+00  0.0000000000000D+00
   216  2.1500000000000D+00  0.0000000000000D+00  0.0000000000000D+00
   217  2.1600000000000D+00  0.0000000000000D+00  0.0000000000000D+00
   218  2.1700000000000D+00  0.0000000000000D+00  0.0000000000000D+00
   219  2.1800000000000D+00  0.0000000000000D+00  0.0000000000000D+00
   220  2.1900000000000D+00  0.0000000000000D+00  0.0000000000000D+00
   221  2.2000000000000D+00  0.0000000000000D+00  0.0000000000000D+00
   222  2.2100000000000D+00  0.0000000000000D+00  0.0000000000000D+00
   223  2.2200000000000D+00  0.0000000000000D+00  0.0000000000000D+00
   224  2.2300000000000D+00  0.0000000000000D+00  0.0000000000000D+00
   225  2.2400000000000D+00  0.0000000000000D+00  0.0000000000000D+00
   226  2.2500000000000D+00  0.0000000000000D+00  0.0000000000000D+00
   227  2.2600000000000D+00  0.0000000000000D+00  0.0000000000000D+00
   228  2.2700000000000D+00  0.0000000000000D+00  0.0000000000000D+00
   229  2.2800000000000D+00  0.0000000000000D+00  0.0000000000000D+00
   230  2.2900000000000D+00  0.0000000000000D+00  0.0000000000000D+00
   231  2.3000000000000D+00  0.0000000000000D+00  0.0000000000000D+00
   232  2.3100000000000D+00  0.0000000000000D+00  0.0000000000000D+00
   233  2.3200000000000D+00  0.0000000000000D+00  0.0000000000000D+00
   234  2.3300000000000D+00  0.0000000000000D+00  0.0000000000000D+00
   235  2.3400000000000D+00  0.0000000000000D+00  0.0000000000000D+00
   236  2.3500000000000D+00  0.0000000000000D+00  0.0000000000000D+00
   237  2.3600000000000D+00  0.0000000000000D+00  0.0000000000000D+00
   238  2.3700000000000D+00  0.0000000000000D+00  0.0000000000000D+00
   239  2.3800000000000D+00  0.0000000000000D+00  0.0000000000000D+00
   240  2.3900000000000D+00  0.0000000000000D+00  0.0000000000000D+00
   241  2.4000000000000D+00  0.0000000000000D+00  0.0000000000000D+00
   242  2.4100000000000D+00  0.0000000000000D+00  0.0000000000000D+00
   243  2.4200000000000D+00  0.0000000000000D+00  0.0000000000000D+00
   244  2.4300000000000D+00  0.0000000000000D+00  0.0000000000000D+00
   245  2.4400000000000D+00  0.0000000000000D+00  0.0000000000000D+00
   246  2.4500000000000D+00  0.0000000000000D+00  0.0000000000000D+00
   247  2.4600000000000D+00  0.0000000000000D+00  0.0000000000000D+00
   248  2.4700000000000D+00  0.0000000000000D+00  0.0000000000000D+00
   249  2.4800000000000D+00  0.0000000000000D+00  0.0000000000000D+00
   250  2.4900000000000D+00  0.0000000000000D+00  0.0000000000000D+00
   251  2.5000000000000D+00  0.0000000000000D+00  0.0000000000000D+00
   252  2.5100000000000D+00  0.0000000000000D+00  0.0000000000000D+00
   253  2.5200000000000D+00  0.0000000000000D+00  0.0000000000000D+00
   254  2.5300000000000D+00  0.0000000000000D+00  0.0000000000000D+00
   255  2.5400000000000D+00  0.0000000000000D+00  0.0000000000000D+00
   256  2.5500000000000D+00  0.0000000000000D+00  0.0000000000000D+00
   257  2.5600000000000D+00  0.0000000000000D+00  0.0000000000000D+00
   258  2.5700000000000D+00  0.0000000000000D+00  0.0000000000000D+00
   259  2.5800000000000D+00  0.0000000000000D+00  0.0000000000000D+00
   260  2.5900000000000D+00  0.0000000000000D+00  0.0000000000000D+00
   261  2.6000000000000D+00  0.0000000000000D+00  0.0000000000000D+00
   262  2.6100000000000D+00  0.0000000000000D+00  0.0000000000000D+00
   263  2.6200000000000D+00  0.0000000000000D+00  0.0000000000000D+00
   264  2.6300000000000D+00  0.0000000000000D+00  0.0000000000000D+00
   265  2.6400000000000D+00  0.0000000000000D+00  0.0000000000000D+00
   266  2.6500000000000D+00  0.0000000000000D+00  0.0000000000000D+00
   267  2.6600000000000D+00  0.0000000000000D+00  0.0000000000000D+00
   268  2.6700000000000D+00  0.0000000000000D+00  0.0000000000000D+00
   269  2.6800000000000D+00  0.0000000000000D+00  0.0000000000000D+00
   270  2.6900000000000D+00  0.0000000000000D+00  0.0000000000000D+00
   271  2.7000000000000D+00  0.0000000000000D+00  0.0000000000000D+00
   272  2.7100000000000D+00  0.0000000000000D+00  0.0000000000000D+00
   273  2.7200000000000D+00  0.0000000000000D+00  0.0000000000000D+00
   274  2.7300000000000D+00  0.0000000000000D+00  0.0000000000000D+00
   275  2.7400000000000D+00  0.0000000000000D+00  0.0000000000000D+00
   276  2.7500000000000D+00  0.0000000000000D+00  0.0000000000000D+00
   277  2.7600000000000D+00  0.0000000000000D+00  0.0000000000000D+00
   278  2.7700000000000D+00  0.0000000000000D+00  0.0000000000000D+00
   279  2.7800000000000D+00  0.0000000000000D+00  0.0000000000000D+00
   280  2.7900000000000D+00  0.0000000000000D+00  0.0000000000000D+00
   281  2.8000000000000D+00  0.0000000000000D+00  0.0000000000000D+00
   282  2.8100000000000D+00  0.0000000000000D+00  0.0000000000000D+00
   283  2.8200000000000D+00  0.0000000000000D+00  0.0000000000000D+00
   284  2.8300000000000D+00  0.0000000000000D+00  0.0000000000000D+00
   285  2.8400000000000D+00  0.0000000000000D+00  0.0000000000000D+00
   286  2.8500000000000D+00  0.0000000000000D+00  0.0000000000000D+00
   287  2.8600000000000D+00  0.0000000000000D+00  0.0000000000000D+00
   288  2.8700000000000D+00  0.0000000000000D+00  0.0000000000000D+00
   289  2.8800000000000D+00  0.0000000000000D+00  0.0000000000000D+00
   290  2.8900000000000D+00  0.0000000000000D+00  0.0000000000000D+00
   291  2.9000000000000D+00  0.0000000000000D+00  0.0000000000000D+00
   292  2.9100000000000D+00  0.0000000000000D+00  0.0000000000000D+00
   293  2.9200000000000D+00  0.0000000000000D+00  0.0000000000000D+00
   294  2.9300000000000D+00  0.0000000000000D+00  0.0000000000000D+00
   295  2.9400000000000D+00  0.0000000000000D+00  0.0000000000000D+00
   296  2.9500000000000D+00  0.0000000000000D+00  0.0000000000000D+00
   297  2.9600000000000D+00  0.0000000000000D+00  0.0000000000000D+00
   298  2.9700000000000D+00  0.0000000000000D+00  0.0000000000000D+00
   299  2.9800000000000D+00  0.0000000000000D+00  0.0000000000000D+00
   300  2.9900000000000D+00  0.0000000000000D+00  0.0000000000000D+00
   301  3.0000000000000D+00  0.0000000000000D+00  0.0000000000000D+00
   302  3.0100000000000D+00  0.0000000000000D+00  0.0000000000000D+00
   303  3.0200000000000D+00  0.0000000000000D+00  0.0000000000000D+00
   304  3.0300000000000D+00  0.0000000000000D+00  0.0000000000000D+00
   305  3.0400000000000D+00  0.0000000000000D+00  0.0000000000000D+00
   306  3.0500000000000D+00  0.0000000000000D+00  0.0000000000000D+00
   307  3.0600000000000D+00  0.0000000000000D+00  0.0000000000000D+00
   308  3.0700000000000D+00  0.0000000000000D+00  0.0000000000000D+00
   309  3.0800000000000D+00  0.0000000000000D+00  0.0000000000000D+00
   310  3.0900000000000D+00  0.0000000000000D+00  0.0000000000000D+00
   311  3.1000000000000D+00  0.0000000000000D+00  0.0000000000000D+00
   312  3.1100000000000D+00  0.0000000000000D+00  0.0000000000000D+00
   313  3.1200000000000D+00  0.0000000000000D+00  0.0000000000000D+00
   314  3.1300000000000D+00  0.0000000000000D+00  0.0000000000000D+00
   315  3.1400000000000D+00  0.0000000000000D+00  0.0000000000000D+00
   316  3.1500000000000D+00  0.0000000000000D+00  0.0000000000000D+00
   317  3.1600000000000D+00  0.0000000000000D+00  0.0000000000000D+00
   318  3.1700000000000D+00  0.0000000000000D+00  0.0000000000000D+00
   319  3.1800000000000D+00  0.0000000000000D+00  0.0000000000000D+00
   320  3.1900000000000D+00  0.0000000000000D+00  0.0000000000000D+00
   321  3.2000000000000D+00  0.0000000000000D+00  0.0000000000000D+00
   322  3.2100000000000D+00  0.0000000000000D+00  0.0000000000000D+00
   323  3.2200000000000D+00  0.0000000000000D+00  0.0000000000000D+00
   324  3.2300000000000D+00  0.0000000000000D+00  0.0000000000000D+00
   325  3.2400000000000D+00  0.0000000000000D+00  0.0000000000000D+00
   326  3.2500000000000D+00  0.0000000000000D+00  0.0000000000000D+00
   327  3.2600000000000D+00  0.0000000000000D+00  0.0000000000000D+00
   328  3.2700000000000D+00  0.0000000000000D+00  0.0000000000000D+00
   329  3.2800000000000D+00  0.0000000000000D+00  0.0000000000000D+00
   330  3.2900000000000D+00  0.0000000000000D+00  0.0000000000000D+00
   331  3.3000000000000D+00  0.0000000000000D+00  0.0000000000000D+00
   332  3.3100000000000D+00  0.0000000000000D+00  0.0000000000000D+00
   333  3.3200000000000D+00  0.0000000000000D+00  0.0000000000000D+00
   334  3.3300000000000D+00  0.0000000000000D+00  0.0000000000000D+00
   335  3.3400000000000D+00  0.0000000000000D+00  0.0000000000000D+00
   336  3.3500000000000D+00  0.0000000000000D+00  0.0000000000000D+00
   337  3.3600000000000D+00  0.0000000000000D+00  0.0000000000000D+00
   338  3.3700000000000D+00  0.0000000000000D+00  0.0000000000000D+00
   339  3.3800000000000D+00  0.0000000000000D+00  0.0000000000000D+00
   340  3.3900000000000D+00  0.0000000000000D+00  0.0000000000000D+00
   341  3.4000000000000D+00  0.0000000000000D+00  0.0000000000000D+00
   342  3.4100000000000D+00  0.0000000000000D+00  0.0000000000000D+00
   343  3.4200000000000D+00  0.0000000000000D+00  0.0000000000000D+00
   344  3.4300000000000D+00  0.0000000000000D+00  0.0000000000000D+00
   345  3.4400000000000D+00  0.0000000000000D+00  0.0000000000000D+00
   346  3.4500000000000D+00  0.0000000000000D+00  0.0000000000000D+00
   347  3.4600000000000D+00  0.0000000000000D+00  0.0000000000000D+00
   348  3.4700000000000D+00  0.0000000000000D+00  0.0000000000000D+00
   349  3.4800000000000D+00  0.0000000000000D+00  0.0000000000000D+00
   350  3.4900000000000D+00  0.0000000000000D+00  0.0000000000000D+00
   351  3.5000000000000D+00  0.0000000000000D+00  0.0000000000000D+00
   352  3.5100000000000D+00  0.0000000000000D+00  0.0000000000000D+00
   353  3.5200000000000D+00  0.0000000000000D+00  0.0000000000000D+00
   354  3.5300000000000D+00  0.0000000000000D+00  0.0000000000000D+00
   355  3.5400000000000D+00  0.0000000000000D+00  0.0000000000000D+00
   356  3.5500000000000D+00  0.0000000000000D+00  0.0000000000000D+00
   357  3.5600000000000D+00  0.0000000000000D+00  0.0000000000000D+00
   358  3.5700000000000D+00  0.0000000000000D+00  0.0000000000000D+00
   359  3.5800000000000D+00  0.0000000000000D+00  0.0000000000000D+00
   360  3.5900000000000D+00  0.0000000000000D+00  0.0000000000000D+00
   361  3.6000000000000D+00  0.0000000000000D+00  0.0000000000000D+00
   362  3.6100000000000D+00  0.0000000000000D+00  0.0000000000000D+00
   363  3.6200000000000D+00  0.0000000000000D+00  0.0000000000000D+00
   364  3.6300000000000D+00  0.0000000000000D+00  0.0000000000000D+00
   365  3.6400000000000D+00  0.0000000000000D+00  0.0000000000000D+00
   366  3.6500000000000D+00  0.0000000000000D+00  0.0000000000000D+00
   367  3.6600000000000D+00  0.0000000000000D+00  0.0000000000000D+00
   368  3.6700000000000D+00  0.0000000000000D+00  0.0000000000000D+00
   369  3.6800000000000D+00  0.0000000000000D+00  0.0000000000000D+00
   370  3.6900000000000D+00  0.0000000000000D+00  0.0000000000000D+00
   371  3.7000000000000D+00  0.0000000000000D+00  0.0000000000000D+00
   372  3.7100000000000D+00  0.0000000000000D+00  0.0000000000000D+00
   373  3.7200000000000D+00  0.0000000000000D+00  0.0000000000000D+00
   374  3.7300000000000D+00  0.0000000000000D+00  0.0000000000000D+00
   375  3.7400000000000D+00  0.0000000000000D+00  0.0000000000000D+00
   376  3.7500000000000D+00  0.0000000000000D+00  0.0000000000000D+00
   377  3.7600000000000D+00  0.0000000000000D+00  0.0000000000000D+00
   378  3.7700000000000D+00  0.0000000000000D+00  0.0000000000000D+00
   379  3.7800000000000D+00  0.0000000000000D+00  0.0000000000000D+00
   380  3.7900000000000D+00  0.0000000000000D+00  0.0000000000000D+00
   381  3.8000000000000D+00  0.0000000000000D+00  0.0000000000000D+00
   382  3.8100000000000D+00  0.0000000000000D+00  0.0000000000000D+00
   383  3.8200000000000D+00  0.0000000000000D+00  0.0000000000000D+00
   384  3.8300000000000D+00  0.0000000000000D+00  0.0000000000000D+00
   385  3.8400000000000D+00  0.0000000000000D+00  0.0000000000000D+00
   386  3.8500000000000D+00  0.0000000000000D+00  0.0000000000000D+00
   387  3.8600000000000D+00  0.0000000000000D+00  0.0000000000000D+00
   388  3.8700000000000D+00  0.0000000000000D+00  0.0000000000000D+00
   389  3.8800000000000D+00  0.0000000000000D+00  0.0000000000000D+00
   390  3.8900000000000D+00  0.0000000000000D+00  0.0000000000000D+00
   391  3.9000000000000D+00  0.0000000000000D+00  0.0000000000000D+00
   392  3.9100000000000D+00  0.0000000000000D+00  0.0000000000000D+00
   393  3.9200000000000D+00  0.0000000000000D+00  0.0000000000000D+00
   394  3.9300000000000D+00  0.0000000000000D+00  0.0000000000000D+00
   395  3.9400000000000D+00  0.0000000000000D+00  0.0000000000000D+00
   396  3.9500000000000D+00  0.0000000000000D+00  0.0000000000000D+00
   397  3.9600000000000D+00  0.0000000000000D+00  0.0000000000000D+00
   398  3.9700000000000D+00  0.0000000000000D+00  0.0000000000000D+00
   399  3.9800000000000D+00  0.0000000000000D+00  0.0000000000000D+00
   400  3.9900000000000D+00  0.0000000000000D+00  0.0000000000000D+00
   401  4.0000000000000D+00  0.0000000000000D+00  0.0000000000000D+00
   402  4.0100000000000D+00  0.0000000000000D+00  0.0000000000000D+00
   403  4.0200000000000D+00  0.0000000000000D+00  0.0000000000000D+00
   404  4.0300000000000D+00  0.0000000000000D+00  0.0000000000000D+00
   405  4.0400000000000D+00  0.0000000000000D+00  0.0000000000000D+00
   406  4.0500000000000D+00  0.0000000000000D+00  0.0000000000000D+00
   407  4.0600000000000D+00  0.0000000000000D+00  0.0000000000000D+00
   408  4.0700000000000D+00  0.0000000000000D+00  0.0000000000000D+00
   409  4.0800000000000D+00  0.0000000000000D+00  0.0000000000000D+00
   410  4.0900000000000D+00  0.0000000000000D+00  0.0000000000000D+00
   411  4.1000000000000D+00  0.0000000000000D+00  0.0000000000000D+00
   412  4.1100000000000D+00  0.0000000000000D+00  0.0000000000000D+00
   413  4.1200000000000D+00  0.0000000000000D+00  0.0000000000000D+00
   414  4.1300000000000D+00  0.0000000000000D+00  0.0000000000000D+00
   415  4.1400000000000D+00  0.0000000000000D+00  0.0000000000000D+00
   416  4.1500000000000D+00  0.0000000000000D+00  0.0000000000000D+00
   417  4.1600000000000D+00  0.0000000000000D+00  0.0000000000000D+00
   418  4.1700000000000D+00  0.0000000000000D+00  0.0000000000000D+00
   419  4.1800000000000D+00  0.0000000000000D+00  0.0000000000000D+00
   420  4.1900000000000D+00  0.0000000000000D+00  0.0000000000000D+00
   421  4.2000000000000D+00  0.0000000000000D+00  0.0000000000000D+00
   422  4.2100000000000D+00  0.0000000000000D+00  0.0000000000000D+00