Nb    ONCVPSP-3.3.1  r_core=   1.67979   1.64019   1.65987
     41.0000     13.0000      210905    zatom,zion,pspd
     8 -116133   2     4   600     0    pspcod,pspxc,lmax,lloc,mmax,r2well
  5.99000000  0.00000000  0.00000000    rchrg fchrg qchrg
     2     2     2     0     0    nproj
     1     1           extension_switch
   0                         1.1208894772157D+01  1.0997783528661D+00
     1  0.0000000000000D+00  2.5401669656588D-10 -1.2387538217418D-09
     2  1.0000000000000D-02  5.0349408676508D-02  1.2184996171830D-02
     3  2.0000000000000D-02  1.0069125611369D-01  2.4107076768826D-02
     4  3.0000000000000D-02  1.5101735289511D-01  3.5506560060272D-02
     5  4.0000000000000D-02  2.0131826022955D-01  4.6130199066892D-02
     6  5.0000000000000D-02  2.5158268264714D-01  5.5734316911671D-02
     7  6.0000000000000D-02  3.0179688137451D-01  6.4087844625563D-02
     8  7.0000000000000D-02  3.5194411498158D-01  7.0975230358962D-02
     9  8.0000000000000D-02  4.0200411363861D-01  7.6199190188565D-02
    10  9.0000000000000D-02  4.5195259300872D-01  7.9583272236198D-02
    11  1.0000000000000D-01  5.0176081343162D-01  8.0974207616529D-02
    12  1.1000000000000D-01  5.5139518963098D-01  8.0244023788041D-02
    13  1.2000000000000D-01  6.0081695570570D-01  7.7291898176765D-02
    14  1.3000000000000D-01  6.4998188964779D-01  7.2045732453286D-02
    15  1.4000000000000D-01  6.9884010107109D-01  6.4463430547804D-02
    16  1.5000000000000D-01  7.4733588524153D-01  5.4533866358864D-02
    17  1.6000000000000D-01  7.9540764587528D-01  4.2277530123388D-02
    18  1.7000000000000D-01  8.4298788852208D-01  2.7746845538862D-02
    19  1.8000000000000D-01  8.9000328568371D-01  1.1026152934829D-02
    20  1.9000000000000D-01  9.3637481413623D-01 -7.7686429508326D-03
    21  2.0000000000000D-01  9.8201796423743D-01 -2.8490758755661D-02
    22  2.1000000000000D-01  1.0268430203128D+00 -5.0963546731257D-02
    23  2.2000000000000D-01  1.0707554105305D+00 -7.4981829103003D-02
    24  2.3000000000000D-01  1.1136561240064D+00 -1.0031354105942D-01
    25  2.4000000000000D-01  1.1554421922246D+00 -1.2670166782517D-01
    26  2.5000000000000D-01  1.1960072312344D+00 -1.5386645834826D-01
    27  2.6000000000000D-01  1.2352420404820D+00 -1.8150789536797D-01
    28  2.7000000000000D-01  1.2730352535719D+00 -2.0930839905373D-01
    29  2.8000000000000D-01  1.3092740357312D+00 -2.3693573903995D-01
    30  2.9000000000000D-01  1.3438448222699D+00 -2.6404612755204D-01
    31  3.0000000000000D-01  1.3766340919026D+00 -2.9028746444593D-01
    32  3.1000000000000D-01  1.4075291684213D+00 -3.1530270338501D-01
    33  3.2000000000000D-01  1.4364190438943D+00 -3.3873330707213D-01
    34  3.3000000000000D-01  1.4631952163056D+00 -3.6022275845257D-01
    35  3.4000000000000D-01  1.4877525343588D+00 -3.7942009411849D-01
    36  3.5000000000000D-01  1.5099900420385D+00 -3.9598342578268D-01
    37  3.6000000000000D-01  1.5298118154608D+00 -4.0958341565585D-01
    38  3.7000000000000D-01  1.5471277845484D+00 -4.1990667185702D-01
    39  3.8000000000000D-01  1.5618545321389D+00 -4.2665903061040D-01
    40  3.9000000000000D-01  1.5739160632729D+00 -4.2956869292939D-01
    41  4.0000000000000D-01  1.5832445376141D+00 -4.2838918475036D-01
    42  4.1000000000000D-01  1.5897809582224D+00 -4.2290211104629D-01
    43  4.2000000000000D-01  1.5934758102324D+00 -4.1291967630709D-01
    44  4.3000000000000D-01  1.5942896433810D+00 -3.9828694590421D-01
    45  4.4000000000000D-01  1.5921935927718D+00 -3.7888382524208D-01
    46  4.5000000000000D-01  1.5871698327658D+00 -3.5462673621458D-01
    47  4.6000000000000D-01  1.5792119594304D+00 -3.2546997330843D-01
    48  4.7000000000000D-01  1.5683252975709D+00 -2.9140672469937D-01
    49  4.8000000000000D-01  1.5545271289915D+00 -2.5246974684152D-01
    50  4.9000000000000D-01  1.5378468392948D+00 -2.0873168432894D-01
    51  5.0000000000000D-01  1.5183259812091D+00 -1.6030503017415D-01
    52  5.1000000000000D-01  1.4960182531423D+00 -1.0734172507326D-01
    53  5.2000000000000D-01  1.4709893923723D+00 -5.0032397675929D-02
    54  5.3000000000000D-01  1.4433169830145D+00  1.1394748682159D-02
    55  5.4000000000000D-01  1.4130901796298D+00  7.6675393933577D-02
    56  5.5000000000000D-01  1.3804093480526D+00  1.4551089174871D-01
    57  5.6000000000000D-01  1.3453856257300D+00  2.1757037714184D-01
    58  5.7000000000000D-01  1.3081404045443D+00  2.9249317277101D-01
    59  5.8000000000000D-01  1.2688047397572D+00  3.6989147259039D-01
    60  5.9000000000000D-01  1.2275186893375D+00  4.4935327882925D-01
    61  6.0000000000000D-01  1.1844305885330D+00  5.3044556580174D-01
    62  6.1000000000000D-01  1.1396962650897D+00  6.1271764185026D-01
    63  6.2000000000000D-01  1.0934782010273D+00  6.9570467878928D-01
    64  6.3000000000000D-01  1.0459446473251D+00  7.7893137658301D-01
    65  6.4000000000000D-01  9.9726869826548D-01  8.6191572967214D-01
    66  6.5000000000000D-01  9.4762733251431D-01  9.4417286036758D-01
    67  6.6000000000000D-01  8.9720042828350D-01  1.0252188840787D+00
    68  6.7000000000000D-01  8.4616976012532D-01  1.1045747708319D+00
    69  6.8000000000000D-01  7.9471798504216D-01  1.1817701675782D+00
    70  6.9000000000000D-01  7.4302762566167D-01  1.2563471461786D+00
    71  7.0000000000000D-01  6.9128005822480D-01  1.3278638426901D+00
    72  7.1000000000000D-01  6.3965451306236D-01  1.3958979546569D+00
    73  7.2000000000000D-01  5.8832709509606D-01  1.4600500645122D+00
    74  7.3000000000000D-01  5.3746983169400D-01  1.5199467589190D+00
    75  7.4000000000000D-01  4.8724975493890D-01  1.5752435159001D+00
    76  7.5000000000000D-01  4.3782802503740D-01  1.6256273338955D+00
    77  7.6000000000000D-01  3.8935910120565D-01  1.6708190794490D+00
    78  7.7000000000000D-01  3.4198996592327D-01  1.7105755329984D+00
    79  7.8000000000000D-01  2.9585940795245D-01  1.7446911152296D+00
    80  7.9000000000000D-01  2.5109736897951D-01  1.7729992796030D+00
    81  8.0000000000000D-01  2.0782435815686D-01  1.7953735599528D+00
    82  8.1000000000000D-01  1.6615093820995D-01  1.8117282654529D+00
    83  8.2000000000000D-01  1.2617728613319D-01  1.8220188187035D+00
    84  8.3000000000000D-01  8.7992830835718D-02  1.8262417361919D+00
    85  8.4000000000000D-01  5.1675969420401D-02  1.8244342538689D+00
    86  8.5000000000000D-01  1.7293863093174D-02  1.8166736040415D+00
    87  8.6000000000000D-01 -1.5097686988268D-02  1.8030759531558D+00
    88  8.7000000000000D-01 -4.5454284300822D-02  1.7837950133160D+00
    89  8.8000000000000D-01 -7.3742903023649D-02  1.7590203435080D+00
    90  8.9000000000000D-01 -9.9941777287874D-02  1.7289753594450D+00
    91  9.0000000000000D-01 -1.2404021593912D-01  1.6939150736912D+00
    92  9.1000000000000D-01 -1.4603834574446D-01  1.6541235902264D+00
    93  9.2000000000000D-01 -1.6594678654031D-01  1.6099113798577D+00
    94  9.3000000000000D-01 -1.8378626234245D-01  1.5616123648403D+00
    95  9.4000000000000D-01 -1.9958715291865D-01  1.5095808427283D+00
    96  9.5000000000000D-01 -2.1338899075392D-01  1.4541882808029D+00
    97  9.6000000000000D-01 -2.2523990871545D-01  1.3958200134298D+00
    98  9.7000000000000D-01 -2.3519604404405D-01  1.3348718753445D+00
    99  9.8000000000000D-01 -2.4332090456130D-01  1.2717468041742D+00
   100  9.9000000000000D-01 -2.4968470318099D-01  1.2068514454379D+00
   101  1.0000000000000D+00 -2.5436366695313D-01  1.1405927929011D+00
   102  1.0100000000000D+00 -2.5743932694687D-01  1.0733748963777D+00
   103  1.0200000000000D+00 -2.5899779529047D-01  1.0055956680143D+00
   104  1.0300000000000D+00 -2.5912903564020D-01  9.3764381667973D-01
   105  1.0400000000000D+00 -2.5792613324474D-01  8.6989593839497D-01
   106  1.0500000000000D+00 -2.5548457059148D-01  8.0271378862202D-01
   107  1.0600000000000D+00 -2.5190151443221D-01  7.3644176025582D-01
   108  1.0700000000000D+00 -2.4727511967332D-01  6.7140458831633D-01
   109  1.0800000000000D+00 -2.4170385531886D-01  6.0790529987560D-01
   110  1.0900000000000D+00 -2.3528585727919D-01  5.4622342478852D-01
   111  1.1000000000000D+00 -2.2811831242889D-01  4.8661347963359D-01
   112  1.1100000000000D+00 -2.2029687792640D-01  4.2930373459851D-01
   113  1.1200000000000D+00 -2.1191513923797D-01  3.7449526917067D-01
   114  1.1300000000000D+00 -2.0306410989098D-01  3.2236131977066D-01
   115  1.1400000000000D+00 -1.9383177538248D-01  2.7304691869597D-01
   116  1.1500000000000D+00 -1.8430268329088D-01  2.2666882139522D-01
   117  1.1600000000000D+00 -1.7455758092520D-01  1.8331571486632D-01
   118  1.1700000000000D+00 -1.6467310142561D-01  1.4304869762066D-01
   119  1.1800000000000D+00 -1.5472149862292D-01  1.0590201834660D-01
   120  1.1900000000000D+00 -1.4477043059910D-01  7.1884058402633D-02
   121  1.2000000000000D+00 -1.3488279116571D-01  4.0978539609378D-02
   122  1.2100000000000D+00 -1.2511658811161D-01  1.3145937175552D-02
   123  1.2200000000000D+00 -1.1552486668870D-01 -1.1674924220395D-02
   124  1.2300000000000D+00 -1.0615567624589D-01 -3.3565115607364D-02
   125  1.2400000000000D+00 -9.7052077546616D-02 -5.2623715842744D-02
   126  1.2500000000000D+00 -8.8252188042389D-02 -6.8965817216445D-02
   127  1.2600000000000D+00 -7.9789262019899D-02 -8.2720452354828D-02
   128  1.2700000000000D+00 -7.1691802178819D-02 -9.4028470748206D-02
   129  1.2800000000000D+00 -6.3983699124594D-02 -1.0304039300891D-01
   130  1.2900000000000D+00 -5.6684395010836D-02 -1.0991427161510D-01
   131  1.3000000000000D+00 -4.9809067389433D-02 -1.1481358566074D-01
   132  1.3100000000000D+00 -4.3368829374721D-02 -1.1790519659787D-01
   133  1.3200000000000D+00 -3.7370942052868D-02 -1.1935739182470D-01
   134  1.3300000000000D+00 -3.1819035210206D-02 -1.1933803951898D-01
   135  1.3400000000000D+00 -2.6713332448430D-02 -1.1801287865417D-01
   136  1.3500000000000D+00 -2.2050876785826D-02 -1.1554396579140D-01
   137  1.3600000000000D+00 -1.7825753290852D-02 -1.1208829541185D-01
   138  1.3700000000000D+00 -1.4029304978630D-02 -1.0779661380610D-01
   139  1.3800000000000D+00 -1.0650338893940D-02 -1.0281243830620D-01
   140  1.3900000000000D+00 -7.6753194505261D-03 -9.7271293140268D-02
   141  1.4000000000000D+00 -5.0885458899652D-03 -9.1300174202992D-02
   142  1.4100000000000D+00 -2.8723120111039D-03 -8.5017243516858D-02
   143  1.4200000000000D+00 -1.0070455119167D-03 -7.8531761486587D-02
   144  1.4300000000000D+00  5.2857712716426D-04 -7.1944266083912D-02
   145  1.4400000000000D+00  1.7575282024672D-03 -6.5346935797640D-02
   146  1.4500000000000D+00  2.7043774405017D-03 -5.8824301582178D-02
   147  1.4600000000000D+00  3.3951439115822D-03 -5.2453638062387D-02
   148  1.4700000000000D+00  3.8575897369592D-03 -4.6307403197700D-02
   149  1.4800000000000D+00  4.1208875689129D-03 -4.0452998533176D-02
   150  1.4900000000000D+00  4.2145674281939D-03 -3.4949353199412D-02
   151  1.5000000000000D+00  4.1675900399335D-03 -2.9844350986007D-02
   152  1.5100000000000D+00  4.0071110546730D-03 -2.5171032789979D-02
   153  1.5200000000000D+00  3.7584326985183D-03 -2.0949142588793D-02
   154  1.5300000000000D+00  3.4450205281200D-03 -1.7187022269161D-02
   155  1.5400000000000D+00  3.0882642482187D-03 -1.3882295604596D-02
   156  1.5500000000000D+00  2.7074168695094D-03 -1.1023345733982D-02
   157  1.5600000000000D+00  2.3195000989035D-03 -8.5905905902666D-03
   158  1.5700000000000D+00  1.9392431996233D-03 -6.5578485415615D-03
   159  1.5800000000000D+00  1.5790357667059D-03 -4.8936914330591D-03
   160  1.5900000000000D+00  1.2488944508275D-03 -3.5627692582782D-03
   161  1.6000000000000D+00  9.5644239777537D-04 -2.5270911399952D-03
   162  1.6100000000000D+00  7.0689972423001D-04 -1.7472371070066D-03
   163  1.6200000000000D+00  5.0308354978911D-04 -1.1834904429506D-03
   164  1.6300000000000D+00  3.4557273259394D-04 -7.9745779620329D-04
   165  1.6400000000000D+00  2.3194460410680D-04 -5.5003290070952D-04
   166  1.6500000000000D+00  1.5651765193101D-04 -4.0216321444541D-04
   167  1.6600000000000D+00  1.1808687456611D-04 -3.3944687742865D-04
   168  1.6700000000000D+00  1.1103409538987D-04 -3.4340933461738D-04
   169  1.6800000000000D+00  9.7840914937204D-05 -3.0803808898413D-04
   170  1.6900000000000D+00  4.9015810794964D-05 -1.5483677134169D-04
   171  1.7000000000000D+00 -1.3682203226955D-07  4.3506858381978D-07
   172  1.7100000000000D+00 -1.0108138042684D-05  3.2186910531336D-05
   173  1.7200000000000D+00 -4.2497176482744D-07  1.3541495746084D-06
   174  1.7300000000000D+00  2.3012156424670D-06 -7.3366330364838D-06
   175  1.7400000000000D+00  3.0733680256009D-07 -9.8054616254561D-07
   176  1.7500000000000D+00 -2.7720129541792D-07  8.7257144124981D-07
   177  1.7600000000000D+00 -7.3427432975309D-08  2.3113413276782D-07
   178  1.7700000000000D+00  0.0000000000000D+00  0.0000000000000D+00
   179  1.7800000000000D+00  0.0000000000000D+00  0.0000000000000D+00
   180  1.7900000000000D+00  0.0000000000000D+00  0.0000000000000D+00
   181  1.8000000000000D+00  0.0000000000000D+00  0.0000000000000D+00
   182  1.8100000000000D+00  0.0000000000000D+00  0.0000000000000D+00
   183  1.8200000000000D+00  0.0000000000000D+00  0.0000000000000D+00
   184  1.8300000000000D+00  0.0000000000000D+00  0.0000000000000D+00
   185  1.8400000000000D+00  0.0000000000000D+00  0.0000000000000D+00
   186  1.8500000000000D+00  0.0000000000000D+00  0.0000000000000D+00
   187  1.8600000000000D+00  0.0000000000000D+00  0.0000000000000D+00
   188  1.8700000000000D+00  0.0000000000000D+00  0.0000000000000D+00
   189  1.8800000000000D+00  0.0000000000000D+00  0.0000000000000D+00
   190  1.8900000000000D+00  0.0000000000000D+00  0.0000000000000D+00
   191  1.9000000000000D+00  0.0000000000000D+00  0.0000000000000D+00
   192  1.9100000000000D+00  0.0000000000000D+00  0.0000000000000D+00
   193  1.9200000000000D+00  0.0000000000000D+00  0.0000000000000D+00
   194  1.9300000000000D+00  0.0000000000000D+00  0.0000000000000D+00
   195  1.9400000000000D+00  0.0000000000000D+00  0.0000000000000D+00
   196  1.9500000000000D+00  0.0000000000000D+00  0.0000000000000D+00
   197  1.9600000000000D+00  0.0000000000000D+00  0.0000000000000D+00
   198  1.9700000000000D+00  0.0000000000000D+00  0.0000000000000D+00
   199  1.9800000000000D+00  0.0000000000000D+00  0.0000000000000D+00
   200  1.9900000000000D+00  0.0000000000000D+00  0.0000000000000D+00
   201  2.0000000000000D+00  0.0000000000000D+00  0.0000000000000D+00
   202  2.0100000000000D+00  0.0000000000000D+00  0.0000000000000D+00
   203  2.0200000000000D+00  0.0000000000000D+00  0.0000000000000D+00
   204  2.0300000000000D+00  0.0000000000000D+00  0.0000000000000D+00
   205  2.0400000000000D+00  0.0000000000000D+00  0.0000000000000D+00
   206  2.0500000000000D+00  0.0000000000000D+00  0.0000000000000D+00
   207  2.0600000000000D+00  0.0000000000000D+00  0.0000000000000D+00
   208  2.0700000000000D+00  0.0000000000000D+00  0.0000000000000D+00
   209  2.0800000000000D+00  0.0000000000000D+00  0.0000000000000D+00
   210  2.0900000000000D+00  0.0000000000000D+00  0.0000000000000D+00
   211  2.1000000000000D+00  0.0000000000000D+00  0.0000000000000D+00
   212  2.1100000000000D+00  0.0000000000000D+00  0.0000000000000D+00
   213  2.1200000000000D+00  0.0000000000000D+00  0.0000000000000D+00
   214  2.1300000000000D+00  0.0000000000000D+00  0.0000000000000D+00
   215  2.1400000000000D+00  0.0000000000000D+00  0.0000000000000D+00
   216  2.1500000000000D+00  0.0000000000000D+00  0.0000000000000D+00
   217  2.1600000000000D+00  0.0000000000000D+00  0.0000000000000D+00
   218  2.1700000000000D+00  0.0000000000000D+00  0.0000000000000D+00
   219  2.1800000000000D+00  0.0000000000000D+00  0.0000000000000D+00
   220  2.1900000000000D+00  0.0000000000000D+00  0.0000000000000D+00
   221  2.2000000000000D+00  0.0000000000000D+00  0.0000000000000D+00
   222  2.2100000000000D+00  0.0000000000000D+00  0.0000000000000D+00
   223  2.2200000000000D+00  0.0000000000000D+00  0.0000000000000D+00
   224  2.2300000000000D+00  0.0000000000000D+00  0.0000000000000D+00
   225  2.2400000000000D+00  0.0000000000000D+00  0.0000000000000D+00
   226  2.2500000000000D+00  0.0000000000000D+00  0.0000000000000D+00
   227  2.2600000000000D+00  0.0000000000000D+00  0.0000000000000D+00
   228  2.2700000000000D+00  0.0000000000000D+00  0.0000000000000D+00
   229  2.2800000000000D+00  0.0000000000000D+00  0.0000000000000D+00
   230  2.2900000000000D+00  0.0000000000000D+00  0.0000000000000D+00
   231  2.3000000000000D+00  0.0000000000000D+00  0.0000000000000D+00
   232  2.3100000000000D+00  0.0000000000000D+00  0.0000000000000D+00
   233  2.3200000000000D+00  0.0000000000000D+00  0.0000000000000D+00
   234  2.3300000000000D+00  0.0000000000000D+00  0.0000000000000D+00
   235  2.3400000000000D+00  0.0000000000000D+00  0.0000000000000D+00
   236  2.3500000000000D+00  0.0000000000000D+00  0.0000000000000D+00
   237  2.3600000000000D+00  0.0000000000000D+00  0.0000000000000D+00
   238  2.3700000000000D+00  0.0000000000000D+00  0.0000000000000D+00
   239  2.3800000000000D+00  0.0000000000000D+00  0.0000000000000D+00
   240  2.3900000000000D+00  0.0000000000000D+00  0.0000000000000D+00
   241  2.4000000000000D+00  0.0000000000000D+00  0.0000000000000D+00
   242  2.4100000000000D+00  0.0000000000000D+00  0.0000000000000D+00
   243  2.4200000000000D+00  0.0000000000000D+00  0.0000000000000D+00
   244  2.4300000000000D+00  0.0000000000000D+00  0.0000000000000D+00
   245  2.4400000000000D+00  0.0000000000000D+00  0.0000000000000D+00
   246  2.4500000000000D+00  0.0000000000000D+00  0.0000000000000D+00
   247  2.4600000000000D+00  0.0000000000000D+00  0.0000000000000D+00
   248  2.4700000000000D+00  0.0000000000000D+00  0.0000000000000D+00
   249  2.4800000000000D+00  0.0000000000000D+00  0.0000000000000D+00
   250  2.4900000000000D+00  0.0000000000000D+00  0.0000000000000D+00
   251  2.5000000000000D+00  0.0000000000000D+00  0.0000000000000D+00
   252  2.5100000000000D+00  0.0000000000000D+00  0.0000000000000D+00
   253  2.5200000000000D+00  0.0000000000000D+00  0.0000000000000D+00
   254  2.5300000000000D+00  0.0000000000000D+00  0.0000000000000D+00
   255  2.5400000000000D+00  0.0000000000000D+00  0.0000000000000D+00
   256  2.5500000000000D+00  0.0000000000000D+00  0.0000000000000D+00
   257  2.5600000000000D+00  0.0000000000000D+00  0.0000000000000D+00
   258  2.5700000000000D+00  0.0000000000000D+00  0.0000000000000D+00
   259  2.5800000000000D+00  0.0000000000000D+00  0.0000000000000D+00
   260  2.5900000000000D+00  0.0000000000000D+00  0.0000000000000D+00
   261  2.6000000000000D+00  0.0000000000000D+00  0.0000000000000D+00
   262  2.6100000000000D+00  0.0000000000000D+00  0.0000000000000D+00
   263  2.6200000000000D+00  0.0000000000000D+00  0.0000000000000D+00
   264  2.6300000000000D+00  0.0000000000000D+00  0.0000000000000D+00
   265  2.6400000000000D+00  0.0000000000000D+00  0.0000000000000D+00
   266  2.6500000000000D+00  0.0000000000000D+00  0.0000000000000D+00
   267  2.6600000000000D+00  0.0000000000000D+00  0.0000000000000D+00
   268  2.6700000000000D+00  0.0000000000000D+00  0.0000000000000D+00
   269  2.6800000000000D+00  0.0000000000000D+00  0.0000000000000D+00
   270  2.6900000000000D+00  0.0000000000000D+00  0.0000000000000D+00
   271  2.7000000000000D+00  0.0000000000000D+00  0.0000000000000D+00
   272  2.7100000000000D+00  0.0000000000000D+00  0.0000000000000D+00
   273  2.7200000000000D+00  0.0000000000000D+00  0.0000000000000D+00
   274  2.7300000000000D+00  0.0000000000000D+00  0.0000000000000D+00
   275  2.7400000000000D+00  0.0000000000000D+00  0.0000000000000D+00
   276  2.7500000000000D+00  0.0000000000000D+00  0.0000000000000D+00
   277  2.7600000000000D+00  0.0000000000000D+00  0.0000000000000D+00
   278  2.7700000000000D+00  0.0000000000000D+00  0.0000000000000D+00
   279  2.7800000000000D+00  0.0000000000000D+00  0.0000000000000D+00
   280  2.7900000000000D+00  0.0000000000000D+00  0.0000000000000D+00
   281  2.8000000000000D+00  0.0000000000000D+00  0.0000000000000D+00
   282  2.8100000000000D+00  0.0000000000000D+00  0.0000000000000D+00
   283  2.8200000000000D+00  0.0000000000000D+00  0.0000000000000D+00
   284  2.8300000000000D+00  0.0000000000000D+00  0.0000000000000D+00
   285  2.8400000000000D+00  0.0000000000000D+00  0.0000000000000D+00
   286  2.8500000000000D+00  0.0000000000000D+00  0.0000000000000D+00
   287  2.8600000000000D+00  0.0000000000000D+00  0.0000000000000D+00
   288  2.8700000000000D+00  0.0000000000000D+00  0.0000000000000D+00
   289  2.8800000000000D+00  0.0000000000000D+00  0.0000000000000D+00
   290  2.8900000000000D+00  0.0000000000000D+00  0.0000000000000D+00
   291  2.9000000000000D+00  0.0000000000000D+00  0.0000000000000D+00
   292  2.9100000000000D+00  0.0000000000000D+00  0.0000000000000D+00
   293  2.9200000000000D+00  0.0000000000000D+00  0.0000000000000D+00
   294  2.9300000000000D+00  0.0000000000000D+00  0.0000000000000D+00
   295  2.9400000000000D+00  0.0000000000000D+00  0.0000000000000D+00
   296  2.9500000000000D+00  0.0000000000000D+00  0.0000000000000D+00
   297  2.9600000000000D+00  0.0000000000000D+00  0.0000000000000D+00
   298  2.9700000000000D+00  0.0000000000000D+00  0.0000000000000D+00
   299  2.9800000000000D+00  0.0000000000000D+00  0.0000000000000D+00
   300  2.9900000000000D+00  0.0000000000000D+00  0.0000000000000D+00
   301  3.0000000000000D+00  0.0000000000000D+00  0.0000000000000D+00
   302  3.0100000000000D+00  0.0000000000000D+00  0.0000000000000D+00
   303  3.0200000000000D+00  0.0000000000000D+00  0.0000000000000D+00
   304  3.0300000000000D+00  0.0000000000000D+00  0.0000000000000D+00
   305  3.0400000000000D+00  0.0000000000000D+00  0.0000000000000D+00
   306  3.0500000000000D+00  0.0000000000000D+00  0.0000000000000D+00
   307  3.0600000000000D+00  0.0000000000000D+00  0.0000000000000D+00
   308  3.0700000000000D+00  0.0000000000000D+00  0.0000000000000D+00
   309  3.0800000000000D+00  0.0000000000000D+00  0.0000000000000D+00
   310  3.0900000000000D+00  0.0000000000000D+00  0.0000000000000D+00
   311  3.1000000000000D+00  0.0000000000000D+00  0.0000000000000D+00
   312  3.1100000000000D+00  0.0000000000000D+00  0.0000000000000D+00
   313  3.1200000000000D+00  0.0000000000000D+00  0.0000000000000D+00
   314  3.1300000000000D+00  0.0000000000000D+00  0.0000000000000D+00
   315  3.1400000000000D+00  0.0000000000000D+00  0.0000000000000D+00
   316  3.1500000000000D+00  0.0000000000000D+00  0.0000000000000D+00
   317  3.1600000000000D+00  0.0000000000000D+00  0.0000000000000D+00
   318  3.1700000000000D+00  0.0000000000000D+00  0.0000000000000D+00
   319  3.1800000000000D+00  0.0000000000000D+00  0.0000000000000D+00
   320  3.1900000000000D+00  0.0000000000000D+00  0.0000000000000D+00
   321  3.2000000000000D+00  0.0000000000000D+00  0.0000000000000D+00
   322  3.2100000000000D+00  0.0000000000000D+00  0.0000000000000D+00
   323  3.2200000000000D+00  0.0000000000000D+00  0.0000000000000D+00
   324  3.2300000000000D+00  0.0000000000000D+00  0.0000000000000D+00
   325  3.2400000000000D+00  0.0000000000000D+00  0.0000000000000D+00
   326  3.2500000000000D+00  0.0000000000000D+00  0.0000000000000D+00
   327  3.2600000000000D+00  0.0000000000000D+00  0.0000000000000D+00
   328  3.2700000000000D+00  0.0000000000000D+00  0.0000000000000D+00
   329  3.2800000000000D+00  0.0000000000000D+00  0.0000000000000D+00
   330  3.2900000000000D+00  0.0000000000000D+00  0.0000000000000D+00
   331  3.3000000000000D+00  0.0000000000000D+00  0.0000000000000D+00
   332  3.3100000000000D+00  0.0000000000000D+00  0.0000000000000D+00
   333  3.3200000000000D+00  0.0000000000000D+00  0.0000000000000D+00
   334  3.3300000000000D+00  0.0000000000000D+00  0.0000000000000D+00
   335  3.3400000000000D+00  0.0000000000000D+00  0.0000000000000D+00
   336  3.3500000000000D+00  0.0000000000000D+00  0.0000000000000D+00
   337  3.3600000000000D+00  0.0000000000000D+00  0.0000000000000D+00
   338  3.3700000000000D+00  0.0000000000000D+00  0.0000000000000D+00
   339  3.3800000000000D+00  0.0000000000000D+00  0.0000000000000D+00
   340  3.3900000000000D+00  0.0000000000000D+00  0.0000000000000D+00
   341  3.4000000000000D+00  0.0000000000000D+00  0.0000000000000D+00
   342  3.4100000000000D+00  0.0000000000000D+00  0.0000000000000D+00
   343  3.4200000000000D+00  0.0000000000000D+00  0.0000000000000D+00
   344  3.4300000000000D+00  0.0000000000000D+00  0.0000000000000D+00
   345  3.4400000000000D+00  0.0000000000000D+00  0.0000000000000D+00
   346  3.4500000000000D+00  0.0000000000000D+00  0.0000000000000D+00
   347  3.4600000000000D+00  0.0000000000000D+00  0.0000000000000D+00
   348  3.4700000000000D+00  0.0000000000000D+00  0.0000000000000D+00
   349  3.4800000000000D+00  0.0000000000000D+00  0.0000000000000D+00
   350  3.4900000000000D+00  0.0000000000000D+00  0.0000000000000D+00
   351  3.5000000000000D+00  0.0000000000000D+00  0.0000000000000D+00
   352  3.5100000000000D+00  0.0000000000000D+00  0.0000000000000D+00
   353  3.5200000000000D+00  0.0000000000000D+00  0.0000000000000D+00
   354  3.5300000000000D+00  0.0000000000000D+00  0.0000000000000D+00
   355  3.5400000000000D+00  0.0000000000000D+00  0.0000000000000D+00
   356  3.5500000000000D+00  0.0000000000000D+00  0.0000000000000D+00
   357  3.5600000000000D+00  0.0000000000000D+00  0.0000000000000D+00
   358  3.5700000000000D+00  0.0000000000000D+00  0.0000000000000D+00
   359  3.5800000000000D+00  0.0000000000000D+00  0.0000000000000D+00
   360  3.5900000000000D+00  0.0000000000000D+00  0.0000000000000D+00
   361  3.6000000000000D+00  0.0000000000000D+00  0.0000000000000D+00
   362  3.6100000000000D+00  0.0000000000000D+00  0.0000000000000D+00
   363  3.6200000000000D+00  0.0000000000000D+00  0.0000000000000D+00
   364  3.6300000000000D+00  0.0000000000000D+00  0.0000000000000D+00
   365  3.6400000000000D+00  0.0000000000000D+00  0.0000000000000D+00
   366  3.6500000000000D+00  0.0000000000000D+00  0.0000000000000D+00
   367  3.6600000000000D+00  0.0000000000000D+00  0.0000000000000D+00
   368  3.6700000000000D+00  0.0000000000000D+00  0.0000000000000D+00
   369  3.6800000000000D+00  0.0000000000000D+00  0.0000000000000D+00
   370  3.6900000000000D+00  0.0000000000000D+00  0.0000000000000D+00
   371  3.7000000000000D+00  0.0000000000000D+00  0.0000000000000D+00
   372  3.7100000000000D+00  0.0000000000000D+00  0.0000000000000D+00
   373  3.7200000000000D+00  0.0000000000000D+00  0.0000000000000D+00
   374  3.7300000000000D+00  0.0000000000000D+00  0.0000000000000D+00
   375  3.7400000000000D+00  0.0000000000000D+00  0.0000000000000D+00
   376  3.7500000000000D+00  0.0000000000000D+00  0.0000000000000D+00
   377  3.7600000000000D+00  0.0000000000000D+00  0.0000000000000D+00
   378  3.7700000000000D+00  0.0000000000000D+00  0.0000000000000D+00
   379  3.7800000000000D+00  0.0000000000000D+00  0.0000000000000D+00
   380  3.7900000000000D+00  0.0000000000000D+00  0.0000000000000D+00
   381  3.8000000000000D+00  0.0000000000000D+00  0.0000000000000D+00
   382  3.8100000000000D+00  0.0000000000000D+00  0.0000000000000D+00
   383  3.8200000000000D+00  0.0000000000000D+00  0.0000000000000D+00
   384  3.8300000000000D+00  0.0000000000000D+00  0.0000000000000D+00
   385  3.8400000000000D+00  0.0000000000000D+00  0.0000000000000D+00
   386  3.8500000000000D+00  0.0000000000000D+00  0.0000000000000D+00
   387  3.8600000000000D+00  0.0000000000000D+00  0.0000000000000D+00
   388  3.8700000000000D+00  0.0000000000000D+00  0.0000000000000D+00
   389  3.8800000000000D+00  0.0000000000000D+00  0.0000000000000D+00
   390  3.8900000000000D+00  0.0000000000000D+00  0.0000000000000D+00
   391  3.9000000000000D+00  0.0000000000000D+00  0.0000000000000D+00
   392  3.9100000000000D+00  0.0000000000000D+00  0.0000000000000D+00
   393  3.9200000000000D+00  0.0000000000000D+00  0.0000000000000D+00
   394  3.9300000000000D+00  0.0000000000000D+00  0.0000000000000D+00
   395  3.9400000000000D+00  0.0000000000000D+00  0.0000000000000D+00
   396  3.9500000000000D+00  0.0000000000000D+00  0.0000000000000D+00
   397  3.9600000000000D+00  0.0000000000000D+00  0.0000000000000D+00
   398  3.9700000000000D+00  0.0000000000000D+00  0.0000000000000D+00
   399  3.9800000000000D+00  0.0000000000000D+00  0.0000000000000D+00
   400  3.9900000000000D+00  0.0000000000000D+00  0.0000000000000D+00
   401  4.0000000000000D+00  0.0000000000000D+00  0.0000000000000D+00
   402  4.0100000000000D+00  0.0000000000000D+00  0.0000000000000D+00
   403  4.0200000000000D+00  0.0000000000000D+00  0.0000000000000D+00
   404  4.0300000000000D+00  0.0000000000000D+00  0.0000000000000D+00
   405  4.0400000000000D+00  0.0000000000000D+00  0.0000000000000D+00
   406  4.0500000000000D+00  0.0000000000000D+00  0.0000000000000D+00
   407  4.0600000000000D+00  0.0000000000000D+00  0.0000000000000D+00
   408  4.0700000000000D+00  0.0000000000000D+00  0.0000000000000D+00
   409  4.0800000000000D+00  0.0000000000000D+00  0.0000000000000D+00
   410  4.0900000000000D+00  0.0000000000000D+00  0.0000000000000D+00
   411  4.1000000000000D+00  0.0000000000000D+00  0.0000000000000D+00
   412  4.1100000000000D+00  0.0000000000000D+00  0.0000000000000D+00
   413  4.1200000000000D+00  0.0000000000000D+00  0.0000000000000D+00
   414  4.1300000000000D+00  0.0000000000000D+00  0.0000000000000D+00
   415  4.1400000000000D+00  0.0000000000000D+00  0.0000000000000D+00
   416  4.1500000000000D+00  0.0000000000000D+00  0.0000000000000D+00
   417  4.1600000000000D+00  0.0000000000000D+00  0.0000000000000D+00
   418  4.1700000000000D+00  0.0000000000000D+00  0.0000000000000D+00
   419  4.1800000000000D+00  0.0000000000000D+00  0.0000000000000D+00
   420  4.1900000000000D+00  0.0000000000000D+00  0.0000000000000D+00
   421  4.2000000000000D+00  0.0000000000000D+00  0.0000000000000D+00
   422  4.2100000000000D+00  0.0000000000000D+00  0.0000000000000D+00