Nb    ONCVPSP-3.3.1  r_core=   1.67979   1.64019   1.65987
     41.0000     13.0000      210905    zatom,zion,pspd
     8 -116133   2     4   600     0    pspcod,pspxc,lmax,lloc,mmax,r2well
  5.99000000  0.00000000  0.00000000    rchrg fchrg qchrg
     2     4     3     0    nproj
     3     1           extension_switch
     4     4     0    nprojso
   0                         1.0979760730133D+00  1.1207588986018D+01
     1  0.0000000000000D+00 -1.2376933922198D-09  2.5328122932322D-10
     2  1.0000000000000D-02  1.2152660884590D-02  5.0339582108309D-02
     3  2.0000000000000D-02  2.4042576654265D-02  1.0067152629045D-01
     4  3.0000000000000D-02  3.5410233844169D-02  1.5098756802704D-01
     5  4.0000000000000D-02  4.6002549379143D-02  2.0127819657322D-01
     6  5.0000000000000D-02  5.5576003809302D-02  2.5153204918368D-01
     7  6.0000000000000D-02  6.3899677078484D-02  3.0173532596225D-01
     8  7.0000000000000D-02  7.0758155801088D-02  3.5187123191134D-01
     9  8.0000000000000D-02  7.5954282260518D-02  4.0191945250341D-01
    10  9.0000000000000D-02  7.9311716867907D-02  4.5185566878404D-01
    11  1.0000000000000D-01  8.0677287618706D-02  5.0165111764759D-01
    12  1.1000000000000D-01  7.9923102140187D-02  5.5127220250472D-01
    13  1.2000000000000D-01  7.6948400215931D-02  6.0068015908994D-01
    14  1.3000000000000D-01  7.1681127182460D-02  6.4983078064125D-01
    15  1.4000000000000D-01  6.4079211294534D-02  6.9867420612744D-01
    16  1.5000000000000D-01  5.4131531024447D-02  7.4715477460616D-01
    17  1.6000000000000D-01  4.1858561269574D-02  7.9521094817387D-01
    18  1.7000000000000D-01  2.7312690563173D-02  8.4277530532125D-01
    19  1.8000000000000D-01  1.0578204586850D-02  8.8977460584222D-01
    20  1.9000000000000D-01 -8.2290654614386D-03  9.3612992776530D-01
    21  2.0000000000000D-01 -2.8962427813127D-02  9.8175687609093D-01
    22  2.1000000000000D-01 -5.1445343290603D-02  1.0265658624319D+00
    23  2.2000000000000D-01 -7.5472758360610D-02  1.0704624539731D+00
    24  2.3000000000000D-01 -1.0081274660096D-01  1.1133477894993D+00
    25  2.4000000000000D-01 -1.2720844404955D-01  1.1551190595865D+00
    26  2.5000000000000D-01 -1.5438026098388D-01  1.1956700474272D+00
    27  2.6000000000000D-01 -1.8202834991739D-01  1.2348917261620D+00
    28  2.7000000000000D-01 -2.0983530702480D-01  1.2726729080266D+00
    29  2.8000000000000D-01 -2.3746908184497D-01  1.3089009401016D+00
    30  2.9000000000000D-01 -2.6458606798182D-01  1.3434624409758D+00
    31  3.0000000000000D-01 -2.9083434565238D-01  1.3762440722051D+00
    32  3.1000000000000D-01 -3.1585704533312D-01  1.4071333380770D+00
    33  3.2000000000000D-01 -3.3929580045098D-01  1.4360194068720D+00
    34  3.3000000000000D-01 -3.6079425606364D-01  1.4627939465586D+00
    35  3.4000000000000D-01 -3.8000159978858D-01  1.4873519676635D+00
    36  3.5000000000000D-01 -3.9657608087778D-01  1.5095926659318D+00
    37  3.6000000000000D-01 -4.1018848330038D-01  1.5294202573272D+00
    38  3.7000000000000D-01 -4.2052551899092D-01  1.5467447979287D+00
    39  3.8000000000000D-01 -4.2729310804285D-01  1.5614829813492D+00
    40  3.9000000000000D-01 -4.3021951357313D-01  1.5735589064440D+00
    41  4.0000000000000D-01 -4.2905830024445D-01  1.5829048082758D+00
    42  4.1000000000000D-01 -4.2359108699650D-01  1.5894617455754D+00
    43  4.2000000000000D-01 -4.1363006639249D-01  1.5931802382653D+00
    44  4.3000000000000D-01 -3.9902026511633D-01  1.5940208490029D+00
    45  4.4000000000000D-01 -3.7964152253636D-01  1.5919547031444D+00
    46  4.5000000000000D-01 -3.5541016686640D-01  1.5869639420277D+00
    47  4.6000000000000D-01 -3.2628037127453D-01  1.5790421050173D+00
    48  4.7000000000000D-01 -2.9224517529055D-01  1.5681944363394D+00
    49  4.8000000000000D-01 -2.5333716001591D-01  1.5544381133615D+00
    50  4.9000000000000D-01 -2.0962876891332D-01  1.5378023936264D+00
    51  5.0000000000000D-01 -1.6123226931759D-01  1.5183286786324D+00
    52  5.1000000000000D-01 -1.0829935322950D-01  1.4960704930543D+00
    53  5.2000000000000D-01 -5.1020379400259D-02  1.4710933788146D+00
    54  5.3000000000000D-01  1.0376737848935D-02  1.4434747041385D+00
    55  5.4000000000000D-01  7.5627984239001D-02  1.4133033884468D+00
    56  5.5000000000000D-01  1.4443503342458D-01  1.3806795446598D+00
    57  5.6000000000000D-01  2.1646735180911D-01  1.3457140411886D+00
    58  5.7000000000000D-01  2.9136460186541D-01  1.3085279865751D+00
    59  5.8000000000000D-01  3.6873932264822D-01  1.2692521404009D+00
    60  5.9000000000000D-01  4.4817986350183D-01  1.2280262547142D+00
    61  6.0000000000000D-01  5.2925354449864D-01  1.1849983508132D+00
    62  6.1000000000000D-01  6.1151001494377D-01  1.1403239367732D+00
    63  6.2000000000000D-01  6.9448477934643D-01  1.0941651716035D+00
    64  6.3000000000000D-01  7.7770285862659D-01  1.0466899823687D+00
    65  6.4000000000000D-01  8.6068255300663D-01  9.9807114099902D-01
    66  6.5000000000000D-01  9.4293927204141D-01  9.4848530784665D-01
    67  6.6000000000000D-01  1.0239893965895D+00  8.9811204931090D-01
    68  6.7000000000000D-01  1.1033541372156D+00  8.4713283705967D-01
    69  6.8000000000000D-01  1.1805633535553D+00  7.9573003650802D-01
    70  6.9000000000000D-01  1.2551592995644D+00  7.4408589228243D-01
    71  7.0000000000000D-01  1.3267002603059D+00  6.9238151839684D-01
    72  7.1000000000000D-01  1.3947640470051D+00  6.4079590079597D-01
    73  7.2000000000000D-01  1.4589513185076D+00  5.8950491978251D-01
    74  7.3000000000000D-01  1.5188886989893D+00  5.3868039964037D-01
    75  7.4000000000000D-01  1.5742316637905D+00  4.8848919249578D-01
    76  7.5000000000000D-01  1.6246671675287D+00  4.3909230312959D-01
    77  7.6000000000000D-01  1.6699159912056D+00  3.9064406106318D-01
    78  7.7000000000000D-01  1.7097347877947D+00  3.4329134579858D-01
    79  7.8000000000000D-01  1.7439178087741D+00  2.9717287060073D-01
    80  7.9000000000000D-01  1.7722982972178D+00  2.5241852967211D-01
    81  8.0000000000000D-01  1.7947495363443D+00  2.0914881299270D-01
    82  8.1000000000000D-01  1.8111855458110D+00  1.6747429248762D-01
    83  8.2000000000000D-01  1.8215614215012D+00  1.2749518254593D-01
    84  8.3000000000000D-01  1.8258733180427D+00  8.9300977253474D-02
    85  8.4000000000000D-01  1.8241580767857D+00  5.2970166027579D-02
    86  8.5000000000000D-01  1.8164925054188D+00  1.8570028657073D-02
    87  8.6000000000000D-01  1.8029923187755D+00 -1.3843489934691D-02
    88  8.7000000000000D-01  1.7838107536489D+00 -4.4225825567380D-02
    89  8.8000000000000D-01  1.7591368735569D+00 -7.2543762355528D-02
    90  8.9000000000000D-01  1.7291935823400D+00 -9.8775323620760D-02
    91  9.0000000000000D-01  1.6942353682165D+00 -1.2290958847902D-01
    92  9.1000000000000D-01  1.6545458024197D+00 -1.4494643701667D-01
    93  9.2000000000000D-01  1.6104348187864D+00 -1.6489622753299D-01
    94  9.3000000000000D-01  1.5622358026205D+00 -1.8277940984995D-01
    95  9.4000000000000D-01  1.5103025188092D+00 -1.9862607916854D-01
    96  9.5000000000000D-01  1.4550059105047D+00 -2.1247547538023D-01
    97  9.6000000000000D-01  1.3967308006764D+00 -2.2437543311772D-01
    98  9.7000000000000D-01  1.3358725294973D+00 -2.3438178814969D-01
    99  9.8000000000000D-01  1.2728335608302D+00 -2.4255774598584D-01
   100  9.9000000000000D-01  1.2080200910214D+00 -2.4897321875862D-01
   101  1.0000000000000D+00  1.1418386928375D+00 -2.5370413658778D-01
   102  1.0100000000000D+00  1.0746930266070D+00 -2.5683173971298D-01
   103  1.0200000000000D+00  1.0069806495680D+00 -2.5844185769194D-01
   104  1.0300000000000D+00  9.3908995301641D-01 -2.5862418191712D-01
   105  1.0400000000000D+00  8.7139725516240D-01 -2.5747153759886D-01
   106  1.0500000000000D+00  8.0426407549239D-01 -2.5507916118557D-01
   107  1.0600000000000D+00  7.3803461445931D-01 -2.5154398900278D-01
   108  1.0700000000000D+00  6.7303345948381D-01 -2.4696396258376D-01
   109  1.0800000000000D+00  6.0956353578885D-01 -2.4143735586822D-01
   110  1.0900000000000D+00  5.4790431762880D-01 -2.3506212907309D-01
   111  1.1000000000000D+00  4.8831031231583D-01 -2.2793531361178D-01
   112  1.1100000000000D+00  4.3100982677845D-01 -2.2015243206924D-01
   113  1.1200000000000D+00  3.7620402251764D-01 -2.1180695667310D-01
   114  1.1300000000000D+00  3.2406626210698D-01 -2.0298980928506D-01
   115  1.1400000000000D+00  2.7474174661723D-01 -1.9378890534037D-01
   116  1.1500000000000D+00  2.2834744100168D-01 -1.8428874378683D-01
   117  1.1600000000000D+00  1.8497228025671D-01 -1.7457004436395D-01
   118  1.1700000000000D+00  1.4467764682312D-01 -1.6470943314381D-01
   119  1.1800000000000D+00  1.0749810638887D-01 -1.5477917665151D-01
   120  1.1900000000000D+00  7.3442387252845D-02 -1.4484696451828D-01
   121  1.2000000000000D+00  4.2494584751918D-02 -1.3497573989815D-01
   122  1.2100000000000D+00  1.4615570620999D-02 -1.2522357651417D-01
   123  1.2200000000000D+00 -1.0255414656025D-02 -1.1564360081873D-01
   124  1.2300000000000D+00 -3.2199010880655D-02 -1.0628395719580D-01
   125  1.2400000000000D+00 -5.1313854205914D-02 -9.7187813758388D-02
   126  1.2500000000000D+00 -6.7714586733790D-02 -8.8393406032516D-02
   127  1.2600000000000D+00 -8.1529787421163D-02 -7.9934115464515D-02
   128  1.2700000000000D+00 -9.2899852578748D-02 -7.1838579328493D-02
   129  1.2800000000000D+00 -1.0197485403175D-01 -6.4130828537603D-02
   130  1.2900000000000D+00 -1.0891240365927D-01 -5.6830449613428D-02
   131  1.3000000000000D+00 -1.1387555179811D-01 -4.9952766890298D-02
   132  1.3100000000000D+00 -1.1703074646307D-01 -4.3509041079172D-02
   133  1.3200000000000D+00 -1.1854588020466D-01 -3.7506680140322D-02
   134  1.3300000000000D+00 -1.1858844797719D-01 -3.1949458554090D-02
   135  1.3400000000000D+00 -1.1732383992719D-01 -2.6837741073613D-02
   136  1.3500000000000D+00 -1.1491379067238D-01 -2.2168707072804D-02
   137  1.3600000000000D+00 -1.1151500182040D-01 -1.7936572046732D-02
   138  1.3700000000000D+00 -1.0727795772322D-01 -1.4132802508015D-02
   139  1.3800000000000D+00 -1.0234594624593D-01 -1.0746321210024D-02
   140  1.3900000000000D+00 -9.6854295822473D-02 -7.7636997736253D-03
   141  1.4000000000000D+00 -9.0929841083563D-02 -5.1693355883132D-03
   142  1.4100000000000D+00 -8.4690617840105D-02 -2.9456111383162D-03
   143  1.4200000000000D+00 -7.8245795522340D-02 -1.0730331002334D-03
   144  1.4300000000000D+00 -7.1695856230403D-02  4.6965285816106D-04
   145  1.4400000000000D+00 -6.5132957215252D-02  1.7053595815635D-03
   146  1.4500000000000D+00 -5.8641642116740D-02  2.6586068409161D-03
   147  1.4600000000000D+00 -5.2299230891425D-02  3.3553730071650D-03
   148  1.4700000000000D+00 -4.6178258967207D-02  3.8233879039837D-03
   149  1.4800000000000D+00 -4.0346235167482D-02  4.0918000583922D-03
   150  1.4900000000000D+00 -3.4862221390831D-02  4.1901240871800D-03
   151  1.5000000000000D+00 -2.9774255301405D-02  4.1473142304773D-03
   152  1.5100000000000D+00 -2.5115547386690D-02  3.9905290078949D-03
   153  1.5200000000000D+00 -2.0906024099012D-02  3.7450818097236D-03
   154  1.5300000000000D+00 -1.7154219891729D-02  3.4344564587680D-03
   155  1.5400000000000D+00 -1.3857957476295D-02  3.0800670841200D-03
   156  1.5500000000000D+00 -1.1005821990458D-02  2.7011961119692D-03
   157  1.5600000000000D+00 -8.5784341121345D-03  2.3148987906085D-03
   158  1.5700000000000D+00 -6.5498124574720D-03  1.9359409215022D-03
   159  1.5800000000000D+00 -4.8887214466551D-03  1.5767500468013D-03
   160  1.5900000000000D+00 -3.5599937011097D-03  1.2473812620670D-03
   161  1.6000000000000D+00 -2.5258102744354D-03  9.5549609979052D-04
   162  1.6100000000000D+00 -1.7469097743451D-03  7.0635202527906D-04
   163  1.6200000000000D+00 -1.1837195236483D-03  5.0280186051335D-04
   164  1.6300000000000D+00 -7.9797267389075D-04  3.4545729862260D-04
   165  1.6400000000000D+00 -5.5065989987020D-04  2.3192341854432D-04
   166  1.6500000000000D+00 -4.0279784974359D-04  1.5654161725571D-04
   167  1.6600000000000D+00 -3.4007774588565D-04  1.1812912610772D-04
   168  1.6700000000000D+00 -3.4407970921081D-04  1.1108390580550D-04
   169  1.6800000000000D+00 -3.0863977702946D-04  9.7885168100540D-05
   170  1.6900000000000D+00 -1.5513739730616D-04  4.9037525935990D-05
   171  1.7000000000000D+00  4.3591541343526D-07 -1.3688367579696D-07
   172  1.7100000000000D+00  3.2249424124431D-05 -1.0112664544331D-05
   173  1.7200000000000D+00  1.3567746186480D-06 -4.2516097879133D-07
   174  1.7300000000000D+00 -7.3510587180925D-06  2.3022891469744D-06
   175  1.7400000000000D+00 -9.8247487065324D-07  3.0748042069697D-07
   176  1.7500000000000D+00  8.7427599701564D-07 -2.7732670526897D-07
   177  1.7600000000000D+00  2.3158564997325D-07 -7.3460652601567D-08
   178  1.7700000000000D+00  0.0000000000000D+00  0.0000000000000D+00
   179  1.7800000000000D+00  0.0000000000000D+00  0.0000000000000D+00
   180  1.7900000000000D+00  0.0000000000000D+00  0.0000000000000D+00
   181  1.8000000000000D+00  0.0000000000000D+00  0.0000000000000D+00
   182  1.8100000000000D+00  0.0000000000000D+00  0.0000000000000D+00
   183  1.8200000000000D+00  0.0000000000000D+00  0.0000000000000D+00
   184  1.8300000000000D+00  0.0000000000000D+00  0.0000000000000D+00
   185  1.8400000000000D+00  0.0000000000000D+00  0.0000000000000D+00
   186  1.8500000000000D+00  0.0000000000000D+00  0.0000000000000D+00
   187  1.8600000000000D+00  0.0000000000000D+00  0.0000000000000D+00
   188  1.8700000000000D+00  0.0000000000000D+00  0.0000000000000D+00
   189  1.8800000000000D+00  0.0000000000000D+00  0.0000000000000D+00
   190  1.8900000000000D+00  0.0000000000000D+00  0.0000000000000D+00
   191  1.9000000000000D+00  0.0000000000000D+00  0.0000000000000D+00
   192  1.9100000000000D+00  0.0000000000000D+00  0.0000000000000D+00
   193  1.9200000000000D+00  0.0000000000000D+00  0.0000000000000D+00
   194  1.9300000000000D+00  0.0000000000000D+00  0.0000000000000D+00
   195  1.9400000000000D+00  0.0000000000000D+00  0.0000000000000D+00
   196  1.9500000000000D+00  0.0000000000000D+00  0.0000000000000D+00
   197  1.9600000000000D+00  0.0000000000000D+00  0.0000000000000D+00
   198  1.9700000000000D+00  0.0000000000000D+00  0.0000000000000D+00
   199  1.9800000000000D+00  0.0000000000000D+00  0.0000000000000D+00
   200  1.9900000000000D+00  0.0000000000000D+00  0.0000000000000D+00
   201  2.0000000000000D+00  0.0000000000000D+00  0.0000000000000D+00
   202  2.0100000000000D+00  0.0000000000000D+00  0.0000000000000D+00
   203  2.0200000000000D+00  0.0000000000000D+00  0.0000000000000D+00
   204  2.0300000000000D+00  0.0000000000000D+00  0.0000000000000D+00
   205  2.0400000000000D+00  0.0000000000000D+00  0.0000000000000D+00
   206  2.0500000000000D+00  0.0000000000000D+00  0.0000000000000D+00
   207  2.0600000000000D+00  0.0000000000000D+00  0.0000000000000D+00
   208  2.0700000000000D+00  0.0000000000000D+00  0.0000000000000D+00
   209  2.0800000000000D+00  0.0000000000000D+00  0.0000000000000D+00
   210  2.0900000000000D+00  0.0000000000000D+00  0.0000000000000D+00
   211  2.1000000000000D+00  0.0000000000000D+00  0.0000000000000D+00
   212  2.1100000000000D+00  0.0000000000000D+00  0.0000000000000D+00
   213  2.1200000000000D+00  0.0000000000000D+00  0.0000000000000D+00
   214  2.1300000000000D+00  0.0000000000000D+00  0.0000000000000D+00
   215  2.1400000000000D+00  0.0000000000000D+00  0.0000000000000D+00
   216  2.1500000000000D+00  0.0000000000000D+00  0.0000000000000D+00
   217  2.1600000000000D+00  0.0000000000000D+00  0.0000000000000D+00
   218  2.1700000000000D+00  0.0000000000000D+00  0.0000000000000D+00
   219  2.1800000000000D+00  0.0000000000000D+00  0.0000000000000D+00
   220  2.1900000000000D+00  0.0000000000000D+00  0.0000000000000D+00
   221  2.2000000000000D+00  0.0000000000000D+00  0.0000000000000D+00
   222  2.2100000000000D+00  0.0000000000000D+00  0.0000000000000D+00
   223  2.2200000000000D+00  0.0000000000000D+00  0.0000000000000D+00
   224  2.2300000000000D+00  0.0000000000000D+00  0.0000000000000D+00
   225  2.2400000000000D+00  0.0000000000000D+00  0.0000000000000D+00
   226  2.2500000000000D+00  0.0000000000000D+00  0.0000000000000D+00
   227  2.2600000000000D+00  0.0000000000000D+00  0.0000000000000D+00
   228  2.2700000000000D+00  0.0000000000000D+00  0.0000000000000D+00
   229  2.2800000000000D+00  0.0000000000000D+00  0.0000000000000D+00
   230  2.2900000000000D+00  0.0000000000000D+00  0.0000000000000D+00
   231  2.3000000000000D+00  0.0000000000000D+00  0.0000000000000D+00
   232  2.3100000000000D+00  0.0000000000000D+00  0.0000000000000D+00
   233  2.3200000000000D+00  0.0000000000000D+00  0.0000000000000D+00
   234  2.3300000000000D+00  0.0000000000000D+00  0.0000000000000D+00
   235  2.3400000000000D+00  0.0000000000000D+00  0.0000000000000D+00
   236  2.3500000000000D+00  0.0000000000000D+00  0.0000000000000D+00
   237  2.3600000000000D+00  0.0000000000000D+00  0.0000000000000D+00
   238  2.3700000000000D+00  0.0000000000000D+00  0.0000000000000D+00
   239  2.3800000000000D+00  0.0000000000000D+00  0.0000000000000D+00
   240  2.3900000000000D+00  0.0000000000000D+00  0.0000000000000D+00
   241  2.4000000000000D+00  0.0000000000000D+00  0.0000000000000D+00
   242  2.4100000000000D+00  0.0000000000000D+00  0.0000000000000D+00
   243  2.4200000000000D+00  0.0000000000000D+00  0.0000000000000D+00
   244  2.4300000000000D+00  0.0000000000000D+00  0.0000000000000D+00
   245  2.4400000000000D+00  0.0000000000000D+00  0.0000000000000D+00
   246  2.4500000000000D+00  0.0000000000000D+00  0.0000000000000D+00
   247  2.4600000000000D+00  0.0000000000000D+00  0.0000000000000D+00
   248  2.4700000000000D+00  0.0000000000000D+00  0.0000000000000D+00
   249  2.4800000000000D+00  0.0000000000000D+00  0.0000000000000D+00
   250  2.4900000000000D+00  0.0000000000000D+00  0.0000000000000D+00
   251  2.5000000000000D+00  0.0000000000000D+00  0.0000000000000D+00
   252  2.5100000000000D+00  0.0000000000000D+00  0.0000000000000D+00
   253  2.5200000000000D+00  0.0000000000000D+00  0.0000000000000D+00
   254  2.5300000000000D+00  0.0000000000000D+00  0.0000000000000D+00
   255  2.5400000000000D+00  0.0000000000000D+00  0.0000000000000D+00
   256  2.5500000000000D+00  0.0000000000000D+00  0.0000000000000D+00
   257  2.5600000000000D+00  0.0000000000000D+00  0.0000000000000D+00
   258  2.5700000000000D+00  0.0000000000000D+00  0.0000000000000D+00
   259  2.5800000000000D+00  0.0000000000000D+00  0.0000000000000D+00
   260  2.5900000000000D+00  0.0000000000000D+00  0.0000000000000D+00
   261  2.6000000000000D+00  0.0000000000000D+00  0.0000000000000D+00
   262  2.6100000000000D+00  0.0000000000000D+00  0.0000000000000D+00
   263  2.6200000000000D+00  0.0000000000000D+00  0.0000000000000D+00
   264  2.6300000000000D+00  0.0000000000000D+00  0.0000000000000D+00
   265  2.6400000000000D+00  0.0000000000000D+00  0.0000000000000D+00
   266  2.6500000000000D+00  0.0000000000000D+00  0.0000000000000D+00
   267  2.6600000000000D+00  0.0000000000000D+00  0.0000000000000D+00
   268  2.6700000000000D+00  0.0000000000000D+00  0.0000000000000D+00
   269  2.6800000000000D+00  0.0000000000000D+00  0.0000000000000D+00
   270  2.6900000000000D+00  0.0000000000000D+00  0.0000000000000D+00
   271  2.7000000000000D+00  0.0000000000000D+00  0.0000000000000D+00
   272  2.7100000000000D+00  0.0000000000000D+00  0.0000000000000D+00
   273  2.7200000000000D+00  0.0000000000000D+00  0.0000000000000D+00
   274  2.7300000000000D+00  0.0000000000000D+00  0.0000000000000D+00
   275  2.7400000000000D+00  0.0000000000000D+00  0.0000000000000D+00
   276  2.7500000000000D+00  0.0000000000000D+00  0.0000000000000D+00
   277  2.7600000000000D+00  0.0000000000000D+00  0.0000000000000D+00
   278  2.7700000000000D+00  0.0000000000000D+00  0.0000000000000D+00
   279  2.7800000000000D+00  0.0000000000000D+00  0.0000000000000D+00
   280  2.7900000000000D+00  0.0000000000000D+00  0.0000000000000D+00
   281  2.8000000000000D+00  0.0000000000000D+00  0.0000000000000D+00
   282  2.8100000000000D+00  0.0000000000000D+00  0.0000000000000D+00
   283  2.8200000000000D+00  0.0000000000000D+00  0.0000000000000D+00
   284  2.8300000000000D+00  0.0000000000000D+00  0.0000000000000D+00
   285  2.8400000000000D+00  0.0000000000000D+00  0.0000000000000D+00
   286  2.8500000000000D+00  0.0000000000000D+00  0.0000000000000D+00
   287  2.8600000000000D+00  0.0000000000000D+00  0.0000000000000D+00
   288  2.8700000000000D+00  0.0000000000000D+00  0.0000000000000D+00
   289  2.8800000000000D+00  0.0000000000000D+00  0.0000000000000D+00
   290  2.8900000000000D+00  0.0000000000000D+00  0.0000000000000D+00
   291  2.9000000000000D+00  0.0000000000000D+00  0.0000000000000D+00
   292  2.9100000000000D+00  0.0000000000000D+00  0.0000000000000D+00
   293  2.9200000000000D+00  0.0000000000000D+00  0.0000000000000D+00
   294  2.9300000000000D+00  0.0000000000000D+00  0.0000000000000D+00
   295  2.9400000000000D+00  0.0000000000000D+00  0.0000000000000D+00
   296  2.9500000000000D+00  0.0000000000000D+00  0.0000000000000D+00
   297  2.9600000000000D+00  0.0000000000000D+00  0.0000000000000D+00
   298  2.9700000000000D+00  0.0000000000000D+00  0.0000000000000D+00
   299  2.9800000000000D+00  0.0000000000000D+00  0.0000000000000D+00
   300  2.9900000000000D+00  0.0000000000000D+00  0.0000000000000D+00
   301  3.0000000000000D+00  0.0000000000000D+00  0.0000000000000D+00
   302  3.0100000000000D+00  0.0000000000000D+00  0.0000000000000D+00
   303  3.0200000000000D+00  0.0000000000000D+00  0.0000000000000D+00
   304  3.0300000000000D+00  0.0000000000000D+00  0.0000000000000D+00
   305  3.0400000000000D+00  0.0000000000000D+00  0.0000000000000D+00
   306  3.0500000000000D+00  0.0000000000000D+00  0.0000000000000D+00
   307  3.0600000000000D+00  0.0000000000000D+00  0.0000000000000D+00
   308  3.0700000000000D+00  0.0000000000000D+00  0.0000000000000D+00
   309  3.0800000000000D+00  0.0000000000000D+00  0.0000000000000D+00
   310  3.0900000000000D+00  0.0000000000000D+00  0.0000000000000D+00
   311  3.1000000000000D+00  0.0000000000000D+00  0.0000000000000D+00
   312  3.1100000000000D+00  0.0000000000000D+00  0.0000000000000D+00
   313  3.1200000000000D+00  0.0000000000000D+00  0.0000000000000D+00
   314  3.1300000000000D+00  0.0000000000000D+00  0.0000000000000D+00
   315  3.1400000000000D+00  0.0000000000000D+00  0.0000000000000D+00
   316  3.1500000000000D+00  0.0000000000000D+00  0.0000000000000D+00
   317  3.1600000000000D+00  0.0000000000000D+00  0.0000000000000D+00
   318  3.1700000000000D+00  0.0000000000000D+00  0.0000000000000D+00
   319  3.1800000000000D+00  0.0000000000000D+00  0.0000000000000D+00
   320  3.1900000000000D+00  0.0000000000000D+00  0.0000000000000D+00
   321  3.2000000000000D+00  0.0000000000000D+00  0.0000000000000D+00
   322  3.2100000000000D+00  0.0000000000000D+00  0.0000000000000D+00
   323  3.2200000000000D+00  0.0000000000000D+00  0.0000000000000D+00
   324  3.2300000000000D+00  0.0000000000000D+00  0.0000000000000D+00
   325  3.2400000000000D+00  0.0000000000000D+00  0.0000000000000D+00
   326  3.2500000000000D+00  0.0000000000000D+00  0.0000000000000D+00
   327  3.2600000000000D+00  0.0000000000000D+00  0.0000000000000D+00
   328  3.2700000000000D+00  0.0000000000000D+00  0.0000000000000D+00
   329  3.2800000000000D+00  0.0000000000000D+00  0.0000000000000D+00
   330  3.2900000000000D+00  0.0000000000000D+00  0.0000000000000D+00
   331  3.3000000000000D+00  0.0000000000000D+00  0.0000000000000D+00
   332  3.3100000000000D+00  0.0000000000000D+00  0.0000000000000D+00
   333  3.3200000000000D+00  0.0000000000000D+00  0.0000000000000D+00
   334  3.3300000000000D+00  0.0000000000000D+00  0.0000000000000D+00
   335  3.3400000000000D+00  0.0000000000000D+00  0.0000000000000D+00
   336  3.3500000000000D+00  0.0000000000000D+00  0.0000000000000D+00
   337  3.3600000000000D+00  0.0000000000000D+00  0.0000000000000D+00
   338  3.3700000000000D+00  0.0000000000000D+00  0.0000000000000D+00
   339  3.3800000000000D+00  0.0000000000000D+00  0.0000000000000D+00
   340  3.3900000000000D+00  0.0000000000000D+00  0.0000000000000D+00
   341  3.4000000000000D+00  0.0000000000000D+00  0.0000000000000D+00
   342  3.4100000000000D+00  0.0000000000000D+00  0.0000000000000D+00
   343  3.4200000000000D+00  0.0000000000000D+00  0.0000000000000D+00
   344  3.4300000000000D+00  0.0000000000000D+00  0.0000000000000D+00
   345  3.4400000000000D+00  0.0000000000000D+00  0.0000000000000D+00
   346  3.4500000000000D+00  0.0000000000000D+00  0.0000000000000D+00
   347  3.4600000000000D+00  0.0000000000000D+00  0.0000000000000D+00
   348  3.4700000000000D+00  0.0000000000000D+00  0.0000000000000D+00
   349  3.4800000000000D+00  0.0000000000000D+00  0.0000000000000D+00
   350  3.4900000000000D+00  0.0000000000000D+00  0.0000000000000D+00
   351  3.5000000000000D+00  0.0000000000000D+00  0.0000000000000D+00
   352  3.5100000000000D+00  0.0000000000000D+00  0.0000000000000D+00
   353  3.5200000000000D+00  0.0000000000000D+00  0.0000000000000D+00
   354  3.5300000000000D+00  0.0000000000000D+00  0.0000000000000D+00
   355  3.5400000000000D+00  0.0000000000000D+00  0.0000000000000D+00
   356  3.5500000000000D+00  0.0000000000000D+00  0.0000000000000D+00
   357  3.5600000000000D+00  0.0000000000000D+00  0.0000000000000D+00
   358  3.5700000000000D+00  0.0000000000000D+00  0.0000000000000D+00
   359  3.5800000000000D+00  0.0000000000000D+00  0.0000000000000D+00
   360  3.5900000000000D+00  0.0000000000000D+00  0.0000000000000D+00
   361  3.6000000000000D+00  0.0000000000000D+00  0.0000000000000D+00
   362  3.6100000000000D+00  0.0000000000000D+00  0.0000000000000D+00
   363  3.6200000000000D+00  0.0000000000000D+00  0.0000000000000D+00
   364  3.6300000000000D+00  0.0000000000000D+00  0.0000000000000D+00
   365  3.6400000000000D+00  0.0000000000000D+00  0.0000000000000D+00
   366  3.6500000000000D+00  0.0000000000000D+00  0.0000000000000D+00
   367  3.6600000000000D+00  0.0000000000000D+00  0.0000000000000D+00
   368  3.6700000000000D+00  0.0000000000000D+00  0.0000000000000D+00
   369  3.6800000000000D+00  0.0000000000000D+00  0.0000000000000D+00
   370  3.6900000000000D+00  0.0000000000000D+00  0.0000000000000D+00
   371  3.7000000000000D+00  0.0000000000000D+00  0.0000000000000D+00
   372  3.7100000000000D+00  0.0000000000000D+00  0.0000000000000D+00
   373  3.7200000000000D+00  0.0000000000000D+00  0.0000000000000D+00
   374  3.7300000000000D+00  0.0000000000000D+00  0.0000000000000D+00
   375  3.7400000000000D+00  0.0000000000000D+00  0.0000000000000D+00
   376  3.7500000000000D+00  0.0000000000000D+00  0.0000000000000D+00
   377  3.7600000000000D+00  0.0000000000000D+00  0.0000000000000D+00
   378  3.7700000000000D+00  0.0000000000000D+00  0.0000000000000D+00
   379  3.7800000000000D+00  0.0000000000000D+00  0.0000000000000D+00
   380  3.7900000000000D+00  0.0000000000000D+00  0.0000000000000D+00
   381  3.8000000000000D+00  0.0000000000000D+00  0.0000000000000D+00
   382  3.8100000000000D+00  0.0000000000000D+00  0.0000000000000D+00
   383  3.8200000000000D+00  0.0000000000000D+00  0.0000000000000D+00
   384  3.8300000000000D+00  0.0000000000000D+00  0.0000000000000D+00
   385  3.8400000000000D+00  0.0000000000000D+00  0.0000000000000D+00
   386  3.8500000000000D+00  0.0000000000000D+00  0.0000000000000D+00
   387  3.8600000000000D+00  0.0000000000000D+00  0.0000000000000D+00
   388  3.8700000000000D+00  0.0000000000000D+00  0.0000000000000D+00
   389  3.8800000000000D+00  0.0000000000000D+00  0.0000000000000D+00
   390  3.8900000000000D+00  0.0000000000000D+00  0.0000000000000D+00
   391  3.9000000000000D+00  0.0000000000000D+00  0.0000000000000D+00
   392  3.9100000000000D+00  0.0000000000000D+00  0.0000000000000D+00
   393  3.9200000000000D+00  0.0000000000000D+00  0.0000000000000D+00
   394  3.9300000000000D+00  0.0000000000000D+00  0.0000000000000D+00
   395  3.9400000000000D+00  0.0000000000000D+00  0.0000000000000D+00
   396  3.9500000000000D+00  0.0000000000000D+00  0.0000000000000D+00
   397  3.9600000000000D+00  0.0000000000000D+00  0.0000000000000D+00
   398  3.9700000000000D+00  0.0000000000000D+00  0.0000000000000D+00
   399  3.9800000000000D+00  0.0000000000000D+00  0.0000000000000D+00
   400  3.9900000000000D+00  0.0000000000000D+00  0.0000000000000D+00
   401  4.0000000000000D+00  0.0000000000000D+00  0.0000000000000D+00
   402  4.0100000000000D+00  0.0000000000000D+00  0.0000000000000D+00
   403  4.0200000000000D+00  0.0000000000000D+00  0.0000000000000D+00
   404  4.0300000000000D+00  0.0000000000000D+00  0.0000000000000D+00
   405  4.0400000000000D+00  0.0000000000000D+00  0.0000000000000D+00
   406  4.0500000000000D+00  0.0000000000000D+00  0.0000000000000D+00
   407  4.0600000000000D+00  0.0000000000000D+00  0.0000000000000D+00
   408  4.0700000000000D+00  0.0000000000000D+00  0.0000000000000D+00
   409  4.0800000000000D+00  0.0000000000000D+00  0.0000000000000D+00
   410  4.0900000000000D+00  0.0000000000000D+00  0.0000000000000D+00
   411  4.1000000000000D+00  0.0000000000000D+00  0.0000000000000D+00
   412  4.1100000000000D+00  0.0000000000000D+00  0.0000000000000D+00
   413  4.1200000000000D+00  0.0000000000000D+00  0.0000000000000D+00
   414  4.1300000000000D+00  0.0000000000000D+00  0.0000000000000D+00
   415  4.1400000000000D+00  0.0000000000000D+00  0.0000000000000D+00
   416  4.1500000000000D+00  0.0000000000000D+00  0.0000000000000D+00
   417  4.1600000000000D+00  0.0000000000000D+00  0.0000000000000D+00
   418  4.1700000000000D+00  0.0000000000000D+00  0.0000000000000D+00
   419  4.1800000000000D+00  0.0000000000000D+00  0.0000000000000D+00
   420  4.1900000000000D+00  0.0000000000000D+00  0.0000000000000D+00
   421  4.2000000000000D+00  0.0000000000000D+00  0.0000000000000D+00
   422  4.2100000000000D+00  0.0000000000000D+00  0.0000000000000D+00