Ne    ONCVPSP-3.3.1  r_core=   2.65215   2.68397
     10.0000      8.0000      210905    zatom,zion,pspd
     8 -116133   1     4   600     0    pspcod,pspxc,lmax,lloc,mmax,r2well
  5.99000000  0.00000000  0.00000000    rchrg fchrg qchrg
     2     2     0     0     0    nproj
     1     1           extension_switch
   0                        -2.2109983335976D+00 -9.6065823481235D-01
     1  0.0000000000000D+00  3.1720182036565D-12  5.1363358011258D-12
     2  1.0000000000000D-02  2.3112716598332D-02 -4.4886967932444D-02
     3  2.0000000000000D-02  4.6226347940943D-02 -8.9684070069456D-02
     4  3.0000000000000D-02  6.9341759015565D-02 -1.3430163463362D-01
     5  4.0000000000000D-02  9.2459715508653D-02 -1.7865037740813D-01
     6  5.0000000000000D-02  1.1558083468346D-01 -2.2264159432979D-01
     7  6.0000000000000D-02  1.3870553689038D-01 -2.6618735266099D-01
     8  7.0000000000000D-02  1.6183399791647D-01 -3.0920068027275D-01
     9  8.0000000000000D-02  1.8496610237816D-01 -3.5159575257662D-01
    10  9.0000000000000D-02  2.0810139835693D-01 -3.9328807664907D-01
    11  1.0000000000000D-01  2.3123905347323D-01 -4.3419467209995D-01
    12  1.1000000000000D-01  2.5437781258837D-01 -4.7423424824548D-01
    13  1.2000000000000D-01  2.7751595731807D-01 -5.1332737715610D-01
    14  1.3000000000000D-01  3.0065126753439D-01 -5.5139666216092D-01
    15  1.4000000000000D-01  3.2378098502535D-01 -5.8836690140259D-01
    16  1.5000000000000D-01  3.4690177947326D-01 -6.2416524605017D-01
    17  1.6000000000000D-01  3.7000971690421D-01 -6.5872135279175D-01
    18  1.7000000000000D-01  3.9310023075167D-01 -6.9196753024425D-01
    19  1.8000000000000D-01  4.1616809566731D-01 -7.2383887893413D-01
    20  1.9000000000000D-01  4.3920740420173D-01 -7.5427342452031D-01
    21  2.0000000000000D-01  4.6221154646717D-01 -7.8321224394854D-01
    22  2.1000000000000D-01  4.8517319288254D-01 -8.1059958424577D-01
    23  2.2000000000000D-01  5.0808428008990D-01 -8.3638297368264D-01
    24  2.3000000000000D-01  5.3093600011939D-01 -8.6051332505280D-01
    25  2.4000000000000D-01  5.5371879286705D-01 -8.8294503083896D-01
    26  2.5000000000000D-01  5.7642234193794D-01 -9.0363605005693D-01
    27  2.6000000000000D-01  5.9903557389375D-01 -9.2254798659161D-01
    28  2.7000000000000D-01  6.2154666093162D-01 -9.3964615886103D-01
    29  2.8000000000000D-01  6.4394302700740D-01 -9.5489966066796D-01
    30  2.9000000000000D-01  6.6621135740424D-01 -9.6828141312162D-01
    31  3.0000000000000D-01  6.8833761173357D-01 -9.7976820753587D-01
    32  3.1000000000000D-01  7.1030704034309D-01 -9.8934073923386D-01
    33  3.2000000000000D-01  7.3210420409329D-01 -9.9698363221297D-01
    34  3.3000000000000D-01  7.5371299745108D-01 -1.0026854546479D+00
    35  3.4000000000000D-01  7.7511667483688D-01 -1.0064387252336D+00
    36  3.5000000000000D-01  7.9629788014875D-01 -1.0082399103930D+00
    37  3.6000000000000D-01  8.1723867937536D-01 -1.0080894124000D+00
    38  3.7000000000000D-01  8.3792059619780D-01 -1.0059915484877D+00
    39  3.8000000000000D-01  8.5832465046861D-01 -1.0019545210403D+00
    40  3.9000000000000D-01  8.7843139944582D-01 -9.9599037898406D-01
    41  4.0000000000000D-01  8.9822098164891D-01 -9.8811497052078D-01
    42  4.1000000000000D-01  9.1767316319377D-01 -9.7834788736323D-01
    43  4.2000000000000D-01  9.3676738645412D-01 -9.6671240065834D-01
    44  4.3000000000000D-01  9.5548282088801D-01 -9.5323538880139D-01
    45  4.4000000000000D-01  9.7379841585949D-01 -9.3794725736573D-01
    46  4.5000000000000D-01  9.9169295527808D-01 -9.2088185139158D-01
    47  4.6000000000000D-01  1.0091451138711D+00 -9.0207636029585D-01
    48  4.7000000000000D-01  1.0261335148985D+00 -8.8157121568297D-01
    49  4.8000000000000D-01  1.0426367891121D+00 -8.5940998235301D-01
    50  4.9000000000000D-01  1.0586336347595D+00 -8.3563924281989D-01
    51  5.0000000000000D-01  1.0741028784248D+00 -8.1030847566696D-01
    52  5.1000000000000D-01  1.0890235364978D+00 -7.8346992808145D-01
    53  5.2000000000000D-01  1.1033748770591D+00 -7.5517848292235D-01
    54  5.3000000000000D-01  1.1171364819667D+00 -7.2549152068792D-01
    55  5.4000000000000D-01  1.1302883089299D+00 -6.9446877676009D-01
    56  5.5000000000000D-01  1.1428107533527D+00 -6.6217219431266D-01
    57  5.6000000000000D-01  1.1546847097335D+00 -6.2866577327887D-01
    58  5.7000000000000D-01  1.1658916324060D+00 -5.9401541578124D-01
    59  5.8000000000000D-01  1.1764135954084D+00 -5.5828876843307D-01
    60  5.9000000000000D-01  1.1862333512727D+00 -5.2155506192588D-01
    61  6.0000000000000D-01  1.1953343885271D+00 -4.8388494832143D-01
    62  6.1000000000000D-01  1.2037009877099D+00 -4.4535033646920D-01
    63  6.2000000000000D-01  1.2113182756980D+00 -4.0602422597229D-01
    64  6.3000000000000D-01  1.2181722781589D+00 -3.6598054012490D-01
    65  6.4000000000000D-01  1.2242499699403D+00 -3.2529395824380D-01
    66  6.5000000000000D-01  1.2295393232205D+00 -2.8403974781435D-01
    67  6.6000000000000D-01  1.2340293532479D+00 -2.4229359686867D-01
    68  6.7000000000000D-01  1.2377101615091D+00 -2.0013144700914D-01
    69  6.8000000000000D-01  1.2405729761694D+00 -1.5762932748545D-01
    70  6.9000000000000D-01  1.2426101896440D+00 -1.1486319072676D-01
    71  7.0000000000000D-01  1.2438153931647D+00 -7.1908749723360D-02
    72  7.1000000000000D-01  1.2441834082170D+00 -2.8841317643556D-02
    73  7.2000000000000D-01  1.2437103147359D+00  1.4264349937664D-02
    74  7.3000000000000D-01  1.2423934759556D+00  5.7334209832361D-02
    75  7.4000000000000D-01  1.2402315598253D+00  1.0029508270094D-01
    76  7.5000000000000D-01  1.2372245569081D+00  1.4307480083861D-01
    77  7.6000000000000D-01  1.2333737946993D+00  1.8560235195749D-01
    78  7.7000000000000D-01  1.2286819483058D+00  2.2780801864878D-01
    79  7.8000000000000D-01  1.2231530474458D+00  2.6962351322387D-01
    80  7.9000000000000D-01  1.2167924797379D+00  3.1098210764871D-01
    81  8.0000000000000D-01  1.2096069902609D+00  3.5181875830142D-01
    82  8.1000000000000D-01  1.2016046773806D+00  3.9207022529988D-01
    83  8.2000000000000D-01  1.1927949848489D+00  4.3167518616295D-01
    84  8.3000000000000D-01  1.1831886901972D+00  4.7057434358652D-01
    85  8.4000000000000D-01  1.1727978894535D+00  5.0871052713360D-01
    86  8.5000000000000D-01  1.1616359782303D+00  5.4602878865597D-01
    87  8.6000000000000D-01  1.1497176292370D+00  5.8247649128356D-01
    88  8.7000000000000D-01  1.1370587662872D+00  6.1800339183668D-01
    89  8.8000000000000D-01  1.1236765348782D+00  6.5256171653535D-01
    90  8.9000000000000D-01  1.1095892694361D+00  6.8610622989915D-01
    91  9.0000000000000D-01  1.0948164573249D+00  7.1859429675058D-01
    92  9.1000000000000D-01  1.0793786997346D+00  7.4998593725394D-01
    93  9.2000000000000D-01  1.0632976695686D+00  7.8024387494161D-01
    94  9.3000000000000D-01  1.0465960664612D+00  8.0933357769831D-01
    95  9.4000000000000D-01  1.0292975690680D+00  8.3722329169356D-01
    96  9.5000000000000D-01  1.0114267847759D+00  8.6388406827115D-01
    97  9.6000000000000D-01  9.9300919699051D-01  8.8928978382338D-01
    98  9.7000000000000D-01  9.7407111016497D-01  9.1341715269602D-01
    99  9.8000000000000D-01  9.5463959274130D-01  9.3624573318809D-01
   100  9.9000000000000D-01  9.3474241818093D-01  9.5775792672825D-01
   101  1.0000000000000D+00  9.1440800426692D-01  9.7793897032682D-01
   102  1.0100000000000D+00  8.9366535086528D-01  9.9677692241891D-01
   103  1.0200000000000D+00  8.7254397633644D-01  1.0142626422308D+00
   104  1.0300000000000D+00  8.5107385279169D-01  1.0303897628167D+00
   105  1.0400000000000D+00  8.2928534039208D-01  1.0451546579291D+00
   106  1.0500000000000D+00  8.0720912088908D-01  1.0585564028981D+00
   107  1.0600000000000D+00  7.8487613060789D-01  1.0705967297119D+00
   108  1.0700000000000D+00  7.6231749307476D-01  1.0812799765008D+00
   109  1.0800000000000D+00  7.3956445148943D-01  1.0906130316405D+00
   110  1.0900000000000D+00  7.1664830124327D-01  1.0986052727023D+00
   111  1.1000000000000D+00  6.9360032268219D-01  1.1052685004874D+00
   112  1.1100000000000D+00  6.7045171431098D-01  1.1106168683923D+00
   113  1.1200000000000D+00  6.4723352663322D-01  1.1146668073630D+00
   114  1.1300000000000D+00  6.2397659681690D-01  1.1174369467027D+00
   115  1.1400000000000D+00  6.0071148437285D-01  1.1189480310024D+00
   116  1.1500000000000D+00  5.7746840802710D-01  1.1192228334762D+00
   117  1.1600000000000D+00  5.5427718396372D-01  1.1182860659821D+00
   118  1.1700000000000D+00  5.3116716560813D-01  1.1161642860193D+00
   119  1.1800000000000D+00  5.0816718511616D-01  1.1128858009911D+00
   120  1.1900000000000D+00  4.8530549672498D-01  1.1084805700313D+00
   121  1.2000000000000D+00  4.6260972211516D-01  1.1029801036891D+00
   122  1.2100000000000D+00  4.4010679792691D-01  1.0964173617713D+00
   123  1.2200000000000D+00  4.1782292556381D-01  1.0888266496399D+00
   124  1.2300000000000D+00  3.9578352340787D-01  1.0802435132626D+00
   125  1.2400000000000D+00  3.7401318156185D-01  1.0707046333116D+00
   126  1.2500000000000D+00  3.5253561922767D-01  1.0602477186065D+00
   127  1.2600000000000D+00  3.3137364481478D-01  1.0489113991894D+00
   128  1.2700000000000D+00  3.1054911886527D-01  1.0367351193202D+00
   129  1.2800000000000D+00  2.9008291987735D-01  1.0237590306746D+00
   130  1.2900000000000D+00  2.6999491308847D-01  1.0100238860214D+00
   131  1.3000000000000D+00  2.5030392227514D-01  9.9557093364635D-01
   132  1.3100000000000D+00  2.3102770462121D-01  9.8044181279343D-01
   133  1.3200000000000D+00  2.1218292868201D-01  9.6467845037218D-01
   134  1.3300000000000D+00  1.9378515547316D-01  9.4832295918240D-01
   135  1.3400000000000D+00  1.7584882270258D-01  9.3141753789968D-01
   136  1.3500000000000D+00  1.5838723214021D-01  9.1400437304322D-01
   137  1.3600000000000D+00  1.4141254012876D-01  8.9612554315464D-01
   138  1.3700000000000D+00  1.2493575121704D-01  8.7782292539767D-01
   139  1.3800000000000D+00  1.0896671488117D-01  8.5913810476709D-01
   140  1.3900000000000D+00  9.3514125314774D-02  8.4011228611638D-01
   141  1.4000000000000D+00  7.8585524226011D-02  8.2078620916106D-01
   142  1.4100000000000D+00  6.4187306595237D-02  8.0120006663239D-01
   143  1.4200000000000D+00  5.0324729333976D-02  7.8139342574273D-01
   144  1.4300000000000D+00  3.7001922758473D-02  7.6140515308025D-01
   145  1.4400000000000D+00  2.4221904818470D-02  7.4127334309459D-01
   146  1.4500000000000D+00  1.1986597974363D-02  7.2103525025973D-01
   147  1.4600000000000D+00  2.9684863855483D-04  7.0072722503351D-01
   148  1.4700000000000D+00 -1.0847550920936D-02  6.8038465370947D-01
   149  1.4800000000000D+00 -2.1447838333768D-02  6.6004190221199D-01
   150  1.4900000000000D+00 -3.1506254633406D-02  6.3973226394493D-01
   151  1.5000000000000D+00 -4.1026015657516D-02  6.1948791169251D-01
   152  1.5100000000000D+00 -5.0011281447771D-02  5.9933985366248D-01
   153  1.5200000000000D+00 -5.8467123793054D-02  5.7931789366088D-01
   154  1.5300000000000D+00 -6.6399492040621D-02  5.5945059543228D-01
   155  1.5400000000000D+00 -7.3815177314723D-02  5.3976525116949D-01
   156  1.5500000000000D+00 -8.0721775283482D-02  5.2028785416019D-01
   157  1.5600000000000D+00 -8.7127647611528D-02  5.0104307559251D-01
   158  1.5700000000000D+00 -9.3041882246910D-02  4.8205424542421D-01
   159  1.5800000000000D+00 -9.8474252682441D-02  4.6334333734866D-01
   160  1.5900000000000D+00 -1.0343517633899D-01  4.4493095771756D-01
   161  1.6000000000000D+00 -1.0793567221666D-01  4.2683633844010D-01
   162  1.6100000000000D+00 -1.1198731795533D-01  4.0907733370413D-01
   163  1.6200000000000D+00 -1.1560220645425D-01  3.9167042050384D-01
   164  1.6300000000000D+00 -1.1879290218608D-01  3.7463070282047D-01
   165  1.6400000000000D+00 -1.2157239735385D-01  3.5797191940231D-01
   166  1.6500000000000D+00 -1.2395406802124D-01  3.4170645499243D-01
   167  1.6600000000000D+00 -1.2595163035889D-01  3.2584535491774D-01
   168  1.6700000000000D+00 -1.2757909713225D-01  3.1039834288668D-01
   169  1.6800000000000D+00 -1.2885073456502D-01  2.9537384188428D-01
   170  1.6900000000000D+00 -1.2978101969741D-01  2.8077899800712D-01
   171  1.7000000000000D+00 -1.3038459836375D-01  2.6661970710942D-01
   172  1.7100000000000D+00 -1.3067624389899D-01  2.5290064409550D-01
   173  1.7200000000000D+00 -1.3067081669096D-01  2.3962529471882D-01
   174  1.7300000000000D+00 -1.3038322467215D-01  2.2679598971407D-01
   175  1.7400000000000D+00 -1.2982838486538D-01  2.1441394111645D-01
   176  1.7500000000000D+00 -1.2902118605256D-01  2.0247928058673D-01
   177  1.7600000000000D+00 -1.2797645268625D-01  1.9099109959212D-01
   178  1.7700000000000D+00 -1.2670891007778D-01  1.7994749125820D-01
   179  1.7800000000000D+00 -1.2523315099768D-01  1.6934559373544D-01
   180  1.7900000000000D+00 -1.2356360367338D-01  1.5918163490143D-01
   181  1.8000000000000D+00 -1.2171450134877D-01  1.4945097822841D-01
   182  1.8100000000000D+00 -1.1969985332888D-01  1.4014816965761D-01
   183  1.8200000000000D+00 -1.1753341771087D-01  1.3126698528420D-01
   184  1.8300000000000D+00 -1.1522867566607D-01  1.2280047972903D-01
   185  1.8400000000000D+00 -1.1279880748872D-01  1.1474103497160D-01
   186  1.8500000000000D+00 -1.1025667026128D-01  1.0708040955101D-01
   187  1.8600000000000D+00 -1.0761477730803D-01  9.9809787901242D-02
   188  1.8700000000000D+00 -1.0488527933078D-01  9.2919829730509D-02
   189  1.8800000000000D+00 -1.0207994730892D-01  8.6400719239529D-02
   190  1.8900000000000D+00 -9.9210157134315D-02  8.0242214054521D-02
   191  1.9000000000000D+00 -9.6286875950707D-02  7.4433693742594D-02
   192  1.9100000000000D+00 -9.3320650263153D-02  6.8964207706361D-02
   193  1.9200000000000D+00 -9.0321595666770D-02  6.3822522445546D-02
   194  1.9300000000000D+00 -8.7299388343314D-02  5.8997167876488D-02
   195  1.9400000000000D+00 -8.4263258108665D-02  5.4476482800844D-02
   196  1.9500000000000D+00 -8.1221983145856D-02  5.0248659190589D-02
   197  1.9600000000000D+00 -7.8183886259385D-02  4.6301785354620D-02
   198  1.9700000000000D+00 -7.5156832670423D-02  4.2623887779559D-02
   199  1.9800000000000D+00 -7.2148229307311D-02  3.9202971547395D-02
   200  1.9900000000000D+00 -6.9165025475330D-02  3.6027059356331D-02
   201  2.0000000000000D+00 -6.6213714959127D-02  3.3084228830853D-02
   202  2.0100000000000D+00 -6.3300339372384D-02  3.0362648347387D-02
   203  2.0200000000000D+00 -6.0430492805940D-02  2.7850610995217D-02
   204  2.0300000000000D+00 -5.7609327635502D-02  2.5536566849124D-02
   205  2.0400000000000D+00 -5.4841561448069D-02  2.3409153400436D-02
   206  2.0500000000000D+00 -5.2131485037327D-02  2.1457224012854D-02
   207  2.0600000000000D+00 -4.9482971352512D-02  1.9669874639813D-02
   208  2.0700000000000D+00 -4.6899485381221D-02  1.8036468359767D-02
   209  2.0800000000000D+00 -4.4384094857767D-02  1.6546658116394D-02
   210  2.0900000000000D+00 -4.1939481739010D-02  1.5190407373006D-02
   211  2.1000000000000D+00 -3.9567954372970D-02  1.3958008716062D-02
   212  2.1100000000000D+00 -3.7271460300608D-02  1.2840100601203D-02
   213  2.1200000000000D+00 -3.5051599582357D-02  1.1827681865315D-02
   214  2.1300000000000D+00 -3.2909638633918D-02  1.0912124430049D-02
   215  2.1400000000000D+00 -3.0846524451931D-02  1.0085183924344D-02
   216  2.1500000000000D+00 -2.8862899168702D-02  9.3390083000009D-03
   217  2.1600000000000D+00 -2.6959114934514D-02  8.6661446841305D-03
   218  2.1700000000000D+00 -2.5135248927168D-02  8.0595440999882D-03
   219  2.1800000000000D+00 -2.3391118577400D-02  7.5125645067471D-03
   220  2.1900000000000D+00 -2.1726296855592D-02  7.0189719724873D-03
   221  2.2000000000000D+00 -2.0140127542766D-02  6.5729400056139D-03
   222  2.2100000000000D+00 -1.8631740571463D-02  6.1690473484652D-03
   223  2.2200000000000D+00 -1.7200067170369D-02  5.8022739523377D-03
   224  2.2300000000000D+00 -1.5843854936361D-02  5.4679954607367D-03
   225  2.2400000000000D+00 -1.4561682761033D-02  5.1619762238934D-03
   226  2.2500000000000D+00 -1.3351975420968D-02  4.8803607525855D-03
   227  2.2600000000000D+00 -1.2213018028851D-02  4.6196639411441D-03
   228  2.2700000000000D+00 -1.1142970112130D-02  4.3767599508516D-03
   229  2.2800000000000D+00 -1.0139879319196D-02  4.1488698744135D-03
   230  2.2900000000000D+00 -9.2016948929974D-03  3.9335483806787D-03
   231  2.3000000000000D+00 -8.3262805863829D-03  3.7286692456991D-03
   232  2.3100000000000D+00 -7.5114272328066D-03  3.5324099969609D-03
   233  2.3200000000000D+00 -6.7548649398254D-03  3.3432357394546D-03
   234  2.3300000000000D+00 -6.0542746651856D-03  3.1598821907489D-03
   235  2.3400000000000D+00 -5.4072994501009D-03  2.9813380948495D-03
   236  2.3500000000000D+00 -4.8115551395593D-03  2.8068270742282D-03
   237  2.3600000000000D+00 -4.2646405193183D-03  2.6357890230601D-03
   238  2.3700000000000D+00 -3.7641470774945D-03  2.4678611134762D-03
   239  2.3800000000000D+00 -3.3076681774604D-03  2.3028585516467D-03
   240  2.3900000000000D+00 -2.8928076995016D-03  2.1407551690783D-03
   241  2.4000000000000D+00 -2.5171882844601D-03  1.9816638547451D-03
   242  2.4100000000000D+00 -2.1784589607873D-03  1.8258170803488D-03
   243  2.4200000000000D+00 -1.8743022980959D-03  1.6735475098509D-03
   244  2.4300000000000D+00 -1.6024411513731D-03  1.5252686688787D-03
   245  2.4400000000000D+00 -1.3606448068389D-03  1.3814560661844D-03
   246  2.4500000000000D+00 -1.1467347093693D-03  1.2426285943794D-03
   247  2.4600000000000D+00 -9.5858977496043D-04  1.1093302146438D-03
   248  2.4700000000000D+00 -7.9415117109140D-04  9.8211242661889D-04
   249  2.4800000000000D+00 -6.5142671601599D-04  8.6151717036709D-04
   250  2.4900000000000D+00 -5.2849487223215D-04  7.4806025155272D-04
   251  2.5000000000000D+00 -4.2350830192154D-04  6.4221580744937D-04
   252  2.5100000000000D+00 -3.3469706185059D-04  5.4440136489377D-04
   253  2.5200000000000D+00 -2.6037142366429D-04  4.5496361005536D-04
   254  2.5300000000000D+00 -1.9892434793568D-04  3.7416542628549D-04
   255  2.5400000000000D+00 -1.4883362030040D-04  3.0217365680035D-04
   256  2.5500000000000D+00 -1.0866364714517D-04  2.3904771169329D-04
   257  2.5600000000000D+00 -7.7066839902537D-05  1.8473069878630D-04
   258  2.5700000000000D+00 -5.2784286773728D-05  1.3904409277549D-04
   259  2.5800000000000D+00 -3.4650391365511D-05  1.0165417355966D-04
   260  2.5900000000000D+00 -2.1588499394228D-05  7.2090490123563D-05
   261  2.6000000000000D+00 -1.2607296556488D-05  4.9584827852665D-05
   262  2.6100000000000D+00 -6.8217869059130D-06  3.3725531706495D-05
   263  2.6200000000000D+00 -3.4297870393007D-06  2.3673827212143D-05
   264  2.6300000000000D+00 -1.7690346205131D-06  1.8956511185625D-05
   265  2.6400000000000D+00 -1.1264624590769D-06  1.6859608738723D-05
   266  2.6500000000000D+00 -9.4989336738103D-07  1.5236667102807D-05
   267  2.6600000000000D+00 -7.4432217098304D-07  1.1472089889975D-05
   268  2.6700000000000D+00 -4.4737940967949D-07  6.4575893229534D-06
   269  2.6800000000000D+00 -1.1842359938870D-07  1.5992940340268D-06
   270  2.6900000000000D+00  6.7046142993967D-08 -1.0709349607519D-06
   271  2.7000000000000D+00  9.4181330579517D-08 -1.4749879961630D-06
   272  2.7100000000000D+00  4.5884116331466D-08 -7.0471742756848D-07
   273  2.7200000000000D+00 -6.9627700343510D-09  1.4398872042062D-07
   274  2.7300000000000D+00 -1.5614877737907D-08  3.2796438079307D-07
   275  2.7400000000000D+00 -1.0681896692420D-08  2.2735994484306D-07
   276  2.7500000000000D+00  3.6768457998517D-10 -5.8343070929038D-09
   277  2.7600000000000D+00  2.4208148001106D-09 -3.8412753016352D-08
   278  2.7700000000000D+00  2.2948133460533D-09 -3.6413400263641D-08
   279  2.7800000000000D+00  4.1418706028203D-10 -6.5721943076587D-09
   280  2.7900000000000D+00  0.0000000000000D+00  0.0000000000000D+00
   281  2.8000000000000D+00  0.0000000000000D+00  0.0000000000000D+00
   282  2.8100000000000D+00  0.0000000000000D+00  0.0000000000000D+00
   283  2.8200000000000D+00  0.0000000000000D+00  0.0000000000000D+00
   284  2.8300000000000D+00  0.0000000000000D+00  0.0000000000000D+00
   285  2.8400000000000D+00  0.0000000000000D+00  0.0000000000000D+00
   286  2.8500000000000D+00  0.0000000000000D+00  0.0000000000000D+00
   287  2.8600000000000D+00  0.0000000000000D+00  0.0000000000000D+00
   288  2.8700000000000D+00  0.0000000000000D+00  0.0000000000000D+00
   289  2.8800000000000D+00  0.0000000000000D+00  0.0000000000000D+00
   290  2.8900000000000D+00  0.0000000000000D+00  0.0000000000000D+00
   291  2.9000000000000D+00  0.0000000000000D+00  0.0000000000000D+00
   292  2.9100000000000D+00  0.0000000000000D+00  0.0000000000000D+00
   293  2.9200000000000D+00  0.0000000000000D+00  0.0000000000000D+00
   294  2.9300000000000D+00  0.0000000000000D+00  0.0000000000000D+00
   295  2.9400000000000D+00  0.0000000000000D+00  0.0000000000000D+00
   296  2.9500000000000D+00  0.0000000000000D+00  0.0000000000000D+00
   297  2.9600000000000D+00  0.0000000000000D+00  0.0000000000000D+00
   298  2.9700000000000D+00  0.0000000000000D+00  0.0000000000000D+00
   299  2.9800000000000D+00  0.0000000000000D+00  0.0000000000000D+00
   300  2.9900000000000D+00  0.0000000000000D+00  0.0000000000000D+00
   301  3.0000000000000D+00  0.0000000000000D+00  0.0000000000000D+00
   302  3.0100000000000D+00  0.0000000000000D+00  0.0000000000000D+00
   303  3.0200000000000D+00  0.0000000000000D+00  0.0000000000000D+00
   304  3.0300000000000D+00  0.0000000000000D+00  0.0000000000000D+00
   305  3.0400000000000D+00  0.0000000000000D+00  0.0000000000000D+00
   306  3.0500000000000D+00  0.0000000000000D+00  0.0000000000000D+00
   307  3.0600000000000D+00  0.0000000000000D+00  0.0000000000000D+00
   308  3.0700000000000D+00  0.0000000000000D+00  0.0000000000000D+00
   309  3.0800000000000D+00  0.0000000000000D+00  0.0000000000000D+00
   310  3.0900000000000D+00  0.0000000000000D+00  0.0000000000000D+00
   311  3.1000000000000D+00  0.0000000000000D+00  0.0000000000000D+00
   312  3.1100000000000D+00  0.0000000000000D+00  0.0000000000000D+00
   313  3.1200000000000D+00  0.0000000000000D+00  0.0000000000000D+00
   314  3.1300000000000D+00  0.0000000000000D+00  0.0000000000000D+00
   315  3.1400000000000D+00  0.0000000000000D+00  0.0000000000000D+00
   316  3.1500000000000D+00  0.0000000000000D+00  0.0000000000000D+00
   317  3.1600000000000D+00  0.0000000000000D+00  0.0000000000000D+00
   318  3.1700000000000D+00  0.0000000000000D+00  0.0000000000000D+00
   319  3.1800000000000D+00  0.0000000000000D+00  0.0000000000000D+00
   320  3.1900000000000D+00  0.0000000000000D+00  0.0000000000000D+00
   321  3.2000000000000D+00  0.0000000000000D+00  0.0000000000000D+00
   322  3.2100000000000D+00  0.0000000000000D+00  0.0000000000000D+00
   323  3.2200000000000D+00  0.0000000000000D+00  0.0000000000000D+00
   324  3.2300000000000D+00  0.0000000000000D+00  0.0000000000000D+00
   325  3.2400000000000D+00  0.0000000000000D+00  0.0000000000000D+00
   326  3.2500000000000D+00  0.0000000000000D+00  0.0000000000000D+00
   327  3.2600000000000D+00  0.0000000000000D+00  0.0000000000000D+00
   328  3.2700000000000D+00  0.0000000000000D+00  0.0000000000000D+00
   329  3.2800000000000D+00  0.0000000000000D+00  0.0000000000000D+00
   330  3.2900000000000D+00  0.0000000000000D+00  0.0000000000000D+00
   331  3.3000000000000D+00  0.0000000000000D+00  0.0000000000000D+00
   332  3.3100000000000D+00  0.0000000000000D+00  0.0000000000000D+00
   333  3.3200000000000D+00  0.0000000000000D+00  0.0000000000000D+00
   334  3.3300000000000D+00  0.0000000000000D+00  0.0000000000000D+00
   335  3.3400000000000D+00  0.0000000000000D+00  0.0000000000000D+00
   336  3.3500000000000D+00  0.0000000000000D+00  0.0000000000000D+00
   337  3.3600000000000D+00  0.0000000000000D+00  0.0000000000000D+00
   338  3.3700000000000D+00  0.0000000000000D+00  0.0000000000000D+00
   339  3.3800000000000D+00  0.0000000000000D+00  0.0000000000000D+00
   340  3.3900000000000D+00  0.0000000000000D+00  0.0000000000000D+00
   341  3.4000000000000D+00  0.0000000000000D+00  0.0000000000000D+00
   342  3.4100000000000D+00  0.0000000000000D+00  0.0000000000000D+00
   343  3.4200000000000D+00  0.0000000000000D+00  0.0000000000000D+00
   344  3.4300000000000D+00  0.0000000000000D+00  0.0000000000000D+00
   345  3.4400000000000D+00  0.0000000000000D+00  0.0000000000000D+00
   346  3.4500000000000D+00  0.0000000000000D+00  0.0000000000000D+00
   347  3.4600000000000D+00  0.0000000000000D+00  0.0000000000000D+00
   348  3.4700000000000D+00  0.0000000000000D+00  0.0000000000000D+00
   349  3.4800000000000D+00  0.0000000000000D+00  0.0000000000000D+00
   350  3.4900000000000D+00  0.0000000000000D+00  0.0000000000000D+00
   351  3.5000000000000D+00  0.0000000000000D+00  0.0000000000000D+00
   352  3.5100000000000D+00  0.0000000000000D+00  0.0000000000000D+00
   353  3.5200000000000D+00  0.0000000000000D+00  0.0000000000000D+00
   354  3.5300000000000D+00  0.0000000000000D+00  0.0000000000000D+00
   355  3.5400000000000D+00  0.0000000000000D+00  0.0000000000000D+00
   356  3.5500000000000D+00  0.0000000000000D+00  0.0000000000000D+00
   357  3.5600000000000D+00  0.0000000000000D+00  0.0000000000000D+00
   358  3.5700000000000D+00  0.0000000000000D+00  0.0000000000000D+00
   359  3.5800000000000D+00  0.0000000000000D+00  0.0000000000000D+00
   360  3.5900000000000D+00  0.0000000000000D+00  0.0000000000000D+00
   361  3.6000000000000D+00  0.0000000000000D+00  0.0000000000000D+00
   362  3.6100000000000D+00  0.0000000000000D+00  0.0000000000000D+00
   363  3.6200000000000D+00  0.0000000000000D+00  0.0000000000000D+00
   364  3.6300000000000D+00  0.0000000000000D+00  0.0000000000000D+00
   365  3.6400000000000D+00  0.0000000000000D+00  0.0000000000000D+00
   366  3.6500000000000D+00  0.0000000000000D+00  0.0000000000000D+00
   367  3.6600000000000D+00  0.0000000000000D+00  0.0000000000000D+00
   368  3.6700000000000D+00  0.0000000000000D+00  0.0000000000000D+00
   369  3.6800000000000D+00  0.0000000000000D+00  0.0000000000000D+00
   370  3.6900000000000D+00  0.0000000000000D+00  0.0000000000000D+00
   371  3.7000000000000D+00  0.0000000000000D+00  0.0000000000000D+00
   372  3.7100000000000D+00  0.0000000000000D+00  0.0000000000000D+00
   373  3.7200000000000D+00  0.0000000000000D+00  0.0000000000000D+00
   374  3.7300000000000D+00  0.0000000000000D+00  0.0000000000000D+00
   375  3.7400000000000D+00  0.0000000000000D+00  0.0000000000000D+00
   376  3.7500000000000D+00  0.0000000000000D+00  0.0000000000000D+00
   377  3.7600000000000D+00  0.0000000000000D+00  0.0000000000000D+00
   378  3.7700000000000D+00  0.0000000000000D+00  0.0000000000000D+00
   379  3.7800000000000D+00  0.0000000000000D+00  0.0000000000000D+00
   380  3.7900000000000D+00  0.0000000000000D+00  0.0000000000000D+00
   381  3.8000000000000D+00  0.0000000000000D+00  0.0000000000000D+00
   382  3.8100000000000D+00  0.0000000000000D+00  0.0000000000000D+00
   383  3.8200000000000D+00  0.0000000000000D+00  0.0000000000000D+00
   384  3.8300000000000D+00  0.0000000000000D+00  0.0000000000000D+00
   385  3.8400000000000D+00  0.0000000000000D+00  0.0000000000000D+00
   386  3.8500000000000D+00  0.0000000000000D+00  0.0000000000000D+00
   387  3.8600000000000D+00  0.0000000000000D+00  0.0000000000000D+00
   388  3.8700000000000D+00  0.0000000000000D+00  0.0000000000000D+00
   389  3.8800000000000D+00  0.0000000000000D+00  0.0000000000000D+00
   390  3.8900000000000D+00  0.0000000000000D+00  0.0000000000000D+00
   391  3.9000000000000D+00  0.0000000000000D+00  0.0000000000000D+00
   392  3.9100000000000D+00  0.0000000000000D+00  0.0000000000000D+00
   393  3.9200000000000D+00  0.0000000000000D+00  0.0000000000000D+00
   394  3.9300000000000D+00  0.0000000000000D+00  0.0000000000000D+00
   395  3.9400000000000D+00  0.0000000000000D+00  0.0000000000000D+00
   396  3.9500000000000D+00  0.0000000000000D+00  0.0000000000000D+00
   397  3.9600000000000D+00  0.0000000000000D+00  0.0000000000000D+00
   398  3.9700000000000D+00  0.0000000000000D+00  0.0000000000000D+00
   399  3.9800000000000D+00  0.0000000000000D+00  0.0000000000000D+00
   400  3.9900000000000D+00  0.0000000000000D+00  0.0000000000000D+00
   401  4.0000000000000D+00  0.0000000000000D+00  0.0000000000000D+00
   402  4.0100000000000D+00  0.0000000000000D+00  0.0000000000000D+00
   403  4.0200000000000D+00  0.0000000000000D+00  0.0000000000000D+00
   404  4.0300000000000D+00  0.0000000000000D+00  0.0000000000000D+00
   405  4.0400000000000D+00  0.0000000000000D+00  0.0000000000000D+00
   406  4.0500000000000D+00  0.0000000000000D+00  0.0000000000000D+00
   407  4.0600000000000D+00  0.0000000000000D+00  0.0000000000000D+00
   408  4.0700000000000D+00  0.0000000000000D+00  0.0000000000000D+00
   409  4.0800000000000D+00  0.0000000000000D+00  0.0000000000000D+00
   410  4.0900000000000D+00  0.0000000000000D+00  0.0000000000000D+00
   411  4.1000000000000D+00  0.0000000000000D+00  0.0000000000000D+00
   412  4.1100000000000D+00  0.0000000000000D+00  0.0000000000000D+00
   413  4.1200000000000D+00  0.0000000000000D+00  0.0000000000000D+00
   414  4.1300000000000D+00  0.0000000000000D+00  0.0000000000000D+00
   415  4.1400000000000D+00  0.0000000000000D+00  0.0000000000000D+00
   416  4.1500000000000D+00  0.0000000000000D+00  0.0000000000000D+00
   417  4.1600000000000D+00  0.0000000000000D+00  0.0000000000000D+00
   418  4.1700000000000D+00  0.0000000000000D+00  0.0000000000000D+00
   419  4.1800000000000D+00  0.0000000000000D+00  0.0000000000000D+00
   420  4.1900000000000D+00  0.0000000000000D+00  0.0000000000000D+00
   421  4.2000000000000D+00  0.0000000000000D+00  0.0000000000000D+00
   422  4.2100000000000D+00  0.0000000000000D+00  0.0000000000000D+00
   423  4.2200000000000D+00  0.0000000000000D+00  0.0000000000000D+00