Ne    ONCVPSP-3.3.1  r_core=   2.65215   2.68397
     10.0000      8.0000      210905    zatom,zion,pspd
     8 -116133   1     4   600     0    pspcod,pspxc,lmax,lloc,mmax,r2well
  5.99000000  0.00000000  0.00000000    rchrg fchrg qchrg
     2     2     0     0    nproj
     3     1           extension_switch
     3     0     0    nprojso
   0                        -2.2108642408052D+00 -9.6055812365545D-01
     1  0.0000000000000D+00  3.1724622928664D-12  5.1422754943076D-12
     2  1.0000000000000D-02  2.3110016334335D-02 -4.4884899516834D-02
     3  2.0000000000000D-02  4.6220953785999D-02 -8.9679943283455D-02
     4  3.0000000000000D-02  6.9333683698760D-02 -1.3429546953032D-01
     5  4.0000000000000D-02  9.2448978081127D-02 -1.7864220397394D-01
     6  5.0000000000000D-02  1.1556746046757D-01 -2.2263145237297D-01
     7  6.0000000000000D-02  1.3868955741213D-01 -2.6617529166357D-01
     8  7.0000000000000D-02  1.6181545082149D-01 -3.0918675920663D-01
     9  8.0000000000000D-02  1.8494503133139D-01 -3.5158003968424D-01
    10  9.0000000000000D-02  2.0807785292636D-01 -3.9327064918967D-01
    11  1.0000000000000D-01  2.3121308899805D-01 -4.3417561606223D-01
    12  1.1000000000000D-01  2.5434949003195D-01 -4.7421365802785D-01
    13  1.2000000000000D-01  2.7748534310615D-01 -5.1330535521555D-01
    14  1.3000000000000D-01  3.0061843337901D-01 -5.5137331863193D-01
    15  1.4000000000000D-01  3.2374600773504D-01 -5.8834235368741D-01
    16  1.5000000000000D-01  3.4686474075007D-01 -6.2413961838203D-01
    17  1.6000000000000D-01  3.6997070312819D-01 -6.5869477577258D-01
    18  1.7000000000000D-01  3.9305933275341D-01 -6.9194014035860D-01
    19  1.8000000000000D-01  4.1612540848924D-01 -7.2381081804115D-01
    20  1.9000000000000D-01  4.3916302684895D-01 -7.5424483932558D-01
    21  2.0000000000000D-01  4.6216558164844D-01 -7.8318328545772D-01
    22  2.1000000000000D-01  4.8512574674228D-01 -8.1057040720210D-01
    23  2.2000000000000D-01  5.0803546193201D-01 -8.3635373599031D-01
    24  2.3000000000000D-01  5.3088592212362D-01 -8.6048418718840D-01
    25  2.4000000000000D-01  5.5366756979884D-01 -8.8291615525300D-01
    26  2.5000000000000D-01  5.7637009085253D-01 -9.0360760056780D-01
    27  2.6000000000000D-01  5.9898241383553D-01 -9.2252012777409D-01
    28  2.7000000000000D-01  6.2149271262935D-01 -9.3961905543165D-01
    29  2.8000000000000D-01  6.4388841256660D-01 -9.5487347686933D-01
    30  2.9000000000000D-01  6.6615619999719D-01 -9.6825631210817D-01
    31  3.0000000000000D-01  6.8828203528813D-01 -9.7974435076306D-01
    32  3.1000000000000D-01  7.1025116923117D-01 -9.8931828585318D-01
    33  3.2000000000000D-01  7.3204816281972D-01 -9.9696273847486D-01
    34  3.3000000000000D-01  7.5365691034403D-01 -1.0026662733148D+00
    35  3.4000000000000D-01  7.7506066574040D-01 -1.0064214050053D+00
    36  3.5000000000000D-01  7.9624207211859D-01 -1.0082245953463D+00
    37  3.6000000000000D-01  8.1718319437874D-01 -1.0080762414444D+00
    38  3.7000000000000D-01  8.3786555481798D-01 -1.0059806548399D+00
    39  3.8000000000000D-01  8.5827017161520D-01 -1.0019460317184D+00
    40  3.9000000000000D-01  8.7837760007149D-01 -9.9598441432406D-01
    41  4.0000000000000D-01  8.9816797647333D-01 -9.8811164371655D-01
    42  4.1000000000000D-01  9.1762106443554D-01 -9.7834730403187D-01
    43  4.2000000000000D-01  9.3671630357136D-01 -9.6671465843243D-01
    44  4.3000000000000D-01  9.5543286032835D-01 -9.5324057694951D-01
    45  4.4000000000000D-01  9.7374968082008D-01 -9.3795545644256D-01
    46  4.5000000000000D-01  9.9164554547621D-01 -9.2089313291880D-01
    47  4.6000000000000D-01  1.0090991253261D+00 -9.0209078647508D-01
    48  4.7000000000000D-01  1.0260890397253D+00 -8.8158883914143D-01
    49  4.8000000000000D-01  1.0425939153271D+00 -8.5943084592308D-01
    50  4.9000000000000D-01  1.0585924460994D+00 -8.3566337935305D-01
    51  5.0000000000000D-01  1.0740634541782D+00 -8.1033590788281D-01
    52  5.1000000000000D-01  1.0889859513503D+00 -7.8350066845234D-01
    53  5.2000000000000D-01  1.1033392009527D+00 -7.5521253359379D-01
    54  5.3000000000000D-01  1.1171027799730D+00 -7.2552887343512D-01
    55  5.4000000000000D-01  1.1302566411376D+00 -6.9450941298065D-01
    56  5.5000000000000D-01  1.1427811747698D+00 -6.6221608505534D-01
    57  5.6000000000000D-01  1.1546572702045D+00 -6.2871287930827D-01
    58  5.7000000000000D-01  1.1658663765431D+00 -5.9406568767802D-01
    59  5.8000000000000D-01  1.1763905625384D+00 -5.5834214672929D-01
    60  5.9000000000000D-01  1.1862125753983D+00 -5.2161147727491D-01
    61  6.0000000000000D-01  1.1953158983033D+00 -4.8394432170166D-01
    62  6.1000000000000D-01  1.2036848064348D+00 -4.4541257942074D-01
    63  6.2000000000000D-01  1.2113044213187D+00 -4.0608924086576D-01
    64  6.3000000000000D-01  1.2181607632913D+00 -3.6604822046118D-01
    65  6.4000000000000D-01  1.2242408019033D+00 -3.2536418898364D-01
    66  6.5000000000000D-01  1.2295325040844D+00 -2.8411240573654D-01
    67  6.6000000000000D-01  1.2340248798966D+00 -2.4236855095537D-01
    68  6.7000000000000D-01  1.2377080257146D+00 -2.0020855885696D-01
    69  6.8000000000000D-01  1.2405731646804D+00 -1.5770845174064D-01
    70  6.9000000000000D-01  1.2426126842867D+00 -1.1494417554301D-01
    71  7.0000000000000D-01  1.2438201709553D+00 -7.1991437240358D-02
    72  7.1000000000000D-01  1.2441904414863D+00 -2.8925544484626D-02
    73  7.2000000000000D-01  1.2437195712643D+00  1.4178752150755D-02
    74  7.3000000000000D-01  1.2424049191199D+00  5.7247413949267D-02
    75  7.4000000000000D-01  1.2402451487537D+00  1.0020726549926D-01
    76  7.5000000000000D-01  1.2372402466465D+00  1.4298614246898D-01
    77  7.6000000000000D-01  1.2333915363848D+00  1.8551303537936D-01
    78  7.7000000000000D-01  1.2287016893492D+00  2.2771822905884D-01
    79  7.8000000000000D-01  1.2231747317215D+00  2.6953343747919D-01
    80  7.9000000000000D-01  1.2168160477802D+00  3.1089193368661D-01
    81  8.0000000000000D-01  1.2096323794668D+00  3.5172867455828D-01
    82  8.1000000000000D-01  1.2016318222181D+00  3.9198042013076D-01
    83  8.2000000000000D-01  1.1928238170698D+00  4.3158584726420D-01
    84  8.3000000000000D-01  1.1832191390538D+00  4.7048565742329D-01
    85  8.4000000000000D-01  1.1728298819192D+00  5.0862267837432D-01
    86  8.5000000000000D-01  1.1616694392223D+00  5.4594195961573D-01
    87  8.6000000000000D-01  1.1497524818410D+00  5.8239086137822D-01
    88  8.7000000000000D-01  1.1370949319834D+00  6.1791913704971D-01
    89  8.8000000000000D-01  1.1237139337680D+00  6.5247900889901D-01
    90  8.9000000000000D-01  1.1096278204680D+00  6.8602523699196D-01
    91  9.0000000000000D-01  1.0948560785202D+00  7.1851518121248D-01
    92  9.1000000000000D-01  1.0794193084115D+00  7.4990885632098D-01
    93  9.2000000000000D-01  1.0633391825631D+00  7.8016898000149D-01
    94  9.3000000000000D-01  1.0466384003468D+00  8.0926101386827D-01
    95  9.4000000000000D-01  1.0293406403710D+00  8.3715319742190D-01
    96  9.5000000000000D-01  1.0114705101864D+00  8.6381657496363D-01
    97  9.6000000000000D-01  9.9305349356959D-01  8.8922501549563D-01
    98  9.7000000000000D-01  9.7411589554631D-01  9.1335522565297D-01
    99  9.8000000000000D-01  9.5468478532713D-01  9.3618675573128D-01
   100  9.9000000000000D-01  9.3478793733182D-01  9.5770199889196D-01
   101  1.0000000000000D+00  9.1445377048502D-01  9.7788618364354D-01
   102  1.0100000000000D+00  8.9371128597042D-01  9.9672735971489D-01
   103  1.0200000000000D+00  8.7259000363473D-01  1.0142163774519D+00
   104  1.0300000000000D+00  8.5111989723635D-01  1.0303468608855D+00
   105  1.0400000000000D+00  8.2933132873596D-01  1.0451151746323D+00
   106  1.0500000000000D+00  8.0725498182876D-01  1.0585203848058D+00
   107  1.0600000000000D+00  7.8492179491895D-01  1.0705642141275D+00
   108  1.0700000000000D+00  7.6236289373802D-01  1.0812509914423D+00
   109  1.0800000000000D+00  7.3960952380797D-01  1.0905875958525D+00
   110  1.0900000000000D+00  7.1669298295007D-01  1.0985833956982D+00
   111  1.1000000000000D+00  6.9364455403814D-01  1.1052501826218D+00
   112  1.1100000000000D+00  6.7049543819332D-01  1.1106021009629D+00
   113  1.1200000000000D+00  6.4727668861424D-01  1.1146555727413D+00
   114  1.1300000000000D+00  6.2401914523284D-01  1.1174292184922D+00
   115  1.1400000000000D+00  6.0075337038312D-01  1.1189437742247D+00
   116  1.1500000000000D+00  5.7750958566370D-01  1.1192220047825D+00
   117  1.1600000000000D+00  5.5431761017105D-01  1.1182886138906D+00
   118  1.1700000000000D+00  5.3120680027319D-01  1.1161701511759D+00
   119  1.1800000000000D+00  5.0820599108935D-01  1.1128949164534D+00
   120  1.1900000000000D+00  4.8534343983159D-01  1.1084928615738D+00
   121  1.2000000000000D+00  4.6264677115773D-01  1.1029954901289D+00
   122  1.2100000000000D+00  4.4014292467875D-01  1.0964357553122D+00
   123  1.2200000000000D+00  4.1785810475385D-01  1.0888479562340D+00
   124  1.2300000000000D+00  3.9581773269709D-01  1.0802676329878D+00
   125  1.2400000000000D+00  3.7404640151163D-01  1.0707314607633D+00
   126  1.2500000000000D+00  3.5256783326033D-01  1.0602771433014D+00
   127  1.2600000000000D+00  3.3140483916664D-01  1.0489433059816D+00
   128  1.2700000000000D+00  3.1057928253260D-01  1.0367693888250D+00
   129  1.2800000000000D+00  2.9011204455554D-01  1.0237955397018D+00
   130  1.2900000000000D+00  2.7002299310480D-01  1.0100625080133D+00
   131  1.3000000000000D+00  2.5033095451564D-01  9.9561153912075D-01
   132  1.3100000000000D+00  2.3105368845181D-01  9.8048426978944D-01
   133  1.3200000000000D+00  2.1220786586461D-01  9.6472262489685D-01
   134  1.3300000000000D+00  1.9380905007691D-01  9.4836871565691D-01
   135  1.3400000000000D+00  1.7587168101083D-01  9.3146473960339D-01
   136  1.3500000000000D+00  1.5840906255363D-01  9.1405288255387D-01
   137  1.3600000000000D+00  1.4143335306493D-01  8.9617522278332D-01
   138  1.3700000000000D+00  1.2495555900712D-01  8.7787363761696D-01
   139  1.3800000000000D+00  1.0898553166393D-01  8.5918971263089D-01
   140  1.3900000000000D+00  9.3531966928525D-02  8.4016465367004D-01
   141  1.4000000000000D+00  7.8602408098839D-02  8.2083920184055D-01
   142  1.4100000000000D+00  6.4203251633973D-02  8.0125355165102D-01
   143  1.4200000000000D+00  5.0339755812311D-02  7.8144727246439D-01
   144  1.4300000000000D+00  3.7016052204647D-02  7.6145923337787D-01
   145  1.4400000000000D+00  2.4235159902942D-02  7.4132753169287D-01
   146  1.4500000000000D+00  1.1999002397840D-02  7.2108942506102D-01
   147  1.4600000000000D+00  3.0842702078193D-04  7.0078126742594D-01
   148  1.4700000000000D+00 -1.0836773151271D-02  6.8043844885656D-01
   149  1.4800000000000D+00 -2.1437835047651D-02  6.6009533932295D-01
   150  1.4900000000000D+00 -3.1496999108299D-02  6.3978523652491D-01
   151  1.5000000000000D+00 -4.1017480682029D-02  6.1954031777234D-01
   152  1.5100000000000D+00 -5.0003439423881D-02  5.9939159600735D-01
   153  1.5200000000000D+00 -5.8459946835605D-02  5.7936887995754D-01
   154  1.5300000000000D+00 -6.6392952073823D-02  5.5950073845454D-01
   155  1.5400000000000D+00 -7.3809246165402D-02  5.3981446892176D-01
   156  1.5500000000000D+00 -8.0716424770858D-02  5.2033606999887D-01
   157  1.5600000000000D+00 -8.7122849633309D-02  5.0109021832538D-01
   158  1.5700000000000D+00 -9.3037608861516D-02  4.8210024938767D-01
   159  1.5800000000000D+00 -9.8470476187188D-02  4.6338814246314D-01
   160  1.5900000000000D+00 -1.0343186934408D-01  4.4497450952124D-01
   161  1.6000000000000D+00 -1.0793280771490D-01  4.2687858810128D-01
   162  1.6100000000000D+00 -1.1198486938738D-01  4.0911823801266D-01
   163  1.6200000000000D+00 -1.1560014776943D-01  3.9170994184208D-01
   164  1.6300000000000D+00 -1.1879120789858D-01  3.7466880911434D-01
   165  1.6400000000000D+00 -1.2157104259437D-01  3.5800858405307D-01
   166  1.6500000000000D+00 -1.2395302858399D-01  3.4174165678984D-01
   167  1.6600000000000D+00 -1.2595088274401D-01  3.2587907793537D-01
   168  1.6700000000000D+00 -1.2757861858355D-01  3.1043057636030D-01
   169  1.6800000000000D+00 -1.2885050310326D-01  2.9540458007401D-01
   170  1.6900000000000D+00 -1.2978101414894D-01  2.8080824004442D-01
   171  1.7000000000000D+00 -1.3038479838483D-01  2.6664745682983D-01
   172  1.7100000000000D+00 -1.3067662999567D-01  2.5292690985815D-01
   173  1.7200000000000D+00 -1.3067137023473D-01  2.3965008921382D-01
   174  1.7300000000000D+00 -1.3038392791148D-01  2.2681932975870D-01
   175  1.7400000000000D+00 -1.2982922093323D-01  2.1443584744147D-01
   176  1.7500000000000D+00 -1.2902213897002D-01  2.0249977761381D-01
   177  1.7600000000000D+00 -1.2797750736253D-01  1.9101021520354D-01
   178  1.7700000000000D+00 -1.2671005230657D-01  1.7996525656001D-01
   179  1.7800000000000D+00 -1.2523436745025D-01  1.6936204281522D-01
   180  1.7900000000000D+00 -1.2356488188840D-01  1.5919680458185D-01
   181  1.8000000000000D+00 -1.2171582971920D-01  1.4946490781769D-01
   182  1.8100000000000D+00 -1.1970122108606D-01  1.4016090069804D-01
   183  1.8200000000000D+00 -1.1753481490603D-01  1.3127856129986D-01
   184  1.8300000000000D+00 -1.1523009314943D-01  1.2281094597384D-01
   185  1.8400000000000D+00 -1.1280023688642D-01  1.1475043817874D-01
   186  1.8500000000000D+00 -1.1025810395038D-01  1.0708879768481D-01
   187  1.8600000000000D+00 -1.0761620838973D-01  9.9817209912472D-02
   188  1.8700000000000D+00 -1.0488670160215D-01  9.2926335316228D-02
   189  1.8800000000000D+00 -1.0208135523320D-01  8.6406358608233D-02
   190  1.8900000000000D+00 -9.9211545810253D-02  8.0247037697637D-02
   191  1.9000000000000D+00 -9.6288241080853D-02  7.4437752213083D-02
   192  1.9100000000000D+00 -9.3321988121517D-02  6.8967551405285D-02
   193  1.9200000000000D+00 -9.0322903065939D-02  6.3825201417283D-02
   194  1.9300000000000D+00 -8.7300662601264D-02  5.8999231613337D-02
   195  1.9400000000000D+00 -8.4264497015427D-02  5.4477980057600D-02
   196  1.9500000000000D+00 -8.1223184930229D-02  5.0249637809684D-02
   197  1.9600000000000D+00 -7.8185049555857D-02  4.6302292102319D-02
   198  1.9700000000000D+00 -7.5157956486465D-02  4.2623968193646D-02
   199  1.9800000000000D+00 -7.2149312991198D-02  3.9202669796731D-02
   200  1.9900000000000D+00 -6.9166068684622D-02  3.6026418112582D-02
   201  2.0000000000000D+00 -6.6214717629958D-02  3.3083289152630D-02
   202  2.0100000000000D+00 -6.3301301689664D-02  3.0361449576985D-02
   203  2.0200000000000D+00 -6.0431415174598D-02  2.7849190668039D-02
   204  2.0300000000000D+00 -5.7610210652854D-02  2.5534960615861D-02
   205  2.0400000000000D+00 -5.4842405877421D-02  2.3407394961965D-02
   206  2.0500000000000D+00 -5.2132291782869D-02  2.1455345067757D-02
   207  2.0600000000000D+00 -4.9483741435592D-02  1.9667904844417D-02
   208  2.0700000000000D+00 -4.6900219918037D-02  1.8034435300441D-02
   209  2.0800000000000D+00 -4.4384795038535D-02  1.6544587293890D-02
   210  2.0900000000000D+00 -4.1940148808637D-02  1.5188322198506D-02
   211  2.1000000000000D+00 -3.9568589613255D-02  1.3955930518534D-02
   212  2.1100000000000D+00 -3.7272065013986D-02  1.2838048645718D-02
   213  2.1200000000000D+00 -3.5052175077188D-02  1.1825673381750D-02
   214  2.1300000000000D+00 -3.2910186211311D-02  1.0910174651764D-02
   215  2.1400000000000D+00 -3.0847045394089D-02  1.0083306136234D-02
   216  2.1500000000000D+00 -2.8863394728760D-02  9.3372138952895D-03
   217  2.1600000000000D+00 -2.6959586327844D-02  8.6644432294073D-03
   218  2.1700000000000D+00 -2.5135697324088D-02  8.0579434076776D-03
   219  2.1800000000000D+00 -2.3391545097259D-02  7.5110707144535D-03
   220  2.1900000000000D+00 -2.1726702562163D-02  7.0175896284775D-03
   221  2.2000000000000D+00 -2.0140513440877D-02  6.5716721596512D-03
   222  2.2100000000000D+00 -1.8632107604813D-02  6.1678956474092D-03
   223  2.2200000000000D+00 -1.7200416220438D-02  5.8012387396089D-03
   224  2.2300000000000D+00 -1.5844186822340D-02  5.4670758789811D-03
   225  2.2400000000000D+00 -1.4561998240700D-02  5.1611703201423D-03
   226  2.2500000000000D+00 -1.3352275192404D-02  4.8796655850213D-03
   227  2.2600000000000D+00 -1.2213302732928D-02  4.6190756868849D-03
   228  2.2700000000000D+00 -1.1143240335668D-02  4.3762740139449D-03
   229  2.2800000000000D+00 -1.0140135598691D-02  4.1484809932848D-03
   230  2.2900000000000D+00 -9.2019377188522D-03  3.9332507344825D-03
   231  2.3000000000000D+00 -8.3265104075219D-03  3.7284565587278D-03
   232  2.3100000000000D+00 -7.5116444615902D-03  3.5322756405387D-03
   233  2.3200000000000D+00 -6.7550699571924D-03  3.3431728307532D-03
   234  2.3300000000000D+00 -6.0544678259036D-03  3.1598836877900D-03
   235  2.3400000000000D+00 -5.4074810880629D-03  2.9813968872527D-03
   236  2.3500000000000D+00 -4.8117255730405D-03  2.8069360691603D-03
   237  2.3600000000000D+00 -4.2648000560985D-03  2.6359412258386D-03
   238  2.3700000000000D+00 -3.7642960197925D-03  2.4680497024743D-03
   239  2.3800000000000D+00 -3.3078068265969D-03  2.3030769470492D-03
   240  2.3900000000000D+00 -2.8929363602216D-03  2.1409970951242D-03
   241  2.4000000000000D+00 -2.5173072688682D-03  1.9819233951993D-03
   242  2.4100000000000D+00 -2.1785685918285D-03  1.8260887268968D-03
   243  2.4200000000000D+00 -1.8744029125338D-03  1.6738262032181D-03
   244  2.4300000000000D+00 -1.6025331022320D-03  1.5255498325166D-03
   245  2.4400000000000D+00 -1.3607284652610D-03  1.3817356324068D-03
   246  2.4500000000000D+00 -1.1468104658626D-03  1.2429030228901D-03
   247  2.4600000000000D+00 -9.5865804001265D-04  1.1095965034042D-03
   248  2.4700000000000D+00 -7.9421237513091D-04  9.8236811515092D-04
   249  2.4800000000000D+00 -6.5148130871058D-04  8.6176033553968D-04
   250  2.4900000000000D+00 -5.2854332111376D-04  7.4828949592195D-04
   251  2.5000000000000D+00 -4.2355109035078D-04  6.4243024045263D-04
   252  2.5100000000000D+00 -3.3473468632158D-04  5.4460057703785D-04
   253  2.5200000000000D+00 -2.6040439045486D-04  4.5514764028762D-04
   254  2.5300000000000D+00 -1.9895316914377D-04  3.7433472303003D-04
   255  2.5400000000000D+00 -1.4885880927852D-04  3.0232903288417D-04
   256  2.5500000000000D+00 -1.0868571335005D-04  2.3919029343976D-04
   257  2.5600000000000D+00 -7.7086286212846D-05  1.8486189168986D-04
   258  2.5700000000000D+00 -5.2801616975208D-05  1.3916562002338D-04
   259  2.5800000000000D+00 -3.4666045251401D-05  1.0176758579074D-04
   260  2.5900000000000D+00 -2.1602873432961D-05  7.2197297987332D-05
   261  2.6000000000000D+00 -1.2620605601232D-05  4.9685475799698D-05
   262  2.6100000000000D+00 -6.8345599522477D-06  3.3822989504342D-05
   263  2.6200000000000D+00 -3.4425995605704D-06  2.3771620008982D-05
   264  2.6300000000000D+00 -1.7828477483493D-06  1.9061172101423D-05
   265  2.6400000000000D+00 -1.1409167525225D-06  1.6968221328687D-05
   266  2.6500000000000D+00 -9.6371693674129D-07  1.5339819478135D-05
   267  2.6600000000000D+00 -7.5490269861686D-07  1.1550717867281D-05
   268  2.6700000000000D+00 -4.5334257290064D-07  6.5017845308261D-06
   269  2.6800000000000D+00 -1.1989135156566D-07  1.6101505244952D-06
   270  2.6900000000000D+00  6.8071253046185D-08 -1.0785349113186D-06
   271  2.7000000000000D+00  9.5596301801463D-08 -1.4854713407753D-06
   272  2.7100000000000D+00  4.6560776112507D-08 -7.0972804821120D-07
   273  2.7200000000000D+00 -7.1035316862782D-09  1.4503508355040D-07
   274  2.7300000000000D+00 -1.5936609532135D-08  3.3035571177002D-07
   275  2.7400000000000D+00 -1.0905590464491D-08  2.2902242184530D-07
   276  2.7500000000000D+00  3.7299665154376D-10 -5.8738957985545D-09
   277  2.7600000000000D+00  2.4557891834497D-09 -3.8673402849860D-08
   278  2.7700000000000D+00  2.3279673410027D-09 -3.6660483483949D-08
   279  2.7800000000000D+00  4.2017096992259D-10 -6.6167899488860D-09
   280  2.7900000000000D+00  0.0000000000000D+00  0.0000000000000D+00
   281  2.8000000000000D+00  0.0000000000000D+00  0.0000000000000D+00
   282  2.8100000000000D+00  0.0000000000000D+00  0.0000000000000D+00
   283  2.8200000000000D+00  0.0000000000000D+00  0.0000000000000D+00
   284  2.8300000000000D+00  0.0000000000000D+00  0.0000000000000D+00
   285  2.8400000000000D+00  0.0000000000000D+00  0.0000000000000D+00
   286  2.8500000000000D+00  0.0000000000000D+00  0.0000000000000D+00
   287  2.8600000000000D+00  0.0000000000000D+00  0.0000000000000D+00
   288  2.8700000000000D+00  0.0000000000000D+00  0.0000000000000D+00
   289  2.8800000000000D+00  0.0000000000000D+00  0.0000000000000D+00
   290  2.8900000000000D+00  0.0000000000000D+00  0.0000000000000D+00
   291  2.9000000000000D+00  0.0000000000000D+00  0.0000000000000D+00
   292  2.9100000000000D+00  0.0000000000000D+00  0.0000000000000D+00
   293  2.9200000000000D+00  0.0000000000000D+00  0.0000000000000D+00
   294  2.9300000000000D+00  0.0000000000000D+00  0.0000000000000D+00
   295  2.9400000000000D+00  0.0000000000000D+00  0.0000000000000D+00
   296  2.9500000000000D+00  0.0000000000000D+00  0.0000000000000D+00
   297  2.9600000000000D+00  0.0000000000000D+00  0.0000000000000D+00
   298  2.9700000000000D+00  0.0000000000000D+00  0.0000000000000D+00
   299  2.9800000000000D+00  0.0000000000000D+00  0.0000000000000D+00
   300  2.9900000000000D+00  0.0000000000000D+00  0.0000000000000D+00
   301  3.0000000000000D+00  0.0000000000000D+00  0.0000000000000D+00
   302  3.0100000000000D+00  0.0000000000000D+00  0.0000000000000D+00
   303  3.0200000000000D+00  0.0000000000000D+00  0.0000000000000D+00
   304  3.0300000000000D+00  0.0000000000000D+00  0.0000000000000D+00
   305  3.0400000000000D+00  0.0000000000000D+00  0.0000000000000D+00
   306  3.0500000000000D+00  0.0000000000000D+00  0.0000000000000D+00
   307  3.0600000000000D+00  0.0000000000000D+00  0.0000000000000D+00
   308  3.0700000000000D+00  0.0000000000000D+00  0.0000000000000D+00
   309  3.0800000000000D+00  0.0000000000000D+00  0.0000000000000D+00
   310  3.0900000000000D+00  0.0000000000000D+00  0.0000000000000D+00
   311  3.1000000000000D+00  0.0000000000000D+00  0.0000000000000D+00
   312  3.1100000000000D+00  0.0000000000000D+00  0.0000000000000D+00
   313  3.1200000000000D+00  0.0000000000000D+00  0.0000000000000D+00
   314  3.1300000000000D+00  0.0000000000000D+00  0.0000000000000D+00
   315  3.1400000000000D+00  0.0000000000000D+00  0.0000000000000D+00
   316  3.1500000000000D+00  0.0000000000000D+00  0.0000000000000D+00
   317  3.1600000000000D+00  0.0000000000000D+00  0.0000000000000D+00
   318  3.1700000000000D+00  0.0000000000000D+00  0.0000000000000D+00
   319  3.1800000000000D+00  0.0000000000000D+00  0.0000000000000D+00
   320  3.1900000000000D+00  0.0000000000000D+00  0.0000000000000D+00
   321  3.2000000000000D+00  0.0000000000000D+00  0.0000000000000D+00
   322  3.2100000000000D+00  0.0000000000000D+00  0.0000000000000D+00
   323  3.2200000000000D+00  0.0000000000000D+00  0.0000000000000D+00
   324  3.2300000000000D+00  0.0000000000000D+00  0.0000000000000D+00
   325  3.2400000000000D+00  0.0000000000000D+00  0.0000000000000D+00
   326  3.2500000000000D+00  0.0000000000000D+00  0.0000000000000D+00
   327  3.2600000000000D+00  0.0000000000000D+00  0.0000000000000D+00
   328  3.2700000000000D+00  0.0000000000000D+00  0.0000000000000D+00
   329  3.2800000000000D+00  0.0000000000000D+00  0.0000000000000D+00
   330  3.2900000000000D+00  0.0000000000000D+00  0.0000000000000D+00
   331  3.3000000000000D+00  0.0000000000000D+00  0.0000000000000D+00
   332  3.3100000000000D+00  0.0000000000000D+00  0.0000000000000D+00
   333  3.3200000000000D+00  0.0000000000000D+00  0.0000000000000D+00
   334  3.3300000000000D+00  0.0000000000000D+00  0.0000000000000D+00
   335  3.3400000000000D+00  0.0000000000000D+00  0.0000000000000D+00
   336  3.3500000000000D+00  0.0000000000000D+00  0.0000000000000D+00
   337  3.3600000000000D+00  0.0000000000000D+00  0.0000000000000D+00
   338  3.3700000000000D+00  0.0000000000000D+00  0.0000000000000D+00
   339  3.3800000000000D+00  0.0000000000000D+00  0.0000000000000D+00
   340  3.3900000000000D+00  0.0000000000000D+00  0.0000000000000D+00
   341  3.4000000000000D+00  0.0000000000000D+00  0.0000000000000D+00
   342  3.4100000000000D+00  0.0000000000000D+00  0.0000000000000D+00
   343  3.4200000000000D+00  0.0000000000000D+00  0.0000000000000D+00
   344  3.4300000000000D+00  0.0000000000000D+00  0.0000000000000D+00
   345  3.4400000000000D+00  0.0000000000000D+00  0.0000000000000D+00
   346  3.4500000000000D+00  0.0000000000000D+00  0.0000000000000D+00
   347  3.4600000000000D+00  0.0000000000000D+00  0.0000000000000D+00
   348  3.4700000000000D+00  0.0000000000000D+00  0.0000000000000D+00
   349  3.4800000000000D+00  0.0000000000000D+00  0.0000000000000D+00
   350  3.4900000000000D+00  0.0000000000000D+00  0.0000000000000D+00
   351  3.5000000000000D+00  0.0000000000000D+00  0.0000000000000D+00
   352  3.5100000000000D+00  0.0000000000000D+00  0.0000000000000D+00
   353  3.5200000000000D+00  0.0000000000000D+00  0.0000000000000D+00
   354  3.5300000000000D+00  0.0000000000000D+00  0.0000000000000D+00
   355  3.5400000000000D+00  0.0000000000000D+00  0.0000000000000D+00
   356  3.5500000000000D+00  0.0000000000000D+00  0.0000000000000D+00
   357  3.5600000000000D+00  0.0000000000000D+00  0.0000000000000D+00
   358  3.5700000000000D+00  0.0000000000000D+00  0.0000000000000D+00
   359  3.5800000000000D+00  0.0000000000000D+00  0.0000000000000D+00
   360  3.5900000000000D+00  0.0000000000000D+00  0.0000000000000D+00
   361  3.6000000000000D+00  0.0000000000000D+00  0.0000000000000D+00
   362  3.6100000000000D+00  0.0000000000000D+00  0.0000000000000D+00
   363  3.6200000000000D+00  0.0000000000000D+00  0.0000000000000D+00
   364  3.6300000000000D+00  0.0000000000000D+00  0.0000000000000D+00
   365  3.6400000000000D+00  0.0000000000000D+00  0.0000000000000D+00
   366  3.6500000000000D+00  0.0000000000000D+00  0.0000000000000D+00
   367  3.6600000000000D+00  0.0000000000000D+00  0.0000000000000D+00
   368  3.6700000000000D+00  0.0000000000000D+00  0.0000000000000D+00
   369  3.6800000000000D+00  0.0000000000000D+00  0.0000000000000D+00
   370  3.6900000000000D+00  0.0000000000000D+00  0.0000000000000D+00
   371  3.7000000000000D+00  0.0000000000000D+00  0.0000000000000D+00
   372  3.7100000000000D+00  0.0000000000000D+00  0.0000000000000D+00
   373  3.7200000000000D+00  0.0000000000000D+00  0.0000000000000D+00
   374  3.7300000000000D+00  0.0000000000000D+00  0.0000000000000D+00
   375  3.7400000000000D+00  0.0000000000000D+00  0.0000000000000D+00
   376  3.7500000000000D+00  0.0000000000000D+00  0.0000000000000D+00
   377  3.7600000000000D+00  0.0000000000000D+00  0.0000000000000D+00
   378  3.7700000000000D+00  0.0000000000000D+00  0.0000000000000D+00
   379  3.7800000000000D+00  0.0000000000000D+00  0.0000000000000D+00
   380  3.7900000000000D+00  0.0000000000000D+00  0.0000000000000D+00
   381  3.8000000000000D+00  0.0000000000000D+00  0.0000000000000D+00
   382  3.8100000000000D+00  0.0000000000000D+00  0.0000000000000D+00
   383  3.8200000000000D+00  0.0000000000000D+00  0.0000000000000D+00
   384  3.8300000000000D+00  0.0000000000000D+00  0.0000000000000D+00
   385  3.8400000000000D+00  0.0000000000000D+00  0.0000000000000D+00
   386  3.8500000000000D+00  0.0000000000000D+00  0.0000000000000D+00
   387  3.8600000000000D+00  0.0000000000000D+00  0.0000000000000D+00
   388  3.8700000000000D+00  0.0000000000000D+00  0.0000000000000D+00
   389  3.8800000000000D+00  0.0000000000000D+00  0.0000000000000D+00
   390  3.8900000000000D+00  0.0000000000000D+00  0.0000000000000D+00
   391  3.9000000000000D+00  0.0000000000000D+00  0.0000000000000D+00
   392  3.9100000000000D+00  0.0000000000000D+00  0.0000000000000D+00
   393  3.9200000000000D+00  0.0000000000000D+00  0.0000000000000D+00
   394  3.9300000000000D+00  0.0000000000000D+00  0.0000000000000D+00
   395  3.9400000000000D+00  0.0000000000000D+00  0.0000000000000D+00
   396  3.9500000000000D+00  0.0000000000000D+00  0.0000000000000D+00
   397  3.9600000000000D+00  0.0000000000000D+00  0.0000000000000D+00
   398  3.9700000000000D+00  0.0000000000000D+00  0.0000000000000D+00
   399  3.9800000000000D+00  0.0000000000000D+00  0.0000000000000D+00
   400  3.9900000000000D+00  0.0000000000000D+00  0.0000000000000D+00
   401  4.0000000000000D+00  0.0000000000000D+00  0.0000000000000D+00
   402  4.0100000000000D+00  0.0000000000000D+00  0.0000000000000D+00
   403  4.0200000000000D+00  0.0000000000000D+00  0.0000000000000D+00
   404  4.0300000000000D+00  0.0000000000000D+00  0.0000000000000D+00
   405  4.0400000000000D+00  0.0000000000000D+00  0.0000000000000D+00
   406  4.0500000000000D+00  0.0000000000000D+00  0.0000000000000D+00
   407  4.0600000000000D+00  0.0000000000000D+00  0.0000000000000D+00
   408  4.0700000000000D+00  0.0000000000000D+00  0.0000000000000D+00
   409  4.0800000000000D+00  0.0000000000000D+00  0.0000000000000D+00
   410  4.0900000000000D+00  0.0000000000000D+00  0.0000000000000D+00
   411  4.1000000000000D+00  0.0000000000000D+00  0.0000000000000D+00
   412  4.1100000000000D+00  0.0000000000000D+00  0.0000000000000D+00
   413  4.1200000000000D+00  0.0000000000000D+00  0.0000000000000D+00
   414  4.1300000000000D+00  0.0000000000000D+00  0.0000000000000D+00
   415  4.1400000000000D+00  0.0000000000000D+00  0.0000000000000D+00
   416  4.1500000000000D+00  0.0000000000000D+00  0.0000000000000D+00
   417  4.1600000000000D+00  0.0000000000000D+00  0.0000000000000D+00
   418  4.1700000000000D+00  0.0000000000000D+00  0.0000000000000D+00
   419  4.1800000000000D+00  0.0000000000000D+00  0.0000000000000D+00
   420  4.1900000000000D+00  0.0000000000000D+00  0.0000000000000D+00
   421  4.2000000000000D+00  0.0000000000000D+00  0.0000000000000D+00
   422  4.2100000000000D+00  0.0000000000000D+00  0.0000000000000D+00