Ni    ONCVPSP-3.3.1  r_core=   2.20931   2.20931   2.28980
     28.0000     18.0000      210905    zatom,zion,pspd
     8 -116133   2     4   600     0    pspcod,pspxc,lmax,lloc,mmax,r2well
  5.99000000  0.00000000  0.00000000    rchrg fchrg qchrg
     2     3     2     0    nproj
     3     1           extension_switch
     4     3     0    nprojso
   0                        -3.4202840899417D+00 -2.1613013958434D-01
     1  0.0000000000000D+00 -6.5042415897665D-13 -7.7516881802353D-12
     2  1.0000000000000D-02  4.1739783479396D-02 -3.3509311469524D-02
     3  2.0000000000000D-02  8.3435144219973D-02 -6.6949487241283D-02
     4  3.0000000000000D-02  1.2504172574715D-01 -1.0025148908702D-01
     5  4.0000000000000D-02  1.6651530400351D-01 -1.3334647379991D-01
     6  5.0000000000000D-02  2.0781185327927D-01 -1.6616589090932D-01
     7  6.0000000000000D-02  2.4888761180949D-01 -1.9864158063496D-01
     8  7.0000000000000D-02  2.8969914692768D-01 -2.3070587215100D-01
     9  8.0000000000000D-02  3.3020341966609D-01 -2.6229168222310D-01
    10  9.0000000000000D-02  3.7035784869396D-01 -2.9333261427176D-01
    11  1.0000000000000D-01  4.1012037348565D-01 -3.2376305790384D-01
    12  1.1000000000000D-01  4.4944951661217D-01 -3.5351828894148D-01
    13  1.2000000000000D-01  4.8830444505043D-01 -3.8253456996284D-01
    14  1.3000000000000D-01  5.2664503040649D-01 -4.1074925135314D-01
    15  1.4000000000000D-01  5.6443190795034D-01 -4.3810087284724D-01
    16  1.5000000000000D-01  6.0162653436182D-01 -4.6452926552652D-01
    17  1.6000000000000D-01  6.3819124408897D-01 -4.8997565421299D-01
    18  1.7000000000000D-01  6.7408930422260D-01 -5.1438276018358D-01
    19  1.8000000000000D-01  7.0928496779272D-01 -5.3769490410597D-01
    20  1.9000000000000D-01  7.4374352539533D-01 -5.5985810907581D-01
    21  2.0000000000000D-01  7.7743135506033D-01 -5.8082020361307D-01
    22  2.1000000000000D-01  8.1031597027430D-01 -6.0053092445289D-01
    23  2.2000000000000D-01  8.4236606607484D-01 -6.1894201894409D-01
    24  2.3000000000000D-01  8.7355156313596D-01 -6.3600734684605D-01
    25  2.4000000000000D-01  9.0384364976765D-01 -6.5168298129353D-01
    26  2.5000000000000D-01  9.3321482175580D-01 -6.6592730867688D-01
    27  2.6000000000000D-01  9.6163891997239D-01 -6.7870112716546D-01
    28  2.7000000000000D-01  9.8909116568947D-01 -6.8996774358184D-01
    29  2.8000000000000D-01  1.0155481935343D+00 -6.9969306831638D-01
    30  2.9000000000000D-01  1.0409880820268D+00 -7.0784570795418D-01
    31  3.0000000000000D-01  1.0653903816454D+00 -7.1439705527097D-01
    32  3.1000000000000D-01  1.0887361403697D+00 -7.1932137624020D-01
    33  3.2000000000000D-01  1.1110079266557D+00 -7.2259589368118D-01
    34  3.3000000000000D-01  1.1321898498001D+00 -7.2420086716798D-01
    35  3.4000000000000D-01  1.1522675776590D+00 -7.2411966880990D-01
    36  3.5000000000000D-01  1.1712283516870D+00 -7.2233885450844D-01
    37  3.6000000000000D-01  1.1890609992701D+00 -7.1884823029174D-01
    38  3.7000000000000D-01  1.2057559433304D+00 -7.1364091332557D-01
    39  3.8000000000000D-01  1.2213052091844D+00 -7.0671338720118D-01
    40  3.9000000000000D-01  1.2357024286428D+00 -6.9806555110337D-01
    41  4.0000000000000D-01  1.2489428413448D+00 -6.8770076246866D-01
    42  4.1000000000000D-01  1.2610232933253D+00 -6.7562587275119D-01
    43  4.2000000000000D-01  1.2719422328169D+00 -6.6185125592611D-01
    44  4.3000000000000D-01  1.2816997032969D+00 -6.4639082937362D-01
    45  4.4000000000000D-01  1.2902973337924D+00 -6.2926206680318D-01
    46  4.5000000000000D-01  1.2977383264635D+00 -6.1048600289716D-01
    47  4.6000000000000D-01  1.3040274414877D+00 -5.9008722937412D-01
    48  4.7000000000000D-01  1.3091709792783D+00 -5.6809388219665D-01
    49  4.8000000000000D-01  1.3131767600695D+00 -5.4453761967497D-01
    50  4.9000000000000D-01  1.3160541009110D+00 -5.1945359124649D-01
    51  5.0000000000000D-01  1.3178137901169D+00 -4.9288039674275D-01
    52  5.1000000000000D-01  1.3184680592219D+00 -4.6486003598797D-01
    53  5.2000000000000D-01  1.3180305524989D+00 -4.3543784860914D-01
    54  5.3000000000000D-01  1.3165162941026D+00 -4.0466244397390D-01
    55  5.4000000000000D-01  1.3139416529032D+00 -3.7258562121143D-01
    56  5.5000000000000D-01  1.3103243050843D+00 -3.3926227931120D-01
    57  5.6000000000000D-01  1.3056831945790D+00 -3.0475031733590D-01
    58  5.7000000000000D-01  1.3000384914274D+00 -2.6911052482673D-01
    59  5.8000000000000D-01  1.2934115481400D+00 -2.3240646252263D-01
    60  5.9000000000000D-01  1.2858248541579D+00 -1.9470433355847D-01
    61  6.0000000000000D-01  1.2773019885032D+00 -1.5607284535106D-01
    62  6.1000000000000D-01  1.2678675707185D+00 -1.1658306242645D-01
    63  6.2000000000000D-01  1.2575472101975D+00 -7.6308250485343D-02
    64  6.3000000000000D-01  1.2463674540128D+00 -3.5323712047764D-02
    65  6.4000000000000D-01  1.2343557333491D+00  6.2933859393149D-03
    66  6.5000000000000D-01  1.2215403086557D+00  4.8464192105206D-02
    67  6.6000000000000D-01  1.2079502136320D+00  9.1108357802163D-02
    68  6.7000000000000D-01  1.1936151981648D+00  1.3414423088870D-01
    69  6.8000000000000D-01  1.1785656703381D+00  1.7748905560378D-01
    70  6.9000000000000D-01  1.1628326376370D+00  2.2105917795039D-01
    71  7.0000000000000D-01  1.1464476474705D+00  2.6477025597211D-01
    72  7.1000000000000D-01  1.1294427271399D+00  3.0853747427406D-01
    73  7.2000000000000D-01  1.1118503233780D+00  3.5227576211025D-01
    74  7.3000000000000D-01  1.0937032415902D+00  3.9590001433164D-01
    75  7.4000000000000D-01  1.0750345849232D+00  4.3932531446540D-01
    76  7.5000000000000D-01  1.0558776932930D+00  4.8246715917419D-01
    77  7.6000000000000D-01  1.0362660825002D+00  5.2524168332652D-01
    78  7.7000000000000D-01  1.0162333835611D+00  5.6756588489380D-01
    79  7.8000000000000D-01  9.9581328238449D-01  6.0935784887868D-01
    80  7.9000000000000D-01  9.7503945991960D-01  6.5053696947137D-01
    81  8.0000000000000D-01  9.5394553290264D-01  6.9102416962578D-01
    82  8.1000000000000D-01  9.3256499532564D-01  7.3074211724735D-01
    83  8.2000000000000D-01  9.1093116075061D-01  7.6961543718696D-01
    84  8.3000000000000D-01  8.8907710558889D-01  8.0757091824263D-01
    85  8.4000000000000D-01  8.6703561346394D-01  8.4453771438090D-01
    86  8.5000000000000D-01  8.4483912077203D-01  8.8044753940469D-01
    87  8.6000000000000D-01  8.2251966355289D-01  9.1523485431198D-01
    88  8.7000000000000D-01  8.0010882577843D-01  9.4883704661222D-01
    89  8.8000000000000D-01  7.7763768916410D-01  9.8119460089207D-01
    90  8.9000000000000D-01  7.5513678460347D-01  1.0122512599516D+00
    91  9.0000000000000D-01  7.3263604532212D-01  1.0419541758647D+00
    92  9.1000000000000D-01  7.1016476184257D-01  1.0702540503518D+00
    93  9.2000000000000D-01  6.8775153884707D-01  1.0971052638940D+00
    94  9.3000000000000D-01  6.6542425402014D-01  1.1224659930580D+00
    95  9.4000000000000D-01  6.4321001894735D-01  1.1462983155458D+00
    96  9.5000000000000D-01  6.2113514214148D-01  1.1685683025319D+00
    97  9.6000000000000D-01  5.9922509426159D-01  1.1892460978976D+00
    98  9.7000000000000D-01  5.7750447558459D-01  1.2083059840284D+00
    99  9.8000000000000D-01  5.5599698578307D-01  1.2257264338876D+00
   100  9.9000000000000D-01  5.3472539605679D-01  1.2414901491427D+00
   101  1.0000000000000D+00  5.1371152365945D-01  1.2555840841690D+00
   102  1.0100000000000D+00  4.9297620885557D-01  1.2679994558210D+00
   103  1.0200000000000D+00  4.7253929433599D-01  1.2787317389159D+00
   104  1.0300000000000D+00  4.5241960711434D-01  1.2877806474334D+00
   105  1.0400000000000D+00  4.3263494291987D-01  1.2951501014986D+00
   106  1.0500000000000D+00  4.1320205309556D-01  1.3008481802709D+00
   107  1.0600000000000D+00  3.9413663400438D-01  1.3048870609222D+00
   108  1.0700000000000D+00  3.7545331893921D-01  1.3072829439477D+00
   109  1.0800000000000D+00  3.5716567252600D-01  1.3080559651083D+00
   110  1.0900000000000D+00  3.3928618760315D-01  1.3072300943626D+00
   111  1.1000000000000D+00  3.2182628455335D-01  1.3048330222015D+00
   112  1.1100000000000D+00  3.0479631305878D-01  1.3008960338458D+00
   113  1.1200000000000D+00  2.8820555624321D-01  1.2954538718293D+00
   114  1.1300000000000D+00  2.7206223715927D-01  1.2885445875300D+00
   115  1.1400000000000D+00  2.5637352757270D-01  1.2802093822657D+00
   116  1.1500000000000D+00  2.4114555899068D-01  1.2704924386049D+00
   117  1.1600000000000D+00  2.2638343587446D-01  1.2594407425957D+00
   118  1.1700000000000D+00  2.1209125097219D-01  1.2471038976459D+00
   119  1.1800000000000D+00  1.9827210270158D-01  1.2335339308272D+00
   120  1.1900000000000D+00  1.8492811450928D-01  1.2187850923988D+00
   121  1.2000000000000D+00  1.7206045612660D-01  1.2029136493839D+00
   122  1.2100000000000D+00  1.5966936663812D-01  1.1859776740510D+00
   123  1.2200000000000D+00  1.4775417927611D-01  1.1680368281674D+00
   124  1.2300000000000D+00  1.3631334784913D-01  1.1491521439163D+00
   125  1.2400000000000D+00  1.2534447470915D-01  1.1293858023749D+00
   126  1.2500000000000D+00  1.1484434015943D-01  1.1088009104591D+00
   127  1.2600000000000D+00  1.0480893320232D-01  1.0874612772461D+00
   128  1.2700000000000D+00  9.5233483522419D-02  1.0654311905834D+00
   129  1.2800000000000D+00  8.6112494599413D-02  1.0427751948857D+00
   130  1.2900000000000D+00  7.7439777843142D-02  1.0195578710206D+00
   131  1.3000000000000D+00  6.9208487640437D-02  9.9584361916112D-01
   132  1.3100000000000D+00  6.1411157203657D-02  9.7169644546525D-01
   133  1.3200000000000D+00  5.4039735109049D-02  9.4717975344442D-01
   134  1.3300000000000D+00  4.7085622412497D-02  9.2235614081870D-01
   135  1.3400000000000D+00  4.0539710230696D-02  8.9728720266280D-01
   136  1.3500000000000D+00  3.4392417674670D-02  8.7203334161557D-01
   137  1.3600000000000D+00  2.8633730024935D-02  8.4665358584101D-01
   138  1.3700000000000D+00  2.3253237036155D-02  8.2120541547684D-01
   139  1.3800000000000D+00  1.8240171261670D-02  7.9574459819218D-01
   140  1.3900000000000D+00  1.3583446291099D-02  7.7032503443661D-01
   141  1.4000000000000D+00  9.2716947908367D-03  7.4499861301249D-01
   142  1.4100000000000D+00  5.2933062472976D-03  7.1981507738842D-01
   143  1.4200000000000D+00  1.6364643075725D-03  6.9482190328939D-01
   144  1.4300000000000D+00 -1.7108163818429D-03  6.7006418795821D-01
   145  1.4400000000000D+00 -4.7606539302736D-03  6.4558455138683D-01
   146  1.4500000000000D+00 -7.5252636539995D-03  6.2142304995271D-01
   147  1.4600000000000D+00 -1.0016923302067D-02  5.9761710254787D-01
   148  1.4700000000000D+00 -1.2247939152741D-02  5.7420142954589D-01
   149  1.4800000000000D+00 -1.4230613056687D-02  5.5120800465551D-01
   150  1.4900000000000D+00 -1.5977210504213D-02  5.2866601975686D-01
   151  1.5000000000000D+00 -1.7499929798469D-02  5.0660186283812D-01
   152  1.5100000000000D+00 -1.8810872386790D-02  4.8503910883190D-01
   153  1.5200000000000D+00 -1.9922014437854D-02  4.6399852352487D-01
   154  1.5300000000000D+00 -2.0845179697658D-02  4.4349808013997D-01
   155  1.5400000000000D+00 -2.1592013703246D-02  4.2355298866370D-01
   156  1.5500000000000D+00 -2.2173959384009D-02  4.0417573749695D-01
   157  1.5600000000000D+00 -2.2602234106830D-02  3.8537614728114D-01
   158  1.5700000000000D+00 -2.2887808199857D-02  3.6716143652731D-01
   159  1.5800000000000D+00 -2.3041384983541D-02  3.4953629867064D-01
   160  1.5900000000000D+00 -2.3073382350794D-02  3.3250299022634D-01
   161  1.6000000000000D+00 -2.2993915896128D-02  3.1606142947402D-01
   162  1.6100000000000D+00 -2.2812783642699D-02  3.0020930537249D-01
   163  1.6200000000000D+00 -2.2539452339013D-02  2.8494219598574D-01
   164  1.6300000000000D+00 -2.2183045379994D-02  2.7025369611768D-01
   165  1.6400000000000D+00 -2.1752332298226D-02  2.5613555334631D-01
   166  1.6500000000000D+00 -2.1255719882729D-02  2.4257781211520D-01
   167  1.6600000000000D+00 -2.0701244851128D-02  2.2956896504767D-01
   168  1.6700000000000D+00 -2.0096568127541D-02  2.1709611106038D-01
   169  1.6800000000000D+00 -1.9448970640493D-02  2.0514511947622D-01
   170  1.6900000000000D+00 -1.8765350683231D-02  1.9370079961365D-01
   171  1.7000000000000D+00 -1.8052222741827D-02  1.8274707511700D-01
   172  1.7100000000000D+00 -1.7315717824322D-02  1.7226716240774D-01
   173  1.7200000000000D+00 -1.6561585186589D-02  1.6224375260924D-01
   174  1.7300000000000D+00 -1.5795195481497D-02  1.5265919622537D-01
   175  1.7400000000000D+00 -1.5021545216569D-02  1.4349569004652D-01
   176  1.7500000000000D+00 -1.4245262541181D-02  1.3473546545171D-01
   177  1.7600000000000D+00 -1.3470614241090D-02  1.2636097773176D-01
   178  1.7700000000000D+00 -1.2701513950957D-02  1.1835509549760D-01
   179  1.7800000000000D+00 -1.1941531464624D-02  1.1070128994137D-01
   180  1.7900000000000D+00 -1.1193903135058D-02  1.0338382296333D-01
   181  1.8000000000000D+00 -1.0461543254724D-02  9.6387934020483D-02
   182  1.8100000000000D+00 -9.7470565042557D-03  8.9700031131468D-02
   183  1.8200000000000D+00 -9.0527506658501D-03  8.3307847916013D-02
   184  1.8300000000000D+00 -8.3806517810389D-03  7.7200684646055D-02
   185  1.8400000000000D+00 -7.7325167880195D-03  7.1369476040799D-02
   186  1.8500000000000D+00 -7.1098481810088D-03  6.5806924095027D-02
   187  1.8600000000000D+00 -6.5139166759551D-03  6.0508021622427D-02
   188  1.8700000000000D+00 -5.9457792563869D-03  5.5470308824981D-02
   189  1.8800000000000D+00 -5.4062687744971D-03  5.0692570989276D-02
   190  1.8900000000000D+00 -4.8959947783051D-03  4.6174096764536D-02
   191  1.9000000000000D+00 -4.4153444686928D-03  4.1914031754128D-02
   192  1.9100000000000D+00 -3.9644699017922D-03  3.7909951417642D-02
   193  1.9200000000000D+00 -3.5433080187006D-03  3.4158186064997D-02
   194  1.9300000000000D+00 -3.1516018595114D-03  3.0654216299732D-02
   195  1.9400000000000D+00 -2.7889162688620D-03  2.7392751722716D-02
   196  1.9500000000000D+00 -2.4546512491702D-03  2.4367666387887D-02
   197  1.9600000000000D+00 -2.1480595907988D-03  2.1572169953669D-02
   198  1.9700000000000D+00 -1.8682621192775D-03  1.8998849199291D-02
   199  1.9800000000000D+00 -1.6142636913400D-03  1.6639752726908D-02
   200  1.9900000000000D+00 -1.3849687667770D-03  1.4486463354774D-02
   201  2.0000000000000D+00 -1.1791967518664D-03  1.2530167602278D-02
   202  2.0100000000000D+00 -9.9569697739476D-04  1.0761721793483D-02
   203  2.0200000000000D+00 -8.3316326628389D-04  9.1717147752452D-03
   204  2.0300000000000D+00 -6.9024808012643D-04  7.7505273988022D-03
   205  2.0400000000000D+00 -5.6557607221187D-04  6.4883882350774D-03
   206  2.0500000000000D+00 -4.5775715240078D-04  5.3754260695658D-03
   207  2.0600000000000D+00 -3.6539885322413D-04  4.4017185996050D-03
   208  2.0700000000000D+00 -2.8711806305700D-04  3.5573376582910D-03
   209  2.0800000000000D+00 -2.2155206172308D-04  2.8323908932996D-03
   210  2.0900000000000D+00 -1.6736873229266D-04  2.2170596848193D-03
   211  2.1000000000000D+00 -1.2327609500273D-04  1.7016337064984D-03
   212  2.1100000000000D+00 -8.8030908286912D-05  1.2765417171940D-03
   213  2.1200000000000D+00 -6.0446493307262D-05  9.3237891932312D-04
   214  2.1300000000000D+00 -3.9399691519003D-05  6.5993081048592D-04
   215  2.1400000000000D+00 -2.3829486367998D-05  4.5020631492296D-04
   216  2.1500000000000D+00 -1.2771467286537D-05  2.9440375728761D-04
   217  2.1600000000000D+00 -5.3472270820931D-06  1.8384830342892D-04
   218  2.1700000000000D+00 -7.3262454566772D-07  1.1023972381994D-04
   219  2.1800000000000D+00  1.9177925972266D-06  6.6295249188498D-05
   220  2.1900000000000D+00  3.3555164292082D-06  4.5435396549340D-05
   221  2.2000000000000D+00  3.8420633170217D-06  3.7272850745234D-05
   222  2.2100000000000D+00  3.4356583845992D-06  3.1493332784750D-05
   223  2.2200000000000D+00  2.1206757253090D-06  1.9542762986670D-05
   224  2.2300000000000D+00  6.7606356748987D-07  6.4210812909138D-06
   225  2.2400000000000D+00 -2.3106790379543D-07 -2.0191394832466D-06
   226  2.2500000000000D+00 -3.5268657863248D-07 -3.0927414109955D-06
   227  2.2600000000000D+00 -8.9390233012336D-08 -7.8801383835759D-07
   228  2.2700000000000D+00  7.1940761420120D-08  5.8057719003560D-07
   229  2.2800000000000D+00  7.4494240549060D-08  5.9719498715627D-07
   230  2.2900000000000D+00 -2.7769783592476D-10 -2.5497428347441D-09
   231  2.3000000000000D+00 -9.4529303195841D-09 -8.6794127399053D-08
   232  2.3100000000000D+00 -6.9987354068075D-09 -6.4260405185916D-08
   233  2.3200000000000D+00  0.0000000000000D+00  0.0000000000000D+00
   234  2.3300000000000D+00  0.0000000000000D+00  0.0000000000000D+00
   235  2.3400000000000D+00  0.0000000000000D+00  0.0000000000000D+00
   236  2.3500000000000D+00  0.0000000000000D+00  0.0000000000000D+00
   237  2.3600000000000D+00  0.0000000000000D+00  0.0000000000000D+00
   238  2.3700000000000D+00  0.0000000000000D+00  0.0000000000000D+00
   239  2.3800000000000D+00  0.0000000000000D+00  0.0000000000000D+00
   240  2.3900000000000D+00  0.0000000000000D+00  0.0000000000000D+00
   241  2.4000000000000D+00  0.0000000000000D+00  0.0000000000000D+00
   242  2.4100000000000D+00  0.0000000000000D+00  0.0000000000000D+00
   243  2.4200000000000D+00  0.0000000000000D+00  0.0000000000000D+00
   244  2.4300000000000D+00  0.0000000000000D+00  0.0000000000000D+00
   245  2.4400000000000D+00  0.0000000000000D+00  0.0000000000000D+00
   246  2.4500000000000D+00  0.0000000000000D+00  0.0000000000000D+00
   247  2.4600000000000D+00  0.0000000000000D+00  0.0000000000000D+00
   248  2.4700000000000D+00  0.0000000000000D+00  0.0000000000000D+00
   249  2.4800000000000D+00  0.0000000000000D+00  0.0000000000000D+00
   250  2.4900000000000D+00  0.0000000000000D+00  0.0000000000000D+00
   251  2.5000000000000D+00  0.0000000000000D+00  0.0000000000000D+00
   252  2.5100000000000D+00  0.0000000000000D+00  0.0000000000000D+00
   253  2.5200000000000D+00  0.0000000000000D+00  0.0000000000000D+00
   254  2.5300000000000D+00  0.0000000000000D+00  0.0000000000000D+00
   255  2.5400000000000D+00  0.0000000000000D+00  0.0000000000000D+00
   256  2.5500000000000D+00  0.0000000000000D+00  0.0000000000000D+00
   257  2.5600000000000D+00  0.0000000000000D+00  0.0000000000000D+00
   258  2.5700000000000D+00  0.0000000000000D+00  0.0000000000000D+00
   259  2.5800000000000D+00  0.0000000000000D+00  0.0000000000000D+00
   260  2.5900000000000D+00  0.0000000000000D+00  0.0000000000000D+00
   261  2.6000000000000D+00  0.0000000000000D+00  0.0000000000000D+00
   262  2.6100000000000D+00  0.0000000000000D+00  0.0000000000000D+00
   263  2.6200000000000D+00  0.0000000000000D+00  0.0000000000000D+00
   264  2.6300000000000D+00  0.0000000000000D+00  0.0000000000000D+00
   265  2.6400000000000D+00  0.0000000000000D+00  0.0000000000000D+00
   266  2.6500000000000D+00  0.0000000000000D+00  0.0000000000000D+00
   267  2.6600000000000D+00  0.0000000000000D+00  0.0000000000000D+00
   268  2.6700000000000D+00  0.0000000000000D+00  0.0000000000000D+00
   269  2.6800000000000D+00  0.0000000000000D+00  0.0000000000000D+00
   270  2.6900000000000D+00  0.0000000000000D+00  0.0000000000000D+00
   271  2.7000000000000D+00  0.0000000000000D+00  0.0000000000000D+00
   272  2.7100000000000D+00  0.0000000000000D+00  0.0000000000000D+00
   273  2.7200000000000D+00  0.0000000000000D+00  0.0000000000000D+00
   274  2.7300000000000D+00  0.0000000000000D+00  0.0000000000000D+00
   275  2.7400000000000D+00  0.0000000000000D+00  0.0000000000000D+00
   276  2.7500000000000D+00  0.0000000000000D+00  0.0000000000000D+00
   277  2.7600000000000D+00  0.0000000000000D+00  0.0000000000000D+00
   278  2.7700000000000D+00  0.0000000000000D+00  0.0000000000000D+00
   279  2.7800000000000D+00  0.0000000000000D+00  0.0000000000000D+00
   280  2.7900000000000D+00  0.0000000000000D+00  0.0000000000000D+00
   281  2.8000000000000D+00  0.0000000000000D+00  0.0000000000000D+00
   282  2.8100000000000D+00  0.0000000000000D+00  0.0000000000000D+00
   283  2.8200000000000D+00  0.0000000000000D+00  0.0000000000000D+00
   284  2.8300000000000D+00  0.0000000000000D+00  0.0000000000000D+00
   285  2.8400000000000D+00  0.0000000000000D+00  0.0000000000000D+00
   286  2.8500000000000D+00  0.0000000000000D+00  0.0000000000000D+00
   287  2.8600000000000D+00  0.0000000000000D+00  0.0000000000000D+00
   288  2.8700000000000D+00  0.0000000000000D+00  0.0000000000000D+00
   289  2.8800000000000D+00  0.0000000000000D+00  0.0000000000000D+00
   290  2.8900000000000D+00  0.0000000000000D+00  0.0000000000000D+00
   291  2.9000000000000D+00  0.0000000000000D+00  0.0000000000000D+00
   292  2.9100000000000D+00  0.0000000000000D+00  0.0000000000000D+00
   293  2.9200000000000D+00  0.0000000000000D+00  0.0000000000000D+00
   294  2.9300000000000D+00  0.0000000000000D+00  0.0000000000000D+00
   295  2.9400000000000D+00  0.0000000000000D+00  0.0000000000000D+00
   296  2.9500000000000D+00  0.0000000000000D+00  0.0000000000000D+00
   297  2.9600000000000D+00  0.0000000000000D+00  0.0000000000000D+00
   298  2.9700000000000D+00  0.0000000000000D+00  0.0000000000000D+00
   299  2.9800000000000D+00  0.0000000000000D+00  0.0000000000000D+00
   300  2.9900000000000D+00  0.0000000000000D+00  0.0000000000000D+00
   301  3.0000000000000D+00  0.0000000000000D+00  0.0000000000000D+00
   302  3.0100000000000D+00  0.0000000000000D+00  0.0000000000000D+00
   303  3.0200000000000D+00  0.0000000000000D+00  0.0000000000000D+00
   304  3.0300000000000D+00  0.0000000000000D+00  0.0000000000000D+00
   305  3.0400000000000D+00  0.0000000000000D+00  0.0000000000000D+00
   306  3.0500000000000D+00  0.0000000000000D+00  0.0000000000000D+00
   307  3.0600000000000D+00  0.0000000000000D+00  0.0000000000000D+00
   308  3.0700000000000D+00  0.0000000000000D+00  0.0000000000000D+00
   309  3.0800000000000D+00  0.0000000000000D+00  0.0000000000000D+00
   310  3.0900000000000D+00  0.0000000000000D+00  0.0000000000000D+00
   311  3.1000000000000D+00  0.0000000000000D+00  0.0000000000000D+00
   312  3.1100000000000D+00  0.0000000000000D+00  0.0000000000000D+00
   313  3.1200000000000D+00  0.0000000000000D+00  0.0000000000000D+00
   314  3.1300000000000D+00  0.0000000000000D+00  0.0000000000000D+00
   315  3.1400000000000D+00  0.0000000000000D+00  0.0000000000000D+00
   316  3.1500000000000D+00  0.0000000000000D+00  0.0000000000000D+00
   317  3.1600000000000D+00  0.0000000000000D+00  0.0000000000000D+00
   318  3.1700000000000D+00  0.0000000000000D+00  0.0000000000000D+00
   319  3.1800000000000D+00  0.0000000000000D+00  0.0000000000000D+00
   320  3.1900000000000D+00  0.0000000000000D+00  0.0000000000000D+00
   321  3.2000000000000D+00  0.0000000000000D+00  0.0000000000000D+00
   322  3.2100000000000D+00  0.0000000000000D+00  0.0000000000000D+00
   323  3.2200000000000D+00  0.0000000000000D+00  0.0000000000000D+00
   324  3.2300000000000D+00  0.0000000000000D+00  0.0000000000000D+00
   325  3.2400000000000D+00  0.0000000000000D+00  0.0000000000000D+00
   326  3.2500000000000D+00  0.0000000000000D+00  0.0000000000000D+00
   327  3.2600000000000D+00  0.0000000000000D+00  0.0000000000000D+00
   328  3.2700000000000D+00  0.0000000000000D+00  0.0000000000000D+00
   329  3.2800000000000D+00  0.0000000000000D+00  0.0000000000000D+00
   330  3.2900000000000D+00  0.0000000000000D+00  0.0000000000000D+00
   331  3.3000000000000D+00  0.0000000000000D+00  0.0000000000000D+00
   332  3.3100000000000D+00  0.0000000000000D+00  0.0000000000000D+00
   333  3.3200000000000D+00  0.0000000000000D+00  0.0000000000000D+00
   334  3.3300000000000D+00  0.0000000000000D+00  0.0000000000000D+00
   335  3.3400000000000D+00  0.0000000000000D+00  0.0000000000000D+00
   336  3.3500000000000D+00  0.0000000000000D+00  0.0000000000000D+00
   337  3.3600000000000D+00  0.0000000000000D+00  0.0000000000000D+00
   338  3.3700000000000D+00  0.0000000000000D+00  0.0000000000000D+00
   339  3.3800000000000D+00  0.0000000000000D+00  0.0000000000000D+00
   340  3.3900000000000D+00  0.0000000000000D+00  0.0000000000000D+00
   341  3.4000000000000D+00  0.0000000000000D+00  0.0000000000000D+00
   342  3.4100000000000D+00  0.0000000000000D+00  0.0000000000000D+00
   343  3.4200000000000D+00  0.0000000000000D+00  0.0000000000000D+00
   344  3.4300000000000D+00  0.0000000000000D+00  0.0000000000000D+00
   345  3.4400000000000D+00  0.0000000000000D+00  0.0000000000000D+00
   346  3.4500000000000D+00  0.0000000000000D+00  0.0000000000000D+00
   347  3.4600000000000D+00  0.0000000000000D+00  0.0000000000000D+00
   348  3.4700000000000D+00  0.0000000000000D+00  0.0000000000000D+00
   349  3.4800000000000D+00  0.0000000000000D+00  0.0000000000000D+00
   350  3.4900000000000D+00  0.0000000000000D+00  0.0000000000000D+00
   351  3.5000000000000D+00  0.0000000000000D+00  0.0000000000000D+00
   352  3.5100000000000D+00  0.0000000000000D+00  0.0000000000000D+00
   353  3.5200000000000D+00  0.0000000000000D+00  0.0000000000000D+00
   354  3.5300000000000D+00  0.0000000000000D+00  0.0000000000000D+00
   355  3.5400000000000D+00  0.0000000000000D+00  0.0000000000000D+00
   356  3.5500000000000D+00  0.0000000000000D+00  0.0000000000000D+00
   357  3.5600000000000D+00  0.0000000000000D+00  0.0000000000000D+00
   358  3.5700000000000D+00  0.0000000000000D+00  0.0000000000000D+00
   359  3.5800000000000D+00  0.0000000000000D+00  0.0000000000000D+00
   360  3.5900000000000D+00  0.0000000000000D+00  0.0000000000000D+00
   361  3.6000000000000D+00  0.0000000000000D+00  0.0000000000000D+00
   362  3.6100000000000D+00  0.0000000000000D+00  0.0000000000000D+00
   363  3.6200000000000D+00  0.0000000000000D+00  0.0000000000000D+00
   364  3.6300000000000D+00  0.0000000000000D+00  0.0000000000000D+00
   365  3.6400000000000D+00  0.0000000000000D+00  0.0000000000000D+00
   366  3.6500000000000D+00  0.0000000000000D+00  0.0000000000000D+00
   367  3.6600000000000D+00  0.0000000000000D+00  0.0000000000000D+00
   368  3.6700000000000D+00  0.0000000000000D+00  0.0000000000000D+00
   369  3.6800000000000D+00  0.0000000000000D+00  0.0000000000000D+00
   370  3.6900000000000D+00  0.0000000000000D+00  0.0000000000000D+00
   371  3.7000000000000D+00  0.0000000000000D+00  0.0000000000000D+00
   372  3.7100000000000D+00  0.0000000000000D+00  0.0000000000000D+00
   373  3.7200000000000D+00  0.0000000000000D+00  0.0000000000000D+00
   374  3.7300000000000D+00  0.0000000000000D+00  0.0000000000000D+00
   375  3.7400000000000D+00  0.0000000000000D+00  0.0000000000000D+00
   376  3.7500000000000D+00  0.0000000000000D+00  0.0000000000000D+00
   377  3.7600000000000D+00  0.0000000000000D+00  0.0000000000000D+00
   378  3.7700000000000D+00  0.0000000000000D+00  0.0000000000000D+00
   379  3.7800000000000D+00  0.0000000000000D+00  0.0000000000000D+00
   380  3.7900000000000D+00  0.0000000000000D+00  0.0000000000000D+00
   381  3.8000000000000D+00  0.0000000000000D+00  0.0000000000000D+00
   382  3.8100000000000D+00  0.0000000000000D+00  0.0000000000000D+00
   383  3.8200000000000D+00  0.0000000000000D+00  0.0000000000000D+00
   384  3.8300000000000D+00  0.0000000000000D+00  0.0000000000000D+00
   385  3.8400000000000D+00  0.0000000000000D+00  0.0000000000000D+00
   386  3.8500000000000D+00  0.0000000000000D+00  0.0000000000000D+00
   387  3.8600000000000D+00  0.0000000000000D+00  0.0000000000000D+00
   388  3.8700000000000D+00  0.0000000000000D+00  0.0000000000000D+00
   389  3.8800000000000D+00  0.0000000000000D+00  0.0000000000000D+00
   390  3.8900000000000D+00  0.0000000000000D+00  0.0000000000000D+00
   391  3.9000000000000D+00  0.0000000000000D+00  0.0000000000000D+00
   392  3.9100000000000D+00  0.0000000000000D+00  0.0000000000000D+00
   393  3.9200000000000D+00  0.0000000000000D+00  0.0000000000000D+00
   394  3.9300000000000D+00  0.0000000000000D+00  0.0000000000000D+00
   395  3.9400000000000D+00  0.0000000000000D+00  0.0000000000000D+00
   396  3.9500000000000D+00  0.0000000000000D+00  0.0000000000000D+00
   397  3.9600000000000D+00  0.0000000000000D+00  0.0000000000000D+00
   398  3.9700000000000D+00  0.0000000000000D+00  0.0000000000000D+00
   399  3.9800000000000D+00  0.0000000000000D+00  0.0000000000000D+00
   400  3.9900000000000D+00  0.0000000000000D+00  0.0000000000000D+00
   401  4.0000000000000D+00  0.0000000000000D+00  0.0000000000000D+00
   402  4.0100000000000D+00  0.0000000000000D+00  0.0000000000000D+00
   403  4.0200000000000D+00  0.0000000000000D+00  0.0000000000000D+00
   404  4.0300000000000D+00  0.0000000000000D+00  0.0000000000000D+00
   405  4.0400000000000D+00  0.0000000000000D+00  0.0000000000000D+00
   406  4.0500000000000D+00  0.0000000000000D+00  0.0000000000000D+00
   407  4.0600000000000D+00  0.0000000000000D+00  0.0000000000000D+00
   408  4.0700000000000D+00  0.0000000000000D+00  0.0000000000000D+00
   409  4.0800000000000D+00  0.0000000000000D+00  0.0000000000000D+00
   410  4.0900000000000D+00  0.0000000000000D+00  0.0000000000000D+00
   411  4.1000000000000D+00  0.0000000000000D+00  0.0000000000000D+00
   412  4.1100000000000D+00  0.0000000000000D+00  0.0000000000000D+00
   413  4.1200000000000D+00  0.0000000000000D+00  0.0000000000000D+00
   414  4.1300000000000D+00  0.0000000000000D+00  0.0000000000000D+00
   415  4.1400000000000D+00  0.0000000000000D+00  0.0000000000000D+00
   416  4.1500000000000D+00  0.0000000000000D+00  0.0000000000000D+00
   417  4.1600000000000D+00  0.0000000000000D+00  0.0000000000000D+00
   418  4.1700000000000D+00  0.0000000000000D+00  0.0000000000000D+00
   419  4.1800000000000D+00  0.0000000000000D+00  0.0000000000000D+00
   420  4.1900000000000D+00  0.0000000000000D+00  0.0000000000000D+00
   421  4.2000000000000D+00  0.0000000000000D+00  0.0000000000000D+00
   422  4.2100000000000D+00  0.0000000000000D+00  0.0000000000000D+00