O     ONCVPSP-3.3.1  r_core=   1.29195   1.47310
      8.0000      6.0000      210905    zatom,zion,pspd
     8 -116133   1     4   600     0    pspcod,pspxc,lmax,lloc,mmax,r2well
  5.99000000  0.00000000  0.00000000    rchrg fchrg qchrg
     2     2     0     0     0    nproj
     1     1           extension_switch
   0                         9.8325056621262D+00  1.3978206846581D+00
     1  0.0000000000000D+00  2.8420797937301D-09 -9.8939548082155D-09
     2  1.0000000000000D-02  8.9607629530370D-02 -6.1337578120797D-03
     3  2.0000000000000D-02  1.7907127971791D-01 -1.2515384284410D-02
     4  3.0000000000000D-02  2.6824526678660D-01 -1.9384919137508D-02
     5  4.0000000000000D-02  3.5698054083378D-01 -2.6966894869014D-02
     6  5.0000000000000D-02  4.4512310887664D-01 -3.5462957206273D-02
     7  6.0000000000000D-02  5.3251258317120D-01 -4.5044927261127D-02
     8  7.0000000000000D-02  6.1898089316430D-01 -5.5848440788181D-02
     9  8.0000000000000D-02  7.0435119659712D-01 -6.7967290053865D-02
    10  9.0000000000000D-02  7.8843702181153D-01 -8.1448581761726D-02
    11  1.0000000000000D-01  8.7104166927441D-01 -9.6288810446501D-02
    12  1.1000000000000D-01  9.5195789579329D-01 -1.1243093097532D-01
    13  1.2000000000000D-01  1.0309678999226D+00 -1.2976249653641D-01
    14  1.3000000000000D-01  1.1078436217331D+00 -1.4811491003767D-01
    15  1.4000000000000D-01  1.1823473645220D+00 -1.6726381748296D-01
    16  1.5000000000000D-01  1.2542327402721D+00 -1.8693065196123D-01
    17  1.6000000000000D-01  1.3232459348110D+00 -2.0678531670370D-01
    18  1.7000000000000D-01  1.3891272827798D+00 -2.2644997557135D-01
    19  1.8000000000000D-01  1.4516131367822D+00 -2.4550389966382D-01
    20  1.9000000000000D-01  1.5104380095503D+00 -2.6348929982224D-01
    21  2.0000000000000D-01  1.5653369627189D+00 -2.7991805694976D-01
    22  2.1000000000000D-01  1.6160482109335D+00 -2.9427924559819D-01
    23  2.2000000000000D-01  1.6623159056171D+00 -3.0604733144930D-01
    24  2.3000000000000D-01  1.7038930588495D+00 -3.1469091040993D-01
    25  2.4000000000000D-01  1.7405445645483D+00 -3.1968184626843D-01
    26  2.5000000000000D-01  1.7720502715370D+00 -3.2050465541689D-01
    27  2.6000000000000D-01  1.7982080611832D+00 -3.1666598118530D-01
    28  2.7000000000000D-01  1.8188368811380D+00 -3.0770399697413D-01
    29  2.8000000000000D-01  1.8337796863207D+00 -2.9319757668309D-01
    30  2.9000000000000D-01  1.8429062386842D+00 -2.7277507294583D-01
    31  3.0000000000000D-01  1.8461157184741D+00 -2.4612254837614D-01
    32  3.1000000000000D-01  1.8433391016365D+00 -2.1299131235124D-01
    33  3.2000000000000D-01  1.8345412607155D+00 -1.7320462569645D-01
    34  3.3000000000000D-01  1.8197227499773D+00 -1.2666344784720D-01
    35  3.4000000000000D-01  1.7989212395493D+00 -7.3351115460094D-02
    36  3.5000000000000D-01  1.7722125680127D+00 -1.3336857799382D-02
    37  3.6000000000000D-01  1.7397113880722D+00  5.3221927719251D-02
    38  3.7000000000000D-01  1.7015713855551D+00  1.2607869698256D-01
    39  3.8000000000000D-01  1.6579850579956D+00  2.0489811422635D-01
    40  3.9000000000000D-01  1.6091830453281D+00  2.8925775595370D-01
    41  4.0000000000000D-01  1.5554330116636D+00  3.7865115727917D-01
    42  4.1000000000000D-01  1.4970380836443D+00  4.7249217248085D-01
    43  4.2000000000000D-01  1.4343348573685D+00  5.7012060008682D-01
    44  4.3000000000000D-01  1.3676909922406D+00  6.7080900204195D-01
    45  4.4000000000000D-01  1.2975024162366D+00  7.7377062674888D-01
    46  4.5000000000000D-01  1.2241901728779D+00  8.7816832738559D-01
    47  4.6000000000000D-01  1.1481969455899D+00  9.8312435019041D-01
    48  4.7000000000000D-01  1.0699832999941D+00  1.0877308526573D+00
    49  4.8000000000000D-01  9.9002368897202D-01  1.1910609990569D+00
    50  4.9000000000000D-01  9.0880226896490D-01  1.2921804706158D+00
    51  5.0000000000000D-01  8.2680857889318D-01  1.3901592202152D+00
    52  5.1000000000000D-01  7.4453313523046D-01  1.4840832967647D+00
    53  5.2000000000000D-01  6.6246299812385D-01  1.5730665625269D+00
    54  5.3000000000000D-01  5.8107736399006D-01  1.6562621276913D+00
    55  5.4000000000000D-01  5.0084323972759D-01  1.7328733303642D+00
    56  5.5000000000000D-01  4.2221125257423D-01  1.8021640968462D+00
    57  5.6000000000000D-01  3.4561164772398D-01  1.8634685264603D+00
    58  5.7000000000000D-01  2.7145052313692D-01  1.9161995571222D+00
    59  5.8000000000000D-01  2.0010634755757D-01  1.9598565821616D+00
    60  5.9000000000000D-01  1.3192680369065D-01  1.9940319052389D+00
    61  6.0000000000000D-01  6.7225993788364D-02  2.0184159384717D+00
    62  6.1000000000000D-01  6.2820397181782D-03  2.0328010685374D+00
    63  6.2000000000000D-01 -5.0664896069080D-02  2.0370841364459D+00
    64  6.3000000000000D-01 -1.0341414822939D-01  2.0312674983614D+00
    65  6.4000000000000D-01 -1.5180563063929D-01  2.0154586569155D+00
    66  6.5000000000000D-01 -1.9572045508428D-01  1.9898684747067D+00
    67  6.6000000000000D-01 -2.3508108504879D-01  1.9548080034258D+00
    68  6.7000000000000D-01 -2.6985102946042D-01  1.9106839831565D+00
    69  6.8000000000000D-01 -3.0003408740498D-01  1.8579930864487D+00
    70  6.9000000000000D-01 -3.2567316069814D-01  1.7973150003068D+00
    71  7.0000000000000D-01 -3.4684865669539D-01  1.7293044560151D+00
    72  7.1000000000000D-01 -3.6367650879594D-01  1.6546823315459D+00
    73  7.2000000000000D-01 -3.7630584659885D-01  1.5742259637159D+00
    74  7.3000000000000D-01 -3.8491635158508D-01  1.4887588172051D+00
    75  7.4000000000000D-01 -3.8971533745205D-01  1.3991396648244D+00
    76  7.5000000000000D-01 -3.9093459676163D-01  1.3062514378784D+00
    77  7.6000000000000D-01 -3.8882705737407D-01  1.2109899070918D+00
    78  7.7000000000000D-01 -3.8366329317041D-01  1.1142523532919D+00
    79  7.8000000000000D-01 -3.7572793384129D-01  1.0169263829470D+00
    80  7.9000000000000D-01 -3.6531601803210D-01  9.1987903682544D-01
    81  8.0000000000000D-01 -3.5272933290840D-01  8.2394633060453D-01
    82  8.1000000000000D-01 -3.3827278127504D-01  7.2992335441946D-01
    83  8.2000000000000D-01 -3.2225081479456D-01  6.3855504432765D-01
    84  8.3000000000000D-01 -3.0496396866174D-01  5.5052772275306D-01
    85  8.4000000000000D-01 -2.8670552937086D-01  4.6646148747112D-01
    86  8.5000000000000D-01 -2.6775836303587D-01  3.8690350993790D-01
    87  8.6000000000000D-01 -2.4839192717549D-01  3.1232228411273D-01
    88  8.7000000000000D-01 -2.2885948404563D-01  2.4310284674722D-01
    89  8.8000000000000D-01 -2.0939552858215D-01  1.7954296979366D-01
    90  8.9000000000000D-01 -1.9021343821865D-01  1.2185030233749D-01
    91  9.0000000000000D-01 -1.7150334682110D-01  7.0140421816101D-02
    92  9.1000000000000D-01 -1.5343028909210D-01  2.4435951352185D-02
    93  9.2000000000000D-01 -1.3613235194590D-01 -1.5334490527542D-02
    94  9.3000000000000D-01 -1.1972135949995D-01 -4.9325993132452D-02
    95  9.4000000000000D-01 -1.0428595631109D-01 -7.7757737394130D-02
    96  9.5000000000000D-01 -8.9893717273966D-02 -1.0089989568128D-01
    97  9.6000000000000D-01 -7.6591894528782D-02 -1.1906780347554D-01
    98  9.7000000000000D-01 -6.4408610593852D-02 -1.3261457844880D-01
    99  9.8000000000000D-01 -5.3354194536359D-02 -1.4192367834737D-01
   100  9.9000000000000D-01 -4.3422672460373D-02 -1.4740131501412D-01
   101  1.0000000000000D+00 -3.4593380713557D-02 -1.4946885889099D-01
   102  1.0100000000000D+00 -2.6832667793498D-02 -1.4855537269292D-01
   103  1.0200000000000D+00 -2.0095652187202D-02 -1.4509040236941D-01
   104  1.0300000000000D+00 -1.4328004254154D-02 -1.3949714503734D-01
   105  1.0400000000000D+00 -9.4677216768995D-03 -1.3218610321718D-01
   106  1.0500000000000D+00 -5.4468700731000D-03 -1.2354932169182D-01
   107  1.0600000000000D+00 -2.1932624294544D-03 -1.1395529112328D-01
   108  1.0700000000000D+00  3.6794582650167D-04 -1.0374458527484D-01
   109  1.0800000000000D+00  2.3127664553482D-03 -9.3226283916378D-02
   110  1.0900000000000D+00  3.7170096546224D-03 -8.2675216192437D-02
   111  1.1000000000000D+00  4.6550501459351D-03 -7.2330041261299D-02
   112  1.1100000000000D+00  5.1987382708774D-03 -6.2392168413110D-02
   113  1.1200000000000D+00  5.4164618198936D-03 -5.3025498294058D-02
   114  1.1300000000000D+00  5.3723613478893D-03 -4.4356953510924D-02
   115  1.1400000000000D+00  5.1256977641446D-03 -3.6477749449472D-02
   116  1.1500000000000D+00  4.7303685113317D-03 -2.9445345402011D-02
   117  1.1600000000000D+00  4.2345646284461D-03 -2.3285999318062D-02
   118  1.1700000000000D+00  3.6805589541455D-03 -1.7997841509378D-02
   119  1.1800000000000D+00  3.1046131457240D-03 -1.3554372931824D-02
   120  1.1900000000000D+00  2.5369896208292D-03 -9.9082877064565D-03
   121  1.2000000000000D+00  2.0020523313985D-03 -6.9955127307049D-03
   122  1.2100000000000D+00  1.5184399122114D-03 -4.7393575824584D-03
   123  1.2200000000000D+00  1.0992939908166D-03 -3.0546664671551D-03
   124  1.2300000000000D+00  7.5252504418900D-04 -1.8518653201586D-03
   125  1.2400000000000D+00  4.8109904155036D-04 -1.0408041295242D-03
   126  1.2500000000000D+00  2.8337594585469D-04 -5.3440245632627D-04
   127  1.2600000000000D+00  1.5318235078831D-04 -2.5135134275261D-04
   128  1.2700000000000D+00  7.9454424288023D-05 -1.1789138226099D-04
   129  1.2800000000000D+00  5.3638298478473D-05 -8.2104464508437D-05
   130  1.2900000000000D+00  4.9761739161946D-05 -8.1692966739352D-05
   131  1.3000000000000D+00  2.3445776269300D-05 -3.9451741530483D-05
   132  1.3100000000000D+00 -3.2323521877198D-06  5.4757956593484D-06
   133  1.3200000000000D+00 -2.4687587932769D-06  4.2055179896765D-06
   134  1.3300000000000D+00  1.1083751774796D-06 -1.8583974746983D-06
   135  1.3400000000000D+00 -3.0208240585030D-08  4.9936979119761D-08
   136  1.3500000000000D+00 -1.0868768735619D-07  1.7967066830006D-07
   137  1.3600000000000D+00  0.0000000000000D+00  0.0000000000000D+00
   138  1.3700000000000D+00  0.0000000000000D+00  0.0000000000000D+00
   139  1.3800000000000D+00  0.0000000000000D+00  0.0000000000000D+00
   140  1.3900000000000D+00  0.0000000000000D+00  0.0000000000000D+00
   141  1.4000000000000D+00  0.0000000000000D+00  0.0000000000000D+00
   142  1.4100000000000D+00  0.0000000000000D+00  0.0000000000000D+00
   143  1.4200000000000D+00  0.0000000000000D+00  0.0000000000000D+00
   144  1.4300000000000D+00  0.0000000000000D+00  0.0000000000000D+00
   145  1.4400000000000D+00  0.0000000000000D+00  0.0000000000000D+00
   146  1.4500000000000D+00  0.0000000000000D+00  0.0000000000000D+00
   147  1.4600000000000D+00  0.0000000000000D+00  0.0000000000000D+00
   148  1.4700000000000D+00  0.0000000000000D+00  0.0000000000000D+00
   149  1.4800000000000D+00  0.0000000000000D+00  0.0000000000000D+00
   150  1.4900000000000D+00  0.0000000000000D+00  0.0000000000000D+00
   151  1.5000000000000D+00  0.0000000000000D+00  0.0000000000000D+00
   152  1.5100000000000D+00  0.0000000000000D+00  0.0000000000000D+00
   153  1.5200000000000D+00  0.0000000000000D+00  0.0000000000000D+00
   154  1.5300000000000D+00  0.0000000000000D+00  0.0000000000000D+00
   155  1.5400000000000D+00  0.0000000000000D+00  0.0000000000000D+00
   156  1.5500000000000D+00  0.0000000000000D+00  0.0000000000000D+00
   157  1.5600000000000D+00  0.0000000000000D+00  0.0000000000000D+00
   158  1.5700000000000D+00  0.0000000000000D+00  0.0000000000000D+00
   159  1.5800000000000D+00  0.0000000000000D+00  0.0000000000000D+00
   160  1.5900000000000D+00  0.0000000000000D+00  0.0000000000000D+00
   161  1.6000000000000D+00  0.0000000000000D+00  0.0000000000000D+00
   162  1.6100000000000D+00  0.0000000000000D+00  0.0000000000000D+00
   163  1.6200000000000D+00  0.0000000000000D+00  0.0000000000000D+00
   164  1.6300000000000D+00  0.0000000000000D+00  0.0000000000000D+00
   165  1.6400000000000D+00  0.0000000000000D+00  0.0000000000000D+00
   166  1.6500000000000D+00  0.0000000000000D+00  0.0000000000000D+00
   167  1.6600000000000D+00  0.0000000000000D+00  0.0000000000000D+00
   168  1.6700000000000D+00  0.0000000000000D+00  0.0000000000000D+00
   169  1.6800000000000D+00  0.0000000000000D+00  0.0000000000000D+00
   170  1.6900000000000D+00  0.0000000000000D+00  0.0000000000000D+00
   171  1.7000000000000D+00  0.0000000000000D+00  0.0000000000000D+00
   172  1.7100000000000D+00  0.0000000000000D+00  0.0000000000000D+00
   173  1.7200000000000D+00  0.0000000000000D+00  0.0000000000000D+00
   174  1.7300000000000D+00  0.0000000000000D+00  0.0000000000000D+00
   175  1.7400000000000D+00  0.0000000000000D+00  0.0000000000000D+00
   176  1.7500000000000D+00  0.0000000000000D+00  0.0000000000000D+00
   177  1.7600000000000D+00  0.0000000000000D+00  0.0000000000000D+00
   178  1.7700000000000D+00  0.0000000000000D+00  0.0000000000000D+00
   179  1.7800000000000D+00  0.0000000000000D+00  0.0000000000000D+00
   180  1.7900000000000D+00  0.0000000000000D+00  0.0000000000000D+00
   181  1.8000000000000D+00  0.0000000000000D+00  0.0000000000000D+00
   182  1.8100000000000D+00  0.0000000000000D+00  0.0000000000000D+00
   183  1.8200000000000D+00  0.0000000000000D+00  0.0000000000000D+00
   184  1.8300000000000D+00  0.0000000000000D+00  0.0000000000000D+00
   185  1.8400000000000D+00  0.0000000000000D+00  0.0000000000000D+00
   186  1.8500000000000D+00  0.0000000000000D+00  0.0000000000000D+00
   187  1.8600000000000D+00  0.0000000000000D+00  0.0000000000000D+00
   188  1.8700000000000D+00  0.0000000000000D+00  0.0000000000000D+00
   189  1.8800000000000D+00  0.0000000000000D+00  0.0000000000000D+00
   190  1.8900000000000D+00  0.0000000000000D+00  0.0000000000000D+00
   191  1.9000000000000D+00  0.0000000000000D+00  0.0000000000000D+00
   192  1.9100000000000D+00  0.0000000000000D+00  0.0000000000000D+00
   193  1.9200000000000D+00  0.0000000000000D+00  0.0000000000000D+00
   194  1.9300000000000D+00  0.0000000000000D+00  0.0000000000000D+00
   195  1.9400000000000D+00  0.0000000000000D+00  0.0000000000000D+00
   196  1.9500000000000D+00  0.0000000000000D+00  0.0000000000000D+00
   197  1.9600000000000D+00  0.0000000000000D+00  0.0000000000000D+00
   198  1.9700000000000D+00  0.0000000000000D+00  0.0000000000000D+00
   199  1.9800000000000D+00  0.0000000000000D+00  0.0000000000000D+00
   200  1.9900000000000D+00  0.0000000000000D+00  0.0000000000000D+00
   201  2.0000000000000D+00  0.0000000000000D+00  0.0000000000000D+00
   202  2.0100000000000D+00  0.0000000000000D+00  0.0000000000000D+00
   203  2.0200000000000D+00  0.0000000000000D+00  0.0000000000000D+00
   204  2.0300000000000D+00  0.0000000000000D+00  0.0000000000000D+00
   205  2.0400000000000D+00  0.0000000000000D+00  0.0000000000000D+00
   206  2.0500000000000D+00  0.0000000000000D+00  0.0000000000000D+00
   207  2.0600000000000D+00  0.0000000000000D+00  0.0000000000000D+00
   208  2.0700000000000D+00  0.0000000000000D+00  0.0000000000000D+00
   209  2.0800000000000D+00  0.0000000000000D+00  0.0000000000000D+00
   210  2.0900000000000D+00  0.0000000000000D+00  0.0000000000000D+00
   211  2.1000000000000D+00  0.0000000000000D+00  0.0000000000000D+00
   212  2.1100000000000D+00  0.0000000000000D+00  0.0000000000000D+00
   213  2.1200000000000D+00  0.0000000000000D+00  0.0000000000000D+00
   214  2.1300000000000D+00  0.0000000000000D+00  0.0000000000000D+00
   215  2.1400000000000D+00  0.0000000000000D+00  0.0000000000000D+00
   216  2.1500000000000D+00  0.0000000000000D+00  0.0000000000000D+00
   217  2.1600000000000D+00  0.0000000000000D+00  0.0000000000000D+00
   218  2.1700000000000D+00  0.0000000000000D+00  0.0000000000000D+00
   219  2.1800000000000D+00  0.0000000000000D+00  0.0000000000000D+00
   220  2.1900000000000D+00  0.0000000000000D+00  0.0000000000000D+00
   221  2.2000000000000D+00  0.0000000000000D+00  0.0000000000000D+00
   222  2.2100000000000D+00  0.0000000000000D+00  0.0000000000000D+00
   223  2.2200000000000D+00  0.0000000000000D+00  0.0000000000000D+00
   224  2.2300000000000D+00  0.0000000000000D+00  0.0000000000000D+00
   225  2.2400000000000D+00  0.0000000000000D+00  0.0000000000000D+00
   226  2.2500000000000D+00  0.0000000000000D+00  0.0000000000000D+00
   227  2.2600000000000D+00  0.0000000000000D+00  0.0000000000000D+00
   228  2.2700000000000D+00  0.0000000000000D+00  0.0000000000000D+00
   229  2.2800000000000D+00  0.0000000000000D+00  0.0000000000000D+00
   230  2.2900000000000D+00  0.0000000000000D+00  0.0000000000000D+00
   231  2.3000000000000D+00  0.0000000000000D+00  0.0000000000000D+00
   232  2.3100000000000D+00  0.0000000000000D+00  0.0000000000000D+00
   233  2.3200000000000D+00  0.0000000000000D+00  0.0000000000000D+00
   234  2.3300000000000D+00  0.0000000000000D+00  0.0000000000000D+00
   235  2.3400000000000D+00  0.0000000000000D+00  0.0000000000000D+00
   236  2.3500000000000D+00  0.0000000000000D+00  0.0000000000000D+00
   237  2.3600000000000D+00  0.0000000000000D+00  0.0000000000000D+00
   238  2.3700000000000D+00  0.0000000000000D+00  0.0000000000000D+00
   239  2.3800000000000D+00  0.0000000000000D+00  0.0000000000000D+00
   240  2.3900000000000D+00  0.0000000000000D+00  0.0000000000000D+00
   241  2.4000000000000D+00  0.0000000000000D+00  0.0000000000000D+00
   242  2.4100000000000D+00  0.0000000000000D+00  0.0000000000000D+00
   243  2.4200000000000D+00  0.0000000000000D+00  0.0000000000000D+00
   244  2.4300000000000D+00  0.0000000000000D+00  0.0000000000000D+00
   245  2.4400000000000D+00  0.0000000000000D+00  0.0000000000000D+00
   246  2.4500000000000D+00  0.0000000000000D+00  0.0000000000000D+00
   247  2.4600000000000D+00  0.0000000000000D+00  0.0000000000000D+00
   248  2.4700000000000D+00  0.0000000000000D+00  0.0000000000000D+00
   249  2.4800000000000D+00  0.0000000000000D+00  0.0000000000000D+00
   250  2.4900000000000D+00  0.0000000000000D+00  0.0000000000000D+00
   251  2.5000000000000D+00  0.0000000000000D+00  0.0000000000000D+00
   252  2.5100000000000D+00  0.0000000000000D+00  0.0000000000000D+00
   253  2.5200000000000D+00  0.0000000000000D+00  0.0000000000000D+00
   254  2.5300000000000D+00  0.0000000000000D+00  0.0000000000000D+00
   255  2.5400000000000D+00  0.0000000000000D+00  0.0000000000000D+00
   256  2.5500000000000D+00  0.0000000000000D+00  0.0000000000000D+00
   257  2.5600000000000D+00  0.0000000000000D+00  0.0000000000000D+00
   258  2.5700000000000D+00  0.0000000000000D+00  0.0000000000000D+00
   259  2.5800000000000D+00  0.0000000000000D+00  0.0000000000000D+00
   260  2.5900000000000D+00  0.0000000000000D+00  0.0000000000000D+00
   261  2.6000000000000D+00  0.0000000000000D+00  0.0000000000000D+00
   262  2.6100000000000D+00  0.0000000000000D+00  0.0000000000000D+00
   263  2.6200000000000D+00  0.0000000000000D+00  0.0000000000000D+00
   264  2.6300000000000D+00  0.0000000000000D+00  0.0000000000000D+00
   265  2.6400000000000D+00  0.0000000000000D+00  0.0000000000000D+00
   266  2.6500000000000D+00  0.0000000000000D+00  0.0000000000000D+00
   267  2.6600000000000D+00  0.0000000000000D+00  0.0000000000000D+00
   268  2.6700000000000D+00  0.0000000000000D+00  0.0000000000000D+00
   269  2.6800000000000D+00  0.0000000000000D+00  0.0000000000000D+00
   270  2.6900000000000D+00  0.0000000000000D+00  0.0000000000000D+00
   271  2.7000000000000D+00  0.0000000000000D+00  0.0000000000000D+00
   272  2.7100000000000D+00  0.0000000000000D+00  0.0000000000000D+00
   273  2.7200000000000D+00  0.0000000000000D+00  0.0000000000000D+00
   274  2.7300000000000D+00  0.0000000000000D+00  0.0000000000000D+00
   275  2.7400000000000D+00  0.0000000000000D+00  0.0000000000000D+00
   276  2.7500000000000D+00  0.0000000000000D+00  0.0000000000000D+00
   277  2.7600000000000D+00  0.0000000000000D+00  0.0000000000000D+00
   278  2.7700000000000D+00  0.0000000000000D+00  0.0000000000000D+00
   279  2.7800000000000D+00  0.0000000000000D+00  0.0000000000000D+00
   280  2.7900000000000D+00  0.0000000000000D+00  0.0000000000000D+00
   281  2.8000000000000D+00  0.0000000000000D+00  0.0000000000000D+00
   282  2.8100000000000D+00  0.0000000000000D+00  0.0000000000000D+00
   283  2.8200000000000D+00  0.0000000000000D+00  0.0000000000000D+00
   284  2.8300000000000D+00  0.0000000000000D+00  0.0000000000000D+00
   285  2.8400000000000D+00  0.0000000000000D+00  0.0000000000000D+00
   286  2.8500000000000D+00  0.0000000000000D+00  0.0000000000000D+00
   287  2.8600000000000D+00  0.0000000000000D+00  0.0000000000000D+00
   288  2.8700000000000D+00  0.0000000000000D+00  0.0000000000000D+00
   289  2.8800000000000D+00  0.0000000000000D+00  0.0000000000000D+00
   290  2.8900000000000D+00  0.0000000000000D+00  0.0000000000000D+00
   291  2.9000000000000D+00  0.0000000000000D+00  0.0000000000000D+00
   292  2.9100000000000D+00  0.0000000000000D+00  0.0000000000000D+00
   293  2.9200000000000D+00  0.0000000000000D+00  0.0000000000000D+00
   294  2.9300000000000D+00  0.0000000000000D+00  0.0000000000000D+00
   295  2.9400000000000D+00  0.0000000000000D+00  0.0000000000000D+00
   296  2.9500000000000D+00  0.0000000000000D+00  0.0000000000000D+00
   297  2.9600000000000D+00  0.0000000000000D+00  0.0000000000000D+00
   298  2.9700000000000D+00  0.0000000000000D+00  0.0000000000000D+00
   299  2.9800000000000D+00  0.0000000000000D+00  0.0000000000000D+00
   300  2.9900000000000D+00  0.0000000000000D+00  0.0000000000000D+00
   301  3.0000000000000D+00  0.0000000000000D+00  0.0000000000000D+00
   302  3.0100000000000D+00  0.0000000000000D+00  0.0000000000000D+00
   303  3.0200000000000D+00  0.0000000000000D+00  0.0000000000000D+00
   304  3.0300000000000D+00  0.0000000000000D+00  0.0000000000000D+00
   305  3.0400000000000D+00  0.0000000000000D+00  0.0000000000000D+00
   306  3.0500000000000D+00  0.0000000000000D+00  0.0000000000000D+00
   307  3.0600000000000D+00  0.0000000000000D+00  0.0000000000000D+00
   308  3.0700000000000D+00  0.0000000000000D+00  0.0000000000000D+00
   309  3.0800000000000D+00  0.0000000000000D+00  0.0000000000000D+00
   310  3.0900000000000D+00  0.0000000000000D+00  0.0000000000000D+00
   311  3.1000000000000D+00  0.0000000000000D+00  0.0000000000000D+00
   312  3.1100000000000D+00  0.0000000000000D+00  0.0000000000000D+00
   313  3.1200000000000D+00  0.0000000000000D+00  0.0000000000000D+00
   314  3.1300000000000D+00  0.0000000000000D+00  0.0000000000000D+00
   315  3.1400000000000D+00  0.0000000000000D+00  0.0000000000000D+00
   316  3.1500000000000D+00  0.0000000000000D+00  0.0000000000000D+00
   317  3.1600000000000D+00  0.0000000000000D+00  0.0000000000000D+00
   318  3.1700000000000D+00  0.0000000000000D+00  0.0000000000000D+00
   319  3.1800000000000D+00  0.0000000000000D+00  0.0000000000000D+00
   320  3.1900000000000D+00  0.0000000000000D+00  0.0000000000000D+00
   321  3.2000000000000D+00  0.0000000000000D+00  0.0000000000000D+00
   322  3.2100000000000D+00  0.0000000000000D+00  0.0000000000000D+00
   323  3.2200000000000D+00  0.0000000000000D+00  0.0000000000000D+00
   324  3.2300000000000D+00  0.0000000000000D+00  0.0000000000000D+00
   325  3.2400000000000D+00  0.0000000000000D+00  0.0000000000000D+00
   326  3.2500000000000D+00  0.0000000000000D+00  0.0000000000000D+00
   327  3.2600000000000D+00  0.0000000000000D+00  0.0000000000000D+00
   328  3.2700000000000D+00  0.0000000000000D+00  0.0000000000000D+00
   329  3.2800000000000D+00  0.0000000000000D+00  0.0000000000000D+00
   330  3.2900000000000D+00  0.0000000000000D+00  0.0000000000000D+00
   331  3.3000000000000D+00  0.0000000000000D+00  0.0000000000000D+00
   332  3.3100000000000D+00  0.0000000000000D+00  0.0000000000000D+00
   333  3.3200000000000D+00  0.0000000000000D+00  0.0000000000000D+00
   334  3.3300000000000D+00  0.0000000000000D+00  0.0000000000000D+00
   335  3.3400000000000D+00  0.0000000000000D+00  0.0000000000000D+00
   336  3.3500000000000D+00  0.0000000000000D+00  0.0000000000000D+00
   337  3.3600000000000D+00  0.0000000000000D+00  0.0000000000000D+00
   338  3.3700000000000D+00  0.0000000000000D+00  0.0000000000000D+00
   339  3.3800000000000D+00  0.0000000000000D+00  0.0000000000000D+00
   340  3.3900000000000D+00  0.0000000000000D+00  0.0000000000000D+00
   341  3.4000000000000D+00  0.0000000000000D+00  0.0000000000000D+00
   342  3.4100000000000D+00  0.0000000000000D+00  0.0000000000000D+00
   343  3.4200000000000D+00  0.0000000000000D+00  0.0000000000000D+00
   344  3.4300000000000D+00  0.0000000000000D+00  0.0000000000000D+00
   345  3.4400000000000D+00  0.0000000000000D+00  0.0000000000000D+00
   346  3.4500000000000D+00  0.0000000000000D+00  0.0000000000000D+00
   347  3.4600000000000D+00  0.0000000000000D+00  0.0000000000000D+00
   348  3.4700000000000D+00  0.0000000000000D+00  0.0000000000000D+00
   349  3.4800000000000D+00  0.0000000000000D+00  0.0000000000000D+00
   350  3.4900000000000D+00  0.0000000000000D+00  0.0000000000000D+00
   351  3.5000000000000D+00  0.0000000000000D+00  0.0000000000000D+00
   352  3.5100000000000D+00  0.0000000000000D+00  0.0000000000000D+00
   353  3.5200000000000D+00  0.0000000000000D+00  0.0000000000000D+00
   354  3.5300000000000D+00  0.0000000000000D+00  0.0000000000000D+00
   355  3.5400000000000D+00  0.0000000000000D+00  0.0000000000000D+00
   356  3.5500000000000D+00  0.0000000000000D+00  0.0000000000000D+00
   357  3.5600000000000D+00  0.0000000000000D+00  0.0000000000000D+00
   358  3.5700000000000D+00  0.0000000000000D+00  0.0000000000000D+00
   359  3.5800000000000D+00  0.0000000000000D+00  0.0000000000000D+00
   360  3.5900000000000D+00  0.0000000000000D+00  0.0000000000000D+00
   361  3.6000000000000D+00  0.0000000000000D+00  0.0000000000000D+00
   362  3.6100000000000D+00  0.0000000000000D+00  0.0000000000000D+00
   363  3.6200000000000D+00  0.0000000000000D+00  0.0000000000000D+00
   364  3.6300000000000D+00  0.0000000000000D+00  0.0000000000000D+00
   365  3.6400000000000D+00  0.0000000000000D+00  0.0000000000000D+00
   366  3.6500000000000D+00  0.0000000000000D+00  0.0000000000000D+00
   367  3.6600000000000D+00  0.0000000000000D+00  0.0000000000000D+00
   368  3.6700000000000D+00  0.0000000000000D+00  0.0000000000000D+00
   369  3.6800000000000D+00  0.0000000000000D+00  0.0000000000000D+00
   370  3.6900000000000D+00  0.0000000000000D+00  0.0000000000000D+00
   371  3.7000000000000D+00  0.0000000000000D+00  0.0000000000000D+00
   372  3.7100000000000D+00  0.0000000000000D+00  0.0000000000000D+00
   373  3.7200000000000D+00  0.0000000000000D+00  0.0000000000000D+00
   374  3.7300000000000D+00  0.0000000000000D+00  0.0000000000000D+00
   375  3.7400000000000D+00  0.0000000000000D+00  0.0000000000000D+00
   376  3.7500000000000D+00  0.0000000000000D+00  0.0000000000000D+00
   377  3.7600000000000D+00  0.0000000000000D+00  0.0000000000000D+00
   378  3.7700000000000D+00  0.0000000000000D+00  0.0000000000000D+00
   379  3.7800000000000D+00  0.0000000000000D+00  0.0000000000000D+00
   380  3.7900000000000D+00  0.0000000000000D+00  0.0000000000000D+00
   381  3.8000000000000D+00  0.0000000000000D+00  0.0000000000000D+00
   382  3.8100000000000D+00  0.0000000000000D+00  0.0000000000000D+00
   383  3.8200000000000D+00  0.0000000000000D+00  0.0000000000000D+00
   384  3.8300000000000D+00  0.0000000000000D+00  0.0000000000000D+00
   385  3.8400000000000D+00  0.0000000000000D+00  0.0000000000000D+00
   386  3.8500000000000D+00  0.0000000000000D+00  0.0000000000000D+00
   387  3.8600000000000D+00  0.0000000000000D+00  0.0000000000000D+00
   388  3.8700000000000D+00  0.0000000000000D+00  0.0000000000000D+00
   389  3.8800000000000D+00  0.0000000000000D+00  0.0000000000000D+00
   390  3.8900000000000D+00  0.0000000000000D+00  0.0000000000000D+00
   391  3.9000000000000D+00  0.0000000000000D+00  0.0000000000000D+00
   392  3.9100000000000D+00  0.0000000000000D+00  0.0000000000000D+00
   393  3.9200000000000D+00  0.0000000000000D+00  0.0000000000000D+00
   394  3.9300000000000D+00  0.0000000000000D+00  0.0000000000000D+00
   395  3.9400000000000D+00  0.0000000000000D+00  0.0000000000000D+00
   396  3.9500000000000D+00  0.0000000000000D+00  0.0000000000000D+00
   397  3.9600000000000D+00  0.0000000000000D+00  0.0000000000000D+00
   398  3.9700000000000D+00  0.0000000000000D+00  0.0000000000000D+00
   399  3.9800000000000D+00  0.0000000000000D+00  0.0000000000000D+00
   400  3.9900000000000D+00  0.0000000000000D+00  0.0000000000000D+00
   401  4.0000000000000D+00  0.0000000000000D+00  0.0000000000000D+00
   402  4.0100000000000D+00  0.0000000000000D+00  0.0000000000000D+00
   403  4.0200000000000D+00  0.0000000000000D+00  0.0000000000000D+00
   404  4.0300000000000D+00  0.0000000000000D+00  0.0000000000000D+00
   405  4.0400000000000D+00  0.0000000000000D+00  0.0000000000000D+00
   406  4.0500000000000D+00  0.0000000000000D+00  0.0000000000000D+00
   407  4.0600000000000D+00  0.0000000000000D+00  0.0000000000000D+00
   408  4.0700000000000D+00  0.0000000000000D+00  0.0000000000000D+00
   409  4.0800000000000D+00  0.0000000000000D+00  0.0000000000000D+00
   410  4.0900000000000D+00  0.0000000000000D+00  0.0000000000000D+00
   411  4.1000000000000D+00  0.0000000000000D+00  0.0000000000000D+00
   412  4.1100000000000D+00  0.0000000000000D+00  0.0000000000000D+00
   413  4.1200000000000D+00  0.0000000000000D+00  0.0000000000000D+00
   414  4.1300000000000D+00  0.0000000000000D+00  0.0000000000000D+00
   415  4.1400000000000D+00  0.0000000000000D+00  0.0000000000000D+00
   416  4.1500000000000D+00  0.0000000000000D+00  0.0000000000000D+00
   417  4.1600000000000D+00  0.0000000000000D+00  0.0000000000000D+00
   418  4.1700000000000D+00  0.0000000000000D+00  0.0000000000000D+00
   419  4.1800000000000D+00  0.0000000000000D+00  0.0000000000000D+00
   420  4.1900000000000D+00  0.0000000000000D+00  0.0000000000000D+00
   421  4.2000000000000D+00  0.0000000000000D+00  0.0000000000000D+00
   422  4.2100000000000D+00  0.0000000000000D+00  0.0000000000000D+00
   423  4.2200000000000D+00  0.0000000000000D+00  0.0000000000000D+00