O     ONCVPSP-3.3.1  r_core=   1.29195   1.47310
      8.0000      6.0000      210905    zatom,zion,pspd
     8 -116133   1     4   600     0    pspcod,pspxc,lmax,lloc,mmax,r2well
  5.99000000  0.00000000  0.00000000    rchrg fchrg qchrg
     2     2     0     0    nproj
     3     1           extension_switch
     3     0     0    nprojso
   0                         1.3977847543082D+00  9.8324988287172D+00
     1  0.0000000000000D+00 -9.8937297798862D-09  2.8419132602764D-09
     2  1.0000000000000D-02 -6.1353958957330D-03  8.9607553604868D-02
     3  2.0000000000000D-02 -1.2518647391069D-02  1.7907112360329D-01
     4  3.0000000000000D-02 -1.9389781343580D-02  2.6824502208328D-01
     5  4.0000000000000D-02 -2.6973317779995D-02  3.5698019525909D-01
     6  5.0000000000000D-02 -3.5470890536508D-02  4.4512264663810D-01
     7  6.0000000000000D-02 -4.5054309591428D-02  5.3251198545305D-01
     8  7.0000000000000D-02 -5.5859200488455D-02  6.1898013871797D-01
     9  8.0000000000000D-02 -6.7979346355122D-02  7.0435026242425D-01
    10  9.0000000000000D-02 -8.1461845959163D-02  7.8843588392636D-01
    11  1.0000000000000D-01 -9.6303187213271D-02  8.7104030353076D-01
    12  1.1000000000000D-01 -1.1244631976450D-01  9.5195627875985D-01
    13  1.2000000000000D-01 -1.2977879304725D-01  1.0309660097894D+00
    14  1.3000000000000D-01 -1.4813200772107D-01  1.1078414392308D+00
    15  1.4000000000000D-01 -1.6728160906027D-01  1.1823448738360D+00
    16  1.5000000000000D-01 -1.8694903093028D-01  1.2542299299323D+00
    17  1.6000000000000D-01 -2.0680417880619D-01  1.3232427985388D+00
    18  1.7000000000000D-01 -2.2646922019596D-01  1.3891238202739D+00
    19  1.8000000000000D-01 -2.4552343116096D-01  1.4516093544271D+00
    20  1.9000000000000D-01 -2.6350902870738D-01  1.5104339210303D+00
    21  2.0000000000000D-01 -2.7993790097430D-01  1.5653325895231D+00
    22  2.1000000000000D-01 -2.9429913066905D-01  1.6160435827391D+00
    23  2.2000000000000D-01 -3.0606719238092D-01  1.6623110605396D+00
    24  2.3000000000000D-01 -3.1471069149533D-01  1.7038880435508D+00
    25  2.4000000000000D-01 -3.1970150165892D-01  1.7405394341968D+00
    26  2.5000000000000D-01 -3.2052414930357D-01  1.7720450896140D+00
    27  2.6000000000000D-01 -3.1668528777887D-01  1.7982028991355D+00
    28  2.7000000000000D-01 -3.0772310028288D-01  1.8188318178772D+00
    29  2.8000000000000D-01 -2.9321647009303D-01  1.8337748075722D+00
    30  2.9000000000000D-01 -2.7279375860984D-01  1.8429016361935D+00
    31  3.0000000000000D-01 -2.4614103642326D-01  1.8461114890778D+00
    32  3.1000000000000D-01 -2.1300961992972D-01  1.8433353462105D+00
    33  3.2000000000000D-01 -1.7322277586808D-01  1.8345380830132D+00
    34  3.3000000000000D-01 -1.2668146835279D-01  1.8197202553739D+00
    35  3.4000000000000D-01 -7.3369037378578D-02  1.7989195337092D+00
    36  3.5000000000000D-01 -1.3354714125375D-02  1.7722117555000D+00
    37  3.6000000000000D-01  5.3204103552985D-02  1.7397115709231D+00
    38  3.7000000000000D-01  1.2606087260998D-01  1.7015726618357D+00
    39  3.8000000000000D-01  2.0488025985171D-01  1.6579875203652D+00
    40  3.9000000000000D-01  2.8923984582499D-01  1.6091867796316D+00
    41  4.0000000000000D-01  3.7863317110244D-01  1.5554380955739D+00
    42  4.1000000000000D-01  4.7247409674747D-01  1.4970445853783D+00
    43  4.2000000000000D-01  5.7010242928686D-01  1.4343428344956D+00
    44  4.3000000000000D-01  6.7079073973834D-01  1.3677004906054D+00
    45  4.4000000000000D-01  7.7375228648930D-01  1.2975134690123D+00
    46  4.5000000000000D-01  8.7814993343182D-01  1.2242027997687D+00
    47  4.6000000000000D-01  9.8310593804758D-01  1.1482111521949D+00
    48  4.7000000000000D-01  1.0877124693889D+00  1.0699990773469D+00
    49  4.8000000000000D-01  1.1910427033757D+00  9.9004101326355D-01
    50  4.9000000000000D-01  1.2921623327426D+00  9.0882110145746D-01
    51  5.0000000000000D-01  1.3901413215052D+00  8.2682886602916D-01
    52  5.1000000000000D-01  1.4840657291010D+00  7.4455480893664D-01
    53  5.2000000000000D-01  1.5730494274885D+00  6.6248597630939D-01
    54  5.3000000000000D-01  1.6562455355043D+00  5.8110155123297D-01
    55  5.4000000000000D-01  1.7328573986515D+00  5.0086852814179D-01
    56  5.5000000000000D-01  1.8021489491924D+00  4.2223752284648D-01
    57  5.6000000000000D-01  1.8634542908134D+00  3.4563877030712D-01
    58  5.7000000000000D-01  1.9161863640571D+00  2.7147835958372D-01
    59  5.8000000000000D-01  1.9598445630319D+00  2.0013475197697D-01
    60  5.9000000000000D-01  1.9940211902474D+00  1.3195562430655D-01
    61  6.0000000000000D-01  2.0184066546906D+00  6.7255074579261D-02
    62  6.1000000000000D-01  2.0327933379117D+00  6.3112221149032D-03
    63  6.2000000000000D-01  2.0370780738125D+00 -5.0635771451326D-02
    64  6.3000000000000D-01  2.0312632095186D+00 -1.0338523984895D-01
    65  6.4000000000000D-01  2.0154562367762D+00 -1.5177709430028D-01
    66  6.5000000000000D-01  1.9898680055667D+00 -1.9569244224724D-01
    67  6.6000000000000D-01  1.9548095533788D+00 -2.3505374120338D-01
    68  6.7000000000000D-01  1.9106876046840D+00 -2.6982449258240D-01
    69  6.8000000000000D-01  1.8579988152108D+00 -3.0000848651883D-01
    70  6.9000000000000D-01  1.7973228541561D+00 -3.2564861456458D-01
    71  7.0000000000000D-01  1.7293144342533D+00 -3.4682527264124D-01
    72  7.1000000000000D-01  1.6546944144389D+00 -3.6365438170162D-01
    73  7.2000000000000D-01  1.5742401122766D+00 -3.7628505805614D-01
    74  7.3000000000000D-01  1.4887749732533D+00 -3.8489696923520D-01
    75  7.4000000000000D-01  1.3991577513231D+00 -3.8969741451137D-01
    76  7.5000000000000D-01  1.3062713595460D+00 -3.9091817173959D-01
    77  7.6000000000000D-01  1.2110115512826D+00 -3.8881215398477D-01
    78  7.7000000000000D-01  1.1142755911334D+00 -3.8364992043669D-01
    79  7.8000000000000D-01  1.0169510707186D+00 -3.7571608638727D-01
    80  7.9000000000000D-01  9.1990501755911D-01 -3.6530567655758D-01
    81  8.0000000000000D-01  8.2397343588483D-01 -3.5272046483599D-01
    82  8.1000000000000D-01  7.2995140635599D-01 -3.3826534155869D-01
    83  8.2000000000000D-01  6.3858385767206D-01 -3.2224474687616D-01
    84  8.3000000000000D-01  5.5055710712957D-01 -3.0495920556078D-01
    85  8.4000000000000D-01  4.6649124968830D-01 -2.8670199489077D-01
    86  8.5000000000000D-01  3.8693345634865D-01 -2.6775597306960D-01
    87  8.6000000000000D-01  3.1235222298911D-01 -2.4839059109225D-01
    88  8.7000000000000D-01  2.4313259063696D-01 -2.2885910614035D-01
    89  8.8000000000000D-01  1.7957233782653D-01 -2.0939600956940D-01
    90  8.9000000000000D-01  1.2187912245104D-01 -1.9021467675305D-01
    91  9.0000000000000D-01  7.0168532872559D-02 -1.7150524102722D-01
    92  9.1000000000000D-01  2.4463205116671D-02 -1.5343273808502D-01
    93  9.2000000000000D-01 -1.5308227550379D-02 -1.3613525734020D-01
    94  9.3000000000000D-01 -4.9300838249674D-02 -1.1972462675423D-01
    95  9.4000000000000D-01 -7.7733790847234D-02 -1.0428949577779D-01
    96  9.5000000000000D-01 -1.0087724017408D-01 -8.9897445033443D-02
    97  9.6000000000000D-01 -1.1904650393528D-01 -7.6595733101178D-02
    98  9.7000000000000D-01 -1.3259468204667D-01 -6.4412489508223D-02
    99  9.8000000000000D-01 -1.4190521476938D-01 -5.3358050756714D-02
   100  9.9000000000000D-01 -1.4738429697290D-01 -4.3426450668152D-02
   101  1.0000000000000D+00 -1.4945328286602D-01 -3.4597033448515D-02
   102  1.0100000000000D+00 -1.4854121988265D-01 -2.6836155457344D-02
   103  1.0200000000000D+00 -1.4507763983486D-01 -2.0098942916815D-02
   104  1.0300000000000D+00 -1.3948572701372D-01 -1.4331073673269D-02
   105  1.0400000000000D+00 -1.3217597256767D-01 -9.4705525369881D-03
   106  1.0500000000000D+00 -1.2354041147510D-01 -5.4494517959486D-03
   107  1.0600000000000D+00 -1.1394752624491D-01 -2.1955905652275D-03
   108  1.0700000000000D+00 -1.0373788419129D-01  3.6587021071799D-04
   109  1.0800000000000D+00 -9.3220560360052D-02  2.3109374408298D-03
   110  1.0900000000000D+00 -8.2670380886319D-02  3.7154171739831D-03
   111  1.1000000000000D+00 -7.2326003592105D-02  4.6536807074851D-03
   112  1.1100000000000D+00 -6.2388838032972D-02  5.1975756881753D-03
   113  1.1200000000000D+00 -5.3022786622646D-02  5.4154879308712D-03
   114  1.1300000000000D+00 -4.4354775112140D-02  5.3715567087315D-03
   115  1.1400000000000D+00 -3.6476023259620D-02  5.1250423042100D-03
   116  1.1500000000000D+00 -2.9443995788995D-02  4.7298421365749D-03
   117  1.1600000000000D+00 -2.3284956954965D-02  4.2341477624887D-03
   118  1.1700000000000D+00 -1.7997044049431D-02  3.6802330078501D-03
   119  1.1800000000000D+00 -1.3553765475682D-02  3.1043609079989D-03
   120  1.1900000000000D+00 -9.9078230567748D-03  2.5367955654146D-03
   121  1.2000000000000D+00 -6.9951514331654D-03  2.0019028364567D-03
   122  1.2100000000000D+00 -4.7390677564772D-03  1.5183233916266D-03
   123  1.2200000000000D+00 -3.0544234336225D-03  1.0992009382335D-03
   124  1.2300000000000D+00 -1.8516510373697D-03  7.5244799283458D-04
   125  1.2400000000000D+00 -1.0406064521496D-03  4.8103244482574D-04
   126  1.2500000000000D+00 -5.3421404373873D-04  2.8331593000950D-04
   127  1.2600000000000D+00 -2.5116927688971D-04  1.5312664854430D-04
   128  1.2700000000000D+00 -1.1771818575539D-04  7.9402695891249D-05
   129  1.2800000000000D+00 -8.1928157783316D-05  5.3586340527072D-05
   130  1.2900000000000D+00 -8.1524934909516D-05  4.9712494842205D-05
   131  1.3000000000000D+00 -3.9376045104128D-05  2.3423626724783D-05
   132  1.3100000000000D+00  5.4651826765344D-06 -3.2292477087675D-06
   133  1.3200000000000D+00  4.1974720361224D-06 -2.4664057635219D-06
   134  1.3300000000000D+00 -1.8546533086510D-06  1.1072798364340D-06
   135  1.3400000000000D+00  4.9836357594421D-08 -3.0178767025083D-08
   136  1.3500000000000D+00  1.7930863725569D-07 -1.0858164301177D-07
   137  1.3600000000000D+00  0.0000000000000D+00  0.0000000000000D+00
   138  1.3700000000000D+00  0.0000000000000D+00  0.0000000000000D+00
   139  1.3800000000000D+00  0.0000000000000D+00  0.0000000000000D+00
   140  1.3900000000000D+00  0.0000000000000D+00  0.0000000000000D+00
   141  1.4000000000000D+00  0.0000000000000D+00  0.0000000000000D+00
   142  1.4100000000000D+00  0.0000000000000D+00  0.0000000000000D+00
   143  1.4200000000000D+00  0.0000000000000D+00  0.0000000000000D+00
   144  1.4300000000000D+00  0.0000000000000D+00  0.0000000000000D+00
   145  1.4400000000000D+00  0.0000000000000D+00  0.0000000000000D+00
   146  1.4500000000000D+00  0.0000000000000D+00  0.0000000000000D+00
   147  1.4600000000000D+00  0.0000000000000D+00  0.0000000000000D+00
   148  1.4700000000000D+00  0.0000000000000D+00  0.0000000000000D+00
   149  1.4800000000000D+00  0.0000000000000D+00  0.0000000000000D+00
   150  1.4900000000000D+00  0.0000000000000D+00  0.0000000000000D+00
   151  1.5000000000000D+00  0.0000000000000D+00  0.0000000000000D+00
   152  1.5100000000000D+00  0.0000000000000D+00  0.0000000000000D+00
   153  1.5200000000000D+00  0.0000000000000D+00  0.0000000000000D+00
   154  1.5300000000000D+00  0.0000000000000D+00  0.0000000000000D+00
   155  1.5400000000000D+00  0.0000000000000D+00  0.0000000000000D+00
   156  1.5500000000000D+00  0.0000000000000D+00  0.0000000000000D+00
   157  1.5600000000000D+00  0.0000000000000D+00  0.0000000000000D+00
   158  1.5700000000000D+00  0.0000000000000D+00  0.0000000000000D+00
   159  1.5800000000000D+00  0.0000000000000D+00  0.0000000000000D+00
   160  1.5900000000000D+00  0.0000000000000D+00  0.0000000000000D+00
   161  1.6000000000000D+00  0.0000000000000D+00  0.0000000000000D+00
   162  1.6100000000000D+00  0.0000000000000D+00  0.0000000000000D+00
   163  1.6200000000000D+00  0.0000000000000D+00  0.0000000000000D+00
   164  1.6300000000000D+00  0.0000000000000D+00  0.0000000000000D+00
   165  1.6400000000000D+00  0.0000000000000D+00  0.0000000000000D+00
   166  1.6500000000000D+00  0.0000000000000D+00  0.0000000000000D+00
   167  1.6600000000000D+00  0.0000000000000D+00  0.0000000000000D+00
   168  1.6700000000000D+00  0.0000000000000D+00  0.0000000000000D+00
   169  1.6800000000000D+00  0.0000000000000D+00  0.0000000000000D+00
   170  1.6900000000000D+00  0.0000000000000D+00  0.0000000000000D+00
   171  1.7000000000000D+00  0.0000000000000D+00  0.0000000000000D+00
   172  1.7100000000000D+00  0.0000000000000D+00  0.0000000000000D+00
   173  1.7200000000000D+00  0.0000000000000D+00  0.0000000000000D+00
   174  1.7300000000000D+00  0.0000000000000D+00  0.0000000000000D+00
   175  1.7400000000000D+00  0.0000000000000D+00  0.0000000000000D+00
   176  1.7500000000000D+00  0.0000000000000D+00  0.0000000000000D+00
   177  1.7600000000000D+00  0.0000000000000D+00  0.0000000000000D+00
   178  1.7700000000000D+00  0.0000000000000D+00  0.0000000000000D+00
   179  1.7800000000000D+00  0.0000000000000D+00  0.0000000000000D+00
   180  1.7900000000000D+00  0.0000000000000D+00  0.0000000000000D+00
   181  1.8000000000000D+00  0.0000000000000D+00  0.0000000000000D+00
   182  1.8100000000000D+00  0.0000000000000D+00  0.0000000000000D+00
   183  1.8200000000000D+00  0.0000000000000D+00  0.0000000000000D+00
   184  1.8300000000000D+00  0.0000000000000D+00  0.0000000000000D+00
   185  1.8400000000000D+00  0.0000000000000D+00  0.0000000000000D+00
   186  1.8500000000000D+00  0.0000000000000D+00  0.0000000000000D+00
   187  1.8600000000000D+00  0.0000000000000D+00  0.0000000000000D+00
   188  1.8700000000000D+00  0.0000000000000D+00  0.0000000000000D+00
   189  1.8800000000000D+00  0.0000000000000D+00  0.0000000000000D+00
   190  1.8900000000000D+00  0.0000000000000D+00  0.0000000000000D+00
   191  1.9000000000000D+00  0.0000000000000D+00  0.0000000000000D+00
   192  1.9100000000000D+00  0.0000000000000D+00  0.0000000000000D+00
   193  1.9200000000000D+00  0.0000000000000D+00  0.0000000000000D+00
   194  1.9300000000000D+00  0.0000000000000D+00  0.0000000000000D+00
   195  1.9400000000000D+00  0.0000000000000D+00  0.0000000000000D+00
   196  1.9500000000000D+00  0.0000000000000D+00  0.0000000000000D+00
   197  1.9600000000000D+00  0.0000000000000D+00  0.0000000000000D+00
   198  1.9700000000000D+00  0.0000000000000D+00  0.0000000000000D+00
   199  1.9800000000000D+00  0.0000000000000D+00  0.0000000000000D+00
   200  1.9900000000000D+00  0.0000000000000D+00  0.0000000000000D+00
   201  2.0000000000000D+00  0.0000000000000D+00  0.0000000000000D+00
   202  2.0100000000000D+00  0.0000000000000D+00  0.0000000000000D+00
   203  2.0200000000000D+00  0.0000000000000D+00  0.0000000000000D+00
   204  2.0300000000000D+00  0.0000000000000D+00  0.0000000000000D+00
   205  2.0400000000000D+00  0.0000000000000D+00  0.0000000000000D+00
   206  2.0500000000000D+00  0.0000000000000D+00  0.0000000000000D+00
   207  2.0600000000000D+00  0.0000000000000D+00  0.0000000000000D+00
   208  2.0700000000000D+00  0.0000000000000D+00  0.0000000000000D+00
   209  2.0800000000000D+00  0.0000000000000D+00  0.0000000000000D+00
   210  2.0900000000000D+00  0.0000000000000D+00  0.0000000000000D+00
   211  2.1000000000000D+00  0.0000000000000D+00  0.0000000000000D+00
   212  2.1100000000000D+00  0.0000000000000D+00  0.0000000000000D+00
   213  2.1200000000000D+00  0.0000000000000D+00  0.0000000000000D+00
   214  2.1300000000000D+00  0.0000000000000D+00  0.0000000000000D+00
   215  2.1400000000000D+00  0.0000000000000D+00  0.0000000000000D+00
   216  2.1500000000000D+00  0.0000000000000D+00  0.0000000000000D+00
   217  2.1600000000000D+00  0.0000000000000D+00  0.0000000000000D+00
   218  2.1700000000000D+00  0.0000000000000D+00  0.0000000000000D+00
   219  2.1800000000000D+00  0.0000000000000D+00  0.0000000000000D+00
   220  2.1900000000000D+00  0.0000000000000D+00  0.0000000000000D+00
   221  2.2000000000000D+00  0.0000000000000D+00  0.0000000000000D+00
   222  2.2100000000000D+00  0.0000000000000D+00  0.0000000000000D+00
   223  2.2200000000000D+00  0.0000000000000D+00  0.0000000000000D+00
   224  2.2300000000000D+00  0.0000000000000D+00  0.0000000000000D+00
   225  2.2400000000000D+00  0.0000000000000D+00  0.0000000000000D+00
   226  2.2500000000000D+00  0.0000000000000D+00  0.0000000000000D+00
   227  2.2600000000000D+00  0.0000000000000D+00  0.0000000000000D+00
   228  2.2700000000000D+00  0.0000000000000D+00  0.0000000000000D+00
   229  2.2800000000000D+00  0.0000000000000D+00  0.0000000000000D+00
   230  2.2900000000000D+00  0.0000000000000D+00  0.0000000000000D+00
   231  2.3000000000000D+00  0.0000000000000D+00  0.0000000000000D+00
   232  2.3100000000000D+00  0.0000000000000D+00  0.0000000000000D+00
   233  2.3200000000000D+00  0.0000000000000D+00  0.0000000000000D+00
   234  2.3300000000000D+00  0.0000000000000D+00  0.0000000000000D+00
   235  2.3400000000000D+00  0.0000000000000D+00  0.0000000000000D+00
   236  2.3500000000000D+00  0.0000000000000D+00  0.0000000000000D+00
   237  2.3600000000000D+00  0.0000000000000D+00  0.0000000000000D+00
   238  2.3700000000000D+00  0.0000000000000D+00  0.0000000000000D+00
   239  2.3800000000000D+00  0.0000000000000D+00  0.0000000000000D+00
   240  2.3900000000000D+00  0.0000000000000D+00  0.0000000000000D+00
   241  2.4000000000000D+00  0.0000000000000D+00  0.0000000000000D+00
   242  2.4100000000000D+00  0.0000000000000D+00  0.0000000000000D+00
   243  2.4200000000000D+00  0.0000000000000D+00  0.0000000000000D+00
   244  2.4300000000000D+00  0.0000000000000D+00  0.0000000000000D+00
   245  2.4400000000000D+00  0.0000000000000D+00  0.0000000000000D+00
   246  2.4500000000000D+00  0.0000000000000D+00  0.0000000000000D+00
   247  2.4600000000000D+00  0.0000000000000D+00  0.0000000000000D+00
   248  2.4700000000000D+00  0.0000000000000D+00  0.0000000000000D+00
   249  2.4800000000000D+00  0.0000000000000D+00  0.0000000000000D+00
   250  2.4900000000000D+00  0.0000000000000D+00  0.0000000000000D+00
   251  2.5000000000000D+00  0.0000000000000D+00  0.0000000000000D+00
   252  2.5100000000000D+00  0.0000000000000D+00  0.0000000000000D+00
   253  2.5200000000000D+00  0.0000000000000D+00  0.0000000000000D+00
   254  2.5300000000000D+00  0.0000000000000D+00  0.0000000000000D+00
   255  2.5400000000000D+00  0.0000000000000D+00  0.0000000000000D+00
   256  2.5500000000000D+00  0.0000000000000D+00  0.0000000000000D+00
   257  2.5600000000000D+00  0.0000000000000D+00  0.0000000000000D+00
   258  2.5700000000000D+00  0.0000000000000D+00  0.0000000000000D+00
   259  2.5800000000000D+00  0.0000000000000D+00  0.0000000000000D+00
   260  2.5900000000000D+00  0.0000000000000D+00  0.0000000000000D+00
   261  2.6000000000000D+00  0.0000000000000D+00  0.0000000000000D+00
   262  2.6100000000000D+00  0.0000000000000D+00  0.0000000000000D+00
   263  2.6200000000000D+00  0.0000000000000D+00  0.0000000000000D+00
   264  2.6300000000000D+00  0.0000000000000D+00  0.0000000000000D+00
   265  2.6400000000000D+00  0.0000000000000D+00  0.0000000000000D+00
   266  2.6500000000000D+00  0.0000000000000D+00  0.0000000000000D+00
   267  2.6600000000000D+00  0.0000000000000D+00  0.0000000000000D+00
   268  2.6700000000000D+00  0.0000000000000D+00  0.0000000000000D+00
   269  2.6800000000000D+00  0.0000000000000D+00  0.0000000000000D+00
   270  2.6900000000000D+00  0.0000000000000D+00  0.0000000000000D+00
   271  2.7000000000000D+00  0.0000000000000D+00  0.0000000000000D+00
   272  2.7100000000000D+00  0.0000000000000D+00  0.0000000000000D+00
   273  2.7200000000000D+00  0.0000000000000D+00  0.0000000000000D+00
   274  2.7300000000000D+00  0.0000000000000D+00  0.0000000000000D+00
   275  2.7400000000000D+00  0.0000000000000D+00  0.0000000000000D+00
   276  2.7500000000000D+00  0.0000000000000D+00  0.0000000000000D+00
   277  2.7600000000000D+00  0.0000000000000D+00  0.0000000000000D+00
   278  2.7700000000000D+00  0.0000000000000D+00  0.0000000000000D+00
   279  2.7800000000000D+00  0.0000000000000D+00  0.0000000000000D+00
   280  2.7900000000000D+00  0.0000000000000D+00  0.0000000000000D+00
   281  2.8000000000000D+00  0.0000000000000D+00  0.0000000000000D+00
   282  2.8100000000000D+00  0.0000000000000D+00  0.0000000000000D+00
   283  2.8200000000000D+00  0.0000000000000D+00  0.0000000000000D+00
   284  2.8300000000000D+00  0.0000000000000D+00  0.0000000000000D+00
   285  2.8400000000000D+00  0.0000000000000D+00  0.0000000000000D+00
   286  2.8500000000000D+00  0.0000000000000D+00  0.0000000000000D+00
   287  2.8600000000000D+00  0.0000000000000D+00  0.0000000000000D+00
   288  2.8700000000000D+00  0.0000000000000D+00  0.0000000000000D+00
   289  2.8800000000000D+00  0.0000000000000D+00  0.0000000000000D+00
   290  2.8900000000000D+00  0.0000000000000D+00  0.0000000000000D+00
   291  2.9000000000000D+00  0.0000000000000D+00  0.0000000000000D+00
   292  2.9100000000000D+00  0.0000000000000D+00  0.0000000000000D+00
   293  2.9200000000000D+00  0.0000000000000D+00  0.0000000000000D+00
   294  2.9300000000000D+00  0.0000000000000D+00  0.0000000000000D+00
   295  2.9400000000000D+00  0.0000000000000D+00  0.0000000000000D+00
   296  2.9500000000000D+00  0.0000000000000D+00  0.0000000000000D+00
   297  2.9600000000000D+00  0.0000000000000D+00  0.0000000000000D+00
   298  2.9700000000000D+00  0.0000000000000D+00  0.0000000000000D+00
   299  2.9800000000000D+00  0.0000000000000D+00  0.0000000000000D+00
   300  2.9900000000000D+00  0.0000000000000D+00  0.0000000000000D+00
   301  3.0000000000000D+00  0.0000000000000D+00  0.0000000000000D+00
   302  3.0100000000000D+00  0.0000000000000D+00  0.0000000000000D+00
   303  3.0200000000000D+00  0.0000000000000D+00  0.0000000000000D+00
   304  3.0300000000000D+00  0.0000000000000D+00  0.0000000000000D+00
   305  3.0400000000000D+00  0.0000000000000D+00  0.0000000000000D+00
   306  3.0500000000000D+00  0.0000000000000D+00  0.0000000000000D+00
   307  3.0600000000000D+00  0.0000000000000D+00  0.0000000000000D+00
   308  3.0700000000000D+00  0.0000000000000D+00  0.0000000000000D+00
   309  3.0800000000000D+00  0.0000000000000D+00  0.0000000000000D+00
   310  3.0900000000000D+00  0.0000000000000D+00  0.0000000000000D+00
   311  3.1000000000000D+00  0.0000000000000D+00  0.0000000000000D+00
   312  3.1100000000000D+00  0.0000000000000D+00  0.0000000000000D+00
   313  3.1200000000000D+00  0.0000000000000D+00  0.0000000000000D+00
   314  3.1300000000000D+00  0.0000000000000D+00  0.0000000000000D+00
   315  3.1400000000000D+00  0.0000000000000D+00  0.0000000000000D+00
   316  3.1500000000000D+00  0.0000000000000D+00  0.0000000000000D+00
   317  3.1600000000000D+00  0.0000000000000D+00  0.0000000000000D+00
   318  3.1700000000000D+00  0.0000000000000D+00  0.0000000000000D+00
   319  3.1800000000000D+00  0.0000000000000D+00  0.0000000000000D+00
   320  3.1900000000000D+00  0.0000000000000D+00  0.0000000000000D+00
   321  3.2000000000000D+00  0.0000000000000D+00  0.0000000000000D+00
   322  3.2100000000000D+00  0.0000000000000D+00  0.0000000000000D+00
   323  3.2200000000000D+00  0.0000000000000D+00  0.0000000000000D+00
   324  3.2300000000000D+00  0.0000000000000D+00  0.0000000000000D+00
   325  3.2400000000000D+00  0.0000000000000D+00  0.0000000000000D+00
   326  3.2500000000000D+00  0.0000000000000D+00  0.0000000000000D+00
   327  3.2600000000000D+00  0.0000000000000D+00  0.0000000000000D+00
   328  3.2700000000000D+00  0.0000000000000D+00  0.0000000000000D+00
   329  3.2800000000000D+00  0.0000000000000D+00  0.0000000000000D+00
   330  3.2900000000000D+00  0.0000000000000D+00  0.0000000000000D+00
   331  3.3000000000000D+00  0.0000000000000D+00  0.0000000000000D+00
   332  3.3100000000000D+00  0.0000000000000D+00  0.0000000000000D+00
   333  3.3200000000000D+00  0.0000000000000D+00  0.0000000000000D+00
   334  3.3300000000000D+00  0.0000000000000D+00  0.0000000000000D+00
   335  3.3400000000000D+00  0.0000000000000D+00  0.0000000000000D+00
   336  3.3500000000000D+00  0.0000000000000D+00  0.0000000000000D+00
   337  3.3600000000000D+00  0.0000000000000D+00  0.0000000000000D+00
   338  3.3700000000000D+00  0.0000000000000D+00  0.0000000000000D+00
   339  3.3800000000000D+00  0.0000000000000D+00  0.0000000000000D+00
   340  3.3900000000000D+00  0.0000000000000D+00  0.0000000000000D+00
   341  3.4000000000000D+00  0.0000000000000D+00  0.0000000000000D+00
   342  3.4100000000000D+00  0.0000000000000D+00  0.0000000000000D+00
   343  3.4200000000000D+00  0.0000000000000D+00  0.0000000000000D+00
   344  3.4300000000000D+00  0.0000000000000D+00  0.0000000000000D+00
   345  3.4400000000000D+00  0.0000000000000D+00  0.0000000000000D+00
   346  3.4500000000000D+00  0.0000000000000D+00  0.0000000000000D+00
   347  3.4600000000000D+00  0.0000000000000D+00  0.0000000000000D+00
   348  3.4700000000000D+00  0.0000000000000D+00  0.0000000000000D+00
   349  3.4800000000000D+00  0.0000000000000D+00  0.0000000000000D+00
   350  3.4900000000000D+00  0.0000000000000D+00  0.0000000000000D+00
   351  3.5000000000000D+00  0.0000000000000D+00  0.0000000000000D+00
   352  3.5100000000000D+00  0.0000000000000D+00  0.0000000000000D+00
   353  3.5200000000000D+00  0.0000000000000D+00  0.0000000000000D+00
   354  3.5300000000000D+00  0.0000000000000D+00  0.0000000000000D+00
   355  3.5400000000000D+00  0.0000000000000D+00  0.0000000000000D+00
   356  3.5500000000000D+00  0.0000000000000D+00  0.0000000000000D+00
   357  3.5600000000000D+00  0.0000000000000D+00  0.0000000000000D+00
   358  3.5700000000000D+00  0.0000000000000D+00  0.0000000000000D+00
   359  3.5800000000000D+00  0.0000000000000D+00  0.0000000000000D+00
   360  3.5900000000000D+00  0.0000000000000D+00  0.0000000000000D+00
   361  3.6000000000000D+00  0.0000000000000D+00  0.0000000000000D+00
   362  3.6100000000000D+00  0.0000000000000D+00  0.0000000000000D+00
   363  3.6200000000000D+00  0.0000000000000D+00  0.0000000000000D+00
   364  3.6300000000000D+00  0.0000000000000D+00  0.0000000000000D+00
   365  3.6400000000000D+00  0.0000000000000D+00  0.0000000000000D+00
   366  3.6500000000000D+00  0.0000000000000D+00  0.0000000000000D+00
   367  3.6600000000000D+00  0.0000000000000D+00  0.0000000000000D+00
   368  3.6700000000000D+00  0.0000000000000D+00  0.0000000000000D+00
   369  3.6800000000000D+00  0.0000000000000D+00  0.0000000000000D+00
   370  3.6900000000000D+00  0.0000000000000D+00  0.0000000000000D+00
   371  3.7000000000000D+00  0.0000000000000D+00  0.0000000000000D+00
   372  3.7100000000000D+00  0.0000000000000D+00  0.0000000000000D+00
   373  3.7200000000000D+00  0.0000000000000D+00  0.0000000000000D+00
   374  3.7300000000000D+00  0.0000000000000D+00  0.0000000000000D+00
   375  3.7400000000000D+00  0.0000000000000D+00  0.0000000000000D+00
   376  3.7500000000000D+00  0.0000000000000D+00  0.0000000000000D+00
   377  3.7600000000000D+00  0.0000000000000D+00  0.0000000000000D+00
   378  3.7700000000000D+00  0.0000000000000D+00  0.0000000000000D+00
   379  3.7800000000000D+00  0.0000000000000D+00  0.0000000000000D+00
   380  3.7900000000000D+00  0.0000000000000D+00  0.0000000000000D+00
   381  3.8000000000000D+00  0.0000000000000D+00  0.0000000000000D+00
   382  3.8100000000000D+00  0.0000000000000D+00  0.0000000000000D+00
   383  3.8200000000000D+00  0.0000000000000D+00  0.0000000000000D+00
   384  3.8300000000000D+00  0.0000000000000D+00  0.0000000000000D+00
   385  3.8400000000000D+00  0.0000000000000D+00  0.0000000000000D+00
   386  3.8500000000000D+00  0.0000000000000D+00  0.0000000000000D+00
   387  3.8600000000000D+00  0.0000000000000D+00  0.0000000000000D+00
   388  3.8700000000000D+00  0.0000000000000D+00  0.0000000000000D+00
   389  3.8800000000000D+00  0.0000000000000D+00  0.0000000000000D+00
   390  3.8900000000000D+00  0.0000000000000D+00  0.0000000000000D+00
   391  3.9000000000000D+00  0.0000000000000D+00  0.0000000000000D+00
   392  3.9100000000000D+00  0.0000000000000D+00  0.0000000000000D+00
   393  3.9200000000000D+00  0.0000000000000D+00  0.0000000000000D+00
   394  3.9300000000000D+00  0.0000000000000D+00  0.0000000000000D+00
   395  3.9400000000000D+00  0.0000000000000D+00  0.0000000000000D+00
   396  3.9500000000000D+00  0.0000000000000D+00  0.0000000000000D+00
   397  3.9600000000000D+00  0.0000000000000D+00  0.0000000000000D+00
   398  3.9700000000000D+00  0.0000000000000D+00  0.0000000000000D+00
   399  3.9800000000000D+00  0.0000000000000D+00  0.0000000000000D+00
   400  3.9900000000000D+00  0.0000000000000D+00  0.0000000000000D+00
   401  4.0000000000000D+00  0.0000000000000D+00  0.0000000000000D+00
   402  4.0100000000000D+00  0.0000000000000D+00  0.0000000000000D+00
   403  4.0200000000000D+00  0.0000000000000D+00  0.0000000000000D+00
   404  4.0300000000000D+00  0.0000000000000D+00  0.0000000000000D+00
   405  4.0400000000000D+00  0.0000000000000D+00  0.0000000000000D+00
   406  4.0500000000000D+00  0.0000000000000D+00  0.0000000000000D+00
   407  4.0600000000000D+00  0.0000000000000D+00  0.0000000000000D+00
   408  4.0700000000000D+00  0.0000000000000D+00  0.0000000000000D+00
   409  4.0800000000000D+00  0.0000000000000D+00  0.0000000000000D+00
   410  4.0900000000000D+00  0.0000000000000D+00  0.0000000000000D+00
   411  4.1000000000000D+00  0.0000000000000D+00  0.0000000000000D+00
   412  4.1100000000000D+00  0.0000000000000D+00  0.0000000000000D+00
   413  4.1200000000000D+00  0.0000000000000D+00  0.0000000000000D+00
   414  4.1300000000000D+00  0.0000000000000D+00  0.0000000000000D+00
   415  4.1400000000000D+00  0.0000000000000D+00  0.0000000000000D+00
   416  4.1500000000000D+00  0.0000000000000D+00  0.0000000000000D+00
   417  4.1600000000000D+00  0.0000000000000D+00  0.0000000000000D+00
   418  4.1700000000000D+00  0.0000000000000D+00  0.0000000000000D+00
   419  4.1800000000000D+00  0.0000000000000D+00  0.0000000000000D+00
   420  4.1900000000000D+00  0.0000000000000D+00  0.0000000000000D+00
   421  4.2000000000000D+00  0.0000000000000D+00  0.0000000000000D+00
   422  4.2100000000000D+00  0.0000000000000D+00  0.0000000000000D+00