P     ONCVPSP-3.3.1  r_core=   2.62098   1.72641
     15.0000      5.0000      210905    zatom,zion,pspd
     8 -116133   1     4   600     0    pspcod,pspxc,lmax,lloc,mmax,r2well
  5.99000000  0.00000000  0.00000000    rchrg fchrg qchrg
     2     2     0     0     0    nproj
     1     1           extension_switch
   0                         7.8788876637261D+00  4.4663295057303D-01
     1  0.0000000000000D+00  1.9407031537355D-11  1.4480305843279D-11
     2  1.0000000000000D-02  3.4967045863342D-02 -4.5762786375108D-02
     3  2.0000000000000D-02  6.9926086056180D-02 -9.1392769821802D-02
     4  3.0000000000000D-02  1.0486898377200D-01 -1.3675752009129D-01
     5  4.0000000000000D-02  1.3978734086129D-01 -1.8172535127202D-01
     6  5.0000000000000D-02  1.7467236947777D-01 -2.2616569140694D-01
     7  6.0000000000000D-02  2.0951476649206D-01 -2.6994944905968D-01
     8  7.0000000000000D-02  2.4430459157265D-01 -3.1294937582982D-01
     9  8.0000000000000D-02  2.7903114981449D-01 -3.5504042383192D-01
    10  9.0000000000000D-02  3.1368287977131D-01 -3.9610009717145D-01
    11  1.0000000000000D-01  3.4824724771935D-01 -4.3600879647120D-01
    12  1.1000000000000D-01  3.8271064894696D-01 -4.7465015552668D-01
    13  1.2000000000000D-01  4.1705831682681D-01 -5.1191136919543D-01
    14  1.3000000000000D-01  4.5127424038621D-01 -5.4768351165506D-01
    15  1.4000000000000D-01  4.8534109104515D-01 -5.8186184419632D-01
    16  1.5000000000000D-01  5.1924015914238D-01 -6.1434611175145D-01
    17  1.6000000000000D-01  5.5295130081689D-01 -6.4504082739310D-01
    18  1.7000000000000D-01  5.8645289575576D-01 -6.7385554407631D-01
    19  1.8000000000000D-01  6.1972181626021D-01 -7.0070511293312D-01
    20  1.9000000000000D-01  6.5273340801924D-01 -7.2550992746826D-01
    21  2.0000000000000D-01  6.8546148291558D-01 -7.4819615304297D-01
    22  2.1000000000000D-01  7.1787832412195D-01 -7.6869594107242D-01
    23  2.2000000000000D-01  7.4995470367618D-01 -7.8694762740144D-01
    24  2.3000000000000D-01  7.8165991265384D-01 -8.0289591436012D-01
    25  2.4000000000000D-01  8.1296180398462D-01 -8.1649203603912D-01
    26  2.5000000000000D-01  8.4382684788624D-01 -8.2769390635934D-01
    27  2.6000000000000D-01  8.7422019981616D-01 -8.3646624954611D-01
    28  2.7000000000000D-01  9.0410578076749D-01 -8.4278071265054D-01
    29  2.8000000000000D-01  9.3344636966215D-01 -8.4661595979266D-01
    30  2.9000000000000D-01  9.6220370752094D-01 -8.4795774782993D-01
    31  3.0000000000000D-01  9.9033861301791D-01 -8.4679898318308D-01
    32  3.1000000000000D-01  1.0178111089551D+00 -8.4313975957662D-01
    33  3.2000000000000D-01  1.0445805591242D+00 -8.3698737647513D-01
    34  3.3000000000000D-01  1.0706058149540D+00 -8.2835633801891D-01
    35  3.4000000000000D-01  1.0958453712760D+00 -8.1726833228224D-01
    36  3.5000000000000D-01  1.1202575304795D+00 -8.0375219069628D-01
    37  3.6000000000000D-01  1.1438005742657D+00 -7.8784382749571D-01
    38  3.7000000000000D-01  1.1664329421541D+00 -7.6958615906423D-01
    39  3.8000000000000D-01  1.1881134158418D+00 -7.4902900306899D-01
    40  3.9000000000000D-01  1.2088013084679D+00 -7.2622895728842D-01
    41  4.0000000000000D-01  1.2284566577874D+00 -7.0124925805215D-01
    42  4.1000000000000D-01  1.2470404222226D+00 -6.7415961822668D-01
    43  4.2000000000000D-01  1.2645146787203D+00 -6.4503604469506D-01
    44  4.3000000000000D-01  1.2808428213171D+00 -6.1396063529586D-01
    45  4.4000000000000D-01  1.2959897592848D+00 -5.8102135520453D-01
    46  4.5000000000000D-01  1.3099221137138D+00 -5.4631179276126D-01
    47  4.6000000000000D-01  1.3226084113724D+00 -5.0993089477231D-01
    48  4.7000000000000D-01  1.3340192746784D+00 -4.7198268133954D-01
    49  4.8000000000000D-01  1.3441276066118D+00 -4.3257594030338D-01
    50  4.9000000000000D-01  1.3529087694045D+00 -3.9182390142062D-01
    51  5.0000000000000D-01  1.3603407558547D+00 -3.4984389044017D-01
    52  5.1000000000000D-01  1.3664043521262D+00 -3.0675696328657D-01
    53  5.2000000000000D-01  1.3710832909216D+00 -2.6268752061599D-01
    54  5.3000000000000D-01  1.3743643939438D+00 -2.1776290307001D-01
    55  5.4000000000000D-01  1.3762377025998D+00 -1.7211296762257D-01
    56  5.5000000000000D-01  1.3766965959411D+00 -1.2586964549225D-01
    57  5.6000000000000D-01  1.3757378948863D+00 -7.9166482179302D-02
    58  5.7000000000000D-01  1.3733619518241D+00 -3.2138160282618D-02
    59  5.8000000000000D-01  1.3695727247602D+00  1.5079994142605D-02
    60  5.9000000000000D-01  1.3643778352360D+00  6.2352520809343D-02
    61  6.0000000000000D-01  1.3577886093205D+00  1.0954434900206D-01
    62  6.1000000000000D-01  1.3498201010594D+00  1.5652133481786D-01
    63  6.2000000000000D-01  1.3404910978436D+00  2.0315081055730D-01
    64  6.3000000000000D-01  1.3298241072551D+00  2.4930214481609D-01
    65  6.4000000000000D-01  1.3178453250379D+00  2.9484731166023D-01
    66  6.5000000000000D-01  1.3045845839419D+00  3.3966146708549D-01
    67  6.6000000000000D-01  1.2900752832910D+00  3.8362353077018D-01
    68  6.7000000000000D-01  1.2743542992327D+00  4.2661677092804D-01
    69  6.8000000000000D-01  1.2574618757354D+00  4.6852938985668D-01
    70  6.9000000000000D-01  1.2394414965148D+00  5.0925510755329D-01
    71  7.0000000000000D-01  1.2203397381829D+00  5.4869374053926D-01
    72  7.1000000000000D-01  1.2002061050340D+00  5.8675177279627D-01
    73  7.2000000000000D-01  1.1790928459973D+00  6.2334291546788D-01
    74  7.3000000000000D-01  1.1570547544093D+00  6.5838865172735D-01
    75  7.4000000000000D-01  1.1341489513767D+00  6.9181876295201D-01
    76  7.5000000000000D-01  1.1104346536218D+00  7.2357183207993D-01
    77  7.6000000000000D-01  1.0859729268245D+00  7.5359571975467D-01
    78  7.7000000000000D-01  1.0608264255912D+00  7.8184800859467D-01
    79  7.8000000000000D-01  1.0350591212990D+00  8.0829641064872D-01
    80  7.9000000000000D-01  1.0087360191810D+00  8.3291913282800D-01
    81  8.0000000000000D-01  9.8192286612900D-01  8.5570519483305D-01
    82  8.1000000000000D-01  9.5468585079980D-01  8.7665469382630D-01
    83  8.2000000000000D-01  9.2709129771904D-01  8.9577900983645D-01
    84  8.3000000000000D-01  8.9920535717570D-01  9.1310094562373D-01
    85  8.4000000000000D-01  8.7109369279951D-01  9.2865479448394D-01
    86  8.5000000000000D-01  8.4282116880416D-01  9.4248632922919D-01
    87  8.6000000000000D-01  8.1445153896593D-01  9.5465270535261D-01
    88  8.7000000000000D-01  7.8604713948730D-01  9.6522227116674D-01
    89  8.8000000000000D-01  7.5766858796843D-01  9.7427427750224D-01
    90  8.9000000000000D-01  7.2937449077630D-01  9.8189847936582D-01
    91  9.0000000000000D-01  7.0122116116003D-01  9.8819462178627D-01
    92  9.1000000000000D-01  6.7326235051287D-01  9.9327180192661D-01
    93  9.2000000000000D-01  6.4554899522423D-01  9.9724769940936D-01
    94  9.3000000000000D-01  6.1812898160080D-01  1.0002476666939D+00
    95  9.4000000000000D-01  5.9104693136165D-01  1.0024036712600D+00
    96  9.5000000000000D-01  5.6434401023057D-01  1.0038530812895D+00
    97  9.6000000000000D-01  5.3805776215682D-01  1.0047372865076D+00
    98  9.7000000000000D-01  5.1222197169544D-01  1.0052001458332D+00
    99  9.8000000000000D-01  4.8686655706846D-01  1.0053862535120D+00
   100  9.9000000000000D-01  4.6201749640879D-01  1.0054390154561D+00
   101  1.0000000000000D+00  4.3769678966028D-01  1.0054985275908D+00
   102  1.0100000000000D+00  4.1392245856963D-01  1.0056992481239D+00
   103  1.0200000000000D+00  3.9070858715843D-01  1.0061674557914D+00
   104  1.0300000000000D+00  3.6806540500583D-01  1.0070184863105D+00
   105  1.0400000000000D+00  3.4599941560970D-01  1.0083537394701D+00
   106  1.0500000000000D+00  3.2451357201703D-01  1.0102574495292D+00
   107  1.0600000000000D+00  3.0360750183134D-01  1.0127932118646D+00
   108  1.0700000000000D+00  2.8327778361454D-01  1.0160002591036D+00
   109  1.0800000000000D+00  2.6351827600550D-01  1.0198894701752D+00
   110  1.0900000000000D+00  2.4432050424724D-01  1.0244391388598D+00
   111  1.1000000000000D+00  2.2567410617493D-01  1.0295906046094D+00
   112  1.1100000000000D+00  2.0756730601413D-01  1.0352429225615D+00
   113  1.1200000000000D+00  1.8998763720965D-01  1.0412506122617D+00
   114  1.1300000000000D+00  1.7292309397571D-01  1.0474285765301D+00
   115  1.1400000000000D+00  1.5636379551403D-01  1.0535727320551D+00
   116  1.1500000000000D+00  1.4030283986683D-01  1.0594748861141D+00
   117  1.1600000000000D+00  1.2473646346425D-01  1.0649324757563D+00
   118  1.1700000000000D+00  1.0966400959149D-01  1.0697584621542D+00
   119  1.1800000000000D+00  9.5087575427518D-02  1.0737882275966D+00
   120  1.1900000000000D+00  8.1011471650951D-02  1.0768839357858D+00
   121  1.2000000000000D+00  6.7441573505574D-02  1.0789364178928D+00
   122  1.2100000000000D+00  5.4384648196091D-02  1.0798649299770D+00
   123  1.2200000000000D+00  4.1847720895489D-02  1.0796153323669D+00
   124  1.2300000000000D+00  2.9837518446959D-02  1.0781571862707D+00
   125  1.2400000000000D+00  1.8360017567020D-02  1.0754802569603D+00
   126  1.2500000000000D+00  7.4201042053701D-03  1.0715908645518D+00
   127  1.2600000000000D+00 -2.9786641264939D-03  1.0665083422868D+00
   128  1.2700000000000D+00 -1.2834202020090D-02  1.0602618233638D+00
   129  1.2800000000000D+00 -2.2145964036568D-02  1.0528874854057D+00
   130  1.2900000000000D+00 -3.0914953419055D-02  1.0444262566105D+00
   131  1.3000000000000D+00 -3.9143686478849D-02  1.0349220031128D+00
   132  1.3100000000000D+00 -4.6836128349545D-02  1.0244201485734D+00
   133  1.3200000000000D+00 -5.3997608936447D-02  1.0129666623691D+00
   134  1.3300000000000D+00 -6.0634728950818D-02  1.0006073625717D+00
   135  1.3400000000000D+00 -6.6755262301846D-02  9.8738746085369D-01
   136  1.3500000000000D+00 -7.2368057867406D-02  9.7335130233225D-01
   137  1.3600000000000D+00 -7.7482944900780D-02  9.5854224311077D-01
   138  1.3700000000000D+00 -8.2110642677158D-02  9.4300262764075D-01
   139  1.3800000000000D+00 -8.6262675291192D-02  9.2677383826962D-01
   140  1.3900000000000D+00 -8.9951292337921D-02  9.0989638035700D-01
   141  1.4000000000000D+00 -9.3189394655719D-02  8.9240999595206D-01
   142  1.4100000000000D+00 -9.5990465284818D-02  8.7435378438026D-01
   143  1.4200000000000D+00 -9.8368504924414D-02  8.5576632136671D-01
   144  1.4300000000000D+00 -1.0033797151484D-01  8.3668577263376D-01
   145  1.4400000000000D+00 -1.0191372336605D-01  8.1714999250787D-01
   146  1.4500000000000D+00 -1.0311096544483D-01  7.9719660966945D-01
   147  1.4600000000000D+00 -1.0394519837112D-01  7.7686309543442D-01
   148  1.4700000000000D+00 -1.0443216973616D-01  7.5618681533163D-01
   149  1.4800000000000D+00 -1.0458782753115D-01  7.3520506415809D-01
   150  1.4900000000000D+00 -1.0442827527258D-01  7.1395508436603D-01
   151  1.5000000000000D+00 -1.0396972880322D-01  6.9247406961452D-01
   152  1.5100000000000D+00 -1.0322847442878D-01  6.7079915375296D-01
   153  1.5200000000000D+00 -1.0222082840128D-01  6.4896738700511D-01
   154  1.5300000000000D+00 -1.0096309757684D-01  6.2701570028565D-01
   155  1.5400000000000D+00 -9.9471541216873D-02  6.0498085915024D-01
   156  1.5500000000000D+00 -9.7762333914182D-02  5.8289940852864D-01
   157  1.5600000000000D+00 -9.5851529582326D-02  5.6080760970272D-01
   158  1.5700000000000D+00 -9.3755026587092D-02  5.3874137054402D-01
   159  1.5800000000000D+00 -9.1488533958011D-02  5.1673617055281D-01
   160  1.5900000000000D+00 -8.9067538796758D-02  4.9482698146924D-01
   161  1.6000000000000D+00 -8.6507274853323D-02  4.7304818502054D-01
   162  1.6100000000000D+00 -8.3822692377206D-02  4.5143348840904D-01
   163  1.6200000000000D+00 -8.1028429259031D-02  4.3001583898188D-01
   164  1.6300000000000D+00 -7.8138783546216D-02  4.0882733862243D-01
   165  1.6400000000000D+00 -7.5167687378118D-02  3.8789915910135D-01
   166  1.6500000000000D+00 -7.2128682405703D-02  3.6726145888861D-01
   167  1.6600000000000D+00 -6.9034896752312D-02  3.4694330244976D-01
   168  1.6700000000000D+00 -6.5899023567037D-02  3.2697258248199D-01
   169  1.6800000000000D+00 -6.2733301225955D-02  3.0737594591642D-01
   170  1.6900000000000D+00 -5.9549495219995D-02  2.8817872407142D-01
   171  1.7000000000000D+00 -5.6358881777696D-02  2.6940486762370D-01
   172  1.7100000000000D+00 -5.3172233245710D-02  2.5107688667509D-01
   173  1.7200000000000D+00 -4.9999805268543D-02  2.3321579647220D-01
   174  1.7300000000000D+00 -4.6851325768070D-02  2.1584106890816D-01
   175  1.7400000000000D+00 -4.3735985762528D-02  1.9897059031176D-01
   176  1.7500000000000D+00 -4.0662431994549D-02  1.8262062545948D-01
   177  1.7600000000000D+00 -3.7638761414013D-02  1.6680578832275D-01
   178  1.7700000000000D+00 -3.4672517445212D-02  1.5153901925132D-01
   179  1.7800000000000D+00 -3.1770688098962D-02  1.3683156916610D-01
   180  1.7900000000000D+00 -2.8939705811278D-02  1.2269299019593D-01
   181  1.8000000000000D+00 -2.6185449091316D-02  1.0913113343271D-01
   182  1.8100000000000D+00 -2.3513245808993D-02  9.6152152964367D-02
   183  1.8200000000000D+00 -2.0927878225621D-02  8.3760516953760D-02
   184  1.8300000000000D+00 -1.8433589563279D-02  7.1959024744100D-02
   185  1.8400000000000D+00 -1.6034092205825D-02  6.0748830682362D-02
   186  1.8500000000000D+00 -1.3732577338531D-02  5.0129473716409D-02
   187  1.8600000000000D+00 -1.1531726063871D-02  4.0098913137352D-02
   188  1.8700000000000D+00 -9.4337218498298D-03  3.0653569803511D-02
   189  1.8800000000000D+00 -7.4402642740640D-03  2.1788372798772D-02
   190  1.8900000000000D+00 -5.5525839768641D-03  1.3496811181889D-02
   191  1.9000000000000D+00 -3.7714587187552D-03  5.7709903891383D-03
   192  1.9100000000000D+00 -2.0972305003937D-03 -1.3983067826361D-03
   193  1.9200000000000D+00 -5.2982359725284D-04 -8.0215553308431D-03
   194  1.9300000000000D+00  9.3123651941354D-04 -1.4110419292922D-02
   195  1.9400000000000D+00  2.2868035207294D-03 -1.9677679836109D-02
   196  1.9500000000000D+00  3.5380898780984D-03 -2.4737160303638D-02
   197  1.9600000000000D+00  4.6866459479293D-03 -2.9303648755460D-02
   198  1.9700000000000D+00  5.7343385796505D-03 -3.3392818364410D-02
   199  1.9800000000000D+00  6.6833293396686D-03 -3.7021146050178D-02
   200  1.9900000000000D+00  7.5360524339984D-03 -4.0205829758844D-02
   201  2.0000000000000D+00  8.2951924604382D-03 -4.2964704857540D-02
   202  2.0100000000000D+00  8.9636620186310D-03 -4.5316159871105D-02
   203  2.0200000000000D+00  9.5445793476884D-03 -4.7279052202535D-02
   204  2.0300000000000D+00  1.0041246010788D-02 -4.8872623984735D-02
   205  2.0400000000000D+00  1.0457124741739D-02 -5.0116418547535D-02
   206  2.0500000000000D+00  1.0795817577891D-02 -5.1030198023470D-02
   207  2.0600000000000D+00  1.1061044232661D-02 -5.1633861946810D-02
   208  2.0700000000000D+00  1.1256620981567D-02 -5.1947367982700D-02
   209  2.0800000000000D+00  1.1386439929418D-02 -5.1990654269761D-02
   210  2.0900000000000D+00  1.1454448866699D-02 -5.1783564264712D-02
   211  2.1000000000000D+00  1.1464631769243D-02 -5.1345774337526D-02
   212  2.1100000000000D+00  1.1420989858309D-02 -5.0696723771487D-02
   213  2.1200000000000D+00  1.1327523548669D-02 -4.9855548604541D-02
   214  2.1300000000000D+00  1.1188215035606D-02 -4.8841018227192D-02
   215  2.1400000000000D+00  1.1007011775673D-02 -4.7671475870092D-02
   216  2.1500000000000D+00  1.0787810882605D-02 -4.6364783084125D-02
   217  2.1600000000000D+00  1.0534444269758D-02 -4.4938267453573D-02
   218  2.1700000000000D+00  1.0250664945059D-02 -4.3408675386683D-02
   219  2.1800000000000D+00  9.9401341039104D-03 -4.1792128369121D-02
   220  2.1900000000000D+00  9.6064092512531D-03 -4.0104083738804D-02
   221  2.2000000000000D+00  9.2529334160018D-03 -3.8359300276529D-02
   222  2.2100000000000D+00  8.8830251916141D-03 -3.6571807374713D-02
   223  2.2200000000000D+00  8.4998699865642D-03 -3.4754879574581D-02
   224  2.2300000000000D+00  8.1065122019675D-03 -3.2921015147795D-02
   225  2.2400000000000D+00  7.7058483558911D-03 -3.1081918810240D-02
   226  2.2500000000000D+00  7.3006213883994D-03 -2.9248489677161D-02
   227  2.2600000000000D+00  6.8934157774842D-03 -2.7430812710530D-02
   228  2.2700000000000D+00  6.4866537079604D-03 -2.5638154795081D-02
   229  2.2800000000000D+00  6.0825922410555D-03 -2.3878965210496D-02
   230  2.2900000000000D+00  5.6833212227206D-03 -2.2160879190973D-02
   231  2.3000000000000D+00  5.2907622877825D-03 -2.0490726420958D-02
   232  2.3100000000000D+00  4.9066686266050D-03 -1.8874542740847D-02
   233  2.3200000000000D+00  4.5326255110555D-03 -1.7317585142724D-02
   234  2.3300000000000D+00  4.1700516968246D-03 -1.5824350429074D-02
   235  2.3400000000000D+00  3.8202014538055D-03 -1.4398596536356D-02
   236  2.3500000000000D+00  3.4841672850084D-03 -1.3043366741292D-02
   237  2.3600000000000D+00  3.1628833604295D-03 -1.1761016957459D-02
   238  2.3700000000000D+00  2.8571294055183D-03 -1.0553244695390D-02
   239  2.3800000000000D+00  2.5675351871686D-03 -9.4211205813163D-03
   240  2.3900000000000D+00  2.2945854708433D-03 -8.3651217174363D-03
   241  2.4000000000000D+00  2.0386253938598D-03 -7.3851667335919D-03
   242  2.4100000000000D+00  1.7998661168324D-03 -6.4806515138482D-03
   243  2.4200000000000D+00  1.5783907846319D-03 -5.6504860695529D-03
   244  2.4300000000000D+00  1.3741607082413D-03 -4.8931319502075D-03
   245  2.4400000000000D+00  1.1870217455668D-03 -4.2066403734540D-03
   246  2.4500000000000D+00  1.0167107763510D-03 -3.5886902962550D-03
   247  2.4600000000000D+00  8.6286229280052D-04 -3.0366265683243D-03
   248  2.4700000000000D+00  7.2501490049750D-04 -2.5474973132174D-03
   249  2.4800000000000D+00  6.0261780532412D-04 -2.1180907387779D-03
   250  2.4900000000000D+00  4.9503732185422D-04 -1.7449717032848D-03
   251  2.5000000000000D+00  4.0156296165985D-04 -1.4245156417088D-03
   252  2.5100000000000D+00  3.2141346603602D-04 -1.1529418755997D-03
   253  2.5200000000000D+00  2.5374267196414D-04 -9.2634561210566D-04
   254  2.5300000000000D+00  1.9765269457006D-04 -7.4077824092025D-04
   255  2.5400000000000D+00  1.5222276805798D-04 -5.9242971792808D-04
   256  2.5500000000000D+00  1.1634044822799D-04 -4.7652041857766D-04
   257  2.5600000000000D+00  8.8888550771893D-05 -3.8854725590800D-04
   258  2.5700000000000D+00  6.8416914541840D-05 -3.2232732005461D-04
   259  2.5800000000000D+00  5.4792279968335D-05 -2.7970918121255D-04
   260  2.5900000000000D+00  4.7110952016408D-05 -2.5824463372645D-04
   261  2.6000000000000D+00  4.5523673499185D-05 -2.6154478932865D-04
   262  2.6100000000000D+00  4.4677349092033D-05 -2.6185166631968D-04
   263  2.6200000000000D+00  4.1130227101175D-05 -2.4207844571938D-04
   264  2.6300000000000D+00  2.9960045602635D-05 -1.7640975643857D-04
   265  2.6400000000000D+00  1.5769442555765D-05 -9.2734771377681D-05
   266  2.6500000000000D+00  2.6127542328959D-06 -1.5335091699759D-05
   267  2.6600000000000D+00 -3.5212830785050D-06  2.0821775108012D-05
   268  2.6700000000000D+00 -3.9673116252323D-06  2.3457923963618D-05
   269  2.6800000000000D+00 -1.4019592527029D-06  8.2881535694292D-06
   270  2.6900000000000D+00  5.8789447711957D-07 -3.4922008071224D-06
   271  2.7000000000000D+00  9.4629425723651D-07 -5.6235825234244D-06
   272  2.7100000000000D+00  5.0998583836130D-07 -3.0318129634140D-06
   273  2.7200000000000D+00 -4.4201232156783D-08  2.6013933992548D-07
   274  2.7300000000000D+00 -1.1307270384646D-07  6.6547146101881D-07
   275  2.7400000000000D+00 -8.4057529256720D-08  4.9470725383962D-07
   276  2.7500000000000D+00  0.0000000000000D+00  0.0000000000000D+00
   277  2.7600000000000D+00  0.0000000000000D+00  0.0000000000000D+00
   278  2.7700000000000D+00  0.0000000000000D+00  0.0000000000000D+00
   279  2.7800000000000D+00  0.0000000000000D+00  0.0000000000000D+00
   280  2.7900000000000D+00  0.0000000000000D+00  0.0000000000000D+00
   281  2.8000000000000D+00  0.0000000000000D+00  0.0000000000000D+00
   282  2.8100000000000D+00  0.0000000000000D+00  0.0000000000000D+00
   283  2.8200000000000D+00  0.0000000000000D+00  0.0000000000000D+00
   284  2.8300000000000D+00  0.0000000000000D+00  0.0000000000000D+00
   285  2.8400000000000D+00  0.0000000000000D+00  0.0000000000000D+00
   286  2.8500000000000D+00  0.0000000000000D+00  0.0000000000000D+00
   287  2.8600000000000D+00  0.0000000000000D+00  0.0000000000000D+00
   288  2.8700000000000D+00  0.0000000000000D+00  0.0000000000000D+00
   289  2.8800000000000D+00  0.0000000000000D+00  0.0000000000000D+00
   290  2.8900000000000D+00  0.0000000000000D+00  0.0000000000000D+00
   291  2.9000000000000D+00  0.0000000000000D+00  0.0000000000000D+00
   292  2.9100000000000D+00  0.0000000000000D+00  0.0000000000000D+00
   293  2.9200000000000D+00  0.0000000000000D+00  0.0000000000000D+00
   294  2.9300000000000D+00  0.0000000000000D+00  0.0000000000000D+00
   295  2.9400000000000D+00  0.0000000000000D+00  0.0000000000000D+00
   296  2.9500000000000D+00  0.0000000000000D+00  0.0000000000000D+00
   297  2.9600000000000D+00  0.0000000000000D+00  0.0000000000000D+00
   298  2.9700000000000D+00  0.0000000000000D+00  0.0000000000000D+00
   299  2.9800000000000D+00  0.0000000000000D+00  0.0000000000000D+00
   300  2.9900000000000D+00  0.0000000000000D+00  0.0000000000000D+00
   301  3.0000000000000D+00  0.0000000000000D+00  0.0000000000000D+00
   302  3.0100000000000D+00  0.0000000000000D+00  0.0000000000000D+00
   303  3.0200000000000D+00  0.0000000000000D+00  0.0000000000000D+00
   304  3.0300000000000D+00  0.0000000000000D+00  0.0000000000000D+00
   305  3.0400000000000D+00  0.0000000000000D+00  0.0000000000000D+00
   306  3.0500000000000D+00  0.0000000000000D+00  0.0000000000000D+00
   307  3.0600000000000D+00  0.0000000000000D+00  0.0000000000000D+00
   308  3.0700000000000D+00  0.0000000000000D+00  0.0000000000000D+00
   309  3.0800000000000D+00  0.0000000000000D+00  0.0000000000000D+00
   310  3.0900000000000D+00  0.0000000000000D+00  0.0000000000000D+00
   311  3.1000000000000D+00  0.0000000000000D+00  0.0000000000000D+00
   312  3.1100000000000D+00  0.0000000000000D+00  0.0000000000000D+00
   313  3.1200000000000D+00  0.0000000000000D+00  0.0000000000000D+00
   314  3.1300000000000D+00  0.0000000000000D+00  0.0000000000000D+00
   315  3.1400000000000D+00  0.0000000000000D+00  0.0000000000000D+00
   316  3.1500000000000D+00  0.0000000000000D+00  0.0000000000000D+00
   317  3.1600000000000D+00  0.0000000000000D+00  0.0000000000000D+00
   318  3.1700000000000D+00  0.0000000000000D+00  0.0000000000000D+00
   319  3.1800000000000D+00  0.0000000000000D+00  0.0000000000000D+00
   320  3.1900000000000D+00  0.0000000000000D+00  0.0000000000000D+00
   321  3.2000000000000D+00  0.0000000000000D+00  0.0000000000000D+00
   322  3.2100000000000D+00  0.0000000000000D+00  0.0000000000000D+00
   323  3.2200000000000D+00  0.0000000000000D+00  0.0000000000000D+00
   324  3.2300000000000D+00  0.0000000000000D+00  0.0000000000000D+00
   325  3.2400000000000D+00  0.0000000000000D+00  0.0000000000000D+00
   326  3.2500000000000D+00  0.0000000000000D+00  0.0000000000000D+00
   327  3.2600000000000D+00  0.0000000000000D+00  0.0000000000000D+00
   328  3.2700000000000D+00  0.0000000000000D+00  0.0000000000000D+00
   329  3.2800000000000D+00  0.0000000000000D+00  0.0000000000000D+00
   330  3.2900000000000D+00  0.0000000000000D+00  0.0000000000000D+00
   331  3.3000000000000D+00  0.0000000000000D+00  0.0000000000000D+00
   332  3.3100000000000D+00  0.0000000000000D+00  0.0000000000000D+00
   333  3.3200000000000D+00  0.0000000000000D+00  0.0000000000000D+00
   334  3.3300000000000D+00  0.0000000000000D+00  0.0000000000000D+00
   335  3.3400000000000D+00  0.0000000000000D+00  0.0000000000000D+00
   336  3.3500000000000D+00  0.0000000000000D+00  0.0000000000000D+00
   337  3.3600000000000D+00  0.0000000000000D+00  0.0000000000000D+00
   338  3.3700000000000D+00  0.0000000000000D+00  0.0000000000000D+00
   339  3.3800000000000D+00  0.0000000000000D+00  0.0000000000000D+00
   340  3.3900000000000D+00  0.0000000000000D+00  0.0000000000000D+00
   341  3.4000000000000D+00  0.0000000000000D+00  0.0000000000000D+00
   342  3.4100000000000D+00  0.0000000000000D+00  0.0000000000000D+00
   343  3.4200000000000D+00  0.0000000000000D+00  0.0000000000000D+00
   344  3.4300000000000D+00  0.0000000000000D+00  0.0000000000000D+00
   345  3.4400000000000D+00  0.0000000000000D+00  0.0000000000000D+00
   346  3.4500000000000D+00  0.0000000000000D+00  0.0000000000000D+00
   347  3.4600000000000D+00  0.0000000000000D+00  0.0000000000000D+00
   348  3.4700000000000D+00  0.0000000000000D+00  0.0000000000000D+00
   349  3.4800000000000D+00  0.0000000000000D+00  0.0000000000000D+00
   350  3.4900000000000D+00  0.0000000000000D+00  0.0000000000000D+00
   351  3.5000000000000D+00  0.0000000000000D+00  0.0000000000000D+00
   352  3.5100000000000D+00  0.0000000000000D+00  0.0000000000000D+00
   353  3.5200000000000D+00  0.0000000000000D+00  0.0000000000000D+00
   354  3.5300000000000D+00  0.0000000000000D+00  0.0000000000000D+00
   355  3.5400000000000D+00  0.0000000000000D+00  0.0000000000000D+00
   356  3.5500000000000D+00  0.0000000000000D+00  0.0000000000000D+00
   357  3.5600000000000D+00  0.0000000000000D+00  0.0000000000000D+00
   358  3.5700000000000D+00  0.0000000000000D+00  0.0000000000000D+00
   359  3.5800000000000D+00  0.0000000000000D+00  0.0000000000000D+00
   360  3.5900000000000D+00  0.0000000000000D+00  0.0000000000000D+00
   361  3.6000000000000D+00  0.0000000000000D+00  0.0000000000000D+00
   362  3.6100000000000D+00  0.0000000000000D+00  0.0000000000000D+00
   363  3.6200000000000D+00  0.0000000000000D+00  0.0000000000000D+00
   364  3.6300000000000D+00  0.0000000000000D+00  0.0000000000000D+00
   365  3.6400000000000D+00  0.0000000000000D+00  0.0000000000000D+00
   366  3.6500000000000D+00  0.0000000000000D+00  0.0000000000000D+00
   367  3.6600000000000D+00  0.0000000000000D+00  0.0000000000000D+00
   368  3.6700000000000D+00  0.0000000000000D+00  0.0000000000000D+00
   369  3.6800000000000D+00  0.0000000000000D+00  0.0000000000000D+00
   370  3.6900000000000D+00  0.0000000000000D+00  0.0000000000000D+00
   371  3.7000000000000D+00  0.0000000000000D+00  0.0000000000000D+00
   372  3.7100000000000D+00  0.0000000000000D+00  0.0000000000000D+00
   373  3.7200000000000D+00  0.0000000000000D+00  0.0000000000000D+00
   374  3.7300000000000D+00  0.0000000000000D+00  0.0000000000000D+00
   375  3.7400000000000D+00  0.0000000000000D+00  0.0000000000000D+00
   376  3.7500000000000D+00  0.0000000000000D+00  0.0000000000000D+00
   377  3.7600000000000D+00  0.0000000000000D+00  0.0000000000000D+00
   378  3.7700000000000D+00  0.0000000000000D+00  0.0000000000000D+00
   379  3.7800000000000D+00  0.0000000000000D+00  0.0000000000000D+00
   380  3.7900000000000D+00  0.0000000000000D+00  0.0000000000000D+00
   381  3.8000000000000D+00  0.0000000000000D+00  0.0000000000000D+00
   382  3.8100000000000D+00  0.0000000000000D+00  0.0000000000000D+00
   383  3.8200000000000D+00  0.0000000000000D+00  0.0000000000000D+00
   384  3.8300000000000D+00  0.0000000000000D+00  0.0000000000000D+00
   385  3.8400000000000D+00  0.0000000000000D+00  0.0000000000000D+00
   386  3.8500000000000D+00  0.0000000000000D+00  0.0000000000000D+00
   387  3.8600000000000D+00  0.0000000000000D+00  0.0000000000000D+00
   388  3.8700000000000D+00  0.0000000000000D+00  0.0000000000000D+00
   389  3.8800000000000D+00  0.0000000000000D+00  0.0000000000000D+00
   390  3.8900000000000D+00  0.0000000000000D+00  0.0000000000000D+00
   391  3.9000000000000D+00  0.0000000000000D+00  0.0000000000000D+00
   392  3.9100000000000D+00  0.0000000000000D+00  0.0000000000000D+00
   393  3.9200000000000D+00  0.0000000000000D+00  0.0000000000000D+00
   394  3.9300000000000D+00  0.0000000000000D+00  0.0000000000000D+00
   395  3.9400000000000D+00  0.0000000000000D+00  0.0000000000000D+00
   396  3.9500000000000D+00  0.0000000000000D+00  0.0000000000000D+00
   397  3.9600000000000D+00  0.0000000000000D+00  0.0000000000000D+00
   398  3.9700000000000D+00  0.0000000000000D+00  0.0000000000000D+00
   399  3.9800000000000D+00  0.0000000000000D+00  0.0000000000000D+00
   400  3.9900000000000D+00  0.0000000000000D+00  0.0000000000000D+00
   401  4.0000000000000D+00  0.0000000000000D+00  0.0000000000000D+00
   402  4.0100000000000D+00  0.0000000000000D+00  0.0000000000000D+00
   403  4.0200000000000D+00  0.0000000000000D+00  0.0000000000000D+00
   404  4.0300000000000D+00  0.0000000000000D+00  0.0000000000000D+00
   405  4.0400000000000D+00  0.0000000000000D+00  0.0000000000000D+00
   406  4.0500000000000D+00  0.0000000000000D+00  0.0000000000000D+00
   407  4.0600000000000D+00  0.0000000000000D+00  0.0000000000000D+00
   408  4.0700000000000D+00  0.0000000000000D+00  0.0000000000000D+00
   409  4.0800000000000D+00  0.0000000000000D+00  0.0000000000000D+00
   410  4.0900000000000D+00  0.0000000000000D+00  0.0000000000000D+00
   411  4.1000000000000D+00  0.0000000000000D+00  0.0000000000000D+00
   412  4.1100000000000D+00  0.0000000000000D+00  0.0000000000000D+00
   413  4.1200000000000D+00  0.0000000000000D+00  0.0000000000000D+00
   414  4.1300000000000D+00  0.0000000000000D+00  0.0000000000000D+00
   415  4.1400000000000D+00  0.0000000000000D+00  0.0000000000000D+00
   416  4.1500000000000D+00  0.0000000000000D+00  0.0000000000000D+00
   417  4.1600000000000D+00  0.0000000000000D+00  0.0000000000000D+00
   418  4.1700000000000D+00  0.0000000000000D+00  0.0000000000000D+00
   419  4.1800000000000D+00  0.0000000000000D+00  0.0000000000000D+00
   420  4.1900000000000D+00  0.0000000000000D+00  0.0000000000000D+00
   421  4.2000000000000D+00  0.0000000000000D+00  0.0000000000000D+00
   422  4.2100000000000D+00  0.0000000000000D+00  0.0000000000000D+00
   423  4.2200000000000D+00  0.0000000000000D+00  0.0000000000000D+00