Pd    ONCVPSP-3.3.1  r_core=   2.47094   2.44164   2.24604
     46.0000     18.0000      210905    zatom,zion,pspd
     8 -116133   2     4   600     0    pspcod,pspxc,lmax,lloc,mmax,r2well
  5.99000000  0.00000000  0.00000000    rchrg fchrg qchrg
     2     4     3     0    nproj
     3     1           extension_switch
     4     4     0    nprojso
   0                         8.5726643096438D-01  4.8494410151422D+00
     1  0.0000000000000D+00 -1.5509676876135D-12 -3.6376457401843D-12
     2  1.0000000000000D-02 -8.4218150121459D-03  5.7700387206159D-02
     3  2.0000000000000D-02 -1.6800819987244D-02  1.1530881740048D-01
     4  3.0000000000000D-02 -2.5094276427494D-02  1.7273351126167D-01
     5  4.0000000000000D-02 -3.3259588905187D-02  2.2988304447292D-01
     6  5.0000000000000D-02 -4.1254376576353D-02  2.8666652428349D-01
     7  6.0000000000000D-02 -4.9036544667641D-02  3.4299376494406D-01
     8  7.0000000000000D-02 -5.6564355925647D-02  3.9877546164469D-01
     9  8.0000000000000D-02 -6.3796502016378D-02  4.5392336258788D-01
    10  9.0000000000000D-02 -7.0692174860503D-02  5.0835043883356D-01
    11  1.0000000000000D-01 -7.7211137887714D-02  5.6197105155848D-01
    12  1.1000000000000D-01 -8.3313797190649D-02  6.1470111637841D-01
    13  1.2000000000000D-01 -8.8961272555707D-02  6.6645826438864D-01
    14  1.3000000000000D-01 -9.4115468344382D-02  7.1716199958621D-01
    15  1.4000000000000D-01 -9.8739144194720D-02  7.6673385234571D-01
    16  1.5000000000000D-01 -1.0279598550803D-01  8.1509752862986D-01
    17  1.6000000000000D-01 -1.0625067368111D-01  8.6217905462607D-01
    18  1.7000000000000D-01 -1.0906895603875D-01  9.0790691651086D-01
    19  1.8000000000000D-01 -1.1121771541591D-01  9.5221219505526D-01
    20  1.9000000000000D-01 -1.1266503933224D-01  9.9502869479629D-01
    21  2.0000000000000D-01 -1.1338028869551D-01  1.0362930675119D+00
    22  2.1000000000000D-01 -1.1333416596340D-01  1.0759449297495D+00
    23  2.2000000000000D-01 -1.1249878268545D-01  1.1139269741727D+00
    24  2.3000000000000D-01 -1.1084772633970D-01  1.1501850745027D+00
    25  2.4000000000000D-01 -1.0835612637004D-01  1.1846683838465D+00
    26  2.5000000000000D-01 -1.0500071932216D-01  1.2173294262189D+00
    27  2.6000000000000D-01 -1.0075991296710D-01  1.2481241810784D+00
    28  2.7000000000000D-01 -9.5613849292596D-02  1.2770121607139D+00
    29  2.8000000000000D-01 -8.9544466233142D-02  1.3039564803328D+00
    30  2.9000000000000D-01 -8.2535558000497D-02  1.3289239207191D+00
    31  3.0000000000000D-01 -7.4572833866702D-02  1.3518849833416D+00
    32  3.1000000000000D-01 -6.5643975242503D-02  1.3728139378132D+00
    33  3.2000000000000D-01 -5.5738690884279D-02  1.3916888616128D+00
    34  3.3000000000000D-01 -4.4848770053441D-02  1.4084916720013D+00
    35  3.4000000000000D-01 -3.2968133442842D-02  1.4232081500762D+00
    36  3.5000000000000D-01 -2.0092881675779D-02  1.4358279569274D+00
    37  3.6000000000000D-01 -6.2213411745900D-03  1.4463446418693D+00
    38  3.7000000000000D-01  8.6458928126541D-03  1.4547556427439D+00
    39  3.8000000000000D-01  2.4505916246539D-02  1.4610622783019D+00
    40  3.9000000000000D-01  4.1353479618092D-02  1.4652697326852D+00
    41  4.0000000000000D-01  5.9180954791057D-02  1.4673870320504D+00
    42  4.1000000000000D-01  7.7978305603161D-02  1.4674270133860D+00
    43  4.2000000000000D-01  9.7733062470092D-02  1.4654062855937D+00
    44  4.3000000000000D-01  1.1843030123949D-01  1.4613451829148D+00
    45  4.4000000000000D-01  1.4005262654524D-01  1.4552677108019D+00
    46  4.5000000000000D-01  1.6258015991388D-01  1.4472014843462D+00
    47  4.6000000000000D-01  1.8599053287535D-01  1.4371776593881D+00
    48  4.7000000000000D-01  2.1025888532911D-01  1.4252308564490D+00
    49  4.8000000000000D-01  2.3535786941453D-01  1.4113990776407D+00
    50  4.9000000000000D-01  2.6125765912965D-01  1.3957236167156D+00
    51  5.0000000000000D-01  2.8792596593791D-01  1.3782489624413D+00
    52  5.1000000000000D-01  3.1532806059366D-01  1.3590226954890D+00
    53  5.2000000000000D-01  3.4342680140939D-01  1.3380953790432D+00
    54  5.3000000000000D-01  3.7218266917576D-01  1.3155204433491D+00
    55  5.4000000000000D-01  4.0155380893309D-01  1.2913540644269D+00
    56  5.5000000000000D-01  4.3149607877810D-01  1.2656550371958D+00
    57  5.6000000000000D-01  4.6196310587295D-01  1.2384846432585D+00
    58  5.7000000000000D-01  4.9290634980500D-01  1.2099065136109D+00
    59  5.8000000000000D-01  5.2427517342528D-01  1.1799864865525D+00
    60  5.9000000000000D-01  5.5601692127062D-01  1.1487924610814D+00
    61  6.0000000000000D-01  5.8807700565058D-01  1.1163942460703D+00
    62  6.1000000000000D-01  6.2039900045341D-01  1.0828634055295D+00
    63  6.2000000000000D-01  6.5292474269734D-01  1.0482731002707D+00
    64  6.3000000000000D-01  6.8559444182362D-01  1.0126979262972D+00
    65  6.4000000000000D-01  7.1834679669580D-01  9.7621375025341D-01
    66  6.5000000000000D-01  7.5111912023697D-01  9.3889754227550D-01
    67  6.6000000000000D-01  7.8384747160153D-01  9.0082720659257D-01
    68  6.7000000000000D-01  8.1646679574240D-01  8.6208141023665D-01
    69  6.8000000000000D-01  8.4891107019732D-01  8.2273941022553D-01
    70  6.9000000000000D-01  8.8111345887931D-01  7.8288087959021D-01
    71  7.0000000000000D-01  9.1300647261764D-01  7.4258573262428D-01
    72  7.1000000000000D-01  9.4452213615553D-01  7.0193394973846D-01
    73  7.2000000000000D-01  9.7559216127056D-01  6.6100540230858D-01
    74  7.3000000000000D-01  1.0061481256432D+00  6.1987967790951D-01
    75  7.4000000000000D-01  1.0361216570578D+00  5.7863590633141D-01
    76  7.5000000000000D-01  1.0654446224807D+00  5.3735258677782D-01
    77  7.6000000000000D-01  1.0940493215180D+00  4.9610741664739D-01
    78  7.7000000000000D-01  1.1218686837191D+00  4.5497712230238D-01
    79  7.8000000000000D-01  1.1488364691496D+00  4.1403729222841D-01
    80  7.9000000000000D-01  1.1748874716224D+00  3.7336221298901D-01
    81  8.0000000000000D-01  1.1999577239383D+00  3.3302470837851D-01
    82  8.1000000000000D-01  1.2239847044534D+00  2.9309598217399D-01
    83  8.2000000000000D-01  1.2469075442559D+00  2.5364546488487D-01
    84  8.3000000000000D-01  1.2686672342076D+00  2.1474066489446D-01
    85  8.4000000000000D-01  1.2892068310726D+00  1.7644702438309D-01
    86  8.5000000000000D-01  1.3084716619344D+00  1.3882778041648D-01
    87  8.6000000000000D-01  1.3264095260758D+00  1.0194383157593D-01
    88  8.7000000000000D-01  1.3429708934779D+00  6.5853610499058D-02
    89  8.8000000000000D-01  1.3581090990776D+00  3.0612962690057D-02
    90  8.9000000000000D-01  1.3717805319089D+00 -3.7249680512531D-03
    91  9.0000000000000D-01  1.3839448182438D+00 -3.7109847244472D-02
    92  9.1000000000000D-01  1.3945649978435D+00 -6.9494250062952D-02
    93  9.2000000000000D-01  1.4036076924257D+00 -1.0083375407661D-01
    94  9.3000000000000D-01  1.4110432654590D+00 -1.3108702410743D-01
    95  9.4000000000000D-01  1.4168459724003D+00 -1.6021588891801D-01
    96  9.5000000000000D-01  1.4209941004984D+00 -1.8818540947080D-01
    97  9.6000000000000D-01  1.4234700973067D+00 -2.1496393851415D-01
    98  9.7000000000000D-01  1.4242606870617D+00 -2.4052317127071D-01
    99  9.8000000000000D-01  1.4233569741109D+00 -2.6483818702420D-01
   100  9.9000000000000D-01  1.4207545325972D+00 -2.8788748142252D-01
   101  1.0000000000000D+00  1.4164534816433D+00 -3.0965298933707D-01
   102  1.0100000000000D+00  1.4104585453103D+00 -3.3012009814223D-01
   103  1.0200000000000D+00  1.4027790966484D+00 -3.4927765130251D-01
   104  1.0300000000000D+00  1.3934291852005D+00 -3.6711794218130D-01
   105  1.0400000000000D+00  1.3824275473651D+00 -3.8363669800846D-01
   106  1.0500000000000D+00  1.3697975990803D+00 -3.9883305397318D-01
   107  1.0600000000000D+00  1.3555674103412D+00 -4.1270951743371D-01
   108  1.0700000000000D+00  1.3397696611250D+00 -4.2527192226320D-01
   109  1.0800000000000D+00  1.3224415783583D+00 -4.3652937338006D-01
   110  1.0900000000000D+00  1.3036248536213D+00 -4.4649418153617D-01
   111  1.1000000000000D+00  1.2833655413547D+00 -4.5518178846755D-01
   112  1.1100000000000D+00  1.2617139374031D+00 -4.6261068253881D-01
   113  1.1200000000000D+00  1.2387244377966D+00 -4.6880230504136D-01
   114  1.1300000000000D+00  1.2144553777482D+00 -4.7378094733299D-01
   115  1.1400000000000D+00  1.1889688509087D+00 -4.7757363903227D-01
   116  1.1500000000000D+00  1.1623305090082D+00 -4.8021002751250D-01
   117  1.1600000000000D+00  1.1346093420794D+00 -4.8172224896381D-01
   118  1.1700000000000D+00  1.1058774395320D+00 -4.8214479131787D-01
   119  1.1800000000000D+00  1.0762097324198D+00 -4.8151434935414D-01
   120  1.1900000000000D+00  1.0456837173229D+00 -4.7986967233426D-01
   121  1.2000000000000D+00  1.0143791623441D+00 -4.7725140453373D-01
   122  1.2100000000000D+00  9.8237779575786D-01 -4.7370191905506D-01
   123  1.2200000000000D+00  9.4976297796089D-01 -4.6926514533808D-01
   124  1.2300000000000D+00  9.1661935742024D-01 -4.6398639079767D-01
   125  1.2400000000000D+00  8.8303251136983D-01 -4.5791215703443D-01
   126  1.2500000000000D+00  8.4908857207760D-01 -4.5108995108357D-01
   127  1.2600000000000D+00  8.1487383957466D-01 -4.4356809218499D-01
   128  1.2700000000000D+00  7.8047438176881D-01 -4.3539551456396D-01
   129  1.2800000000000D+00  7.4597562291985D-01 -4.2662156672663D-01
   130  1.2900000000000D+00  7.1146192152400D-01 -4.1729580778717D-01
   131  1.3000000000000D+00  6.7701613866231D-01 -4.0746780134438D-01
   132  1.3100000000000D+00  6.4271919791828D-01 -3.9718690743604D-01
   133  1.3200000000000D+00  6.0864963801835D-01 -3.8650207310202D-01
   134  1.3300000000000D+00  5.7488315934111D-01 -3.7546162208574D-01
   135  1.3400000000000D+00  5.4149216549090D-01 -3.6411304420952D-01
   136  1.3500000000000D+00  5.0854530113744D-01 -3.5250278494621D-01
   137  1.3600000000000D+00  4.7610698732418D-01 -3.4067603571781D-01
   138  1.3700000000000D+00  4.4423695547397D-01 -3.2867652543660D-01
   139  1.3800000000000D+00  4.1298977856837D-01 -3.1654631318736D-01
   140  1.3900000000000D+00  3.8241441545096D-01 -3.0432558582216D-01
   141  1.4000000000000D+00  3.5255370844886D-01 -2.9205244708729D-01
   142  1.4100000000000D+00  3.2344407466291D-01 -2.7976275412124D-01
   143  1.4200000000000D+00  2.9511493161991D-01 -2.6748989271412D-01
   144  1.4300000000000D+00  2.6758758629749D-01 -2.5526444411065D-01
   145  1.4400000000000D+00  2.4087749157803D-01 -2.4311458997899D-01
   146  1.4500000000000D+00  2.1499633044833D-01 -2.3106650628790D-01
   147  1.4600000000000D+00  1.8995462993142D-01 -2.1914493569415D-01
   148  1.4700000000000D+00  1.6576272404157D-01 -2.0737340257796D-01
   149  1.4800000000000D+00  1.4242984314627D-01 -1.9577403524398D-01
   150  1.4900000000000D+00  1.1996425970878D-01 -1.8436761167284D-01
   151  1.5000000000000D+00  9.8373165680711D-02 -1.7317354937562D-01
   152  1.5100000000000D+00  7.7662614468699D-02 -1.6220991059300D-01
   153  1.5200000000000D+00  5.7837440863308D-02 -1.5149340372378D-01
   154  1.5300000000000D+00  3.8901195616557D-02 -1.4103938892540D-01
   155  1.5400000000000D+00  2.0856087499648D-02 -1.3086188633805D-01
   156  1.5500000000000D+00  3.7029330081880D-03 -1.2097358694170D-01
   157  1.5600000000000D+00 -1.2558886067408D-02 -1.1138586607094D-01
   158  1.5700000000000D+00 -2.7931457230968D-02 -1.0210879954120D-01
   159  1.5800000000000D+00 -4.2418363849899D-02 -9.3151182403720D-02
   160  1.5900000000000D+00 -5.6024703892028D-02 -8.4520550234303D-02
   161  1.6000000000000D+00 -6.8757100485822D-02 -7.6223203014951D-02
   162  1.6100000000000D+00 -8.0623704798715D-02 -6.8264231430109D-02
   163  1.6200000000000D+00 -9.1634190742581D-02 -6.0647545675001D-02
   164  1.6300000000000D+00 -1.0179974218175D-01 -5.3375906546739D-02
   165  1.6400000000000D+00 -1.1113303279107D-01 -4.6450958748151D-02
   166  1.6500000000000D+00 -1.1964819860310D-01 -3.9873266338390D-02
   167  1.6600000000000D+00 -1.2736080330298D-01 -3.3642350274697D-02
   168  1.6700000000000D+00 -1.3428779679058D-01 -2.7756727861060D-02
   169  1.6800000000000D+00 -1.4044746675407D-01 -2.2213954129155D-02
   170  1.6900000000000D+00 -1.4585938424858D-01 -1.7010664837974D-02
   171  1.7000000000000D+00 -1.5054434359717D-01 -1.2142620966567D-02
   172  1.7100000000000D+00 -1.5452429673758D-01 -7.6047546145515D-03
   173  1.7200000000000D+00 -1.5782228234843D-01 -3.3912161757417D-03
   174  1.7300000000000D+00 -1.6046235035591D-01  5.0457742020787D-04
   175  1.7400000000000D+00 -1.6246948192109D-01  4.0898934726768D-03
   176  1.7500000000000D+00 -1.6386950569967D-01  7.3726335363823D-03
   177  1.7600000000000D+00 -1.6468901073073D-01  1.0361282854980D-02
   178  1.7700000000000D+00 -1.6495525643738D-01  1.3064859367163D-02
   179  1.7800000000000D+00 -1.6469608009635D-01  1.5492862437937D-02
   180  1.7900000000000D+00 -1.6393980240135D-01  1.7655221506443D-02
   181  1.8000000000000D+00 -1.6271513153813D-01  1.9562244829075D-02
   182  1.8100000000000D+00 -1.6105106625745D-01  2.1224568457384D-02
   183  1.8200000000000D+00 -1.5897679849646D-01  2.2653105673816D-02
   184  1.8300000000000D+00 -1.5652161591524D-01  2.3858996982184D-02
   185  1.8400000000000D+00 -1.5371480499021D-01  2.4853560899363D-02
   186  1.8500000000000D+00 -1.5058555495049D-01  2.5648245624152D-02
   187  1.8600000000000D+00 -1.4716286319696D-01  2.6254581815399D-02
   188  1.8700000000000D+00 -1.4347544251878D-01  2.6684136575814D-02
   189  1.8800000000000D+00 -1.3955163058853D-01  2.6948468803055D-02
   190  1.8900000000000D+00 -1.3541930224431D-01  2.7059086083707D-02
   191  1.9000000000000D+00 -1.3110578468341D-01  2.7027403152333D-02
   192  1.9100000000000D+00 -1.2663777644414D-01  2.6864702230106D-02
   193  1.9200000000000D+00 -1.2204126981484D-01  2.6582095085069D-02
   194  1.9300000000000D+00 -1.1734147787779D-01  2.6190487246977D-02
   195  1.9400000000000D+00 -1.1256276561751D-01  2.5700544146883D-02
   196  1.9500000000000D+00 -1.0772858609335D-01  2.5122659531567D-02
   197  1.9600000000000D+00 -1.0286142151758D-01  2.4466926078808D-02
   198  1.9700000000000D+00 -9.7982729477567D-02  2.3743108283445D-02
   199  1.9800000000000D+00 -9.3112894977131D-02  2.2960617842087D-02
   200  1.9900000000000D+00 -8.8271187468599D-02  2.2128491224865D-02
   201  2.0000000000000D+00 -8.3475724401077D-02  2.1255369962578D-02
   202  2.0100000000000D+00 -7.8743439942205D-02  2.0349483158621D-02
   203  2.0200000000000D+00 -7.4090060073178D-02  1.9418632634622D-02
   204  2.0300000000000D+00 -6.9530083567201D-02  1.8470180523426D-02
   205  2.0400000000000D+00 -6.5076768677646D-02  1.7511039234192D-02
   206  2.0500000000000D+00 -6.0742126397630D-02  1.6547664075504D-02
   207  2.0600000000000D+00 -5.6536918859467D-02  1.5586048025472D-02
   208  2.0700000000000D+00 -5.2470664298711D-02  1.4631719126622D-02
   209  2.0800000000000D+00 -4.8551647308010D-02  1.3689740052100D-02
   210  2.0900000000000D+00 -4.4786934671848D-02  1.2764709928339D-02
   211  2.1000000000000D+00 -4.1182397049996D-02  1.1860768490414D-02
   212  2.1100000000000D+00 -3.7742735146626D-02  1.0981602091787D-02
   213  2.1200000000000D+00 -3.4471511646513D-02  1.0130451986193D-02
   214  2.1300000000000D+00 -3.1371187405118D-02  9.3101243559437D-03
   215  2.1400000000000D+00 -2.8443162170926D-02  8.5230021638527D-03
   216  2.1500000000000D+00 -2.5687819844230D-02  7.7710588126222D-03
   217  2.1600000000000D+00 -2.3104577048865D-02  7.0558731903114D-03
   218  2.1700000000000D+00 -2.0691935788805D-02  6.3786463354556D-03
   219  2.1800000000000D+00 -1.8447539038843D-02  5.7402193287242D-03
   220  2.1900000000000D+00 -1.6368229114440D-02  5.1410923413032D-03
   221  2.2000000000000D+00 -1.4450108789944D-02  4.5814448054345D-03
   222  2.2100000000000D+00 -1.2688604232754D-02  4.0611563970167D-03
   223  2.2200000000000D+00 -1.1078529790061D-02  3.5798288079340D-03
   224  2.2300000000000D+00 -9.6141540631836D-03  3.1368081130111D-03
   225  2.2400000000000D+00 -8.2892668764333D-03  2.7312075975301D-03
   226  2.2500000000000D+00 -7.0972467138465D-03  2.3619308560330D-03
   227  2.2600000000000D+00 -6.0311283526091D-03  2.0276950941083D-03
   228  2.2700000000000D+00 -5.0836701906747D-03  1.7270544324595D-03
   229  2.2800000000000D+00 -4.2474207055280D-03  1.4584230022078D-03
   230  2.2900000000000D+00 -3.5147842493345D-03  1.2200979221397D-03
   231  2.3000000000000D+00 -2.8780850173222D-03  1.0102817165979D-03
   232  2.3100000000000D+00 -2.3296291746726D-03  8.2710417546987D-04
   233  2.3200000000000D+00 -1.8617655191815D-03  6.6864379729264D-04
   234  2.3300000000000D+00 -1.4669426049110D-03  5.3294804937179D-04
   235  2.3400000000000D+00 -1.1377636997736D-03  4.1805295319000D-04
   236  2.3500000000000D+00 -8.6703891765725D-04  3.2200175132234D-04
   237  2.3600000000000D+00 -6.4783289613965D-04  2.4286206359762D-04
   238  2.3700000000000D+00 -4.7350986568215D-04  1.7874220239294D-04
   239  2.3800000000000D+00 -3.3777456835168D-04  1.2780608740691D-04
   240  2.3900000000000D+00 -2.3472700500248D-04  8.8285084549578D-05
   241  2.4000000000000D+00 -1.5883505748452D-04  5.8494814410747D-05
   242  2.4100000000000D+00 -1.0499499348401D-04  3.6843123104575D-05
   243  2.4200000000000D+00 -6.8414257936401D-05  2.1822758187325D-05
   244  2.4300000000000D+00 -4.5297399822713D-05  1.2062853416752D-05
   245  2.4400000000000D+00 -3.2270973726222D-05  6.2994406651687D-06
   246  2.4500000000000D+00 -2.6868975703916D-05  3.4617188985935D-06
   247  2.4600000000000D+00 -2.4670296417690D-05  2.3376124106772D-06
   248  2.4700000000000D+00 -2.2136161524999D-05  1.9392726710970D-06
   249  2.4800000000000D+00 -1.5625252307907D-05  1.3763013042978D-06
   250  2.4900000000000D+00 -7.5496537184502D-06  6.8990036041579D-07
   251  2.5000000000000D+00 -3.4755177276503D-07  3.3169080026541D-08
   252  2.5100000000000D+00  2.1407296794313D-06 -1.7702715703291D-07
   253  2.5200000000000D+00  1.8131765961302D-06 -1.5111379175623D-07
   254  2.5300000000000D+00  1.1068391372163D-07 -9.3070226435041D-09
   255  2.5400000000000D+00 -4.4274705342420D-07  3.1551940202705D-08
   256  2.5500000000000D+00 -4.2419921228638D-07  2.9907159227234D-08
   257  2.5600000000000D+00 -4.3800339790600D-08  3.0599772566490D-09
   258  2.5700000000000D+00  5.2394631063357D-08 -4.5968760271279D-09
   259  2.5800000000000D+00  5.5730526312244D-08 -4.8895529023611D-09
   260  2.5900000000000D+00  1.0027039697587D-08 -8.7972865679998D-10
   261  2.6000000000000D+00  0.0000000000000D+00  0.0000000000000D+00
   262  2.6100000000000D+00  0.0000000000000D+00  0.0000000000000D+00
   263  2.6200000000000D+00  0.0000000000000D+00  0.0000000000000D+00
   264  2.6300000000000D+00  0.0000000000000D+00  0.0000000000000D+00
   265  2.6400000000000D+00  0.0000000000000D+00  0.0000000000000D+00
   266  2.6500000000000D+00  0.0000000000000D+00  0.0000000000000D+00
   267  2.6600000000000D+00  0.0000000000000D+00  0.0000000000000D+00
   268  2.6700000000000D+00  0.0000000000000D+00  0.0000000000000D+00
   269  2.6800000000000D+00  0.0000000000000D+00  0.0000000000000D+00
   270  2.6900000000000D+00  0.0000000000000D+00  0.0000000000000D+00
   271  2.7000000000000D+00  0.0000000000000D+00  0.0000000000000D+00
   272  2.7100000000000D+00  0.0000000000000D+00  0.0000000000000D+00
   273  2.7200000000000D+00  0.0000000000000D+00  0.0000000000000D+00
   274  2.7300000000000D+00  0.0000000000000D+00  0.0000000000000D+00
   275  2.7400000000000D+00  0.0000000000000D+00  0.0000000000000D+00
   276  2.7500000000000D+00  0.0000000000000D+00  0.0000000000000D+00
   277  2.7600000000000D+00  0.0000000000000D+00  0.0000000000000D+00
   278  2.7700000000000D+00  0.0000000000000D+00  0.0000000000000D+00
   279  2.7800000000000D+00  0.0000000000000D+00  0.0000000000000D+00
   280  2.7900000000000D+00  0.0000000000000D+00  0.0000000000000D+00
   281  2.8000000000000D+00  0.0000000000000D+00  0.0000000000000D+00
   282  2.8100000000000D+00  0.0000000000000D+00  0.0000000000000D+00
   283  2.8200000000000D+00  0.0000000000000D+00  0.0000000000000D+00
   284  2.8300000000000D+00  0.0000000000000D+00  0.0000000000000D+00
   285  2.8400000000000D+00  0.0000000000000D+00  0.0000000000000D+00
   286  2.8500000000000D+00  0.0000000000000D+00  0.0000000000000D+00
   287  2.8600000000000D+00  0.0000000000000D+00  0.0000000000000D+00
   288  2.8700000000000D+00  0.0000000000000D+00  0.0000000000000D+00
   289  2.8800000000000D+00  0.0000000000000D+00  0.0000000000000D+00
   290  2.8900000000000D+00  0.0000000000000D+00  0.0000000000000D+00
   291  2.9000000000000D+00  0.0000000000000D+00  0.0000000000000D+00
   292  2.9100000000000D+00  0.0000000000000D+00  0.0000000000000D+00
   293  2.9200000000000D+00  0.0000000000000D+00  0.0000000000000D+00
   294  2.9300000000000D+00  0.0000000000000D+00  0.0000000000000D+00
   295  2.9400000000000D+00  0.0000000000000D+00  0.0000000000000D+00
   296  2.9500000000000D+00  0.0000000000000D+00  0.0000000000000D+00
   297  2.9600000000000D+00  0.0000000000000D+00  0.0000000000000D+00
   298  2.9700000000000D+00  0.0000000000000D+00  0.0000000000000D+00
   299  2.9800000000000D+00  0.0000000000000D+00  0.0000000000000D+00
   300  2.9900000000000D+00  0.0000000000000D+00  0.0000000000000D+00
   301  3.0000000000000D+00  0.0000000000000D+00  0.0000000000000D+00
   302  3.0100000000000D+00  0.0000000000000D+00  0.0000000000000D+00
   303  3.0200000000000D+00  0.0000000000000D+00  0.0000000000000D+00
   304  3.0300000000000D+00  0.0000000000000D+00  0.0000000000000D+00
   305  3.0400000000000D+00  0.0000000000000D+00  0.0000000000000D+00
   306  3.0500000000000D+00  0.0000000000000D+00  0.0000000000000D+00
   307  3.0600000000000D+00  0.0000000000000D+00  0.0000000000000D+00
   308  3.0700000000000D+00  0.0000000000000D+00  0.0000000000000D+00
   309  3.0800000000000D+00  0.0000000000000D+00  0.0000000000000D+00
   310  3.0900000000000D+00  0.0000000000000D+00  0.0000000000000D+00
   311  3.1000000000000D+00  0.0000000000000D+00  0.0000000000000D+00
   312  3.1100000000000D+00  0.0000000000000D+00  0.0000000000000D+00
   313  3.1200000000000D+00  0.0000000000000D+00  0.0000000000000D+00
   314  3.1300000000000D+00  0.0000000000000D+00  0.0000000000000D+00
   315  3.1400000000000D+00  0.0000000000000D+00  0.0000000000000D+00
   316  3.1500000000000D+00  0.0000000000000D+00  0.0000000000000D+00
   317  3.1600000000000D+00  0.0000000000000D+00  0.0000000000000D+00
   318  3.1700000000000D+00  0.0000000000000D+00  0.0000000000000D+00
   319  3.1800000000000D+00  0.0000000000000D+00  0.0000000000000D+00
   320  3.1900000000000D+00  0.0000000000000D+00  0.0000000000000D+00
   321  3.2000000000000D+00  0.0000000000000D+00  0.0000000000000D+00
   322  3.2100000000000D+00  0.0000000000000D+00  0.0000000000000D+00
   323  3.2200000000000D+00  0.0000000000000D+00  0.0000000000000D+00
   324  3.2300000000000D+00  0.0000000000000D+00  0.0000000000000D+00
   325  3.2400000000000D+00  0.0000000000000D+00  0.0000000000000D+00
   326  3.2500000000000D+00  0.0000000000000D+00  0.0000000000000D+00
   327  3.2600000000000D+00  0.0000000000000D+00  0.0000000000000D+00
   328  3.2700000000000D+00  0.0000000000000D+00  0.0000000000000D+00
   329  3.2800000000000D+00  0.0000000000000D+00  0.0000000000000D+00
   330  3.2900000000000D+00  0.0000000000000D+00  0.0000000000000D+00
   331  3.3000000000000D+00  0.0000000000000D+00  0.0000000000000D+00
   332  3.3100000000000D+00  0.0000000000000D+00  0.0000000000000D+00
   333  3.3200000000000D+00  0.0000000000000D+00  0.0000000000000D+00
   334  3.3300000000000D+00  0.0000000000000D+00  0.0000000000000D+00
   335  3.3400000000000D+00  0.0000000000000D+00  0.0000000000000D+00
   336  3.3500000000000D+00  0.0000000000000D+00  0.0000000000000D+00
   337  3.3600000000000D+00  0.0000000000000D+00  0.0000000000000D+00
   338  3.3700000000000D+00  0.0000000000000D+00  0.0000000000000D+00
   339  3.3800000000000D+00  0.0000000000000D+00  0.0000000000000D+00
   340  3.3900000000000D+00  0.0000000000000D+00  0.0000000000000D+00
   341  3.4000000000000D+00  0.0000000000000D+00  0.0000000000000D+00
   342  3.4100000000000D+00  0.0000000000000D+00  0.0000000000000D+00
   343  3.4200000000000D+00  0.0000000000000D+00  0.0000000000000D+00
   344  3.4300000000000D+00  0.0000000000000D+00  0.0000000000000D+00
   345  3.4400000000000D+00  0.0000000000000D+00  0.0000000000000D+00
   346  3.4500000000000D+00  0.0000000000000D+00  0.0000000000000D+00
   347  3.4600000000000D+00  0.0000000000000D+00  0.0000000000000D+00
   348  3.4700000000000D+00  0.0000000000000D+00  0.0000000000000D+00
   349  3.4800000000000D+00  0.0000000000000D+00  0.0000000000000D+00
   350  3.4900000000000D+00  0.0000000000000D+00  0.0000000000000D+00
   351  3.5000000000000D+00  0.0000000000000D+00  0.0000000000000D+00
   352  3.5100000000000D+00  0.0000000000000D+00  0.0000000000000D+00
   353  3.5200000000000D+00  0.0000000000000D+00  0.0000000000000D+00
   354  3.5300000000000D+00  0.0000000000000D+00  0.0000000000000D+00
   355  3.5400000000000D+00  0.0000000000000D+00  0.0000000000000D+00
   356  3.5500000000000D+00  0.0000000000000D+00  0.0000000000000D+00
   357  3.5600000000000D+00  0.0000000000000D+00  0.0000000000000D+00
   358  3.5700000000000D+00  0.0000000000000D+00  0.0000000000000D+00
   359  3.5800000000000D+00  0.0000000000000D+00  0.0000000000000D+00
   360  3.5900000000000D+00  0.0000000000000D+00  0.0000000000000D+00
   361  3.6000000000000D+00  0.0000000000000D+00  0.0000000000000D+00
   362  3.6100000000000D+00  0.0000000000000D+00  0.0000000000000D+00
   363  3.6200000000000D+00  0.0000000000000D+00  0.0000000000000D+00
   364  3.6300000000000D+00  0.0000000000000D+00  0.0000000000000D+00
   365  3.6400000000000D+00  0.0000000000000D+00  0.0000000000000D+00
   366  3.6500000000000D+00  0.0000000000000D+00  0.0000000000000D+00
   367  3.6600000000000D+00  0.0000000000000D+00  0.0000000000000D+00
   368  3.6700000000000D+00  0.0000000000000D+00  0.0000000000000D+00
   369  3.6800000000000D+00  0.0000000000000D+00  0.0000000000000D+00
   370  3.6900000000000D+00  0.0000000000000D+00  0.0000000000000D+00
   371  3.7000000000000D+00  0.0000000000000D+00  0.0000000000000D+00
   372  3.7100000000000D+00  0.0000000000000D+00  0.0000000000000D+00
   373  3.7200000000000D+00  0.0000000000000D+00  0.0000000000000D+00
   374  3.7300000000000D+00  0.0000000000000D+00  0.0000000000000D+00
   375  3.7400000000000D+00  0.0000000000000D+00  0.0000000000000D+00
   376  3.7500000000000D+00  0.0000000000000D+00  0.0000000000000D+00
   377  3.7600000000000D+00  0.0000000000000D+00  0.0000000000000D+00
   378  3.7700000000000D+00  0.0000000000000D+00  0.0000000000000D+00
   379  3.7800000000000D+00  0.0000000000000D+00  0.0000000000000D+00
   380  3.7900000000000D+00  0.0000000000000D+00  0.0000000000000D+00
   381  3.8000000000000D+00  0.0000000000000D+00  0.0000000000000D+00
   382  3.8100000000000D+00  0.0000000000000D+00  0.0000000000000D+00
   383  3.8200000000000D+00  0.0000000000000D+00  0.0000000000000D+00
   384  3.8300000000000D+00  0.0000000000000D+00  0.0000000000000D+00
   385  3.8400000000000D+00  0.0000000000000D+00  0.0000000000000D+00
   386  3.8500000000000D+00  0.0000000000000D+00  0.0000000000000D+00
   387  3.8600000000000D+00  0.0000000000000D+00  0.0000000000000D+00
   388  3.8700000000000D+00  0.0000000000000D+00  0.0000000000000D+00
   389  3.8800000000000D+00  0.0000000000000D+00  0.0000000000000D+00
   390  3.8900000000000D+00  0.0000000000000D+00  0.0000000000000D+00
   391  3.9000000000000D+00  0.0000000000000D+00  0.0000000000000D+00
   392  3.9100000000000D+00  0.0000000000000D+00  0.0000000000000D+00
   393  3.9200000000000D+00  0.0000000000000D+00  0.0000000000000D+00
   394  3.9300000000000D+00  0.0000000000000D+00  0.0000000000000D+00
   395  3.9400000000000D+00  0.0000000000000D+00  0.0000000000000D+00
   396  3.9500000000000D+00  0.0000000000000D+00  0.0000000000000D+00
   397  3.9600000000000D+00  0.0000000000000D+00  0.0000000000000D+00
   398  3.9700000000000D+00  0.0000000000000D+00  0.0000000000000D+00
   399  3.9800000000000D+00  0.0000000000000D+00  0.0000000000000D+00
   400  3.9900000000000D+00  0.0000000000000D+00  0.0000000000000D+00
   401  4.0000000000000D+00  0.0000000000000D+00  0.0000000000000D+00
   402  4.0100000000000D+00  0.0000000000000D+00  0.0000000000000D+00
   403  4.0200000000000D+00  0.0000000000000D+00  0.0000000000000D+00
   404  4.0300000000000D+00  0.0000000000000D+00  0.0000000000000D+00
   405  4.0400000000000D+00  0.0000000000000D+00  0.0000000000000D+00
   406  4.0500000000000D+00  0.0000000000000D+00  0.0000000000000D+00
   407  4.0600000000000D+00  0.0000000000000D+00  0.0000000000000D+00
   408  4.0700000000000D+00  0.0000000000000D+00  0.0000000000000D+00
   409  4.0800000000000D+00  0.0000000000000D+00  0.0000000000000D+00
   410  4.0900000000000D+00  0.0000000000000D+00  0.0000000000000D+00
   411  4.1000000000000D+00  0.0000000000000D+00  0.0000000000000D+00
   412  4.1100000000000D+00  0.0000000000000D+00  0.0000000000000D+00
   413  4.1200000000000D+00  0.0000000000000D+00  0.0000000000000D+00
   414  4.1300000000000D+00  0.0000000000000D+00  0.0000000000000D+00
   415  4.1400000000000D+00  0.0000000000000D+00  0.0000000000000D+00
   416  4.1500000000000D+00  0.0000000000000D+00  0.0000000000000D+00
   417  4.1600000000000D+00  0.0000000000000D+00  0.0000000000000D+00
   418  4.1700000000000D+00  0.0000000000000D+00  0.0000000000000D+00
   419  4.1800000000000D+00  0.0000000000000D+00  0.0000000000000D+00
   420  4.1900000000000D+00  0.0000000000000D+00  0.0000000000000D+00
   421  4.2000000000000D+00  0.0000000000000D+00  0.0000000000000D+00
   422  4.2100000000000D+00  0.0000000000000D+00  0.0000000000000D+00