Pd    ONCVPSP-3.3.1  r_core=   2.47094   2.44164   2.24604
     46.0000     18.0000      210905    zatom,zion,pspd
     8 -116133   2     4   600     0    pspcod,pspxc,lmax,lloc,mmax,r2well
  5.99000000  0.00000000  0.00000000    rchrg fchrg qchrg
     2     2     2     0     0    nproj
     1     1           extension_switch
   0                         4.8454542814322D+00  8.5558059363050D-01
     1  0.0000000000000D+00 -3.6330383146321D-12 -1.5330514635536D-12
     2  1.0000000000000D-02  5.7726265105158D-02 -8.4170969137456D-03
     3  2.0000000000000D-02  1.1536046490976D-01 -1.6791327533597D-02
     4  3.0000000000000D-02  1.7281071216972D-01 -2.5079897395163D-02
     5  4.0000000000000D-02  2.2998547537604D-01 -3.3240155683532D-02
     6  5.0000000000000D-02  2.8679375567857D-01 -4.1229667033769D-02
     7  6.0000000000000D-02  3.4314526267977D-01 -4.9006283301275D-02
     8  7.0000000000000D-02  3.9895058872619D-01 -5.6528215290093D-02
     9  8.0000000000000D-02  4.5412138132873D-01 -6.3754104425744D-02
    10  9.0000000000000D-02  5.0857051334760D-01 -7.0643094357212D-02
    11  1.0000000000000D-01  5.6221225058309D-01 -7.7154902470278D-02
    12  1.1000000000000D-01  6.1496241641945D-01 -8.3249891291696D-02
    13  1.2000000000000D-01  6.6673855317640D-01 -8.8889139760517D-02
    14  1.3000000000000D-01  7.1746007983043D-01 -9.4034514339188D-02
    15  1.4000000000000D-01  7.6704844577693D-01 -9.8648739933197D-02
    16  1.5000000000000D-01  8.1542728031318D-01 -1.0269547058342D-01
    17  1.6000000000000D-01  8.6252253753262D-01 -1.0613935989059D-01
    18  1.7000000000000D-01  9.0826263633133D-01 -1.0894613112604D-01
    19  1.8000000000000D-01  9.5257859523907D-01 -1.1108264697697D-01
    20  1.9000000000000D-01  9.9540416179906D-01 -1.1251697886871D-01
    21  2.0000000000000D-01  1.0366759362334D+00 -1.1321847579955D-01
    22  2.1000000000000D-01  1.0763334891437D+00 -1.1315783261712D-01
    23  2.2000000000000D-01  1.1143194730102D+00 -1.1230715765766D-01
    24  2.3000000000000D-01  1.1505797272661D+00 -1.1064003966213D-01
    25  2.4000000000000D-01  1.1850633767396D+00 -1.0813161387491D-01
    26  2.5000000000000D-01  1.2177229232672D+00 -1.0475862722260D-01
    27  2.6000000000000D-01  1.2485143303023D+00 -1.0049950246161D-01
    28  2.7000000000000D-01  1.2773971003519D+00 -9.5334401174614D-02
    29  2.8000000000000D-01  1.3043343450945D+00 -8.9245285486713D-02
    30  2.9000000000000D-01  1.3292928480462D+00 -8.2215978362780D-02
    31  3.0000000000000D-01  1.3522431196567D+00 -7.4232222338358D-02
    32  3.1000000000000D-01  1.3731594447332D+00 -6.5281736526844D-02
    33  3.2000000000000D-01  1.3920199221080D+00 -5.5354271736398D-02
    34  3.3000000000000D-01  1.4088064964781D+00 -4.4441663520667D-02
    35  3.4000000000000D-01  1.4235049823633D+00 -3.2537882978226D-02
    36  3.5000000000000D-01  1.4361050801451D+00 -1.9639085106716D-02
    37  3.6000000000000D-01  1.4466003841625D+00 -5.7436545090535D-03
    38  3.7000000000000D-01  1.4549883828592D+00  9.1477517592431D-03
    39  3.8000000000000D-01  1.4612704509899D+00  2.5032164420116D-02
    40  3.9000000000000D-01  1.4654518339111D+00  4.1904265506240D-02
    41  4.0000000000000D-01  1.4675416239942D+00  5.9756355429771D-02
    42  4.1000000000000D-01  1.4675527292166D+00  7.8578323824318D-02
    43  4.2000000000000D-01  1.4655018340007D+00  9.8357624403130D-02
    44  4.3000000000000D-01  1.4614093523833D+00  1.1907925407969D-01
    45  4.4000000000000D-01  1.4552993736162D+00  1.4072573660032D-01
    46  4.5000000000000D-01  1.4471996003099D+00  1.6327711093948D-01
    47  4.6000000000000D-01  1.4371412792476D+00  1.8671092470889D-01
    48  4.7000000000000D-01  1.4251591250111D+00  2.1100223283066D-01
    49  4.8000000000000D-01  1.4112912365721D+00  2.3612360172181D-01
    50  4.9000000000000D-01  1.3955790070189D+00  2.6204511923373D-01
    51  5.0000000000000D-01  1.3780670265965D+00  2.8873441058422D-01
    52  5.1000000000000D-01  1.3588029792568D+00  3.1615666051251D-01
    53  5.2000000000000D-01  1.3378375329234D+00  3.4427464187831D-01
    54  5.3000000000000D-01  1.3152242236913D+00  3.7304875091510D-01
    55  5.4000000000000D-01  1.2910193341904D+00  4.0243704933501D-01
    56  5.5000000000000D-01  1.2652817663563D+00  4.3239531346761D-01
    57  5.6000000000000D-01  1.2380729088636D+00  4.6287709059866D-01
    58  5.7000000000000D-01  1.2094564994833D+00  4.9383376265579D-01
    59  5.8000000000000D-01  1.1794984826447D+00  5.2521461736781D-01
    60  5.9000000000000D-01  1.1482668624844D+00  5.5696692700157D-01
    61  6.0000000000000D-01  1.1158315516819D+00  5.8903603475606D-01
    62  6.1000000000000D-01  1.0822642163873D+00  6.2136544886677D-01
    63  6.2000000000000D-01  1.0476381175575D+00  6.5389694444567D-01
    64  6.3000000000000D-01  1.0120279490270D+00  6.8657067305172D-01
    65  6.4000000000000D-01  9.7550967264702D-01  7.1932527995561D-01
    66  6.5000000000000D-01  9.3816035083609D-01  7.5209802902914D-01
    67  6.6000000000000D-01  9.0005797689297D-01  7.8482493515499D-01
    68  6.7000000000000D-01  8.6128130343045D-01  8.1744090401660D-01
    69  6.8000000000000D-01  8.2190966929547D-01  8.4987987909102D-01
    70  6.9000000000000D-01  7.8202282534785D-01  8.8207499562897D-01
    71  7.0000000000000D-01  7.4170075947609D-01  9.1395874136747D-01
    72  7.1000000000000D-01  7.0102352123409D-01  9.4546312368075D-01
    73  7.2000000000000D-01  6.6007104648760D-01  9.7651984283464D-01
    74  7.3000000000000D-01  6.1892298246387D-01  1.0070604709691D+00
    75  7.4000000000000D-01  5.7765851360117D-01  1.0370166363933D+00
    76  7.5000000000000D-01  5.3635618859838D-01  1.0663202127360D+00
    77  7.6000000000000D-01  4.9509374906669D-01  1.0949035124561D+00
    78  7.7000000000000D-01  4.5394796018712D-01  1.1226994841756D+00
    79  7.8000000000000D-01  4.1299444377836D-01  1.1496419132616D+00
    80  7.9000000000000D-01  3.7230751417905D-01  1.1756656250442D+00
    81  8.0000000000000D-01  3.3196001734779D-01  1.2007066900220D+00
    82  8.1000000000000D-01  2.9202317358192D-01  1.2247026303725D+00
    83  8.2000000000000D-01  2.5256642425360D-01  1.2475926270504D+00
    84  8.3000000000000D-01  2.1365728295732D-01  1.2693177267289D+00
    85  8.4000000000000D-01  1.7536119145849D-01  1.2898210478072D+00
    86  8.5000000000000D-01  1.3774138082633D-01  1.3090479846848D+00
    87  8.6000000000000D-01  1.0085873812756D-01  1.3269464094790D+00
    88  8.7000000000000D-01  6.4771679049068D-02  1.3434668703407D+00
    89  8.8000000000000D-01  2.9536026808251D-02  1.3585627855098D+00
    90  8.9000000000000D-01 -4.7951023003076D-03  1.3721906322353D+00
    91  9.0000000000000D-01 -3.8171406385189D-02  1.3843101296770D+00
    92  9.1000000000000D-01 -7.0545498141363D-02  1.3948844149000D+00
    93  9.2000000000000D-01 -1.0187299742614D-01  1.4038802110688D+00
    94  9.3000000000000D-01 -1.3211261593277D-01  1.4112679869535D+00
    95  9.4000000000000D-01 -1.6122623368285D-01  1.4170221068627D+00
    96  9.5000000000000D-01 -1.8917896707591D-01  1.4211209701302D+00
    97  9.6000000000000D-01 -2.1593922825339D-01  1.4235471392975D+00
    98  9.7000000000000D-01 -2.4147877555299D-01  1.4242874561507D+00
    99  9.8000000000000D-01 -2.6577275485101D-01  1.4233331447947D+00
   100  9.9000000000000D-01 -2.8879973161089D-01  1.4206799009764D+00
   101  1.0000000000000D+00 -3.1054171347940D-01  1.4163279668977D+00
   102  1.0100000000000D+00 -3.3098416329504D-01  1.4102821907957D+00
   103  1.0200000000000D+00 -3.5011600239743D-01  1.4025520706093D+00
   104  1.0300000000000D+00 -3.6792960415250D-01  1.3931517810928D+00
   105  1.0400000000000D+00 -3.8442077763187D-01  1.3821001837850D+00
   106  1.0500000000000D+00 -3.9958874141383D-01  1.3694208192963D+00
   107  1.0600000000000D+00 -4.1343608749859D-01  1.3551418814282D+00
   108  1.0700000000000D+00 -4.2596873535810D-01  1.3392961726978D+00
   109  1.0800000000000D+00 -4.3719587616987D-01  1.3219210409072D+00
   110  1.0900000000000D+00 -4.4712990730905D-01  1.3030582964489D+00
   111  1.1000000000000D+00 -4.5578635720459D-01  1.2827541101176D+00
   112  1.1100000000000D+00 -4.6318380069149D-01  1.2610588912611D+00
   113  1.1200000000000D+00 -4.6934376502035D-01  1.2380271461733D+00
   114  1.1300000000000D+00 -4.7429062671249D-01  1.2137173167088D+00
   115  1.1400000000000D+00 -4.7805149947525D-01  1.1881915991598D+00
   116  1.1500000000000D+00 -4.8065611342273D-01  1.1615157435264D+00
   117  1.1600000000000D+00 -4.8213668587168D-01  1.1337588333765D+00
   118  1.1700000000000D+00 -4.8252778400756D-01  1.1049930465636D+00
   119  1.1800000000000D+00 -4.8186617974046D-01  1.0752933971464D+00
   120  1.1900000000000D+00 -4.8019069709828D-01  1.0447374589324D+00
   121  1.2000000000000D+00 -4.7754205252672D-01  1.0134050711442D+00
   122  1.2100000000000D+00 -4.7396268848098D-01  9.8137802674945D-01
   123  1.2200000000000D+00 -4.6949660072535D-01  9.4873974410137D-01
   124  1.2300000000000D+00 -4.6418915977142D-01  9.1557492258707D-01
   125  1.2400000000000D+00 -4.5808692690064D-01  8.8196918303524D-01
   126  1.2500000000000D+00 -4.5123746523726D-01  8.4800869370461D-01
   127  1.2600000000000D+00 -4.4368914635443D-01  8.1377978274508D-01
   128  1.2700000000000D+00 -4.3549095290353D-01  7.7936853805372D-01
   129  1.2800000000000D+00 -4.2669227777069D-01  7.4486039550297D-01
   130  1.2900000000000D+00 -4.1734272027790D-01  7.1033971658830D-01
   131  1.3000000000000D+00 -4.0749187994620D-01  6.7588935654990D-01
   132  1.3100000000000D+00 -3.9718914834942D-01  6.4159022407341D-01
   133  1.3200000000000D+00 -3.8648349958940D-01  6.0752083372299D-01
   134  1.3300000000000D+00 -3.7542327992218D-01  5.7375685225229D-01
   135  1.3400000000000D+00 -3.6405599707047D-01  5.4037063998855D-01
   136  1.3500000000000D+00 -3.5242810974473D-01  5.0743078849094D-01
   137  1.3600000000000D+00 -3.4058481790308D-01  4.7500165568551D-01
   138  1.3700000000000D+00 -3.2856985426562D-01  4.4314289970462D-01
   139  1.3800000000000D+00 -3.1642527697979D-01  4.1190900990101D-01
   140  1.3900000000000D+00 -3.0419126721449D-01  3.8134885101780D-01
   141  1.4000000000000D+00 -2.9190591827626D-01  3.5150516057836D-01
   142  1.4100000000000D+00 -2.7960507218608D-01  3.2241424035001D-01
   143  1.4200000000000D+00 -2.6732209491522D-01  2.9410538161676D-01
   144  1.4300000000000D+00 -2.5508754294080D-01  2.6659975261489D-01
   145  1.4400000000000D+00 -2.4292956940023D-01  2.3991266071760D-01
   146  1.4500000000000D+00 -2.3087431907414D-01  2.1405564184814D-01
   147  1.4600000000000D+00 -2.1894650208277D-01  1.8903908044120D-01
   148  1.4700000000000D+00 -2.0716960952636D-01  1.6487317480743D-01
   149  1.4800000000000D+00 -1.9556573548712D-01  1.4156702472974D-01
   150  1.4900000000000D+00 -1.8415562302423D-01  1.1912877775521D-01
   151  1.5000000000000D+00 -1.7295865415056D-01  9.7565506520989D-02
   152  1.5100000000000D+00 -1.6199285517392D-01  7.6883150768919D-02
   153  1.5200000000000D+00 -1.5127489825052D-01  5.7086437249079D-02
   154  1.5300000000000D+00 -1.4082010710913D-01  3.8178814279815D-02
   155  1.5400000000000D+00 -1.3064246539380D-01  2.0162393778837D-02
   156  1.5500000000000D+00 -1.2075462763078D-01  3.0379009169931D-03
   157  1.5600000000000D+00 -1.1116793285242D-01 -1.3195368353592D-02
   158  1.5700000000000D+00 -1.0189242084460D-01 -2.8539581871258D-02
   159  1.5800000000000D+00 -9.2936850980220D-02 -4.2998397974142D-02
   160  1.5900000000000D+00 -8.4308723549788D-02 -5.6576984509865D-02
   161  1.6000000000000D+00 -7.6014303790599D-02 -6.9282029235118D-02
   162  1.6100000000000D+00 -6.8058648315427D-02 -8.1121742577235D-02
   163  1.6200000000000D+00 -6.0445633953903D-02 -9.2105852612710D-02
   164  1.6300000000000D+00 -5.3177988910379D-02 -1.0224559240043D-01
   165  1.6400000000000D+00 -4.6257326057440D-02 -1.1155368023408D-01
   166  1.6500000000000D+00 -3.9684178387502D-02 -1.2004429253133D-01
   167  1.6600000000000D+00 -3.3458036767490D-02 -1.2773302864069D-01
   168  1.6700000000000D+00 -2.7577389509581D-02 -1.3463686925046D-01
   169  1.6800000000000D+00 -2.2039763695313D-02 -1.4077412849308D-01
   170  1.6900000000000D+00 -1.6841768184828D-02 -1.4616439978008D-01
   171  1.7000000000000D+00 -1.1979138123224D-02 -1.5082849591590D-01
   172  1.7100000000000D+00 -7.4467808431593D-03 -1.5478838369316D-01
   173  1.7200000000000D+00 -3.2388231287473D-03 -1.5806711292389D-01
   174  1.7300000000000D+00  6.5134048964535D-04 -1.6068874097462D-01
   175  1.7400000000000D+00  4.2309985360115D-03 -1.6267825310305D-01
   176  1.7500000000000D+00  7.5080726236793D-03 -1.6406147895096D-01
   177  1.7600000000000D+00  1.0491066865655D-02 -1.6486500553136D-01
   178  1.7700000000000D+00  1.3189016878015D-02 -1.6511608739114D-01
   179  1.7800000000000D+00  1.5611438520414D-02 -1.6484255427337D-01
   180  1.7900000000000D+00  1.7768276552085D-02 -1.6407271685608D-01
   181  1.8000000000000D+00  1.9669853386402D-02 -1.6283527100105D-01
   182  1.8100000000000D+00  2.1326818084332D-02 -1.6115920100297D-01
   183  1.8200000000000D+00  2.2750095809034D-02 -1.5907368238630D-01
   184  1.8300000000000D+00  2.3950837838192D-02 -1.5660798461579D-01
   185  1.8400000000000D+00  2.4940372380468D-02 -1.5379137436223D-01
   186  1.8500000000000D+00  2.5730156271762D-02 -1.5065301960907D-01
   187  1.8600000000000D+00  2.6331727783166D-02 -1.4722189523886D-01
   188  1.8700000000000D+00  2.6756660636838D-02 -1.4352669041416D-01
   189  1.8800000000000D+00  2.7016519391136D-02 -1.3959571823345D-01
   190  1.8900000000000D+00  2.7122816370407D-02 -1.3545682816980D-01
   191  1.9000000000000D+00  2.7086970161436D-02 -1.3113732141686D-01
   192  1.9100000000000D+00  2.6920265990772D-02 -1.2666387001785D-01
   193  1.9200000000000D+00  2.6633817824883D-02 -1.2206243941690D-01
   194  1.9300000000000D+00  2.6238532625727D-02 -1.1735821563917D-01
   195  1.9400000000000D+00  2.5745076531874D-02 -1.1257553652995D-01
   196  1.9500000000000D+00  2.5163843314924D-02 -1.0773782805150D-01
   197  1.9600000000000D+00  2.4504925037126D-02 -1.0286754547894D-01
   198  1.9700000000000D+00  2.3778084979958D-02 -9.7986119733782D-02
   199  1.9800000000000D+00  2.2992733071235D-02 -9.3113909529214D-02
   200  1.9900000000000D+00  2.2157903499218D-02 -8.8270158499696D-02
   201  2.0000000000000D+00  2.1282235041556D-02 -8.3472958838742D-02
   202  2.0100000000000D+00  2.0373953618699D-02 -7.8739220103580D-02
   203  2.0200000000000D+00  1.9440857480230D-02 -7.4084644385193D-02
   204  2.0300000000000D+00  1.8490304837794D-02 -6.9523707354467D-02
   205  2.0400000000000D+00  1.7529203869327D-02 -6.5069645010857D-02
   206  2.0500000000000D+00  1.6564005380082D-02 -6.0734446994451D-02
   207  2.0600000000000D+00  1.5600697609789D-02 -5.6528855031313D-02
   208  2.0700000000000D+00  1.4644803663140D-02 -5.2462367935416D-02
   209  2.0800000000000D+00  1.3701381110460D-02 -4.8543251893651D-02
   210  2.0900000000000D+00  1.2775023843467D-02 -4.4778556324718D-02
   211  2.1000000000000D+00  1.1869866262144D-02 -4.1174135579455D-02
   212  2.1100000000000D+00  1.0989589314805D-02 -3.7734675120920D-02
   213  2.1200000000000D+00  1.0137428808477D-02 -3.4463723464397D-02
   214  2.1300000000000D+00  9.3161854643657D-03 -3.1363728365621D-02
   215  2.1400000000000D+00  8.5282367953318D-03 -2.8436077535316D-02
   216  2.1500000000000D+00  7.7755507891085D-03 -2.5681143884265D-02
   217  2.1600000000000D+00  7.0597009762617D-03 -2.3098334076594D-02
   218  2.1700000000000D+00  6.3818831159544D-03 -2.0686141162480D-02
   219  2.1800000000000D+00  5.7429331068138D-03 -1.8442200140596D-02
   220  2.1900000000000D+00  5.1433460530015D-03 -1.6363346295561D-02
   221  2.2000000000000D+00  4.5832964507330D-03 -1.4445676279638D-02
   222  2.2100000000000D+00  4.0626591855647D-03 -1.2684611007159D-02
   223  2.2200000000000D+00  3.5810313177997D-03 -1.1074960398302D-02
   224  2.2300000000000D+00  3.1377544611035D-03 -9.6109894077672D-03
   225  2.2400000000000D+00  2.7319376204350D-03 -8.2864849457267D-03
   226  2.2500000000000D+00  2.3624802997534D-03 -7.0948232647504D-03
   227  2.2600000000000D+00  2.0280958115701D-03 -6.0290375418626D-03
   228  2.2700000000000D+00  1.7273345875500D-03 -5.0818851537087D-03
   229  2.2800000000000D+00  1.4586072791466D-03 -4.2459140823246D-03
   230  2.2900000000000D+00  1.2202077391668D-03 -3.5135286566307D-03
   231  2.3000000000000D+00  1.0103354429203D-03 -2.8770534675477D-03
   232  2.3100000000000D+00  8.2711735052402D-04 -2.3287954420883D-03
   233  2.3200000000000D+00  6.6862935143348D-04 -1.8611044534015D-03
   234  2.3300000000000D+00  5.3291652519623D-04 -1.4664303938669D-03
   235  2.3400000000000D+00  4.1801272672714D-04 -1.1373780830183D-03
   236  2.3500000000000D+00  3.2195925238122D-04 -8.6675935153290D-04
   237  2.3600000000000D+00  2.4282199474343D-04 -6.4764067383851D-04
   238  2.3700000000000D+00  1.7870775590379D-04 -4.7338819362393D-04
   239  2.3800000000000D+00  1.2777915974416D-04 -3.3770860172481D-04
   240  2.3900000000000D+00  8.8266508785012D-05 -2.3470392245735D-04
   241  2.4000000000000D+00  5.8484522191756D-05 -1.5884385372327D-04
   242  2.4100000000000D+00  3.6840339452410D-05 -1.0502637439232D-04
   243  2.4200000000000D+00  2.1826111927549D-05 -6.8460066245316D-05
   244  2.4300000000000D+00  1.2070958932416D-05 -4.5352278408185D-05
   245  2.4400000000000D+00  6.3110451472489D-06 -3.2331992477329D-05
   246  2.4500000000000D+00  3.4760472585020D-06 -2.6936439040746D-05
   247  2.4600000000000D+00  2.3530595768808D-06 -2.4740163400360D-05
   248  2.4700000000000D+00  1.9536347091469D-06 -2.2200595079035D-05
   249  2.4800000000000D+00  1.3864592602409D-06 -1.5670716068086D-05
   250  2.4900000000000D+00  6.9475635689199D-07 -7.5714057561918D-06
   251  2.5000000000000D+00  3.3389364245396D-08 -3.4854090040427D-07
   252  2.5100000000000D+00 -1.7845312344830D-07  2.1470438764969D-06
   253  2.5200000000000D+00 -1.5231946577473D-07  1.8185107288240D-06
   254  2.5300000000000D+00 -9.3804541237044D-09  1.1100860540651D-07
   255  2.5400000000000D+00  3.1858914653430D-08 -4.4410535058809D-07
   256  2.5500000000000D+00  3.0202147336762D-08 -4.2550368143895D-07
   257  2.5600000000000D+00  3.0905119132363D-09 -4.3935298808089D-08
   258  2.5700000000000D+00 -4.6308690066083D-09  5.2547156330187D-08
   259  2.5800000000000D+00 -4.9257101688389D-09  5.5892762656386D-08
   260  2.5900000000000D+00 -8.8623407439280D-10  1.0056229270533D-08
   261  2.6000000000000D+00  0.0000000000000D+00  0.0000000000000D+00
   262  2.6100000000000D+00  0.0000000000000D+00  0.0000000000000D+00
   263  2.6200000000000D+00  0.0000000000000D+00  0.0000000000000D+00
   264  2.6300000000000D+00  0.0000000000000D+00  0.0000000000000D+00
   265  2.6400000000000D+00  0.0000000000000D+00  0.0000000000000D+00
   266  2.6500000000000D+00  0.0000000000000D+00  0.0000000000000D+00
   267  2.6600000000000D+00  0.0000000000000D+00  0.0000000000000D+00
   268  2.6700000000000D+00  0.0000000000000D+00  0.0000000000000D+00
   269  2.6800000000000D+00  0.0000000000000D+00  0.0000000000000D+00
   270  2.6900000000000D+00  0.0000000000000D+00  0.0000000000000D+00
   271  2.7000000000000D+00  0.0000000000000D+00  0.0000000000000D+00
   272  2.7100000000000D+00  0.0000000000000D+00  0.0000000000000D+00
   273  2.7200000000000D+00  0.0000000000000D+00  0.0000000000000D+00
   274  2.7300000000000D+00  0.0000000000000D+00  0.0000000000000D+00
   275  2.7400000000000D+00  0.0000000000000D+00  0.0000000000000D+00
   276  2.7500000000000D+00  0.0000000000000D+00  0.0000000000000D+00
   277  2.7600000000000D+00  0.0000000000000D+00  0.0000000000000D+00
   278  2.7700000000000D+00  0.0000000000000D+00  0.0000000000000D+00
   279  2.7800000000000D+00  0.0000000000000D+00  0.0000000000000D+00
   280  2.7900000000000D+00  0.0000000000000D+00  0.0000000000000D+00
   281  2.8000000000000D+00  0.0000000000000D+00  0.0000000000000D+00
   282  2.8100000000000D+00  0.0000000000000D+00  0.0000000000000D+00
   283  2.8200000000000D+00  0.0000000000000D+00  0.0000000000000D+00
   284  2.8300000000000D+00  0.0000000000000D+00  0.0000000000000D+00
   285  2.8400000000000D+00  0.0000000000000D+00  0.0000000000000D+00
   286  2.8500000000000D+00  0.0000000000000D+00  0.0000000000000D+00
   287  2.8600000000000D+00  0.0000000000000D+00  0.0000000000000D+00
   288  2.8700000000000D+00  0.0000000000000D+00  0.0000000000000D+00
   289  2.8800000000000D+00  0.0000000000000D+00  0.0000000000000D+00
   290  2.8900000000000D+00  0.0000000000000D+00  0.0000000000000D+00
   291  2.9000000000000D+00  0.0000000000000D+00  0.0000000000000D+00
   292  2.9100000000000D+00  0.0000000000000D+00  0.0000000000000D+00
   293  2.9200000000000D+00  0.0000000000000D+00  0.0000000000000D+00
   294  2.9300000000000D+00  0.0000000000000D+00  0.0000000000000D+00
   295  2.9400000000000D+00  0.0000000000000D+00  0.0000000000000D+00
   296  2.9500000000000D+00  0.0000000000000D+00  0.0000000000000D+00
   297  2.9600000000000D+00  0.0000000000000D+00  0.0000000000000D+00
   298  2.9700000000000D+00  0.0000000000000D+00  0.0000000000000D+00
   299  2.9800000000000D+00  0.0000000000000D+00  0.0000000000000D+00
   300  2.9900000000000D+00  0.0000000000000D+00  0.0000000000000D+00
   301  3.0000000000000D+00  0.0000000000000D+00  0.0000000000000D+00
   302  3.0100000000000D+00  0.0000000000000D+00  0.0000000000000D+00
   303  3.0200000000000D+00  0.0000000000000D+00  0.0000000000000D+00
   304  3.0300000000000D+00  0.0000000000000D+00  0.0000000000000D+00
   305  3.0400000000000D+00  0.0000000000000D+00  0.0000000000000D+00
   306  3.0500000000000D+00  0.0000000000000D+00  0.0000000000000D+00
   307  3.0600000000000D+00  0.0000000000000D+00  0.0000000000000D+00
   308  3.0700000000000D+00  0.0000000000000D+00  0.0000000000000D+00
   309  3.0800000000000D+00  0.0000000000000D+00  0.0000000000000D+00
   310  3.0900000000000D+00  0.0000000000000D+00  0.0000000000000D+00
   311  3.1000000000000D+00  0.0000000000000D+00  0.0000000000000D+00
   312  3.1100000000000D+00  0.0000000000000D+00  0.0000000000000D+00
   313  3.1200000000000D+00  0.0000000000000D+00  0.0000000000000D+00
   314  3.1300000000000D+00  0.0000000000000D+00  0.0000000000000D+00
   315  3.1400000000000D+00  0.0000000000000D+00  0.0000000000000D+00
   316  3.1500000000000D+00  0.0000000000000D+00  0.0000000000000D+00
   317  3.1600000000000D+00  0.0000000000000D+00  0.0000000000000D+00
   318  3.1700000000000D+00  0.0000000000000D+00  0.0000000000000D+00
   319  3.1800000000000D+00  0.0000000000000D+00  0.0000000000000D+00
   320  3.1900000000000D+00  0.0000000000000D+00  0.0000000000000D+00
   321  3.2000000000000D+00  0.0000000000000D+00  0.0000000000000D+00
   322  3.2100000000000D+00  0.0000000000000D+00  0.0000000000000D+00
   323  3.2200000000000D+00  0.0000000000000D+00  0.0000000000000D+00
   324  3.2300000000000D+00  0.0000000000000D+00  0.0000000000000D+00
   325  3.2400000000000D+00  0.0000000000000D+00  0.0000000000000D+00
   326  3.2500000000000D+00  0.0000000000000D+00  0.0000000000000D+00
   327  3.2600000000000D+00  0.0000000000000D+00  0.0000000000000D+00
   328  3.2700000000000D+00  0.0000000000000D+00  0.0000000000000D+00
   329  3.2800000000000D+00  0.0000000000000D+00  0.0000000000000D+00
   330  3.2900000000000D+00  0.0000000000000D+00  0.0000000000000D+00
   331  3.3000000000000D+00  0.0000000000000D+00  0.0000000000000D+00
   332  3.3100000000000D+00  0.0000000000000D+00  0.0000000000000D+00
   333  3.3200000000000D+00  0.0000000000000D+00  0.0000000000000D+00
   334  3.3300000000000D+00  0.0000000000000D+00  0.0000000000000D+00
   335  3.3400000000000D+00  0.0000000000000D+00  0.0000000000000D+00
   336  3.3500000000000D+00  0.0000000000000D+00  0.0000000000000D+00
   337  3.3600000000000D+00  0.0000000000000D+00  0.0000000000000D+00
   338  3.3700000000000D+00  0.0000000000000D+00  0.0000000000000D+00
   339  3.3800000000000D+00  0.0000000000000D+00  0.0000000000000D+00
   340  3.3900000000000D+00  0.0000000000000D+00  0.0000000000000D+00
   341  3.4000000000000D+00  0.0000000000000D+00  0.0000000000000D+00
   342  3.4100000000000D+00  0.0000000000000D+00  0.0000000000000D+00
   343  3.4200000000000D+00  0.0000000000000D+00  0.0000000000000D+00
   344  3.4300000000000D+00  0.0000000000000D+00  0.0000000000000D+00
   345  3.4400000000000D+00  0.0000000000000D+00  0.0000000000000D+00
   346  3.4500000000000D+00  0.0000000000000D+00  0.0000000000000D+00
   347  3.4600000000000D+00  0.0000000000000D+00  0.0000000000000D+00
   348  3.4700000000000D+00  0.0000000000000D+00  0.0000000000000D+00
   349  3.4800000000000D+00  0.0000000000000D+00  0.0000000000000D+00
   350  3.4900000000000D+00  0.0000000000000D+00  0.0000000000000D+00
   351  3.5000000000000D+00  0.0000000000000D+00  0.0000000000000D+00
   352  3.5100000000000D+00  0.0000000000000D+00  0.0000000000000D+00
   353  3.5200000000000D+00  0.0000000000000D+00  0.0000000000000D+00
   354  3.5300000000000D+00  0.0000000000000D+00  0.0000000000000D+00
   355  3.5400000000000D+00  0.0000000000000D+00  0.0000000000000D+00
   356  3.5500000000000D+00  0.0000000000000D+00  0.0000000000000D+00
   357  3.5600000000000D+00  0.0000000000000D+00  0.0000000000000D+00
   358  3.5700000000000D+00  0.0000000000000D+00  0.0000000000000D+00
   359  3.5800000000000D+00  0.0000000000000D+00  0.0000000000000D+00
   360  3.5900000000000D+00  0.0000000000000D+00  0.0000000000000D+00
   361  3.6000000000000D+00  0.0000000000000D+00  0.0000000000000D+00
   362  3.6100000000000D+00  0.0000000000000D+00  0.0000000000000D+00
   363  3.6200000000000D+00  0.0000000000000D+00  0.0000000000000D+00
   364  3.6300000000000D+00  0.0000000000000D+00  0.0000000000000D+00
   365  3.6400000000000D+00  0.0000000000000D+00  0.0000000000000D+00
   366  3.6500000000000D+00  0.0000000000000D+00  0.0000000000000D+00
   367  3.6600000000000D+00  0.0000000000000D+00  0.0000000000000D+00
   368  3.6700000000000D+00  0.0000000000000D+00  0.0000000000000D+00
   369  3.6800000000000D+00  0.0000000000000D+00  0.0000000000000D+00
   370  3.6900000000000D+00  0.0000000000000D+00  0.0000000000000D+00
   371  3.7000000000000D+00  0.0000000000000D+00  0.0000000000000D+00
   372  3.7100000000000D+00  0.0000000000000D+00  0.0000000000000D+00
   373  3.7200000000000D+00  0.0000000000000D+00  0.0000000000000D+00
   374  3.7300000000000D+00  0.0000000000000D+00  0.0000000000000D+00
   375  3.7400000000000D+00  0.0000000000000D+00  0.0000000000000D+00
   376  3.7500000000000D+00  0.0000000000000D+00  0.0000000000000D+00
   377  3.7600000000000D+00  0.0000000000000D+00  0.0000000000000D+00
   378  3.7700000000000D+00  0.0000000000000D+00  0.0000000000000D+00
   379  3.7800000000000D+00  0.0000000000000D+00  0.0000000000000D+00
   380  3.7900000000000D+00  0.0000000000000D+00  0.0000000000000D+00
   381  3.8000000000000D+00  0.0000000000000D+00  0.0000000000000D+00
   382  3.8100000000000D+00  0.0000000000000D+00  0.0000000000000D+00
   383  3.8200000000000D+00  0.0000000000000D+00  0.0000000000000D+00
   384  3.8300000000000D+00  0.0000000000000D+00  0.0000000000000D+00
   385  3.8400000000000D+00  0.0000000000000D+00  0.0000000000000D+00
   386  3.8500000000000D+00  0.0000000000000D+00  0.0000000000000D+00
   387  3.8600000000000D+00  0.0000000000000D+00  0.0000000000000D+00
   388  3.8700000000000D+00  0.0000000000000D+00  0.0000000000000D+00
   389  3.8800000000000D+00  0.0000000000000D+00  0.0000000000000D+00
   390  3.8900000000000D+00  0.0000000000000D+00  0.0000000000000D+00
   391  3.9000000000000D+00  0.0000000000000D+00  0.0000000000000D+00
   392  3.9100000000000D+00  0.0000000000000D+00  0.0000000000000D+00
   393  3.9200000000000D+00  0.0000000000000D+00  0.0000000000000D+00
   394  3.9300000000000D+00  0.0000000000000D+00  0.0000000000000D+00
   395  3.9400000000000D+00  0.0000000000000D+00  0.0000000000000D+00
   396  3.9500000000000D+00  0.0000000000000D+00  0.0000000000000D+00
   397  3.9600000000000D+00  0.0000000000000D+00  0.0000000000000D+00
   398  3.9700000000000D+00  0.0000000000000D+00  0.0000000000000D+00
   399  3.9800000000000D+00  0.0000000000000D+00  0.0000000000000D+00
   400  3.9900000000000D+00  0.0000000000000D+00  0.0000000000000D+00
   401  4.0000000000000D+00  0.0000000000000D+00  0.0000000000000D+00
   402  4.0100000000000D+00  0.0000000000000D+00  0.0000000000000D+00
   403  4.0200000000000D+00  0.0000000000000D+00  0.0000000000000D+00
   404  4.0300000000000D+00  0.0000000000000D+00  0.0000000000000D+00
   405  4.0400000000000D+00  0.0000000000000D+00  0.0000000000000D+00
   406  4.0500000000000D+00  0.0000000000000D+00  0.0000000000000D+00
   407  4.0600000000000D+00  0.0000000000000D+00  0.0000000000000D+00
   408  4.0700000000000D+00  0.0000000000000D+00  0.0000000000000D+00
   409  4.0800000000000D+00  0.0000000000000D+00  0.0000000000000D+00
   410  4.0900000000000D+00  0.0000000000000D+00  0.0000000000000D+00
   411  4.1000000000000D+00  0.0000000000000D+00  0.0000000000000D+00
   412  4.1100000000000D+00  0.0000000000000D+00  0.0000000000000D+00
   413  4.1200000000000D+00  0.0000000000000D+00  0.0000000000000D+00
   414  4.1300000000000D+00  0.0000000000000D+00  0.0000000000000D+00
   415  4.1400000000000D+00  0.0000000000000D+00  0.0000000000000D+00
   416  4.1500000000000D+00  0.0000000000000D+00  0.0000000000000D+00
   417  4.1600000000000D+00  0.0000000000000D+00  0.0000000000000D+00
   418  4.1700000000000D+00  0.0000000000000D+00  0.0000000000000D+00
   419  4.1800000000000D+00  0.0000000000000D+00  0.0000000000000D+00
   420  4.1900000000000D+00  0.0000000000000D+00  0.0000000000000D+00
   421  4.2000000000000D+00  0.0000000000000D+00  0.0000000000000D+00
   422  4.2100000000000D+00  0.0000000000000D+00  0.0000000000000D+00