Pt    ONCVPSP-3.3.1  r_core=   2.32041   2.32041   2.23884   3.01673
     78.0000     18.0000      210905    zatom,zion,pspd
     8 -116133   3     4   600     0    pspcod,pspxc,lmax,lloc,mmax,r2well
  5.99000000  0.00000000  0.00000000    rchrg fchrg qchrg
     2     4     4     3    nproj
     3     1           extension_switch
     4     4     4    nprojso
   0                         1.2733843089625D+00  6.3883677770292D+00
     1  0.0000000000000D+00 -2.0799612032718D-11  5.5372373353180D-12
     2  1.0000000000000D-02 -8.3366584467849D-03  5.8154554236730D-02
     3  2.0000000000000D-02 -1.6634072244425D-02  1.1621886577854D-01
     4  3.0000000000000D-02 -2.4853005621676D-02  1.7410283397099D-01
     5  4.0000000000000D-02 -3.2954241162135D-02  2.3171664217796D-01
     6  5.0000000000000D-02 -4.0898590473956D-02  2.8897089963302D-01
     7  6.0000000000000D-02 -4.8646906635543D-02  3.4577678309731D-01
     8  7.0000000000000D-02 -5.6160098984660D-02  4.0204617825299D-01
     9  8.0000000000000D-02 -6.3399150797602D-02  4.5769182075574D-01
    10  9.0000000000000D-02 -7.0325140379274D-02  5.1262743686276D-01
    11  1.0000000000000D-01 -7.6899266054559D-02  5.6676788354480D-01
    12  1.1000000000000D-01 -8.3082875516212D-02  6.2002928798156D-01
    13  1.2000000000000D-01 -8.8837499945132D-02  6.7232918632933D-01
    14  1.3000000000000D-01 -9.4124893275452D-02  7.2358666163865D-01
    15  1.4000000000000D-01 -9.8907076929595D-02  7.7372248078743D-01
    16  1.5000000000000D-01 -1.0314639029788D-01  8.2265923028227D-01
    17  1.6000000000000D-01 -1.0680554718349D-01  8.7032145076708D-01
    18  1.7000000000000D-01 -1.0984769837710D-01  9.1663577006397D-01
    19  1.8000000000000D-01 -1.1223650046690D-01  9.6153103455724D-01
    20  1.9000000000000D-01 -1.1393619092875D-01  1.0049384387165D+00
    21  2.0000000000000D-01 -1.1491166947919D-01  1.0467916525400D+00
    22  2.1000000000000D-01 -1.1512858561082D-01  1.0870269466857D+00
    23  2.2000000000000D-01 -1.1455343216537D-01  1.1255833150412D+00
    24  2.3000000000000D-01 -1.1315364473605D-01  1.1624025944719D+00
    25  2.4000000000000D-01 -1.1089770662675D-01  1.1974295814724D+00
    26  2.5000000000000D-01 -1.0775525903264D-01  1.2306121454317D+00
    27  2.6000000000000D-01 -1.0369721604493D-01  1.2619013382149D+00
    28  2.7000000000000D-01 -9.8695884022090D-02  1.2912514997481D+00
    29  2.8000000000000D-01 -9.2725084811949D-02  1.3186203592878D+00
    30  2.9000000000000D-01 -8.5760282253151D-02  1.3439691320451D+00
    31  3.0000000000000D-01 -7.7778711331831D-02  1.3672626108287D+00
    32  3.1000000000000D-01 -6.8759509319950D-02  1.3884692523651D+00
    33  3.2000000000000D-01 -5.8683848175922D-02  1.4075612579502D+00
    34  3.3000000000000D-01 -4.7535067446655D-02  1.4245146480862D+00
    35  3.4000000000000D-01 -3.5298806872709D-02  1.4393093307536D+00
    36  3.5000000000000D-01 -2.1963137865904D-02  1.4519291629747D+00
    37  3.6000000000000D-01 -7.5186930011356D-03  1.4623620053248D+00
    38  3.7000000000000D-01  8.0412073581478D-03  1.4705997690560D+00
    39  3.8000000000000D-01  2.4720432198017D-02  1.4766384555040D+00
    40  3.9000000000000D-01  4.2519921664046D-02  1.4804781874618D+00
    41  4.0000000000000D-01  6.1437574456805D-02  1.4821232322131D+00
    42  4.1000000000000D-01  8.1468141725726D-02  1.4815820159361D+00
    43  4.2000000000000D-01  1.0260312836748D-01  1.4788671292034D+00
    44  4.3000000000000D-01  1.2483070262215D-01  1.4739953233232D+00
    45  4.4000000000000D-01  1.4813561484148D-01  1.4669874972902D+00
    46  4.5000000000000D-01  1.7249912627857D-01  1.4578686751342D+00
    47  4.6000000000000D-01  1.9789894871726D-01  1.4466679734855D+00
    48  4.7000000000000D-01  2.2430919572246D-01  1.4334185591973D+00
    49  4.8000000000000D-01  2.5170034625024D-01  1.4181575969022D+00
    50  4.9000000000000D-01  2.8003922130791D-01  1.4009261864028D+00
    51  5.0000000000000D-01  3.0928897430088D-01  1.3817692898380D+00
    52  5.1000000000000D-01  3.3940909564428D-01  1.3607356485944D+00
    53  5.2000000000000D-01  3.7035543215378D-01  1.3378776899706D+00
    54  5.3000000000000D-01  4.0208022166189D-01  1.3132514236417D+00
    55  5.4000000000000D-01  4.3453214323384D-01  1.2869163280041D+00
    56  5.5000000000000D-01  4.6765638328116D-01  1.2589352265258D+00
    57  5.6000000000000D-01  5.0139471779141D-01  1.2293741542630D+00
    58  5.7000000000000D-01  5.3568561081068D-01  1.1983022147454D+00
    59  5.8000000000000D-01  5.7046432922991D-01  1.1657914274746D+00
    60  5.9000000000000D-01  6.0566307383986D-01  1.1319165663189D+00
    61  6.0000000000000D-01  6.4121112653075D-01  1.0967549891290D+00
    62  6.1000000000000D-01  6.7703501342317D-01  1.0603864589411D+00
    63  6.2000000000000D-01  7.1305868362704D-01  1.0228929571696D+00
    64  6.3000000000000D-01  7.4920370323506D-01  9.8435848923683D-01
    65  6.4000000000000D-01  7.8538946406806D-01  9.4486888311842D-01
    66  6.5000000000000D-01  8.2153340660077D-01  9.0451158132537D-01
    67  6.6000000000000D-01  8.5755125640979D-01  8.6337542687594D-01
    68  6.7000000000000D-01  8.9335727340105D-01  8.2155044384578D-01
    69  6.8000000000000D-01  9.2886451299131D-01  7.7912761311610D-01
    70  6.9000000000000D-01  9.6398509833951D-01  7.3619864396989D-01
    71  7.0000000000000D-01  9.9863050264843D-01  6.9285574221368D-01
    72  7.1000000000000D-01  1.0327118404851D+00  6.4919137552785D-01
    73  7.2000000000000D-01  1.0661401670021D+00  6.0529803677096D-01
    74  7.3000000000000D-01  1.0988267838799D+00  5.6126800598374D-01
    75  7.4000000000000D-01  1.1306835507522D+00  5.1719311185547D-01
    76  7.5000000000000D-01  1.1616232008291D+00  4.7316449342940D-01
    77  7.6000000000000D-01  1.1915596593822D+00  4.2927236283500D-01
    78  7.7000000000000D-01  1.2204083637243D+00  3.8560576984239D-01
    79  7.8000000000000D-01  1.2480865832772D+00  3.4225236903879D-01
    80  7.9000000000000D-01  1.2745137383028D+00  2.9929819042774D-01
    81  8.0000000000000D-01  1.2996117158502D+00  2.5682741424937D-01
    82  8.1000000000000D-01  1.3233051814622D+00  2.1492215081421D-01
    83  8.2000000000000D-01  1.3455218851833D+00  1.7366222613337D-01
    84  8.3000000000000D-01  1.3661929604123D+00  1.3312497411515D-01
    85  8.4000000000000D-01  1.3852532141565D+00  9.3385036081728D-02
    86  8.5000000000000D-01  1.4026414072633D+00  5.4514168339548D-02
    87  8.6000000000000D-01  1.4183005232307D+00  1.6581058514164D-02
    88  8.7000000000000D-01  1.4321780242333D+00 -2.0348848666599D-02
    89  8.8000000000000D-01  1.4442260930416D+00 -5.6213515486732D-02
    90  8.9000000000000D-01  1.4544018595581D+00 -9.0954464631870D-02
    91  9.0000000000000D-01  1.4626676107533D+00 -1.2451692126909D-01
    92  9.1000000000000D-01  1.4689909828408D+00 -1.5684994326943D-01
    93  9.2000000000000D-01  1.4733451346036D+00 -1.8790653906711D-01
    94  9.3000000000000D-01  1.4757089008534D+00 -2.1764377269312D-01
    95  9.4000000000000D-01  1.4760669250849D+00 -2.4602285556670D-01
    96  9.5000000000000D-01  1.4744097704745D+00 -2.7300922467629D-01
    97  9.6000000000000D-01  1.4707340084568D+00 -2.9857260683134D-01
    98  9.7000000000000D-01  1.4650422842082D+00 -3.2268706871766D-01
    99  9.8000000000000D-01  1.4573433584662D+00 -3.4533105254264D-01
   100  9.9000000000000D-01  1.4476521252075D+00 -3.6648739710861D-01
   101  1.0000000000000D+00  1.4359896048162D+00 -3.8614334420974D-01
   102  1.0100000000000D+00  1.4223829124757D+00 -4.0429053030193D-01
   103  1.0200000000000D+00  1.4068652016256D+00 -4.2092496345082D-01
   104  1.0300000000000D+00  1.3894755824317D+00 -4.3604698561934D-01
   105  1.0400000000000D+00  1.3702590153274D+00 -4.4966122041192D-01
   106  1.0500000000000D+00  1.3492661797889D+00 -4.6177650644664D-01
   107  1.0600000000000D+00  1.3265533186168D+00 -4.7240581658086D-01
   108  1.0700000000000D+00  1.3021820581018D+00 -4.8156616327123D-01
   109  1.0800000000000D+00  1.2762192045570D+00 -4.8927849039810D-01
   110  1.0900000000000D+00  1.2487365177997D+00 -4.9556755193790D-01
   111  1.1000000000000D+00  1.2198104622630D+00 -5.0046177791234D-01
   112  1.1100000000000D+00  1.1895219365138D+00 -5.0399312809166D-01
   113  1.1200000000000D+00  1.1579559820458D+00 -5.0619693397494D-01
   114  1.1300000000000D+00  1.1252014723022D+00 -5.0711172961051D-01
   115  1.1400000000000D+00  1.0913507829636D+00 -5.0677907185983D-01
   116  1.1500000000000D+00  1.0564994446064D+00 -5.0524335074116D-01
   117  1.1600000000000D+00  1.0207457789204D+00 -5.0255159052943D-01
   118  1.1700000000000D+00  9.8419051973062D-01 -4.9875324231412D-01
   119  1.1800000000000D+00  9.4693642012146D-01 -4.9389996874356D-01
   120  1.1900000000000D+00  9.0908784701834D-01 -4.8804542170860D-01
   121  1.2000000000000D+00  8.7075036462682D-01 -4.8124501374068D-01
   122  1.2100000000000D+00  8.3203030816277D-01 -4.7355568391265D-01
   123  1.2200000000000D+00  7.9303434932928D-01 -4.6503565904163D-01
   124  1.2300000000000D+00  7.5386905503366D-01 -4.5574421100836D-01
   125  1.2400000000000D+00  7.1464044083697D-01 -4.4574141100579D-01
   126  1.2500000000000D+00  6.7545352063948D-01 -4.3508788153407D-01
   127  1.2600000000000D+00  6.3641185411057D-01 -4.2384454695873D-01
   128  1.2700000000000D+00  5.9761709334884D-01 -4.1207238343616D-01
   129  1.2800000000000D+00  5.5916853025377D-01 -3.9983216900725D-01
   130  1.2900000000000D+00  5.2116264607056D-01 -3.8718423464811D-01
   131  1.3000000000000D+00  4.8369266451135D-01 -3.7418821703585D-01
   132  1.3100000000000D+00  4.4684810985656D-01 -3.6090281378746D-01
   133  1.3200000000000D+00  4.1071437138253D-01 -3.4738554189893D-01
   134  1.3300000000000D+00  3.7537227536731D-01 -3.3369250006308D-01
   135  1.3400000000000D+00  3.4089766596502D-01 -3.1987813556446D-01
   136  1.3500000000000D+00  3.0736099609296D-01 -3.0599501637372D-01
   137  1.3600000000000D+00  2.7482692939798D-01 -2.9209360902482D-01
   138  1.3700000000000D+00  2.4335395444012D-01 -2.7822206289427D-01
   139  1.3800000000000D+00  2.1299401193664D-01 -2.6442600135155D-01
   140  1.3900000000000D+00  1.8379213540170D-01 -2.5074832012740D-01
   141  1.4000000000000D+00  1.5578610533421D-01 -2.3722899317180D-01
   142  1.4100000000000D+00  1.2900611727007D-01 -2.2390488601461D-01
   143  1.4200000000000D+00  1.0347451815238D-01 -2.1080959375026D-01
   144  1.4300000000000D+00  7.9205569217915D-02 -1.9797328828104D-01
   145  1.4400000000000D+00  5.6204470446742D-02 -1.8542236306957D-01
   146  1.4500000000000D+00  3.4468734885349D-02 -1.7317974710426D-01
   147  1.4600000000000D+00  1.3990258145589D-02 -1.6126541900364D-01
   148  1.4700000000000D+00 -5.2425722332567D-03 -1.4969700331474D-01
   149  1.4800000000000D+00 -2.3243170290841D-02 -1.3849026103525D-01
   150  1.4900000000000D+00 -4.0027378567310D-02 -1.2765894110274D-01
   151  1.5000000000000D+00 -5.5613402329238D-02 -1.1721482785222D-01
   152  1.5100000000000D+00 -7.0021644544323D-02 -1.0716781353716D-01
   153  1.5200000000000D+00 -8.3274651249749D-02 -9.7525944287471D-02
   154  1.5300000000000D+00 -9.5397015505625D-02 -8.8295478690410D-02
   155  1.5400000000000D+00 -1.0641528303832D-01 -7.9480947470134D-02
   156  1.5500000000000D+00 -1.1635784821417D-01 -7.1085217236396D-02
   157  1.5600000000000D+00 -1.2525484334804D-01 -6.3109557380943D-02
   158  1.5700000000000D+00 -1.3313802206293D-01 -5.5553709792061D-02
   159  1.5800000000000D+00 -1.4004063727353D-01 -4.8415961117920D-02
   160  1.5900000000000D+00 -1.4599731448720D-01 -4.1693217258750D-02
   161  1.6000000000000D+00 -1.5104392105363D-01 -3.5381079794519D-02
   162  1.6100000000000D+00 -1.5521743204957D-01 -2.9473924030998D-02
   163  1.6200000000000D+00 -1.5855579344697D-01 -2.3964978364832D-02
   164  1.6300000000000D+00 -1.6109778326280D-01 -1.8846404645058D-02
   165  1.6400000000000D+00 -1.6288287131393D-01 -1.4109379243819D-02
   166  1.6500000000000D+00 -1.6395107830569D-01 -9.7441745004038D-03
   167  1.6600000000000D+00 -1.6434283481334D-01 -5.7402402802721D-03
   168  1.6700000000000D+00 -1.6409884092964D-01 -2.0862852939028D-03
   169  1.6800000000000D+00 -1.6325992704144D-01  1.2296420401480D-03
   170  1.6900000000000D+00 -1.6186691655862D-01  4.2200735648569D-03
   171  1.7000000000000D+00 -1.5996049094040D-01  6.8980423506343D-03
   172  1.7100000000000D+00 -1.5758105788845D-01  9.2770050541687D-03
   173  1.7200000000000D+00 -1.5476862292332D-01  1.1370765777702D-02
   174  1.7300000000000D+00 -1.5156266524478D-01  1.3193401838187D-02
   175  1.7400000000000D+00 -1.4800201798301D-01  1.4759191505152D-02
   176  1.7500000000000D+00 -1.4412475371065D-01  1.6082544105137D-02
   177  1.7600000000000D+00 -1.3996807520900D-01  1.7177932504365D-02
   178  1.7700000000000D+00 -1.3556821240818D-01  1.8059828377919D-02
   179  1.7800000000000D+00 -1.3096032546740D-01  1.8742640264827D-02
   180  1.7900000000000D+00 -1.2617841452248D-01  1.9240654669167D-02
   181  1.8000000000000D+00 -1.2125523619376D-01  1.9567980255194D-02
   182  1.8100000000000D+00 -1.1622222740071D-01  1.9738495378143D-02
   183  1.8200000000000D+00 -1.1110943657060D-01  1.9765799011092D-02
   184  1.8300000000000D+00 -1.0594546236574D-01  1.9663165132042D-02
   185  1.8400000000000D+00 -1.0075740057490D-01  1.9443500850269D-02
   186  1.8500000000000D+00 -9.5570798506407D-02  1.9119308016226D-02
   187  1.8600000000000D+00 -9.0409617269643D-02  1.8702648540126D-02
   188  1.8700000000000D+00 -8.5296201501367D-02  1.8205113188504D-02
   189  1.8800000000000D+00 -8.0251258031773D-02  1.7637794497137D-02
   190  1.8900000000000D+00 -7.5293841559506D-02  1.7011263027748D-02
   191  1.9000000000000D+00 -7.0441348880081D-02  1.6335547613402D-02
   192  1.9100000000000D+00 -6.5709520598880D-02  1.5620119145015D-02
   193  1.9200000000000D+00 -6.1112450202623D-02  1.4873877897631D-02
   194  1.9300000000000D+00 -5.6662600245545D-02  1.4105144296877D-02
   195  1.9400000000000D+00 -5.2370825502063D-02  1.3321653041896D-02
   196  1.9500000000000D+00 -4.8246403641807D-02  1.2530550829209D-02
   197  1.9600000000000D+00 -4.4297071703494D-02  1.1738396970016D-02
   198  1.9700000000000D+00 -4.0529069450328D-02  1.0951167374286D-02
   199  1.9800000000000D+00 -3.6947188173747D-02  1.0174261278997D-02
   200  1.9900000000000D+00 -3.3554825124899D-02  9.4125108341984D-03
   201  2.0000000000000D+00 -3.0354042944957D-02  8.6701932726263D-03
   202  2.0100000000000D+00 -2.7345633657810D-02  7.9510454769996D-03
   203  2.0200000000000D+00 -2.4529187255703D-02  7.2582809719322D-03
   204  2.0300000000000D+00 -2.1903163721353D-02  6.5946088418373D-03
   205  2.0400000000000D+00 -1.9464968615217D-02  5.9622546590224D-03
   206  2.0500000000000D+00 -1.7211031365996D-02  5.3629830347577D-03
   207  2.0600000000000D+00 -1.5136885948827D-02  4.7981216767583D-03
   208  2.0700000000000D+00 -1.3237253464005D-02  4.2685867505628D-03
   209  2.0800000000000D+00 -1.1506126065570D-02  3.7749092975632D-03
   210  2.0900000000000D+00 -9.9368517154937D-03  3.3172625164739D-03
   211  2.1000000000000D+00 -8.5222194189330D-03  2.8954897342698D-03
   212  2.1100000000000D+00 -7.2545442505839D-03  2.5091327954709D-03
   213  2.1200000000000D+00 -6.1257517376511D-03  2.1574606811898D-03
   214  2.1300000000000D+00 -5.1274614369049D-03  1.8394982752033D-03
   215  2.1400000000000D+00 -4.2510684998656D-03  1.5540547930722D-03
   216  2.1500000000000D+00 -3.4878237164070D-03  1.2997520499892D-03
   217  2.1600000000000D+00 -2.8289108743150D-03  1.0750520940484D-03
   218  2.1700000000000D+00 -2.2655210619200D-03  8.7828404269849D-04
   219  2.1800000000000D+00 -1.7889244575653D-03  7.0767033078453D-04
   220  2.1900000000000D+00 -1.3905374620796D-03  5.6135149297921D-04
   221  2.2000000000000D+00 -1.0619866313088D-03  4.3741006122113D-04
   222  2.2100000000000D+00 -7.9516816886526D-04  3.3389306401419D-04
   223  2.2200000000000D+00 -5.8230218321716D-04  2.4883279311742D-04
   224  2.2300000000000D+00 -4.1598317439691D-04  1.8026642846556D-04
   225  2.2400000000000D+00 -2.8922894757302D-04  1.2625318715608D-04
   226  2.2500000000000D+00 -1.9553187254644D-04  8.4889259289915D-05
   227  2.2600000000000D+00 -1.2878989273593D-04  5.4329479733194D-05
   228  2.2700000000000D+00 -8.3336527171337D-05  3.2770438715639D-05
   229  2.2800000000000D+00 -5.4351220622726D-05  1.8510137056168D-05
   230  2.2900000000000D+00 -3.7932551920128D-05  9.9660018305092D-06
   231  2.3000000000000D+00 -3.1008674685997D-05  5.7335285910520D-06
   232  2.3100000000000D+00 -2.8377636531040D-05  4.0690896400081D-06
   233  2.3200000000000D+00 -2.5223086937108D-05  3.3916505519187D-06
   234  2.3300000000000D+00 -1.6897050455133D-05  2.2669048034282D-06
   235  2.3400000000000D+00 -7.0096354567882D-06  9.6300761695493D-07
   236  2.3500000000000D+00  7.3975440648218D-07 -9.3882249960427D-08
   237  2.3600000000000D+00  2.6096558328981D-06 -3.3155589454542D-07
   238  2.3700000000000D+00  1.4338548003981D-06 -1.8281465320011D-07
   239  2.3800000000000D+00 -2.6300437570923D-07  3.0876491712135D-08
   240  2.3900000000000D+00 -5.6943492681092D-07  6.6307270385598D-08
   241  2.4000000000000D+00 -2.6764623262263D-07  3.0954887977761D-08
   242  2.4100000000000D+00  4.1371102121353D-08 -5.5647921881490D-09
   243  2.4200000000000D+00  7.0124331873721D-08 -9.4323649649313D-09
   244  2.4300000000000D+00  2.6964744388979D-08 -3.6270051131603D-09
   245  2.4400000000000D+00  0.0000000000000D+00  0.0000000000000D+00
   246  2.4500000000000D+00  0.0000000000000D+00  0.0000000000000D+00
   247  2.4600000000000D+00  0.0000000000000D+00  0.0000000000000D+00
   248  2.4700000000000D+00  0.0000000000000D+00  0.0000000000000D+00
   249  2.4800000000000D+00  0.0000000000000D+00  0.0000000000000D+00
   250  2.4900000000000D+00  0.0000000000000D+00  0.0000000000000D+00
   251  2.5000000000000D+00  0.0000000000000D+00  0.0000000000000D+00
   252  2.5100000000000D+00  0.0000000000000D+00  0.0000000000000D+00
   253  2.5200000000000D+00  0.0000000000000D+00  0.0000000000000D+00
   254  2.5300000000000D+00  0.0000000000000D+00  0.0000000000000D+00
   255  2.5400000000000D+00  0.0000000000000D+00  0.0000000000000D+00
   256  2.5500000000000D+00  0.0000000000000D+00  0.0000000000000D+00
   257  2.5600000000000D+00  0.0000000000000D+00  0.0000000000000D+00
   258  2.5700000000000D+00  0.0000000000000D+00  0.0000000000000D+00
   259  2.5800000000000D+00  0.0000000000000D+00  0.0000000000000D+00
   260  2.5900000000000D+00  0.0000000000000D+00  0.0000000000000D+00
   261  2.6000000000000D+00  0.0000000000000D+00  0.0000000000000D+00
   262  2.6100000000000D+00  0.0000000000000D+00  0.0000000000000D+00
   263  2.6200000000000D+00  0.0000000000000D+00  0.0000000000000D+00
   264  2.6300000000000D+00  0.0000000000000D+00  0.0000000000000D+00
   265  2.6400000000000D+00  0.0000000000000D+00  0.0000000000000D+00
   266  2.6500000000000D+00  0.0000000000000D+00  0.0000000000000D+00
   267  2.6600000000000D+00  0.0000000000000D+00  0.0000000000000D+00
   268  2.6700000000000D+00  0.0000000000000D+00  0.0000000000000D+00
   269  2.6800000000000D+00  0.0000000000000D+00  0.0000000000000D+00
   270  2.6900000000000D+00  0.0000000000000D+00  0.0000000000000D+00
   271  2.7000000000000D+00  0.0000000000000D+00  0.0000000000000D+00
   272  2.7100000000000D+00  0.0000000000000D+00  0.0000000000000D+00
   273  2.7200000000000D+00  0.0000000000000D+00  0.0000000000000D+00
   274  2.7300000000000D+00  0.0000000000000D+00  0.0000000000000D+00
   275  2.7400000000000D+00  0.0000000000000D+00  0.0000000000000D+00
   276  2.7500000000000D+00  0.0000000000000D+00  0.0000000000000D+00
   277  2.7600000000000D+00  0.0000000000000D+00  0.0000000000000D+00
   278  2.7700000000000D+00  0.0000000000000D+00  0.0000000000000D+00
   279  2.7800000000000D+00  0.0000000000000D+00  0.0000000000000D+00
   280  2.7900000000000D+00  0.0000000000000D+00  0.0000000000000D+00
   281  2.8000000000000D+00  0.0000000000000D+00  0.0000000000000D+00
   282  2.8100000000000D+00  0.0000000000000D+00  0.0000000000000D+00
   283  2.8200000000000D+00  0.0000000000000D+00  0.0000000000000D+00
   284  2.8300000000000D+00  0.0000000000000D+00  0.0000000000000D+00
   285  2.8400000000000D+00  0.0000000000000D+00  0.0000000000000D+00
   286  2.8500000000000D+00  0.0000000000000D+00  0.0000000000000D+00
   287  2.8600000000000D+00  0.0000000000000D+00  0.0000000000000D+00
   288  2.8700000000000D+00  0.0000000000000D+00  0.0000000000000D+00
   289  2.8800000000000D+00  0.0000000000000D+00  0.0000000000000D+00
   290  2.8900000000000D+00  0.0000000000000D+00  0.0000000000000D+00
   291  2.9000000000000D+00  0.0000000000000D+00  0.0000000000000D+00
   292  2.9100000000000D+00  0.0000000000000D+00  0.0000000000000D+00
   293  2.9200000000000D+00  0.0000000000000D+00  0.0000000000000D+00
   294  2.9300000000000D+00  0.0000000000000D+00  0.0000000000000D+00
   295  2.9400000000000D+00  0.0000000000000D+00  0.0000000000000D+00
   296  2.9500000000000D+00  0.0000000000000D+00  0.0000000000000D+00
   297  2.9600000000000D+00  0.0000000000000D+00  0.0000000000000D+00
   298  2.9700000000000D+00  0.0000000000000D+00  0.0000000000000D+00
   299  2.9800000000000D+00  0.0000000000000D+00  0.0000000000000D+00
   300  2.9900000000000D+00  0.0000000000000D+00  0.0000000000000D+00
   301  3.0000000000000D+00  0.0000000000000D+00  0.0000000000000D+00
   302  3.0100000000000D+00  0.0000000000000D+00  0.0000000000000D+00
   303  3.0200000000000D+00  0.0000000000000D+00  0.0000000000000D+00
   304  3.0300000000000D+00  0.0000000000000D+00  0.0000000000000D+00
   305  3.0400000000000D+00  0.0000000000000D+00  0.0000000000000D+00
   306  3.0500000000000D+00  0.0000000000000D+00  0.0000000000000D+00
   307  3.0600000000000D+00  0.0000000000000D+00  0.0000000000000D+00
   308  3.0700000000000D+00  0.0000000000000D+00  0.0000000000000D+00
   309  3.0800000000000D+00  0.0000000000000D+00  0.0000000000000D+00
   310  3.0900000000000D+00  0.0000000000000D+00  0.0000000000000D+00
   311  3.1000000000000D+00  0.0000000000000D+00  0.0000000000000D+00
   312  3.1100000000000D+00  0.0000000000000D+00  0.0000000000000D+00
   313  3.1200000000000D+00  0.0000000000000D+00  0.0000000000000D+00
   314  3.1300000000000D+00  0.0000000000000D+00  0.0000000000000D+00
   315  3.1400000000000D+00  0.0000000000000D+00  0.0000000000000D+00
   316  3.1500000000000D+00  0.0000000000000D+00  0.0000000000000D+00
   317  3.1600000000000D+00  0.0000000000000D+00  0.0000000000000D+00
   318  3.1700000000000D+00  0.0000000000000D+00  0.0000000000000D+00
   319  3.1800000000000D+00  0.0000000000000D+00  0.0000000000000D+00
   320  3.1900000000000D+00  0.0000000000000D+00  0.0000000000000D+00
   321  3.2000000000000D+00  0.0000000000000D+00  0.0000000000000D+00
   322  3.2100000000000D+00  0.0000000000000D+00  0.0000000000000D+00
   323  3.2200000000000D+00  0.0000000000000D+00  0.0000000000000D+00
   324  3.2300000000000D+00  0.0000000000000D+00  0.0000000000000D+00
   325  3.2400000000000D+00  0.0000000000000D+00  0.0000000000000D+00
   326  3.2500000000000D+00  0.0000000000000D+00  0.0000000000000D+00
   327  3.2600000000000D+00  0.0000000000000D+00  0.0000000000000D+00
   328  3.2700000000000D+00  0.0000000000000D+00  0.0000000000000D+00
   329  3.2800000000000D+00  0.0000000000000D+00  0.0000000000000D+00
   330  3.2900000000000D+00  0.0000000000000D+00  0.0000000000000D+00
   331  3.3000000000000D+00  0.0000000000000D+00  0.0000000000000D+00
   332  3.3100000000000D+00  0.0000000000000D+00  0.0000000000000D+00
   333  3.3200000000000D+00  0.0000000000000D+00  0.0000000000000D+00
   334  3.3300000000000D+00  0.0000000000000D+00  0.0000000000000D+00
   335  3.3400000000000D+00  0.0000000000000D+00  0.0000000000000D+00
   336  3.3500000000000D+00  0.0000000000000D+00  0.0000000000000D+00
   337  3.3600000000000D+00  0.0000000000000D+00  0.0000000000000D+00
   338  3.3700000000000D+00  0.0000000000000D+00  0.0000000000000D+00
   339  3.3800000000000D+00  0.0000000000000D+00  0.0000000000000D+00
   340  3.3900000000000D+00  0.0000000000000D+00  0.0000000000000D+00
   341  3.4000000000000D+00  0.0000000000000D+00  0.0000000000000D+00
   342  3.4100000000000D+00  0.0000000000000D+00  0.0000000000000D+00
   343  3.4200000000000D+00  0.0000000000000D+00  0.0000000000000D+00
   344  3.4300000000000D+00  0.0000000000000D+00  0.0000000000000D+00
   345  3.4400000000000D+00  0.0000000000000D+00  0.0000000000000D+00
   346  3.4500000000000D+00  0.0000000000000D+00  0.0000000000000D+00
   347  3.4600000000000D+00  0.0000000000000D+00  0.0000000000000D+00
   348  3.4700000000000D+00  0.0000000000000D+00  0.0000000000000D+00
   349  3.4800000000000D+00  0.0000000000000D+00  0.0000000000000D+00
   350  3.4900000000000D+00  0.0000000000000D+00  0.0000000000000D+00
   351  3.5000000000000D+00  0.0000000000000D+00  0.0000000000000D+00
   352  3.5100000000000D+00  0.0000000000000D+00  0.0000000000000D+00
   353  3.5200000000000D+00  0.0000000000000D+00  0.0000000000000D+00
   354  3.5300000000000D+00  0.0000000000000D+00  0.0000000000000D+00
   355  3.5400000000000D+00  0.0000000000000D+00  0.0000000000000D+00
   356  3.5500000000000D+00  0.0000000000000D+00  0.0000000000000D+00
   357  3.5600000000000D+00  0.0000000000000D+00  0.0000000000000D+00
   358  3.5700000000000D+00  0.0000000000000D+00  0.0000000000000D+00
   359  3.5800000000000D+00  0.0000000000000D+00  0.0000000000000D+00
   360  3.5900000000000D+00  0.0000000000000D+00  0.0000000000000D+00
   361  3.6000000000000D+00  0.0000000000000D+00  0.0000000000000D+00
   362  3.6100000000000D+00  0.0000000000000D+00  0.0000000000000D+00
   363  3.6200000000000D+00  0.0000000000000D+00  0.0000000000000D+00
   364  3.6300000000000D+00  0.0000000000000D+00  0.0000000000000D+00
   365  3.6400000000000D+00  0.0000000000000D+00  0.0000000000000D+00
   366  3.6500000000000D+00  0.0000000000000D+00  0.0000000000000D+00
   367  3.6600000000000D+00  0.0000000000000D+00  0.0000000000000D+00
   368  3.6700000000000D+00  0.0000000000000D+00  0.0000000000000D+00
   369  3.6800000000000D+00  0.0000000000000D+00  0.0000000000000D+00
   370  3.6900000000000D+00  0.0000000000000D+00  0.0000000000000D+00
   371  3.7000000000000D+00  0.0000000000000D+00  0.0000000000000D+00
   372  3.7100000000000D+00  0.0000000000000D+00  0.0000000000000D+00
   373  3.7200000000000D+00  0.0000000000000D+00  0.0000000000000D+00
   374  3.7300000000000D+00  0.0000000000000D+00  0.0000000000000D+00
   375  3.7400000000000D+00  0.0000000000000D+00  0.0000000000000D+00
   376  3.7500000000000D+00  0.0000000000000D+00  0.0000000000000D+00
   377  3.7600000000000D+00  0.0000000000000D+00  0.0000000000000D+00
   378  3.7700000000000D+00  0.0000000000000D+00  0.0000000000000D+00
   379  3.7800000000000D+00  0.0000000000000D+00  0.0000000000000D+00
   380  3.7900000000000D+00  0.0000000000000D+00  0.0000000000000D+00
   381  3.8000000000000D+00  0.0000000000000D+00  0.0000000000000D+00
   382  3.8100000000000D+00  0.0000000000000D+00  0.0000000000000D+00
   383  3.8200000000000D+00  0.0000000000000D+00  0.0000000000000D+00
   384  3.8300000000000D+00  0.0000000000000D+00  0.0000000000000D+00
   385  3.8400000000000D+00  0.0000000000000D+00  0.0000000000000D+00
   386  3.8500000000000D+00  0.0000000000000D+00  0.0000000000000D+00
   387  3.8600000000000D+00  0.0000000000000D+00  0.0000000000000D+00
   388  3.8700000000000D+00  0.0000000000000D+00  0.0000000000000D+00
   389  3.8800000000000D+00  0.0000000000000D+00  0.0000000000000D+00
   390  3.8900000000000D+00  0.0000000000000D+00  0.0000000000000D+00
   391  3.9000000000000D+00  0.0000000000000D+00  0.0000000000000D+00
   392  3.9100000000000D+00  0.0000000000000D+00  0.0000000000000D+00
   393  3.9200000000000D+00  0.0000000000000D+00  0.0000000000000D+00
   394  3.9300000000000D+00  0.0000000000000D+00  0.0000000000000D+00
   395  3.9400000000000D+00  0.0000000000000D+00  0.0000000000000D+00
   396  3.9500000000000D+00  0.0000000000000D+00  0.0000000000000D+00
   397  3.9600000000000D+00  0.0000000000000D+00  0.0000000000000D+00
   398  3.9700000000000D+00  0.0000000000000D+00  0.0000000000000D+00
   399  3.9800000000000D+00  0.0000000000000D+00  0.0000000000000D+00
   400  3.9900000000000D+00  0.0000000000000D+00  0.0000000000000D+00
   401  4.0000000000000D+00  0.0000000000000D+00  0.0000000000000D+00
   402  4.0100000000000D+00  0.0000000000000D+00  0.0000000000000D+00
   403  4.0200000000000D+00  0.0000000000000D+00  0.0000000000000D+00
   404  4.0300000000000D+00  0.0000000000000D+00  0.0000000000000D+00
   405  4.0400000000000D+00  0.0000000000000D+00  0.0000000000000D+00
   406  4.0500000000000D+00  0.0000000000000D+00  0.0000000000000D+00
   407  4.0600000000000D+00  0.0000000000000D+00  0.0000000000000D+00
   408  4.0700000000000D+00  0.0000000000000D+00  0.0000000000000D+00
   409  4.0800000000000D+00  0.0000000000000D+00  0.0000000000000D+00
   410  4.0900000000000D+00  0.0000000000000D+00  0.0000000000000D+00
   411  4.1000000000000D+00  0.0000000000000D+00  0.0000000000000D+00
   412  4.1100000000000D+00  0.0000000000000D+00  0.0000000000000D+00
   413  4.1200000000000D+00  0.0000000000000D+00  0.0000000000000D+00
   414  4.1300000000000D+00  0.0000000000000D+00  0.0000000000000D+00
   415  4.1400000000000D+00  0.0000000000000D+00  0.0000000000000D+00
   416  4.1500000000000D+00  0.0000000000000D+00  0.0000000000000D+00
   417  4.1600000000000D+00  0.0000000000000D+00  0.0000000000000D+00
   418  4.1700000000000D+00  0.0000000000000D+00  0.0000000000000D+00
   419  4.1800000000000D+00  0.0000000000000D+00  0.0000000000000D+00
   420  4.1900000000000D+00  0.0000000000000D+00  0.0000000000000D+00
   421  4.2000000000000D+00  0.0000000000000D+00  0.0000000000000D+00
   422  4.2100000000000D+00  0.0000000000000D+00  0.0000000000000D+00