Rb    ONCVPSP-3.3.1  r_core=   3.18390   3.03555   2.89411
     37.0000      9.0000      210905    zatom,zion,pspd
     8 -116133   2     4   600     0    pspcod,pspxc,lmax,lloc,mmax,r2well
  5.99000000  0.00000000  0.00000000    rchrg fchrg qchrg
     2     2     2     0     0    nproj
     1     1           extension_switch
   0                         1.3610512646060D+00 -5.5257643749078D-02
     1  0.0000000000000D+00 -6.4170890823334D-14  1.9914625504214D-13
     2  1.0000000000000D-02  3.4845262463252D-02  1.8272422762547D-02
     3  2.0000000000000D-02  6.9661266416270D-02  3.6520622514070D-02
     4  3.0000000000000D-02  1.0441878216002D-01  5.4720408094843D-02
     5  4.0000000000000D-02  1.3908863758981D-01  7.2847652023368D-02
     6  5.0000000000000D-02  1.7364174692230D-01  9.0878322274521D-02
     7  6.0000000000000D-02  2.0804913933842D-01  1.0878851398440D-01
     8  7.0000000000000D-02  2.4228198751413D-01  1.2655448105721D-01
     9  8.0000000000000D-02  2.7631163601124D-01  1.4415266764930D-01
    10  9.0000000000000D-02  3.1010962950036D-01  1.6155973950538D-01
    11  1.0000000000000D-01  3.4364774078833D-01  1.7875261512129D-01
    12  1.1000000000000D-01  3.7689799862244D-01  1.9570849670792D-01
    13  1.2000000000000D-01  4.0983271524408D-01  2.1240490092995D-01
    14  1.3000000000000D-01  4.4242451366433D-01  2.2881968939310D-01
    15  1.4000000000000D-01  4.7464635463453D-01  2.4493109885292D-01
    16  1.5000000000000D-01  5.0647156328456D-01  2.6071777111773D-01
    17  1.6000000000000D-01  5.3787385540245D-01  2.7615878261784D-01
    18  1.7000000000000D-01  5.6882736332834D-01  2.9123367361277D-01
    19  1.8000000000000D-01  5.9930666143683D-01  3.0592247700736D-01
    20  1.9000000000000D-01  6.2928679118146D-01  3.2020574674751D-01
    21  2.0000000000000D-01  6.5874328567565D-01  3.3406458576535D-01
    22  2.1000000000000D-01  6.8765219378459D-01  3.4748067344338D-01
    23  2.2000000000000D-01  7.1599010370299D-01  3.6043629256639D-01
    24  2.3000000000000D-01  7.4373416599385D-01  3.7291435572938D-01
    25  2.4000000000000D-01  7.7086211606389D-01  3.8489843116935D-01
    26  2.5000000000000D-01  7.9735229605151D-01  3.9637276798816D-01
    27  2.6000000000000D-01  8.2318367610382D-01  4.0732232073303D-01
    28  2.7000000000000D-01  8.4833587501940D-01  4.1773277330106D-01
    29  2.8000000000000D-01  8.7278918023423D-01  4.2759056213359D-01
    30  2.9000000000000D-01  8.9652456712847D-01  4.3688289866549D-01
    31  3.0000000000000D-01  9.1952371763242D-01  4.4559779099479D-01
    32  3.1000000000000D-01  9.4176903811054D-01  4.5372406473701D-01
    33  3.2000000000000D-01  9.6324367650290D-01  4.6125138302874D-01
    34  3.3000000000000D-01  9.8393153870401D-01  4.6817026564476D-01
    35  3.4000000000000D-01  1.0038173041597D+00  4.7447210719271D-01
    36  3.5000000000000D-01  1.0228864406636D+00  4.8014919434939D-01
    37  3.6000000000000D-01  1.0411252183343D+00  4.8519472210270D-01
    38  3.7000000000000D-01  1.0585207227571D+00  4.8960280896345D-01
    39  3.8000000000000D-01  1.0750608672727D+00  4.9336851111126D-01
    40  3.9000000000000D-01  1.0907344043972D+00  4.9648783543927D-01
    41  4.0000000000000D-01  1.1055309363592D+00  4.9895775146251D-01
    42  4.1000000000000D-01  1.1194409247380D+00  5.0077620205558D-01
    43  4.2000000000000D-01  1.1324556991913D+00  5.0194211298527D-01
    44  4.3000000000000D-01  1.1445674652590D+00  5.0245540120535D-01
    45  4.4000000000000D-01  1.1557693112313D+00  5.0231698188044D-01
    46  4.5000000000000D-01  1.1660552140706D+00  5.0152877410779D-01
    47  4.6000000000000D-01  1.1754200443778D+00  5.0009370530610D-01
    48  4.7000000000000D-01  1.1838595703939D+00  4.9801571424193D-01
    49  4.8000000000000D-01  1.1913704610288D+00  4.9529975266564D-01
    50  4.9000000000000D-01  1.1979502879113D+00  4.9195178552965D-01
    51  5.0000000000000D-01  1.2035975264537D+00  4.8797878976411D-01
    52  5.1000000000000D-01  1.2083115559276D+00  4.8338875158568D-01
    53  5.2000000000000D-01  1.2120926585462D+00  4.7819066231782D-01
    54  5.3000000000000D-01  1.2149420175513D+00  4.7239451270220D-01
    55  5.4000000000000D-01  1.2168617143040D+00  4.6601128568291D-01
    56  5.5000000000000D-01  1.2178547243779D+00  4.5905294764753D-01
    57  5.6000000000000D-01  1.2179249126579D+00  4.5153243811100D-01
    58  5.7000000000000D-01  1.2170770274448D+00  4.4346365783061D-01
    59  5.8000000000000D-01  1.2153166935702D+00  4.3486145534306D-01
    60  5.9000000000000D-01  1.2126504045269D+00  4.2574161191670D-01
    61  6.0000000000000D-01  1.2090855136197D+00  4.1612082491513D-01
    62  6.1000000000000D-01  1.2046302241448D+00  4.0601668957062D-01
    63  6.2000000000000D-01  1.1992935786057D+00  3.9544767916905D-01
    64  6.3000000000000D-01  1.1930854469754D+00  3.8443312365065D-01
    65  6.4000000000000D-01  1.1860165140162D+00  3.7299318663412D-01
    66  6.5000000000000D-01  1.1780982656697D+00  3.6114884087438D-01
    67  6.6000000000000D-01  1.1693429745293D+00  3.4892184216792D-01
    68  6.7000000000000D-01  1.1597636844118D+00  3.3633470172227D-01
    69  6.8000000000000D-01  1.1493741940427D+00  3.2341065701008D-01
    70  6.9000000000000D-01  1.1381890398737D+00  3.1017364113072D-01
    71  7.0000000000000D-01  1.1262234780502D+00  2.9664825070691D-01
    72  7.1000000000000D-01  1.1134934655498D+00  2.8285971234575D-01
    73  7.2000000000000D-01  1.1000156405112D+00  2.6883384769854D-01
    74  7.3000000000000D-01  1.0858073017780D+00  2.5459703715569D-01
    75  7.4000000000000D-01  1.0708863876794D+00  2.4017618221780D-01
    76  7.5000000000000D-01  1.0552714540728D+00  2.2559866658634D-01
    77  7.6000000000000D-01  1.0389816516751D+00  2.1089231602151D-01
    78  7.7000000000000D-01  1.0220367027086D+00  1.9608535701783D-01
    79  7.8000000000000D-01  1.0044568768907D+00  1.8120637435169D-01
    80  7.9000000000000D-01  9.8626296679565D-01  1.6628426755806D-01
    81  8.0000000000000D-01  9.6747626261961D-01  1.5134820639713D-01
    82  8.1000000000000D-01  9.4811852637984D-01  1.3642758537479D-01
    83  8.2000000000000D-01  9.2821196558032D-01  1.2155197738375D-01
    84  8.3000000000000D-01  9.0777920637726D-01  1.0675108653555D-01
    85  8.4000000000000D-01  8.8684326627854D-01  9.2054700256324D-02
    86  8.5000000000000D-01  8.6542752641211D-01  7.7492640722163D-02
    87  8.6000000000000D-01  8.4355570339916D-01  6.3094715712785D-02
    88  8.7000000000000D-01  8.2125182086871D-01  4.8890668964411D-02
    89  8.8000000000000D-01  7.9854018065082D-01  3.4910130105860D-02
    90  8.9000000000000D-01  7.7544533368649D-01  2.1182564263615D-02
    91  9.0000000000000D-01  7.5199205069275D-01  7.7372214240357D-03
    92  9.1000000000000D-01  7.2820529262203D-01 -5.3969143569174D-03
    93  9.2000000000000D-01  7.0411018095553D-01 -1.8191175804538D-02
    94  9.3000000000000D-01  6.7973196787053D-01 -3.0617263243179D-02
    95  9.4000000000000D-01  6.5509600632202D-01 -4.2647295285558D-02
    96  9.5000000000000D-01  6.3022772007957D-01 -5.4253859297373D-02
    97  9.6000000000000D-01  6.0515257376008D-01 -6.5410061539509D-02
    98  9.7000000000000D-01  5.7989604289785D-01 -7.6089576889398D-02
    99  9.8000000000000D-01  5.5448358409303D-01 -8.6266698042520D-02
   100  9.9000000000000D-01  5.2894060527980D-01 -9.5916384094472D-02
   101  1.0000000000000D+00  5.0329243615553D-01 -1.0501430840381D-01
   102  1.0100000000000D+00  4.7756429881204D-01 -1.1353690563601D-01
   103  1.0200000000000D+00  4.5178127861007D-01 -1.2146141788902D-01
   104  1.0300000000000D+00  4.2596829533757D-01 -1.2876593980151D-01
   105  1.0400000000000D+00  4.0015007469231D-01 -1.3542946254536D-01
   106  1.0500000000000D+00  3.7435112012896D-01 -1.4143191660535D-01
   107  1.0600000000000D+00  3.4859568511011D-01 -1.4675421324987D-01
   108  1.0700000000000D+00  3.2290774580037D-01 -1.5137828459817D-01
   109  1.0800000000000D+00  2.9731097424210D-01 -1.5528712219102D-01
   110  1.0900000000000D+00  2.7182871205054D-01 -1.5846481397422D-01
   111  1.1000000000000D+00  2.4648394466540D-01 -1.6089657960598D-01
   112  1.1100000000000D+00  2.2129927619531D-01 -1.6256880400209D-01
   113  1.1200000000000D+00  1.9629690489038D-01 -1.6346906903522D-01
   114  1.1300000000000D+00  1.7149859927751D-01 -1.6358618330767D-01
   115  1.1400000000000D+00  1.4692567499188D-01 -1.6291020992010D-01
   116  1.1500000000000D+00  1.2259897233686D-01 -1.6143249216223D-01
   117  1.1600000000000D+00  9.8538834603860D-02 -1.5914567705505D-01
   118  1.1700000000000D+00  7.4765087181998D-02 -1.5604373667747D-01
   119  1.1800000000000D+00  5.1297017486588D-02 -1.5212198721508D-01
   120  1.1900000000000D+00  2.8153355733665D-02 -1.4737710567302D-01
   121  1.2000000000000D+00  5.3522565870467D-03 -1.4180714419795D-01
   122  1.2100000000000D+00 -1.7088718297498D-02 -1.3541154196049D-01
   123  1.2200000000000D+00 -3.9152616807801D-02 -1.2819113455344D-01
   124  1.2300000000000D+00 -6.0823111968781D-02 -1.2014816086644D-01
   125  1.2400000000000D+00 -8.2084516573365D-02 -1.1128626740117D-01
   126  1.2500000000000D+00 -1.0292179683266D-01 -1.0161050999938D-01
   127  1.2600000000000D+00 -1.2332058502853D-01 -9.1127352959999D-02
   128  1.2700000000000D+00 -1.4326719115248D-01 -7.9844665524345D-02
   129  1.2800000000000D+00 -1.6274861351813D-01 -6.7771715719379D-02
   130  1.2900000000000D+00 -1.8175254833556D-01 -5.4919161551875D-02
   131  1.3000000000000D+00 -2.0026739823612D-01 -4.1299039548695D-02
   132  1.3100000000000D+00 -2.1828227974105D-01 -2.6924750651660D-02
   133  1.3200000000000D+00 -2.3578702966676D-01 -1.1811043476359D-02
   134  1.3300000000000D+00 -2.5277221046131D-01  4.0260050521905D-03
   135  1.3400000000000D+00 -2.6922911447078D-01  2.0569011659501D-02
   136  1.3500000000000D+00 -2.8514976713348D-01  3.7799311252697D-02
   137  1.3600000000000D+00 -3.0052692910248D-01  5.5696983989756D-02
   138  1.3700000000000D+00 -3.1535409730096D-01  7.4240884841100D-02
   139  1.3800000000000D+00 -3.2962550491235D-01  9.3408675605955D-02
   140  1.3900000000000D+00 -3.4333612031342D-01  1.1317685932614D-01
   141  1.4000000000000D+00 -3.5648164495854D-01  1.3352081703972D-01
   142  1.4100000000000D+00 -3.6905851022287D-01  1.5441484681878D-01
   143  1.4200000000000D+00 -3.8106387321959D-01  1.7583220501204D-01
   144  1.4300000000000D+00 -3.9249561160140D-01  1.9774514962899D-01
   145  1.4400000000000D+00 -4.0335231736325D-01  2.2012498578081D-01
   146  1.4500000000000D+00 -4.1363328966382D-01  2.4294211309275D-01
   147  1.4600000000000D+00 -4.2333852668120D-01  2.6616607500743D-01
   148  1.4700000000000D+00 -4.3246871652780D-01  2.8976560987197D-01
   149  1.4800000000000D+00 -4.4102522724089D-01  3.1370870372571D-01
   150  1.4900000000000D+00 -4.4901009587659D-01  3.3796264467325D-01
   151  1.5000000000000D+00 -4.5642601672948D-01  3.6249407874381D-01
   152  1.5100000000000D+00 -4.6327632870422D-01  3.8726906712509D-01
   153  1.5200000000000D+00 -4.6956500186908D-01  4.1225314465280D-01
   154  1.5300000000000D+00 -4.7529662321574D-01  4.3741137944861D-01
   155  1.5400000000000D+00 -4.8047638166189D-01  4.6270843357188D-01
   156  1.5500000000000D+00 -4.8511005232065D-01  4.8810862457805D-01
   157  1.5600000000000D+00 -4.8920398007654D-01  5.1357598784251D-01
   158  1.5700000000000D+00 -4.9276506249538D-01  5.3907433953496D-01
   159  1.5800000000000D+00 -4.9580073210737D-01  5.6456734010492D-01
   160  1.5900000000000D+00 -4.9831893809555D-01  5.9001855815385D-01
   161  1.6000000000000D+00 -5.0032812742794D-01  6.1539153455687D-01
   162  1.6100000000000D+00 -5.0183722546941D-01  6.4064984670389D-01
   163  1.6200000000000D+00 -5.0285561611117D-01  6.6575717272363D-01
   164  1.6300000000000D+00 -5.0339312145677D-01  6.9067735555967D-01
   165  1.6400000000000D+00 -5.0345998110238D-01  7.1537446675985D-01
   166  1.6500000000000D+00 -5.0306683105192D-01  7.3981286985282D-01
   167  1.6600000000000D+00 -5.0222468230551D-01  7.6395728316883D-01
   168  1.6700000000000D+00 -5.0094489916190D-01  7.8777284198760D-01
   169  1.6800000000000D+00 -4.9923917727472D-01  8.1122515986497D-01
   170  1.6900000000000D+00 -4.9711952150237D-01  8.3428038903374D-01
   171  1.7000000000000D+00 -4.9459822359279D-01  8.5690527972460D-01
   172  1.7100000000000D+00 -4.9168783974123D-01  8.7906723831790D-01
   173  1.7200000000000D+00 -4.8840116806401D-01  9.0073438416717D-01
   174  1.7300000000000D+00 -4.8475122602387D-01  9.2187560502125D-01
   175  1.7400000000000D+00 -4.8075122785130D-01  9.4246061088396D-01
   176  1.7500000000000D+00 -4.7641456199497D-01  9.6245998625266D-01
   177  1.7600000000000D+00 -4.7175476864621D-01  9.8184524057852D-01
   178  1.7700000000000D+00 -4.6678551736856D-01  1.0005888568989D+00
   179  1.7800000000000D+00 -4.6152058487639D-01  1.0186643384984D+00
   180  1.7900000000000D+00 -4.5597383299306D-01  1.0360462535488D+00
   181  1.8000000000000D+00 -4.5015918682891D-01  1.0527102776122D+00
   182  1.8100000000000D+00 -4.4409061321159D-01  1.0686332339414D+00
   183  1.8200000000000D+00 -4.3778209940161D-01  1.0837931315115D+00
   184  1.8300000000000D+00 -4.3124763213151D-01  1.0981692006798D+00
   185  1.8400000000000D+00 -4.2450117698902D-01  1.1117419264795D+00
   186  1.8500000000000D+00 -4.1755665819362D-01  1.1244930793858D+00
   187  1.8600000000000D+00 -4.1042793876860D-01  1.1364057436559D+00
   188  1.8700000000000D+00 -4.0312880117239D-01  1.1474643430106D+00
   189  1.8800000000000D+00 -3.9567292837504D-01  1.1576546638371D+00
   190  1.8900000000000D+00 -3.8807388544713D-01  1.1669638756708D+00
   191  1.9000000000000D+00 -3.8034510164779D-01  1.1753805491241D+00
   192  1.9100000000000D+00 -3.7249985306295D-01  1.1828946711083D+00
   193  1.9200000000000D+00 -3.6455124579931D-01  1.1894976574175D+00
   194  1.9300000000000D+00 -3.5651219975340D-01  1.1951823626788D+00
   195  1.9400000000000D+00 -3.4839543299305D-01  1.1999430875858D+00
   196  1.9500000000000D+00 -3.4021344672803D-01  1.2037755836159D+00
   197  1.9600000000000D+00 -3.3197851094197D-01  1.2066770549938D+00
   198  1.9700000000000D+00 -3.2370265063396D-01  1.2086461582238D+00
   199  1.9800000000000D+00 -3.1539763274108D-01  1.2096829989658D+00
   200  1.9900000000000D+00 -3.0707495370957D-01  1.2097891264825D+00
   201  2.0000000000000D+00 -2.9874582773892D-01  1.2089675256443D+00
   202  2.0100000000000D+00 -2.9042117572210D-01  1.2072226064813D+00
   203  2.0200000000000D+00 -2.8211161483670D-01  1.2045601915538D+00
   204  2.0300000000000D+00 -2.7382744886606D-01  1.2009875009116D+00
   205  2.0400000000000D+00 -2.6557865917122D-01  1.1965131350396D+00
   206  2.0500000000000D+00 -2.5737489637681D-01  1.1911470556330D+00
   207  2.0600000000000D+00 -2.4922547274120D-01  1.1849005644002D+00
   208  2.0700000000000D+00 -2.4113935519371D-01  1.1777862800424D+00
   209  2.0800000000000D+00 -2.3312515908742D-01  1.1698181133252D+00
   210  2.0900000000000D+00 -2.2519114258519D-01  1.1610112406134D+00
   211  2.1000000000000D+00 -2.1734520174638D-01  1.1513820757327D+00
   212  2.1100000000000D+00 -2.0959486625687D-01  1.1409482404327D+00
   213  2.1200000000000D+00 -2.0194729579559D-01  1.1297285335623D+00
   214  2.1300000000000D+00 -1.9440927706752D-01  1.1177428989618D+00
   215  2.1400000000000D+00 -1.8698722141947D-01  1.1050123924003D+00
   216  2.1500000000000D+00 -1.7968716309589D-01  1.0915591475042D+00
   217  2.1600000000000D+00 -1.7251475807508D-01  1.0774063409233D+00
   218  2.1700000000000D+00 -1.6547528346600D-01  1.0625781568790D+00
   219  2.1800000000000D+00 -1.5857363749456D-01  1.0470997511466D+00
   220  2.1900000000000D+00 -1.5181433999406D-01  1.0309972147296D+00
   221  2.2000000000000D+00 -1.4520153343388D-01  1.0142975372963D+00
   222  2.2100000000000D+00 -1.3873898444788D-01  9.9702857054915D-01
   223  2.2200000000000D+00 -1.3243008581316D-01  9.7921899168431D-01
   224  2.2300000000000D+00 -1.2627785891534D-01  9.6089826708534D-01
   225  2.2400000000000D+00 -1.2028495661940D-01  9.4209661638553D-01
   226  2.2500000000000D+00 -1.1445366654976D-01  9.2284497706176D-01
   227  2.2600000000000D+00 -1.0878591476323D-01  9.0317496973765D-01
   228  2.2700000000000D+00 -1.0328326976079D-01  8.8311886424018D-01
   229  2.2800000000000D+00 -9.7946946841552D-02  8.6270954669579D-01
   230  2.2900000000000D+00 -9.2777812759417D-02  8.4198048773966D-01
   231  2.3000000000000D+00 -8.7776390651801D-02  8.2096571185552D-01
   232  2.3100000000000D+00 -8.2942865052231D-02  7.9969977167724D-01
   233  2.3200000000000D+00 -7.8277087580074D-02  7.7821771492572D-01
   234  2.3300000000000D+00 -7.3778583422145D-02  7.5655504161297D-01
   235  2.3400000000000D+00 -6.9446552433092D-02  7.3474776554147D-01
   236  2.3500000000000D+00 -6.5279883603800D-02  7.1283224085122D-01
   237  2.3600000000000D+00 -6.1277159184157D-02  6.9084517527987D-01
   238  2.3700000000000D+00 -5.7436658810756D-02  6.6882362231216D-01
   239  2.3800000000000D+00 -5.3756340654130D-02  6.4680548871097D-01
   240  2.3900000000000D+00 -5.0233877237456D-02  6.2482892610045D-01
   241  2.4000000000000D+00 -4.6866688710320D-02  6.0293183718941D-01
   242  2.4100000000000D+00 -4.3651963128172D-02  5.8115148027152D-01
   243  2.4200000000000D+00 -4.0586692392514D-02  5.5952409872388D-01
   244  2.4300000000000D+00 -3.7667691721983D-02  5.3808475550181D-01
   245  2.4400000000000D+00 -3.4891674627756D-02  5.1686613547431D-01
   246  2.4500000000000D+00 -3.2255224204350D-02  4.9589934212516D-01
   247  2.4600000000000D+00 -2.9754819679367D-02  4.7521364156601D-01
   248  2.4700000000000D+00 -2.7386833765101D-02  4.5483683709951D-01
   249  2.4800000000000D+00 -2.5147560936340D-02  4.3479490571323D-01
   250  2.4900000000000D+00 -2.3033225915467D-02  4.1511209522400D-01
   251  2.5000000000000D+00 -2.1039993887289D-02  3.9581096997507D-01
   252  2.5100000000000D+00 -1.9163984165512D-02  3.7691237583807D-01
   253  2.5200000000000D+00 -1.7401280983283D-02  3.5843546090451D-01
   254  2.5300000000000D+00 -1.5747944399725D-02  3.4039768774636D-01
   255  2.5400000000000D+00 -1.4200020645629D-02  3.2281484919042D-01
   256  2.5500000000000D+00 -1.2753552082771D-02  3.0570108659814D-01
   257  2.5600000000000D+00 -1.1404586733342D-02  2.8906891082051D-01
   258  2.5700000000000D+00 -1.0149187231097D-02  2.7292922651131D-01
   259  2.5800000000000D+00 -8.9834393739452D-03  2.5729135880449D-01
   260  2.5900000000000D+00 -7.9034602513566D-03  2.4216308243357D-01
   261  2.6000000000000D+00 -6.9054057826445D-03  2.2755065401743D-01
   262  2.6100000000000D+00 -5.9854778530756D-03  2.1345884652332D-01
   263  2.6200000000000D+00 -5.1399310465537D-03  1.9989098586160D-01
   264  2.6300000000000D+00 -4.3650787837150D-03  1.8684899042264D-01
   265  2.6400000000000D+00 -3.6572990706175D-03  1.7433341252534D-01
   266  2.6500000000000D+00 -3.0130398589519D-03  1.6234348172338D-01
   267  2.6600000000000D+00 -2.4288238402534D-03  1.5087715066853D-01
   268  2.6700000000000D+00 -1.9012528587746D-03  1.3993114264223D-01
   269  2.6800000000000D+00 -1.4270119477379D-03  1.2950100068079D-01
   270  2.6900000000000D+00 -1.0028728642184D-03  1.1958113872439D-01
   271  2.7000000000000D+00 -6.2569723733096D-04  1.1016489423960D-01
   272  2.7100000000000D+00 -2.9243936430764D-04  1.0124458211320D-01
   273  2.7200000000000D+00 -1.4858023735908D-07  9.2811550015408D-02
   274  2.7300000000000D+00  2.5402875923917D-04  8.4856235000671D-02
   275  2.7400000000000D+00  4.7284761705983D-04  7.7368221031812D-02
   276  2.7500000000000D+00  6.5896296110905D-04  7.0336297435222D-02
   277  2.7600000000000D+00  8.1492882789596D-04  6.3748518288697D-02
   278  2.7700000000000D+00  9.4319767228872D-04  5.7592262359801D-02
   279  2.7800000000000D+00  1.0461199909424D-03  5.1854293506610D-02
   280  2.7900000000000D+00  1.1259442982562D-03  4.6520821602349D-02
   281  2.8000000000000D+00  1.1848173370488D-03  4.1577563610476D-02
   282  2.8100000000000D+00  1.2247845305610D-03  3.7009804781689D-02
   283  2.8200000000000D+00  1.2477907037363D-03  3.2802459812209D-02
   284  2.8300000000000D+00  1.2556810172113D-03  2.8940133815018D-02
   285  2.8400000000000D+00  1.2502021000068D-03  2.5407183015378D-02
   286  2.8500000000000D+00  1.2330033733718D-03  2.2187774980873D-02
   287  2.8600000000000D+00  1.2056385528608D-03  1.9265948185705D-02
   288  2.8700000000000D+00  1.1695672969738D-03  1.6625670863336D-02
   289  2.8800000000000D+00  1.1261570045346D-03  1.4250899235512D-02
   290  2.8900000000000D+00  1.0766847162078D-03  1.2125634314157D-02
   291  2.9000000000000D+00  1.0223391247654D-03  1.0233977773646D-02
   292  2.9100000000000D+00  9.6422268918504D-04  8.5601867482874D-03
   293  2.9200000000000D+00  9.0335379827533D-04  7.0887269820608D-03
   294  2.9300000000000D+00  8.4066898195531D-04  5.8043243924697D-03
   295  2.9400000000000D+00  7.7702516692230D-04  4.6920150948518D-03
   296  2.9500000000000D+00  7.1320199635516D-04  3.7371940940529D-03
   297  2.9600000000000D+00  6.4990406623451D-04  2.9256611944539D-03
   298  2.9700000000000D+00  5.8776319525966D-04  2.2436653735247D-03
   299  2.9800000000000D+00  5.2734071301159D-04  1.6779474422017D-03
   300  2.9900000000000D+00  4.6912964810625D-04  1.2157799369601D-03
   301  3.0000000000000D+00  4.1355685373457D-04  8.4500461950165D-04
   302  3.0100000000000D+00  3.6098507413208D-04  5.5406765466451D-04
   303  3.0200000000000D+00  3.1171504789364D-04  3.3205332160650D-04
   304  3.0300000000000D+00  2.6598730343748D-04  1.6871323711740D-04
   305  3.0400000000000D+00  2.2398396479668D-04  5.4493932305236D-05
   306  3.0500000000000D+00  1.8583047987441D-04 -1.9437988229667D-05
   307  3.0600000000000D+00  1.5159718989505D-04 -6.1173780198848D-05
   308  3.0700000000000D+00  1.2130067079720D-04 -7.8044163849690D-05
   309  3.0800000000000D+00  9.4899135736985D-05 -7.6472310727891D-05
   310  3.0900000000000D+00  7.2313071423572D-05 -6.2394213755293D-05
   311  3.1000000000000D+00  5.3409361836224D-05 -4.0874864661252D-05
   312  3.1100000000000D+00  3.7998022787079D-05 -1.6164818655909D-05
   313  3.1200000000000D+00  2.5823794324806D-05  7.9542011963564D-06
   314  3.1300000000000D+00  1.6625997778146D-05  3.0184721275016D-05
   315  3.1400000000000D+00  1.0069582431158D-05  4.9221734399988D-05
   316  3.1500000000000D+00  5.8267274828887D-06  6.4965321247443D-05
   317  3.1600000000000D+00  3.4589744689717D-06  7.6736675407692D-05
   318  3.1700000000000D+00  2.3135271842004D-06  8.1651329825501D-05
   319  3.1800000000000D+00  1.8620088821233D-06  7.8641033051284D-05
   320  3.1900000000000D+00  1.4940055835852D-06  6.5274385137559D-05
   321  3.2000000000000D+00  1.0346536668522D-06  4.4720859670625D-05
   322  3.2100000000000D+00  5.4928118103119D-07  2.2657059676225D-05
   323  3.2200000000000D+00  8.6406454984343D-08  3.3606806160096D-06
   324  3.2300000000000D+00 -1.1341417248356D-07 -6.1200406251763D-06
   325  3.2400000000000D+00 -1.4980289642143D-07 -8.1144717157552D-06
   326  3.2500000000000D+00 -9.9131297067735D-08 -5.3636412696737D-06
   327  3.2600000000000D+00 -7.3975272971934D-09 -3.9860673207744D-07
   328  3.2700000000000D+00  2.0922464672960D-08  1.3992022460635D-06
   329  3.2800000000000D+00  2.6887121306241D-08  1.8358962628456D-06
   330  3.2900000000000D+00  1.7446559534249D-08  1.2133609922210D-06
   331  3.3000000000000D+00 -4.6682082579959D-11 -1.9805978581772D-09
   332  3.3100000000000D+00 -3.8969641964512D-09 -1.6533793083597D-07
   333  3.3200000000000D+00 -4.9955406873531D-09 -2.1194763898679D-07
   334  3.3300000000000D+00 -3.2683782761776D-09 -1.3866868519463D-07
   335  3.3400000000000D+00  0.0000000000000D+00  0.0000000000000D+00
   336  3.3500000000000D+00  0.0000000000000D+00  0.0000000000000D+00
   337  3.3600000000000D+00  0.0000000000000D+00  0.0000000000000D+00
   338  3.3700000000000D+00  0.0000000000000D+00  0.0000000000000D+00
   339  3.3800000000000D+00  0.0000000000000D+00  0.0000000000000D+00
   340  3.3900000000000D+00  0.0000000000000D+00  0.0000000000000D+00
   341  3.4000000000000D+00  0.0000000000000D+00  0.0000000000000D+00
   342  3.4100000000000D+00  0.0000000000000D+00  0.0000000000000D+00
   343  3.4200000000000D+00  0.0000000000000D+00  0.0000000000000D+00
   344  3.4300000000000D+00  0.0000000000000D+00  0.0000000000000D+00
   345  3.4400000000000D+00  0.0000000000000D+00  0.0000000000000D+00
   346  3.4500000000000D+00  0.0000000000000D+00  0.0000000000000D+00
   347  3.4600000000000D+00  0.0000000000000D+00  0.0000000000000D+00
   348  3.4700000000000D+00  0.0000000000000D+00  0.0000000000000D+00
   349  3.4800000000000D+00  0.0000000000000D+00  0.0000000000000D+00
   350  3.4900000000000D+00  0.0000000000000D+00  0.0000000000000D+00
   351  3.5000000000000D+00  0.0000000000000D+00  0.0000000000000D+00
   352  3.5100000000000D+00  0.0000000000000D+00  0.0000000000000D+00
   353  3.5200000000000D+00  0.0000000000000D+00  0.0000000000000D+00
   354  3.5300000000000D+00  0.0000000000000D+00  0.0000000000000D+00
   355  3.5400000000000D+00  0.0000000000000D+00  0.0000000000000D+00
   356  3.5500000000000D+00  0.0000000000000D+00  0.0000000000000D+00
   357  3.5600000000000D+00  0.0000000000000D+00  0.0000000000000D+00
   358  3.5700000000000D+00  0.0000000000000D+00  0.0000000000000D+00
   359  3.5800000000000D+00  0.0000000000000D+00  0.0000000000000D+00
   360  3.5900000000000D+00  0.0000000000000D+00  0.0000000000000D+00
   361  3.6000000000000D+00  0.0000000000000D+00  0.0000000000000D+00
   362  3.6100000000000D+00  0.0000000000000D+00  0.0000000000000D+00
   363  3.6200000000000D+00  0.0000000000000D+00  0.0000000000000D+00
   364  3.6300000000000D+00  0.0000000000000D+00  0.0000000000000D+00
   365  3.6400000000000D+00  0.0000000000000D+00  0.0000000000000D+00
   366  3.6500000000000D+00  0.0000000000000D+00  0.0000000000000D+00
   367  3.6600000000000D+00  0.0000000000000D+00  0.0000000000000D+00
   368  3.6700000000000D+00  0.0000000000000D+00  0.0000000000000D+00
   369  3.6800000000000D+00  0.0000000000000D+00  0.0000000000000D+00
   370  3.6900000000000D+00  0.0000000000000D+00  0.0000000000000D+00
   371  3.7000000000000D+00  0.0000000000000D+00  0.0000000000000D+00
   372  3.7100000000000D+00  0.0000000000000D+00  0.0000000000000D+00
   373  3.7200000000000D+00  0.0000000000000D+00  0.0000000000000D+00
   374  3.7300000000000D+00  0.0000000000000D+00  0.0000000000000D+00
   375  3.7400000000000D+00  0.0000000000000D+00  0.0000000000000D+00
   376  3.7500000000000D+00  0.0000000000000D+00  0.0000000000000D+00
   377  3.7600000000000D+00  0.0000000000000D+00  0.0000000000000D+00
   378  3.7700000000000D+00  0.0000000000000D+00  0.0000000000000D+00
   379  3.7800000000000D+00  0.0000000000000D+00  0.0000000000000D+00
   380  3.7900000000000D+00  0.0000000000000D+00  0.0000000000000D+00
   381  3.8000000000000D+00  0.0000000000000D+00  0.0000000000000D+00
   382  3.8100000000000D+00  0.0000000000000D+00  0.0000000000000D+00
   383  3.8200000000000D+00  0.0000000000000D+00  0.0000000000000D+00
   384  3.8300000000000D+00  0.0000000000000D+00  0.0000000000000D+00
   385  3.8400000000000D+00  0.0000000000000D+00  0.0000000000000D+00
   386  3.8500000000000D+00  0.0000000000000D+00  0.0000000000000D+00
   387  3.8600000000000D+00  0.0000000000000D+00  0.0000000000000D+00
   388  3.8700000000000D+00  0.0000000000000D+00  0.0000000000000D+00
   389  3.8800000000000D+00  0.0000000000000D+00  0.0000000000000D+00
   390  3.8900000000000D+00  0.0000000000000D+00  0.0000000000000D+00
   391  3.9000000000000D+00  0.0000000000000D+00  0.0000000000000D+00
   392  3.9100000000000D+00  0.0000000000000D+00  0.0000000000000D+00
   393  3.9200000000000D+00  0.0000000000000D+00  0.0000000000000D+00
   394  3.9300000000000D+00  0.0000000000000D+00  0.0000000000000D+00
   395  3.9400000000000D+00  0.0000000000000D+00  0.0000000000000D+00
   396  3.9500000000000D+00  0.0000000000000D+00  0.0000000000000D+00
   397  3.9600000000000D+00  0.0000000000000D+00  0.0000000000000D+00
   398  3.9700000000000D+00  0.0000000000000D+00  0.0000000000000D+00
   399  3.9800000000000D+00  0.0000000000000D+00  0.0000000000000D+00
   400  3.9900000000000D+00  0.0000000000000D+00  0.0000000000000D+00
   401  4.0000000000000D+00  0.0000000000000D+00  0.0000000000000D+00
   402  4.0100000000000D+00  0.0000000000000D+00  0.0000000000000D+00
   403  4.0200000000000D+00  0.0000000000000D+00  0.0000000000000D+00
   404  4.0300000000000D+00  0.0000000000000D+00  0.0000000000000D+00
   405  4.0400000000000D+00  0.0000000000000D+00  0.0000000000000D+00
   406  4.0500000000000D+00  0.0000000000000D+00  0.0000000000000D+00
   407  4.0600000000000D+00  0.0000000000000D+00  0.0000000000000D+00
   408  4.0700000000000D+00  0.0000000000000D+00  0.0000000000000D+00
   409  4.0800000000000D+00  0.0000000000000D+00  0.0000000000000D+00
   410  4.0900000000000D+00  0.0000000000000D+00  0.0000000000000D+00
   411  4.1000000000000D+00  0.0000000000000D+00  0.0000000000000D+00
   412  4.1100000000000D+00  0.0000000000000D+00  0.0000000000000D+00
   413  4.1200000000000D+00  0.0000000000000D+00  0.0000000000000D+00
   414  4.1300000000000D+00  0.0000000000000D+00  0.0000000000000D+00
   415  4.1400000000000D+00  0.0000000000000D+00  0.0000000000000D+00
   416  4.1500000000000D+00  0.0000000000000D+00  0.0000000000000D+00
   417  4.1600000000000D+00  0.0000000000000D+00  0.0000000000000D+00
   418  4.1700000000000D+00  0.0000000000000D+00  0.0000000000000D+00
   419  4.1800000000000D+00  0.0000000000000D+00  0.0000000000000D+00
   420  4.1900000000000D+00  0.0000000000000D+00  0.0000000000000D+00
   421  4.2000000000000D+00  0.0000000000000D+00  0.0000000000000D+00
   422  4.2100000000000D+00  0.0000000000000D+00  0.0000000000000D+00