Rb    ONCVPSP-3.3.1  r_core=   3.18390   3.03555   2.89411
     37.0000      9.0000      210905    zatom,zion,pspd
     8 -116133   2     4   600     0    pspcod,pspxc,lmax,lloc,mmax,r2well
  5.99000000  0.00000000  0.00000000    rchrg fchrg qchrg
     2     3     3     0    nproj
     3     1           extension_switch
     4     3     0    nprojso
   0                        -5.5245224730630D-02  1.3613157661676D+00
     1  0.0000000000000D+00  1.7796875084741D-13 -7.1276318180935D-14
     2  1.0000000000000D-02  1.8326648182201D-02  3.4831243417105D-02
     3  2.0000000000000D-02  3.6628944743392D-02  6.9633260417333D-02
     4  3.0000000000000D-02  5.4882570067889D-02  1.0437685334719D-01
     5  4.0000000000000D-02  7.3063268526188D-02  1.3903288205193D-01
     6  5.0000000000000D-02  9.1146880406824D-02  1.7357229255496D-01
     7  6.0000000000000D-02  1.0910937377463D-01  2.0796614565329D-01
     8  7.0000000000000D-02  1.2692687623061D-01  2.4218564540110D-01
     9  8.0000000000000D-02  1.4457570654848D-01  2.7620216745371D-01
    10  9.0000000000000D-02  1.6203240616270D-01  3.0998728724396D-01
    11  1.0000000000000D-01  1.7927377048237D-01  3.4351280796362D-01
    12  1.1000000000000D-01  1.9627688000547D-01  3.7675078832204D-01
    13  1.2000000000000D-01  2.1301913120686D-01  4.0967357005475D-01
    14  1.3000000000000D-01  2.2947826717387D-01  4.4225380515468D-01
    15  1.4000000000000D-01  2.4563240796212D-01  4.7446448279897D-01
    16  1.5000000000000D-01  2.6146008064427D-01  5.0627895594436D-01
    17  1.6000000000000D-01  2.7694024902364D-01  5.3767096756449D-01
    18  1.7000000000000D-01  2.9205234298428D-01  5.6861467650265D-01
    19  1.8000000000000D-01  3.0677628744825D-01  5.9908468291361D-01
    20  1.9000000000000D-01  3.2109253091079D-01  6.2905605326869D-01
    21  2.0000000000000D-01  3.3498207352299D-01  6.5850434489823D-01
    22  2.1000000000000D-01  3.4842649469143D-01  6.8740563004615D-01
    23  2.2000000000000D-01  3.6140798016330D-01  7.1573651941146D-01
    24  2.3000000000000D-01  3.7390934856539D-01  7.4347418515194D-01
    25  2.4000000000000D-01  3.8591407736440D-01  7.7059638332573D-01
    26  2.5000000000000D-01  3.9740632821568D-01  7.9708147574680D-01
    27  2.6000000000000D-01  4.0837097166697D-01  8.2290845123070D-01
    28  2.7000000000000D-01  4.1879361118334D-01  8.4805694620746D-01
    29  2.8000000000000D-01  4.2866060645868D-01  8.7250726467912D-01
    30  2.9000000000000D-01  4.3795909597927D-01  8.9624039749950D-01
    31  3.0000000000000D-01  4.4667701880410D-01  9.1923804095469D-01
    32  3.1000000000000D-01  4.5480313552658D-01  9.4148261462316D-01
    33  3.2000000000000D-01  4.6232704838173D-01  9.6295727849482D-01
    34  3.3000000000000D-01  4.6923922046321D-01  9.8364594932912D-01
    35  3.4000000000000D-01  4.7553099401392D-01  1.0035333162330D+00
    36  3.5000000000000D-01  4.8119460775403D-01  1.0226048554395D+00
    37  3.6000000000000D-01  4.8622321321054D-01  1.0408468442699D+00
    38  3.7000000000000D-01  4.9061089001205D-01  1.0582463742612D+00
    39  3.8000000000000D-01  4.9435266011333D-01  1.0747913634424D+00
    40  3.9000000000000D-01  4.9744450091359D-01  1.0904705677448D+00
    41  4.0000000000000D-01  4.9988335723385D-01  1.1052735915297D+00
    42  4.1000000000000D-01  5.0166715211820D-01  1.1191908972207D+00
    43  4.2000000000000D-01  5.0279479642514D-01  1.1322138140260D+00
    44  4.3000000000000D-01  5.0326619717536D-01  1.1443345457395D+00
    45  4.4000000000000D-01  5.0308226462335D-01  1.1555461776076D+00
    46  4.5000000000000D-01  5.0224491802107D-01  1.1658426822524D+00
    47  4.6000000000000D-01  5.0075709004288D-01  1.1752189246399D+00
    48  4.7000000000000D-01  4.9862272984219D-01  1.1836706660870D+00
    49  4.8000000000000D-01  4.9584680471131D-01  1.1911945672965D+00
    50  4.9000000000000D-01  4.9243530031772D-01  1.1977881904151D+00
    51  5.0000000000000D-01  4.8839521949101D-01  1.2034500001095D+00
    52  5.1000000000000D-01  4.8373457953682D-01  1.2081793636534D+00
    53  5.2000000000000D-01  4.7846240805539D-01  1.2119765500244D+00
    54  5.3000000000000D-01  4.7258873724474D-01  1.2148427280071D+00
    55  5.4000000000000D-01  4.6612459666970D-01  1.2167799633012D+00
    56  5.5000000000000D-01  4.5908200448105D-01  1.2177912146356D+00
    57  5.6000000000000D-01  4.5147395707035D-01  1.2178803288875D+00
    58  5.7000000000000D-01  4.4331441714891D-01  1.2170520352112D+00
    59  5.8000000000000D-01  4.3461830024166D-01  1.2153119381783D+00
    60  5.9000000000000D-01  4.2540145958917D-01  1.2126665099345D+00
    61  6.0000000000000D-01  4.1568066945353D-01  1.2091230813797D+00
    62  6.1000000000000D-01  4.0547360682711D-01  1.2046898323774D+00
    63  6.2000000000000D-01  3.9479883154535D-01  1.1993757810027D+00
    64  6.3000000000000D-01  3.8367576480808D-01  1.1931907718386D+00
    65  6.4000000000000D-01  3.7212466611704D-01  1.1861454633306D+00
    66  6.5000000000000D-01  3.6016660863962D-01  1.1782513142138D+00
    67  6.6000000000000D-01  3.4782345301307D-01  1.1695205690234D+00
    68  6.7000000000000D-01  3.3511781960543D-01  1.1599662427062D+00
    69  6.8000000000000D-01  3.2207305925403D-01  1.1496021043472D+00
    70  6.9000000000000D-01  3.0871322250447D-01  1.1384426600290D+00
    71  7.0000000000000D-01  2.9506302737734D-01  1.1265031348436D+00
    72  7.1000000000000D-01  2.8114782569275D-01  1.1137994540754D+00
    73  7.2000000000000D-01  2.6699356798648D-01  1.1003482235763D+00
    74  7.3000000000000D-01  2.5262676705473D-01  1.0861667093567D+00
    75  7.4000000000000D-01  2.3807446016839D-01  1.0712728164139D+00
    76  7.5000000000000D-01  2.2336417000043D-01  1.0556850668244D+00
    77  7.6000000000000D-01  2.0852386431431D-01  1.0394225771250D+00
    78  7.7000000000000D-01  1.9358191446395D-01  1.0225050350089D+00
    79  7.8000000000000D-01  1.7856705275966D-01  1.0049526753676D+00
    80  7.9000000000000D-01  1.6350832875786D-01  9.8678625570406D-01
    81  8.0000000000000D-01  1.4843506453489D-01  9.6802703095105D-01
    82  8.1000000000000D-01  1.3337680900960D-01  9.4869672772296D-01
    83  8.2000000000000D-01  1.1836329138161D-01  9.2881751803522D-01
    84  8.3000000000000D-01  1.0342437375560D-01  9.0841199252351D-01
    85  8.4000000000000D-01  8.8590003025130D-02  8.8750313319734D-01
    86  8.5000000000000D-01  7.3890162091580D-02  8.6611428576257D-01
    87  8.6000000000000D-01  5.9354820497759D-02  8.4426913154888D-01
    88  8.7000000000000D-01  4.5013884557152D-02  8.2199165907853D-01
    89  8.8000000000000D-01  3.0897147063033D-02  7.9930613531365D-01
    90  8.9000000000000D-01  1.7034236663740D-02  7.7623707662005D-01
    91  9.0000000000000D-01  3.4545669925772D-03  7.5280921948577D-01
    92  9.1000000000000D-01 -9.8127143569966D-03  7.2904749103373D-01
    93  9.2000000000000D-01 -2.2738776918676D-02  7.0497697936768D-01
    94  9.3000000000000D-01 -3.5295158408740D-02  6.8062290379164D-01
    95  9.4000000000000D-01 -4.7453815654400D-02  6.5601058494300D-01
    96  9.5000000000000D-01 -5.9187175297869D-02  6.3116541488001D-01
    97  9.6000000000000D-01 -7.0468184178340D-02  6.0611282716442D-01
    98  9.7000000000000D-01 -8.1270359293090D-02  5.8087826698044D-01
    99  9.8000000000000D-01 -9.1567837238086D-02  5.5548716133110D-01
   100  9.9000000000000D-01 -1.0133542302818D-01  5.2996488935318D-01
   101  1.0000000000000D+00 -1.1054863819679D-01  5.0433675279204D-01
   102  1.0100000000000D+00 -1.1918376807480D-01  4.7862794667720D-01
   103  1.0200000000000D+00 -1.2721790814894D-01  4.5286353023980D-01
   104  1.0300000000000D+00 -1.3462900940008D-01  4.2706839811245D-01
   105  1.0400000000000D+00 -1.4139592252281D-01  4.0126725185196D-01
   106  1.0500000000000D+00 -1.4749844092864D-01  3.7548457182483D-01
   107  1.0600000000000D+00 -1.5291734243636D-01  3.4974458949520D-01
   108  1.0700000000000D+00 -1.5763442955455D-01  3.2407126015399D-01
   109  1.0800000000000D+00 -1.6163256826279D-01  2.9848823612805D-01
   110  1.0900000000000D+00 -1.6489572520052D-01  2.7301884050672D-01
   111  1.1000000000000D+00 -1.6740900317421D-01  2.4768604142301D-01
   112  1.1100000000000D+00 -1.6915867489636D-01  2.2251242692569D-01
   113  1.1200000000000D+00 -1.7013221487222D-01  1.9752018047739D-01
   114  1.1300000000000D+00 -1.7031832935329D-01  1.7273105711348D-01
   115  1.1400000000000D+00 -1.6970698427964D-01  1.4816636029491D-01
   116  1.1500000000000D+00 -1.6828943113671D-01  1.2384691948738D-01
   117  1.1600000000000D+00 -1.6605823065580D-01  9.9793068498165D-02
   118  1.1700000000000D+00 -1.6300727429079D-01  7.6024624600650D-02
   119  1.1800000000000D+00 -1.5913180340858D-01  5.2560868475252D-02
   120  1.1900000000000D+00 -1.5442842613469D-01  2.9420524994185D-02
   121  1.2000000000000D+00 -1.4889513179898D-01  6.6217448764077D-03
   122  1.2100000000000D+00 -1.4253130293231D-01 -1.5817912762670D-02
   123  1.2200000000000D+00 -1.3533772476953D-01 -3.7881496943560D-02
   124  1.2300000000000D+00 -1.2731659221878D-01 -5.9552680415365D-02
   125  1.2400000000000D+00 -1.1847151426137D-01 -8.0815774288267D-02
   126  1.2500000000000D+00 -1.0880751575414D-01 -1.0165574168765D-01
   127  1.2600000000000D+00 -9.8331036610185D-02 -1.2205821041296D-01
   128  1.2700000000000D+00 -8.7049928337262D-02 -1.4200948458533D-01
   129  1.2800000000000D+00 -7.4973447923207D-02 -1.6149655527105D-01
   130  1.2900000000000D+00 -6.2112249061296D-02 -1.8050711006927D-01
   131  1.3000000000000D+00 -4.8478370710687D-02 -1.9902954165260D-01
   132  1.3100000000000D+00 -3.4085223000263D-02 -2.1705295525360D-01
   133  1.3200000000000D+00 -1.8947570485139D-02 -2.3456717509038D-01
   134  1.3300000000000D+00 -3.0815127687951D-03 -2.5156274972556D-01
   135  1.3400000000000D+00  1.3495537481709D-02 -2.6803095635725D-01
   136  1.3500000000000D+00  3.0764879103001D-02 -2.8396380404012D-01
   137  1.3600000000000D+00  4.8706549552020D-02 -2.9935403583680D-01
   138  1.3700000000000D+00  6.7299354526190D-02 -3.1419512990417D-01
   139  1.3800000000000D+00  8.6520900049531D-02 -3.2848129951647D-01
   140  1.3900000000000D+00  1.0634762696724D-01 -3.4220749203318D-01
   141  1.4000000000000D+00  1.2675484779101D-01 -3.5536938682008D-01
   142  1.4100000000000D+00  1.4771678583932D-01 -3.6796339213088D-01
   143  1.4200000000000D+00  1.6920661659304D-01 -3.7998664096470D-01
   144  1.4300000000000D+00  1.9119651120310D-01 -3.9143698590945D-01
   145  1.4400000000000D+00  2.1365768206507D-01 -4.0231299298803D-01
   146  1.4500000000000D+00  2.3656043037513D-01 -4.1261393452467D-01
   147  1.4600000000000D+00  2.5987419558680D-01 -4.2233978104698D-01
   148  1.4700000000000D+00  2.8356760666075D-01 -4.3149119224850D-01
   149  1.4800000000000D+00  3.0760853502454D-01 -4.4006950702803D-01
   150  1.4900000000000D+00  3.3196414912632D-01 -4.4807673263368D-01
   151  1.5000000000000D+00  3.5660097048336D-01 -4.5551553293337D-01
   152  1.5100000000000D+00  3.8148493111334D-01 -4.6238921583851D-01
   153  1.5200000000000D+00  4.0658143222893D-01 -4.6870171991016D-01
   154  1.5300000000000D+00  4.3185540408822D-01 -4.7445760017245D-01
   155  1.5400000000000D+00  4.5727136686582D-01 -4.7966201316915D-01
   156  1.5500000000000D+00  4.8279349243724D-01 -4.8432070128787D-01
   157  1.5600000000000D+00  5.0838566693486D-01 -4.8843997639092D-01
   158  1.5700000000000D+00  5.3401155396002D-01 -4.9202670278071D-01
   159  1.5800000000000D+00  5.5963465831150D-01 -4.9508827953824D-01
   160  1.5900000000000D+00  5.8521839010525D-01 -4.9763262226734D-01
   161  1.6000000000000D+00  6.1072612914814D-01 -4.9966814428229D-01
   162  1.6100000000000D+00  6.3612128943477D-01 -5.0120373727532D-01
   163  1.6200000000000D+00  6.6136738363058D-01 -5.0224875150127D-01
   164  1.6300000000000D+00  6.8642808740955D-01 -5.0281297551858D-01
   165  1.6400000000000D+00  7.1126730350780D-01 -5.0290661552406D-01
   166  1.6500000000000D+00  7.3584922536587D-01 -5.0254027432192D-01
   167  1.6600000000000D+00  7.6013840021670D-01 -5.0172492996552D-01
   168  1.6700000000000D+00  7.8409979150135D-01 -5.0047191411237D-01
   169  1.6800000000000D+00  8.0769884046362D-01 -4.9879289013205D-01
   170  1.6900000000000D+00  8.3090152681887D-01 -4.9669983100680D-01
   171  1.7000000000000D+00  8.5367442834187D-01 -4.9420499706603D-01
   172  1.7100000000000D+00  8.7598477928444D-01 -4.9132091359259D-01
   173  1.7200000000000D+00  8.9780052746291D-01 -4.8806034834392D-01
   174  1.7300000000000D+00  9.1909038994200D-01 -4.8443628902331D-01
   175  1.7400000000000D+00  9.3982390715349D-01 -4.8046192074595D-01
   176  1.7500000000000D+00  9.5997149539057D-01 -4.7615060353239D-01
   177  1.7600000000000D+00  9.7950449752015D-01 -4.7151584987467D-01
   178  1.7700000000000D+00  9.9839523186332D-01 -4.6657130240575D-01
   179  1.7800000000000D+00  1.0166170390999D+00 -4.6133071171644D-01
   180  1.7900000000000D+00  1.0341443271465D+00 -4.5580791434997D-01
   181  1.8000000000000D+00  1.0509526138928D+00 -4.5001681101470D-01
   182  1.8100000000000D+00  1.0670185677297D+00 -4.4397134504718D-01
   183  1.8200000000000D+00  1.0823200458014D+00 -4.3768548115857D-01
   184  1.8300000000000D+00  1.0968361298799D+00 -4.3117318450269D-01
   185  1.8400000000000D+00  1.1105471598670D+00 -4.2444840008597D-01
   186  1.8500000000000D+00  1.1234347647606D+00 -4.1752503256884D-01
   187  1.8600000000000D+00  1.1354818911878D+00 -4.1041692646050D-01
   188  1.8700000000000D+00  1.1466728292721D+00 -4.0313784677076D-01
   189  1.8800000000000D+00  1.1569932360134D+00 -3.9570146010503D-01
   190  1.8900000000000D+00  1.1664301559393D+00 -3.8812131626945D-01
   191  1.9000000000000D+00  1.1749720391944D+00 -3.8041083037307D-01
   192  1.9100000000000D+00  1.1826087569146D+00 -3.7258326547799D-01
   193  1.9200000000000D+00  1.1893316139543D+00 -3.6465171580315D-01
   194  1.9300000000000D+00  1.1951333589717D+00 -3.5662909050091D-01
   195  1.9400000000000D+00  1.2000081917870D+00 -3.4852809804401D-01
   196  1.9500000000000D+00  1.2039517682169D+00 -3.4036123119946D-01
   197  1.9600000000000D+00  1.2069612021456D+00 -3.3214075266162D-01
   198  1.9700000000000D+00  1.2090350651550D+00 -3.2387868129290D-01
   199  1.9800000000000D+00  1.2101733834900D+00 -3.1558677904319D-01
   200  1.9900000000000D+00  1.2103776325860D+00 -3.0727653851606D-01
   201  2.0000000000000D+00  1.2096507291447D+00 -2.9895917120578D-01
   202  2.0100000000000D+00  1.2079970207475D+00 -2.9064559642855D-01
   203  2.0200000000000D+00  1.2054222732802D+00 -2.8234643090276D-01
   204  2.0300000000000D+00  1.2019336559360D+00 -2.7407197905742D-01
   205  2.0400000000000D+00  1.1975397241969D+00 -2.6583222398953D-01
   206  2.0500000000000D+00  1.1922504006367D+00 -2.5763681913381D-01
   207  2.0600000000000D+00  1.1860769537426D+00 -2.4949508061487D-01
   208  2.0700000000000D+00  1.1790319749064D+00 -2.4141598026505D-01
   209  2.0800000000000D+00  1.1711293534991D+00 -2.3340813935617D-01
   210  2.0900000000000D+00  1.1623842504023D+00 -2.2547982296320D-01
   211  2.1000000000000D+00  1.1528130698579D+00 -2.1763893502723D-01
   212  2.1100000000000D+00  1.1424334299138D+00 -2.0989301406046D-01
   213  2.1200000000000D+00  1.1312641315742D+00 -2.0224922948657D-01
   214  2.1300000000000D+00  1.1193251266612D+00 -1.9471437864648D-01
   215  2.1400000000000D+00  1.1066374847157D+00 -1.8729488438589D-01
   216  2.1500000000000D+00  1.0932233588833D+00 -1.7999679328195D-01
   217  2.1600000000000D+00  1.0791059510341D+00 -1.7282577444956D-01
   218  2.1700000000000D+00  1.0643094762589D+00 -1.6578711890765D-01
   219  2.1800000000000D+00  1.0488591267954D+00 -1.5888573953416D-01
   220  2.1900000000000D+00  1.0327810356434D+00 -1.5212617152489D-01
   221  2.2000000000000D+00  1.0161022399382D+00 -1.4551257339010D-01
   222  2.2100000000000D+00  9.9885064425403D-01 -1.3904872845061D-01
   223  2.2200000000000D+00  9.8105498399597D-01 -1.3273804678399D-01
   224  2.2300000000000D+00  9.6274478902315D-01 -1.2658356765736D-01
   225  2.2400000000000D+00  9.4395034763979D-01 -1.2058796236560D-01
   226  2.2500000000000D+00  9.2470267111664D-01 -1.1475353747909D-01
   227  2.2600000000000D+00  9.0503345892127D-01 -1.0908223848450D-01
   228  2.2700000000000D+00  8.8497506470172D-01 -1.0357565376480D-01
   229  2.2800000000000D+00  8.6456046331038D-01 -9.8235018921789D-02
   230  2.2900000000000D+00  8.4382321894188D-01 -9.3061221402078D-02
   231  2.3000000000000D+00  8.2279745440288D-01 -8.8054805395544D-02
   232  2.3100000000000D+00  8.0151782535815D-01 -8.3215976820116D-02
   233  2.3200000000000D+00  7.8001948718232D-01 -7.8544608980526D-02
   234  2.3300000000000D+00  7.5833805204017D-01 -7.4040249014822D-02
   235  2.3400000000000D+00  7.3650965063915D-01 -6.9702119006417D-02
   236  2.3500000000000D+00  7.1457075816900D-01 -6.5529130359281D-02
   237  2.3600000000000D+00  6.9255820763313D-01 -6.1519887911453D-02
   238  2.3700000000000D+00  6.7050918200813D-01 -5.7672694044786D-02
   239  2.3800000000000D+00  6.4846172357771D-01 -5.3985530043806D-02
   240  2.3900000000000D+00  6.2645412336290D-01 -5.0456091628961D-02
   241  2.4000000000000D+00  6.0452442554863D-01 -4.7081821995752D-02
   242  2.4100000000000D+00  5.8271003066885D-01 -4.3859931906001D-02
   243  2.4200000000000D+00  5.6104732360336D-01 -4.0787435447164D-02
   244  2.4300000000000D+00  5.3957150740790D-01 -3.7861169415979D-02
   245  2.4400000000000D+00  5.1831540121783D-01 -3.5077867746651D-02
   246  2.4500000000000D+00  4.9731023973188D-01 -3.2434133143967D-02
   247  2.4600000000000D+00  4.7658541618515D-01 -2.9926463507022D-02
   248  2.4700000000000D+00  4.5616885810372D-01 -2.7551249434633D-02
   249  2.4800000000000D+00  4.3608666241035D-01 -2.5304802333096D-02
   250  2.4900000000000D+00  4.1636319279011D-01 -2.3183362935028D-02
   251  2.5000000000000D+00  3.9702112542971D-01 -2.1183111526339D-02
   252  2.5100000000000D+00  3.7808141377692D-01 -1.9300181590140D-02
   253  2.5200000000000D+00  3.5956330918575D-01 -1.7530670600249D-02
   254  2.5300000000000D+00  3.4148437310108D-01 -1.5870650927841D-02
   255  2.5400000000000D+00  3.2386049276991D-01 -1.4316180189825D-02
   256  2.5500000000000D+00  3.0670589946743D-01 -1.2863311212734D-02
   257  2.5600000000000D+00  2.9003318940791D-01 -1.1508101568726D-02
   258  2.5700000000000D+00  2.7385334802730D-01 -1.0246622535708D-02
   259  2.5800000000000D+00  2.5817577663906D-01 -9.0749676606663D-03
   260  2.5900000000000D+00  2.4300832154141D-01 -7.9892608996205D-03
   261  2.6000000000000D+00  2.2835730630444D-01 -6.9856641706602D-03
   262  2.6100000000000D+00  2.1422756624326D-01 -6.0603845064168D-03
   263  2.6200000000000D+00  2.0062248503144D-01 -5.2096808046950D-03
   264  2.6300000000000D+00  1.8754403427008D-01 -4.4298699864898D-03
   265  2.6400000000000D+00  1.7499281497660D-01 -3.7173327660090D-03
   266  2.6500000000000D+00  1.6296810093920D-01 -3.0685190336036D-03
   267  2.6600000000000D+00  1.5146788464098D-01 -2.4799526743569D-03
   268  2.6700000000000D+00  1.4048892485980D-01 -1.9482360065595D-03
   269  2.6800000000000D+00  1.3002679586923D-01 -1.4700538447522D-03
   270  2.6900000000000D+00  1.2007593867390D-01 -1.0421770626854D-03
   271  2.7000000000000D+00  1.1062971372582D-01 -6.6146577063325D-04
   272  2.7100000000000D+00  1.0168045491856D-01 -3.2487214155072D-04
   273  2.7200000000000D+00  9.3219525059123D-02 -2.9442811840140D-05
   274  2.7300000000000D+00  8.5237372584663D-02  2.2767910409604D-04
   275  2.7400000000000D+00  7.7723589208028D-02  4.4925232042102D-04
   276  2.7500000000000D+00  7.0666968500411D-02  6.3793603302000D-04
   277  2.7600000000000D+00  6.4055565413258D-02  7.9628894940389D-04
   278  2.7700000000000D+00  5.7876756355045D-02  9.2676860421700D-04
   279  2.7800000000000D+00  5.2117299734536D-02  1.0317309480389D-03
   280  2.7900000000000D+00  4.6763397033312D-02  1.1134302884716D-03
   281  2.8000000000000D+00  4.1800754031643D-02  1.1740194657346D-03
   282  2.8100000000000D+00  3.7214642159488D-02  1.2155502694335D-03
   283  2.8200000000000D+00  3.2989959811575D-02  1.2399741246573D-03
   284  2.8300000000000D+00  2.9111293477493D-02  1.2491429908387D-03
   285  2.8400000000000D+00  2.5562978597922D-02  1.2448104594303D-03
   286  2.8500000000000D+00  2.2329159956501D-02  1.2286330429886D-03
   287  2.8600000000000D+00  1.9393851406249D-02  1.2021716428835D-03
   288  2.8700000000000D+00  1.6740994884589D-02  1.1668931639539D-03
   289  2.8800000000000D+00  1.4354518805852D-02  1.1241722782643D-03
   290  2.8900000000000D+00  1.2218395023456D-02  1.0752932938288D-03
   291  2.9000000000000D+00  1.0316694862396D-02  1.0214521326238D-03
   292  2.9100000000000D+00  8.6336440763531D-03  9.6375841309404D-04
   293  2.9200000000000D+00  7.1536761534739D-03  9.0323758313304D-04
   294  2.9300000000000D+00  5.8614840333625D-03  8.4083310165320D-04
   295  2.9400000000000D+00  4.7420702821761D-03  7.7740866547824D-04
   296  2.9500000000000D+00  3.7807959340329D-03  7.1375050113307D-04
   297  2.9600000000000D+00  2.9634265422393D-03  6.5056957479930D-04
   298  2.9700000000000D+00  2.2761766924754D-03  5.8850383686578D-04
   299  2.9800000000000D+00  1.7057528002682D-03  5.2812048582238D-04
   300  2.9900000000000D+00  1.2393931326950D-03  4.6991813375319D-04
   301  3.0000000000000D+00  8.6490543229805D-04  4.1432891067199D-04
   302  3.0100000000000D+00  5.7070221447560D-04  3.6172051123619D-04
   303  3.0200000000000D+00  3.4583459708375D-04  3.1239827933600D-04
   304  3.0300000000000D+00  1.8002162811948D-04  2.6660698738478D-04
   305  3.0400000000000D+00  6.3677965396703D-05  2.2453262710256D-04
   306  3.0500000000000D+00 -1.2060866360791D-05  1.8630412429367D-04
   307  3.0600000000000D+00 -5.5316318715197D-05  1.5199489674582D-04
   308  3.0700000000000D+00 -7.3448342482065D-05  1.2162418632570D-04
   309  3.0800000000000D+00 -7.2907785331547D-05  9.5152372673847D-05
   310  3.0900000000000D+00 -5.9658386910722D-05  7.2501872020381D-05
   311  3.1000000000000D+00 -3.8791430504862D-05  5.3541025615202D-05
   312  3.1100000000000D+00 -1.4582829963029D-05  3.8080863209089D-05
   313  3.1200000000000D+00  9.1587652510483D-06  2.5866881467432D-05
   314  3.1300000000000D+00  3.1122492160966D-05  1.6637840541721D-05
   315  3.1400000000000D+00  4.9985121329827D-05  1.0058133157297D-05
   316  3.1500000000000D+00  6.5635113453646D-05  5.7988288776362D-06
   317  3.1600000000000D+00  7.7372046120714D-05  3.4206267423836D-06
   318  3.1700000000000D+00  8.2264910411323D-05  2.2709075137950D-06
   319  3.1800000000000D+00  7.9215303004717D-05  1.8207596410180D-06
   320  3.1900000000000D+00  6.5748629868586D-05  1.4599369392289D-06
   321  3.2000000000000D+00  4.5046171535414D-05  1.0114622122943D-06
   322  3.2100000000000D+00  2.2822983415424D-05  5.3762699050112D-07
   323  3.2200000000000D+00  3.3855141027876D-06  8.4692469624472D-08
   324  3.2300000000000D+00 -6.1632127872148D-06 -1.1020147970005D-07
   325  3.2400000000000D+00 -8.1716695856607D-06 -1.4554876439297D-07
   326  3.2500000000000D+00 -5.4014438420079D-06 -9.6323200401910D-08
   327  3.2600000000000D+00 -4.0141680325225D-07 -7.1891283231038D-09
   328  3.2700000000000D+00  1.4088659953702D-06  2.0172733475077D-08
   329  3.2800000000000D+00  1.8485503816795D-06  2.5902550892498D-08
   330  3.2900000000000D+00  1.2217095109645D-06  1.6795363482373D-08
   331  3.3000000000000D+00 -1.9950531792290D-09 -4.5646379272566D-11
   332  3.3100000000000D+00 -1.6654464367897D-07 -3.8105049280554D-09
   333  3.3200000000000D+00 -2.1349453108054D-07 -4.8847080567984D-09
   334  3.3300000000000D+00 -1.3968075352341D-07 -3.1958650119150D-09
   335  3.3400000000000D+00  0.0000000000000D+00  0.0000000000000D+00
   336  3.3500000000000D+00  0.0000000000000D+00  0.0000000000000D+00
   337  3.3600000000000D+00  0.0000000000000D+00  0.0000000000000D+00
   338  3.3700000000000D+00  0.0000000000000D+00  0.0000000000000D+00
   339  3.3800000000000D+00  0.0000000000000D+00  0.0000000000000D+00
   340  3.3900000000000D+00  0.0000000000000D+00  0.0000000000000D+00
   341  3.4000000000000D+00  0.0000000000000D+00  0.0000000000000D+00
   342  3.4100000000000D+00  0.0000000000000D+00  0.0000000000000D+00
   343  3.4200000000000D+00  0.0000000000000D+00  0.0000000000000D+00
   344  3.4300000000000D+00  0.0000000000000D+00  0.0000000000000D+00
   345  3.4400000000000D+00  0.0000000000000D+00  0.0000000000000D+00
   346  3.4500000000000D+00  0.0000000000000D+00  0.0000000000000D+00
   347  3.4600000000000D+00  0.0000000000000D+00  0.0000000000000D+00
   348  3.4700000000000D+00  0.0000000000000D+00  0.0000000000000D+00
   349  3.4800000000000D+00  0.0000000000000D+00  0.0000000000000D+00
   350  3.4900000000000D+00  0.0000000000000D+00  0.0000000000000D+00
   351  3.5000000000000D+00  0.0000000000000D+00  0.0000000000000D+00
   352  3.5100000000000D+00  0.0000000000000D+00  0.0000000000000D+00
   353  3.5200000000000D+00  0.0000000000000D+00  0.0000000000000D+00
   354  3.5300000000000D+00  0.0000000000000D+00  0.0000000000000D+00
   355  3.5400000000000D+00  0.0000000000000D+00  0.0000000000000D+00
   356  3.5500000000000D+00  0.0000000000000D+00  0.0000000000000D+00
   357  3.5600000000000D+00  0.0000000000000D+00  0.0000000000000D+00
   358  3.5700000000000D+00  0.0000000000000D+00  0.0000000000000D+00
   359  3.5800000000000D+00  0.0000000000000D+00  0.0000000000000D+00
   360  3.5900000000000D+00  0.0000000000000D+00  0.0000000000000D+00
   361  3.6000000000000D+00  0.0000000000000D+00  0.0000000000000D+00
   362  3.6100000000000D+00  0.0000000000000D+00  0.0000000000000D+00
   363  3.6200000000000D+00  0.0000000000000D+00  0.0000000000000D+00
   364  3.6300000000000D+00  0.0000000000000D+00  0.0000000000000D+00
   365  3.6400000000000D+00  0.0000000000000D+00  0.0000000000000D+00
   366  3.6500000000000D+00  0.0000000000000D+00  0.0000000000000D+00
   367  3.6600000000000D+00  0.0000000000000D+00  0.0000000000000D+00
   368  3.6700000000000D+00  0.0000000000000D+00  0.0000000000000D+00
   369  3.6800000000000D+00  0.0000000000000D+00  0.0000000000000D+00
   370  3.6900000000000D+00  0.0000000000000D+00  0.0000000000000D+00
   371  3.7000000000000D+00  0.0000000000000D+00  0.0000000000000D+00
   372  3.7100000000000D+00  0.0000000000000D+00  0.0000000000000D+00
   373  3.7200000000000D+00  0.0000000000000D+00  0.0000000000000D+00
   374  3.7300000000000D+00  0.0000000000000D+00  0.0000000000000D+00
   375  3.7400000000000D+00  0.0000000000000D+00  0.0000000000000D+00
   376  3.7500000000000D+00  0.0000000000000D+00  0.0000000000000D+00
   377  3.7600000000000D+00  0.0000000000000D+00  0.0000000000000D+00
   378  3.7700000000000D+00  0.0000000000000D+00  0.0000000000000D+00
   379  3.7800000000000D+00  0.0000000000000D+00  0.0000000000000D+00
   380  3.7900000000000D+00  0.0000000000000D+00  0.0000000000000D+00
   381  3.8000000000000D+00  0.0000000000000D+00  0.0000000000000D+00
   382  3.8100000000000D+00  0.0000000000000D+00  0.0000000000000D+00
   383  3.8200000000000D+00  0.0000000000000D+00  0.0000000000000D+00
   384  3.8300000000000D+00  0.0000000000000D+00  0.0000000000000D+00
   385  3.8400000000000D+00  0.0000000000000D+00  0.0000000000000D+00
   386  3.8500000000000D+00  0.0000000000000D+00  0.0000000000000D+00
   387  3.8600000000000D+00  0.0000000000000D+00  0.0000000000000D+00
   388  3.8700000000000D+00  0.0000000000000D+00  0.0000000000000D+00
   389  3.8800000000000D+00  0.0000000000000D+00  0.0000000000000D+00
   390  3.8900000000000D+00  0.0000000000000D+00  0.0000000000000D+00
   391  3.9000000000000D+00  0.0000000000000D+00  0.0000000000000D+00
   392  3.9100000000000D+00  0.0000000000000D+00  0.0000000000000D+00
   393  3.9200000000000D+00  0.0000000000000D+00  0.0000000000000D+00
   394  3.9300000000000D+00  0.0000000000000D+00  0.0000000000000D+00
   395  3.9400000000000D+00  0.0000000000000D+00  0.0000000000000D+00
   396  3.9500000000000D+00  0.0000000000000D+00  0.0000000000000D+00
   397  3.9600000000000D+00  0.0000000000000D+00  0.0000000000000D+00
   398  3.9700000000000D+00  0.0000000000000D+00  0.0000000000000D+00
   399  3.9800000000000D+00  0.0000000000000D+00  0.0000000000000D+00
   400  3.9900000000000D+00  0.0000000000000D+00  0.0000000000000D+00
   401  4.0000000000000D+00  0.0000000000000D+00  0.0000000000000D+00
   402  4.0100000000000D+00  0.0000000000000D+00  0.0000000000000D+00
   403  4.0200000000000D+00  0.0000000000000D+00  0.0000000000000D+00
   404  4.0300000000000D+00  0.0000000000000D+00  0.0000000000000D+00
   405  4.0400000000000D+00  0.0000000000000D+00  0.0000000000000D+00
   406  4.0500000000000D+00  0.0000000000000D+00  0.0000000000000D+00
   407  4.0600000000000D+00  0.0000000000000D+00  0.0000000000000D+00
   408  4.0700000000000D+00  0.0000000000000D+00  0.0000000000000D+00
   409  4.0800000000000D+00  0.0000000000000D+00  0.0000000000000D+00
   410  4.0900000000000D+00  0.0000000000000D+00  0.0000000000000D+00
   411  4.1000000000000D+00  0.0000000000000D+00  0.0000000000000D+00
   412  4.1100000000000D+00  0.0000000000000D+00  0.0000000000000D+00
   413  4.1200000000000D+00  0.0000000000000D+00  0.0000000000000D+00
   414  4.1300000000000D+00  0.0000000000000D+00  0.0000000000000D+00
   415  4.1400000000000D+00  0.0000000000000D+00  0.0000000000000D+00
   416  4.1500000000000D+00  0.0000000000000D+00  0.0000000000000D+00
   417  4.1600000000000D+00  0.0000000000000D+00  0.0000000000000D+00
   418  4.1700000000000D+00  0.0000000000000D+00  0.0000000000000D+00
   419  4.1800000000000D+00  0.0000000000000D+00  0.0000000000000D+00
   420  4.1900000000000D+00  0.0000000000000D+00  0.0000000000000D+00
   421  4.2000000000000D+00  0.0000000000000D+00  0.0000000000000D+00
   422  4.2100000000000D+00  0.0000000000000D+00  0.0000000000000D+00