Re    ONCVPSP-3.3.1  r_core=   1.99393   2.09138   1.81245   2.65487
     75.0000     15.0000      210905    zatom,zion,pspd
     8 -116133   3     4   600     0    pspcod,pspxc,lmax,lloc,mmax,r2well
  5.99000000  0.00000000  0.00000000    rchrg fchrg qchrg
     2     2     2     2     0    nproj
     1     1           extension_switch
   0                         1.2123080051464D+01  2.0123707368183D+00
     1  0.0000000000000D+00  4.7980786010982D-11 -1.0851332332695D-10
     2  1.0000000000000D-02  5.2050909531076D-02 -1.0634699115206D-02
     3  2.0000000000000D-02  1.0405408338261D-01 -2.1274191665807D-02
     4  3.0000000000000D-02  1.5596165480276D-01 -3.1922819075191D-02
     5  4.0000000000000D-02  2.0772549660304D-01 -4.2584022876105D-02
     6  5.0000000000000D-02  2.5929709519792D-01 -5.3259905071341D-02
     7  6.0000000000000D-02  3.1062742971983D-01 -6.3950800784889D-02
     8  7.0000000000000D-02  3.6166685784494D-01 -7.4654867172923D-02
     9  8.0000000000000D-02  4.1236500991723D-01 -8.5367692455431D-02
    10  9.0000000000000D-02  4.6267069289853D-01 -9.6081928794714D-02
    11  1.0000000000000D-01  5.1253180560190D-01 -1.0678695258675D-01
    12  1.1000000000000D-01  5.6189526658400D-01 -1.1746855554656D-01
    13  1.2000000000000D-01  6.1070695598053D-01 -1.2810866975995D-01
    14  1.3000000000000D-01  6.5891167246696D-01 -1.3868512964249D-01
    15  1.4000000000000D-01  7.0645310641624D-01 -1.4917147349341D-01
    16  1.5000000000000D-01  7.5327383020542D-01 -1.5953678705852D-01
    17  1.6000000000000D-01  7.9931530649593D-01 -1.6974559122388D-01
    18  1.7000000000000D-01  8.4451791517763D-01 -1.7975777565197D-01
    19  1.8000000000000D-01  8.8882099952577D-01 -1.8952857984649D-01
    20  1.9000000000000D-01  9.3216293197344D-01 -1.9900862279245D-01
    21  2.0000000000000D-01  9.7448119975100D-01 -2.0814398196616D-01
    22  2.1000000000000D-01  1.0157125104888D+00 -2.1687632214851D-01
    23  2.2000000000000D-01  1.0557929177220D+00 -2.2514307410433D-01
    24  2.3000000000000D-01  1.0946579660764D+00 -2.3287766281580D-01
    25  2.4000000000000D-01  1.1322428557541D+00 -2.4000978457817D-01
    26  2.5000000000000D-01  1.1684826257774D+00 -2.4646573188589D-01
    27  2.6000000000000D-01  1.2033123552905D+00 -2.5216876465826D-01
    28  2.7000000000000D-01  1.2366673820624D+00 -2.5703952597807D-01
    29  2.8000000000000D-01  1.2684835371809D+00 -2.6099650014783D-01
    30  2.9000000000000D-01  1.2986973947788D+00 -2.6395651050769D-01
    31  3.0000000000000D-01  1.3272465354914D+00 -2.6583525411003D-01
    32  3.1000000000000D-01  1.3540698222062D+00 -2.6654787001108D-01
    33  3.2000000000000D-01  1.3791076865391D+00 -2.6600953762063D-01
    34  3.3000000000000D-01  1.4023024243495D+00 -2.6413610125191D-01
    35  3.4000000000000D-01  1.4235984984955D+00 -2.6084471673502D-01
    36  3.5000000000000D-01  1.4429428469341D+00 -2.5605451570319D-01
    37  3.6000000000000D-01  1.4602851941765D+00 -2.4968728293269D-01
    38  3.7000000000000D-01  1.4755783640382D+00 -2.4166814191712D-01
    39  3.8000000000000D-01  1.4887785915559D+00 -2.3192624368735D-01
    40  3.9000000000000D-01  1.4998458318944D+00 -2.2039545375051D-01
    41  4.0000000000000D-01  1.5087440640317D+00 -2.0701503191813D-01
    42  4.1000000000000D-01  1.5154415869884D+00 -1.9173029972524D-01
    43  4.2000000000000D-01  1.5199113063620D+00 -1.7449329011089D-01
    44  4.3000000000000D-01  1.5221310089361D+00 -1.5526337403697D-01
    45  4.4000000000000D-01  1.5220836231613D+00 -1.3400785876759D-01
    46  4.5000000000000D-01  1.5197574633424D+00 -1.1070255261537D-01
    47  4.6000000000000D-01  1.5151464554280D+00 -8.5332291085482D-02
    48  4.7000000000000D-01  1.5082503423676D+00 -5.7891419511400D-02
    49  4.8000000000000D-01  1.4990748670922D+00 -2.8384227480096D-02
    50  4.9000000000000D-01  1.4876319312775D+00  3.1746694146887D-03
    51  5.0000000000000D-01  1.4739397281657D+00  3.6760004671808D-02
    52  5.1000000000000D-01  1.4580228478594D+00  7.2335596699796D-02
    53  5.2000000000000D-01  1.4399123536404D+00  1.0985414886429D-01
    54  5.3000000000000D-01  1.4196458280337D+00  1.4925711689408D-01
    55  5.4000000000000D-01  1.3972673875011D+00  1.9047464635675D-01
    56  5.5000000000000D-01  1.3728276648374D+00  2.3342558247029D-01
    57  5.6000000000000D-01  1.3463837585291D+00  2.7801755404493D-01
    58  5.7000000000000D-01  1.3179991485401D+00  3.2414713285429D-01
    59  5.8000000000000D-01  1.2877435781971D+00  3.7170006922100D-01
    60  5.9000000000000D-01  1.2556929020603D+00  4.2055160406797D-01
    61  6.0000000000000D-01  1.2219288998855D+00  4.7056685714503D-01
    62  6.1000000000000D-01  1.1865390570076D+00  5.2160129058261D-01
    63  6.2000000000000D-01  1.1496163116977D+00  5.7350124636875D-01
    64  6.3000000000000D-01  1.1112587702719D+00  6.2610455578289D-01
    65  6.4000000000000D-01  1.0715693909538D+00  6.7924121826294D-01
    66  6.5000000000000D-01  1.0306556377109D+00  7.3273414663387D-01
    67  6.6000000000000D-01  9.8862910550345D-01  7.8639997508547D-01
    68  6.7000000000000D-01  9.4560511859056D-01  8.4004992576569D-01
    69  6.8000000000000D-01  9.0170230374347D-01  8.9349072935495D-01
    70  6.9000000000000D-01  8.5704214040506D-01  9.4652559450658D-01
    71  7.0000000000000D-01  8.1174849001849D-01  9.9895522059098D-01
    72  7.1000000000000D-01  7.6594710691574D-01  1.0505788477633D+00
    73  7.2000000000000D-01  7.1976513331285D-01  1.1011953379934D+00
    74  7.3000000000000D-01  6.7333058109961D-01  1.1506042803557D+00
    75  7.4000000000000D-01  6.2677180323568D-01  1.1986071135750D+00
    76  7.5000000000000D-01  5.8021695767283D-01  1.2450082585752D+00
    77  7.6000000000000D-01  5.3379346681237D-01  1.2896162535675D+00
    78  7.7000000000000D-01  4.8762747557706D-01  1.3322448840643D+00
    79  7.8000000000000D-01  4.4184331122772D-01  1.3727143000978D+00
    80  7.9000000000000D-01  3.9656294808555D-01  1.4108521128774D+00
    81  8.0000000000000D-01  3.5190548033073D-01  1.4464944631219D+00
    82  8.1000000000000D-01  3.0798660603756D-01  1.4794870533659D+00
    83  8.2000000000000D-01  2.6491812557415D-01  1.5096861366544D+00
    84  8.3000000000000D-01  2.2280745744263D-01  1.5369594542124D+00
    85  8.4000000000000D-01  1.8175717456211D-01  1.5611871149003D+00
    86  8.5000000000000D-01  1.4186456390347D-01  1.5822624095463D+00
    87  8.6000000000000D-01  1.0322121227205D-01  1.6000925535765D+00
    88  8.7000000000000D-01  6.5912620901911D-02  1.6145993517418D+00
    89  8.8000000000000D-01  3.0017851375422D-02  1.6257197791695D+00
    90  8.9000000000000D-01 -4.3907947852041D-03  1.6334064734346D+00
    91  9.0000000000000D-01 -3.7248060691299D-02  1.6376281328570D+00
    92  9.1000000000000D-01 -6.8495980860393D-02  1.6383698167792D+00
    93  9.2000000000000D-01 -9.8084088433727D-02  1.6356331441556D+00
    94  9.3000000000000D-01 -1.2596958130692D-01  1.6294363873943D+00
    95  9.4000000000000D-01 -1.5211744587486D-01  1.6198144590226D+00
    96  9.5000000000000D-01 -1.7650053733380D-01  1.6068187893962D+00
    97  9.6000000000000D-01 -1.9909961573142D-01  1.5905170943399D+00
    98  9.7000000000000D-01 -2.1990333720639D-01  1.5709930322672D+00
    99  9.8000000000000D-01 -2.3890820011900D-01  1.5483457510179D+00
   100  9.9000000000000D-01 -2.5611844602773D-01  1.5226893253123D+00
   101  1.0000000000000D+00 -2.7154591572405D-01  1.4941520863896D+00
   102  1.0100000000000D+00 -2.8520986079106D-01  1.4628758460512D+00
   103  1.0200000000000D+00 -2.9713671139993D-01  1.4290150179600D+00
   104  1.0300000000000D+00 -3.0735980130512D-01  1.3927356396704D+00
   105  1.0400000000000D+00 -3.1591905121966D-01  1.3542142994121D+00
   106  1.0500000000000D+00 -3.2286061199618D-01  1.3136369722489D+00
   107  1.0600000000000D+00 -3.2823646923706D-01  1.2711977707104D+00
   108  1.0700000000000D+00 -3.3210401116190D-01  1.2270976154794D+00
   109  1.0800000000000D+00 -3.3452556175220D-01  1.1815428321565D+00
   110  1.0900000000000D+00 -3.3556788134439D-01  1.1347436804649D+00
   111  1.1000000000000D+00 -3.3530163701912D-01  1.0869128226401D+00
   112  1.1100000000000D+00 -3.3380084525421D-01  1.0382637379875D+00
   113  1.1200000000000D+00 -3.3114228943147D-01  9.8900909082784D-01
   114  1.1300000000000D+00 -3.2740491487933D-01  9.3935905920292D-01
   115  1.1400000000000D+00 -3.2266920421469D-01  8.8951963183532D-01
   116  1.1500000000000D+00 -3.1701653580767D-01  8.3969088088526D-01
   117  1.1600000000000D+00 -3.1052852822192D-01  7.9006521802288D-01
   118  1.1700000000000D+00 -3.0328637277166D-01  7.4082563730519D-01
   119  1.1800000000000D+00 -2.9537016172921D-01  6.9214397778819D-01
   120  1.1900000000000D+00 -2.8685819759168D-01  6.4417911896466D-01
   121  1.2000000000000D+00 -2.7782636494838D-01  5.9707553463213D-01
   122  1.2100000000000D+00 -2.6834725567090D-01  5.5096053977789D-01
   123  1.2200000000000D+00 -2.5849003243847D-01  5.0594557252086D-01
   124  1.2300000000000D+00 -2.4832080714006D-01  4.6213003765610D-01
   125  1.2400000000000D+00 -2.3790328145845D-01  4.1960574824719D-01
   126  1.2500000000000D+00 -2.2729872683340D-01  3.7845748435761D-01
   127  1.2600000000000D+00 -2.1656572218521D-01  3.3876204281700D-01
   128  1.2700000000000D+00 -2.0576005668238D-01  3.0058824458043D-01
   129  1.2800000000000D+00 -1.9493460368225D-01  2.6399670700524D-01
   130  1.2900000000000D+00 -1.8413922065812D-01  2.2903972138447D-01
   131  1.3000000000000D+00 -1.7342066474999D-01  1.9576117092976D-01
   132  1.3100000000000D+00 -1.6282252631350D-01  1.6419650257448D-01
   133  1.3200000000000D+00 -1.5238518004993D-01  1.3437274973317D-01
   134  1.3300000000000D+00 -1.4214575392229D-01  1.0630860659064D-01
   135  1.3400000000000D+00 -1.3213811505235D-01  8.0014549957798D-02
   136  1.3500000000000D+00 -1.2239287227224D-01  5.5493007336536D-02
   137  1.3600000000000D+00 -1.1293739488604D-01  3.2738569196703D-02
   138  1.3700000000000D+00 -1.0379584716569D-01  1.1738243678158D-02
   139  1.3800000000000D+00 -9.4989237965401D-02 -7.5282486643105D-03
   140  1.3900000000000D+00 -8.6535484588897D-02 -2.5088143595388D-02
   141  1.4000000000000D+00 -7.8449490107573D-02 -4.0975268176479D-02
   142  1.4100000000000D+00 -7.0743233376815D-02 -5.5229644793106D-02
   143  1.4200000000000D+00 -6.3425870753110D-02 -6.7897067791132D-02
   144  1.4300000000000D+00 -5.6503848516863D-02 -7.9028656176513D-02
   145  1.4400000000000D+00 -4.9981025126477D-02 -8.8680385470150D-02
   146  1.4500000000000D+00 -4.3858802112502D-02 -9.6912602713259D-02
   147  1.4600000000000D+00 -3.8136262424315D-02 -1.0378952886258D-01
   148  1.4700000000000D+00 -3.2810315461760D-02 -1.0937875083876D-01
   149  1.4800000000000D+00 -2.7875847703377D-02 -1.1375070682182D-01
   150  1.4900000000000D+00 -2.3325877442794D-02 -1.1697817004717D-01
   151  1.5000000000000D+00 -1.9151712857647D-02 -1.1913573324672D-01
   152  1.5100000000000D+00 -1.5343111675211D-02 -1.2029929982822D-01
   153  1.5200000000000D+00 -1.1888442065232D-02 -1.2054558235846D-01
   154  1.5300000000000D+00 -8.7748441055863D-03 -1.1995161016418D-01
   155  1.5400000000000D+00 -5.9883899362825D-03 -1.1859425253055D-01
   156  1.5500000000000D+00 -3.5142418011633D-03 -1.1654975982824D-01
   157  1.5600000000000D+00 -1.3368070459781D-03 -1.1389332524605D-01
   158  1.5700000000000D+00  5.6011075744905D-04 -1.1069866953305D-01
   159  1.5800000000000D+00  2.1931652328344D-03 -1.0703765052686D-01
   160  1.5900000000000D+00  3.5793257340270D-03 -1.0297989882594D-01
   161  1.6000000000000D+00  4.7357424963292D-03 -9.8592484519839D-02
   162  1.6100000000000D+00  5.6796181742627D-03 -9.3939613341314D-02
   163  1.6200000000000D+00  6.4280870239042D-03 -8.9082356171596D-02
   164  1.6300000000000D+00  6.9981015490366D-03 -8.4078410517761D-02
   165  1.6400000000000D+00  7.4063277337868D-03 -7.8981897356113D-02
   166  1.6500000000000D+00  7.6690484984126D-03 -7.3843191321056D-02
   167  1.6600000000000D+00  7.8020763079485D-03 -6.8708786902106D-02
   168  1.6700000000000D+00  7.8206744763888D-03 -6.3621198327524D-02
   169  1.6800000000000D+00  7.7394878897505D-03 -5.8618895028192D-02
   170  1.6900000000000D+00  7.5724825738482D-03 -5.3736269980560D-02
   171  1.7000000000000D+00  7.3328946584607D-03 -4.9003642187568D-02
   172  1.7100000000000D+00  7.0331880202727D-03 -4.4447290132982D-02
   173  1.7200000000000D+00  6.6850210297772D-03 -4.0089516994638D-02
   174  1.7300000000000D+00  6.2992215159472D-03 -3.5948743920271D-02
   175  1.7400000000000D+00  5.8857702918660D-03 -3.2039631824605D-02
   176  1.7500000000000D+00  5.4537921788973D-03 -2.8373227485951D-02
   177  1.7600000000000D+00  5.0115548163104D-03 -2.4957134139536D-02
   178  1.7700000000000D+00  4.5664740455371D-03 -2.1795701966655D-02
   179  1.7800000000000D+00  4.1251260869276D-03 -1.8890238329001D-02
   180  1.7900000000000D+00  3.6932652330715D-03 -1.6239233120940D-02
   181  1.8000000000000D+00  3.2758471259338D-03 -1.3838598422888D-02
   182  1.8100000000000D+00  2.8770564582337D-03 -1.1681918436928D-02
   183  1.8200000000000D+00  2.5003388456320D-03 -9.7607077080791D-03
   184  1.8300000000000D+00  2.1484360168944D-03 -8.0646747642512D-03
   185  1.8400000000000D+00  1.8234237011238D-03 -6.5819879936088D-03
   186  1.8500000000000D+00  1.5267516465018D-03 -5.2995418237363D-03
   187  1.8600000000000D+00  1.2592849575154D-03 -4.2032196149123D-03
   188  1.8700000000000D+00  1.0213462555167D-03 -3.2781513438820D-03
   189  1.8800000000000D+00  8.1275800351994D-04 -2.5089634745269D-03
   190  1.8900000000000D+00  6.3288420285120D-04 -1.8800176380520D-03
   191  1.9000000000000D+00  4.8067141457036D-04 -1.3756382857972D-03
   192  1.9100000000000D+00  3.5468763350959D-04 -9.8032302964548D-04
   193  1.9200000000000D+00  2.5315983056539D-04 -6.7893944895788D-04
   194  1.9300000000000D+00  1.7402424697896D-04 -4.5698748309941D-04
   195  1.9400000000000D+00  1.1489784513365D-04 -3.0042807586539D-04
   196  1.9500000000000D+00  7.3041209977662D-05 -1.9566912482828D-04
   197  1.9600000000000D+00  4.5703015228869D-05 -1.3094052770525D-04
   198  1.9700000000000D+00  3.0494301353159D-05 -9.7613885559472D-05
   199  1.9800000000000D+00  2.5051289965167D-05 -8.8530262643841D-05
   200  1.9900000000000D+00  2.2360277117444D-05 -8.2059966796242D-05
   201  2.0000000000000D+00  1.6029476361910D-05 -5.9174656702883D-05
   202  2.0100000000000D+00  6.5369122431664D-06 -2.4103727107806D-05
   203  2.0200000000000D+00 -8.3948342726169D-07  3.1368017104133D-06
   204  2.0300000000000D+00 -2.0896221443787D-06  7.8173277307293D-06
   205  2.0400000000000D+00 -4.5130803740992D-07  1.6891212807416D-06
   206  2.0500000000000D+00  4.3141734932366D-07 -1.6230228987619D-06
   207  2.0600000000000D+00  3.2528893145444D-07 -1.2252646897841D-06
   208  2.0700000000000D+00 -2.8217579353187D-08  1.0381815476823D-07
   209  2.0800000000000D+00 -5.7825436511624D-08  2.1275142145126D-07
   210  2.0900000000000D+00 -9.6636628051049D-09  3.5554560799526D-08
   211  2.1000000000000D+00  0.0000000000000D+00  0.0000000000000D+00
   212  2.1100000000000D+00  0.0000000000000D+00  0.0000000000000D+00
   213  2.1200000000000D+00  0.0000000000000D+00  0.0000000000000D+00
   214  2.1300000000000D+00  0.0000000000000D+00  0.0000000000000D+00
   215  2.1400000000000D+00  0.0000000000000D+00  0.0000000000000D+00
   216  2.1500000000000D+00  0.0000000000000D+00  0.0000000000000D+00
   217  2.1600000000000D+00  0.0000000000000D+00  0.0000000000000D+00
   218  2.1700000000000D+00  0.0000000000000D+00  0.0000000000000D+00
   219  2.1800000000000D+00  0.0000000000000D+00  0.0000000000000D+00
   220  2.1900000000000D+00  0.0000000000000D+00  0.0000000000000D+00
   221  2.2000000000000D+00  0.0000000000000D+00  0.0000000000000D+00
   222  2.2100000000000D+00  0.0000000000000D+00  0.0000000000000D+00
   223  2.2200000000000D+00  0.0000000000000D+00  0.0000000000000D+00
   224  2.2300000000000D+00  0.0000000000000D+00  0.0000000000000D+00
   225  2.2400000000000D+00  0.0000000000000D+00  0.0000000000000D+00
   226  2.2500000000000D+00  0.0000000000000D+00  0.0000000000000D+00
   227  2.2600000000000D+00  0.0000000000000D+00  0.0000000000000D+00
   228  2.2700000000000D+00  0.0000000000000D+00  0.0000000000000D+00
   229  2.2800000000000D+00  0.0000000000000D+00  0.0000000000000D+00
   230  2.2900000000000D+00  0.0000000000000D+00  0.0000000000000D+00
   231  2.3000000000000D+00  0.0000000000000D+00  0.0000000000000D+00
   232  2.3100000000000D+00  0.0000000000000D+00  0.0000000000000D+00
   233  2.3200000000000D+00  0.0000000000000D+00  0.0000000000000D+00
   234  2.3300000000000D+00  0.0000000000000D+00  0.0000000000000D+00
   235  2.3400000000000D+00  0.0000000000000D+00  0.0000000000000D+00
   236  2.3500000000000D+00  0.0000000000000D+00  0.0000000000000D+00
   237  2.3600000000000D+00  0.0000000000000D+00  0.0000000000000D+00
   238  2.3700000000000D+00  0.0000000000000D+00  0.0000000000000D+00
   239  2.3800000000000D+00  0.0000000000000D+00  0.0000000000000D+00
   240  2.3900000000000D+00  0.0000000000000D+00  0.0000000000000D+00
   241  2.4000000000000D+00  0.0000000000000D+00  0.0000000000000D+00
   242  2.4100000000000D+00  0.0000000000000D+00  0.0000000000000D+00
   243  2.4200000000000D+00  0.0000000000000D+00  0.0000000000000D+00
   244  2.4300000000000D+00  0.0000000000000D+00  0.0000000000000D+00
   245  2.4400000000000D+00  0.0000000000000D+00  0.0000000000000D+00
   246  2.4500000000000D+00  0.0000000000000D+00  0.0000000000000D+00
   247  2.4600000000000D+00  0.0000000000000D+00  0.0000000000000D+00
   248  2.4700000000000D+00  0.0000000000000D+00  0.0000000000000D+00
   249  2.4800000000000D+00  0.0000000000000D+00  0.0000000000000D+00
   250  2.4900000000000D+00  0.0000000000000D+00  0.0000000000000D+00
   251  2.5000000000000D+00  0.0000000000000D+00  0.0000000000000D+00
   252  2.5100000000000D+00  0.0000000000000D+00  0.0000000000000D+00
   253  2.5200000000000D+00  0.0000000000000D+00  0.0000000000000D+00
   254  2.5300000000000D+00  0.0000000000000D+00  0.0000000000000D+00
   255  2.5400000000000D+00  0.0000000000000D+00  0.0000000000000D+00
   256  2.5500000000000D+00  0.0000000000000D+00  0.0000000000000D+00
   257  2.5600000000000D+00  0.0000000000000D+00  0.0000000000000D+00
   258  2.5700000000000D+00  0.0000000000000D+00  0.0000000000000D+00
   259  2.5800000000000D+00  0.0000000000000D+00  0.0000000000000D+00
   260  2.5900000000000D+00  0.0000000000000D+00  0.0000000000000D+00
   261  2.6000000000000D+00  0.0000000000000D+00  0.0000000000000D+00
   262  2.6100000000000D+00  0.0000000000000D+00  0.0000000000000D+00
   263  2.6200000000000D+00  0.0000000000000D+00  0.0000000000000D+00
   264  2.6300000000000D+00  0.0000000000000D+00  0.0000000000000D+00
   265  2.6400000000000D+00  0.0000000000000D+00  0.0000000000000D+00
   266  2.6500000000000D+00  0.0000000000000D+00  0.0000000000000D+00
   267  2.6600000000000D+00  0.0000000000000D+00  0.0000000000000D+00
   268  2.6700000000000D+00  0.0000000000000D+00  0.0000000000000D+00
   269  2.6800000000000D+00  0.0000000000000D+00  0.0000000000000D+00
   270  2.6900000000000D+00  0.0000000000000D+00  0.0000000000000D+00
   271  2.7000000000000D+00  0.0000000000000D+00  0.0000000000000D+00
   272  2.7100000000000D+00  0.0000000000000D+00  0.0000000000000D+00
   273  2.7200000000000D+00  0.0000000000000D+00  0.0000000000000D+00
   274  2.7300000000000D+00  0.0000000000000D+00  0.0000000000000D+00
   275  2.7400000000000D+00  0.0000000000000D+00  0.0000000000000D+00
   276  2.7500000000000D+00  0.0000000000000D+00  0.0000000000000D+00
   277  2.7600000000000D+00  0.0000000000000D+00  0.0000000000000D+00
   278  2.7700000000000D+00  0.0000000000000D+00  0.0000000000000D+00
   279  2.7800000000000D+00  0.0000000000000D+00  0.0000000000000D+00
   280  2.7900000000000D+00  0.0000000000000D+00  0.0000000000000D+00
   281  2.8000000000000D+00  0.0000000000000D+00  0.0000000000000D+00
   282  2.8100000000000D+00  0.0000000000000D+00  0.0000000000000D+00
   283  2.8200000000000D+00  0.0000000000000D+00  0.0000000000000D+00
   284  2.8300000000000D+00  0.0000000000000D+00  0.0000000000000D+00
   285  2.8400000000000D+00  0.0000000000000D+00  0.0000000000000D+00
   286  2.8500000000000D+00  0.0000000000000D+00  0.0000000000000D+00
   287  2.8600000000000D+00  0.0000000000000D+00  0.0000000000000D+00
   288  2.8700000000000D+00  0.0000000000000D+00  0.0000000000000D+00
   289  2.8800000000000D+00  0.0000000000000D+00  0.0000000000000D+00
   290  2.8900000000000D+00  0.0000000000000D+00  0.0000000000000D+00
   291  2.9000000000000D+00  0.0000000000000D+00  0.0000000000000D+00
   292  2.9100000000000D+00  0.0000000000000D+00  0.0000000000000D+00
   293  2.9200000000000D+00  0.0000000000000D+00  0.0000000000000D+00
   294  2.9300000000000D+00  0.0000000000000D+00  0.0000000000000D+00
   295  2.9400000000000D+00  0.0000000000000D+00  0.0000000000000D+00
   296  2.9500000000000D+00  0.0000000000000D+00  0.0000000000000D+00
   297  2.9600000000000D+00  0.0000000000000D+00  0.0000000000000D+00
   298  2.9700000000000D+00  0.0000000000000D+00  0.0000000000000D+00
   299  2.9800000000000D+00  0.0000000000000D+00  0.0000000000000D+00
   300  2.9900000000000D+00  0.0000000000000D+00  0.0000000000000D+00
   301  3.0000000000000D+00  0.0000000000000D+00  0.0000000000000D+00
   302  3.0100000000000D+00  0.0000000000000D+00  0.0000000000000D+00
   303  3.0200000000000D+00  0.0000000000000D+00  0.0000000000000D+00
   304  3.0300000000000D+00  0.0000000000000D+00  0.0000000000000D+00
   305  3.0400000000000D+00  0.0000000000000D+00  0.0000000000000D+00
   306  3.0500000000000D+00  0.0000000000000D+00  0.0000000000000D+00
   307  3.0600000000000D+00  0.0000000000000D+00  0.0000000000000D+00
   308  3.0700000000000D+00  0.0000000000000D+00  0.0000000000000D+00
   309  3.0800000000000D+00  0.0000000000000D+00  0.0000000000000D+00
   310  3.0900000000000D+00  0.0000000000000D+00  0.0000000000000D+00
   311  3.1000000000000D+00  0.0000000000000D+00  0.0000000000000D+00
   312  3.1100000000000D+00  0.0000000000000D+00  0.0000000000000D+00
   313  3.1200000000000D+00  0.0000000000000D+00  0.0000000000000D+00
   314  3.1300000000000D+00  0.0000000000000D+00  0.0000000000000D+00
   315  3.1400000000000D+00  0.0000000000000D+00  0.0000000000000D+00
   316  3.1500000000000D+00  0.0000000000000D+00  0.0000000000000D+00
   317  3.1600000000000D+00  0.0000000000000D+00  0.0000000000000D+00
   318  3.1700000000000D+00  0.0000000000000D+00  0.0000000000000D+00
   319  3.1800000000000D+00  0.0000000000000D+00  0.0000000000000D+00
   320  3.1900000000000D+00  0.0000000000000D+00  0.0000000000000D+00
   321  3.2000000000000D+00  0.0000000000000D+00  0.0000000000000D+00
   322  3.2100000000000D+00  0.0000000000000D+00  0.0000000000000D+00
   323  3.2200000000000D+00  0.0000000000000D+00  0.0000000000000D+00
   324  3.2300000000000D+00  0.0000000000000D+00  0.0000000000000D+00
   325  3.2400000000000D+00  0.0000000000000D+00  0.0000000000000D+00
   326  3.2500000000000D+00  0.0000000000000D+00  0.0000000000000D+00
   327  3.2600000000000D+00  0.0000000000000D+00  0.0000000000000D+00
   328  3.2700000000000D+00  0.0000000000000D+00  0.0000000000000D+00
   329  3.2800000000000D+00  0.0000000000000D+00  0.0000000000000D+00
   330  3.2900000000000D+00  0.0000000000000D+00  0.0000000000000D+00
   331  3.3000000000000D+00  0.0000000000000D+00  0.0000000000000D+00
   332  3.3100000000000D+00  0.0000000000000D+00  0.0000000000000D+00
   333  3.3200000000000D+00  0.0000000000000D+00  0.0000000000000D+00
   334  3.3300000000000D+00  0.0000000000000D+00  0.0000000000000D+00
   335  3.3400000000000D+00  0.0000000000000D+00  0.0000000000000D+00
   336  3.3500000000000D+00  0.0000000000000D+00  0.0000000000000D+00
   337  3.3600000000000D+00  0.0000000000000D+00  0.0000000000000D+00
   338  3.3700000000000D+00  0.0000000000000D+00  0.0000000000000D+00
   339  3.3800000000000D+00  0.0000000000000D+00  0.0000000000000D+00
   340  3.3900000000000D+00  0.0000000000000D+00  0.0000000000000D+00
   341  3.4000000000000D+00  0.0000000000000D+00  0.0000000000000D+00
   342  3.4100000000000D+00  0.0000000000000D+00  0.0000000000000D+00
   343  3.4200000000000D+00  0.0000000000000D+00  0.0000000000000D+00
   344  3.4300000000000D+00  0.0000000000000D+00  0.0000000000000D+00
   345  3.4400000000000D+00  0.0000000000000D+00  0.0000000000000D+00
   346  3.4500000000000D+00  0.0000000000000D+00  0.0000000000000D+00
   347  3.4600000000000D+00  0.0000000000000D+00  0.0000000000000D+00
   348  3.4700000000000D+00  0.0000000000000D+00  0.0000000000000D+00
   349  3.4800000000000D+00  0.0000000000000D+00  0.0000000000000D+00
   350  3.4900000000000D+00  0.0000000000000D+00  0.0000000000000D+00
   351  3.5000000000000D+00  0.0000000000000D+00  0.0000000000000D+00
   352  3.5100000000000D+00  0.0000000000000D+00  0.0000000000000D+00
   353  3.5200000000000D+00  0.0000000000000D+00  0.0000000000000D+00
   354  3.5300000000000D+00  0.0000000000000D+00  0.0000000000000D+00
   355  3.5400000000000D+00  0.0000000000000D+00  0.0000000000000D+00
   356  3.5500000000000D+00  0.0000000000000D+00  0.0000000000000D+00
   357  3.5600000000000D+00  0.0000000000000D+00  0.0000000000000D+00
   358  3.5700000000000D+00  0.0000000000000D+00  0.0000000000000D+00
   359  3.5800000000000D+00  0.0000000000000D+00  0.0000000000000D+00
   360  3.5900000000000D+00  0.0000000000000D+00  0.0000000000000D+00
   361  3.6000000000000D+00  0.0000000000000D+00  0.0000000000000D+00
   362  3.6100000000000D+00  0.0000000000000D+00  0.0000000000000D+00
   363  3.6200000000000D+00  0.0000000000000D+00  0.0000000000000D+00
   364  3.6300000000000D+00  0.0000000000000D+00  0.0000000000000D+00
   365  3.6400000000000D+00  0.0000000000000D+00  0.0000000000000D+00
   366  3.6500000000000D+00  0.0000000000000D+00  0.0000000000000D+00
   367  3.6600000000000D+00  0.0000000000000D+00  0.0000000000000D+00
   368  3.6700000000000D+00  0.0000000000000D+00  0.0000000000000D+00
   369  3.6800000000000D+00  0.0000000000000D+00  0.0000000000000D+00
   370  3.6900000000000D+00  0.0000000000000D+00  0.0000000000000D+00
   371  3.7000000000000D+00  0.0000000000000D+00  0.0000000000000D+00
   372  3.7100000000000D+00  0.0000000000000D+00  0.0000000000000D+00
   373  3.7200000000000D+00  0.0000000000000D+00  0.0000000000000D+00
   374  3.7300000000000D+00  0.0000000000000D+00  0.0000000000000D+00
   375  3.7400000000000D+00  0.0000000000000D+00  0.0000000000000D+00
   376  3.7500000000000D+00  0.0000000000000D+00  0.0000000000000D+00
   377  3.7600000000000D+00  0.0000000000000D+00  0.0000000000000D+00
   378  3.7700000000000D+00  0.0000000000000D+00  0.0000000000000D+00
   379  3.7800000000000D+00  0.0000000000000D+00  0.0000000000000D+00
   380  3.7900000000000D+00  0.0000000000000D+00  0.0000000000000D+00
   381  3.8000000000000D+00  0.0000000000000D+00  0.0000000000000D+00
   382  3.8100000000000D+00  0.0000000000000D+00  0.0000000000000D+00
   383  3.8200000000000D+00  0.0000000000000D+00  0.0000000000000D+00
   384  3.8300000000000D+00  0.0000000000000D+00  0.0000000000000D+00
   385  3.8400000000000D+00  0.0000000000000D+00  0.0000000000000D+00
   386  3.8500000000000D+00  0.0000000000000D+00  0.0000000000000D+00
   387  3.8600000000000D+00  0.0000000000000D+00  0.0000000000000D+00
   388  3.8700000000000D+00  0.0000000000000D+00  0.0000000000000D+00
   389  3.8800000000000D+00  0.0000000000000D+00  0.0000000000000D+00
   390  3.8900000000000D+00  0.0000000000000D+00  0.0000000000000D+00
   391  3.9000000000000D+00  0.0000000000000D+00  0.0000000000000D+00
   392  3.9100000000000D+00  0.0000000000000D+00  0.0000000000000D+00
   393  3.9200000000000D+00  0.0000000000000D+00  0.0000000000000D+00
   394  3.9300000000000D+00  0.0000000000000D+00  0.0000000000000D+00
   395  3.9400000000000D+00  0.0000000000000D+00  0.0000000000000D+00
   396  3.9500000000000D+00  0.0000000000000D+00  0.0000000000000D+00
   397  3.9600000000000D+00  0.0000000000000D+00  0.0000000000000D+00
   398  3.9700000000000D+00  0.0000000000000D+00  0.0000000000000D+00
   399  3.9800000000000D+00  0.0000000000000D+00  0.0000000000000D+00
   400  3.9900000000000D+00  0.0000000000000D+00  0.0000000000000D+00
   401  4.0000000000000D+00  0.0000000000000D+00  0.0000000000000D+00
   402  4.0100000000000D+00  0.0000000000000D+00  0.0000000000000D+00
   403  4.0200000000000D+00  0.0000000000000D+00  0.0000000000000D+00
   404  4.0300000000000D+00  0.0000000000000D+00  0.0000000000000D+00
   405  4.0400000000000D+00  0.0000000000000D+00  0.0000000000000D+00
   406  4.0500000000000D+00  0.0000000000000D+00  0.0000000000000D+00
   407  4.0600000000000D+00  0.0000000000000D+00  0.0000000000000D+00
   408  4.0700000000000D+00  0.0000000000000D+00  0.0000000000000D+00
   409  4.0800000000000D+00  0.0000000000000D+00  0.0000000000000D+00
   410  4.0900000000000D+00  0.0000000000000D+00  0.0000000000000D+00
   411  4.1000000000000D+00  0.0000000000000D+00  0.0000000000000D+00
   412  4.1100000000000D+00  0.0000000000000D+00  0.0000000000000D+00
   413  4.1200000000000D+00  0.0000000000000D+00  0.0000000000000D+00
   414  4.1300000000000D+00  0.0000000000000D+00  0.0000000000000D+00
   415  4.1400000000000D+00  0.0000000000000D+00  0.0000000000000D+00
   416  4.1500000000000D+00  0.0000000000000D+00  0.0000000000000D+00
   417  4.1600000000000D+00  0.0000000000000D+00  0.0000000000000D+00
   418  4.1700000000000D+00  0.0000000000000D+00  0.0000000000000D+00
   419  4.1800000000000D+00  0.0000000000000D+00  0.0000000000000D+00
   420  4.1900000000000D+00  0.0000000000000D+00  0.0000000000000D+00
   421  4.2000000000000D+00  0.0000000000000D+00  0.0000000000000D+00
   422  4.2100000000000D+00  0.0000000000000D+00  0.0000000000000D+00