Rh    ONCVPSP-3.3.1  r_core=   2.40816   2.58683   2.58683
     45.0000     17.0000      210905    zatom,zion,pspd
     8 -116133   2     4   600     0    pspcod,pspxc,lmax,lloc,mmax,r2well
  5.99000000  0.00000000  0.00000000    rchrg fchrg qchrg
     2     2     2     0     0    nproj
     1     1           extension_switch
   0                         4.2321963825422D+00  7.6196158695788D-01
     1  0.0000000000000D+00  5.5244697705348D-13 -9.2370781162865D-12
     2  1.0000000000000D-02  5.3641295011324D-02 -6.4042915499036D-04
     3  2.0000000000000D-02  1.0720618794053D-01 -1.2668450272773D-03
     4  3.0000000000000D-02  1.6061838990207D-01 -1.8651897705533D-03
     5  4.0000000000000D-02  2.1380183829146D-01 -2.4213168807366D-03
     6  5.0000000000000D-02  2.6668080964572D-01 -2.9209480383365D-03
     7  6.0000000000000D-02  3.1918003216702D-01 -3.3496313497984D-03
     8  7.0000000000000D-02  3.7122479779693D-01 -3.6927014432860D-03
     9  8.0000000000000D-02  4.2274107372768D-01 -3.9352418651216D-03
    10  9.0000000000000D-02  4.7365561323628D-01 -4.0620502115126D-03
    11  1.0000000000000D-01  5.2389606572653D-01 -4.0576064164858D-03
    12  1.1000000000000D-01  5.7339108586283D-01 -3.9060446009027D-03
    13  1.2000000000000D-01  6.2207044167886D-01 -3.5911288693819D-03
    14  1.3000000000000D-01  6.6986512154250D-01 -3.0962334216530D-03
    15  1.4000000000000D-01  7.1670743985752D-01 -2.4043273226268D-03
    16  1.5000000000000D-01  7.6253114138065D-01 -1.4979642512804D-03
    17  1.6000000000000D-01  8.0727150403123D-01 -3.5927752220428D-04
    18  1.7000000000000D-01  8.5086544006899D-01  1.0300193542157D-03
    19  1.8000000000000D-01  8.9325159551357D-01  2.6886263366672D-03
    20  1.9000000000000D-01  9.3437044767757D-01  4.6356445379772D-03
    21  2.0000000000000D-01  9.7416440068298D-01  6.8905577581538D-03
    22  2.1000000000000D-01  1.0125778788289D+00  9.4732077276021D-03
    23  2.2000000000000D-01  1.0495574176761D+00  1.2403762958146D-02
    24  2.3000000000000D-01  1.0850517527125D+00  1.5702681136235D-02
    25  2.4000000000000D-01  1.1190119054608D+00  1.9390665030396D-02
    26  2.5000000000000D-01  1.1513912668883D+00  2.3488611923582D-02
    27  2.6000000000000D-01  1.1821456779754D+00  2.8017556620397D-02
    28  2.7000000000000D-01  1.2112335073000D+00  3.2998608119074D-02
    29  2.8000000000000D-01  1.2386157254903D+00  3.8452880078167D-02
    30  2.9000000000000D-01  1.2642559763980D+00  4.4401415248708D-02
    31  3.0000000000000D-01  1.2881206448429D+00  5.0865104082733D-02
    32  3.1000000000000D-01  1.3101789207776D+00  5.7864597769748D-02
    33  3.2000000000000D-01  1.3304028597200D+00  6.5420215992407D-02
    34  3.3000000000000D-01  1.3487674393006D+00  7.3551849732422D-02
    35  3.4000000000000D-01  1.3652506117708D+00  8.2278859496218D-02
    36  3.5000000000000D-01  1.3798333523185D+00  9.1619969367675D-02
    37  3.6000000000000D-01  1.3924997030371D+00  1.0159315733188D-01
    38  3.7000000000000D-01  1.4032368123934D+00  1.1221554234908D-01
    39  3.8000000000000D-01  1.4120349700441D+00  1.2350326869146D-01
    40  3.9000000000000D-01  1.4188876368483D+00  1.3547138808747D-01
    41  4.0000000000000D-01  1.4237914699273D+00  1.4813374024812D-01
    42  4.1000000000000D-01  1.4267463426266D+00  1.6150283237720D-01
    43  4.2000000000000D-01  1.4277553592357D+00  1.7558971829276D-01
    44  4.3000000000000D-01  1.4268248643277D+00  1.9040387780976D-01
    45  4.4000000000000D-01  1.4239644465836D+00  2.0595309705357D-01
    46  4.5000000000000D-01  1.4191869369723D+00  2.2224335039086D-01
    47  4.6000000000000D-01  1.4125084011643D+00  2.3927868467818D-01
    48  4.7000000000000D-01  1.4039481260617D+00  2.5706110653894D-01
    49  4.8000000000000D-01  1.3935286003375D+00  2.7559047338634D-01
    50  4.9000000000000D-01  1.3812754888844D+00  2.9486438891335D-01
    51  5.0000000000000D-01  1.3672176010837D+00  3.1487810377030D-01
    52  5.1000000000000D-01  1.3513868528134D+00  3.3562442214665D-01
    53  5.2000000000000D-01  1.3338182221295D+00  3.5709361496549D-01
    54  5.3000000000000D-01  1.3145496985637D+00  3.7927334038706D-01
    55  5.4000000000000D-01  1.2936222259941D+00  4.0214857230184D-01
    56  5.5000000000000D-01  1.2710796390626D+00  4.2570153747360D-01
    57  5.6000000000000D-01  1.2469685931238D+00  4.4991166196866D-01
    58  5.7000000000000D-01  1.2213384877285D+00  4.7475552747941D-01
    59  5.8000000000000D-01  1.1942413836620D+00  5.0020683811819D-01
    60  5.9000000000000D-01  1.1657319135718D+00  5.2623639822129D-01
    61  6.0000000000000D-01  1.1358671862431D+00  5.5281210166322D-01
    62  6.1000000000000D-01  1.1047066845938D+00  5.7989893313738D-01
    63  6.2000000000000D-01  1.0723121574851D+00  6.0745898181234D-01
    64  6.3000000000000D-01  1.0387475054609D+00  6.3545146772190D-01
    65  6.4000000000000D-01  1.0040786605530D+00  6.6383278119339D-01
    66  6.5000000000000D-01  9.6837346030934D-01  6.9255653556139D-01
    67  6.6000000000000D-01  9.3170151622270D-01  7.2157363335437D-01
    68  6.7000000000000D-01  8.9413407676384D-01  7.5083234607905D-01
    69  6.8000000000000D-01  8.5574388524094D-01  7.8027840766270D-01
    70  6.9000000000000D-01  8.1660503273298D-01  8.0985512154670D-01
    71  7.0000000000000D-01  7.7679280636570D-01  8.3950348135602D-01
    72  7.1000000000000D-01  7.3638353322213D-01  8.6916230499987D-01
    73  7.2000000000000D-01  6.9545442020158D-01  8.9876838198701D-01
    74  7.3000000000000D-01  6.5408339016338D-01  9.2825663366856D-01
    75  7.4000000000000D-01  6.1234891471294D-01  9.5756028604831D-01
    76  7.5000000000000D-01  5.7032984400913D-01  9.8661105472948D-01
    77  7.6000000000000D-01  5.2810523399193D-01  1.0153393414949D+00
    78  7.7000000000000D-01  4.8575417144926D-01  1.0436744419474D+00
    79  7.8000000000000D-01  4.4335559736025D-01  1.0715447635684D+00
    80  7.9000000000000D-01  4.0098812896990D-01  1.0988780534836D+00
    81  8.0000000000000D-01  3.5872988106637D-01  1.1256016351614D+00
    82  8.1000000000000D-01  3.1665828694734D-01  1.1516426532050D+00
    83  8.2000000000000D-01  2.7484991957523D-01  1.1769283253397D+00
    84  8.3000000000000D-01  2.3338031343354D-01  1.2013862006404D+00
    85  8.4000000000000D-01  1.9232378760656D-01  1.2249444229898D+00
    86  8.5000000000000D-01  1.5175327061364D-01  1.2475319987110D+00
    87  8.6000000000000D-01  1.1174012753585D-01  1.2690790672705D+00
    88  8.7000000000000D-01  7.2353989977732D-02  1.2895171739102D+00
    89  8.8000000000000D-01  3.3662589409564D-02  1.3087795430298D+00
    90  8.9000000000000D-01 -4.2684055637288D-03  1.3268013511123D+00
    91  9.0000000000000D-01 -4.1375547462514D-02  1.3435199979605D+00
    92  9.1000000000000D-01 -7.7597763180418D-02  1.3588753749944D+00
    93  9.2000000000000D-01 -1.1287650168562D-01  1.3728101293455D+00
    94  9.3000000000000D-01 -1.4715587564918D-01  1.3852699224805D+00
    95  9.4000000000000D-01 -1.8038279648475D-01  1.3962036820824D+00
    96  9.5000000000000D-01 -2.1250710229725D-01  1.4055638459273D+00
    97  9.6000000000000D-01 -2.4348167825327D-01  1.4133065965059D+00
    98  9.7000000000000D-01 -2.7326256890423D-01  1.4193920851589D+00
    99  9.8000000000000D-01 -3.0180908201254D-01  1.4237846445192D+00
   100  9.9000000000000D-01 -3.2908388345419D-01  1.4264529880889D+00
   101  1.0000000000000D+00 -3.5505308279523D-01  1.4273703958157D+00
   102  1.0100000000000D+00 -3.7968630916630D-01  1.4265148845782D+00
   103  1.0200000000000D+00 -4.0295677708811D-01  1.4238693625408D+00
   104  1.0300000000000D+00 -4.2484134193138D-01  1.4194217663963D+00
   105  1.0400000000000D+00 -4.4532054472790D-01  1.4131651805756D+00
   106  1.0500000000000D+00 -4.6437864608116D-01  1.4050979375714D+00
   107  1.0600000000000D+00 -4.8200364896423D-01  1.3952236985968D+00
   108  1.0700000000000D+00 -4.9818731022703D-01  1.3835515138777D+00
   109  1.0800000000000D+00 -5.1292514067445D-01  1.3700958619561D+00
   110  1.0900000000000D+00 -5.2621639361856D-01  1.3548766674783D+00
   111  1.1000000000000D+00 -5.3806404184197D-01  1.3379192970096D+00
   112  1.1100000000000D+00 -5.4847474295951D-01  1.3192545325361D+00
   113  1.1200000000000D+00 -5.5745879320032D-01  1.2989185223899D+00
   114  1.1300000000000D+00 -5.6503006968008D-01  1.2769527094442D+00
   115  1.1400000000000D+00 -5.7120596126806D-01  1.2534037365094D+00
   116  1.1500000000000D+00 -5.7600728820301D-01  1.2283233289735D+00
   117  1.1600000000000D+00 -5.7945821065042D-01  1.2017681548258D+00
   118  1.1700000000000D+00 -5.8158612643976D-01  1.1737996623130D+00
   119  1.1800000000000D+00 -5.8242155824878D-01  1.1444838955468D+00
   120  1.1900000000000D+00 -5.8199803055738D-01  1.1138912885177D+00
   121  1.2000000000000D+00 -5.8035193672445D-01  1.0820964380490D+00
   122  1.2100000000000D+00 -5.7752239657938D-01  1.0491778563208D+00
   123  1.2200000000000D+00 -5.7355110495091D-01  1.0152177036714D+00
   124  1.2300000000000D+00 -5.6848217160238D-01  9.8030150250565D-01
   125  1.2400000000000D+00 -5.6236195306954D-01  9.4451783321009D-01
   126  1.2500000000000D+00 -5.5523887691316D-01  9.0795801301575D-01
   127  1.2600000000000D+00 -5.4716325895258D-01  8.7071575889595D-01
   128  1.2700000000000D+00 -5.3818711405761D-01  8.3288683561849D-01
   129  1.2800000000000D+00 -5.2836396108996D-01  7.9456869010763D-01
   130  1.2900000000000D+00 -5.1774862262810D-01  7.5586007339366D-01
   131  1.3000000000000D+00 -5.0639702011428D-01  7.1686065144622D-01
   132  1.3100000000000D+00 -4.9436596506989D-01  6.7767060620629D-01
   133  1.3200000000000D+00 -4.8171294705747D-01  6.3839022823357D-01
   134  1.3300000000000D+00 -4.6849591905850D-01  5.9911950236869D-01
   135  1.3400000000000D+00 -4.5477308094932D-01  5.5995768784147D-01
   136  1.3500000000000D+00 -4.4060266176244D-01  5.2100289429957D-01
   137  1.3600000000000D+00 -4.2604270141077D-01  4.8235165520262D-01
   138  1.3700000000000D+00 -4.1115083256529D-01  4.4409850006883D-01
   139  1.3800000000000D+00 -3.9598406334461D-01  4.0633552701210D-01
   140  1.3900000000000D+00 -3.8059856149396D-01  3.6915197703647D-01
   141  1.4000000000000D+00 -3.6504944070064D-01  3.3263381151444D-01
   142  1.4100000000000D+00 -3.4939054966260D-01  2.9686329420721D-01
   143  1.4200000000000D+00 -3.3367426456689D-01  2.6191857927284D-01
   144  1.4300000000000D+00 -3.1795128551848D-01  2.2787330647414D-01
   145  1.4400000000000D+00 -3.0227043753676D-01  1.9479620495125D-01
   146  1.4500000000000D+00 -2.8667847664289D-01  1.6275070673676D-01
   147  1.4600000000000D+00 -2.7121990152822D-01  1.3179457111094D-01
   148  1.4700000000000D+00 -2.5593677136061D-01  1.0197952104711D-01
   149  1.4800000000000D+00 -2.4086852917727D-01  7.3350889378460D-02
   150  1.4900000000000D+00 -2.2605183628493D-01  4.5947293138204D-02
   151  1.5000000000000D+00 -2.1152039940033D-01  1.9800272369066D-02
   152  1.5100000000000D+00 -1.9730485371538D-01 -5.0658913647486D-03
   153  1.5200000000000D+00 -1.8343260532186D-01 -2.8634498208868D-02
   154  1.5300000000000D+00 -1.6992750001131D-01 -5.0897394227404D-02
   155  1.5400000000000D+00 -1.5681015437760D-01 -7.1853601705116D-02
   156  1.5500000000000D+00 -1.4409839610208D-01 -9.1507562916555D-02
   157  1.5600000000000D+00 -1.3180773084802D-01 -1.0986750302914D-01
   158  1.5700000000000D+00 -1.1995189466697D-01 -1.2694351050053D-01
   159  1.5800000000000D+00 -1.0854270372029D-01 -1.4274815358625D-01
   160  1.5900000000000D+00 -9.7590034826438D-02 -1.5729666145581D-01
   161  1.6000000000000D+00 -8.7101920725123D-02 -1.7060666696735D-01
   162  1.6100000000000D+00 -7.7084565726815D-02 -1.8269825572245D-01
   163  1.6200000000000D+00 -6.7542397437166D-02 -1.9359388685264D-01
   164  1.6300000000000D+00 -5.8478113882580D-02 -2.0331833544051D-01
   165  1.6400000000000D+00 -4.9892736861878D-02 -2.1189861679770D-01
   166  1.6500000000000D+00 -4.1785669578427D-02 -2.1936389939024D-01
   167  1.6600000000000D+00 -3.4154758303025D-02 -2.2574540699588D-01
   168  1.6700000000000D+00 -2.6996357753219D-02 -2.3107631089203D-01
   169  1.6800000000000D+00 -2.0305399851965D-02 -2.3539161292387D-01
   170  1.6900000000000D+00 -1.4075465745657D-02 -2.3872801961432D-01
   171  1.7000000000000D+00 -8.2988606840585D-03 -2.4112380834823D-01
   172  1.7100000000000D+00 -2.9666913547568D-03 -2.4261868671890D-01
   173  1.7200000000000D+00  1.9310545832430D-03 -2.4325364561810D-01
   174  1.7300000000000D+00  6.4054272054247D-03 -2.4307080721119D-01
   175  1.7400000000000D+00  1.0468431660072D-02 -2.4211326883113D-01
   176  1.7500000000000D+00  1.4132944202487D-02 -2.4042494276081D-01
   177  1.7600000000000D+00  1.7412627303277D-02 -2.3805039288528D-01
   178  1.7700000000000D+00  2.0321844456050D-02 -2.3503466996286D-01
   179  1.7800000000000D+00  2.2875574944827D-02 -2.3142314613257D-01
   180  1.7900000000000D+00  2.5089328860985D-02 -2.2726134934750D-01
   181  1.8000000000000D+00  2.6979062813478D-02 -2.2259479890551D-01
   182  1.8100000000000D+00  2.8561096536917D-02 -2.1746884257451D-01
   183  1.8200000000000D+00  2.9852030739913D-02 -2.1192849612321D-01
   184  1.8300000000000D+00  3.0868666470807D-02 -2.0601828605070D-01
   185  1.8400000000000D+00  3.1627926610324D-02 -1.9978209708522D-01
   186  1.8500000000000D+00  3.2146779342214D-02 -1.9326302403392D-01
   187  1.8600000000000D+00  3.2442164321180D-02 -1.8650322982293D-01
   188  1.8700000000000D+00  3.2530921365919D-02 -1.7954380930415D-01
   189  1.8800000000000D+00  3.2429722356227D-02 -1.7242466056627D-01
   190  1.8900000000000D+00  3.2155006203633D-02 -1.6518436341111D-01
   191  1.9000000000000D+00  3.1722917348782D-02 -1.5786006616235D-01
   192  1.9100000000000D+00  3.1149247904387D-02 -1.5048738110841D-01
   193  1.9200000000000D+00  3.0449383482915D-02 -1.4310028867645D-01
   194  1.9300000000000D+00  2.9638253243466D-02 -1.3573105171765D-01
   195  1.9400000000000D+00  2.8730283640889D-02 -1.2841013855410D-01
   196  1.9500000000000D+00  2.7739356837584D-02 -1.2116615727892D-01
   197  1.9600000000000D+00  2.6678772965458D-02 -1.1402579918649D-01
   198  1.9700000000000D+00  2.5561217057319D-02 -1.0701379346095D-01
   199  1.9800000000000D+00  2.4398730213464D-02 -1.0015287198249D-01
   200  1.9900000000000D+00  2.3202685130407D-02 -9.3463744575534D-02
   201  2.0000000000000D+00  2.1983766292481D-02 -8.6965085476535D-02
   202  2.0100000000000D+00  2.0751954079167D-02 -8.0673529061605D-02
   203  2.0200000000000D+00  1.9516513748707D-02 -7.4603677337235D-02
   204  2.0300000000000D+00  1.8285988195024D-02 -6.8768116302895D-02
   205  2.0400000000000D+00  1.7068195149342D-02 -6.3177442933632D-02
   206  2.0500000000000D+00  1.5870228398715D-02 -5.7840301656529D-02
   207  2.0600000000000D+00  1.4698462707699D-02 -5.2763429493016D-02
   208  2.0700000000000D+00  1.3558562897471D-02 -4.7951711047193D-02
   209  2.0800000000000D+00  1.2455496085260D-02 -4.3408240726475D-02
   210  2.0900000000000D+00  1.1393547687017D-02 -3.9134393761297D-02
   211  2.1000000000000D+00  1.0376340484288D-02 -3.5129904190996D-02
   212  2.1100000000000D+00  9.4068566116504D-03 -3.1392949432442D-02
   213  2.1200000000000D+00  8.4874625644871D-03 -2.7920241681038D-02
   214  2.1300000000000D+00  7.6199364450842D-03 -2.4707124101734D-02
   215  2.1400000000000D+00  6.8054977257496D-03 -2.1747672518529D-02
   216  2.1500000000000D+00  6.0448389513529D-03 -1.9034801096334D-02
   217  2.1600000000000D+00  5.3381591593193D-03 -1.6560371427636D-02
   218  2.1700000000000D+00  4.6851989013597D-03 -1.4315304701155D-02
   219  2.1800000000000D+00  4.0852764109918D-03 -1.2289695781300D-02
   220  2.1900000000000D+00  3.5373247312261D-03 -1.0472928678615D-02
   221  2.2000000000000D+00  3.0399295059335D-03 -8.8537926460972D-03
   222  2.2100000000000D+00  2.5913672341587D-03 -7.4205983872743D-03
   223  2.2200000000000D+00  2.1896434783198D-03 -6.1612929957845D-03
   224  2.2300000000000D+00  1.8325311057877D-03 -5.0635738876814D-03
   225  2.2400000000000D+00  1.5176080332991D-03 -4.1150003002374D-03
   226  2.2500000000000D+00  1.2422941434325D-03 -3.3031014852532D-03
   227  2.2600000000000D+00  1.0038876743627D-03 -2.6154824372235D-03
   228  2.2700000000000D+00  7.9959998637951D-04 -2.0399242115574D-03
   229  2.2800000000000D+00  6.2658910118709D-04 -1.5644799251725D-03
   230  2.2900000000000D+00  4.8199197757209D-04 -1.1775663592148D-03
   231  2.3000000000000D+00  3.6295425060777D-04 -8.6804775638057D-04
   232  2.3100000000000D+00  2.6665860108930D-04 -6.2531497170463D-04
   233  2.3200000000000D+00  1.9035081840529D-04 -4.3935747564071D-04
   234  2.3300000000000D+00  1.3136406578584D-04 -3.0086455844739D-04
   235  2.3400000000000D+00  8.7136962505462D-05 -2.0115439339504D-04
   236  2.3500000000000D+00  5.5234431323871D-05 -1.3231372797199D-04
   237  2.3600000000000D+00  3.3310284872441D-05 -8.6961402657692D-05
   238  2.3700000000000D+00  1.9330670137511D-05 -5.9632419837034D-05
   239  2.3800000000000D+00  1.1376963132658D-05 -4.5395540106157D-05
   240  2.3900000000000D+00  7.8555684967150D-06 -4.0719491137077D-05
   241  2.4000000000000D+00  6.4710368806430D-06 -3.8326014689687D-05
   242  2.4100000000000D+00  5.4462151053799D-06 -3.2946799838237D-05
   243  2.4200000000000D+00  3.4925116541272D-06 -2.1033017425184D-05
   244  2.4300000000000D+00  1.3241734145719D-06 -7.8386148219737D-06
   245  2.4400000000000D+00 -2.5460726223033D-07  1.5910099603713D-06
   246  2.4500000000000D+00 -5.8438148720130D-07  3.6467715432253D-06
   247  2.4600000000000D+00 -3.0557174326508D-07  1.9019474135148D-06
   248  2.4700000000000D+00  5.6028472490764D-08 -3.6820326445762D-07
   249  2.4800000000000D+00  1.2096911565129D-07 -7.9876504326800D-07
   250  2.4900000000000D+00  6.4172483405888D-08 -4.2541655105327D-07
   251  2.5000000000000D+00 -7.7281810976393D-09  4.6646084561454D-08
   252  2.5100000000000D+00 -1.6294896945459D-08  9.8353432875716D-08
   253  2.5200000000000D+00 -8.8791075097172D-09  5.3592895209848D-08
   254  2.5300000000000D+00  0.0000000000000D+00  0.0000000000000D+00
   255  2.5400000000000D+00  0.0000000000000D+00  0.0000000000000D+00
   256  2.5500000000000D+00  0.0000000000000D+00  0.0000000000000D+00
   257  2.5600000000000D+00  0.0000000000000D+00  0.0000000000000D+00
   258  2.5700000000000D+00  0.0000000000000D+00  0.0000000000000D+00
   259  2.5800000000000D+00  0.0000000000000D+00  0.0000000000000D+00
   260  2.5900000000000D+00  0.0000000000000D+00  0.0000000000000D+00
   261  2.6000000000000D+00  0.0000000000000D+00  0.0000000000000D+00
   262  2.6100000000000D+00  0.0000000000000D+00  0.0000000000000D+00
   263  2.6200000000000D+00  0.0000000000000D+00  0.0000000000000D+00
   264  2.6300000000000D+00  0.0000000000000D+00  0.0000000000000D+00
   265  2.6400000000000D+00  0.0000000000000D+00  0.0000000000000D+00
   266  2.6500000000000D+00  0.0000000000000D+00  0.0000000000000D+00
   267  2.6600000000000D+00  0.0000000000000D+00  0.0000000000000D+00
   268  2.6700000000000D+00  0.0000000000000D+00  0.0000000000000D+00
   269  2.6800000000000D+00  0.0000000000000D+00  0.0000000000000D+00
   270  2.6900000000000D+00  0.0000000000000D+00  0.0000000000000D+00
   271  2.7000000000000D+00  0.0000000000000D+00  0.0000000000000D+00
   272  2.7100000000000D+00  0.0000000000000D+00  0.0000000000000D+00
   273  2.7200000000000D+00  0.0000000000000D+00  0.0000000000000D+00
   274  2.7300000000000D+00  0.0000000000000D+00  0.0000000000000D+00
   275  2.7400000000000D+00  0.0000000000000D+00  0.0000000000000D+00
   276  2.7500000000000D+00  0.0000000000000D+00  0.0000000000000D+00
   277  2.7600000000000D+00  0.0000000000000D+00  0.0000000000000D+00
   278  2.7700000000000D+00  0.0000000000000D+00  0.0000000000000D+00
   279  2.7800000000000D+00  0.0000000000000D+00  0.0000000000000D+00
   280  2.7900000000000D+00  0.0000000000000D+00  0.0000000000000D+00
   281  2.8000000000000D+00  0.0000000000000D+00  0.0000000000000D+00
   282  2.8100000000000D+00  0.0000000000000D+00  0.0000000000000D+00
   283  2.8200000000000D+00  0.0000000000000D+00  0.0000000000000D+00
   284  2.8300000000000D+00  0.0000000000000D+00  0.0000000000000D+00
   285  2.8400000000000D+00  0.0000000000000D+00  0.0000000000000D+00
   286  2.8500000000000D+00  0.0000000000000D+00  0.0000000000000D+00
   287  2.8600000000000D+00  0.0000000000000D+00  0.0000000000000D+00
   288  2.8700000000000D+00  0.0000000000000D+00  0.0000000000000D+00
   289  2.8800000000000D+00  0.0000000000000D+00  0.0000000000000D+00
   290  2.8900000000000D+00  0.0000000000000D+00  0.0000000000000D+00
   291  2.9000000000000D+00  0.0000000000000D+00  0.0000000000000D+00
   292  2.9100000000000D+00  0.0000000000000D+00  0.0000000000000D+00
   293  2.9200000000000D+00  0.0000000000000D+00  0.0000000000000D+00
   294  2.9300000000000D+00  0.0000000000000D+00  0.0000000000000D+00
   295  2.9400000000000D+00  0.0000000000000D+00  0.0000000000000D+00
   296  2.9500000000000D+00  0.0000000000000D+00  0.0000000000000D+00
   297  2.9600000000000D+00  0.0000000000000D+00  0.0000000000000D+00
   298  2.9700000000000D+00  0.0000000000000D+00  0.0000000000000D+00
   299  2.9800000000000D+00  0.0000000000000D+00  0.0000000000000D+00
   300  2.9900000000000D+00  0.0000000000000D+00  0.0000000000000D+00
   301  3.0000000000000D+00  0.0000000000000D+00  0.0000000000000D+00
   302  3.0100000000000D+00  0.0000000000000D+00  0.0000000000000D+00
   303  3.0200000000000D+00  0.0000000000000D+00  0.0000000000000D+00
   304  3.0300000000000D+00  0.0000000000000D+00  0.0000000000000D+00
   305  3.0400000000000D+00  0.0000000000000D+00  0.0000000000000D+00
   306  3.0500000000000D+00  0.0000000000000D+00  0.0000000000000D+00
   307  3.0600000000000D+00  0.0000000000000D+00  0.0000000000000D+00
   308  3.0700000000000D+00  0.0000000000000D+00  0.0000000000000D+00
   309  3.0800000000000D+00  0.0000000000000D+00  0.0000000000000D+00
   310  3.0900000000000D+00  0.0000000000000D+00  0.0000000000000D+00
   311  3.1000000000000D+00  0.0000000000000D+00  0.0000000000000D+00
   312  3.1100000000000D+00  0.0000000000000D+00  0.0000000000000D+00
   313  3.1200000000000D+00  0.0000000000000D+00  0.0000000000000D+00
   314  3.1300000000000D+00  0.0000000000000D+00  0.0000000000000D+00
   315  3.1400000000000D+00  0.0000000000000D+00  0.0000000000000D+00
   316  3.1500000000000D+00  0.0000000000000D+00  0.0000000000000D+00
   317  3.1600000000000D+00  0.0000000000000D+00  0.0000000000000D+00
   318  3.1700000000000D+00  0.0000000000000D+00  0.0000000000000D+00
   319  3.1800000000000D+00  0.0000000000000D+00  0.0000000000000D+00
   320  3.1900000000000D+00  0.0000000000000D+00  0.0000000000000D+00
   321  3.2000000000000D+00  0.0000000000000D+00  0.0000000000000D+00
   322  3.2100000000000D+00  0.0000000000000D+00  0.0000000000000D+00
   323  3.2200000000000D+00  0.0000000000000D+00  0.0000000000000D+00
   324  3.2300000000000D+00  0.0000000000000D+00  0.0000000000000D+00
   325  3.2400000000000D+00  0.0000000000000D+00  0.0000000000000D+00
   326  3.2500000000000D+00  0.0000000000000D+00  0.0000000000000D+00
   327  3.2600000000000D+00  0.0000000000000D+00  0.0000000000000D+00
   328  3.2700000000000D+00  0.0000000000000D+00  0.0000000000000D+00
   329  3.2800000000000D+00  0.0000000000000D+00  0.0000000000000D+00
   330  3.2900000000000D+00  0.0000000000000D+00  0.0000000000000D+00
   331  3.3000000000000D+00  0.0000000000000D+00  0.0000000000000D+00
   332  3.3100000000000D+00  0.0000000000000D+00  0.0000000000000D+00
   333  3.3200000000000D+00  0.0000000000000D+00  0.0000000000000D+00
   334  3.3300000000000D+00  0.0000000000000D+00  0.0000000000000D+00
   335  3.3400000000000D+00  0.0000000000000D+00  0.0000000000000D+00
   336  3.3500000000000D+00  0.0000000000000D+00  0.0000000000000D+00
   337  3.3600000000000D+00  0.0000000000000D+00  0.0000000000000D+00
   338  3.3700000000000D+00  0.0000000000000D+00  0.0000000000000D+00
   339  3.3800000000000D+00  0.0000000000000D+00  0.0000000000000D+00
   340  3.3900000000000D+00  0.0000000000000D+00  0.0000000000000D+00
   341  3.4000000000000D+00  0.0000000000000D+00  0.0000000000000D+00
   342  3.4100000000000D+00  0.0000000000000D+00  0.0000000000000D+00
   343  3.4200000000000D+00  0.0000000000000D+00  0.0000000000000D+00
   344  3.4300000000000D+00  0.0000000000000D+00  0.0000000000000D+00
   345  3.4400000000000D+00  0.0000000000000D+00  0.0000000000000D+00
   346  3.4500000000000D+00  0.0000000000000D+00  0.0000000000000D+00
   347  3.4600000000000D+00  0.0000000000000D+00  0.0000000000000D+00
   348  3.4700000000000D+00  0.0000000000000D+00  0.0000000000000D+00
   349  3.4800000000000D+00  0.0000000000000D+00  0.0000000000000D+00
   350  3.4900000000000D+00  0.0000000000000D+00  0.0000000000000D+00
   351  3.5000000000000D+00  0.0000000000000D+00  0.0000000000000D+00
   352  3.5100000000000D+00  0.0000000000000D+00  0.0000000000000D+00
   353  3.5200000000000D+00  0.0000000000000D+00  0.0000000000000D+00
   354  3.5300000000000D+00  0.0000000000000D+00  0.0000000000000D+00
   355  3.5400000000000D+00  0.0000000000000D+00  0.0000000000000D+00
   356  3.5500000000000D+00  0.0000000000000D+00  0.0000000000000D+00
   357  3.5600000000000D+00  0.0000000000000D+00  0.0000000000000D+00
   358  3.5700000000000D+00  0.0000000000000D+00  0.0000000000000D+00
   359  3.5800000000000D+00  0.0000000000000D+00  0.0000000000000D+00
   360  3.5900000000000D+00  0.0000000000000D+00  0.0000000000000D+00
   361  3.6000000000000D+00  0.0000000000000D+00  0.0000000000000D+00
   362  3.6100000000000D+00  0.0000000000000D+00  0.0000000000000D+00
   363  3.6200000000000D+00  0.0000000000000D+00  0.0000000000000D+00
   364  3.6300000000000D+00  0.0000000000000D+00  0.0000000000000D+00
   365  3.6400000000000D+00  0.0000000000000D+00  0.0000000000000D+00
   366  3.6500000000000D+00  0.0000000000000D+00  0.0000000000000D+00
   367  3.6600000000000D+00  0.0000000000000D+00  0.0000000000000D+00
   368  3.6700000000000D+00  0.0000000000000D+00  0.0000000000000D+00
   369  3.6800000000000D+00  0.0000000000000D+00  0.0000000000000D+00
   370  3.6900000000000D+00  0.0000000000000D+00  0.0000000000000D+00
   371  3.7000000000000D+00  0.0000000000000D+00  0.0000000000000D+00
   372  3.7100000000000D+00  0.0000000000000D+00  0.0000000000000D+00
   373  3.7200000000000D+00  0.0000000000000D+00  0.0000000000000D+00
   374  3.7300000000000D+00  0.0000000000000D+00  0.0000000000000D+00
   375  3.7400000000000D+00  0.0000000000000D+00  0.0000000000000D+00
   376  3.7500000000000D+00  0.0000000000000D+00  0.0000000000000D+00
   377  3.7600000000000D+00  0.0000000000000D+00  0.0000000000000D+00
   378  3.7700000000000D+00  0.0000000000000D+00  0.0000000000000D+00
   379  3.7800000000000D+00  0.0000000000000D+00  0.0000000000000D+00
   380  3.7900000000000D+00  0.0000000000000D+00  0.0000000000000D+00
   381  3.8000000000000D+00  0.0000000000000D+00  0.0000000000000D+00
   382  3.8100000000000D+00  0.0000000000000D+00  0.0000000000000D+00
   383  3.8200000000000D+00  0.0000000000000D+00  0.0000000000000D+00
   384  3.8300000000000D+00  0.0000000000000D+00  0.0000000000000D+00
   385  3.8400000000000D+00  0.0000000000000D+00  0.0000000000000D+00
   386  3.8500000000000D+00  0.0000000000000D+00  0.0000000000000D+00
   387  3.8600000000000D+00  0.0000000000000D+00  0.0000000000000D+00
   388  3.8700000000000D+00  0.0000000000000D+00  0.0000000000000D+00
   389  3.8800000000000D+00  0.0000000000000D+00  0.0000000000000D+00
   390  3.8900000000000D+00  0.0000000000000D+00  0.0000000000000D+00
   391  3.9000000000000D+00  0.0000000000000D+00  0.0000000000000D+00
   392  3.9100000000000D+00  0.0000000000000D+00  0.0000000000000D+00
   393  3.9200000000000D+00  0.0000000000000D+00  0.0000000000000D+00
   394  3.9300000000000D+00  0.0000000000000D+00  0.0000000000000D+00
   395  3.9400000000000D+00  0.0000000000000D+00  0.0000000000000D+00
   396  3.9500000000000D+00  0.0000000000000D+00  0.0000000000000D+00
   397  3.9600000000000D+00  0.0000000000000D+00  0.0000000000000D+00
   398  3.9700000000000D+00  0.0000000000000D+00  0.0000000000000D+00
   399  3.9800000000000D+00  0.0000000000000D+00  0.0000000000000D+00
   400  3.9900000000000D+00  0.0000000000000D+00  0.0000000000000D+00
   401  4.0000000000000D+00  0.0000000000000D+00  0.0000000000000D+00
   402  4.0100000000000D+00  0.0000000000000D+00  0.0000000000000D+00
   403  4.0200000000000D+00  0.0000000000000D+00  0.0000000000000D+00
   404  4.0300000000000D+00  0.0000000000000D+00  0.0000000000000D+00
   405  4.0400000000000D+00  0.0000000000000D+00  0.0000000000000D+00
   406  4.0500000000000D+00  0.0000000000000D+00  0.0000000000000D+00
   407  4.0600000000000D+00  0.0000000000000D+00  0.0000000000000D+00
   408  4.0700000000000D+00  0.0000000000000D+00  0.0000000000000D+00
   409  4.0800000000000D+00  0.0000000000000D+00  0.0000000000000D+00
   410  4.0900000000000D+00  0.0000000000000D+00  0.0000000000000D+00
   411  4.1000000000000D+00  0.0000000000000D+00  0.0000000000000D+00
   412  4.1100000000000D+00  0.0000000000000D+00  0.0000000000000D+00
   413  4.1200000000000D+00  0.0000000000000D+00  0.0000000000000D+00
   414  4.1300000000000D+00  0.0000000000000D+00  0.0000000000000D+00
   415  4.1400000000000D+00  0.0000000000000D+00  0.0000000000000D+00
   416  4.1500000000000D+00  0.0000000000000D+00  0.0000000000000D+00
   417  4.1600000000000D+00  0.0000000000000D+00  0.0000000000000D+00
   418  4.1700000000000D+00  0.0000000000000D+00  0.0000000000000D+00
   419  4.1800000000000D+00  0.0000000000000D+00  0.0000000000000D+00
   420  4.1900000000000D+00  0.0000000000000D+00  0.0000000000000D+00
   421  4.2000000000000D+00  0.0000000000000D+00  0.0000000000000D+00
   422  4.2100000000000D+00  0.0000000000000D+00  0.0000000000000D+00