S     ONCVPSP-3.3.1  r_core=   2.12945   1.52480
     16.0000      6.0000      210905    zatom,zion,pspd
     8 -116133   1     4   600     0    pspcod,pspxc,lmax,lloc,mmax,r2well
  5.99000000  0.00000000  0.00000000    rchrg fchrg qchrg
     2     2     0     0     0    nproj
     1     1           extension_switch
   0                         1.0241627774086D+01  6.7333817260368D-01
     1  0.0000000000000D+00  9.0110030548374D-11 -1.8821999514529D-10
     2  1.0000000000000D-02  3.8162101509501D-02 -2.7770135543369D-02
     3  2.0000000000000D-02  7.6333731766654D-02 -5.5510810961197D-02
     4  3.0000000000000D-02  1.1452402289401D-01 -8.3192129030536D-02
     5  4.0000000000000D-02  1.5274131706522D-01 -1.1078332393167D-01
     6  5.0000000000000D-02  1.9099277976097D-01 -1.3825234089708D-01
     7  6.0000000000000D-02  2.2928402283749D-01 -1.6556543246355D-01
     8  7.0000000000000D-02  2.6761874057237D-01 -1.9268677664023D-01
     9  8.0000000000000D-02  3.0599836176233D-01 -2.1957812211709D-01
    10  9.0000000000000D-02  3.4442172083601D-01 -2.4619846540543D-01
    11  1.0000000000000D-01  3.8288475081254D-01 -2.7250376452614D-01
    12  1.1000000000000D-01  4.2138020078418D-01 -2.9844669354375D-01
    13  1.2000000000000D-01  4.5989738042995D-01 -3.2397644188806D-01
    14  1.3000000000000D-01  4.9842193387807D-01 -3.4903856201123D-01
    15  1.4000000000000D-01  5.3693564502844D-01 -3.7357486850086D-01
    16  1.5000000000000D-01  5.7541627622521D-01 -3.9752339131053D-01
    17  1.6000000000000D-01  6.1383744193345D-01 -4.2081838528183D-01
    18  1.7000000000000D-01  6.5216851882544D-01 -4.4339039762042D-01
    19  1.8000000000000D-01  6.9037459342301D-01 -4.6516639445482D-01
    20  1.9000000000000D-01  7.2841644817277D-01 -4.8606994705638D-01
    21  2.0000000000000D-01  7.6625058655509D-01 -5.0602147773406D-01
    22  2.1000000000000D-01  8.0382929754428D-01 -5.2493856484372D-01
    23  2.2000000000000D-01  8.4110075945132D-01 -5.4273630577265D-01
    24  2.3000000000000D-01  8.7800918289049D-01 -5.5932773617873D-01
    25  2.4000000000000D-01  9.1449499232241D-01 -5.7462430318745D-01
    26  2.5000000000000D-01  9.5049504533710D-01 -5.8853638967927D-01
    27  2.6000000000000D-01  9.8594288855623D-01 -6.0097388624344D-01
    28  2.7000000000000D-01  1.0207690487538D+00 -6.1184680683240D-01
    29  2.8000000000000D-01  1.0549013575218D+00 -6.2106594363199D-01
    30  2.9000000000000D-01  1.0882653075442D+00 -6.2854355616725D-01
    31  3.0000000000000D-01  1.1207844382887D+00 -6.3419408919931D-01
    32  3.1000000000000D-01  1.1523807486862D+00 -6.3793491353764D-01
    33  3.2000000000000D-01  1.1829751341404D+00 -6.3968708349881D-01
    34  3.3000000000000D-01  1.2124878450005D+00 -6.3937610439224D-01
    35  3.4000000000000D-01  1.2408389634365D+00 -6.3693270310714D-01
    36  3.5000000000000D-01  1.2679488954799D+00 -6.3229359461958D-01
    37  3.6000000000000D-01  1.2937388748426D+00 -6.2540223703340D-01
    38  3.7000000000000D-01  1.3181314749889D+00 -6.1620956762206D-01
    39  3.8000000000000D-01  1.3410511258280D+00 -6.0467471224643D-01
    40  3.9000000000000D-01  1.3624246313067D+00 -5.9076566049611D-01
    41  4.0000000000000D-01  1.3821816841177D+00 -5.7445989893359D-01
    42  4.1000000000000D-01  1.4002553737034D+00 -5.5574499492038D-01
    43  4.2000000000000D-01  1.4165826837221D+00 -5.3461912366644D-01
    44  4.3000000000000D-01  1.4311049751557D+00 -5.1109153137734D-01
    45  4.4000000000000D-01  1.4437684512825D+00 -4.8518292767087D-01
    46  4.5000000000000D-01  1.4545246008018D+00 -4.5692580080284D-01
    47  4.6000000000000D-01  1.4633306154920D+00 -4.2636464967533D-01
    48  4.7000000000000D-01  1.4701497789045D+00 -3.9355612710298D-01
    49  4.8000000000000D-01  1.4749518227407D+00 -3.5856908938061D-01
    50  4.9000000000000D-01  1.4777132477298D+00 -3.2148454782667D-01
    51  5.0000000000000D-01  1.4784176060236D+00 -2.8239551867366D-01
    52  5.1000000000000D-01  1.4770557423423D+00 -2.4140676843011D-01
    53  5.2000000000000D-01  1.4736259913513D+00 -1.9863445265261D-01
    54  5.3000000000000D-01  1.4681343290119D+00 -1.5420564693244D-01
    55  5.4000000000000D-01  1.4605944759363D+00 -1.0825776982024D-01
    56  5.5000000000000D-01  1.4510279510835D+00 -6.0937898374864D-02
    57  5.6000000000000D-01  1.4394640744555D+00 -1.2401978031734D-02
    58  5.7000000000000D-01  1.4259399177921D+00  3.7186070472743D-02
    59  5.8000000000000D-01  1.4105002026211D+00  8.7655343303065D-02
    60  5.9000000000000D-01  1.3931971453818D+00  1.3882903993550D-01
    61  6.0000000000000D-01  1.3740902497246D+00  1.9052563772971D-01
    62  6.1000000000000D-01  1.3532460464711D+00  2.4256014747640D-01
    63  6.2000000000000D-01  1.3307377821178D+00  2.9474544157962D-01
    64  6.3000000000000D-01  1.3066450571599D+00  3.4689364538164D-01
    65  6.4000000000000D-01  1.2810534159187D+00  3.9881758098466D-01
    66  6.5000000000000D-01  1.2540538899529D+00  4.5033225177903D-01
    67  6.6000000000000D-01  1.2257424975368D+00  5.0125635476591D-01
    68  6.7000000000000D-01  1.1962197020825D+00  5.5141380665302D-01
    69  6.8000000000000D-01  1.1655898327733D+00  6.0063526862952D-01
    70  6.9000000000000D-01  1.1339604710583D+00  6.4875965368592D-01
    71  7.0000000000000D-01  1.1014418070228D+00  6.9563559934785D-01
    72  7.1000000000000D-01  1.0681459700150D+00  7.4112288774064D-01
    73  7.2000000000000D-01  1.0341863382459D+00  7.8509379400723D-01
    74  7.3000000000000D-01  9.9967683240805D-01  8.2743434326559D-01
    75  7.4000000000000D-01  9.6473119866722D-01  8.6804545552109D-01
    76  7.5000000000000D-01  9.2946228666614D-01  9.0684395724864D-01
    77  7.6000000000000D-01  8.9398132844672D-01  9.4376343773374D-01
    78  7.7000000000000D-01  8.5839722443732D-01  9.7875492771695D-01
    79  7.8000000000000D-01  8.2281584286864D-01  1.0117873774237D+00
    80  7.9000000000000D-01  7.8733933917191D-01  1.0428479106874D+00
    81  8.0000000000000D-01  7.5206550207519D-01  1.0719418315875D+00
    82  8.1000000000000D-01  7.1708713324809D-01  1.0990923598367D+00
    83  8.2000000000000D-01  6.8249146744964D-01  1.1243400710487D+00
    84  8.3000000000000D-01  6.4835964020849D-01  1.1477420180232D+00
    85  8.4000000000000D-01  6.1476621010902D-01  1.1693705092791D+00
    86  8.5000000000000D-01  5.8177874276969D-01  1.1893115212613D+00
    87  8.6000000000000D-01  5.4945746358248D-01  1.2076627209397D+00
    88  8.7000000000000D-01  5.1785498623283D-01  1.2245310759071D+00
    89  8.8000000000000D-01  4.8701612394008D-01  1.2400300295686D+00
    90  8.9000000000000D-01  4.5697779024787D-01  1.2542762195906D+00
    91  9.0000000000000D-01  4.2776899605378D-01  1.2673857184476D+00
    92  9.1000000000000D-01  3.9941094939777D-01  1.2794697756632D+00
    93  9.2000000000000D-01  3.7191726433119D-01  1.2906300421820D+00
    94  9.3000000000000D-01  3.4529428496245D-01  1.3009532582321D+00
    95  9.4000000000000D-01  3.1954153002420D-01  1.3105053821373D+00
    96  9.5000000000000D-01  2.9465226677628D-01  1.3193251705572D+00
    97  9.6000000000000D-01  2.7061421017741D-01  1.3274171290377D+00
    98  9.7000000000000D-01  2.4741037413750D-01  1.3347439883284D+00
    99  9.8000000000000D-01  2.2502022787956D-01  1.3412201315450D+00
   100  9.9000000000000D-01  2.0342151964471D-01  1.3467110307679D+00
   101  1.0000000000000D+00  1.8259344311671D-01  1.3510502842202D+00
   102  1.0100000000000D+00  1.6251873456423D-01  1.3540557507246D+00
   103  1.0200000000000D+00  1.4318497544355D-01  1.3555461955039D+00
   104  1.0300000000000D+00  1.2458505469267D-01  1.3553562844828D+00
   105  1.0400000000000D+00  1.0671685641359D-01  1.3533481283360D+00
   106  1.0500000000000D+00  8.9582376308235D-02  1.3494186825418D+00
   107  1.0600000000000D+00  7.3186499663654D-02  1.3435029531112D+00
   108  1.0700000000000D+00  5.7535670171967D-02  1.3355735920497D+00
   109  1.0800000000000D+00  4.2636626661741D-02  1.3256378063886D+00
   110  1.0900000000000D+00  2.8495327456164D-02  1.3137325810064D+00
   111  1.1000000000000D+00  1.5116120479149D-02  1.2999191306814D+00
   112  1.1100000000000D+00  2.5011712962748D-03  1.2842773235446D+00
   113  1.1200000000000D+00 -9.3498771269460D-03  1.2669005559995D+00
   114  1.1300000000000D+00 -2.0440052860585D-02  1.2478913461869D+00
   115  1.1400000000000D+00 -3.0775057156717D-02  1.2273577515304D+00
   116  1.1500000000000D+00 -4.0363164795683D-02  1.2054105970137D+00
   117  1.1600000000000D+00 -4.9215060190979D-02  1.1821614179403D+00
   118  1.1700000000000D+00 -5.7343637078137D-02  1.1577209983514D+00
   119  1.1800000000000D+00 -6.4763782694032D-02  1.1321983829594D+00
   120  1.1900000000000D+00 -7.1492161395260D-02  1.1057002408218D+00
   121  1.2000000000000D+00 -7.7547005294095D-02  1.0783304834418D+00
   122  1.2100000000000D+00 -8.2947916973262D-02  1.0501900594040D+00
   123  1.2200000000000D+00 -8.7715686599215D-02  1.0213768633196D+00
   124  1.2300000000000D+00 -9.1872123755782D-02  9.9198571311388D-01
   125  1.2400000000000D+00 -9.5439903248355D-02  9.6210836780409D-01
   126  1.2500000000000D+00 -9.8442424009400D-02  9.3183356309899D-01
   127  1.2600000000000D+00 -1.0090367969688D-01  9.0124704957206D-01
   128  1.2700000000000D+00 -1.0284813964308D-01  8.7043162809085D-01
   129  1.2800000000000D+00 -1.0430063899551D-01  8.3946717648914D-01
   130  1.2900000000000D+00 -1.0528627678863D-01  8.0843066488158D-01
   131  1.3000000000000D+00 -1.0583032107948D-01  7.7739616053972D-01
   132  1.3100000000000D+00 -1.0595812031467D-01  7.4643482215822D-01
   133  1.3200000000000D+00 -1.0569502013393D-01  7.1561488464441D-01
   134  1.3300000000000D+00 -1.0506628515698D-01  6.8500163622484D-01
   135  1.3400000000000D+00 -1.0409702523681D-01  6.5465738924493D-01
   136  1.3500000000000D+00 -1.0281212578444D-01  6.2464144659958D-01
   137  1.3600000000000D+00 -1.0123618195551D-01  5.9501006537854D-01
   138  1.3700000000000D+00 -9.9393436410545D-02  5.6581641938275D-01
   139  1.3800000000000D+00 -9.7307720518387D-02  5.3711056216679D-01
   140  1.3900000000000D+00 -9.5002398921101D-02  5.0893939193003D-01
   141  1.4000000000000D+00 -9.2500317330595D-02  4.8134661985442D-01
   142  1.4100000000000D+00 -8.9823753584834D-02  4.5437274295070D-01
   143  1.4200000000000D+00 -8.6994371913103D-02  4.2805502262284D-01
   144  1.4300000000000D+00 -8.4033180431032D-02  4.0242747007082D-01
   145  1.4400000000000D+00 -8.0960491892341D-02  3.7752083911861D-01
   146  1.4500000000000D+00 -7.7795887714389D-02  3.5336262760160D-01
   147  1.4600000000000D+00 -7.4558185321932D-02  3.2997708754501D-01
   148  1.4700000000000D+00 -7.1265408829989D-02  3.0738524482827D-01
   149  1.4800000000000D+00 -6.7934763108758D-02  2.8560492865195D-01
   150  1.4900000000000D+00 -6.4582611226620D-02  2.6465081081229D-01
   151  1.5000000000000D+00 -6.1224455323073D-02  2.4453445524426D-01
   152  1.5100000000000D+00 -5.7874920862948D-02  2.2526437730741D-01
   153  1.5200000000000D+00 -5.4547744317179D-02  2.0684611316529D-01
   154  1.5300000000000D+00 -5.1255764198396D-02  1.8928229857897D-01
   155  1.5400000000000D+00 -4.8010915451013D-02  1.7257275706749D-01
   156  1.5500000000000D+00 -4.4824227131052D-02  1.5671459684473D-01
   157  1.5600000000000D+00 -4.1705823308662D-02  1.4170231605288D-01
   158  1.5700000000000D+00 -3.8664927143956D-02  1.2752791579241D-01
   159  1.5800000000000D+00 -3.5709868004028D-02  1.1418102016242D-01
   160  1.5900000000000D+00 -3.2848091583307D-02  1.0164900282982D-01
   161  1.6000000000000D+00 -3.0086172842604D-02  8.9917119186465D-02
   162  1.6100000000000D+00 -2.7429831728937D-02  7.8968643550187D-02
   163  1.6200000000000D+00 -2.4883951463312D-02  6.8785010463665D-02
   164  1.6300000000000D+00 -2.2452599336960D-02  5.9345959417081D-02
   165  1.6400000000000D+00 -2.0139049802978D-02  5.0629682146802D-02
   166  1.6500000000000D+00 -1.7945809770136D-02  4.2612971705559D-02
   167  1.6600000000000D+00 -1.5874645896958D-02  3.5271372580765D-02
   168  1.6700000000000D+00 -1.3926613762941D-02  2.8579330973188D-02
   169  1.6800000000000D+00 -1.2102088727530D-02  2.2510344640647D-02
   170  1.6900000000000D+00 -1.0400798331220D-02  1.7037111373023D-02
   171  1.7000000000000D+00 -8.8218560635160D-03  1.2131675650159D-02
   172  1.7100000000000D+00 -7.3637963348443D-03  7.7655725160713D-03
   173  1.7200000000000D+00 -6.0246104951882D-03  3.9099684042559D-03
   174  1.7300000000000D+00 -4.8017837205159D-03  5.3579789909066D-04
   175  1.7400000000000D+00 -3.6923326355062D-03 -2.3861035907941D-03
   176  1.7500000000000D+00 -2.6928434741217D-03 -4.8848723531369D-03
   177  1.7600000000000D+00 -1.7995106837163D-03 -6.9894937961062D-03
   178  1.7700000000000D+00 -1.0081757472009D-03 -8.7286860306691D-03
   179  1.7800000000000D+00 -3.1436617952440D-04 -1.0130788935772D-02
   180  1.7900000000000D+00  2.8666556097493D-04 -1.1223660141722D-02
   181  1.8000000000000D+00  7.9990323643133D-04 -1.2034576905169D-02
   182  1.8100000000000D+00  1.2305283479348D-03 -1.2590145341013D-02
   183  1.8200000000000D+00  1.5838819713514D-03 -1.2916215892007D-02
   184  1.8300000000000D+00  1.8654271697317D-03 -1.3037806213603D-02
   185  1.8400000000000D+00  2.0807119591662D-03 -1.2979030575311D-02
   186  1.8500000000000D+00  2.2353330273321D-03 -1.2763036425179D-02
   187  1.8600000000000D+00  2.3349002300108D-03 -1.2411947625830D-02
   188  1.8700000000000D+00  2.3850019728353D-03 -1.1946814355311D-02
   189  1.8800000000000D+00  2.3911715810609D-03 -1.1387569682122D-02
   190  1.8900000000000D+00  2.3588546481236D-03 -1.0752992134710D-02
   191  1.9000000000000D+00  2.2933775620086D-03 -1.0060674750059D-02
   192  1.9100000000000D+00  2.1999170779447D-03 -9.3269993857935D-03
   193  1.9200000000000D+00  2.0834712094833D-03 -8.5671169952656D-03
   194  1.9300000000000D+00  1.9488312657881D-03 -7.7949326230467D-03
   195  1.9400000000000D+00  1.8005552462787D-03 -7.0230953960820D-03
   196  1.9500000000000D+00  1.6429425190936D-03 -6.2629928037412D-03
   197  1.9600000000000D+00  1.4800098464188D-03 -5.5247489354661D-03
   198  1.9700000000000D+00  1.3154688149140D-03 -4.8172263594468D-03
   199  1.9800000000000D+00  1.1527045932629D-03 -4.1480311046713D-03
   200  1.9900000000000D+00  9.9475617006673D-04 -3.5235203625574D-03
   201  2.0000000000000D+00  8.4429793606276D-04 -2.9488126145339D-03
   202  2.0100000000000D+00  7.0362273970568D-04 -2.4277995027904D-03
   203  2.0200000000000D+00  5.7462635123279D-04 -1.9631593518961D-03
   204  2.0300000000000D+00  4.5879335125068D-04 -1.5563718002123D-03
   205  2.0400000000000D+00  3.5718447406626D-04 -1.2077328961645D-03
   206  2.0500000000000D+00  2.7042532584296D-04 -9.1637100445131D-04
   207  2.0600000000000D+00  1.9872839421234D-04 -6.8043911555400D-04
   208  2.0700000000000D+00  1.4177731728233D-04 -4.9653353253853D-04
   209  2.0800000000000D+00  9.8723626298869D-05 -3.5977253654299D-04
   210  2.0900000000000D+00  6.8017333545084D-05 -2.6316109104515D-04
   211  2.1000000000000D+00  4.9293398882262D-05 -2.0645179194360D-04
   212  2.1100000000000D+00  4.1738344592790D-05 -1.8817049707653D-04
   213  2.1200000000000D+00  3.9739697904846D-05 -1.8580755061903D-04
   214  2.1300000000000D+00  3.5370365270583D-05 -1.6666628977597D-04
   215  2.1400000000000D+00  2.1748857371119D-05 -1.0260984372915D-04
   216  2.1500000000000D+00  6.3870852752676D-06 -3.0085170611269D-05
   217  2.1600000000000D+00 -2.7298845094470D-06  1.2959299545688D-05
   218  2.1700000000000D+00 -3.3826433428402D-06  1.6063052767794D-05
   219  2.1800000000000D+00 -3.0936518298118D-07  1.4691382537277D-06
   220  2.1900000000000D+00  7.8755250163996D-07 -3.7544270036987D-06
   221  2.2000000000000D+00  5.7633704562461D-07 -2.7491519923633D-06
   222  2.2100000000000D+00 -4.0350875684813D-08  1.9008939890438D-07
   223  2.2200000000000D+00 -1.0172160168593D-07  4.7920144958207D-07
   224  2.2300000000000D+00 -3.8962714325882D-08  1.8354989378031D-07
   225  2.2400000000000D+00  0.0000000000000D+00  0.0000000000000D+00
   226  2.2500000000000D+00  0.0000000000000D+00  0.0000000000000D+00
   227  2.2600000000000D+00  0.0000000000000D+00  0.0000000000000D+00
   228  2.2700000000000D+00  0.0000000000000D+00  0.0000000000000D+00
   229  2.2800000000000D+00  0.0000000000000D+00  0.0000000000000D+00
   230  2.2900000000000D+00  0.0000000000000D+00  0.0000000000000D+00
   231  2.3000000000000D+00  0.0000000000000D+00  0.0000000000000D+00
   232  2.3100000000000D+00  0.0000000000000D+00  0.0000000000000D+00
   233  2.3200000000000D+00  0.0000000000000D+00  0.0000000000000D+00
   234  2.3300000000000D+00  0.0000000000000D+00  0.0000000000000D+00
   235  2.3400000000000D+00  0.0000000000000D+00  0.0000000000000D+00
   236  2.3500000000000D+00  0.0000000000000D+00  0.0000000000000D+00
   237  2.3600000000000D+00  0.0000000000000D+00  0.0000000000000D+00
   238  2.3700000000000D+00  0.0000000000000D+00  0.0000000000000D+00
   239  2.3800000000000D+00  0.0000000000000D+00  0.0000000000000D+00
   240  2.3900000000000D+00  0.0000000000000D+00  0.0000000000000D+00
   241  2.4000000000000D+00  0.0000000000000D+00  0.0000000000000D+00
   242  2.4100000000000D+00  0.0000000000000D+00  0.0000000000000D+00
   243  2.4200000000000D+00  0.0000000000000D+00  0.0000000000000D+00
   244  2.4300000000000D+00  0.0000000000000D+00  0.0000000000000D+00
   245  2.4400000000000D+00  0.0000000000000D+00  0.0000000000000D+00
   246  2.4500000000000D+00  0.0000000000000D+00  0.0000000000000D+00
   247  2.4600000000000D+00  0.0000000000000D+00  0.0000000000000D+00
   248  2.4700000000000D+00  0.0000000000000D+00  0.0000000000000D+00
   249  2.4800000000000D+00  0.0000000000000D+00  0.0000000000000D+00
   250  2.4900000000000D+00  0.0000000000000D+00  0.0000000000000D+00
   251  2.5000000000000D+00  0.0000000000000D+00  0.0000000000000D+00
   252  2.5100000000000D+00  0.0000000000000D+00  0.0000000000000D+00
   253  2.5200000000000D+00  0.0000000000000D+00  0.0000000000000D+00
   254  2.5300000000000D+00  0.0000000000000D+00  0.0000000000000D+00
   255  2.5400000000000D+00  0.0000000000000D+00  0.0000000000000D+00
   256  2.5500000000000D+00  0.0000000000000D+00  0.0000000000000D+00
   257  2.5600000000000D+00  0.0000000000000D+00  0.0000000000000D+00
   258  2.5700000000000D+00  0.0000000000000D+00  0.0000000000000D+00
   259  2.5800000000000D+00  0.0000000000000D+00  0.0000000000000D+00
   260  2.5900000000000D+00  0.0000000000000D+00  0.0000000000000D+00
   261  2.6000000000000D+00  0.0000000000000D+00  0.0000000000000D+00
   262  2.6100000000000D+00  0.0000000000000D+00  0.0000000000000D+00
   263  2.6200000000000D+00  0.0000000000000D+00  0.0000000000000D+00
   264  2.6300000000000D+00  0.0000000000000D+00  0.0000000000000D+00
   265  2.6400000000000D+00  0.0000000000000D+00  0.0000000000000D+00
   266  2.6500000000000D+00  0.0000000000000D+00  0.0000000000000D+00
   267  2.6600000000000D+00  0.0000000000000D+00  0.0000000000000D+00
   268  2.6700000000000D+00  0.0000000000000D+00  0.0000000000000D+00
   269  2.6800000000000D+00  0.0000000000000D+00  0.0000000000000D+00
   270  2.6900000000000D+00  0.0000000000000D+00  0.0000000000000D+00
   271  2.7000000000000D+00  0.0000000000000D+00  0.0000000000000D+00
   272  2.7100000000000D+00  0.0000000000000D+00  0.0000000000000D+00
   273  2.7200000000000D+00  0.0000000000000D+00  0.0000000000000D+00
   274  2.7300000000000D+00  0.0000000000000D+00  0.0000000000000D+00
   275  2.7400000000000D+00  0.0000000000000D+00  0.0000000000000D+00
   276  2.7500000000000D+00  0.0000000000000D+00  0.0000000000000D+00
   277  2.7600000000000D+00  0.0000000000000D+00  0.0000000000000D+00
   278  2.7700000000000D+00  0.0000000000000D+00  0.0000000000000D+00
   279  2.7800000000000D+00  0.0000000000000D+00  0.0000000000000D+00
   280  2.7900000000000D+00  0.0000000000000D+00  0.0000000000000D+00
   281  2.8000000000000D+00  0.0000000000000D+00  0.0000000000000D+00
   282  2.8100000000000D+00  0.0000000000000D+00  0.0000000000000D+00
   283  2.8200000000000D+00  0.0000000000000D+00  0.0000000000000D+00
   284  2.8300000000000D+00  0.0000000000000D+00  0.0000000000000D+00
   285  2.8400000000000D+00  0.0000000000000D+00  0.0000000000000D+00
   286  2.8500000000000D+00  0.0000000000000D+00  0.0000000000000D+00
   287  2.8600000000000D+00  0.0000000000000D+00  0.0000000000000D+00
   288  2.8700000000000D+00  0.0000000000000D+00  0.0000000000000D+00
   289  2.8800000000000D+00  0.0000000000000D+00  0.0000000000000D+00
   290  2.8900000000000D+00  0.0000000000000D+00  0.0000000000000D+00
   291  2.9000000000000D+00  0.0000000000000D+00  0.0000000000000D+00
   292  2.9100000000000D+00  0.0000000000000D+00  0.0000000000000D+00
   293  2.9200000000000D+00  0.0000000000000D+00  0.0000000000000D+00
   294  2.9300000000000D+00  0.0000000000000D+00  0.0000000000000D+00
   295  2.9400000000000D+00  0.0000000000000D+00  0.0000000000000D+00
   296  2.9500000000000D+00  0.0000000000000D+00  0.0000000000000D+00
   297  2.9600000000000D+00  0.0000000000000D+00  0.0000000000000D+00
   298  2.9700000000000D+00  0.0000000000000D+00  0.0000000000000D+00
   299  2.9800000000000D+00  0.0000000000000D+00  0.0000000000000D+00
   300  2.9900000000000D+00  0.0000000000000D+00  0.0000000000000D+00
   301  3.0000000000000D+00  0.0000000000000D+00  0.0000000000000D+00
   302  3.0100000000000D+00  0.0000000000000D+00  0.0000000000000D+00
   303  3.0200000000000D+00  0.0000000000000D+00  0.0000000000000D+00
   304  3.0300000000000D+00  0.0000000000000D+00  0.0000000000000D+00
   305  3.0400000000000D+00  0.0000000000000D+00  0.0000000000000D+00
   306  3.0500000000000D+00  0.0000000000000D+00  0.0000000000000D+00
   307  3.0600000000000D+00  0.0000000000000D+00  0.0000000000000D+00
   308  3.0700000000000D+00  0.0000000000000D+00  0.0000000000000D+00
   309  3.0800000000000D+00  0.0000000000000D+00  0.0000000000000D+00
   310  3.0900000000000D+00  0.0000000000000D+00  0.0000000000000D+00
   311  3.1000000000000D+00  0.0000000000000D+00  0.0000000000000D+00
   312  3.1100000000000D+00  0.0000000000000D+00  0.0000000000000D+00
   313  3.1200000000000D+00  0.0000000000000D+00  0.0000000000000D+00
   314  3.1300000000000D+00  0.0000000000000D+00  0.0000000000000D+00
   315  3.1400000000000D+00  0.0000000000000D+00  0.0000000000000D+00
   316  3.1500000000000D+00  0.0000000000000D+00  0.0000000000000D+00
   317  3.1600000000000D+00  0.0000000000000D+00  0.0000000000000D+00
   318  3.1700000000000D+00  0.0000000000000D+00  0.0000000000000D+00
   319  3.1800000000000D+00  0.0000000000000D+00  0.0000000000000D+00
   320  3.1900000000000D+00  0.0000000000000D+00  0.0000000000000D+00
   321  3.2000000000000D+00  0.0000000000000D+00  0.0000000000000D+00
   322  3.2100000000000D+00  0.0000000000000D+00  0.0000000000000D+00
   323  3.2200000000000D+00  0.0000000000000D+00  0.0000000000000D+00
   324  3.2300000000000D+00  0.0000000000000D+00  0.0000000000000D+00
   325  3.2400000000000D+00  0.0000000000000D+00  0.0000000000000D+00
   326  3.2500000000000D+00  0.0000000000000D+00  0.0000000000000D+00
   327  3.2600000000000D+00  0.0000000000000D+00  0.0000000000000D+00
   328  3.2700000000000D+00  0.0000000000000D+00  0.0000000000000D+00
   329  3.2800000000000D+00  0.0000000000000D+00  0.0000000000000D+00
   330  3.2900000000000D+00  0.0000000000000D+00  0.0000000000000D+00
   331  3.3000000000000D+00  0.0000000000000D+00  0.0000000000000D+00
   332  3.3100000000000D+00  0.0000000000000D+00  0.0000000000000D+00
   333  3.3200000000000D+00  0.0000000000000D+00  0.0000000000000D+00
   334  3.3300000000000D+00  0.0000000000000D+00  0.0000000000000D+00
   335  3.3400000000000D+00  0.0000000000000D+00  0.0000000000000D+00
   336  3.3500000000000D+00  0.0000000000000D+00  0.0000000000000D+00
   337  3.3600000000000D+00  0.0000000000000D+00  0.0000000000000D+00
   338  3.3700000000000D+00  0.0000000000000D+00  0.0000000000000D+00
   339  3.3800000000000D+00  0.0000000000000D+00  0.0000000000000D+00
   340  3.3900000000000D+00  0.0000000000000D+00  0.0000000000000D+00
   341  3.4000000000000D+00  0.0000000000000D+00  0.0000000000000D+00
   342  3.4100000000000D+00  0.0000000000000D+00  0.0000000000000D+00
   343  3.4200000000000D+00  0.0000000000000D+00  0.0000000000000D+00
   344  3.4300000000000D+00  0.0000000000000D+00  0.0000000000000D+00
   345  3.4400000000000D+00  0.0000000000000D+00  0.0000000000000D+00
   346  3.4500000000000D+00  0.0000000000000D+00  0.0000000000000D+00
   347  3.4600000000000D+00  0.0000000000000D+00  0.0000000000000D+00
   348  3.4700000000000D+00  0.0000000000000D+00  0.0000000000000D+00
   349  3.4800000000000D+00  0.0000000000000D+00  0.0000000000000D+00
   350  3.4900000000000D+00  0.0000000000000D+00  0.0000000000000D+00
   351  3.5000000000000D+00  0.0000000000000D+00  0.0000000000000D+00
   352  3.5100000000000D+00  0.0000000000000D+00  0.0000000000000D+00
   353  3.5200000000000D+00  0.0000000000000D+00  0.0000000000000D+00
   354  3.5300000000000D+00  0.0000000000000D+00  0.0000000000000D+00
   355  3.5400000000000D+00  0.0000000000000D+00  0.0000000000000D+00
   356  3.5500000000000D+00  0.0000000000000D+00  0.0000000000000D+00
   357  3.5600000000000D+00  0.0000000000000D+00  0.0000000000000D+00
   358  3.5700000000000D+00  0.0000000000000D+00  0.0000000000000D+00
   359  3.5800000000000D+00  0.0000000000000D+00  0.0000000000000D+00
   360  3.5900000000000D+00  0.0000000000000D+00  0.0000000000000D+00
   361  3.6000000000000D+00  0.0000000000000D+00  0.0000000000000D+00
   362  3.6100000000000D+00  0.0000000000000D+00  0.0000000000000D+00
   363  3.6200000000000D+00  0.0000000000000D+00  0.0000000000000D+00
   364  3.6300000000000D+00  0.0000000000000D+00  0.0000000000000D+00
   365  3.6400000000000D+00  0.0000000000000D+00  0.0000000000000D+00
   366  3.6500000000000D+00  0.0000000000000D+00  0.0000000000000D+00
   367  3.6600000000000D+00  0.0000000000000D+00  0.0000000000000D+00
   368  3.6700000000000D+00  0.0000000000000D+00  0.0000000000000D+00
   369  3.6800000000000D+00  0.0000000000000D+00  0.0000000000000D+00
   370  3.6900000000000D+00  0.0000000000000D+00  0.0000000000000D+00
   371  3.7000000000000D+00  0.0000000000000D+00  0.0000000000000D+00
   372  3.7100000000000D+00  0.0000000000000D+00  0.0000000000000D+00
   373  3.7200000000000D+00  0.0000000000000D+00  0.0000000000000D+00
   374  3.7300000000000D+00  0.0000000000000D+00  0.0000000000000D+00
   375  3.7400000000000D+00  0.0000000000000D+00  0.0000000000000D+00
   376  3.7500000000000D+00  0.0000000000000D+00  0.0000000000000D+00
   377  3.7600000000000D+00  0.0000000000000D+00  0.0000000000000D+00
   378  3.7700000000000D+00  0.0000000000000D+00  0.0000000000000D+00
   379  3.7800000000000D+00  0.0000000000000D+00  0.0000000000000D+00
   380  3.7900000000000D+00  0.0000000000000D+00  0.0000000000000D+00
   381  3.8000000000000D+00  0.0000000000000D+00  0.0000000000000D+00
   382  3.8100000000000D+00  0.0000000000000D+00  0.0000000000000D+00
   383  3.8200000000000D+00  0.0000000000000D+00  0.0000000000000D+00
   384  3.8300000000000D+00  0.0000000000000D+00  0.0000000000000D+00
   385  3.8400000000000D+00  0.0000000000000D+00  0.0000000000000D+00
   386  3.8500000000000D+00  0.0000000000000D+00  0.0000000000000D+00
   387  3.8600000000000D+00  0.0000000000000D+00  0.0000000000000D+00
   388  3.8700000000000D+00  0.0000000000000D+00  0.0000000000000D+00
   389  3.8800000000000D+00  0.0000000000000D+00  0.0000000000000D+00
   390  3.8900000000000D+00  0.0000000000000D+00  0.0000000000000D+00
   391  3.9000000000000D+00  0.0000000000000D+00  0.0000000000000D+00
   392  3.9100000000000D+00  0.0000000000000D+00  0.0000000000000D+00
   393  3.9200000000000D+00  0.0000000000000D+00  0.0000000000000D+00
   394  3.9300000000000D+00  0.0000000000000D+00  0.0000000000000D+00
   395  3.9400000000000D+00  0.0000000000000D+00  0.0000000000000D+00
   396  3.9500000000000D+00  0.0000000000000D+00  0.0000000000000D+00
   397  3.9600000000000D+00  0.0000000000000D+00  0.0000000000000D+00
   398  3.9700000000000D+00  0.0000000000000D+00  0.0000000000000D+00
   399  3.9800000000000D+00  0.0000000000000D+00  0.0000000000000D+00
   400  3.9900000000000D+00  0.0000000000000D+00  0.0000000000000D+00
   401  4.0000000000000D+00  0.0000000000000D+00  0.0000000000000D+00
   402  4.0100000000000D+00  0.0000000000000D+00  0.0000000000000D+00
   403  4.0200000000000D+00  0.0000000000000D+00  0.0000000000000D+00
   404  4.0300000000000D+00  0.0000000000000D+00  0.0000000000000D+00
   405  4.0400000000000D+00  0.0000000000000D+00  0.0000000000000D+00
   406  4.0500000000000D+00  0.0000000000000D+00  0.0000000000000D+00
   407  4.0600000000000D+00  0.0000000000000D+00  0.0000000000000D+00
   408  4.0700000000000D+00  0.0000000000000D+00  0.0000000000000D+00
   409  4.0800000000000D+00  0.0000000000000D+00  0.0000000000000D+00
   410  4.0900000000000D+00  0.0000000000000D+00  0.0000000000000D+00
   411  4.1000000000000D+00  0.0000000000000D+00  0.0000000000000D+00
   412  4.1100000000000D+00  0.0000000000000D+00  0.0000000000000D+00
   413  4.1200000000000D+00  0.0000000000000D+00  0.0000000000000D+00
   414  4.1300000000000D+00  0.0000000000000D+00  0.0000000000000D+00
   415  4.1400000000000D+00  0.0000000000000D+00  0.0000000000000D+00
   416  4.1500000000000D+00  0.0000000000000D+00  0.0000000000000D+00
   417  4.1600000000000D+00  0.0000000000000D+00  0.0000000000000D+00
   418  4.1700000000000D+00  0.0000000000000D+00  0.0000000000000D+00
   419  4.1800000000000D+00  0.0000000000000D+00  0.0000000000000D+00
   420  4.1900000000000D+00  0.0000000000000D+00  0.0000000000000D+00
   421  4.2000000000000D+00  0.0000000000000D+00  0.0000000000000D+00
   422  4.2100000000000D+00  0.0000000000000D+00  0.0000000000000D+00
   423  4.2200000000000D+00  0.0000000000000D+00  0.0000000000000D+00