Sb    ONCVPSP-3.3.1  r_core=   2.48127   3.00305   3.59145
     51.0000     15.0000      210905    zatom,zion,pspd
     8 -116133   2     4   600     0    pspcod,pspxc,lmax,lloc,mmax,r2well
  5.99000000  0.00000000  0.00000000    rchrg fchrg qchrg
     2     2     2     0     0    nproj
     1     1           extension_switch
   0                         6.2280944133211D+00  1.3361256969538D+00
     1  0.0000000000000D+00  4.2884445994318D-12 -2.4990925995283D-11
     2  1.0000000000000D-02  9.0556896983026D-03  2.7055295427729D-02
     3  2.0000000000000D-02  1.8144864732688D-02  5.3991121579448D-02
     4  3.0000000000000D-02  2.7300880443133D-02  8.0688491264355D-02
     5  4.0000000000000D-02  3.6556832575074D-02  1.0702937965582D-01
     6  5.0000000000000D-02  4.5945428475244D-02  1.3289720096419D-01
     7  6.0000000000000D-02  5.5498859476202D-02  1.5817727971602D-01
     8  7.0000000000000D-02  6.5248674860792D-02  1.8275731487124D-01
     9  8.0000000000000D-02  7.5225657793415D-02  2.0652783503468D-01
    10  9.0000000000000D-02  8.5459703599696D-02  2.2938264304949D-01
    11  1.0000000000000D-01  9.5979700769695D-02  2.5121924829730D-01
    12  1.1000000000000D-01  1.0681341505238D-01  2.7193928507269D-01
    13  1.2000000000000D-01  1.1798737700067D-01  2.9144891544877D-01
    14  1.3000000000000D-01  1.2952677331673D-01  3.0965921510487D-01
    15  1.4000000000000D-01  1.4145534233708D-01  3.2648654064739D-01
    16  1.5000000000000D-01  1.5379527398529D-01  3.4185287702022D-01
    17  1.6000000000000D-01  1.6656711450789D-01  3.5568616367141D-01
    18  1.7000000000000D-01  1.7978967629594D-01  3.6792059821796D-01
    19  1.8000000000000D-01  1.9347995308037D-01  3.7849691643086D-01
    20  1.9000000000000D-01  2.0765304077420D-01  3.8736264744635D-01
    21  2.0000000000000D-01  2.2232206421922D-01  3.9447234319846D-01
    22  2.1000000000000D-01  2.3749811007755D-01  3.9978778115967D-01
    23  2.2000000000000D-01  2.5319016609180D-01  4.0327813957299D-01
    24  2.3000000000000D-01  2.6940506691878D-01  4.0492014445784D-01
    25  2.4000000000000D-01  2.8614744672353D-01  4.0469818777416D-01
    26  2.5000000000000D-01  3.0341969870072D-01  4.0260441623432D-01
    27  2.6000000000000D-01  3.2122194167063D-01  3.9863879035936D-01
    28  2.7000000000000D-01  3.3955199387638D-01  3.9280911348528D-01
    29  2.8000000000000D-01  3.5840535408820D-01  3.8513103053560D-01
    30  2.9000000000000D-01  3.7777519009904D-01  3.7562799648837D-01
    31  3.0000000000000D-01  3.9765233467397D-01  3.6433121457839D-01
    32  3.1000000000000D-01  4.1802528899400D-01  3.5127954438866D-01
    33  3.2000000000000D-01  4.3888023361228D-01  3.3651938009777D-01
    34  3.3000000000000D-01  4.6020104691827D-01  3.2010449926301D-01
    35  3.4000000000000D-01  4.8196933108272D-01  3.0209588263082D-01
    36  3.5000000000000D-01  5.0416444543366D-01  2.8256150557678D-01
    37  3.6000000000000D-01  5.2676354719055D-01  2.6157610188654D-01
    38  3.7000000000000D-01  5.4974163946135D-01  2.3922090069626D-01
    39  3.8000000000000D-01  5.7307162638459D-01  2.1558333751561D-01
    40  3.9000000000000D-01  5.9672437527585D-01  1.9075674035832D-01
    41  4.0000000000000D-01  6.2066878561651D-01  1.6483999210381D-01
    42  4.1000000000000D-01  6.4487186470018D-01  1.3793717030846D-01
    43  4.2000000000000D-01  6.6929880973141D-01  1.1015716577576D-01
    44  4.3000000000000D-01  6.9391309614992D-01  8.1613281281404D-02
    45  4.4000000000000D-01  7.1867657193348D-01  5.2422811930946D-02
    46  4.5000000000000D-01  7.4354955761276D-01  2.2706608704303D-02
    47  4.6000000000000D-01  7.6849095171225D-01 -7.4113731874766D-03
    48  4.7000000000000D-01  7.9345834131316D-01 -3.7804539442297D-02
    49  4.8000000000000D-01  8.1840811741677D-01 -6.8344133553987D-02
    50  4.9000000000000D-01  8.4329559476965D-01 -9.8899723643051D-02
    51  5.0000000000000D-01  8.6807513579708D-01 -1.2933969738221D-01
    52  5.1000000000000D-01  8.9270027827574D-01 -1.5953176312805D-01
    53  5.2000000000000D-01  9.1712386636351D-01 -1.8934345533821D-01
    54  5.3000000000000D-01  9.4129818459141D-01 -2.1864264232834D-01
    55  5.4000000000000D-01  9.6517509441172D-01 -2.4729803440595D-01
    56  5.5000000000000D-01  9.8870617288571D-01 -2.7517969040834D-01
    57  5.6000000000000D-01  1.0118428530862D+00 -3.0215952066956D-01
    58  5.7000000000000D-01  1.0345365657820D+00 -3.2811178444766D-01
    59  5.8000000000000D-01  1.0567388819656D+00 -3.5291357985642D-01
    60  5.9000000000000D-01  1.0784016557804D+00 -3.7644532436795D-01
    61  6.0000000000000D-01  1.0994771674006D+00 -3.9859122398150D-01
    62  6.1000000000000D-01  1.1199182654147D+00 -4.1923972919117D-01
    63  6.2000000000000D-01  1.1396785082632D+00 -4.3828397593046D-01
    64  6.3000000000000D-01  1.1587123042827D+00 -4.5562220972371D-01
    65  6.4000000000000D-01  1.1769750499098D+00 -4.7115819133506D-01
    66  6.5000000000000D-01  1.1944232656033D+00 -4.8480158227276D-01
    67  6.6000000000000D-01  1.2110147290492D+00 -4.9646830858105D-01
    68  6.7000000000000D-01  1.2267086052177D+00 -5.0608090143343D-01
    69  6.8000000000000D-01  1.2414655728528D+00 -5.1356881312895D-01
    70  6.9000000000000D-01  1.2552479469831D+00 -5.1886870718694D-01
    71  7.0000000000000D-01  1.2680197970546D+00 -5.2192472133628D-01
    72  7.1000000000000D-01  1.2797470602988D+00 -5.2268870230030D-01
    73  7.2000000000000D-01  1.2903976499637D+00 -5.2112041138947D-01
    74  7.3000000000000D-01  1.2999415580516D+00 -5.1718770002901D-01
    75  7.4000000000000D-01  1.3083509522223D+00 -5.1086665446855D-01
    76  7.5000000000000D-01  1.3156002665419D+00 -5.0214170904406D-01
    77  7.6000000000000D-01  1.3216662857724D+00 -4.9100572748885D-01
    78  7.7000000000000D-01  1.3265282229221D+00 -4.7746005191998D-01
    79  7.8000000000000D-01  1.3301677897946D+00 -4.6151451925756D-01
    80  7.9000000000000D-01  1.3325692602990D+00 -4.4318744496773D-01
    81  8.0000000000000D-01  1.3337195263063D+00 -4.2250557415433D-01
    82  8.1000000000000D-01  1.3336081458619D+00 -3.9950400015857D-01
    83  8.2000000000000D-01  1.3322273835876D+00 -3.7422605096077D-01
    84  8.3000000000000D-01  1.3295722431343D+00 -3.4672314381207D-01
    85  8.4000000000000D-01  1.3256404915718D+00 -3.1705460865612D-01
    86  8.5000000000000D-01  1.3204326756270D+00 -2.8528748103163D-01
    87  8.6000000000000D-01  1.3139521297134D+00 -2.5149626527458D-01
    88  8.7000000000000D-01  1.3062049757167D+00 -2.1576266896373D-01
    89  8.8000000000000D-01  1.2972001145333D+00 -1.7817530967449D-01
    90  8.9000000000000D-01  1.2869492093836D+00 -1.3882939522322D-01
    91  9.0000000000000D-01  1.2754666609510D+00 -9.7826378696084D-02
    92  9.1000000000000D-01  1.2627695744234D+00 -5.5273589663735D-02
    93  9.2000000000000D-01  1.2488777185431D+00 -1.1283843084196D-02
    94  9.3000000000000D-01  1.2338134767973D+00  3.4024972509513D-02
    95  9.4000000000000D-01  1.2176017909063D+00  8.0530325851500D-02
    96  9.5000000000000D-01  1.2002700967948D+00  1.2810549104946D-01
    97  9.6000000000000D-01  1.1818482532566D+00  1.7662001111656D-01
    98  9.7000000000000D-01  1.1623684635453D+00  2.2594017502481D-01
    99  9.8000000000000D-01  1.1418651901498D+00  2.7592950631901D-01
   100  9.9000000000000D-01  1.1203750630363D+00  3.2644926128240D-01
   101  1.0000000000000D+00  1.0979367816575D+00  3.7735893460557D-01
   102  1.0100000000000D+00  1.0745910110546D+00  4.2851677048012D-01
   103  1.0200000000000D+00  1.0503802723921D+00  4.7978027701766D-01
   104  1.0300000000000D+00  1.0253488282897D+00  5.3100674188256D-01
   105  1.0400000000000D+00  9.9954256332634D-01  5.8205374702525D-01
   106  1.0500000000000D+00  9.7300886011230D-01  6.3277968040999D-01
   107  1.0600000000000D+00  9.4579647133568D-01  6.8304424264828D-01
   108  1.0700000000000D+00  9.1795538820419D-01  7.3270894647482D-01
   109  1.0800000000000D+00  8.8953670571321D-01  7.8163760703744D-01
   110  1.0900000000000D+00  8.6059248518147D-01  8.2969682101976D-01
   111  1.1000000000000D+00  8.3117561450261D-01  8.7675643266562D-01
   112  1.1100000000000D+00  8.0133966656784D-01  9.2268998484399D-01
   113  1.1200000000000D+00  7.7113875631864D-01  9.6737515334993D-01
   114  1.1300000000000D+00  7.4062739689223D-01  1.0106941627307D+00
   115  1.1400000000000D+00  7.0986035532303D-01  1.0525341820036D+00
   116  1.1500000000000D+00  6.7889250826271D-01  1.0927876987386D+00
   117  1.1600000000000D+00  6.4777869817966D-01  1.1313528700539D+00
   118  1.1700000000000D+00  6.1657359049490D-01  1.1681338492075D+00
   119  1.1800000000000D+00  5.8533153210539D-01  1.2030410865662D+00
   120  1.1900000000000D+00  5.5410641173749D-01  1.2359916038693D+00
   121  1.2000000000000D+00  5.2295152256895D-01  1.2669092407798D+00
   122  1.2100000000000D+00  4.9191942754220D-01  1.2957248729052D+00
   123  1.2200000000000D+00  4.6106182778129D-01  1.3223766005779D+00
   124  1.2300000000000D+00  4.3042943451559D-01  1.3468099077838D+00
   125  1.2400000000000D+00  4.0007184489515D-01  1.3689777908048D+00
   126  1.2500000000000D+00  3.7003742206452D-01  1.3888408562880D+00
   127  1.2600000000000D+00  3.4037317985042D-01  1.4063673885456D+00
   128  1.2700000000000D+00  3.1112467240038D-01  1.4215333860394D+00
   129  1.2800000000000D+00  2.8233588908051D-01  1.4343225672036D+00
   130  1.2900000000000D+00  2.5404915493162D-01  1.4447263458106D+00
   131  1.3000000000000D+00  2.2630503696246D-01  1.4527437762351D+00
   132  1.3100000000000D+00  1.9914225651929D-01  1.4583814691937D+00
   133  1.3200000000000D+00  1.7259760797139D-01  1.4616534785322D+00
   134  1.3300000000000D+00  1.4670588392067D-01  1.4625811598226D+00
   135  1.3400000000000D+00  1.2149980709978D-01  1.4611930017266D+00
   136  1.3500000000000D+00  9.7009969140531D-02  1.4575244310126D+00
   137  1.3600000000000D+00  7.3264776333480D-02  1.4516175923989D+00
   138  1.3700000000000D+00  5.0290402474575D-02  1.4435211044655D+00
   139  1.3800000000000D+00  2.8110748919248D-02  1.4332897928145D+00
   140  1.3900000000000D+00  6.7474118618947D-03  1.4209844020235D+00
   141  1.4000000000000D+00 -1.3780343100884D-02  1.4066712877717D+00
   142  1.4100000000000D+00 -3.3455599106584D-02  1.3904220906990D+00
   143  1.4200000000000D+00 -5.2263798914894D-02  1.3723133936873D+00
   144  1.4300000000000D+00 -7.0192748527423D-02  1.3524263641166D+00
   145  1.4400000000000D+00 -8.7232613656059D-02  1.3308463829375D+00
   146  1.4500000000000D+00 -1.0337590909168D-01  1.3076626622378D+00
   147  1.4600000000000D+00 -1.1861748107650D-01  1.2829678531330D+00
   148  1.4700000000000D+00 -1.3295448284502D-01  1.2568576457780D+00
   149  1.4800000000000D+00 -1.4638634341672D-01  1.2294303633288D+00
   150  1.4900000000000D+00 -1.5891472988227D-01  1.2007865516647D+00
   151  1.5000000000000D+00 -1.7054350330257D-01  1.1710285667057D+00
   152  1.5100000000000D+00 -1.8127866847019D-01  1.1402601611150D+00
   153  1.5200000000000D+00 -1.9112831773286D-01  1.1085860721333D+00
   154  1.5300000000000D+00 -2.0010256910816D-01  1.0761116123763D+00
   155  1.5400000000000D+00 -2.0821349896922D-01  1.0429422651039D+00
   156  1.5500000000000D+00 -2.1547506951407D-01  1.0091832859069D+00
   157  1.5600000000000D+00 -2.2190305135659D-01  9.7493931197288D-01
   158  1.5700000000000D+00 -2.2751494145477D-01  9.4031398096794D-01
   159  1.5800000000000D+00 -2.3232987673584D-01  9.0540956041740D-01
   160  1.5900000000000D+00 -2.3636854366568D-01  8.7032658948633D-01
   161  1.6000000000000D+00 -2.3965308411290D-01  8.3516353395832D-01
   162  1.6100000000000D+00 -2.4220699779127D-01  8.0001645598807D-01
   163  1.6200000000000D+00 -2.4405504162018D-01  7.6497869941678D-01
   164  1.6300000000000D+00 -2.4522312630836D-01  7.3014059182120D-01
   165  1.6400000000000D+00 -2.4573821049541D-01  6.9558916409664D-01
   166  1.6500000000000D+00 -2.4562819276225D-01  6.6140788830356D-01
   167  1.6600000000000D+00 -2.4492180184525D-01  6.2767643457922D-01
   168  1.6700000000000D+00 -2.4364848535667D-01  5.9447044740768D-01
   169  1.6800000000000D+00 -2.4183829734978D-01  5.6186134200983D-01
   170  1.6900000000000D+00 -2.3952178501231D-01  5.2991612075578D-01
   171  1.7000000000000D+00 -2.3672987482918D-01  4.9869721025166D-01
   172  1.7100000000000D+00 -2.3349375847458D-01  4.6826231869559D-01
   173  1.7200000000000D+00 -2.2984477877051D-01  4.3866431395053D-01
   174  1.7300000000000D+00 -2.2581431594995D-01  4.0995112173606D-01
   175  1.7400000000000D+00 -2.2143367454595D-01  3.8216564407180D-01
   176  1.7500000000000D+00 -2.1673397113166D-01  3.5534569731662D-01
   177  1.7600000000000D+00 -2.1174602319795D-01  3.2952396950843D-01
   178  1.7700000000000D+00 -2.0650023939770D-01  3.0472799642794D-01
   179  1.7800000000000D+00 -2.0102651138261D-01  2.8098015556927D-01
   180  1.7900000000000D+00 -1.9535410749069D-01  2.5829767763232D-01
   181  1.8000000000000D+00 -1.8951156815896D-01  2.3669267318015D-01
   182  1.8100000000000D+00 -1.8352660418767D-01  2.1617217736379D-01
   183  1.8200000000000D+00 -1.7742599906594D-01  1.9673821545003D-01
   184  1.8300000000000D+00 -1.7123549934242D-01  1.7838782870043D-01
   185  1.8400000000000D+00 -1.6497975893350D-01  1.6111329513616D-01
   186  1.8500000000000D+00 -1.5868220993458D-01  1.4490210083015D-01
   187  1.8600000000000D+00 -1.5236491390595D-01  1.2973679931038D-01
   188  1.8700000000000D+00 -1.4604862065835D-01  1.1559567684546D-01
   189  1.8800000000000D+00 -1.3975279211138D-01  1.0245329464881D-01
   190  1.8900000000000D+00 -1.3349566138936D-01  9.0281062630679D-02
   191  1.9000000000000D+00 -1.2729435147522D-01  7.9047994047790D-02
   192  1.9100000000000D+00 -1.2116494294928D-01  6.8721256270963D-02
   193  1.9200000000000D+00 -1.1512241708672D-01  5.9266215845471D-02
   194  1.9300000000000D+00 -1.0918063777689D-01  5.0646596568327D-02
   195  1.9400000000000D+00 -1.0335238740527D-01  4.2824866765093D-02
   196  1.9500000000000D+00 -9.7649362472308D-02  3.5762435378972D-02
   197  1.9600000000000D+00 -9.2082188362197D-02  2.9419909808389D-02
   198  1.9700000000000D+00 -8.6660433830313D-02  2.3757335808025D-02
   199  1.9800000000000D+00 -8.1392628154291D-02  1.8734429592177D-02
   200  1.9900000000000D+00 -7.6286281131351D-02  1.4310802670934D-02
   201  2.0000000000000D+00 -7.1347905568716D-02  1.0446178667841D-02
   202  2.0100000000000D+00 -6.6583042105624D-02  7.1005988419474D-03
   203  2.0200000000000D+00 -6.1996286228497D-02  4.2346187647746D-03
   204  2.0300000000000D+00 -5.7591317310432D-02  1.8094918907795D-03
   205  2.0400000000000D+00 -5.3370929538815D-02 -2.1265790051659D-04
   206  2.0500000000000D+00 -4.9337064571908D-02 -1.8686765383500D-03
   207  2.0600000000000D+00 -4.5490845764608D-02 -3.1942343302777D-03
   208  2.0700000000000D+00 -4.1832613848419D-02 -4.2236919644117D-03
   209  2.0800000000000D+00 -3.8361963854962D-02 -4.9899832168391D-03
   210  2.0900000000000D+00 -3.5077783205850D-02 -5.5245097367898D-03
   211  2.1000000000000D+00 -3.1978290769916D-02 -5.8570511624353D-03
   212  2.1100000000000D+00 -2.9061076743101D-02 -6.0156904810720D-03
   213  2.1200000000000D+00 -2.6323143284414D-02 -6.0267516844118D-03
   214  2.1300000000000D+00 -2.3760945616678D-02 -5.9147548215856D-03
   215  2.1400000000000D+00 -2.1370433625554D-02 -5.7023829131742D-03
   216  2.1500000000000D+00 -1.9147093701961D-02 -5.4104638236632D-03
   217  2.1600000000000D+00 -1.7085990691751D-02 -5.0579666834267D-03
   218  2.1700000000000D+00 -1.5181809984167D-02 -4.6620092489940D-03
   219  2.1800000000000D+00 -1.3428899330690D-02 -4.2378809180658D-03
   220  2.1900000000000D+00 -1.1821310552271D-02 -3.7990760737195D-03
   221  2.2000000000000D+00 -1.0352840883227D-02 -3.3573393125927D-03
   222  2.2100000000000D+00 -9.0170737541569D-03 -2.9227228715676D-03
   223  2.2200000000000D+00 -7.8074191765849D-03 -2.5036524076291D-03
   224  2.2300000000000D+00 -6.7171532902386D-03 -2.1070037774932D-03
   225  2.2400000000000D+00 -5.7394571848070D-03 -1.7381879655966D-03
   226  2.2500000000000D+00 -4.8674549668797D-03 -1.4012429924170D-03
   227  2.2600000000000D+00 -4.0942506487000D-03 -1.0989339367903D-03
   228  2.2700000000000D+00 -3.4129641867563D-03 -8.3285788505657D-04
   229  2.2800000000000D+00 -2.8167663384710D-03 -6.0355402036409D-04
   230  2.2900000000000D+00 -2.2989122189193D-03 -4.1061783341864D-04
   231  2.3000000000000D+00 -1.8527737956921D-03 -2.5281814124831D-04
   232  2.3100000000000D+00 -1.4718708665886D-03 -1.2821594104635D-04
   233  2.3200000000000D+00 -1.1499006690140D-03 -3.4284114795319D-05
   234  2.3300000000000D+00 -8.8076622516804D-04  3.1972135629590D-05
   235  2.3400000000000D+00 -6.5860290635308D-04  7.3897249639179D-05
   236  2.3500000000000D+00 -4.7780363049316D-04  9.5068286319451D-05
   237  2.3600000000000D+00 -3.3304250208802D-04  9.9180391930377D-05
   238  2.3700000000000D+00 -2.1929664008384D-04  8.9937902908380D-05
   239  2.3800000000000D+00 -1.3186652148780D-04  7.0948104660919D-05
   240  2.3900000000000D+00 -6.6394583028601D-05  4.5621066919569D-05
   241  2.4000000000000D+00 -1.8802686502798D-05  1.6924287150236D-05
   242  2.4100000000000D+00  1.4436596221876D-05 -1.2211381117989D-05
   243  2.4200000000000D+00  3.6427257321553D-05 -3.9241666303202D-05
   244  2.4300000000000D+00  4.9344907920932D-05 -6.1357694779983D-05
   245  2.4400000000000D+00  5.6865668478598D-05 -7.9444928885388D-05
   246  2.4500000000000D+00  6.2036823214652D-05 -9.4711381250670D-05
   247  2.4600000000000D+00  6.8540908597360D-05 -1.1052377653731D-04
   248  2.4700000000000D+00  7.1740046322016D-05 -1.1862065304470D-04
   249  2.4800000000000D+00  6.7166187076761D-05 -1.1194146079750D-04
   250  2.4900000000000D+00  4.8313859496957D-05 -8.0826893218331D-05
   251  2.5000000000000D+00  2.3809824288795D-05 -3.9894543147473D-05
   252  2.5100000000000D+00  1.8600966252231D-06 -3.1173342824176D-06
   253  2.5200000000000D+00 -6.4588320287641D-06  1.0890498214156D-05
   254  2.5300000000000D+00 -5.7833135512609D-06  9.7625235574452D-06
   255  2.5400000000000D+00 -6.7014928715142D-07  1.1322237520858D-06
   256  2.5500000000000D+00  1.3638624870397D-06 -2.2916975979411D-06
   257  2.5600000000000D+00  1.4073029734524D-06 -2.3655119455850D-06
   258  2.5700000000000D+00  2.4242170034850D-07 -4.0760103974593D-07
   259  2.5800000000000D+00 -1.5024545794502D-07  2.5046996118368D-07
   260  2.5900000000000D+00 -1.7413282317673D-07  2.9029191336911D-07
   261  2.6000000000000D+00 -4.4822251231476D-08  7.4721909598231D-08
   262  2.6100000000000D+00  0.0000000000000D+00  0.0000000000000D+00
   263  2.6200000000000D+00  0.0000000000000D+00  0.0000000000000D+00
   264  2.6300000000000D+00  0.0000000000000D+00  0.0000000000000D+00
   265  2.6400000000000D+00  0.0000000000000D+00  0.0000000000000D+00
   266  2.6500000000000D+00  0.0000000000000D+00  0.0000000000000D+00
   267  2.6600000000000D+00  0.0000000000000D+00  0.0000000000000D+00
   268  2.6700000000000D+00  0.0000000000000D+00  0.0000000000000D+00
   269  2.6800000000000D+00  0.0000000000000D+00  0.0000000000000D+00
   270  2.6900000000000D+00  0.0000000000000D+00  0.0000000000000D+00
   271  2.7000000000000D+00  0.0000000000000D+00  0.0000000000000D+00
   272  2.7100000000000D+00  0.0000000000000D+00  0.0000000000000D+00
   273  2.7200000000000D+00  0.0000000000000D+00  0.0000000000000D+00
   274  2.7300000000000D+00  0.0000000000000D+00  0.0000000000000D+00
   275  2.7400000000000D+00  0.0000000000000D+00  0.0000000000000D+00
   276  2.7500000000000D+00  0.0000000000000D+00  0.0000000000000D+00
   277  2.7600000000000D+00  0.0000000000000D+00  0.0000000000000D+00
   278  2.7700000000000D+00  0.0000000000000D+00  0.0000000000000D+00
   279  2.7800000000000D+00  0.0000000000000D+00  0.0000000000000D+00
   280  2.7900000000000D+00  0.0000000000000D+00  0.0000000000000D+00
   281  2.8000000000000D+00  0.0000000000000D+00  0.0000000000000D+00
   282  2.8100000000000D+00  0.0000000000000D+00  0.0000000000000D+00
   283  2.8200000000000D+00  0.0000000000000D+00  0.0000000000000D+00
   284  2.8300000000000D+00  0.0000000000000D+00  0.0000000000000D+00
   285  2.8400000000000D+00  0.0000000000000D+00  0.0000000000000D+00
   286  2.8500000000000D+00  0.0000000000000D+00  0.0000000000000D+00
   287  2.8600000000000D+00  0.0000000000000D+00  0.0000000000000D+00
   288  2.8700000000000D+00  0.0000000000000D+00  0.0000000000000D+00
   289  2.8800000000000D+00  0.0000000000000D+00  0.0000000000000D+00
   290  2.8900000000000D+00  0.0000000000000D+00  0.0000000000000D+00
   291  2.9000000000000D+00  0.0000000000000D+00  0.0000000000000D+00
   292  2.9100000000000D+00  0.0000000000000D+00  0.0000000000000D+00
   293  2.9200000000000D+00  0.0000000000000D+00  0.0000000000000D+00
   294  2.9300000000000D+00  0.0000000000000D+00  0.0000000000000D+00
   295  2.9400000000000D+00  0.0000000000000D+00  0.0000000000000D+00
   296  2.9500000000000D+00  0.0000000000000D+00  0.0000000000000D+00
   297  2.9600000000000D+00  0.0000000000000D+00  0.0000000000000D+00
   298  2.9700000000000D+00  0.0000000000000D+00  0.0000000000000D+00
   299  2.9800000000000D+00  0.0000000000000D+00  0.0000000000000D+00
   300  2.9900000000000D+00  0.0000000000000D+00  0.0000000000000D+00
   301  3.0000000000000D+00  0.0000000000000D+00  0.0000000000000D+00
   302  3.0100000000000D+00  0.0000000000000D+00  0.0000000000000D+00
   303  3.0200000000000D+00  0.0000000000000D+00  0.0000000000000D+00
   304  3.0300000000000D+00  0.0000000000000D+00  0.0000000000000D+00
   305  3.0400000000000D+00  0.0000000000000D+00  0.0000000000000D+00
   306  3.0500000000000D+00  0.0000000000000D+00  0.0000000000000D+00
   307  3.0600000000000D+00  0.0000000000000D+00  0.0000000000000D+00
   308  3.0700000000000D+00  0.0000000000000D+00  0.0000000000000D+00
   309  3.0800000000000D+00  0.0000000000000D+00  0.0000000000000D+00
   310  3.0900000000000D+00  0.0000000000000D+00  0.0000000000000D+00
   311  3.1000000000000D+00  0.0000000000000D+00  0.0000000000000D+00
   312  3.1100000000000D+00  0.0000000000000D+00  0.0000000000000D+00
   313  3.1200000000000D+00  0.0000000000000D+00  0.0000000000000D+00
   314  3.1300000000000D+00  0.0000000000000D+00  0.0000000000000D+00
   315  3.1400000000000D+00  0.0000000000000D+00  0.0000000000000D+00
   316  3.1500000000000D+00  0.0000000000000D+00  0.0000000000000D+00
   317  3.1600000000000D+00  0.0000000000000D+00  0.0000000000000D+00
   318  3.1700000000000D+00  0.0000000000000D+00  0.0000000000000D+00
   319  3.1800000000000D+00  0.0000000000000D+00  0.0000000000000D+00
   320  3.1900000000000D+00  0.0000000000000D+00  0.0000000000000D+00
   321  3.2000000000000D+00  0.0000000000000D+00  0.0000000000000D+00
   322  3.2100000000000D+00  0.0000000000000D+00  0.0000000000000D+00
   323  3.2200000000000D+00  0.0000000000000D+00  0.0000000000000D+00
   324  3.2300000000000D+00  0.0000000000000D+00  0.0000000000000D+00
   325  3.2400000000000D+00  0.0000000000000D+00  0.0000000000000D+00
   326  3.2500000000000D+00  0.0000000000000D+00  0.0000000000000D+00
   327  3.2600000000000D+00  0.0000000000000D+00  0.0000000000000D+00
   328  3.2700000000000D+00  0.0000000000000D+00  0.0000000000000D+00
   329  3.2800000000000D+00  0.0000000000000D+00  0.0000000000000D+00
   330  3.2900000000000D+00  0.0000000000000D+00  0.0000000000000D+00
   331  3.3000000000000D+00  0.0000000000000D+00  0.0000000000000D+00
   332  3.3100000000000D+00  0.0000000000000D+00  0.0000000000000D+00
   333  3.3200000000000D+00  0.0000000000000D+00  0.0000000000000D+00
   334  3.3300000000000D+00  0.0000000000000D+00  0.0000000000000D+00
   335  3.3400000000000D+00  0.0000000000000D+00  0.0000000000000D+00
   336  3.3500000000000D+00  0.0000000000000D+00  0.0000000000000D+00
   337  3.3600000000000D+00  0.0000000000000D+00  0.0000000000000D+00
   338  3.3700000000000D+00  0.0000000000000D+00  0.0000000000000D+00
   339  3.3800000000000D+00  0.0000000000000D+00  0.0000000000000D+00
   340  3.3900000000000D+00  0.0000000000000D+00  0.0000000000000D+00
   341  3.4000000000000D+00  0.0000000000000D+00  0.0000000000000D+00
   342  3.4100000000000D+00  0.0000000000000D+00  0.0000000000000D+00
   343  3.4200000000000D+00  0.0000000000000D+00  0.0000000000000D+00
   344  3.4300000000000D+00  0.0000000000000D+00  0.0000000000000D+00
   345  3.4400000000000D+00  0.0000000000000D+00  0.0000000000000D+00
   346  3.4500000000000D+00  0.0000000000000D+00  0.0000000000000D+00
   347  3.4600000000000D+00  0.0000000000000D+00  0.0000000000000D+00
   348  3.4700000000000D+00  0.0000000000000D+00  0.0000000000000D+00
   349  3.4800000000000D+00  0.0000000000000D+00  0.0000000000000D+00
   350  3.4900000000000D+00  0.0000000000000D+00  0.0000000000000D+00
   351  3.5000000000000D+00  0.0000000000000D+00  0.0000000000000D+00
   352  3.5100000000000D+00  0.0000000000000D+00  0.0000000000000D+00
   353  3.5200000000000D+00  0.0000000000000D+00  0.0000000000000D+00
   354  3.5300000000000D+00  0.0000000000000D+00  0.0000000000000D+00
   355  3.5400000000000D+00  0.0000000000000D+00  0.0000000000000D+00
   356  3.5500000000000D+00  0.0000000000000D+00  0.0000000000000D+00
   357  3.5600000000000D+00  0.0000000000000D+00  0.0000000000000D+00
   358  3.5700000000000D+00  0.0000000000000D+00  0.0000000000000D+00
   359  3.5800000000000D+00  0.0000000000000D+00  0.0000000000000D+00
   360  3.5900000000000D+00  0.0000000000000D+00  0.0000000000000D+00
   361  3.6000000000000D+00  0.0000000000000D+00  0.0000000000000D+00
   362  3.6100000000000D+00  0.0000000000000D+00  0.0000000000000D+00
   363  3.6200000000000D+00  0.0000000000000D+00  0.0000000000000D+00
   364  3.6300000000000D+00  0.0000000000000D+00  0.0000000000000D+00
   365  3.6400000000000D+00  0.0000000000000D+00  0.0000000000000D+00
   366  3.6500000000000D+00  0.0000000000000D+00  0.0000000000000D+00
   367  3.6600000000000D+00  0.0000000000000D+00  0.0000000000000D+00
   368  3.6700000000000D+00  0.0000000000000D+00  0.0000000000000D+00
   369  3.6800000000000D+00  0.0000000000000D+00  0.0000000000000D+00
   370  3.6900000000000D+00  0.0000000000000D+00  0.0000000000000D+00
   371  3.7000000000000D+00  0.0000000000000D+00  0.0000000000000D+00
   372  3.7100000000000D+00  0.0000000000000D+00  0.0000000000000D+00
   373  3.7200000000000D+00  0.0000000000000D+00  0.0000000000000D+00
   374  3.7300000000000D+00  0.0000000000000D+00  0.0000000000000D+00
   375  3.7400000000000D+00  0.0000000000000D+00  0.0000000000000D+00
   376  3.7500000000000D+00  0.0000000000000D+00  0.0000000000000D+00
   377  3.7600000000000D+00  0.0000000000000D+00  0.0000000000000D+00
   378  3.7700000000000D+00  0.0000000000000D+00  0.0000000000000D+00
   379  3.7800000000000D+00  0.0000000000000D+00  0.0000000000000D+00
   380  3.7900000000000D+00  0.0000000000000D+00  0.0000000000000D+00
   381  3.8000000000000D+00  0.0000000000000D+00  0.0000000000000D+00
   382  3.8100000000000D+00  0.0000000000000D+00  0.0000000000000D+00
   383  3.8200000000000D+00  0.0000000000000D+00  0.0000000000000D+00
   384  3.8300000000000D+00  0.0000000000000D+00  0.0000000000000D+00
   385  3.8400000000000D+00  0.0000000000000D+00  0.0000000000000D+00
   386  3.8500000000000D+00  0.0000000000000D+00  0.0000000000000D+00
   387  3.8600000000000D+00  0.0000000000000D+00  0.0000000000000D+00
   388  3.8700000000000D+00  0.0000000000000D+00  0.0000000000000D+00
   389  3.8800000000000D+00  0.0000000000000D+00  0.0000000000000D+00
   390  3.8900000000000D+00  0.0000000000000D+00  0.0000000000000D+00
   391  3.9000000000000D+00  0.0000000000000D+00  0.0000000000000D+00
   392  3.9100000000000D+00  0.0000000000000D+00  0.0000000000000D+00
   393  3.9200000000000D+00  0.0000000000000D+00  0.0000000000000D+00
   394  3.9300000000000D+00  0.0000000000000D+00  0.0000000000000D+00
   395  3.9400000000000D+00  0.0000000000000D+00  0.0000000000000D+00
   396  3.9500000000000D+00  0.0000000000000D+00  0.0000000000000D+00
   397  3.9600000000000D+00  0.0000000000000D+00  0.0000000000000D+00
   398  3.9700000000000D+00  0.0000000000000D+00  0.0000000000000D+00
   399  3.9800000000000D+00  0.0000000000000D+00  0.0000000000000D+00
   400  3.9900000000000D+00  0.0000000000000D+00  0.0000000000000D+00
   401  4.0000000000000D+00  0.0000000000000D+00  0.0000000000000D+00
   402  4.0100000000000D+00  0.0000000000000D+00  0.0000000000000D+00
   403  4.0200000000000D+00  0.0000000000000D+00  0.0000000000000D+00
   404  4.0300000000000D+00  0.0000000000000D+00  0.0000000000000D+00
   405  4.0400000000000D+00  0.0000000000000D+00  0.0000000000000D+00
   406  4.0500000000000D+00  0.0000000000000D+00  0.0000000000000D+00
   407  4.0600000000000D+00  0.0000000000000D+00  0.0000000000000D+00
   408  4.0700000000000D+00  0.0000000000000D+00  0.0000000000000D+00
   409  4.0800000000000D+00  0.0000000000000D+00  0.0000000000000D+00
   410  4.0900000000000D+00  0.0000000000000D+00  0.0000000000000D+00
   411  4.1000000000000D+00  0.0000000000000D+00  0.0000000000000D+00
   412  4.1100000000000D+00  0.0000000000000D+00  0.0000000000000D+00
   413  4.1200000000000D+00  0.0000000000000D+00  0.0000000000000D+00
   414  4.1300000000000D+00  0.0000000000000D+00  0.0000000000000D+00
   415  4.1400000000000D+00  0.0000000000000D+00  0.0000000000000D+00
   416  4.1500000000000D+00  0.0000000000000D+00  0.0000000000000D+00
   417  4.1600000000000D+00  0.0000000000000D+00  0.0000000000000D+00
   418  4.1700000000000D+00  0.0000000000000D+00  0.0000000000000D+00
   419  4.1800000000000D+00  0.0000000000000D+00  0.0000000000000D+00
   420  4.1900000000000D+00  0.0000000000000D+00  0.0000000000000D+00
   421  4.2000000000000D+00  0.0000000000000D+00  0.0000000000000D+00
   422  4.2100000000000D+00  0.0000000000000D+00  0.0000000000000D+00