Sc    ONCVPSP-3.3.1  r_core=   2.91081   2.94574   2.37654
     21.0000     11.0000      210905    zatom,zion,pspd
     8 -116133   2     4   600     0    pspcod,pspxc,lmax,lloc,mmax,r2well
  5.99000000  0.00000000  0.00000000    rchrg fchrg qchrg
     2     2     2     0     0    nproj
     1     1           extension_switch
   0                         1.2900449613784D+00 -3.5619813829818D-01
     1  0.0000000000000D+00 -1.3401502130250D-12 -2.5343060983118D-12
     2  1.0000000000000D-02  4.8611380109410D-02  1.6431435634009D-02
     3  2.0000000000000D-02  9.7155969830322D-02  3.2842857020222D-02
     4  3.0000000000000D-02  1.4556708651417D-01  4.9214315719442D-02
     5  4.0000000000000D-02  1.9377826280276D-01  6.5525994694490D-02
     6  5.0000000000000D-02  2.4172335380008D-01  8.1758273473922D-02
     7  6.0000000000000D-02  2.8933664367696D-01  9.7891792672767D-02
     8  7.0000000000000D-02  3.3655295152117D-01  1.1390751765893D-01
     9  8.0000000000000D-02  3.8330773624670D-01  1.2978680115643D-01
    10  9.0000000000000D-02  4.2953720037779D-01  1.4551144457974D-01
    11  1.0000000000000D-01  4.7517839252524D-01  1.6106375789742D-01
    12  1.1000000000000D-01  5.2016930837469D-01  1.7642661782734D-01
    13  1.2000000000000D-01  5.6444899000943D-01  1.9158352417100D-01
    14  1.3000000000000D-01  6.0795762339300D-01  2.0651865409985D-01
    15  1.4000000000000D-01  6.5063663384040D-01  2.2121691421269D-01
    16  1.5000000000000D-01  6.9242877930984D-01  2.3566399018977D-01
    17  1.6000000000000D-01  7.3327824135141D-01  2.4984639387657D-01
    18  1.7000000000000D-01  7.7313071355275D-01  2.6375150763787D-01
    19  1.8000000000000D-01  8.1193348732634D-01  2.7736762583082D-01
    20  1.9000000000000D-01  8.4963553488809D-01  2.9068399325463D-01
    21  2.0000000000000D-01  8.8618758928139D-01  3.0369084044338D-01
    22  2.1000000000000D-01  9.2154222130660D-01  3.1637941567826D-01
    23  2.2000000000000D-01  9.5565391322101D-01  3.2874201360527D-01
    24  2.3000000000000D-01  9.8847912908057D-01  3.4077200035510D-01
    25  2.4000000000000D-01  1.0199763816002D+00  3.5246383507209D-01
    26  2.5000000000000D-01  1.0501062954163D+00  3.6381308777081D-01
    27  2.6000000000000D-01  1.0788316666412D+00  3.7481645344970D-01
    28  2.7000000000000D-01  1.1061175186059D+00  3.8547176240279D-01
    29  2.8000000000000D-01  1.1319311536948D+00  3.9577798668268D-01
    30  2.9000000000000D-01  1.1562422011829D+00  4.0573524267959D-01
    31  3.0000000000000D-01  1.1790226609933D+00  4.1534478979363D-01
    32  3.1000000000000D-01  1.2002469432995D+00  4.2460902518989D-01
    33  3.2000000000000D-01  1.2198919039066D+00  4.3353147463799D-01
    34  3.3000000000000D-01  1.2379368753511D+00  4.4211677945063D-01
    35  3.4000000000000D-01  1.2543636936673D+00  4.5037067954786D-01
    36  3.5000000000000D-01  1.2691567207777D+00  4.5829999268644D-01
    37  3.6000000000000D-01  1.2823028624707D+00  4.6591258990598D-01
    38  3.7000000000000D-01  1.2937915819391D+00  4.7321736725606D-01
    39  3.8000000000000D-01  1.3036149088588D+00  4.8022421388051D-01
    40  3.9000000000000D-01  1.3117674439987D+00  4.8694397654745D-01
    41  4.0000000000000D-01  1.3182463593570D+00  4.9338842072523D-01
    42  4.1000000000000D-01  1.3230513938306D+00  4.9957018831613D-01
    43  4.2000000000000D-01  1.3261848444318D+00  5.0550275217127D-01
    44  4.3000000000000D-01  1.3276515530739D+00  5.1120036752093D-01
    45  4.4000000000000D-01  1.3274588889565D+00  5.1667802046531D-01
    46  4.5000000000000D-01  1.3256167265900D+00  5.2195137368120D-01
    47  4.6000000000000D-01  1.3221374195047D+00  5.2703670950975D-01
    48  4.7000000000000D-01  1.3170357697024D+00  5.3195087060009D-01
    49  4.8000000000000D-01  1.3103289929106D+00  5.3671119829264D-01
    50  4.9000000000000D-01  1.3020366797127D+00  5.4133546893409D-01
    51  5.0000000000000D-01  1.2921807526332D+00  5.4584182832431D-01
    52  5.1000000000000D-01  1.2807854192623D+00  5.5024872450267D-01
    53  5.2000000000000D-01  1.2678771215173D+00  5.5457483908766D-01
    54  5.3000000000000D-01  1.2534844811401D+00  5.5883901739043D-01
    55  5.4000000000000D-01  1.2376382415400D+00  5.6306019752763D-01
    56  5.5000000000000D-01  1.2203712060984D+00  5.6725733876426D-01
    57  5.6000000000000D-01  1.2017181730565D+00  5.7144934932084D-01
    58  5.7000000000000D-01  1.1817158671165D+00  5.7565501388275D-01
    59  5.8000000000000D-01  1.1604028678902D+00  5.7989292105232D-01
    60  5.9000000000000D-01  1.1378195353373D+00  5.8418139098559D-01
    61  6.0000000000000D-01  1.1140079323394D+00  5.8853840345725D-01
    62  6.1000000000000D-01  1.0890117445642D+00  5.9298152659725D-01
    63  6.2000000000000D-01  1.0628761977744D+00  5.9752784654197D-01
    64  6.3000000000000D-01  1.0356479727472D+00  6.0219389824174D-01
    65  6.4000000000000D-01  1.0073751179693D+00  6.0699559766422D-01
    66  6.5000000000000D-01  9.7810696027858D-01  6.1194817563022D-01
    67  6.6000000000000D-01  9.4789401362935D-01  6.1706611351488D-01
    68  6.7000000000000D-01  9.1678788615749D-01  6.2236308104248D-01
    69  6.8000000000000D-01  8.8484118572870D-01  6.2785187639792D-01
    70  6.9000000000000D-01  8.5210742415364D-01  6.3354436887168D-01
    71  7.0000000000000D-01  8.1864092025682D-01  6.3945144424839D-01
    72  7.1000000000000D-01  7.8449670198819D-01  6.4558295314117D-01
    73  7.2000000000000D-01  7.4973040776763D-01  6.5194766246592D-01
    74  7.3000000000000D-01  7.1439818725396D-01  6.5855321024028D-01
    75  7.4000000000000D-01  6.7855660173087D-01  6.6540606388237D-01
    76  7.5000000000000D-01  6.4226252430239D-01  6.7251148217406D-01
    77  7.6000000000000D-01  6.0557304009071D-01  6.7987348104209D-01
    78  7.7000000000000D-01  5.6854534662863D-01  6.8749480329912D-01
    79  7.8000000000000D-01  5.3123665463793D-01  6.9537689247398D-01
    80  7.9000000000000D-01  4.9370408938406D-01  7.0351987084807D-01
    81  8.0000000000000D-01  4.5600459279555D-01  7.1192252180126D-01
    82  8.1000000000000D-01  4.1819482653451D-01  7.2058227655679D-01
    83  8.2000000000000D-01  3.8033107620251D-01  7.2949520540086D-01
    84  8.3000000000000D-01  3.4246915686265D-01  7.3865601343763D-01
    85  8.4000000000000D-01  3.0466432005597D-01  7.4805804092559D-01
    86  8.5000000000000D-01  2.6697116248627D-01  7.5769326822635D-01
    87  8.6000000000000D-01  2.2944353654377D-01  7.6755232538111D-01
    88  8.7000000000000D-01  1.9213446283323D-01  7.7762450631478D-01
    89  8.8000000000000D-01  1.5509604486800D-01  7.8789778765201D-01
    90  8.9000000000000D-01  1.1837938608568D-01  7.9835885211356D-01
    91  9.0000000000000D-01  8.2034509336353D-02  8.0899311644575D-01
    92  9.1000000000000D-01  4.6110278988008D-02  8.1978476382003D-01
    93  9.2000000000000D-01  1.0654325788171D-02  8.3071678062400D-01
    94  9.3000000000000D-01 -2.4287025385874D-02  8.4177099754995D-01
    95  9.4000000000000D-01 -5.8668824762380D-02  8.5292813487142D-01
    96  9.5000000000000D-01 -9.2447563777024D-02  8.6416785178378D-01
    97  9.6000000000000D-01 -1.2558123792956D-01  8.7546879966960D-01
    98  9.7000000000000D-01 -1.5802940629083D-01  8.8680867913594D-01
    99  9.8000000000000D-01 -1.8975324756329D-01  8.9816430065611D-01
   100  9.9000000000000D-01 -2.2071561260605D-01  9.0951164863603D-01
   101  1.0000000000000D+00 -2.5088107334320D-01  9.2082594871157D-01
   102  1.0100000000000D+00 -2.8021596798272D-01  9.3208173807170D-01
   103  1.0200000000000D+00 -3.0868844248102D-01  9.4325293859038D-01
   104  1.0300000000000D+00 -3.3626848819699D-01  9.5431293253929D-01
   105  1.0400000000000D+00 -3.6292797568758D-01  9.6523464064342D-01
   106  1.0500000000000D+00 -3.8864068460581D-01  9.7599060223206D-01
   107  1.0600000000000D+00 -4.1338232967010D-01  9.8655305722932D-01
   108  1.0700000000000D+00 -4.3713058268331D-01  9.9689402972035D-01
   109  1.0800000000000D+00 -4.5986509058782D-01  1.0069854128228D+00
   110  1.0900000000000D+00 -4.8156748955194D-01  1.0167990545868D+00
   111  1.1000000000000D+00 -5.0222141509149D-01  1.0263068446430D+00
   112  1.1100000000000D+00 -5.2181250823856D-01  1.0354808013123D+00
   113  1.1200000000000D+00 -5.4032841777870D-01  1.0442931588889D+00
   114  1.1300000000000D+00 -5.5775879858548D-01  1.0527164548079D+00
   115  1.1400000000000D+00 -5.7409530609020D-01  1.0607236164039D+00
   116  1.1500000000000D+00 -5.8933158693135D-01  1.0682880469719D+00
   117  1.1600000000000D+00 -6.0346326583818D-01  1.0753837108382D+00
   118  1.1700000000000D+00 -6.1648792880963D-01  1.0819852171556D+00
   119  1.1800000000000D+00 -6.2840510265695D-01  1.0880679021372D+00
   120  1.1900000000000D+00 -6.3921623098598D-01  1.0936079094490D+00
   121  1.2000000000000D+00 -6.4892464670296D-01  1.0985822684854D+00
   122  1.2100000000000D+00 -6.5753554113444D-01  1.1029689702631D+00
   123  1.2200000000000D+00 -6.6505592985601D-01  1.1067470406657D+00
   124  1.2300000000000D+00 -6.7149461533470D-01  1.1098966107918D+00
   125  1.2400000000000D+00 -6.7686214649401D-01  1.1123989841626D+00
   126  1.2500000000000D+00 -6.8117077531482D-01  1.1142367005526D+00
   127  1.2600000000000D+00 -6.8443441059302D-01  1.1153935962235D+00
   128  1.2700000000000D+00 -6.8666856897970D-01  1.1158548603542D+00
   129  1.2800000000000D+00 -6.8789032343193D-01  1.1156070874648D+00
   130  1.2900000000000D+00 -6.8811824920863D-01  1.1146383256523D+00
   131  1.3000000000000D+00 -6.8737236755047D-01  1.1129381204742D+00
   132  1.3100000000000D+00 -6.8567408718329D-01  1.1104975543193D+00
   133  1.3200000000000D+00 -6.8304614379043D-01  1.1073092811275D+00
   134  1.3300000000000D+00 -6.7951253760196D-01  1.1033675563470D+00
   135  1.3400000000000D+00 -6.7509846924833D-01  1.0986682620080D+00
   136  1.3500000000000D+00 -6.6983027403174D-01  1.0932089268332D+00
   137  1.3600000000000D+00 -6.6373535476748D-01  1.0869887413242D+00
   138  1.3700000000000D+00 -6.5684211334873D-01  1.0800085677459D+00
   139  1.3800000000000D+00 -6.4917988119080D-01  1.0722709450025D+00
   140  1.3900000000000D+00 -6.4077884870842D-01  1.0637800883745D+00
   141  1.4000000000000D+00 -6.3166999398268D-01  1.0545418841135D+00
   142  1.4100000000000D+00 -6.2188501076967D-01  1.0445638789424D+00
   143  1.4200000000000D+00 -6.1145623600710D-01  1.0338552644633D+00
   144  1.4300000000000D+00 -6.0041657696879D-01  1.0224268565650D+00
   145  1.4400000000000D+00 -5.8879943821753D-01  1.0102910698930D+00
   146  1.4500000000000D+00 -5.7663864850825D-01  9.9746188746365D-01
   147  1.4600000000000D+00 -5.6396838777942D-01  9.8395482557548D-01
   148  1.4700000000000D+00 -5.5082311438719D-01  9.6978689408870D-01
   149  1.4800000000000D+00 -5.3723749271028D-01  9.5497655228189D-01
   150  1.4900000000000D+00 -5.2324632127096D-01  9.3954366040231D-01
   151  1.5000000000000D+00 -5.0888446150143D-01  9.2350942711262D-01
   152  1.5100000000000D+00 -4.9418676728012D-01  9.0689635303241D-01
   153  1.5200000000000D+00 -4.7918801537446D-01  8.8972817055495D-01
   154  1.5300000000000D+00 -4.6392283688799D-01  8.7202978021452D-01
   155  1.5400000000000D+00 -4.4842564985534D-01  8.5382718377316D-01
   156  1.5500000000000D+00 -4.3273059306133D-01  8.3514741434801D-01
   157  1.5600000000000D+00 -4.1687146122006D-01  8.1601846377303D-01
   158  1.5700000000000D+00 -4.0088164158450D-01  7.9646920751915D-01
   159  1.5800000000000D+00 -3.8479405209966D-01  7.7652932741334D-01
   160  1.5900000000000D+00 -3.6864108117300D-01  7.5622923247036D-01
   161  1.6000000000000D+00 -3.5245452914586D-01  7.3559997811815D-01
   162  1.6100000000000D+00 -3.3626555154539D-01  7.1467318412413D-01
   163  1.6200000000000D+00 -3.2010460416930D-01  6.9348095152857D-01
   164  1.6300000000000D+00 -3.0400139008887D-01  6.7205577889359D-01
   165  1.6400000000000D+00 -2.8798480859076D-01  6.5043047818152D-01
   166  1.6500000000000D+00 -2.7208290614820D-01  6.2863809058117D-01
   167  1.6600000000000D+00 -2.5632282941129D-01  6.0671180258551D-01
   168  1.6700000000000D+00 -2.4073078030993D-01  5.8468486265700D-01
   169  1.6800000000000D+00 -2.2533197323133D-01  5.6259049875780D-01
   170  1.6900000000000D+00 -2.1015059436481D-01  5.4046183710384D-01
   171  1.7000000000000D+00 -1.9520976315233D-01  5.1833182238110D-01
   172  1.7100000000000D+00 -1.8053149593236D-01  4.9623313980703D-01
   173  1.7200000000000D+00 -1.6613667169737D-01  4.7419813922850D-01
   174  1.7300000000000D+00 -1.5204500004210D-01  4.5225876165926D-01
   175  1.7400000000000D+00 -1.3827499121138D-01  4.3044646839990D-01
   176  1.7500000000000D+00 -1.2484392830796D-01  4.0879217315186D-01
   177  1.7600000000000D+00 -1.1176784156561D-01  3.8732617722805D-01
   178  1.7700000000000D+00 -9.9061484723795D-02  3.6607810825863D-01
   179  1.7800000000000D+00 -8.6738313414802D-02  3.4507686247389D-01
   180  1.7900000000000D+00 -7.4810465567944D-02  3.2435055091597D-01
   181  1.8000000000000D+00 -6.3288743756082D-02  3.0392644967445D-01
   182  1.8100000000000D+00 -5.2182599450826D-02  2.8383095440320D-01
   183  1.8200000000000D+00 -4.1500119133665D-02  2.6408953927516D-01
   184  1.8300000000000D+00 -3.1248012186732D-02  2.4472672047733D-01
   185  1.8400000000000D+00 -2.1431600536874D-02  2.2576602452469D-01
   186  1.8500000000000D+00 -1.2054809934330D-02  2.0722996127233D-01
   187  1.8600000000000D+00 -3.1201628649461D-03  1.8914000209057D-01
   188  1.8700000000000D+00  5.3712270574203D-03  1.7151656280263D-01
   189  1.8800000000000D+00  1.3419661416604D-02  1.5437899446074D-01
   190  1.8900000000000D+00  2.1026850474401D-02  1.3774556633084D-01
   191  1.9000000000000D+00  2.8195938706415D-02  1.2163349039237D-01
   192  1.9100000000000D+00  3.4931460972015D-02  1.0605887857801D-01
   193  1.9200000000000D+00  4.1239349164931D-02  9.1036758134867D-02
   194  1.9300000000000D+00  4.7127014612844D-02  7.6581176612216D-02
   195  1.9400000000000D+00  5.2603375405820D-02  6.2705258019906D-02
   196  1.9500000000000D+00  5.7678482675076D-02  4.9420820738212D-02
   197  1.9600000000000D+00  6.2363322462023D-02  3.6738181361675D-02
   198  1.9700000000000D+00  6.6669562805592D-02  2.4665962667364D-02
   199  1.9800000000000D+00  7.0609144316895D-02  1.3210719537836D-02
   200  1.9900000000000D+00  7.4194193745104D-02  2.3769332689482D-03
   201  2.0000000000000D+00  7.7437051858100D-02 -7.8328578635400D-03
   202  2.0100000000000D+00  8.0350256354984D-02 -1.7417969998141D-02
   203  2.0200000000000D+00  8.2946408591438D-02 -2.6379623225607D-02
   204  2.0300000000000D+00  8.5238149642147D-02 -3.4720859138048D-02
   205  2.0400000000000D+00  8.7238095613201D-02 -4.2446503312974D-02
   206  2.0500000000000D+00  8.8958786091199D-02 -4.9563111085901D-02
   207  2.0600000000000D+00  9.0412635100944D-02 -5.6078908948669D-02
   208  2.0700000000000D+00  9.1611885268680D-02 -6.2003731185492D-02
   209  2.0800000000000D+00  9.2568565237509D-02 -6.7348952227247D-02
   210  2.0900000000000D+00  9.3294452107674D-02 -7.2127413128571D-02
   211  2.1000000000000D+00  9.3801037322249D-02 -7.6353344230122D-02
   212  2.1100000000000D+00  9.4099497834873D-02 -8.0042282601514D-02
   213  2.1200000000000D+00  9.4200672458796D-02 -8.3210984746375D-02
   214  2.1300000000000D+00  9.4115041864944D-02 -8.5877336212333D-02
   215  2.1400000000000D+00  9.3852716015050D-02 -8.8060255370460D-02
   216  2.1500000000000D+00  9.3423424735260D-02 -8.9779595117402D-02
   217  2.1600000000000D+00  9.2836514500635D-02 -9.1056040492878D-02
   218  2.1700000000000D+00  9.2100951133613D-02 -9.1911002821100D-02
   219  2.1800000000000D+00  9.1225324863729D-02 -9.2366513188938D-02
   220  2.1900000000000D+00  9.0217863390542D-02 -9.2445111839741D-02
   221  2.2000000000000D+00  8.9086446981486D-02 -9.2169737744105D-02
   222  2.2100000000000D+00  8.7838627790192D-02 -9.1563617338485D-02
   223  2.2200000000000D+00  8.6481654006902D-02 -9.0650152579502D-02
   224  2.2300000000000D+00  8.5022494901066D-02 -8.9452810626218D-02
   225  2.2400000000000D+00  8.3467869533904D-02 -8.7995014626402D-02
   226  2.2500000000000D+00  8.1824276645813D-02 -8.6300036952749D-02
   227  2.2600000000000D+00  8.0098025163366D-02 -8.4390895095843D-02
   228  2.2700000000000D+00  7.8295264871906D-02 -8.2290252557508D-02
   229  2.2800000000000D+00  7.6422016921598D-02 -8.0020323047164D-02
   230  2.2900000000000D+00  7.4484202830864D-02 -7.7602780387009D-02
   231  2.3000000000000D+00  7.2487670245031D-02 -7.5058676026993D-02
   232  2.3100000000000D+00  7.0438218872607D-02 -7.2408359853475D-02
   233  2.3200000000000D+00  6.8341620411826D-02 -6.9671411198787D-02
   234  2.3300000000000D+00  6.6203634565652D-02 -6.6866577556869D-02
   235  2.3400000000000D+00  6.4030025505953D-02 -6.4011716665218D-02
   236  2.3500000000000D+00  6.1826567286583D-02 -6.1123753236254D-02
   237  2.3600000000000D+00  5.9599048295526D-02 -5.8218640400218D-02
   238  2.3700000000000D+00  5.7353273203239D-02 -5.5311327443176D-02
   239  2.3800000000000D+00  5.5095054223758D-02 -5.2415741351577D-02
   240  2.3900000000000D+00  5.2830202724827D-02 -4.9544771914630D-02
   241  2.4000000000000D+00  5.0564516230107D-02 -4.6710264914356D-02
   242  2.4100000000000D+00  4.8303758237105D-02 -4.3923025655862D-02
   243  2.4200000000000D+00  4.6053638156061D-02 -4.1192826192995D-02
   244  2.4300000000000D+00  4.3819787114804D-02 -3.8528420047704D-02
   245  2.4400000000000D+00  4.1607730568837D-02 -3.5937563550548D-02
   246  2.4500000000000D+00  3.9422860255698D-02 -3.3427041315722D-02
   247  2.4600000000000D+00  3.7270404883772D-02 -3.1002696588284D-02
   248  2.4700000000000D+00  3.5155400737858D-02 -2.8669465299673D-02
   249  2.4800000000000D+00  3.3082660891092D-02 -2.6431414510841D-02
   250  2.4900000000000D+00  3.1056747272805D-02 -2.4291782119136D-02
   251  2.5000000000000D+00  2.9081944399746D-02 -2.2253018474262D-02
   252  2.5100000000000D+00  2.7162231495553D-02 -2.0316832098553D-02
   253  2.5200000000000D+00  2.5301261130869D-02 -1.8484233467791D-02
   254  2.5300000000000D+00  2.3502340253511D-02 -1.6755579677408D-02
   255  2.5400000000000D+00  2.1768410031777D-02 -1.5130622354106D-02
   256  2.5500000000000D+00  2.0102034062548D-02 -1.3608551845677D-02
   257  2.5600000000000D+00  1.8505389301917D-02 -1.2188041540469D-02
   258  2.5700000000000D+00  1.6980256656381D-02 -1.0867294225652D-02
   259  2.5800000000000D+00  1.5528019564388D-02 -9.6440845709099D-03
   260  2.5900000000000D+00  1.4149665592208D-02 -8.5158009986823D-03
   261  2.6000000000000D+00  1.2845788587465D-02 -7.4794883626915D-03
   262  2.6100000000000D+00  1.1616596843739D-02 -6.5318876772175D-03
   263  2.6200000000000D+00  1.0461924403760D-02 -5.6694746164096D-03
   264  2.6300000000000D+00  9.3812435515204D-03 -4.8884978187844D-03
   265  2.6400000000000D+00  8.3736809062717D-03 -4.1850153525219D-03
   266  2.6500000000000D+00  7.4380361929636D-03 -3.5549297520448D-03
   267  2.6600000000000D+00  6.5728024279718D-03 -2.9940221786775D-03
   268  2.6700000000000D+00  5.7761879630246D-03 -2.4979853203497D-03
   269  2.6800000000000D+00  5.0461398321428D-03 -2.0624552358604D-03
   270  2.6900000000000D+00  4.3803683738785D-03 -1.6830419139175D-03
   271  2.7000000000000D+00  3.7763731656936D-03 -1.3553584207532D-03
   272  2.7100000000000D+00  3.2314680470518D-03 -1.0750497483365D-03
   273  2.7200000000000D+00  2.7428070513139D-03 -8.3782011546980D-04
   274  2.7300000000000D+00  2.3074121450932D-03 -6.3945832531186D-04
   275  2.7400000000000D+00  1.9221973764680D-03 -4.7586349929373D-04
   276  2.7500000000000D+00  1.5839942567129D-03 -3.4306878988318D-04
   277  2.7600000000000D+00  1.2895779425093D-03 -2.3726346602988D-04
   278  2.7700000000000D+00  1.0356900726026D-03 -1.5481450362266D-04
   279  2.7800000000000D+00  8.1906133704442D-04 -9.2286565540056D-05
   280  2.7900000000000D+00  6.3643414534797D-04 -4.6460406471342D-05
   281  2.8000000000000D+00  4.8458334672390D-04 -1.4349902812096D-05
   282  2.8100000000000D+00  3.6033318963549D-04  6.7846929601275D-06
   283  2.8200000000000D+00  2.6057318131928D-04  1.9426420412420D-05
   284  2.8300000000000D+00  1.8229852439073D-04  2.5754029658600D-05
   285  2.8400000000000D+00  1.2259359275599D-04  2.7678519642368D-05
   286  2.8500000000000D+00  7.8614237331220D-05  2.6664465467609D-05
   287  2.8600000000000D+00  4.7724312093133D-05  2.4269293992552D-05
   288  2.8700000000000D+00  2.7402627270324D-05  2.1668447526561D-05
   289  2.8800000000000D+00  1.5377977794355D-05  1.9848605478889D-05
   290  2.8900000000000D+00  9.3814590641816D-06  1.9046163174008D-05
   291  2.9000000000000D+00  6.8822872179244D-06  1.8138866905633D-05
   292  2.9100000000000D+00  5.9420374951496D-06  1.6382001048170D-05
   293  2.9200000000000D+00  4.5002259216029D-06  1.2181990581800D-05
   294  2.9300000000000D+00  2.7589752721025D-06  7.1130841461029D-06
   295  2.9400000000000D+00  9.3341664931466D-07  2.2749937723173D-06
   296  2.9500000000000D+00 -2.8949654352217D-07 -8.3775847587858D-07
   297  2.9600000000000D+00 -5.7423629052729D-07 -1.6424414233645D-06
   298  2.9700000000000D+00 -4.2089994642601D-07 -1.1881245442450D-06
   299  2.9800000000000D+00 -4.4089281615338D-08 -1.2279244711565D-07
   300  2.9900000000000D+00  8.2526615584824D-08  2.9567127774332D-07
   301  3.0000000000000D+00  1.0109536038335D-07  3.6672052936155D-07
   302  3.0100000000000D+00  5.2667731544478D-08  1.9312126384658D-07
   303  3.0200000000000D+00 -5.2250856455066D-09 -1.4364365509342D-08
   304  3.0300000000000D+00 -1.5727637686000D-08 -4.3237097274088D-08
   305  3.0400000000000D+00 -1.4606033056957D-08 -4.0153676265974D-08
   306  3.0500000000000D+00 -4.1263962252787D-09 -1.1343941063865D-08
   307  3.0600000000000D+00  0.0000000000000D+00  0.0000000000000D+00
   308  3.0700000000000D+00  0.0000000000000D+00  0.0000000000000D+00
   309  3.0800000000000D+00  0.0000000000000D+00  0.0000000000000D+00
   310  3.0900000000000D+00  0.0000000000000D+00  0.0000000000000D+00
   311  3.1000000000000D+00  0.0000000000000D+00  0.0000000000000D+00
   312  3.1100000000000D+00  0.0000000000000D+00  0.0000000000000D+00
   313  3.1200000000000D+00  0.0000000000000D+00  0.0000000000000D+00
   314  3.1300000000000D+00  0.0000000000000D+00  0.0000000000000D+00
   315  3.1400000000000D+00  0.0000000000000D+00  0.0000000000000D+00
   316  3.1500000000000D+00  0.0000000000000D+00  0.0000000000000D+00
   317  3.1600000000000D+00  0.0000000000000D+00  0.0000000000000D+00
   318  3.1700000000000D+00  0.0000000000000D+00  0.0000000000000D+00
   319  3.1800000000000D+00  0.0000000000000D+00  0.0000000000000D+00
   320  3.1900000000000D+00  0.0000000000000D+00  0.0000000000000D+00
   321  3.2000000000000D+00  0.0000000000000D+00  0.0000000000000D+00
   322  3.2100000000000D+00  0.0000000000000D+00  0.0000000000000D+00
   323  3.2200000000000D+00  0.0000000000000D+00  0.0000000000000D+00
   324  3.2300000000000D+00  0.0000000000000D+00  0.0000000000000D+00
   325  3.2400000000000D+00  0.0000000000000D+00  0.0000000000000D+00
   326  3.2500000000000D+00  0.0000000000000D+00  0.0000000000000D+00
   327  3.2600000000000D+00  0.0000000000000D+00  0.0000000000000D+00
   328  3.2700000000000D+00  0.0000000000000D+00  0.0000000000000D+00
   329  3.2800000000000D+00  0.0000000000000D+00  0.0000000000000D+00
   330  3.2900000000000D+00  0.0000000000000D+00  0.0000000000000D+00
   331  3.3000000000000D+00  0.0000000000000D+00  0.0000000000000D+00
   332  3.3100000000000D+00  0.0000000000000D+00  0.0000000000000D+00
   333  3.3200000000000D+00  0.0000000000000D+00  0.0000000000000D+00
   334  3.3300000000000D+00  0.0000000000000D+00  0.0000000000000D+00
   335  3.3400000000000D+00  0.0000000000000D+00  0.0000000000000D+00
   336  3.3500000000000D+00  0.0000000000000D+00  0.0000000000000D+00
   337  3.3600000000000D+00  0.0000000000000D+00  0.0000000000000D+00
   338  3.3700000000000D+00  0.0000000000000D+00  0.0000000000000D+00
   339  3.3800000000000D+00  0.0000000000000D+00  0.0000000000000D+00
   340  3.3900000000000D+00  0.0000000000000D+00  0.0000000000000D+00
   341  3.4000000000000D+00  0.0000000000000D+00  0.0000000000000D+00
   342  3.4100000000000D+00  0.0000000000000D+00  0.0000000000000D+00
   343  3.4200000000000D+00  0.0000000000000D+00  0.0000000000000D+00
   344  3.4300000000000D+00  0.0000000000000D+00  0.0000000000000D+00
   345  3.4400000000000D+00  0.0000000000000D+00  0.0000000000000D+00
   346  3.4500000000000D+00  0.0000000000000D+00  0.0000000000000D+00
   347  3.4600000000000D+00  0.0000000000000D+00  0.0000000000000D+00
   348  3.4700000000000D+00  0.0000000000000D+00  0.0000000000000D+00
   349  3.4800000000000D+00  0.0000000000000D+00  0.0000000000000D+00
   350  3.4900000000000D+00  0.0000000000000D+00  0.0000000000000D+00
   351  3.5000000000000D+00  0.0000000000000D+00  0.0000000000000D+00
   352  3.5100000000000D+00  0.0000000000000D+00  0.0000000000000D+00
   353  3.5200000000000D+00  0.0000000000000D+00  0.0000000000000D+00
   354  3.5300000000000D+00  0.0000000000000D+00  0.0000000000000D+00
   355  3.5400000000000D+00  0.0000000000000D+00  0.0000000000000D+00
   356  3.5500000000000D+00  0.0000000000000D+00  0.0000000000000D+00
   357  3.5600000000000D+00  0.0000000000000D+00  0.0000000000000D+00
   358  3.5700000000000D+00  0.0000000000000D+00  0.0000000000000D+00
   359  3.5800000000000D+00  0.0000000000000D+00  0.0000000000000D+00
   360  3.5900000000000D+00  0.0000000000000D+00  0.0000000000000D+00
   361  3.6000000000000D+00  0.0000000000000D+00  0.0000000000000D+00
   362  3.6100000000000D+00  0.0000000000000D+00  0.0000000000000D+00
   363  3.6200000000000D+00  0.0000000000000D+00  0.0000000000000D+00
   364  3.6300000000000D+00  0.0000000000000D+00  0.0000000000000D+00
   365  3.6400000000000D+00  0.0000000000000D+00  0.0000000000000D+00
   366  3.6500000000000D+00  0.0000000000000D+00  0.0000000000000D+00
   367  3.6600000000000D+00  0.0000000000000D+00  0.0000000000000D+00
   368  3.6700000000000D+00  0.0000000000000D+00  0.0000000000000D+00
   369  3.6800000000000D+00  0.0000000000000D+00  0.0000000000000D+00
   370  3.6900000000000D+00  0.0000000000000D+00  0.0000000000000D+00
   371  3.7000000000000D+00  0.0000000000000D+00  0.0000000000000D+00
   372  3.7100000000000D+00  0.0000000000000D+00  0.0000000000000D+00
   373  3.7200000000000D+00  0.0000000000000D+00  0.0000000000000D+00
   374  3.7300000000000D+00  0.0000000000000D+00  0.0000000000000D+00
   375  3.7400000000000D+00  0.0000000000000D+00  0.0000000000000D+00
   376  3.7500000000000D+00  0.0000000000000D+00  0.0000000000000D+00
   377  3.7600000000000D+00  0.0000000000000D+00  0.0000000000000D+00
   378  3.7700000000000D+00  0.0000000000000D+00  0.0000000000000D+00
   379  3.7800000000000D+00  0.0000000000000D+00  0.0000000000000D+00
   380  3.7900000000000D+00  0.0000000000000D+00  0.0000000000000D+00
   381  3.8000000000000D+00  0.0000000000000D+00  0.0000000000000D+00
   382  3.8100000000000D+00  0.0000000000000D+00  0.0000000000000D+00
   383  3.8200000000000D+00  0.0000000000000D+00  0.0000000000000D+00
   384  3.8300000000000D+00  0.0000000000000D+00  0.0000000000000D+00
   385  3.8400000000000D+00  0.0000000000000D+00  0.0000000000000D+00
   386  3.8500000000000D+00  0.0000000000000D+00  0.0000000000000D+00
   387  3.8600000000000D+00  0.0000000000000D+00  0.0000000000000D+00
   388  3.8700000000000D+00  0.0000000000000D+00  0.0000000000000D+00
   389  3.8800000000000D+00  0.0000000000000D+00  0.0000000000000D+00
   390  3.8900000000000D+00  0.0000000000000D+00  0.0000000000000D+00
   391  3.9000000000000D+00  0.0000000000000D+00  0.0000000000000D+00
   392  3.9100000000000D+00  0.0000000000000D+00  0.0000000000000D+00
   393  3.9200000000000D+00  0.0000000000000D+00  0.0000000000000D+00
   394  3.9300000000000D+00  0.0000000000000D+00  0.0000000000000D+00
   395  3.9400000000000D+00  0.0000000000000D+00  0.0000000000000D+00
   396  3.9500000000000D+00  0.0000000000000D+00  0.0000000000000D+00
   397  3.9600000000000D+00  0.0000000000000D+00  0.0000000000000D+00
   398  3.9700000000000D+00  0.0000000000000D+00  0.0000000000000D+00
   399  3.9800000000000D+00  0.0000000000000D+00  0.0000000000000D+00
   400  3.9900000000000D+00  0.0000000000000D+00  0.0000000000000D+00
   401  4.0000000000000D+00  0.0000000000000D+00  0.0000000000000D+00
   402  4.0100000000000D+00  0.0000000000000D+00  0.0000000000000D+00
   403  4.0200000000000D+00  0.0000000000000D+00  0.0000000000000D+00
   404  4.0300000000000D+00  0.0000000000000D+00  0.0000000000000D+00
   405  4.0400000000000D+00  0.0000000000000D+00  0.0000000000000D+00
   406  4.0500000000000D+00  0.0000000000000D+00  0.0000000000000D+00
   407  4.0600000000000D+00  0.0000000000000D+00  0.0000000000000D+00
   408  4.0700000000000D+00  0.0000000000000D+00  0.0000000000000D+00
   409  4.0800000000000D+00  0.0000000000000D+00  0.0000000000000D+00
   410  4.0900000000000D+00  0.0000000000000D+00  0.0000000000000D+00
   411  4.1000000000000D+00  0.0000000000000D+00  0.0000000000000D+00
   412  4.1100000000000D+00  0.0000000000000D+00  0.0000000000000D+00
   413  4.1200000000000D+00  0.0000000000000D+00  0.0000000000000D+00
   414  4.1300000000000D+00  0.0000000000000D+00  0.0000000000000D+00
   415  4.1400000000000D+00  0.0000000000000D+00  0.0000000000000D+00
   416  4.1500000000000D+00  0.0000000000000D+00  0.0000000000000D+00
   417  4.1600000000000D+00  0.0000000000000D+00  0.0000000000000D+00
   418  4.1700000000000D+00  0.0000000000000D+00  0.0000000000000D+00
   419  4.1800000000000D+00  0.0000000000000D+00  0.0000000000000D+00
   420  4.1900000000000D+00  0.0000000000000D+00  0.0000000000000D+00
   421  4.2000000000000D+00  0.0000000000000D+00  0.0000000000000D+00
   422  4.2100000000000D+00  0.0000000000000D+00  0.0000000000000D+00