Se    ONCVPSP-3.3.1  r_core=   2.63348   2.72943   3.38315
     34.0000      6.0000      210905    zatom,zion,pspd
     8 -116133   2     4   600     0    pspcod,pspxc,lmax,lloc,mmax,r2well
  5.99000000  0.00000000  0.00000000    rchrg fchrg qchrg
     2     3     3     0    nproj
     3     1           extension_switch
     4     4     0    nprojso
   0                         3.8927909115949D-01  6.1992911606037D+00
     1  0.0000000000000D+00 -1.3245071706081D-11  5.8275051451062D-12
     2  1.0000000000000D-02 -1.5893768087013D-02  3.1326270679009D-02
     3  2.0000000000000D-02 -3.1779034463832D-02  6.2642119908317D-02
     4  3.0000000000000D-02 -4.7647196505960D-02  9.3937075218276D-02
     5  4.0000000000000D-02 -6.3489450437472D-02  1.2520056241579D-01
     6  5.0000000000000D-02 -7.9296692444890D-02  1.5642185551222D-01
     7  6.0000000000000D-02 -9.5059421809257D-02  1.8759002759475D-01
     8  7.0000000000000D-02 -1.1076764671365D-01  2.1869390294881D-01
     9  8.0000000000000D-02 -1.2641079337017D-01  2.4972201073349D-01
    10  9.0000000000000D-02 -1.4197761909408D-01  2.8066254050441D-01
    11  1.0000000000000D-01 -1.5745612993336D-01  3.1150329987014D-01
    12  1.1000000000000D-01 -1.7283350343917D-01  3.4223167455821D-01
    13  1.2000000000000D-01 -1.8809601713782D-01  3.7283459115560D-01
    14  1.3000000000000D-01 -2.0322898323587D-01  4.0329848277589D-01
    15  1.4000000000000D-01 -2.1821669005982D-01  4.3360925789209D-01
    16  1.5000000000000D-01 -2.3304235069782D-01  4.6375227255875D-01
    17  1.6000000000000D-01 -2.4768805927539D-01  4.9371230623164D-01
    18  1.7000000000000D-01 -2.6213475525891D-01  5.2347354137626D-01
    19  1.8000000000000D-01 -2.7636219614035D-01  5.5301954703844D-01
    20  1.9000000000000D-01 -2.9034893881521D-01  5.8233326653229D-01
    21  2.0000000000000D-01 -3.0407232992153D-01  6.1139700938076D-01
    22  2.1000000000000D-01 -3.1750850536284D-01  6.4019244762453D-01
    23  2.2000000000000D-01 -3.3063239919162D-01  6.6870061659414D-01
    24  2.3000000000000D-01 -3.4341776198207D-01  6.9690192021930D-01
    25  2.4000000000000D-01 -3.5583718877311D-01  7.2477614092767D-01
    26  2.5000000000000D-01 -3.6786215661294D-01  7.5230245416386D-01
    27  2.6000000000000D-01 -3.7946307168775D-01  7.7945944753722D-01
    28  2.7000000000000D-01 -3.9060932596712D-01  8.0622514458499D-01
    29  2.8000000000000D-01 -4.0126936324948D-01  8.3257703311531D-01
    30  2.9000000000000D-01 -4.1141075444142D-01  8.5849209807236D-01
    31  3.0000000000000D-01 -4.2100028185620D-01  8.8394685884454D-01
    32  3.1000000000000D-01 -4.3000403226851D-01  9.0891741091443D-01
    33  3.2000000000000D-01 -4.3838749841555D-01  9.3337947172861D-01
    34  3.3000000000000D-01 -4.4611568858849D-01  9.5730843064456D-01
    35  3.4000000000000D-01 -4.5315324391388D-01  9.8067940279148D-01
    36  3.5000000000000D-01 -4.5946456288109D-01  1.0034672866629D+00
    37  3.6000000000000D-01 -4.6501393263140D-01  1.0256468252394D+00
    38  3.7000000000000D-01 -4.6976566648420D-01  1.0471926704233D+00
    39  3.8000000000000D-01 -4.7368424713910D-01  1.0680794505475D+00
    40  3.9000000000000D-01 -4.7673447495760D-01  1.0882818407079D+00
    41  4.0000000000000D-01 -4.7888162069591D-01  1.1077746356515D+00
    42  4.1000000000000D-01 -4.8009158203020D-01  1.1265328249383D+00
    43  4.2000000000000D-01 -4.8033104318914D-01  1.1445316700844D+00
    44  4.3000000000000D-01 -4.7956763698406D-01  1.1617467833796D+00
    45  4.4000000000000D-01 -4.7777010850620D-01  1.1781542080652D+00
    46  4.5000000000000D-01 -4.7490847974249D-01  1.1937304995454D+00
    47  4.6000000000000D-01 -4.7095421434659D-01  1.2084528073028D+00
    48  4.7000000000000D-01 -4.6588038179022D-01  1.2222989571769D+00
    49  4.8000000000000D-01 -4.5966182011226D-01  1.2352475336649D+00
    50  4.9000000000000D-01 -4.5227529647767D-01  1.2472779618971D+00
    51  5.0000000000000D-01 -4.4369966475772D-01  1.2583705889392D+00
    52  5.1000000000000D-01 -4.3391601934464D-01  1.2685067640727D+00
    53  5.2000000000000D-01 -4.2290784442002D-01  1.2776689177067D+00
    54  5.3000000000000D-01 -4.1066115790488D-01  1.2858406385757D+00
    55  5.4000000000000D-01 -3.9716464933222D-01  1.2930067488825D+00
    56  5.5000000000000D-01 -3.8240981089898D-01  1.2991533770517D+00
    57  5.6000000000000D-01 -3.6639106097308D-01  1.3042680277646D+00
    58  5.7000000000000D-01 -3.4910585935447D-01  1.3083396489562D+00
    59  5.8000000000000D-01 -3.3055481361458D-01  1.3113586954630D+00
    60  5.9000000000000D-01 -3.1074177586729D-01  1.3133171890235D+00
    61  6.0000000000000D-01 -2.8967392935718D-01  1.3142087743429D+00
    62  6.1000000000000D-01 -2.6736186428478D-01  1.3140287709494D+00
    63  6.2000000000000D-01 -2.4381964232669D-01  1.3127742205826D+00
    64  6.3000000000000D-01 -2.1906484934864D-01  1.3104439298710D+00
    65  6.4000000000000D-01 -1.9311863585198D-01  1.3070385080719D+00
    66  6.5000000000000D-01 -1.6600574473941D-01  1.3025603996657D+00
    67  6.6000000000000D-01 -1.3775452603264D-01  1.2970139116144D+00
    68  6.7000000000000D-01 -1.0839693822412D-01  1.2904052351136D+00
    69  6.8000000000000D-01 -7.7968535995787D-02  1.2827424616890D+00
    70  6.9000000000000D-01 -4.6508444090163D-02  1.2740355935066D+00
    71  7.0000000000000D-01 -1.4059317173371D-02  1.2642965477914D+00
    72  7.1000000000000D-01  1.9332714415464D-02  1.2535391552664D+00
    73  7.2000000000000D-01  5.3618113077724D-02  1.2417791525518D+00
    74  7.3000000000000D-01  8.8744016523952D-02  1.2290341684813D+00
    75  7.4000000000000D-01  1.2465433443275D-01  1.2153237043201D+00
    76  7.5000000000000D-01  1.6128985907678D-01  1.2006691078905D+00
    77  7.6000000000000D-01  1.9858838973483D-01  1.1850935416327D+00
    78  7.7000000000000D-01  2.3648487065097D-01  1.1686219446552D+00
    79  7.8000000000000D-01  2.7491154224433D-01  1.1512809888481D+00
    80  7.9000000000000D-01  3.1379810521544D-01  1.1330990291593D+00
    81  8.0000000000000D-01  3.5307189713869D-01  1.1141060481528D+00
    82  8.1000000000000D-01  3.9265808107557D-01  1.0943335949928D+00
    83  8.2000000000000D-01  4.3247984568709D-01  1.0738147190176D+00
    84  8.3000000000000D-01  4.7245861627311D-01  1.0525838980892D+00
    85  8.4000000000000D-01  5.1251427611160D-01  1.0306769619241D+00
    86  8.5000000000000D-01  5.5256539742361D-01  1.0081310106321D+00
    87  8.6000000000000D-01  5.9252948123905D-01  9.8498432870582D-01
    88  8.7000000000000D-01  6.3232320539382D-01  9.6127629472673D-01
    89  8.8000000000000D-01  6.7186267984386D-01  9.3704728706478D-01
    90  8.9000000000000D-01  7.1106370843951D-01  9.1233858586999D-01
    91  9.0000000000000D-01  7.4984205626571D-01  8.8719227166661D-01
    92  9.1000000000000D-01  7.8811372161435D-01  8.6165112087562D-01
    93  9.2000000000000D-01  8.2579521162308D-01  8.3575849860438D-01
    94  9.3000000000000D-01  8.6280382058255D-01  8.0955824905368D-01
    95  9.4000000000000D-01  8.9905790988502D-01  7.8309458390336D-01
    96  9.5000000000000D-01  9.3447718856262D-01  7.5641196904714D-01
    97  9.6000000000000D-01  9.6898299334065D-01  7.2955501005494D-01
    98  9.7000000000000D-01  1.0024985671115D+00  7.0256833674852D-01
    99  9.8000000000000D-01  1.0349493347190D+00  6.7549648728119D-01
   100  9.9000000000000D-01  1.0662631749290D+00  6.4838379211699D-01
   101  1.0000000000000D+00  1.0963706874531D+00  6.2127425830752D-01
   102  1.0100000000000D+00  1.1252054538847D+00  5.9421145446610D-01
   103  1.0200000000000D+00  1.1527042914035D+00  5.6723839683963D-01
   104  1.0300000000000D+00  1.1788074981027D+00  5.4039743687707D-01
   105  1.0400000000000D+00  1.2034590887995D+00  5.1373015069167D-01
   106  1.0500000000000D+00  1.2266070201895D+00  4.8727723081012D-01
   107  1.0600000000000D+00  1.2482034042212D+00  4.6107838059743D-01
   108  1.0700000000000D+00  1.2682047085732D+00  4.3517221174000D-01
   109  1.0800000000000D+00  1.2865719431336D+00  4.0959614516301D-01
   110  1.0900000000000D+00  1.3032708314004D+00  3.8438631574884D-01
   111  1.1000000000000D+00  1.3182719657387D+00  3.5957748121520D-01
   112  1.1100000000000D+00  1.3315509454580D+00  3.3520293549973D-01
   113  1.1200000000000D+00  1.3430884966934D+00  3.1129442698859D-01
   114  1.1300000000000D+00  1.3528705731072D+00  2.8788208191249D-01
   115  1.1400000000000D+00  1.3608884364551D+00  2.6499433322133D-01
   116  1.1500000000000D+00  1.3671387160980D+00  2.4265785523322D-01
   117  1.1600000000000D+00  1.3716234465678D+00  2.2089750434231D-01
   118  1.1700000000000D+00  1.3743500823391D+00  1.9973626605096D-01
   119  1.1800000000000D+00  1.3753314889935D+00  1.7919520857730D-01
   120  1.1900000000000D+00  1.3745859100126D+00  1.5929344327037D-01
   121  1.2000000000000D+00  1.3721369084543D+00  1.4004809205505D-01
   122  1.2100000000000D+00  1.3680132828384D+00  1.2147426210181D-01
   123  1.2200000000000D+00  1.3622489565989D+00  1.0358502790298D-01
   124  1.2300000000000D+00  1.3548828404978D+00  8.6391420922500D-02
   125  1.2400000000000D+00  1.3459586674508D+00  6.9902426963138D-02
   126  1.2500000000000D+00  1.3355247992714D+00  5.4124991375121D-02
   127  1.2600000000000D+00  1.3236340048664D+00  3.9064032217079D-02
   128  1.2700000000000D+00  1.3103432094700D+00  2.4722461461442D-02
   129  1.2800000000000D+00  1.2957132145737D+00  1.1101214308632D-02
   130  1.2900000000000D+00  1.2798083882284D+00 -1.8007133329432D-03
   131  1.3000000000000D+00  1.2626963254446D+00 -1.3986219162878D-02
   132  1.3100000000000D+00  1.2444474785047D+00 -2.5460040594133D-02
   133  1.3200000000000D+00  1.2251347569945D+00 -3.6228692640490D-02
   134  1.3300000000000D+00  1.2048330974337D+00 -4.6300397603596D-02
   135  1.3400000000000D+00  1.1836190024633D+00 -5.5685006606236D-02
   136  1.3500000000000D+00  1.1615700495212D+00 -6.4393913008124D-02
   137  1.3600000000000D+00  1.1387643690465D+00 -7.2439957779761D-02
   138  1.3700000000000D+00  1.1152800922994D+00 -7.9837326924634D-02
   139  1.3800000000000D+00  1.0911947688404D+00 -8.6601441026020D-02
   140  1.3900000000000D+00  1.0665847538890D+00 -9.2748837053744D-02
   141  1.4000000000000D+00  1.0415245657139D+00 -9.8297042542091D-02
   142  1.4100000000000D+00  1.0160862132746D+00 -1.0326444227438D-01
   143  1.4200000000000D+00  9.9033848986207D-01 -1.0767013737635D-01
   144  1.4300000000000D+00  9.6434626010418D-01 -1.1153379852217D-01
   145  1.4400000000000D+00  9.3816962851924D-01 -1.1487550644280D-01
   146  1.4500000000000D+00  9.1186339537785D-01 -1.1771560691086D-01
   147  1.4600000000000D+00  8.8547602631344D-01 -1.2007452503525D-01
   148  1.4700000000000D+00  8.5904794349314D-01 -1.2197254670671D-01
   149  1.4800000000000D+00  8.3261394604846D-01 -1.2342982032963D-01
   150  1.4900000000000D+00  8.0620533964170D-01 -1.2446636316002D-01
   151  1.5000000000000D+00  7.7985275701555D-01 -1.2510217887272D-01
   152  1.5100000000000D+00  7.5358754387301D-01 -1.2535729505819D-01
   153  1.5200000000000D+00  7.2744063096089D-01 -1.2525167854955D-01
   154  1.5300000000000D+00  7.0144254161622D-01 -1.2480520611192D-01
   155  1.5400000000000D+00  6.7562327960249D-01 -1.2403762604979D-01
   156  1.5500000000000D+00  6.5001219507677D-01 -1.2296852023449D-01
   157  1.5600000000000D+00  6.2463786884767D-01 -1.2161726663408D-01
   158  1.5700000000000D+00  5.9952800820397D-01 -1.2000300300472D-01
   159  1.5800000000000D+00  5.7470935770631D-01 -1.1814459189020D-01
   160  1.5900000000000D+00  5.5020762323416D-01 -1.1606058735644D-01
   161  1.6000000000000D+00  5.2604740761084D-01 -1.1376920335938D-01
   162  1.6100000000000D+00  5.0225215733635D-01 -1.1128828405451D-01
   163  1.6200000000000D+00  4.7884411921031D-01 -1.0863527599837D-01
   164  1.6300000000000D+00  4.5584430607460D-01 -1.0582720238300D-01
   165  1.6400000000000D+00  4.3327247065733D-01 -1.0288063928353D-01
   166  1.6500000000000D+00  4.1114708680573D-01 -9.9811693954202D-02
   167  1.6600000000000D+00  3.8948533717464D-01 -9.6635985160792D-02
   168  1.6700000000000D+00  3.6830310684542D-01 -9.3368625527172D-02
   169  1.6800000000000D+00  3.4761498201466D-01 -9.0024205877672D-02
   170  1.6900000000000D+00  3.2743425340964D-01 -8.6616781526538D-02
   171  1.7000000000000D+00  3.0777292367368D-01 -8.3159860483774D-02
   172  1.7100000000000D+00  2.8864171849799D-01 -7.9666393519375D-02
   173  1.7200000000000D+00  2.7005010088612D-01 -7.6148766042776D-02
   174  1.7300000000000D+00  2.5200628837617D-01 -7.2618791737735D-02
   175  1.7400000000000D+00  2.3451727277212D-01 -6.9087707899740D-02
   176  1.7500000000000D+00  2.1758884220415D-01 -6.5566172416615D-02
   177  1.7600000000000D+00  2.0122560523627D-01 -6.2064262333155D-02
   178  1.7700000000000D+00  1.8543101680708D-01 -5.8591473941015D-02
   179  1.7800000000000D+00  1.7020740586766D-01 -5.5156724330875D-02
   180  1.7900000000000D+00  1.5555600446450D-01 -5.1768354348496D-02
   181  1.8000000000000D+00  1.4147697824105D-01 -4.8434132889248D-02
   182  1.8100000000000D+00  1.2796945808053D-01 -4.5161262472879D-02
   183  1.8200000000000D+00  1.1503157293209D-01 -4.1956386031800D-02
   184  1.8300000000000D+00  1.0266048354004D-01 -3.8825594854262D-02
   185  1.8400000000000D+00  9.0852417144517D-02 -3.5774437615841D-02
   186  1.8500000000000D+00  7.9602702896723D-02 -3.2807930438530D-02
   187  1.8600000000000D+00  6.8905808038316D-02 -2.9930567913725D-02
   188  1.8700000000000D+00  5.8755374648765D-02 -2.7146335024146D-02
   189  1.8800000000000D+00  4.9144256954357D-02 -2.4458719905522D-02
   190  1.8900000000000D+00  4.0064559070875D-02 -2.1870727379769D-02
   191  1.9000000000000D+00  3.1507673124284D-02 -1.9384893202103D-02
   192  1.9100000000000D+00  2.3464317669174D-02 -1.7003298956979D-02
   193  1.9200000000000D+00  1.5924576317556D-02 -1.4727587538540D-02
   194  1.9300000000000D+00  8.8779365303948D-03 -1.2558979165055D-02
   195  1.9400000000000D+00  2.3133284602006D-03 -1.0498287845397D-02
   196  1.9500000000000D+00 -3.7808361767446D-03 -8.5459382696531D-03
   197  1.9600000000000D+00 -9.4166253240262D-03 -6.7019830263207D-03
   198  1.9700000000000D+00 -1.4606547921632D-02 -4.9661201261162D-03
   199  1.9800000000000D+00 -1.9363515458629D-02 -3.3377107483419D-03
   200  1.9900000000000D+00 -2.3700803796776D-02 -1.8157971626308D-03
   201  2.0000000000000D+00 -2.7632015304533D-02 -3.9912079062398D-04
   202  2.0100000000000D+00 -3.1171041425374D-02  9.1385969249587D-04
   203  2.0200000000000D+00 -3.4332025645090D-02  2.1249501952922D-03
   204  2.0300000000000D+00 -3.7129327023221D-02  3.2362031167526D-03
   205  2.0400000000000D+00 -3.9577484251205D-02  4.2498993005607D-03
   206  2.0500000000000D+00 -4.1691180333715D-02  5.1685301149839D-03
   207  2.0600000000000D+00 -4.3485207970462D-02  5.9947797220936D-03
   208  2.0700000000000D+00 -4.4974435574194D-02  6.7315074964042D-03
   209  2.0800000000000D+00 -4.6173774142245D-02  7.3817307582815D-03
   210  2.0900000000000D+00 -4.7098144837440D-02  7.9486077270549D-03
   211  2.1000000000000D+00 -4.7762447444007D-02  8.4354208170782D-03
   212  2.1100000000000D+00 -4.8181529707276D-02  8.8455602954953D-03
   213  2.1200000000000D+00 -4.8370157537483D-02  9.1825082638562D-03
   214  2.1300000000000D+00 -4.8342986172779D-02  9.4498231148263D-03
   215  2.1400000000000D+00 -4.8114532132991D-02  9.6511243369302D-03
   216  2.1500000000000D+00 -4.7699146324247D-02  9.7900778209629D-03
   217  2.1600000000000D+00 -4.7110988179365D-02  9.8703816633248D-03
   218  2.1700000000000D+00 -4.6364000991410D-02  9.8957524222968D-03
   219  2.1800000000000D+00 -4.5471887647978D-02  9.8699118720993D-03
   220  2.1900000000000D+00 -4.4448087600098D-02  9.7965742451123D-03
   221  2.2000000000000D+00 -4.3305754845813D-02  9.6794340103879D-03
   222  2.2100000000000D+00 -4.2057737259247D-02  9.5221542682371D-03
   223  2.2200000000000D+00 -4.0716556325503D-02  9.3283555324584D-03
   224  2.2300000000000D+00 -3.9294388716850D-02  9.1016052380569D-03
   225  2.2400000000000D+00 -3.7803048642850D-02  8.8454077391882D-03
   226  2.2500000000000D+00 -3.6253971641376D-02  8.5631948844660D-03
   227  2.2600000000000D+00 -3.4658198045437D-02  8.2583170126281D-03
   228  2.2700000000000D+00 -3.3026357903640D-02  7.9340344995601D-03
   229  2.2800000000000D+00 -3.1368656933947D-02  7.5935098692431D-03
   230  2.2900000000000D+00 -2.9694863811790D-02  7.2398005121130D-03
   231  2.3000000000000D+00 -2.8014297878397D-02  6.8758517957210D-03
   232  2.3100000000000D+00 -2.6335818171501D-02  6.5044907935309D-03
   233  2.3200000000000D+00 -2.4667813163349D-02  6.1284204731176D-03
   234  2.3300000000000D+00 -2.3018191714676D-02  5.7502143839558D-03
   235  2.3400000000000D+00 -2.1394374066879D-02  5.3723117534393D-03
   236  2.3500000000000D+00 -1.9803283990492D-02  4.9970130510422D-03
   237  2.3600000000000D+00 -1.8251341508877D-02  4.6264759571061D-03
   238  2.3700000000000D+00 -1.6744456704804D-02  4.2627118278955D-03
   239  2.3800000000000D+00 -1.5288024012907D-02  3.9075825017911D-03
   240  2.3900000000000D+00 -1.3886917203044D-02  3.5627974962334D-03
   241  2.4000000000000D+00 -1.2545484950645D-02  3.2299115670374D-03
   242  2.4100000000000D+00 -1.1267547034697D-02  2.9103225996794D-03
   243  2.4200000000000D+00 -1.0056391090450D-02  2.6052698248817D-03
   244  2.4300000000000D+00 -8.9147698869992D-03  2.3158323321792D-03
   245  2.4400000000000D+00 -7.8448991251938D-03  2.0429278690975D-03
   246  2.4500000000000D+00 -6.8484556678728D-03  1.7873118883686D-03
   247  2.4600000000000D+00 -5.9265762045942D-03  1.5495768331349D-03
   248  2.4700000000000D+00 -5.0798563702239D-03  1.3301516673119D-03
   249  2.4800000000000D+00 -4.3083501662964D-03  1.1293015700304D-03
   250  2.4900000000000D+00 -3.6115697434168D-03  9.4712781950642D-04
   251  2.5000000000000D+00 -2.9884855745948D-03  7.8356788336891D-04
   252  2.5100000000000D+00 -2.4375268036138D-03  6.3839558847367D-04
   253  2.5200000000000D+00 -1.9565818971428D-03  5.1122144193395D-04
   254  2.5300000000000D+00 -1.5429996321459D-03  4.0149312370731D-04
   255  2.5400000000000D+00 -1.1935901451892D-03  3.0849598140722D-04
   256  2.5500000000000D+00 -9.0478200038809D-04  2.3137537070750D-04
   257  2.5600000000000D+00 -6.7204131075495D-04  1.6905617142631D-04
   258  2.5700000000000D+00 -4.9048515014189D-04  1.2032882272104D-04
   259  2.5800000000000D+00 -3.5321656352700D-04  8.3541510158592D-05
   260  2.5900000000000D+00 -2.5733347678248D-04  5.7716584109262D-05
   261  2.6000000000000D+00 -1.9786772742056D-04  4.1430408801655D-05
   262  2.6100000000000D+00 -1.7266394971056D-04  3.3786681020681D-05
   263  2.6200000000000D+00 -1.6341037248934D-04  3.0716347335839D-05
   264  2.6300000000000D+00 -1.5233897250149D-04  2.8278610140409D-05
   265  2.6400000000000D+00 -1.1943388496872D-04  2.2137348041696D-05
   266  2.6500000000000D+00 -7.0150240880924D-05  1.3020979511752D-05
   267  2.6600000000000D+00 -2.0798235826153D-05  3.8721354141703D-06
   268  2.6700000000000D+00  9.3539688484488D-06 -1.7204489497139D-06
   269  2.6800000000000D+00  1.5119928977443D-05 -2.7807741536675D-06
   270  2.6900000000000D+00  8.1200022469293D-06 -1.4936546573037D-06
   271  2.7000000000000D+00 -1.1630867828819D-06  2.1227467433513D-07
   272  2.7100000000000D+00 -3.3054409231324D-06  6.0276396883319D-07
   273  2.7200000000000D+00 -2.4709930706486D-06  4.5027706577250D-07
   274  2.7300000000000D+00  2.7132919751080D-08 -5.0352079003682D-09
   275  2.7400000000000D+00  3.6863510043933D-07 -6.8409680458781D-08
   276  2.7500000000000D+00  3.6781428100598D-07 -6.8257356398801D-08
   277  2.7600000000000D+00  8.0810315138337D-08 -1.4996422830595D-08
   278  2.7700000000000D+00  0.0000000000000D+00  0.0000000000000D+00
   279  2.7800000000000D+00  0.0000000000000D+00  0.0000000000000D+00
   280  2.7900000000000D+00  0.0000000000000D+00  0.0000000000000D+00
   281  2.8000000000000D+00  0.0000000000000D+00  0.0000000000000D+00
   282  2.8100000000000D+00  0.0000000000000D+00  0.0000000000000D+00
   283  2.8200000000000D+00  0.0000000000000D+00  0.0000000000000D+00
   284  2.8300000000000D+00  0.0000000000000D+00  0.0000000000000D+00
   285  2.8400000000000D+00  0.0000000000000D+00  0.0000000000000D+00
   286  2.8500000000000D+00  0.0000000000000D+00  0.0000000000000D+00
   287  2.8600000000000D+00  0.0000000000000D+00  0.0000000000000D+00
   288  2.8700000000000D+00  0.0000000000000D+00  0.0000000000000D+00
   289  2.8800000000000D+00  0.0000000000000D+00  0.0000000000000D+00
   290  2.8900000000000D+00  0.0000000000000D+00  0.0000000000000D+00
   291  2.9000000000000D+00  0.0000000000000D+00  0.0000000000000D+00
   292  2.9100000000000D+00  0.0000000000000D+00  0.0000000000000D+00
   293  2.9200000000000D+00  0.0000000000000D+00  0.0000000000000D+00
   294  2.9300000000000D+00  0.0000000000000D+00  0.0000000000000D+00
   295  2.9400000000000D+00  0.0000000000000D+00  0.0000000000000D+00
   296  2.9500000000000D+00  0.0000000000000D+00  0.0000000000000D+00
   297  2.9600000000000D+00  0.0000000000000D+00  0.0000000000000D+00
   298  2.9700000000000D+00  0.0000000000000D+00  0.0000000000000D+00
   299  2.9800000000000D+00  0.0000000000000D+00  0.0000000000000D+00
   300  2.9900000000000D+00  0.0000000000000D+00  0.0000000000000D+00
   301  3.0000000000000D+00  0.0000000000000D+00  0.0000000000000D+00
   302  3.0100000000000D+00  0.0000000000000D+00  0.0000000000000D+00
   303  3.0200000000000D+00  0.0000000000000D+00  0.0000000000000D+00
   304  3.0300000000000D+00  0.0000000000000D+00  0.0000000000000D+00
   305  3.0400000000000D+00  0.0000000000000D+00  0.0000000000000D+00
   306  3.0500000000000D+00  0.0000000000000D+00  0.0000000000000D+00
   307  3.0600000000000D+00  0.0000000000000D+00  0.0000000000000D+00
   308  3.0700000000000D+00  0.0000000000000D+00  0.0000000000000D+00
   309  3.0800000000000D+00  0.0000000000000D+00  0.0000000000000D+00
   310  3.0900000000000D+00  0.0000000000000D+00  0.0000000000000D+00
   311  3.1000000000000D+00  0.0000000000000D+00  0.0000000000000D+00
   312  3.1100000000000D+00  0.0000000000000D+00  0.0000000000000D+00
   313  3.1200000000000D+00  0.0000000000000D+00  0.0000000000000D+00
   314  3.1300000000000D+00  0.0000000000000D+00  0.0000000000000D+00
   315  3.1400000000000D+00  0.0000000000000D+00  0.0000000000000D+00
   316  3.1500000000000D+00  0.0000000000000D+00  0.0000000000000D+00
   317  3.1600000000000D+00  0.0000000000000D+00  0.0000000000000D+00
   318  3.1700000000000D+00  0.0000000000000D+00  0.0000000000000D+00
   319  3.1800000000000D+00  0.0000000000000D+00  0.0000000000000D+00
   320  3.1900000000000D+00  0.0000000000000D+00  0.0000000000000D+00
   321  3.2000000000000D+00  0.0000000000000D+00  0.0000000000000D+00
   322  3.2100000000000D+00  0.0000000000000D+00  0.0000000000000D+00
   323  3.2200000000000D+00  0.0000000000000D+00  0.0000000000000D+00
   324  3.2300000000000D+00  0.0000000000000D+00  0.0000000000000D+00
   325  3.2400000000000D+00  0.0000000000000D+00  0.0000000000000D+00
   326  3.2500000000000D+00  0.0000000000000D+00  0.0000000000000D+00
   327  3.2600000000000D+00  0.0000000000000D+00  0.0000000000000D+00
   328  3.2700000000000D+00  0.0000000000000D+00  0.0000000000000D+00
   329  3.2800000000000D+00  0.0000000000000D+00  0.0000000000000D+00
   330  3.2900000000000D+00  0.0000000000000D+00  0.0000000000000D+00
   331  3.3000000000000D+00  0.0000000000000D+00  0.0000000000000D+00
   332  3.3100000000000D+00  0.0000000000000D+00  0.0000000000000D+00
   333  3.3200000000000D+00  0.0000000000000D+00  0.0000000000000D+00
   334  3.3300000000000D+00  0.0000000000000D+00  0.0000000000000D+00
   335  3.3400000000000D+00  0.0000000000000D+00  0.0000000000000D+00
   336  3.3500000000000D+00  0.0000000000000D+00  0.0000000000000D+00
   337  3.3600000000000D+00  0.0000000000000D+00  0.0000000000000D+00
   338  3.3700000000000D+00  0.0000000000000D+00  0.0000000000000D+00
   339  3.3800000000000D+00  0.0000000000000D+00  0.0000000000000D+00
   340  3.3900000000000D+00  0.0000000000000D+00  0.0000000000000D+00
   341  3.4000000000000D+00  0.0000000000000D+00  0.0000000000000D+00
   342  3.4100000000000D+00  0.0000000000000D+00  0.0000000000000D+00
   343  3.4200000000000D+00  0.0000000000000D+00  0.0000000000000D+00
   344  3.4300000000000D+00  0.0000000000000D+00  0.0000000000000D+00
   345  3.4400000000000D+00  0.0000000000000D+00  0.0000000000000D+00
   346  3.4500000000000D+00  0.0000000000000D+00  0.0000000000000D+00
   347  3.4600000000000D+00  0.0000000000000D+00  0.0000000000000D+00
   348  3.4700000000000D+00  0.0000000000000D+00  0.0000000000000D+00
   349  3.4800000000000D+00  0.0000000000000D+00  0.0000000000000D+00
   350  3.4900000000000D+00  0.0000000000000D+00  0.0000000000000D+00
   351  3.5000000000000D+00  0.0000000000000D+00  0.0000000000000D+00
   352  3.5100000000000D+00  0.0000000000000D+00  0.0000000000000D+00
   353  3.5200000000000D+00  0.0000000000000D+00  0.0000000000000D+00
   354  3.5300000000000D+00  0.0000000000000D+00  0.0000000000000D+00
   355  3.5400000000000D+00  0.0000000000000D+00  0.0000000000000D+00
   356  3.5500000000000D+00  0.0000000000000D+00  0.0000000000000D+00
   357  3.5600000000000D+00  0.0000000000000D+00  0.0000000000000D+00
   358  3.5700000000000D+00  0.0000000000000D+00  0.0000000000000D+00
   359  3.5800000000000D+00  0.0000000000000D+00  0.0000000000000D+00
   360  3.5900000000000D+00  0.0000000000000D+00  0.0000000000000D+00
   361  3.6000000000000D+00  0.0000000000000D+00  0.0000000000000D+00
   362  3.6100000000000D+00  0.0000000000000D+00  0.0000000000000D+00
   363  3.6200000000000D+00  0.0000000000000D+00  0.0000000000000D+00
   364  3.6300000000000D+00  0.0000000000000D+00  0.0000000000000D+00
   365  3.6400000000000D+00  0.0000000000000D+00  0.0000000000000D+00
   366  3.6500000000000D+00  0.0000000000000D+00  0.0000000000000D+00
   367  3.6600000000000D+00  0.0000000000000D+00  0.0000000000000D+00
   368  3.6700000000000D+00  0.0000000000000D+00  0.0000000000000D+00
   369  3.6800000000000D+00  0.0000000000000D+00  0.0000000000000D+00
   370  3.6900000000000D+00  0.0000000000000D+00  0.0000000000000D+00
   371  3.7000000000000D+00  0.0000000000000D+00  0.0000000000000D+00
   372  3.7100000000000D+00  0.0000000000000D+00  0.0000000000000D+00
   373  3.7200000000000D+00  0.0000000000000D+00  0.0000000000000D+00
   374  3.7300000000000D+00  0.0000000000000D+00  0.0000000000000D+00
   375  3.7400000000000D+00  0.0000000000000D+00  0.0000000000000D+00
   376  3.7500000000000D+00  0.0000000000000D+00  0.0000000000000D+00
   377  3.7600000000000D+00  0.0000000000000D+00  0.0000000000000D+00
   378  3.7700000000000D+00  0.0000000000000D+00  0.0000000000000D+00
   379  3.7800000000000D+00  0.0000000000000D+00  0.0000000000000D+00
   380  3.7900000000000D+00  0.0000000000000D+00  0.0000000000000D+00
   381  3.8000000000000D+00  0.0000000000000D+00  0.0000000000000D+00
   382  3.8100000000000D+00  0.0000000000000D+00  0.0000000000000D+00
   383  3.8200000000000D+00  0.0000000000000D+00  0.0000000000000D+00
   384  3.8300000000000D+00  0.0000000000000D+00  0.0000000000000D+00
   385  3.8400000000000D+00  0.0000000000000D+00  0.0000000000000D+00
   386  3.8500000000000D+00  0.0000000000000D+00  0.0000000000000D+00
   387  3.8600000000000D+00  0.0000000000000D+00  0.0000000000000D+00
   388  3.8700000000000D+00  0.0000000000000D+00  0.0000000000000D+00
   389  3.8800000000000D+00  0.0000000000000D+00  0.0000000000000D+00
   390  3.8900000000000D+00  0.0000000000000D+00  0.0000000000000D+00
   391  3.9000000000000D+00  0.0000000000000D+00  0.0000000000000D+00
   392  3.9100000000000D+00  0.0000000000000D+00  0.0000000000000D+00
   393  3.9200000000000D+00  0.0000000000000D+00  0.0000000000000D+00
   394  3.9300000000000D+00  0.0000000000000D+00  0.0000000000000D+00
   395  3.9400000000000D+00  0.0000000000000D+00  0.0000000000000D+00
   396  3.9500000000000D+00  0.0000000000000D+00  0.0000000000000D+00
   397  3.9600000000000D+00  0.0000000000000D+00  0.0000000000000D+00
   398  3.9700000000000D+00  0.0000000000000D+00  0.0000000000000D+00
   399  3.9800000000000D+00  0.0000000000000D+00  0.0000000000000D+00
   400  3.9900000000000D+00  0.0000000000000D+00  0.0000000000000D+00
   401  4.0000000000000D+00  0.0000000000000D+00  0.0000000000000D+00
   402  4.0100000000000D+00  0.0000000000000D+00  0.0000000000000D+00
   403  4.0200000000000D+00  0.0000000000000D+00  0.0000000000000D+00
   404  4.0300000000000D+00  0.0000000000000D+00  0.0000000000000D+00
   405  4.0400000000000D+00  0.0000000000000D+00  0.0000000000000D+00
   406  4.0500000000000D+00  0.0000000000000D+00  0.0000000000000D+00
   407  4.0600000000000D+00  0.0000000000000D+00  0.0000000000000D+00
   408  4.0700000000000D+00  0.0000000000000D+00  0.0000000000000D+00
   409  4.0800000000000D+00  0.0000000000000D+00  0.0000000000000D+00
   410  4.0900000000000D+00  0.0000000000000D+00  0.0000000000000D+00
   411  4.1000000000000D+00  0.0000000000000D+00  0.0000000000000D+00
   412  4.1100000000000D+00  0.0000000000000D+00  0.0000000000000D+00
   413  4.1200000000000D+00  0.0000000000000D+00  0.0000000000000D+00
   414  4.1300000000000D+00  0.0000000000000D+00  0.0000000000000D+00
   415  4.1400000000000D+00  0.0000000000000D+00  0.0000000000000D+00
   416  4.1500000000000D+00  0.0000000000000D+00  0.0000000000000D+00
   417  4.1600000000000D+00  0.0000000000000D+00  0.0000000000000D+00
   418  4.1700000000000D+00  0.0000000000000D+00  0.0000000000000D+00
   419  4.1800000000000D+00  0.0000000000000D+00  0.0000000000000D+00
   420  4.1900000000000D+00  0.0000000000000D+00  0.0000000000000D+00
   421  4.2000000000000D+00  0.0000000000000D+00  0.0000000000000D+00
   422  4.2100000000000D+00  0.0000000000000D+00  0.0000000000000D+00