Si    ONCVPSP-3.3.1  r_core=   2.40480   3.56481
     14.0000      4.0000      210905    zatom,zion,pspd
     8 -116133   1     4   600     0    pspcod,pspxc,lmax,lloc,mmax,r2well
  5.99000000  0.00000000  0.00000000    rchrg fchrg qchrg
     2     2     0     0     0    nproj
     1     1           extension_switch
   0                         6.2096521564442D+00  4.0704498842336D-01
     1  0.0000000000000D+00  8.4582618686824D-12 -1.8275686519686D-11
     2  1.0000000000000D-02  2.8980381862738D-02 -2.1807844083981D-02
     3  2.0000000000000D-02  5.7959253578637D-02 -4.3596693931246D-02
     4  3.0000000000000D-02  8.6935015174383D-02 -6.5347446782201D-02
     5  4.0000000000000D-02  1.1590588751158D-01 -8.7040783743316D-02
     6  5.0000000000000D-02  1.4486982392171D-01 -1.0865706399507D-01
     7  6.0000000000000D-02  1.7382442329620D-01 -1.3017622171679D-01
     8  7.0000000000000D-02  2.0276684510644D-01 -1.5157766661236D-01
     9  8.0000000000000D-02  2.3169372682055D-01 -1.7284018890231D-01
    10  9.0000000000000D-02  2.6060110417269D-01 -1.9394186962491D-01
    11  1.0000000000000D-01  2.8948433472844D-01 -2.1485999706159D-01
    12  1.1000000000000D-01  3.1833802517516D-01 -2.3557099007009D-01
    13  1.2000000000000D-01  3.4715596274973D-01 -2.5605032907340D-01
    14  1.3000000000000D-01  3.7593105119796D-01 -2.7627249541222D-01
    15  1.4000000000000D-01  4.0465525163971D-01 -2.9621091972512D-01
    16  1.5000000000000D-01  4.3331952869229D-01 -3.1583793997294D-01
    17  1.6000000000000D-01  4.6191380218116D-01 -3.3512476967305D-01
    18  1.7000000000000D-01  4.9042690474227D-01 -3.5404147685444D-01
    19  1.8000000000000D-01  5.1884654559423D-01 -3.7255697418703D-01
    20  1.9000000000000D-01  5.4715928073071D-01 -3.9063902067827D-01
    21  2.0000000000000D-01  5.7535048975527D-01 -4.0825423526651D-01
    22  2.1000000000000D-01  6.0340435955054D-01 -4.2536812257512D-01
    23  2.2000000000000D-01  6.3130387494335D-01 -4.4194511102353D-01
    24  2.3000000000000D-01  6.5903081649584D-01 -4.5794860342136D-01
    25  2.4000000000000D-01  6.8656576552015D-01 -4.7334104010051D-01
    26  2.5000000000000D-01  7.1388811638198D-01 -4.8808397456730D-01
    27  2.6000000000000D-01  7.4097609612461D-01 -5.0213816158315D-01
    28  2.7000000000000D-01  7.6780679141189D-01 -5.1546365750721D-01
    29  2.8000000000000D-01  7.9435618275491D-01 -5.2801993266039D-01
    30  2.9000000000000D-01  8.2059918595340D-01 -5.3976599539451D-01
    31  3.0000000000000D-01  8.4650970064950D-01 -5.5066052747586D-01
    32  3.1000000000000D-01  8.7206066585812D-01 -5.6066203031872D-01
    33  3.2000000000000D-01  8.9722412230529D-01 -5.6972898153101D-01
    34  3.3000000000000D-01  9.2197128137354D-01 -5.7782000116223D-01
    35  3.4000000000000D-01  9.4627260042176D-01 -5.8489402697467D-01
    36  3.5000000000000D-01  9.7009786421580D-01 -5.9091049798943D-01
    37  3.6000000000000D-01  9.9341627217632D-01 -5.9582954549454D-01
    38  3.7000000000000D-01  1.0161965311214D+00 -5.9961219063804D-01
    39  3.8000000000000D-01  1.0384069531538D+00 -6.0222054767008D-01
    40  3.9000000000000D-01  1.0600155583150D+00 -6.0361803184070D-01
    41  4.0000000000000D-01  1.0809901816061D+00 -6.0376957090757D-01
    42  4.1000000000000D-01  1.1012985839477D+00 -6.0264181915901D-01
    43  4.2000000000000D-01  1.1209085666326D+00 -6.0020337281301D-01
    44  4.3000000000000D-01  1.1397880888033D+00 -5.9642498561355D-01
    45  4.4000000000000D-01  1.1579053874661D+00 -5.9127978341035D-01
    46  4.5000000000000D-01  1.1752290995419D+00 -5.8474347647877D-01
    47  4.6000000000000D-01  1.1917283854319D+00 -5.7679456831273D-01
    48  4.7000000000000D-01  1.2073730535701D+00 -5.6741455960446D-01
    49  4.8000000000000D-01  1.2221336854209D+00 -5.5658814611379D-01
    50  4.9000000000000D-01  1.2359817603705D+00 -5.4430340912205D-01
    51  5.0000000000000D-01  1.2488897799578D+00 -5.3055199716732D-01
    52  5.1000000000000D-01  1.2608313908831D+00 -5.1532929776358D-01
    53  5.2000000000000D-01  1.2717815062330D+00 -4.9863459782022D-01
    54  5.3000000000000D-01  1.2817164243602D+00 -4.8047123149866D-01
    55  5.4000000000000D-01  1.2906139448576D+00 -4.6084671426996D-01
    56  5.5000000000000D-01  1.2984534810750D+00 -4.3977286197169D-01
    57  5.6000000000000D-01  1.3052161686297D+00 -4.1726589370320D-01
    58  5.7000000000000D-01  1.3108849693753D+00 -3.9334651744754D-01
    59  5.8000000000000D-01  1.3154447703038D+00 -3.6803999736254D-01
    60  5.9000000000000D-01  1.3188824768692D+00 -3.4137620174660D-01
    61  6.0000000000000D-01  1.3211871002390D+00 -3.1338963075420D-01
    62  6.1000000000000D-01  1.3223498379990D+00 -2.8411942301131D-01
    63  6.2000000000000D-01  1.3223641478547D+00 -2.5360934036440D-01
    64  6.3000000000000D-01  1.3212258138995D+00 -2.2190773008619D-01
    65  6.4000000000000D-01  1.3189330050414D+00 -1.8906746395603D-01
    66  6.5000000000000D-01  1.3154863252105D+00 -1.5514585373540D-01
    67  6.6000000000000D-01  1.3108888549948D+00 -1.2020454266668D-01
    68  6.7000000000000D-01  1.3051461843852D+00 -8.4309372735570D-02
    69  6.8000000000000D-01  1.2982664363430D+00 -4.7530227557652D-02
    70  6.9000000000000D-01  1.2902602809358D+00 -9.9408508716086D-03
    71  7.0000000000000D-01  1.2811409398251D+00  2.8381359249318D-02
    72  7.1000000000000D-01  1.2709241809253D+00  6.7355580224055D-02
    73  7.2000000000000D-01  1.2596283030939D+00  1.0689781844941D-01
    74  7.3000000000000D-01  1.2472741107491D+00  1.4692118592443D-01
    75  7.4000000000000D-01  1.2338848783576D+00  1.8733619935312D-01
    76  7.5000000000000D-01  1.2194863047706D+00  2.2805110091762D-01
    77  7.6000000000000D-01  1.2041064574361D+00  2.6897219976938D-01
    78  7.7000000000000D-01  1.1877757065533D+00  3.1000423313581D-01
    79  7.8000000000000D-01  1.1705266492828D+00  3.5105074579135D-01
    80  7.9000000000000D-01  1.1523940241692D+00  3.9201448649205D-01
    81  8.0000000000000D-01  1.1334146159809D+00  4.3279781982305D-01
    82  8.1000000000000D-01  1.1136271512114D+00  4.7330315175892D-01
    83  8.2000000000000D-01  1.0930721845396D+00  5.1343336708968D-01
    84  8.3000000000000D-01  1.0717919765855D+00  5.5309227671865D-01
    85  8.4000000000000D-01  1.0498303633460D+00  5.9218507269454D-01
    86  8.5000000000000D-01  1.0272326177410D+00  6.3061878869946D-01
    87  8.6000000000000D-01  1.0040453037417D+00  6.6830276357642D-01
    88  8.7000000000000D-01  9.8031612359908D-01  7.0514910534663D-01
    89  8.8000000000000D-01  9.5609375873378D-01  7.4107315303723D-01
    90  8.9000000000000D-01  9.3142770488756D-01  7.7599393351577D-01
    91  9.0000000000000D-01  9.0636810218173D-01  8.0983461040886D-01
    92  9.1000000000000D-01  8.8096556076473D-01  8.4252292206912D-01
    93  9.2000000000000D-01  8.5527098277087D-01  8.7399160544805D-01
    94  9.3000000000000D-01  8.2933538134917D-01  9.0417880263232D-01
    95  9.4000000000000D-01  8.0320969755649D-01  9.3302844670798D-01
    96  9.5000000000000D-01  7.7694461594322D-01  9.6049062353231D-01
    97  9.6000000000000D-01  7.5059037969166D-01  9.8652190591550D-01
    98  9.7000000000000D-01  7.2419660619719D-01  1.0110856566451D+00
    99  9.8000000000000D-01  6.9781210401082D-01  1.0341522967252D+00
   100  9.9000000000000D-01  6.7148469208668D-01  1.0556995351533D+00
   101  1.0000000000000D+00  6.4526102230255D-01  1.0757125565097D+00
   102  1.0100000000000D+00  6.1918640624259D-01  1.0941841626065D+00
   103  1.0200000000000D+00  5.9330464725000D-01  1.1111148644154D+00
   104  1.0300000000000D+00  5.6765787877414D-01  1.1265129204794D+00
   105  1.0400000000000D+00  5.4228641005049D-01  1.1403943180099D+00
   106  1.0500000000000D+00  5.1722858016269D-01  1.1527826928720D+00
   107  1.0600000000000D+00  4.9252062154502D-01  1.1637091846783D+00
   108  1.0700000000000D+00  4.6819653398927D-01  1.1732122232314D+00
   109  1.0800000000000D+00  4.4428797022333D-01  1.1813372425893D+00
   110  1.0900000000000D+00  4.2082413412865D-01  1.1881363190730D+00
   111  1.1000000000000D+00  3.9783169266195D-01  1.1936677295820D+00
   112  1.1100000000000D+00  3.7533470254134D-01  1.1979954266440D+00
   113  1.1200000000000D+00  3.5335455274863D-01  1.2011884266981D+00
   114  1.1300000000000D+00  3.3190992388920D-01  1.2033201081852D+00
   115  1.1400000000000D+00  3.1101676543611D-01  1.2044674161086D+00
   116  1.1500000000000D+00  2.9068829187265D-01  1.2047099698051D+00
   117  1.1600000000000D+00  2.7093499872395D-01  1.2041290707919D+00
   118  1.1700000000000D+00  2.5176469944870D-01  1.2028066076494D+00
   119  1.1800000000000D+00  2.3318258413852D-01  1.2008238550117D+00
   120  1.1900000000000D+00  2.1519130094831D-01  1.1982601638525D+00
   121  1.2000000000000D+00  1.9779106114696D-01  1.1951915403964D+00
   122  1.2100000000000D+00  1.8097976864411D-01  1.1916891111277D+00
   123  1.2200000000000D+00  1.6475317483268D-01  1.1878174714358D+00
   124  1.2300000000000D+00  1.4910505952949D-01  1.1836329156645D+00
   125  1.2400000000000D+00  1.3402743876547D-01  1.1791815464454D+00
   126  1.2500000000000D+00  1.1951079993332D-01  1.1744972556117D+00
   127  1.2600000000000D+00  1.0554436614921D-01  1.1695996059696D+00
   128  1.2700000000000D+00  9.2116387362471D-02  1.1644914908508D+00
   129  1.2800000000000D+00  7.9214469133783D-02  1.1591571040425D+00
   130  1.2900000000000D+00  6.6825905006620D-02  1.1535585840170D+00
   131  1.3000000000000D+00  5.4938089703774D-02  1.1476345577610D+00
   132  1.3100000000000D+00  4.3539200690259D-02  1.1413038298630D+00
   133  1.3200000000000D+00  3.2618815959535D-02  1.1344748764010D+00
   134  1.3300000000000D+00  2.2168423734802D-02  1.1270581851698D+00
   135  1.3400000000000D+00  1.2181282355128D-02  1.1189688069943D+00
   136  1.3500000000000D+00  2.6522595272510D-03  1.1101302482765D+00
   137  1.3600000000000D+00 -6.4224081942973D-03  1.1004776905294D+00
   138  1.3700000000000D+00 -1.5045434127794D-02  1.0899598939011D+00
   139  1.3800000000000D+00 -2.3218827518419D-02  1.0785402538332D+00
   140  1.3900000000000D+00 -3.0944239471729D-02  1.0661969913493D+00
   141  1.4000000000000D+00 -3.8223281804158D-02  1.0529226815793D+00
   142  1.4100000000000D+00 -4.5057813369515D-02  1.0387232507026D+00
   143  1.4200000000000D+00 -5.1450171663809D-02  1.0236166316055D+00
   144  1.4300000000000D+00 -5.7403358382881D-02  1.0076312044460D+00
   145  1.4400000000000D+00 -6.2921172253887D-02  9.9080414921918D-01
   146  1.4500000000000D+00 -6.8008296183139D-02  9.7317983277270D-01
   147  1.4600000000000D+00 -7.2670344263711D-02  9.5480824675479D-01
   148  1.4700000000000D+00 -7.6913874784045D-02  9.3574361615221D-01
   149  1.4800000000000D+00 -8.0746376356912D-02  9.1604313339139D-01
   150  1.4900000000000D+00 -8.4176233488796D-02  8.9576588126153D-01
   151  1.5000000000000D+00 -8.7212677445938D-02  8.7497191306953D-01
   152  1.5100000000000D+00 -8.9865726227260D-02  8.5372149387814D-01
   153  1.5200000000000D+00 -9.2146119553352D-02  8.3207448423599D-01
   154  1.5300000000000D+00 -9.4065248862639D-02  8.1008985028123D-01
   155  1.5400000000000D+00 -9.5635088259457D-02  7.8782528069587D-01
   156  1.5500000000000D+00 -9.6868124439610D-02  7.6533689740675D-01
   157  1.5600000000000D+00 -9.7777289755173D-02  7.4267903816480D-01
   158  1.5700000000000D+00 -9.8375896929030D-02  7.1990410316179D-01
   159  1.5800000000000D+00 -9.8677577306402D-02  6.9706244772080D-01
   160  1.5900000000000D+00 -9.8696221938978D-02  6.7420231447281D-01
   161  1.6000000000000D+00 -9.8445926035415D-02  6.5136979452997D-01
   162  1.6100000000000D+00 -9.7940936450638D-02  6.2860881041885D-01
   163  1.6200000000000D+00 -9.7195602198749D-02  6.0596111685791D-01
   164  1.6300000000000D+00 -9.6224327745015D-02  5.8346631197893D-01
   165  1.6400000000000D+00 -9.5041528957713D-02  5.6116185917104D-01
   166  1.6500000000000D+00 -9.3661591436469D-02  5.3908311291338D-01
   167  1.6600000000000D+00 -9.2098831170936D-02  5.1726335061069D-01
   168  1.6700000000000D+00 -9.0367457197807D-02  4.9573380519689D-01
   169  1.6800000000000D+00 -8.8481536311988D-02  4.7452370087717D-01
   170  1.6900000000000D+00 -8.6454959487874D-02  4.5366028834428D-01
   171  1.7000000000000D+00 -8.4301410137089D-02  4.3316888146219D-01
   172  1.7100000000000D+00 -8.2034333889178D-02  4.1307289316291D-01
   173  1.7200000000000D+00 -7.9666910048138D-02  3.9339387194098D-01
   174  1.7300000000000D+00 -7.7212024472903D-02  3.7415153778280D-01
   175  1.7400000000000D+00 -7.4682244024924D-02  3.5536381834468D-01
   176  1.7500000000000D+00 -7.2089792408222D-02  3.3704688496133D-01
   177  1.7600000000000D+00 -6.9446527512564D-02  3.1921518887518D-01
   178  1.7700000000000D+00 -6.6763920163865D-02  3.0188149770442D-01
   179  1.7800000000000D+00 -6.4053034351020D-02  2.8505693228664D-01
   180  1.7900000000000D+00 -6.1324508901477D-02  2.6875100410583D-01
   181  1.8000000000000D+00 -5.8588540637208D-02  2.5297165334025D-01
   182  1.8100000000000D+00 -5.5854869030260D-02  2.3772528774186D-01
   183  1.8200000000000D+00 -5.3132762367876D-02  2.2301682241147D-01
   184  1.8300000000000D+00 -5.0431005462424D-02  2.0884972055034D-01
   185  1.8400000000000D+00 -4.7757888920572D-02  1.9522603536998D-01
   186  1.8500000000000D+00 -4.5121199984990D-02  1.8214645302885D-01
   187  1.8600000000000D+00 -4.2528215000560D-02  1.6961033694738D-01
   188  1.8700000000000D+00 -3.9985693457185D-02  1.5761577313010D-01
   189  1.8800000000000D+00 -3.7499873720902D-02  1.4615961698606D-01
   190  1.8900000000000D+00 -3.5076470344506D-02  1.3523754116607D-01
   191  1.9000000000000D+00 -3.2720673087537D-02  1.2484408482353D-01
   192  1.9100000000000D+00 -3.0437147539498D-02  1.1497270395858D-01
   193  1.9200000000000D+00 -2.8230037419213D-02  1.0561582298534D-01
   194  1.9300000000000D+00 -2.6102968515892D-02  9.6764887423404D-02
   195  1.9400000000000D+00 -2.4059054223109D-02  8.8410417564565D-02
   196  1.9500000000000D+00 -2.2100902756039D-02  8.0542063236034D-02
   197  1.9600000000000D+00 -2.0230625845381D-02  7.3148659297194D-02
   198  1.9700000000000D+00 -1.8449849112220D-02  6.6218282087445D-02
   199  1.9800000000000D+00 -1.6759723854059D-02  5.9738306454927D-02
   200  1.9900000000000D+00 -1.5160940380996D-02  5.3695463437343D-02
   201  2.0000000000000D+00 -1.3653742765609D-02  4.8075898414733D-02
   202  2.0100000000000D+00 -1.2237944940464D-02  4.2865229606279D-02
   203  2.0200000000000D+00 -1.0912948202787D-02  3.8048606854778D-02
   204  2.0300000000000D+00 -9.6777598646490D-03  3.3610770511143D-02
   205  2.0400000000000D+00 -8.5310132166954D-03  2.9536110343075D-02
   206  2.0500000000000D+00 -7.4709885285723D-03  2.5808724335966D-02
   207  2.0600000000000D+00 -6.4956351237236D-03  2.2412477254701D-02
   208  2.0700000000000D+00 -5.6025944496531D-03  1.9331058843566D-02
   209  2.0800000000000D+00 -4.7892239486816D-03  1.6548041598812D-02
   210  2.0900000000000D+00 -4.0526218186020D-03  1.4046937879817D-02
   211  2.1000000000000D+00 -3.3896523929786D-03  1.1811256395253D-02
   212  2.1100000000000D+00 -2.7969721633255D-03  9.8245578275875D-03
   213  2.1200000000000D+00 -2.2710563164750D-03  8.0705095231832D-03
   214  2.1300000000000D+00 -1.8082256407905D-03  6.5329392427593D-03
   215  2.1400000000000D+00 -1.4046737865246D-03  5.1958876478478D-03
   216  2.1500000000000D+00 -1.0564946986124D-03  4.0436596926745D-03
   217  2.1600000000000D+00 -7.5971015884379D-04  3.0608746352824D-03
   218  2.1700000000000D+00 -5.1029732360228D-04  2.2325146045344D-03
   219  2.1800000000000D+00 -3.0421616391824D-04  1.5439718286288D-03
   220  2.1900000000000D+00 -1.3743666469220D-04  9.8109409779339D-04
   221  2.2000000000000D+00 -5.9657369616254D-06  5.3022873458614D-04
   222  2.2100000000000D+00  9.4126296643498D-05  1.7826482496161D-04
   223  2.2200000000000D+00  1.6667977646113D-04 -8.7326417959526D-05
   224  2.2300000000000D+00  2.1542031661620D-04 -2.7845296467233D-04
   225  2.2400000000000D+00  2.4393422706538D-04 -4.0636532243240D-04
   226  2.2500000000000D+00  2.5564471951762D-04 -4.8162178647233D-04
   227  2.2600000000000D+00  2.5378893758774D-04 -5.1405559297844D-04
   228  2.2700000000000D+00  2.4139614754124D-04 -5.1274428365445D-04
   229  2.2800000000000D+00  2.2126685449389D-04 -4.8598100149534D-04
   230  2.2900000000000D+00  1.9595312564475D-04 -4.4124794088530D-04
   231  2.3000000000000D+00  1.6774025706907D-04 -3.8519202077625D-04
   232  2.3100000000000D+00  1.3862953622552D-04 -3.2360259765587D-04
   233  2.3200000000000D+00  1.1032257810088D-04 -2.6139149735080D-04
   234  2.3300000000000D+00  8.4208493418374D-05 -2.0260021188685D-04
   235  2.3400000000000D+00  6.1345317012917D-05 -1.5028456791137D-04
   236  2.3500000000000D+00  4.2425811608557D-05 -1.0650967016110D-04
   237  2.3600000000000D+00  2.7769455048478D-05 -7.2338425824300D-05
   238  2.3700000000000D+00  1.7637168386799D-05 -4.8995739015303D-05
   239  2.3800000000000D+00  1.1929349752515D-05 -3.6687205654136D-05
   240  2.3900000000000D+00  9.7070391367852D-06 -3.2972285181723D-05
   241  2.4000000000000D+00  8.7880775058679D-06 -3.1342557604231D-05
   242  2.4100000000000D+00  7.0279121682504D-06 -2.5419907867780D-05
   243  2.4200000000000D+00  4.0062023695854D-06 -1.4543963373756D-05
   244  2.4300000000000D+00  9.3763663048720D-07 -3.3984879506600D-06
   245  2.4400000000000D+00 -6.6392338672740D-07  2.4537781332544D-06
   246  2.4500000000000D+00 -7.8323074175377D-07  2.8997167574520D-06
   247  2.4600000000000D+00 -2.0528456188777D-07  7.6071932996018D-07
   248  2.4700000000000D+00  1.4229049653037D-07 -5.2976917557801D-07
   249  2.4800000000000D+00  1.7170155265671D-07 -6.4040320114683D-07
   250  2.4900000000000D+00  4.1704150885992D-08 -1.5577606580783D-07
   251  2.5000000000000D+00 -1.8185400079323D-08  6.5357734396870D-08
   252  2.5100000000000D+00 -2.2115020101879D-08  7.9480660513126D-08
   253  2.5200000000000D+00 -5.3665038026041D-09  1.9287039528440D-08
   254  2.5300000000000D+00  0.0000000000000D+00  0.0000000000000D+00
   255  2.5400000000000D+00  0.0000000000000D+00  0.0000000000000D+00
   256  2.5500000000000D+00  0.0000000000000D+00  0.0000000000000D+00
   257  2.5600000000000D+00  0.0000000000000D+00  0.0000000000000D+00
   258  2.5700000000000D+00  0.0000000000000D+00  0.0000000000000D+00
   259  2.5800000000000D+00  0.0000000000000D+00  0.0000000000000D+00
   260  2.5900000000000D+00  0.0000000000000D+00  0.0000000000000D+00
   261  2.6000000000000D+00  0.0000000000000D+00  0.0000000000000D+00
   262  2.6100000000000D+00  0.0000000000000D+00  0.0000000000000D+00
   263  2.6200000000000D+00  0.0000000000000D+00  0.0000000000000D+00
   264  2.6300000000000D+00  0.0000000000000D+00  0.0000000000000D+00
   265  2.6400000000000D+00  0.0000000000000D+00  0.0000000000000D+00
   266  2.6500000000000D+00  0.0000000000000D+00  0.0000000000000D+00
   267  2.6600000000000D+00  0.0000000000000D+00  0.0000000000000D+00
   268  2.6700000000000D+00  0.0000000000000D+00  0.0000000000000D+00
   269  2.6800000000000D+00  0.0000000000000D+00  0.0000000000000D+00
   270  2.6900000000000D+00  0.0000000000000D+00  0.0000000000000D+00
   271  2.7000000000000D+00  0.0000000000000D+00  0.0000000000000D+00
   272  2.7100000000000D+00  0.0000000000000D+00  0.0000000000000D+00
   273  2.7200000000000D+00  0.0000000000000D+00  0.0000000000000D+00
   274  2.7300000000000D+00  0.0000000000000D+00  0.0000000000000D+00
   275  2.7400000000000D+00  0.0000000000000D+00  0.0000000000000D+00
   276  2.7500000000000D+00  0.0000000000000D+00  0.0000000000000D+00
   277  2.7600000000000D+00  0.0000000000000D+00  0.0000000000000D+00
   278  2.7700000000000D+00  0.0000000000000D+00  0.0000000000000D+00
   279  2.7800000000000D+00  0.0000000000000D+00  0.0000000000000D+00
   280  2.7900000000000D+00  0.0000000000000D+00  0.0000000000000D+00
   281  2.8000000000000D+00  0.0000000000000D+00  0.0000000000000D+00
   282  2.8100000000000D+00  0.0000000000000D+00  0.0000000000000D+00
   283  2.8200000000000D+00  0.0000000000000D+00  0.0000000000000D+00
   284  2.8300000000000D+00  0.0000000000000D+00  0.0000000000000D+00
   285  2.8400000000000D+00  0.0000000000000D+00  0.0000000000000D+00
   286  2.8500000000000D+00  0.0000000000000D+00  0.0000000000000D+00
   287  2.8600000000000D+00  0.0000000000000D+00  0.0000000000000D+00
   288  2.8700000000000D+00  0.0000000000000D+00  0.0000000000000D+00
   289  2.8800000000000D+00  0.0000000000000D+00  0.0000000000000D+00
   290  2.8900000000000D+00  0.0000000000000D+00  0.0000000000000D+00
   291  2.9000000000000D+00  0.0000000000000D+00  0.0000000000000D+00
   292  2.9100000000000D+00  0.0000000000000D+00  0.0000000000000D+00
   293  2.9200000000000D+00  0.0000000000000D+00  0.0000000000000D+00
   294  2.9300000000000D+00  0.0000000000000D+00  0.0000000000000D+00
   295  2.9400000000000D+00  0.0000000000000D+00  0.0000000000000D+00
   296  2.9500000000000D+00  0.0000000000000D+00  0.0000000000000D+00
   297  2.9600000000000D+00  0.0000000000000D+00  0.0000000000000D+00
   298  2.9700000000000D+00  0.0000000000000D+00  0.0000000000000D+00
   299  2.9800000000000D+00  0.0000000000000D+00  0.0000000000000D+00
   300  2.9900000000000D+00  0.0000000000000D+00  0.0000000000000D+00
   301  3.0000000000000D+00  0.0000000000000D+00  0.0000000000000D+00
   302  3.0100000000000D+00  0.0000000000000D+00  0.0000000000000D+00
   303  3.0200000000000D+00  0.0000000000000D+00  0.0000000000000D+00
   304  3.0300000000000D+00  0.0000000000000D+00  0.0000000000000D+00
   305  3.0400000000000D+00  0.0000000000000D+00  0.0000000000000D+00
   306  3.0500000000000D+00  0.0000000000000D+00  0.0000000000000D+00
   307  3.0600000000000D+00  0.0000000000000D+00  0.0000000000000D+00
   308  3.0700000000000D+00  0.0000000000000D+00  0.0000000000000D+00
   309  3.0800000000000D+00  0.0000000000000D+00  0.0000000000000D+00
   310  3.0900000000000D+00  0.0000000000000D+00  0.0000000000000D+00
   311  3.1000000000000D+00  0.0000000000000D+00  0.0000000000000D+00
   312  3.1100000000000D+00  0.0000000000000D+00  0.0000000000000D+00
   313  3.1200000000000D+00  0.0000000000000D+00  0.0000000000000D+00
   314  3.1300000000000D+00  0.0000000000000D+00  0.0000000000000D+00
   315  3.1400000000000D+00  0.0000000000000D+00  0.0000000000000D+00
   316  3.1500000000000D+00  0.0000000000000D+00  0.0000000000000D+00
   317  3.1600000000000D+00  0.0000000000000D+00  0.0000000000000D+00
   318  3.1700000000000D+00  0.0000000000000D+00  0.0000000000000D+00
   319  3.1800000000000D+00  0.0000000000000D+00  0.0000000000000D+00
   320  3.1900000000000D+00  0.0000000000000D+00  0.0000000000000D+00
   321  3.2000000000000D+00  0.0000000000000D+00  0.0000000000000D+00
   322  3.2100000000000D+00  0.0000000000000D+00  0.0000000000000D+00
   323  3.2200000000000D+00  0.0000000000000D+00  0.0000000000000D+00
   324  3.2300000000000D+00  0.0000000000000D+00  0.0000000000000D+00
   325  3.2400000000000D+00  0.0000000000000D+00  0.0000000000000D+00
   326  3.2500000000000D+00  0.0000000000000D+00  0.0000000000000D+00
   327  3.2600000000000D+00  0.0000000000000D+00  0.0000000000000D+00
   328  3.2700000000000D+00  0.0000000000000D+00  0.0000000000000D+00
   329  3.2800000000000D+00  0.0000000000000D+00  0.0000000000000D+00
   330  3.2900000000000D+00  0.0000000000000D+00  0.0000000000000D+00
   331  3.3000000000000D+00  0.0000000000000D+00  0.0000000000000D+00
   332  3.3100000000000D+00  0.0000000000000D+00  0.0000000000000D+00
   333  3.3200000000000D+00  0.0000000000000D+00  0.0000000000000D+00
   334  3.3300000000000D+00  0.0000000000000D+00  0.0000000000000D+00
   335  3.3400000000000D+00  0.0000000000000D+00  0.0000000000000D+00
   336  3.3500000000000D+00  0.0000000000000D+00  0.0000000000000D+00
   337  3.3600000000000D+00  0.0000000000000D+00  0.0000000000000D+00
   338  3.3700000000000D+00  0.0000000000000D+00  0.0000000000000D+00
   339  3.3800000000000D+00  0.0000000000000D+00  0.0000000000000D+00
   340  3.3900000000000D+00  0.0000000000000D+00  0.0000000000000D+00
   341  3.4000000000000D+00  0.0000000000000D+00  0.0000000000000D+00
   342  3.4100000000000D+00  0.0000000000000D+00  0.0000000000000D+00
   343  3.4200000000000D+00  0.0000000000000D+00  0.0000000000000D+00
   344  3.4300000000000D+00  0.0000000000000D+00  0.0000000000000D+00
   345  3.4400000000000D+00  0.0000000000000D+00  0.0000000000000D+00
   346  3.4500000000000D+00  0.0000000000000D+00  0.0000000000000D+00
   347  3.4600000000000D+00  0.0000000000000D+00  0.0000000000000D+00
   348  3.4700000000000D+00  0.0000000000000D+00  0.0000000000000D+00
   349  3.4800000000000D+00  0.0000000000000D+00  0.0000000000000D+00
   350  3.4900000000000D+00  0.0000000000000D+00  0.0000000000000D+00
   351  3.5000000000000D+00  0.0000000000000D+00  0.0000000000000D+00
   352  3.5100000000000D+00  0.0000000000000D+00  0.0000000000000D+00
   353  3.5200000000000D+00  0.0000000000000D+00  0.0000000000000D+00
   354  3.5300000000000D+00  0.0000000000000D+00  0.0000000000000D+00
   355  3.5400000000000D+00  0.0000000000000D+00  0.0000000000000D+00
   356  3.5500000000000D+00  0.0000000000000D+00  0.0000000000000D+00
   357  3.5600000000000D+00  0.0000000000000D+00  0.0000000000000D+00
   358  3.5700000000000D+00  0.0000000000000D+00  0.0000000000000D+00
   359  3.5800000000000D+00  0.0000000000000D+00  0.0000000000000D+00
   360  3.5900000000000D+00  0.0000000000000D+00  0.0000000000000D+00
   361  3.6000000000000D+00  0.0000000000000D+00  0.0000000000000D+00
   362  3.6100000000000D+00  0.0000000000000D+00  0.0000000000000D+00
   363  3.6200000000000D+00  0.0000000000000D+00  0.0000000000000D+00
   364  3.6300000000000D+00  0.0000000000000D+00  0.0000000000000D+00
   365  3.6400000000000D+00  0.0000000000000D+00  0.0000000000000D+00
   366  3.6500000000000D+00  0.0000000000000D+00  0.0000000000000D+00
   367  3.6600000000000D+00  0.0000000000000D+00  0.0000000000000D+00
   368  3.6700000000000D+00  0.0000000000000D+00  0.0000000000000D+00
   369  3.6800000000000D+00  0.0000000000000D+00  0.0000000000000D+00
   370  3.6900000000000D+00  0.0000000000000D+00  0.0000000000000D+00
   371  3.7000000000000D+00  0.0000000000000D+00  0.0000000000000D+00
   372  3.7100000000000D+00  0.0000000000000D+00  0.0000000000000D+00
   373  3.7200000000000D+00  0.0000000000000D+00  0.0000000000000D+00
   374  3.7300000000000D+00  0.0000000000000D+00  0.0000000000000D+00
   375  3.7400000000000D+00  0.0000000000000D+00  0.0000000000000D+00
   376  3.7500000000000D+00  0.0000000000000D+00  0.0000000000000D+00
   377  3.7600000000000D+00  0.0000000000000D+00  0.0000000000000D+00
   378  3.7700000000000D+00  0.0000000000000D+00  0.0000000000000D+00
   379  3.7800000000000D+00  0.0000000000000D+00  0.0000000000000D+00
   380  3.7900000000000D+00  0.0000000000000D+00  0.0000000000000D+00
   381  3.8000000000000D+00  0.0000000000000D+00  0.0000000000000D+00
   382  3.8100000000000D+00  0.0000000000000D+00  0.0000000000000D+00
   383  3.8200000000000D+00  0.0000000000000D+00  0.0000000000000D+00
   384  3.8300000000000D+00  0.0000000000000D+00  0.0000000000000D+00
   385  3.8400000000000D+00  0.0000000000000D+00  0.0000000000000D+00
   386  3.8500000000000D+00  0.0000000000000D+00  0.0000000000000D+00
   387  3.8600000000000D+00  0.0000000000000D+00  0.0000000000000D+00
   388  3.8700000000000D+00  0.0000000000000D+00  0.0000000000000D+00
   389  3.8800000000000D+00  0.0000000000000D+00  0.0000000000000D+00
   390  3.8900000000000D+00  0.0000000000000D+00  0.0000000000000D+00
   391  3.9000000000000D+00  0.0000000000000D+00  0.0000000000000D+00
   392  3.9100000000000D+00  0.0000000000000D+00  0.0000000000000D+00
   393  3.9200000000000D+00  0.0000000000000D+00  0.0000000000000D+00
   394  3.9300000000000D+00  0.0000000000000D+00  0.0000000000000D+00
   395  3.9400000000000D+00  0.0000000000000D+00  0.0000000000000D+00
   396  3.9500000000000D+00  0.0000000000000D+00  0.0000000000000D+00
   397  3.9600000000000D+00  0.0000000000000D+00  0.0000000000000D+00
   398  3.9700000000000D+00  0.0000000000000D+00  0.0000000000000D+00
   399  3.9800000000000D+00  0.0000000000000D+00  0.0000000000000D+00
   400  3.9900000000000D+00  0.0000000000000D+00  0.0000000000000D+00
   401  4.0000000000000D+00  0.0000000000000D+00  0.0000000000000D+00
   402  4.0100000000000D+00  0.0000000000000D+00  0.0000000000000D+00
   403  4.0200000000000D+00  0.0000000000000D+00  0.0000000000000D+00
   404  4.0300000000000D+00  0.0000000000000D+00  0.0000000000000D+00
   405  4.0400000000000D+00  0.0000000000000D+00  0.0000000000000D+00
   406  4.0500000000000D+00  0.0000000000000D+00  0.0000000000000D+00
   407  4.0600000000000D+00  0.0000000000000D+00  0.0000000000000D+00
   408  4.0700000000000D+00  0.0000000000000D+00  0.0000000000000D+00
   409  4.0800000000000D+00  0.0000000000000D+00  0.0000000000000D+00
   410  4.0900000000000D+00  0.0000000000000D+00  0.0000000000000D+00
   411  4.1000000000000D+00  0.0000000000000D+00  0.0000000000000D+00
   412  4.1100000000000D+00  0.0000000000000D+00  0.0000000000000D+00
   413  4.1200000000000D+00  0.0000000000000D+00  0.0000000000000D+00
   414  4.1300000000000D+00  0.0000000000000D+00  0.0000000000000D+00
   415  4.1400000000000D+00  0.0000000000000D+00  0.0000000000000D+00
   416  4.1500000000000D+00  0.0000000000000D+00  0.0000000000000D+00
   417  4.1600000000000D+00  0.0000000000000D+00  0.0000000000000D+00
   418  4.1700000000000D+00  0.0000000000000D+00  0.0000000000000D+00
   419  4.1800000000000D+00  0.0000000000000D+00  0.0000000000000D+00
   420  4.1900000000000D+00  0.0000000000000D+00  0.0000000000000D+00
   421  4.2000000000000D+00  0.0000000000000D+00  0.0000000000000D+00
   422  4.2100000000000D+00  0.0000000000000D+00  0.0000000000000D+00
   423  4.2200000000000D+00  0.0000000000000D+00  0.0000000000000D+00