Sn    ONCVPSP-3.3.1  r_core=   2.81773   2.95543   3.36982
     50.0000     14.0000      210905    zatom,zion,pspd
     8 -116133   2     4   600     0    pspcod,pspxc,lmax,lloc,mmax,r2well
  5.99000000  0.00000000  0.00000000    rchrg fchrg qchrg
     2     3     2     0    nproj
     3     1           extension_switch
     3     4     0    nprojso
   0                         1.3774422260350D+00  5.2868653312600D+00
     1  0.0000000000000D+00 -6.4342975392151D-12  1.7474077740331D-12
     2  1.0000000000000D-02  2.5987693367772D-02  7.5631362581707D-03
     3  2.0000000000000D-02  5.1894981077428D-02  1.5153909690043D-02
     4  3.0000000000000D-02  7.7641704836044D-02  2.2799867101592D-02
     5  4.0000000000000D-02  1.0314820039189D-01  3.0528374788475D-02
     6  5.0000000000000D-02  1.2833554283370D-01  3.8366528843236D-02
     7  6.0000000000000D-02  1.5312578982880D-01  4.6341066136142D-02
     8  7.0000000000000D-02  1.7744222212076D-01  5.4478276192086D-02
     9  8.0000000000000D-02  2.0120958061347D-01  6.2803914184294D-02
    10  9.0000000000000D-02  2.2435429937671D-01  7.1343115263298D-02
    11  1.0000000000000D-01  2.4680473391807D-01  8.0120310437060D-02
    12  1.1000000000000D-01  2.6849138407705D-01  8.9159144214961D-02
    13  1.2000000000000D-01  2.8934711091022D-01  9.8482394224937D-02
    14  1.3000000000000D-01  3.0930734695067D-01  1.0811189300899D-01
    15  1.4000000000000D-01  3.2831029924065D-01  1.1806845219801D-01
    16  1.5000000000000D-01  3.4629714455405D-01  1.2837178926190D-01
    17  1.6000000000000D-01  3.6321221624395D-01  1.3904045702591D-01
    18  1.7000000000000D-01  3.7900318217114D-01  1.5009177613818D-01
    19  1.8000000000000D-01  3.9362121319092D-01  1.6154177066777D-01
    20  1.9000000000000D-01  4.0702114169922D-01  1.7340510700543D-01
    21  2.0000000000000D-01  4.1916160976302D-01  1.8569503623297D-01
    22  2.1000000000000D-01  4.3000520638653D-01  1.9842334011945D-01
    23  2.2000000000000D-01  4.3951859349137D-01  2.1160028089480D-01
    24  2.3000000000000D-01  4.4767262021758D-01  2.2523455494335D-01
    25  2.4000000000000D-01  4.5444242518204D-01  2.3933325055136D-01
    26  2.5000000000000D-01  4.5980752636126D-01  2.5390180983364D-01
    27  2.6000000000000D-01  4.6375189829790D-01  2.6894399495526D-01
    28  2.7000000000000D-01  4.6626403636276D-01  2.8446185875483D-01
    29  2.8000000000000D-01  4.6733700783824D-01  3.0045571986580D-01
    30  2.9000000000000D-01  4.6696848962380D-01  3.1692414242208D-01
    31  3.0000000000000D-01  4.6516079239950D-01  3.3386392042392D-01
    32  3.1000000000000D-01  4.6192087112052D-01  3.5127006682900D-01
    33  3.2000000000000D-01  4.5726032175175D-01  3.6913580742258D-01
    34  3.3000000000000D-01  4.5119536419017D-01  3.8745257950962D-01
    35  3.4000000000000D-01  4.4374681136005D-01  4.0621003545957D-01
    36  3.5000000000000D-01  4.3494002450499D-01  4.2539605112358D-01
    37  3.6000000000000D-01  4.2480485473979D-01  4.4499673913117D-01
    38  3.7000000000000D-01  4.1337557096396D-01  4.6499646706182D-01
    39  3.8000000000000D-01  4.0069077427813D-01  4.8537788047453D-01
    40  3.9000000000000D-01  3.8679329908409D-01  5.0612193076593D-01
    41  4.0000000000000D-01  3.7173010108802D-01  5.2720790781531D-01
    42  4.1000000000000D-01  3.5555213246589D-01  5.4861347736223D-01
    43  4.2000000000000D-01  3.3831420448860D-01  5.7031472305015D-01
    44  4.3000000000000D-01  3.2007483794274D-01  5.9228619305663D-01
    45  4.4000000000000D-01  3.0089610172075D-01  6.1450095121856D-01
    46  4.5000000000000D-01  2.8084343999150D-01  6.3693063254833D-01
    47  4.6000000000000D-01  2.5998548839856D-01  6.5954550302455D-01
    48  4.7000000000000D-01  2.3839387976912D-01  6.8231452352880D-01
    49  4.8000000000000D-01  2.1614303985113D-01  7.0520541778819D-01
    50  4.9000000000000D-01  1.9330997362952D-01  7.2818474417126D-01
    51  5.0000000000000D-01  1.6997404280461D-01  7.5121797117381D-01
    52  5.1000000000000D-01  1.4621673504687D-01  7.7426955641971D-01
    53  5.2000000000000D-01  1.2212142567125D-01  7.9730302899098D-01
    54  5.3000000000000D-01  9.7773132402514D-02  8.2028107489089D-01
    55  5.4000000000000D-01  7.3258263928692D-02  8.4316562543375D-01
    56  5.5000000000000D-01  4.8664362964456D-02  8.6591794834535D-01
    57  5.6000000000000D-01  2.4079844568454D-02  8.8849874134883D-01
    58  5.7000000000000D-01 -4.0626952103788D-04  9.1086822800204D-01
    59  5.8000000000000D-01 -2.4704619749303D-02  9.3298625554422D-01
    60  5.9000000000000D-01 -4.8725780008502D-02  9.5481239450246D-01
    61  6.0000000000000D-01 -7.2380530488487D-02  9.7630603980106D-01
    62  6.1000000000000D-01 -9.5580131291151D-02  9.9742651311109D-01
    63  6.2000000000000D-01 -1.1823659597531D-01  1.0181331661711D+00
    64  6.3000000000000D-01 -1.4026296419280D-01  1.0383854848056D+00
    65  6.4000000000000D-01 -1.6157357257240D-01  1.0581431933636D+00
    66  6.5000000000000D-01 -1.8208432300726D-01  1.0773663592950D+00
    67  6.6000000000000D-01 -2.0171294750257D-01  1.0960154975819D+00
    68  6.7000000000000D-01 -2.2037926874473D-01  1.1140516747376D+00
    69  6.8000000000000D-01 -2.3800545556003D-01  1.1314366120874D+00
    70  6.9000000000000D-01 -2.5451627244030D-01  1.1481327880421D+00
    71  7.0000000000000D-01 -2.6983932232591D-01  1.1641035390792D+00
    72  7.1000000000000D-01 -2.8390528185111D-01  1.1793131591448D+00
    73  7.2000000000000D-01 -2.9664812827516D-01  1.1937269971939D+00
    74  7.3000000000000D-01 -3.0800535734299D-01  1.2073115525882D+00
    75  7.4000000000000D-01 -3.1791819134274D-01  1.2200345680764D+00
    76  7.5000000000000D-01 -3.2633177665351D-01  1.2318651200850D+00
    77  7.6000000000000D-01 -3.3319537010522D-01  1.2427737060544D+00
    78  7.7000000000000D-01 -3.3846251350389D-01  1.2527323285613D+00
    79  7.8000000000000D-01 -3.4209119570882D-01  1.2617145759770D+00
    80  7.9000000000000D-01 -3.4404400168488D-01  1.2696956994164D+00
    81  8.0000000000000D-01 -3.4428824799074D-01  1.2766526857464D+00
    82  8.1000000000000D-01 -3.4279610420478D-01  1.2825643264274D+00
    83  8.2000000000000D-01 -3.3954469983303D-01  1.2874112819759D+00
    84  8.3000000000000D-01 -3.3451621628743D-01  1.2911761418453D+00
    85  8.4000000000000D-01 -3.2769796356981D-01  1.2938434795362D+00
    86  8.5000000000000D-01 -3.1908244134426D-01  1.2953999027583D+00
    87  8.6000000000000D-01 -3.0866738413029D-01  1.2958340984809D+00
    88  8.7000000000000D-01 -2.9645579040010D-01  1.2951368727229D+00
    89  8.8000000000000D-01 -2.8245593541502D-01  1.2933011849473D+00
    90  8.9000000000000D-01 -2.6668136768926D-01  1.2903221769417D+00
    91  9.0000000000000D-01 -2.4915088902306D-01  1.2861971960794D+00
    92  9.1000000000000D-01 -2.2988851810145D-01  1.2809258128762D+00
    93  9.2000000000000D-01 -2.0892343771006D-01  1.2745098327699D+00
    94  9.3000000000000D-01 -1.8628992567421D-01  1.2669533020691D+00
    95  9.4000000000000D-01 -1.6202726968303D-01  1.2582625080355D+00
    96  9.5000000000000D-01 -1.3617966621496D-01  1.2484459730783D+00
    97  9.6000000000000D-01 -1.0879610383623D-01  1.2375144430610D+00
    98  9.7000000000000D-01 -7.9930231196993D-02  1.2254808697346D+00
    99  9.8000000000000D-01 -4.9640210104273D-02  1.2123603873319D+00
   100  9.9000000000000D-01 -1.7988554102454D-02  1.1981702833740D+00
   101  1.0000000000000D+00  1.4958046956635D-02  1.1829299637571D+00
   102  1.0100000000000D+00  4.9128915822215D-02  1.1666609122074D+00
   103  1.0200000000000D+00  8.4449589651757D-02  1.1493866442064D+00
   104  1.0300000000000D+00  1.2084203408950D-01  1.1311326555092D+00
   105  1.0400000000000D+00  1.5822486894757D-01  1.1119263653909D+00
   106  1.0500000000000D+00  1.9651360477451D-01  1.0917970547776D+00
   107  1.0600000000000D+00  2.3562088955905D-01  1.0707757994304D+00
   108  1.0700000000000D+00  2.7545676477866D-01  1.0488953983678D+00
   109  1.0800000000000D+00  3.1592892996647D-01  1.0261902977277D+00
   110  1.0900000000000D+00  3.5694301494119D-01  1.0026965102820D+00
   111  1.1000000000000D+00  3.9840285881190D-01  9.7845153083358D-01
   112  1.1100000000000D+00  4.4021079484583D-01  9.5349424773519D-01
   113  1.1200000000000D+00  4.8226794026363D-01  9.2786485078488D-01
   114  1.1300000000000D+00  5.2447449000788D-01  9.0160473576184D-01
   115  1.1400000000000D+00  5.6673001351427D-01  8.7475640587751D-01
   116  1.1500000000000D+00  6.0893375350105D-01  8.4736337042735D-01
   117  1.1600000000000D+00  6.5098492578465D-01  8.1947004093689D-01
   118  1.1700000000000D+00  6.9278301912434D-01  7.9112162510251D-01
   119  1.1800000000000D+00  7.3422809409492D-01  7.6236401883540D-01
   120  1.1900000000000D+00  7.7522107998922D-01  7.3324369672265D-01
   121  1.2000000000000D+00  8.1566406876084D-01  7.0380760122409D-01
   122  1.2100000000000D+00  8.5546060501951D-01  6.7410303092622D-01
   123  1.2200000000000D+00  8.9451597111036D-01  6.4417752817909D-01
   124  1.2300000000000D+00  9.3273746632575D-01  6.1407876644197D-01
   125  1.2400000000000D+00  9.7003467931229D-01  5.8385443766433D-01
   126  1.2500000000000D+00  1.0063197527601D+00  5.5355214002922D-01
   127  1.2600000000000D+00  1.0415076394982D+00  5.2321926638251D-01
   128  1.2700000000000D+00  1.0755163491389D+00  4.9290289366970D-01
   129  1.2800000000000D+00  1.1082671844426D+00  4.6264967369975D-01
   130  1.2900000000000D+00  1.1396849666360D+00  4.3250572554643D-01
   131  1.3000000000000D+00  1.1696982489311D+00  4.0251652989496D-01
   132  1.3100000000000D+00  1.1982395175305D+00  3.7272682563683D-01
   133  1.3200000000000D+00  1.2252453794925D+00  3.4318050899926D-01
   134  1.3300000000000D+00  1.2506567368200D+00  3.1392053549704D-01
   135  1.3400000000000D+00  1.2744189462101D+00  2.8498882498189D-01
   136  1.3500000000000D+00  1.2964819639999D+00  2.5642617004219D-01
   137  1.3600000000000D+00  1.3168004757885D+00  2.2827214801880D-01
   138  1.3700000000000D+00  1.3353340103811D+00  2.0056503686649D-01
   139  1.3800000000000D+00  1.3520470377265D+00  1.7334173508277D-01
   140  1.3900000000000D+00  1.3669090504865D+00  1.4663768593541D-01
   141  1.4000000000000D+00  1.3798946291174D+00  1.2048680616102D-01
   142  1.4100000000000D+00  1.3909834902136D+00  9.4921419337469D-02
   143  1.4200000000000D+00  1.4001605180266D+00  6.9972194094752D-02
   144  1.4300000000000D+00  1.4074157791817D+00  4.5668087296024D-02
   145  1.4400000000000D+00  1.4127445204662D+00  2.2036292363929D-02
   146  1.4500000000000D+00  1.4161471499326D+00 -8.9780717630906D-04
   147  1.4600000000000D+00  1.4176292013127D+00 -2.3110678796374D-02
   148  1.4700000000000D+00  1.4172012820061D+00 -4.4580676640697D-02
   149  1.4800000000000D+00  1.4148790049165D+00 -6.5288071720440D-02
   150  1.4900000000000D+00  1.4106829043294D+00 -8.5215076537046D-02
   151  1.5000000000000D+00  1.4046383363913D+00 -1.0434586416725D-01
   152  1.5100000000000D+00  1.3967753643662D+00 -1.2266658171402D-01
   153  1.5200000000000D+00  1.3871286293775D+00 -1.4016535820453D-01
   154  1.5300000000000D+00  1.3757372069670D+00 -1.5683230689125D-01
   155  1.5400000000000D+00  1.3626444501541D+00 -1.7265952202934D-01
   156  1.5500000000000D+00  1.3478978195665D+00 -1.8764107017202D-01
   157  1.5600000000000D+00  1.3315487012665D+00 -2.0177297603469D-01
   158  1.5700000000000D+00  1.3136522130613D+00 -2.1505320305507D-01
   159  1.5800000000000D+00  1.2942669998794D+00 -2.2748162867954D-01
   160  1.5900000000000D+00  1.2734550191664D+00 -2.3906001457961D-01
   161  1.6000000000000D+00  1.2512813168793D+00 -2.4979197181780D-01
   162  1.6100000000000D+00  1.2278137951203D+00 -2.5968292122105D-01
   163  1.6200000000000D+00  1.2031229720467D+00 -2.6874004899642D-01
   164  1.6300000000000D+00  1.1772817351000D+00 -2.7697225786641D-01
   165  1.6400000000000D+00  1.1503650882881D+00 -2.8439011379847D-01
   166  1.6500000000000D+00  1.1224498945235D+00 -2.9100578860540D-01
   167  1.6600000000000D+00  1.0936146138380D+00 -2.9683299853357D-01
   168  1.6700000000000D+00  1.0639390384297D+00 -3.0188693911324D-01
   169  1.6800000000000D+00  1.0335040254262D+00 -3.0618421642250D-01
   170  1.6900000000000D+00  1.0023912282623D+00 -3.0974277503792D-01
   171  1.7000000000000D+00  9.7068282760284D-01 -3.1258182284975D-01
   172  1.7100000000000D+00  9.3846126263541D-01 -3.1472175301392D-01
   173  1.7200000000000D+00  9.0580896370320D-01 -3.1618406323865D-01
   174  1.7300000000000D+00  8.7280808699698D-01 -3.1699127267390D-01
   175  1.7400000000000D+00  8.3954025233342D-01 -3.1716683661955D-01
   176  1.7500000000000D+00  8.0608628457383D-01 -3.1673505930813D-01
   177  1.7600000000000D+00  7.7252595981334D-01 -3.1572100499998D-01
   178  1.7700000000000D+00  7.3893775664545D-01 -3.1415040761974D-01
   179  1.7800000000000D+00  7.0539861380616D-01 -3.1204957920449D-01
   180  1.7900000000000D+00  6.7198369415226D-01 -3.0944531734493D-01
   181  1.8000000000000D+00  6.3876615651052D-01 -3.0636481193587D-01
   182  1.8100000000000D+00  6.0581693499336D-01 -3.0283555135603D-01
   183  1.8200000000000D+00  5.7320452742944D-01 -2.9888522843298D-01
   184  1.8300000000000D+00  5.4099479235419D-01 -2.9454164626895D-01
   185  1.8400000000000D+00  5.0925075603099D-01 -2.8983262428400D-01
   186  1.8500000000000D+00  4.7803242908679D-01 -2.8478590455130D-01
   187  1.8600000000000D+00  4.4739663376919D-01 -2.7942905872740D-01
   188  1.8700000000000D+00  4.1739684180661D-01 -2.7378939570453D-01
   189  1.8800000000000D+00  3.8808302255615D-01 -2.6789386998583D-01
   190  1.8900000000000D+00  3.5950150349287D-01 -2.6176899146907D-01
   191  1.9000000000000D+00  3.3169484865504D-01 -2.5544073860607D-01
   192  1.9100000000000D+00  3.0470170540640D-01 -2.4893445894283D-01
   193  1.9200000000000D+00  2.7855679509203D-01 -2.4227481513293D-01
   194  1.9300000000000D+00  2.5329074222711D-01 -2.3548567295194D-01
   195  1.9400000000000D+00  2.2892985551705D-01 -2.2858997904831D-01
   196  1.9500000000000D+00  2.0549626137642D-01 -2.2160974332898D-01
   197  1.9600000000000D+00  1.8300814982896D-01 -2.1456605287726D-01
   198  1.9700000000000D+00  1.6147997854200D-01 -2.0747907793813D-01
   199  1.9800000000000D+00  1.4092268676315D-01 -2.0036810071292D-01
   200  1.9900000000000D+00  1.2134418522468D-01 -1.9325162318592D-01
   201  2.0000000000000D+00  1.0274921548047D-01 -1.8614728450025D-01
   202  2.0100000000000D+00  8.5139393572417D-02 -1.7907184054337D-01
   203  2.0200000000000D+00  6.8513308322501D-02 -1.7204115629944D-01
   204  2.0300000000000D+00  5.2866639810304D-02 -1.6507020412704D-01
   205  2.0400000000000D+00  3.8192238070227D-02 -1.5817305213401D-01
   206  2.0500000000000D+00  2.4480242943295D-02 -1.5136286496211D-01
   207  2.0600000000000D+00  1.1718198047564D-02 -1.4465190360160D-01
   208  2.0700000000000D+00 -1.0882531772897D-04 -1.3805152901113D-01
   209  2.0800000000000D+00 -1.1018098084420D-02 -1.3157220843083D-01
   210  2.0900000000000D+00 -2.1029097673298D-02 -1.2522352433701D-01
   211  2.1000000000000D+00 -3.0163367123521D-02 -1.1901418600803D-01
   212  2.1100000000000D+00 -3.8444370005064D-02 -1.1295204336292D-01
   213  2.1200000000000D+00 -4.5897341645105D-02 -1.0704410316372D-01
   214  2.1300000000000D+00 -5.2549137373991D-02 -1.0129654727436D-01
   215  2.1400000000000D+00 -5.8428078497049D-02 -9.5714752891368D-02
   216  2.1500000000000D+00 -6.3563796789294D-02 -9.0303314633476D-02
   217  2.1600000000000D+00 -6.7987077777474D-02 -8.5066068274234D-02
   218  2.1700000000000D+00 -7.1729704134706D-02 -8.0006116020232D-02
   219  2.1800000000000D+00 -7.4824299256605D-02 -7.5125853167244D-02
   220  2.1900000000000D+00 -7.7304171739511D-02 -7.0426995992283D-02
   221  2.2000000000000D+00 -7.9203162052927D-02 -6.5910610695586D-02
   222  2.2100000000000D+00 -8.0555490760588D-02 -6.1577143333215D-02
   223  2.2200000000000D+00 -8.1395610166677D-02 -5.7426450483429D-02
   224  2.2300000000000D+00 -8.1758059451455D-02 -5.3457830547113D-02
   225  2.2400000000000D+00 -8.1677322875420D-02 -4.9670055657728D-02
   226  2.2500000000000D+00 -8.1187693866202D-02 -4.6061403778515D-02
   227  2.2600000000000D+00 -8.0323143006841D-02 -4.2629691166932D-02
   228  2.2700000000000D+00 -7.9117191580436D-02 -3.9372304919692D-02
   229  2.2800000000000D+00 -7.7602791877263D-02 -3.6286235355267D-02
   230  2.2900000000000D+00 -7.5812212329354D-02 -3.3368108459343D-02
   231  2.3000000000000D+00 -7.3776930377132D-02 -3.0614217886220D-02
   232  2.3100000000000D+00 -7.1527532395721D-02 -2.8020556557368D-02
   233  2.3200000000000D+00 -6.9093619242786D-02 -2.5582848040651D-02
   234  2.3300000000000D+00 -6.6503721531318D-02 -2.3296576964574D-02
   235  2.3400000000000D+00 -6.3785221357376D-02 -2.1157018962846D-02
   236  2.3500000000000D+00 -6.0964281257613D-02 -1.9159269968361D-02
   237  2.3600000000000D+00 -5.8065783192875D-02 -1.7298274299198D-02
   238  2.3700000000000D+00 -5.5113273875044D-02 -1.5568852145538D-02
   239  2.3800000000000D+00 -5.2128918591478D-02 -1.3965726011593D-02
   240  2.3900000000000D+00 -4.9133464545669D-02 -1.2483545862442D-02
   241  2.4000000000000D+00 -4.6146210503310D-02 -1.1116913535171D-02
   242  2.4100000000000D+00 -4.3184985678795D-02 -9.8604057912341D-03
   243  2.4200000000000D+00 -4.0266137261310D-02 -8.7085960694568D-03
   244  2.4300000000000D+00 -3.7404524024756D-02 -7.6560754029783D-03
   245  2.4400000000000D+00 -3.4613519396121D-02 -6.6974717528496D-03
   246  2.4500000000000D+00 -3.1905022044075D-02 -5.8274680989131D-03
   247  2.4600000000000D+00 -2.9289472140555D-02 -5.0408196326669D-03
   248  2.4700000000000D+00 -2.6775876722304D-02 -4.3323692486234D-03
   249  2.4800000000000D+00 -2.4371841332650D-02 -3.6970618869168D-03
   250  2.4900000000000D+00 -2.2083606739366D-02 -3.1299579553574D-03
   251  2.5000000000000D+00 -1.9916093815747D-02 -2.6262450463053D-03
   252  2.5100000000000D+00 -1.7872953434362D-02 -2.1812486162404D-03
   253  2.5200000000000D+00 -1.5956620671090D-02 -1.7904417605323D-03
   254  2.5300000000000D+00 -1.4168375705161D-02 -1.4494533919063D-03
   255  2.5400000000000D+00 -1.2508408494074D-02 -1.1540754966387D-03
   256  2.5500000000000D+00 -1.0975886855634D-02 -9.0026953604256D-04
   257  2.5600000000000D+00 -9.5690293469690D-03 -6.8417146090211D-04
   258  2.5700000000000D+00 -8.2851807256644D-03 -5.0209591586592D-04
   259  2.5800000000000D+00 -7.1208898188367D-03 -3.5053966743706D-04
   260  2.5900000000000D+00 -6.0719900144678D-03 -2.2618393065534D-04
   261  2.6000000000000D+00 -5.1336811525744D-03 -1.2589599822431D-04
   262  2.6100000000000D+00 -4.3006127731100D-03 -4.6730192385282D-05
   263  2.6200000000000D+00 -3.5669677566337D-03  1.4071958916194D-05
   264  2.6300000000000D+00 -2.9265461028105D-03  5.9082117048034D-05
   265  2.6400000000000D+00 -2.3728489993678D-03  9.0686091483215D-05
   266  2.6500000000000D+00 -1.8991612900384D-03  1.1108525973829D-04
   267  2.6600000000000D+00 -1.4986325926857D-03  1.2229839342369D-04
   268  2.6700000000000D+00 -1.1643576509307D-03  1.2616392511745D-04
   269  2.6800000000000D+00 -8.8945367151160D-04  1.2434243491736D-04
   270  2.6900000000000D+00 -6.6713441569216D-04  1.1831930674580D-04
   271  2.7000000000000D+00 -4.9078248715858D-04  1.0940769580646D-04
   272  2.7100000000000D+00 -3.5401812753155D-04  9.8751612561617D-05
   273  2.7200000000000D+00 -2.5077501258752D-04  8.7335881248107D-05
   274  2.7300000000000D+00 -1.7538963807032D-04  7.6005357259806D-05
   275  2.7400000000000D+00 -1.2242430948237D-04  6.5338398541897D-05
   276  2.7500000000000D+00 -8.7022608395335D-05  5.5819444195464D-05
   277  2.7600000000000D+00 -6.4448546848971D-05  4.7441944201008D-05
   278  2.7700000000000D+00 -5.1752239672214D-05  4.1035510184739D-05
   279  2.7800000000000D+00 -4.6184554916339D-05  3.6957172574538D-05
   280  2.7900000000000D+00 -4.6112059626420D-05  3.5890250472989D-05
   281  2.8000000000000D+00 -4.8114016206265D-05  3.6343056611956D-05
   282  2.8100000000000D+00 -4.8025202712984D-05  3.5602880734508D-05
   283  2.8200000000000D+00 -4.2641776294679D-05  3.1338063757309D-05
   284  2.8300000000000D+00 -2.9897100690126D-05  2.1808600271435D-05
   285  2.8400000000000D+00 -1.5036783510114D-05  1.0920027064529D-05
   286  2.8500000000000D+00 -1.6986512358638D-06  1.2304588601280D-06
   287  2.8600000000000D+00  4.0924803954272D-06 -2.9475199500727D-06
   288  2.8700000000000D+00  4.5878495096478D-06 -3.2954123756258D-06
   289  2.8800000000000D+00  2.0072721512891D-06 -1.4386032893873D-06
   290  2.8900000000000D+00 -4.8484293505883D-07  3.5407952962062D-07
   291  2.9000000000000D+00 -1.0610761972928D-06  7.7460258219300D-07
   292  2.9100000000000D+00 -8.0735411601556D-07  5.8918875348161D-07
   293  2.9200000000000D+00 -3.3620774394329D-08  2.4528790704261D-08
   294  2.9300000000000D+00  1.0349269667784D-07 -7.6231770953566D-08
   295  2.9400000000000D+00  1.2277854680445D-07 -9.0437551232666D-08
   296  2.9500000000000D+00  5.6200423525045D-08 -4.1396716398174D-08
   297  2.9600000000000D+00  0.0000000000000D+00  0.0000000000000D+00
   298  2.9700000000000D+00  0.0000000000000D+00  0.0000000000000D+00
   299  2.9800000000000D+00  0.0000000000000D+00  0.0000000000000D+00
   300  2.9900000000000D+00  0.0000000000000D+00  0.0000000000000D+00
   301  3.0000000000000D+00  0.0000000000000D+00  0.0000000000000D+00
   302  3.0100000000000D+00  0.0000000000000D+00  0.0000000000000D+00
   303  3.0200000000000D+00  0.0000000000000D+00  0.0000000000000D+00
   304  3.0300000000000D+00  0.0000000000000D+00  0.0000000000000D+00
   305  3.0400000000000D+00  0.0000000000000D+00  0.0000000000000D+00
   306  3.0500000000000D+00  0.0000000000000D+00  0.0000000000000D+00
   307  3.0600000000000D+00  0.0000000000000D+00  0.0000000000000D+00
   308  3.0700000000000D+00  0.0000000000000D+00  0.0000000000000D+00
   309  3.0800000000000D+00  0.0000000000000D+00  0.0000000000000D+00
   310  3.0900000000000D+00  0.0000000000000D+00  0.0000000000000D+00
   311  3.1000000000000D+00  0.0000000000000D+00  0.0000000000000D+00
   312  3.1100000000000D+00  0.0000000000000D+00  0.0000000000000D+00
   313  3.1200000000000D+00  0.0000000000000D+00  0.0000000000000D+00
   314  3.1300000000000D+00  0.0000000000000D+00  0.0000000000000D+00
   315  3.1400000000000D+00  0.0000000000000D+00  0.0000000000000D+00
   316  3.1500000000000D+00  0.0000000000000D+00  0.0000000000000D+00
   317  3.1600000000000D+00  0.0000000000000D+00  0.0000000000000D+00
   318  3.1700000000000D+00  0.0000000000000D+00  0.0000000000000D+00
   319  3.1800000000000D+00  0.0000000000000D+00  0.0000000000000D+00
   320  3.1900000000000D+00  0.0000000000000D+00  0.0000000000000D+00
   321  3.2000000000000D+00  0.0000000000000D+00  0.0000000000000D+00
   322  3.2100000000000D+00  0.0000000000000D+00  0.0000000000000D+00
   323  3.2200000000000D+00  0.0000000000000D+00  0.0000000000000D+00
   324  3.2300000000000D+00  0.0000000000000D+00  0.0000000000000D+00
   325  3.2400000000000D+00  0.0000000000000D+00  0.0000000000000D+00
   326  3.2500000000000D+00  0.0000000000000D+00  0.0000000000000D+00
   327  3.2600000000000D+00  0.0000000000000D+00  0.0000000000000D+00
   328  3.2700000000000D+00  0.0000000000000D+00  0.0000000000000D+00
   329  3.2800000000000D+00  0.0000000000000D+00  0.0000000000000D+00
   330  3.2900000000000D+00  0.0000000000000D+00  0.0000000000000D+00
   331  3.3000000000000D+00  0.0000000000000D+00  0.0000000000000D+00
   332  3.3100000000000D+00  0.0000000000000D+00  0.0000000000000D+00
   333  3.3200000000000D+00  0.0000000000000D+00  0.0000000000000D+00
   334  3.3300000000000D+00  0.0000000000000D+00  0.0000000000000D+00
   335  3.3400000000000D+00  0.0000000000000D+00  0.0000000000000D+00
   336  3.3500000000000D+00  0.0000000000000D+00  0.0000000000000D+00
   337  3.3600000000000D+00  0.0000000000000D+00  0.0000000000000D+00
   338  3.3700000000000D+00  0.0000000000000D+00  0.0000000000000D+00
   339  3.3800000000000D+00  0.0000000000000D+00  0.0000000000000D+00
   340  3.3900000000000D+00  0.0000000000000D+00  0.0000000000000D+00
   341  3.4000000000000D+00  0.0000000000000D+00  0.0000000000000D+00
   342  3.4100000000000D+00  0.0000000000000D+00  0.0000000000000D+00
   343  3.4200000000000D+00  0.0000000000000D+00  0.0000000000000D+00
   344  3.4300000000000D+00  0.0000000000000D+00  0.0000000000000D+00
   345  3.4400000000000D+00  0.0000000000000D+00  0.0000000000000D+00
   346  3.4500000000000D+00  0.0000000000000D+00  0.0000000000000D+00
   347  3.4600000000000D+00  0.0000000000000D+00  0.0000000000000D+00
   348  3.4700000000000D+00  0.0000000000000D+00  0.0000000000000D+00
   349  3.4800000000000D+00  0.0000000000000D+00  0.0000000000000D+00
   350  3.4900000000000D+00  0.0000000000000D+00  0.0000000000000D+00
   351  3.5000000000000D+00  0.0000000000000D+00  0.0000000000000D+00
   352  3.5100000000000D+00  0.0000000000000D+00  0.0000000000000D+00
   353  3.5200000000000D+00  0.0000000000000D+00  0.0000000000000D+00
   354  3.5300000000000D+00  0.0000000000000D+00  0.0000000000000D+00
   355  3.5400000000000D+00  0.0000000000000D+00  0.0000000000000D+00
   356  3.5500000000000D+00  0.0000000000000D+00  0.0000000000000D+00
   357  3.5600000000000D+00  0.0000000000000D+00  0.0000000000000D+00
   358  3.5700000000000D+00  0.0000000000000D+00  0.0000000000000D+00
   359  3.5800000000000D+00  0.0000000000000D+00  0.0000000000000D+00
   360  3.5900000000000D+00  0.0000000000000D+00  0.0000000000000D+00
   361  3.6000000000000D+00  0.0000000000000D+00  0.0000000000000D+00
   362  3.6100000000000D+00  0.0000000000000D+00  0.0000000000000D+00
   363  3.6200000000000D+00  0.0000000000000D+00  0.0000000000000D+00
   364  3.6300000000000D+00  0.0000000000000D+00  0.0000000000000D+00
   365  3.6400000000000D+00  0.0000000000000D+00  0.0000000000000D+00
   366  3.6500000000000D+00  0.0000000000000D+00  0.0000000000000D+00
   367  3.6600000000000D+00  0.0000000000000D+00  0.0000000000000D+00
   368  3.6700000000000D+00  0.0000000000000D+00  0.0000000000000D+00
   369  3.6800000000000D+00  0.0000000000000D+00  0.0000000000000D+00
   370  3.6900000000000D+00  0.0000000000000D+00  0.0000000000000D+00
   371  3.7000000000000D+00  0.0000000000000D+00  0.0000000000000D+00
   372  3.7100000000000D+00  0.0000000000000D+00  0.0000000000000D+00
   373  3.7200000000000D+00  0.0000000000000D+00  0.0000000000000D+00
   374  3.7300000000000D+00  0.0000000000000D+00  0.0000000000000D+00
   375  3.7400000000000D+00  0.0000000000000D+00  0.0000000000000D+00
   376  3.7500000000000D+00  0.0000000000000D+00  0.0000000000000D+00
   377  3.7600000000000D+00  0.0000000000000D+00  0.0000000000000D+00
   378  3.7700000000000D+00  0.0000000000000D+00  0.0000000000000D+00
   379  3.7800000000000D+00  0.0000000000000D+00  0.0000000000000D+00
   380  3.7900000000000D+00  0.0000000000000D+00  0.0000000000000D+00
   381  3.8000000000000D+00  0.0000000000000D+00  0.0000000000000D+00
   382  3.8100000000000D+00  0.0000000000000D+00  0.0000000000000D+00
   383  3.8200000000000D+00  0.0000000000000D+00  0.0000000000000D+00
   384  3.8300000000000D+00  0.0000000000000D+00  0.0000000000000D+00
   385  3.8400000000000D+00  0.0000000000000D+00  0.0000000000000D+00
   386  3.8500000000000D+00  0.0000000000000D+00  0.0000000000000D+00
   387  3.8600000000000D+00  0.0000000000000D+00  0.0000000000000D+00
   388  3.8700000000000D+00  0.0000000000000D+00  0.0000000000000D+00
   389  3.8800000000000D+00  0.0000000000000D+00  0.0000000000000D+00
   390  3.8900000000000D+00  0.0000000000000D+00  0.0000000000000D+00
   391  3.9000000000000D+00  0.0000000000000D+00  0.0000000000000D+00
   392  3.9100000000000D+00  0.0000000000000D+00  0.0000000000000D+00
   393  3.9200000000000D+00  0.0000000000000D+00  0.0000000000000D+00
   394  3.9300000000000D+00  0.0000000000000D+00  0.0000000000000D+00
   395  3.9400000000000D+00  0.0000000000000D+00  0.0000000000000D+00
   396  3.9500000000000D+00  0.0000000000000D+00  0.0000000000000D+00
   397  3.9600000000000D+00  0.0000000000000D+00  0.0000000000000D+00
   398  3.9700000000000D+00  0.0000000000000D+00  0.0000000000000D+00
   399  3.9800000000000D+00  0.0000000000000D+00  0.0000000000000D+00
   400  3.9900000000000D+00  0.0000000000000D+00  0.0000000000000D+00
   401  4.0000000000000D+00  0.0000000000000D+00  0.0000000000000D+00
   402  4.0100000000000D+00  0.0000000000000D+00  0.0000000000000D+00
   403  4.0200000000000D+00  0.0000000000000D+00  0.0000000000000D+00
   404  4.0300000000000D+00  0.0000000000000D+00  0.0000000000000D+00
   405  4.0400000000000D+00  0.0000000000000D+00  0.0000000000000D+00
   406  4.0500000000000D+00  0.0000000000000D+00  0.0000000000000D+00
   407  4.0600000000000D+00  0.0000000000000D+00  0.0000000000000D+00
   408  4.0700000000000D+00  0.0000000000000D+00  0.0000000000000D+00
   409  4.0800000000000D+00  0.0000000000000D+00  0.0000000000000D+00
   410  4.0900000000000D+00  0.0000000000000D+00  0.0000000000000D+00
   411  4.1000000000000D+00  0.0000000000000D+00  0.0000000000000D+00
   412  4.1100000000000D+00  0.0000000000000D+00  0.0000000000000D+00
   413  4.1200000000000D+00  0.0000000000000D+00  0.0000000000000D+00
   414  4.1300000000000D+00  0.0000000000000D+00  0.0000000000000D+00
   415  4.1400000000000D+00  0.0000000000000D+00  0.0000000000000D+00
   416  4.1500000000000D+00  0.0000000000000D+00  0.0000000000000D+00
   417  4.1600000000000D+00  0.0000000000000D+00  0.0000000000000D+00
   418  4.1700000000000D+00  0.0000000000000D+00  0.0000000000000D+00
   419  4.1800000000000D+00  0.0000000000000D+00  0.0000000000000D+00
   420  4.1900000000000D+00  0.0000000000000D+00  0.0000000000000D+00
   421  4.2000000000000D+00  0.0000000000000D+00  0.0000000000000D+00
   422  4.2100000000000D+00  0.0000000000000D+00  0.0000000000000D+00