Sr    ONCVPSP-3.3.1  r_core=   2.81795   2.68665   2.38455
     38.0000     10.0000      210905    zatom,zion,pspd
     8 -116133   2     4   600     0    pspcod,pspxc,lmax,lloc,mmax,r2well
  5.99000000  0.00000000  0.00000000    rchrg fchrg qchrg
     2     2     2     0     0    nproj
     1     1           extension_switch
   0                         2.8627942079054D+00  4.4387844582117D-01
     1  0.0000000000000D+00  7.5894845963376D-13 -1.9639359583046D-12
     2  1.0000000000000D-02  3.8206367410317D-02 -5.6710593654017D-03
     3  2.0000000000000D-02  7.6379427312301D-02 -1.1326288459724D-02
     4  3.0000000000000D-02  1.1448589688344D-01 -1.6949856399764D-02
     5  4.0000000000000D-02  1.5249254269110D-01 -2.2525931178918D-02
     6  5.0000000000000D-02  1.9036620543283D-01 -2.8038679357091D-02
     7  6.0000000000000D-02  2.2807382473063D-01 -3.3472266051170D-02
     8  7.0000000000000D-02  2.6558246399622D-01 -3.8810855323910D-02
     9  8.0000000000000D-02  3.0285933538357D-01 -4.4038611067155D-02
    10  9.0000000000000D-02  3.3987182484421D-01 -4.9139698472852D-02
    11  1.0000000000000D-01  3.7658751729945D-01 -5.4098286182392D-02
    12  1.1000000000000D-01  4.1297422194244D-01 -5.8898549201450D-02
    13  1.2000000000000D-01  4.4899999768164D-01 -6.3524672663671D-02
    14  1.3000000000000D-01  4.8463317873544D-01 -6.7960856522305D-02
    15  1.4000000000000D-01  5.1984240038596D-01 -7.2191321244164D-02
    16  1.5000000000000D-01  5.5459662489815D-01 -7.6200314575321D-02
    17  1.6000000000000D-01  5.8886516760823D-01 -7.9972119442408D-02
    18  1.7000000000000D-01  6.2261772318316D-01 -8.3491063047596D-02
    19  1.8000000000000D-01  6.5582439205056D-01 -8.6741527209249D-02
    20  1.9000000000000D-01  6.8845570699618D-01 -8.9707959993669D-02
    21  2.0000000000000D-01  7.2048265992319D-01 -9.2374888676699D-02
    22  2.1000000000000D-01  7.5187672876516D-01 -9.4726934066878D-02
    23  2.2000000000000D-01  7.8260990454165D-01 -9.6748826214586D-02
    24  2.3000000000000D-01  8.1265471854271D-01 -9.8425421524154D-02
    25  2.4000000000000D-01  8.4198426962562D-01 -9.9741721278282D-02
    26  2.5000000000000D-01  8.7057225160431D-01 -1.0068289157625D-01
    27  2.6000000000000D-01  8.9839298070904D-01 -1.0123428467955D-01
    28  2.7000000000000D-01  9.2542142309081D-01 -1.0138146175046D-01
    29  2.8000000000000D-01  9.5163322234227D-01 -1.0111021696113D-01
    30  2.9000000000000D-01  9.7700472700361D-01 -1.0040660294245D-01
    31  3.0000000000000D-01  1.0015130180194D+00 -9.9256957534137D-02
    32  3.1000000000000D-01  1.0251359361090D+00 -9.7647931789039D-02
    33  3.2000000000000D-01  1.0478521090108D+00 -9.5566519177079D-02
    34  3.3000000000000D-01  1.0696409785575D+00 -9.3000085926019D-02
    35  3.4000000000000D-01  1.0904828275365D+00 -8.9936402428659D-02
    36  3.5000000000000D-01  1.1103588062884D+00 -8.6363675638399D-02
    37  3.6000000000000D-01  1.1292509589926D+00 -8.2270582367716D-02
    38  3.7000000000000D-01  1.1471422495857D+00 -7.7646303397040D-02
    39  3.8000000000000D-01  1.1640165872607D+00 -7.2480558294346D-02
    40  3.9000000000000D-01  1.1798588514866D+00 -6.6763640839533D-02
    41  4.0000000000000D-01  1.1946549164908D+00 -6.0486454941107D-02
    42  4.1000000000000D-01  1.2083916751434D+00 -5.3640550926682D-02
    43  4.2000000000000D-01  1.2210570621802D+00 -4.6218162083703D-02
    44  4.3000000000000D-01  1.2326400767006D+00 -3.8212241321005D-02
    45  4.4000000000000D-01  1.2431308038758D+00 -2.9616497817629D-02
    46  4.5000000000000D-01  1.2525204358001D+00 -2.0425433520767D-02
    47  4.6000000000000D-01  1.2608012914197D+00 -1.0634379351019D-02
    48  4.7000000000000D-01  1.2679668354701D+00 -2.3953096978708D-04
    49  4.8000000000000D-01  1.2740116963551D+00  1.0762016038996D-02
    50  4.9000000000000D-01  1.2789316828997D+00  2.2372231723072D-02
    51  5.0000000000000D-01  1.2827237999084D+00  3.4592118203715D-02
    52  5.1000000000000D-01  1.2853862624623D+00  4.7421677158178D-02
    53  5.2000000000000D-01  1.2869185088885D+00  6.0859878496197D-02
    54  5.3000000000000D-01  1.2873212123352D+00  7.4904630383993D-02
    55  5.4000000000000D-01  1.2865962908889D+00  8.9552750768454D-02
    56  5.5000000000000D-01  1.2847469161710D+00  1.0479994055292D-01
    57  5.6000000000000D-01  1.2817775203514D+00  1.2064075857432D-01
    58  5.7000000000000D-01  1.2776938015206D+00  1.3706859852861D-01
    59  5.8000000000000D-01  1.2725027273640D+00  1.5407566798859D-01
    60  5.9000000000000D-01  1.2662125370818D+00  1.7165296965444D-01
    61  6.0000000000000D-01  1.2588327415059D+00  1.8979028497278D-01
    62  6.1000000000000D-01  1.2503741213616D+00  2.0847616025567D-01
    63  6.2000000000000D-01  1.2408487236322D+00  2.2769789542463D-01
    64  6.3000000000000D-01  1.2302698559822D+00  2.4744153549971D-01
    65  6.4000000000000D-01  1.2186520792018D+00  2.6769186494601D-01
    66  6.5000000000000D-01  1.2060111976390D+00  2.8843240498366D-01
    67  6.6000000000000D-01  1.1923642475888D+00  3.0964541395899D-01
    68  6.7000000000000D-01  1.1777294836142D+00  3.3131189086682D-01
    69  6.8000000000000D-01  1.1621263627784D+00  3.5341158210465D-01
    70  6.9000000000000D-01  1.1455755267708D+00  3.7592299153101D-01
    71  7.0000000000000D-01  1.1280987819181D+00  3.9882339388987D-01
    72  7.1000000000000D-01  1.1097190770710D+00  4.2208885165360D-01
    73  7.2000000000000D-01  1.0904604793694D+00  4.4569423532636D-01
    74  7.3000000000000D-01  1.0703481478872D+00  4.6961324723913D-01
    75  7.4000000000000D-01  1.0494083051692D+00  4.9381844885648D-01
    76  7.5000000000000D-01  1.0276682066745D+00  5.1828129160414D-01
    77  7.6000000000000D-01  1.0051561081478D+00  5.4297215121459D-01
    78  7.7000000000000D-01  9.8190123094613D-01  5.6786036557646D-01
    79  7.8000000000000D-01  9.5793372535290D-01  5.9291427606146D-01
    80  7.9000000000000D-01  9.3328463191825D-01  6.1810127229072D-01
    81  8.0000000000000D-01  9.0798584087019D-01  6.4338784029033D-01
    82  8.1000000000000D-01  8.8207004964610D-01  6.6873961397368D-01
    83  8.2000000000000D-01  8.5557071860073D-01  6.9412142987636D-01
    84  8.3000000000000D-01  8.2852202495210D-01  7.1949738505716D-01
    85  8.4000000000000D-01  8.0095881503223D-01  7.4483089806700D-01
    86  8.5000000000000D-01  7.7291655491558D-01  7.7008477287561D-01
    87  8.6000000000000D-01  7.4443127950292D-01  7.9522126563454D-01
    88  8.7000000000000D-01  7.1553954014399D-01  8.2020215414360D-01
    89  8.8000000000000D-01  6.8627835088746D-01  8.4498880987658D-01
    90  8.9000000000000D-01  6.5668513345119D-01  8.6954227241187D-01
    91  9.0000000000000D-01  6.2679766101118D-01  8.9382332610277D-01
    92  9.1000000000000D-01  5.9665400091162D-01  9.1779257881260D-01
    93  9.2000000000000D-01  5.6629245640302D-01  9.4141054253019D-01
    94  9.3000000000000D-01  5.3575150751943D-01  9.6463771567226D-01
    95  9.4000000000000D-01  5.0506975120956D-01  9.8743466687072D-01
    96  9.5000000000000D-01  4.7428584084007D-01  1.0097621200353D+00
    97  9.6000000000000D-01  4.4343842519279D-01  1.0315810404739D+00
    98  9.7000000000000D-01  4.1256608708022D-01  1.0528527218475D+00
    99  9.8000000000000D-01  3.8170728170655D-01  1.0735388737290D+00
   100  9.9000000000000D-01  3.5090027490363D-01  1.0936017095318D+00
   101  1.0000000000000D+00  3.2018308137321D-01  1.1130040345670D+00
   102  1.0100000000000D+00  2.8959340306855D-01  1.1317093339880D+00
   103  1.0200000000000D+00  2.5916856784941D-01  1.1496818603726D+00
   104  1.0300000000000D+00  2.2894546854559D-01  1.1668867206963D+00
   105  1.0400000000000D+00  1.9896050256451D-01  1.1832899624459D+00
   106  1.0500000000000D+00  1.6924951217841D-01  1.1988586586204D+00
   107  1.0600000000000D+00  1.3984772562649D-01  1.2135609913713D+00
   108  1.0700000000000D+00  1.1078969916666D-01  1.2273663340293D+00
   109  1.0800000000000D+00  8.2109260210307D-02  1.2402453312717D+00
   110  1.0900000000000D+00  5.3839451672214D-02  1.2521699771839D+00
   111  1.1000000000000D+00  2.6012477665836D-02  1.2631136909724D+00
   112  1.1100000000000D+00 -1.3403493282376D-03  1.2730513900942D+00
   113  1.1200000000000D+00 -2.8188659695398D-02  1.2819595605674D+00
   114  1.1300000000000D+00 -5.4503076199523D-02  1.2898163242388D+00
   115  1.1400000000000D+00 -8.0255261655829D-02  1.2966015027878D+00
   116  1.1500000000000D+00 -1.0541796464931D-01  1.3022966782555D+00
   117  1.1600000000000D+00 -1.2996506318802D-01  1.3068852498947D+00
   118  1.1700000000000D+00 -1.5387160618456D-01  1.3103524871481D+00
   119  1.1800000000000D+00 -1.7711385266406D-01  1.3126855785674D+00
   120  1.1900000000000D+00 -1.9966930860259D-01  1.3138736765013D+00
   121  1.2000000000000D+00 -2.2151676130575D-01  1.3139079373917D+00
   122  1.2100000000000D+00 -2.4263631124038D-01  1.3127815575208D+00
   123  1.2200000000000D+00 -2.6300940124189D-01  1.3104898040767D+00
   124  1.2300000000000D+00 -2.8261884302444D-01  1.3070300414101D+00
   125  1.2400000000000D+00 -3.0144884092674D-01  1.3024017523684D+00
   126  1.2500000000000D+00 -3.1948501283387D-01  1.2966065546092D+00
   127  1.2600000000000D+00 -3.3671440822409D-01  1.2896482118121D+00
   128  1.2700000000000D+00 -3.5312552329416D-01  1.2815326397169D+00
   129  1.2800000000000D+00 -3.6870831312378D-01  1.2722679069317D+00
   130  1.2900000000000D+00 -3.8345420085163D-01  1.2618642304782D+00
   131  1.3000000000000D+00 -3.9735608383775D-01  1.2503339660466D+00
   132  1.3100000000000D+00 -4.1040833679531D-01  1.2376915929474D+00
   133  1.3200000000000D+00 -4.2260681188884D-01  1.2239536937804D+00
   134  1.3300000000000D+00 -4.3394883579399D-01  1.2091389288315D+00
   135  1.3400000000000D+00 -4.4443320372717D-01  1.1932680052399D+00
   136  1.3500000000000D+00 -4.5406017046607D-01  1.1763636410000D+00
   137  1.3600000000000D+00 -4.6283143837483D-01  1.1584505238513D+00
   138  1.3700000000000D+00 -4.7075014247181D-01  1.1395552651535D+00
   139  1.3800000000000D+00 -4.7782083257865D-01  1.1197063488508D+00
   140  1.3900000000000D+00 -4.8404945258768D-01  1.0989340756227D+00
   141  1.4000000000000D+00 -4.8944331691345D-01  1.0772705023743D+00
   142  1.4100000000000D+00 -4.9401108417777D-01  1.0547493771921D+00
   143  1.4200000000000D+00 -4.9776272819912D-01  1.0314060699266D+00
   144  1.4300000000000D+00 -5.0070950636595D-01  1.0072774985852D+00
   145  1.4400000000000D+00 -5.0286392546035D-01  9.8240205169032D-01
   146  1.4500000000000D+00 -5.0423970503572D-01  9.5681950682989D-01
   147  1.4600000000000D+00 -5.0485173842648D-01  9.3057094557848D-01
   148  1.4700000000000D+00 -5.0471605149590D-01  9.0369866502056D-01
   149  1.4800000000000D+00 -5.0384975922607D-01  8.7624608610081D-01
   150  1.4900000000000D+00 -5.0227102024990D-01  8.4825765902282D-01
   151  1.5000000000000D+00 -4.9999898945379D-01  8.1977876596361D-01
   152  1.5100000000000D+00 -4.9705376874948D-01  7.9085562132349D-01
   153  1.5200000000000D+00 -4.9345635615525D-01  7.6153516979733D-01
   154  1.5300000000000D+00 -4.8922859329667D-01  7.3186498250596D-01
   155  1.5400000000000D+00 -4.8439311146481D-01  7.0189315146947D-01
   156  1.5500000000000D+00 -4.7897327635786D-01  6.7166818268370D-01
   157  1.5600000000000D+00 -4.7299313164054D-01  6.4123888807756D-01
   158  1.5700000000000D+00 -4.6647734145776D-01  6.1065427662186D-01
   159  1.5800000000000D+00 -4.5945113203658D-01  5.7996344487059D-01
   160  1.5900000000000D+00 -4.5194023251617D-01  5.4921546719864D-01
   161  1.6000000000000D+00 -4.4397081514334D-01  5.1845928602815D-01
   162  1.6100000000000D+00 -4.3556943496973D-01  4.8774360228740D-01
   163  1.6200000000000D+00 -4.2676296919392D-01  4.5711676640680D-01
   164  1.6300000000000D+00 -4.1757855627705D-01  4.2662667007230D-01
   165  1.6400000000000D+00 -4.0804353497953D-01  3.9632063904479D-01
   166  1.6500000000000D+00 -3.9818538343884D-01  3.6624532724438D-01
   167  1.6600000000000D+00 -3.8803165843767D-01  3.3644661240358D-01
   168  1.6700000000000D+00 -3.7760993497312D-01  3.0696949346630D-01
   169  1.6800000000000D+00 -3.6694774627551D-01  2.7785799002769D-01
   170  1.6900000000000D+00 -3.5607252437666D-01  2.4915504396509D-01
   171  1.7000000000000D+00 -3.4501154137499D-01  2.2090242354666D-01
   172  1.7100000000000D+00 -3.3379185148284D-01  1.9314063013194D-01
   173  1.7200000000000D+00 -3.2244023400381D-01  1.6590880774853D-01
   174  1.7300000000000D+00 -3.1098313730548D-01  1.3924465560880D-01
   175  1.7400000000000D+00 -2.9944662394015D-01  1.1318434386003D-01
   176  1.7500000000000D+00 -2.8785631695036D-01  8.7762432562316D-02
   177  1.7600000000000D+00 -2.7623734752435D-01  6.3011794214476D-02
   178  1.7700000000000D+00 -2.6461430399849D-01  3.8963539728368D-02
   179  1.7800000000000D+00 -2.5301118239443D-01  1.5646948221390D-02
   180  1.7900000000000D+00 -2.4145133843659D-01 -6.9105995913293D-03
   181  1.8000000000000D+00 -2.2995744126535D-01 -2.8683683975787D-02
   182  1.8100000000000D+00 -2.1855142874666D-01 -4.9648905047098D-02
   183  1.8200000000000D+00 -2.0725446459584D-01 -6.9784937500142D-02
   184  1.8300000000000D+00 -1.9608689720815D-01 -8.9072581531372D-02
   185  1.8400000000000D+00 -1.8506822037499D-01 -1.0749480962343D-01
   186  1.8500000000000D+00 -1.7421703580818D-01 -1.2503680944593D-01
   187  1.8600000000000D+00 -1.6355101757836D-01 -1.4168602271454D-01
   188  1.8700000000000D+00 -1.5308687844984D-01 -1.5743218012353D-01
   189  1.8800000000000D+00 -1.4284033811691D-01 -1.7226733241984D-01
   190  1.8900000000000D+00 -1.3282609341043D-01 -1.8618587754531D-01
   191  1.9000000000000D+00 -1.2305779035710D-01 -1.9918458417613D-01
   192  1.9100000000000D+00 -1.1354799825521D-01 -2.1126261139109D-01
   193  1.9200000000000D+00 -1.0430818554736D-01 -2.2242152500106D-01
   194  1.9300000000000D+00 -9.5348697687484D-02 -2.3266531021584D-01
   195  1.9400000000000D+00 -8.6678736786207D-02 -2.4200038115843D-01
   196  1.9500000000000D+00 -7.8306342423080D-02 -2.5043558935100D-01
   197  1.9600000000000D+00 -7.0238376637002D-02 -2.5798222167199D-01
   198  1.9700000000000D+00 -6.2480511208367D-02 -2.6465399371609D-01
   199  1.9800000000000D+00 -5.5037191106387D-02 -2.7046711973817D-01
   200  1.9900000000000D+00 -4.7911690573774D-02 -2.7544009982780D-01
   201  2.0000000000000D+00 -4.1106046591099D-02 -2.7959388275399D-01
   202  2.0100000000000D+00 -3.4620966671936D-02 -2.8295212563055D-01
   203  2.0200000000000D+00 -2.8455936568455D-02 -2.8554082137432D-01
   204  2.0300000000000D+00 -2.2609406151443D-02 -2.8738768177159D-01
   205  2.0400000000000D+00 -1.7078926812424D-02 -2.8852167528721D-01
   206  2.0500000000000D+00 -1.1861279299755D-02 -2.8897265129213D-01
   207  2.0600000000000D+00 -6.9527570511435D-03 -2.8877046007052D-01
   208  2.0700000000000D+00 -2.3491331041290D-03 -2.8794507841766D-01
   209  2.0800000000000D+00  1.9543451485109D-03 -2.8652665761755D-01
   210  2.0900000000000D+00  5.9629544053724D-03 -2.8454555312117D-01
   211  2.1000000000000D+00  9.6824192942431D-03 -2.8203210727909D-01
   212  2.1100000000000D+00  1.3118907050188D-02 -2.7901666640012D-01
   213  2.1200000000000D+00  1.6278992122880D-02 -2.7552950111332D-01
   214  2.1300000000000D+00  1.9169627757979D-02 -2.7160075032871D-01
   215  2.1400000000000D+00  2.1798117522027D-02 -2.6726036607580D-01
   216  2.1500000000000D+00  2.4172086607282D-02 -2.6253805860264D-01
   217  2.1600000000000D+00  2.6299453195111D-02 -2.5746324262644D-01
   218  2.1700000000000D+00  2.8188400115865D-02 -2.5206498536367D-01
   219  2.1800000000000D+00  2.9847346725902D-02 -2.4637195607472D-01
   220  2.1900000000000D+00  3.1284921066361D-02 -2.4041237726314D-01
   221  2.2000000000000D+00  3.2509932470130D-02 -2.3421397795849D-01
   222  2.2100000000000D+00  3.3531344468394D-02 -2.2780394861776D-01
   223  2.2200000000000D+00  3.4358248213001D-02 -2.2120889821873D-01
   224  2.2300000000000D+00  3.4999836395140D-02 -2.1445481344638D-01
   225  2.2400000000000D+00  3.5465377585123D-02 -2.0756701970979D-01
   226  2.2500000000000D+00  3.5764191271360D-02 -2.0057014475068D-01
   227  2.2600000000000D+00  3.5905623383565D-02 -1.9348808417333D-01
   228  2.2700000000000D+00  3.5899022438385D-02 -1.8634396925285D-01
   229  2.2800000000000D+00  3.5753716399274D-02 -1.7916013724707D-01
   230  2.2900000000000D+00  3.5478990093823D-02 -1.7195810369990D-01
   231  2.3000000000000D+00  3.5084063384620D-02 -1.6475853727435D-01
   232  2.3100000000000D+00  3.4578070047462D-02 -1.5758123693027D-01
   233  2.3200000000000D+00  3.3970037277565D-02 -1.5044511115377D-01
   234  2.3300000000000D+00  3.3268866033883D-02 -1.4336815983778D-01
   235  2.3400000000000D+00  3.2483312065973D-02 -1.3636745828300D-01
   236  2.3500000000000D+00  3.1621967665781D-02 -1.2945914339620D-01
   237  2.3600000000000D+00  3.0693244243712D-02 -1.2265840236407D-01
   238  2.3700000000000D+00  2.9705355618612D-02 -1.1597946338238D-01
   239  2.3800000000000D+00  2.8666302084617D-02 -1.0943558860206D-01
   240  2.3900000000000D+00  2.7583855266827D-02 -1.0303906929884D-01
   241  2.4000000000000D+00  2.6465543749908D-02 -9.6801223110646D-02
   242  2.4100000000000D+00  2.5318639484363D-02 -9.0732393362506D-02
   243  2.4200000000000D+00  2.4150144967015D-02 -8.4841950412818D-02
   244  2.4300000000000D+00  2.2966781263689D-02 -7.9138295102822D-02
   245  2.4400000000000D+00  2.1774976773678D-02 -7.3628864056156D-02
   246  2.4500000000000D+00  2.0580856789967D-02 -6.8320136889879D-02
   247  2.4600000000000D+00  1.9390233976578D-02 -6.3217645575113D-02
   248  2.4700000000000D+00  1.8208599538788D-02 -5.8325985364730D-02
   249  2.4800000000000D+00  1.7041115251747D-02 -5.3648827630040D-02
   250  2.4900000000000D+00  1.5892606476612D-02 -4.9188934878181D-02
   251  2.5000000000000D+00  1.4767555849176D-02 -4.4948177117835D-02
   252  2.5100000000000D+00  1.3670097920061D-02 -4.0927550211854D-02
   253  2.5200000000000D+00  1.2604014831419D-02 -3.7127196385052D-02
   254  2.5300000000000D+00  1.1572732729117D-02 -3.3546426068167D-02
   255  2.5400000000000D+00  1.0579319223988D-02 -3.0183741820040D-02
   256  2.5500000000000D+00  9.6264818954890D-03 -2.7036864270581D-02
   257  2.5600000000000D+00  8.7165677273980D-03 -2.4102759722858D-02
   258  2.5700000000000D+00  7.8515636634785D-03 -2.1377669859035D-02
   259  2.5800000000000D+00  7.0330981457214D-03 -1.8857143171285D-02
   260  2.5900000000000D+00  6.2624439277389D-03 -1.6536068741711D-02
   261  2.6000000000000D+00  5.5405220392143D-03 -1.4408712052650D-02
   262  2.6100000000000D+00  4.8679065949682D-03 -1.2468752038732D-02
   263  2.6200000000000D+00  4.2448312939948D-03 -1.0709321355945D-02
   264  2.6300000000000D+00  3.6711971000083D-03 -9.1230486052334D-03
   265  2.6400000000000D+00  3.1465805588825D-03 -7.7021011533342D-03
   266  2.6500000000000D+00  2.6702440907753D-03 -6.4382317170715D-03
   267  2.6600000000000D+00  2.2411476069778D-03 -5.3228270997882D-03
   268  2.6700000000000D+00  1.8579605174774D-03 -4.3469567997616D-03
   269  2.6800000000000D+00  1.5190755621242D-03 -3.5014248684895D-03
   270  2.6900000000000D+00  1.2226243758354D-03 -2.7768247513369D-03
   271  2.7000000000000D+00  9.6649318726835D-04 -2.1635932589479D-03
   272  2.7100000000000D+00  7.4833951045387D-04 -1.6520656666419D-03
   273  2.7200000000000D+00  5.6560951357258D-04 -1.2325367069715D-03
   274  2.7300000000000D+00  4.1555059277931D-04 -8.9532345248606D-04
   275  2.7400000000000D+00  2.9527147042528D-04 -6.3078866465461D-04
   276  2.7500000000000D+00  2.0171149425945D-04 -4.2944347416840D-04
   277  2.7600000000000D+00  1.3153277915916D-04 -2.8158056519611D-04
   278  2.7700000000000D+00  8.1624592948243D-05 -1.7880422724223D-04
   279  2.7800000000000D+00  4.8670805680536D-05 -1.1268209788475D-04
   280  2.7900000000000D+00  2.9687786810659D-05 -7.6046490120504D-05
   281  2.8000000000000D+00  2.0599130030840D-05 -5.9336464053256D-05
   282  2.8100000000000D+00  1.6792982418085D-05 -5.1903435470378D-05
   283  2.8200000000000D+00  1.4345049451305D-05 -4.4960625143961D-05
   284  2.8300000000000D+00  1.0042236648542D-05 -3.1536172596424D-05
   285  2.8400000000000D+00  5.2093433090589D-06 -1.6224567816169D-05
   286  2.8500000000000D+00  6.8325145403341D-07 -2.1037211054710D-06
   287  2.8600000000000D+00 -1.2261381062461D-06  3.9961609443102D-06
   288  2.8700000000000D+00 -1.4045080505731D-06  4.5795667720572D-06
   289  2.8800000000000D+00 -6.3495231695700D-07  2.0693695266495D-06
   290  2.8900000000000D+00  1.2890582750689D-07 -4.3467143523268D-07
   291  2.9000000000000D+00  2.9253547557702D-07 -9.9038074788030D-07
   292  2.9100000000000D+00  2.2525316979548D-07 -7.6521882488429D-07
   293  2.9200000000000D+00  1.4646523001234D-08 -4.9905044079138D-08
   294  2.9300000000000D+00 -3.4341469807551D-08  1.0733544608356D-07
   295  2.9400000000000D+00 -4.1605656106654D-08  1.3003991042995D-07
   296  2.9500000000000D+00 -1.9702068575235D-08  6.1579493572714D-08
   297  2.9600000000000D+00  0.0000000000000D+00  0.0000000000000D+00
   298  2.9700000000000D+00  0.0000000000000D+00  0.0000000000000D+00
   299  2.9800000000000D+00  0.0000000000000D+00  0.0000000000000D+00
   300  2.9900000000000D+00  0.0000000000000D+00  0.0000000000000D+00
   301  3.0000000000000D+00  0.0000000000000D+00  0.0000000000000D+00
   302  3.0100000000000D+00  0.0000000000000D+00  0.0000000000000D+00
   303  3.0200000000000D+00  0.0000000000000D+00  0.0000000000000D+00
   304  3.0300000000000D+00  0.0000000000000D+00  0.0000000000000D+00
   305  3.0400000000000D+00  0.0000000000000D+00  0.0000000000000D+00
   306  3.0500000000000D+00  0.0000000000000D+00  0.0000000000000D+00
   307  3.0600000000000D+00  0.0000000000000D+00  0.0000000000000D+00
   308  3.0700000000000D+00  0.0000000000000D+00  0.0000000000000D+00
   309  3.0800000000000D+00  0.0000000000000D+00  0.0000000000000D+00
   310  3.0900000000000D+00  0.0000000000000D+00  0.0000000000000D+00
   311  3.1000000000000D+00  0.0000000000000D+00  0.0000000000000D+00
   312  3.1100000000000D+00  0.0000000000000D+00  0.0000000000000D+00
   313  3.1200000000000D+00  0.0000000000000D+00  0.0000000000000D+00
   314  3.1300000000000D+00  0.0000000000000D+00  0.0000000000000D+00
   315  3.1400000000000D+00  0.0000000000000D+00  0.0000000000000D+00
   316  3.1500000000000D+00  0.0000000000000D+00  0.0000000000000D+00
   317  3.1600000000000D+00  0.0000000000000D+00  0.0000000000000D+00
   318  3.1700000000000D+00  0.0000000000000D+00  0.0000000000000D+00
   319  3.1800000000000D+00  0.0000000000000D+00  0.0000000000000D+00
   320  3.1900000000000D+00  0.0000000000000D+00  0.0000000000000D+00
   321  3.2000000000000D+00  0.0000000000000D+00  0.0000000000000D+00
   322  3.2100000000000D+00  0.0000000000000D+00  0.0000000000000D+00
   323  3.2200000000000D+00  0.0000000000000D+00  0.0000000000000D+00
   324  3.2300000000000D+00  0.0000000000000D+00  0.0000000000000D+00
   325  3.2400000000000D+00  0.0000000000000D+00  0.0000000000000D+00
   326  3.2500000000000D+00  0.0000000000000D+00  0.0000000000000D+00
   327  3.2600000000000D+00  0.0000000000000D+00  0.0000000000000D+00
   328  3.2700000000000D+00  0.0000000000000D+00  0.0000000000000D+00
   329  3.2800000000000D+00  0.0000000000000D+00  0.0000000000000D+00
   330  3.2900000000000D+00  0.0000000000000D+00  0.0000000000000D+00
   331  3.3000000000000D+00  0.0000000000000D+00  0.0000000000000D+00
   332  3.3100000000000D+00  0.0000000000000D+00  0.0000000000000D+00
   333  3.3200000000000D+00  0.0000000000000D+00  0.0000000000000D+00
   334  3.3300000000000D+00  0.0000000000000D+00  0.0000000000000D+00
   335  3.3400000000000D+00  0.0000000000000D+00  0.0000000000000D+00
   336  3.3500000000000D+00  0.0000000000000D+00  0.0000000000000D+00
   337  3.3600000000000D+00  0.0000000000000D+00  0.0000000000000D+00
   338  3.3700000000000D+00  0.0000000000000D+00  0.0000000000000D+00
   339  3.3800000000000D+00  0.0000000000000D+00  0.0000000000000D+00
   340  3.3900000000000D+00  0.0000000000000D+00  0.0000000000000D+00
   341  3.4000000000000D+00  0.0000000000000D+00  0.0000000000000D+00
   342  3.4100000000000D+00  0.0000000000000D+00  0.0000000000000D+00
   343  3.4200000000000D+00  0.0000000000000D+00  0.0000000000000D+00
   344  3.4300000000000D+00  0.0000000000000D+00  0.0000000000000D+00
   345  3.4400000000000D+00  0.0000000000000D+00  0.0000000000000D+00
   346  3.4500000000000D+00  0.0000000000000D+00  0.0000000000000D+00
   347  3.4600000000000D+00  0.0000000000000D+00  0.0000000000000D+00
   348  3.4700000000000D+00  0.0000000000000D+00  0.0000000000000D+00
   349  3.4800000000000D+00  0.0000000000000D+00  0.0000000000000D+00
   350  3.4900000000000D+00  0.0000000000000D+00  0.0000000000000D+00
   351  3.5000000000000D+00  0.0000000000000D+00  0.0000000000000D+00
   352  3.5100000000000D+00  0.0000000000000D+00  0.0000000000000D+00
   353  3.5200000000000D+00  0.0000000000000D+00  0.0000000000000D+00
   354  3.5300000000000D+00  0.0000000000000D+00  0.0000000000000D+00
   355  3.5400000000000D+00  0.0000000000000D+00  0.0000000000000D+00
   356  3.5500000000000D+00  0.0000000000000D+00  0.0000000000000D+00
   357  3.5600000000000D+00  0.0000000000000D+00  0.0000000000000D+00
   358  3.5700000000000D+00  0.0000000000000D+00  0.0000000000000D+00
   359  3.5800000000000D+00  0.0000000000000D+00  0.0000000000000D+00
   360  3.5900000000000D+00  0.0000000000000D+00  0.0000000000000D+00
   361  3.6000000000000D+00  0.0000000000000D+00  0.0000000000000D+00
   362  3.6100000000000D+00  0.0000000000000D+00  0.0000000000000D+00
   363  3.6200000000000D+00  0.0000000000000D+00  0.0000000000000D+00
   364  3.6300000000000D+00  0.0000000000000D+00  0.0000000000000D+00
   365  3.6400000000000D+00  0.0000000000000D+00  0.0000000000000D+00
   366  3.6500000000000D+00  0.0000000000000D+00  0.0000000000000D+00
   367  3.6600000000000D+00  0.0000000000000D+00  0.0000000000000D+00
   368  3.6700000000000D+00  0.0000000000000D+00  0.0000000000000D+00
   369  3.6800000000000D+00  0.0000000000000D+00  0.0000000000000D+00
   370  3.6900000000000D+00  0.0000000000000D+00  0.0000000000000D+00
   371  3.7000000000000D+00  0.0000000000000D+00  0.0000000000000D+00
   372  3.7100000000000D+00  0.0000000000000D+00  0.0000000000000D+00
   373  3.7200000000000D+00  0.0000000000000D+00  0.0000000000000D+00
   374  3.7300000000000D+00  0.0000000000000D+00  0.0000000000000D+00
   375  3.7400000000000D+00  0.0000000000000D+00  0.0000000000000D+00
   376  3.7500000000000D+00  0.0000000000000D+00  0.0000000000000D+00
   377  3.7600000000000D+00  0.0000000000000D+00  0.0000000000000D+00
   378  3.7700000000000D+00  0.0000000000000D+00  0.0000000000000D+00
   379  3.7800000000000D+00  0.0000000000000D+00  0.0000000000000D+00
   380  3.7900000000000D+00  0.0000000000000D+00  0.0000000000000D+00
   381  3.8000000000000D+00  0.0000000000000D+00  0.0000000000000D+00
   382  3.8100000000000D+00  0.0000000000000D+00  0.0000000000000D+00
   383  3.8200000000000D+00  0.0000000000000D+00  0.0000000000000D+00
   384  3.8300000000000D+00  0.0000000000000D+00  0.0000000000000D+00
   385  3.8400000000000D+00  0.0000000000000D+00  0.0000000000000D+00
   386  3.8500000000000D+00  0.0000000000000D+00  0.0000000000000D+00
   387  3.8600000000000D+00  0.0000000000000D+00  0.0000000000000D+00
   388  3.8700000000000D+00  0.0000000000000D+00  0.0000000000000D+00
   389  3.8800000000000D+00  0.0000000000000D+00  0.0000000000000D+00
   390  3.8900000000000D+00  0.0000000000000D+00  0.0000000000000D+00
   391  3.9000000000000D+00  0.0000000000000D+00  0.0000000000000D+00
   392  3.9100000000000D+00  0.0000000000000D+00  0.0000000000000D+00
   393  3.9200000000000D+00  0.0000000000000D+00  0.0000000000000D+00
   394  3.9300000000000D+00  0.0000000000000D+00  0.0000000000000D+00
   395  3.9400000000000D+00  0.0000000000000D+00  0.0000000000000D+00
   396  3.9500000000000D+00  0.0000000000000D+00  0.0000000000000D+00
   397  3.9600000000000D+00  0.0000000000000D+00  0.0000000000000D+00
   398  3.9700000000000D+00  0.0000000000000D+00  0.0000000000000D+00
   399  3.9800000000000D+00  0.0000000000000D+00  0.0000000000000D+00
   400  3.9900000000000D+00  0.0000000000000D+00  0.0000000000000D+00
   401  4.0000000000000D+00  0.0000000000000D+00  0.0000000000000D+00
   402  4.0100000000000D+00  0.0000000000000D+00  0.0000000000000D+00
   403  4.0200000000000D+00  0.0000000000000D+00  0.0000000000000D+00
   404  4.0300000000000D+00  0.0000000000000D+00  0.0000000000000D+00
   405  4.0400000000000D+00  0.0000000000000D+00  0.0000000000000D+00
   406  4.0500000000000D+00  0.0000000000000D+00  0.0000000000000D+00
   407  4.0600000000000D+00  0.0000000000000D+00  0.0000000000000D+00
   408  4.0700000000000D+00  0.0000000000000D+00  0.0000000000000D+00
   409  4.0800000000000D+00  0.0000000000000D+00  0.0000000000000D+00
   410  4.0900000000000D+00  0.0000000000000D+00  0.0000000000000D+00
   411  4.1000000000000D+00  0.0000000000000D+00  0.0000000000000D+00
   412  4.1100000000000D+00  0.0000000000000D+00  0.0000000000000D+00
   413  4.1200000000000D+00  0.0000000000000D+00  0.0000000000000D+00
   414  4.1300000000000D+00  0.0000000000000D+00  0.0000000000000D+00
   415  4.1400000000000D+00  0.0000000000000D+00  0.0000000000000D+00
   416  4.1500000000000D+00  0.0000000000000D+00  0.0000000000000D+00
   417  4.1600000000000D+00  0.0000000000000D+00  0.0000000000000D+00
   418  4.1700000000000D+00  0.0000000000000D+00  0.0000000000000D+00
   419  4.1800000000000D+00  0.0000000000000D+00  0.0000000000000D+00
   420  4.1900000000000D+00  0.0000000000000D+00  0.0000000000000D+00
   421  4.2000000000000D+00  0.0000000000000D+00  0.0000000000000D+00
   422  4.2100000000000D+00  0.0000000000000D+00  0.0000000000000D+00