Tc    ONCVPSP-3.3.1  r_core=   2.46076   2.58101   2.67505
     43.0000     15.0000      210905    zatom,zion,pspd
     8 -116133   2     4   600     0    pspcod,pspxc,lmax,lloc,mmax,r2well
  5.99000000  0.00000000  0.00000000    rchrg fchrg qchrg
     2     4     3     0    nproj
     3     1           extension_switch
     4     4     0    nprojso
   0                         8.6425259462735D-01  4.4264711905678D+00
     1  0.0000000000000D+00 -8.3083678825702D-12  2.2987722836376D-12
     2  1.0000000000000D-02 -4.6303423910862D-03  4.9792837804031D-02
     3  2.0000000000000D-02 -9.2405250684798D-03  9.9523478663044D-02
     4  3.0000000000000D-02 -1.3810364909968D-02  1.4912979820014D-01
     5  4.0000000000000D-02 -1.8319632351846D-02  1.9854981718169D-01
     6  5.0000000000000D-02 -2.2748029104937D-02  2.4772177410597D-01
     7  6.0000000000000D-02 -2.7075166988900D-02  2.9658419781057D-01
     8  7.0000000000000D-02 -3.1280548247854D-02  3.4507598010221D-01
     9  8.0000000000000D-02 -3.5343547702084D-02  3.9313644841017D-01
    10  9.0000000000000D-02 -3.9243397080299D-02  4.4070543846191D-01
    11  1.0000000000000D-01 -4.2959171864647D-02  4.8772336697587D-01
    12  1.1000000000000D-01 -4.6469780966497D-02  5.3413130436277D-01
    13  1.2000000000000D-01 -4.9753959534984D-02  5.7987104742218D-01
    14  1.3000000000000D-01 -5.2790265182394D-02  6.2488519201636D-01
    15  1.4000000000000D-01 -5.5557077890955D-02  6.6911720569802D-01
    16  1.5000000000000D-01 -5.8032603844302D-02  7.1251150026289D-01
    17  1.6000000000000D-01 -6.0194883404070D-02  7.5501350419206D-01
    18  1.7000000000000D-01 -6.2021803427854D-02  7.9656973494212D-01
    19  1.8000000000000D-01 -6.3491114099010D-02  8.3712787103480D-01
    20  1.9000000000000D-01 -6.4580450411918D-02  8.7663682389045D-01
    21  2.0000000000000D-01 -6.5267358428212D-02  9.1504680934223D-01
    22  2.1000000000000D-01 -6.5529326390329D-02  9.5230941876067D-01
    23  2.2000000000000D-01 -6.5343820748712D-02  9.8837768971008D-01
    24  2.3000000000000D-01 -6.4688327128227D-02  1.0232061760508D+00
    25  2.4000000000000D-01 -6.3540396227737D-02  1.0567510173931D+00
    26  2.5000000000000D-01 -6.1877694614960D-02  1.0889700078010D+00
    27  2.6000000000000D-01 -5.9678060346310D-02  1.1198226636352D+00
    28  2.7000000000000D-01 -5.6919563308880D-02  1.1492702904183D+00
    29  2.8000000000000D-01 -5.3580570149108D-02  1.1772760485963D+00
    30  2.9000000000000D-01 -4.9639813620177D-02  1.2038050180628D+00
    31  3.0000000000000D-01 -4.5076466147900D-02  1.2288242613063D+00
    32  3.1000000000000D-01 -3.9870217383015D-02  1.2523028850322D+00
    33  3.2000000000000D-01 -3.4001355476496D-02  1.2742121001063D+00
    34  3.3000000000000D-01 -2.7450851784025D-02  1.2945252796585D+00
    35  3.4000000000000D-01 -2.0200448675988D-02  1.3132180151806D+00
    36  3.5000000000000D-01 -1.2232750100912D-02  1.3302681704472D+00
    37  3.6000000000000D-01 -3.5313145228025D-03  1.3456559330817D+00
    38  3.7000000000000D-01  5.9192501731882D-03  1.3593638635889D+00
    39  3.8000000000000D-01  1.6133190236662D-02  1.3713769416680D+00
    40  3.9000000000000D-01  2.7123508522326D-02  1.3816826096199D+00
    41  4.0000000000000D-01  3.8901866348536D-02  1.3902708126607D+00
    42  4.1000000000000D-01  5.1478485236685D-02  1.3971340359485D+00
    43  4.2000000000000D-01  6.4862049041261D-02  1.4022673381358D+00
    44  4.3000000000000D-01  7.9059606994801D-02  1.4056683812544D+00
    45  4.4000000000000D-01  9.4076478204440D-02  1.4073374567457D+00
    46  4.5000000000000D-01  1.0991615814658D-01  1.4072775074489D+00
    47  4.6000000000000D-01  1.2658022771355D-01  1.4054941453628D+00
    48  4.7000000000000D-01  1.4406826537063D-01  1.4019956650040D+00
    49  4.8000000000000D-01  1.6237776298413D-01  1.3967930521848D+00
    50  4.9000000000000D-01  1.8150404587959D-01  1.3898999880456D+00
    51  5.0000000000000D-01  2.0144019768634D-01  1.3813328481798D+00
    52  5.1000000000000D-01  2.2217699051720D-01  1.3711106966986D+00
    53  5.2000000000000D-01  2.4370282102290D-01  1.3592552750958D+00
    54  5.3000000000000D-01  2.6600365284819D-01  1.3457909857765D+00
    55  5.4000000000000D-01  2.8906296600095D-01  1.3307448701322D+00
    56  5.5000000000000D-01  3.1286171362729D-01  1.3141465810519D+00
    57  5.6000000000000D-01  3.3737828666405D-01  1.2960283497757D+00
    58  5.7000000000000D-01  3.6258848681586D-01  1.2764249470094D+00
    59  5.8000000000000D-01  3.8846550827696D-01  1.2553736382362D+00
    60  5.9000000000000D-01  4.1497992858769D-01  1.2329141331752D+00
    61  6.0000000000000D-01  4.4209970898342D-01  1.2090885293569D+00
    62  6.1000000000000D-01  4.6979020455822D-01  1.1839412498000D+00
    63  6.2000000000000D-01  4.9801418452821D-01  1.1575189747961D+00
    64  6.3000000000000D-01  5.2673186283934D-01  1.1298705678249D+00
    65  6.4000000000000D-01  5.5590093932266D-01  1.1010469956447D+00
    66  6.5000000000000D-01  5.8547665155562D-01  1.0711012426235D+00
    67  6.6000000000000D-01  6.1541183754227D-01  1.0400882193939D+00
    68  6.7000000000000D-01  6.4565700927768D-01  1.0080646659414D+00
    69  6.8000000000000D-01  6.7616043721272D-01  9.7508904925141D-01
    70  6.9000000000000D-01  7.0686824558525D-01  9.4122145566824D-01
    71  7.0000000000000D-01  7.3772451853247D-01  9.0652347813488D-01
    72  7.1000000000000D-01  7.6867141684723D-01  8.7105809850978D-01
    73  7.2000000000000D-01  7.9964930518863D-01  8.3488956517522D-01
    74  7.3000000000000D-01  8.3059688950419D-01  7.9808326617472D-01
    75  7.4000000000000D-01  8.6145136436846D-01  7.6070559813824D-01
    76  7.5000000000000D-01  8.9214856989015D-01  7.2282383127438D-01
    77  7.6000000000000D-01  9.2262315778795D-01  6.8450597072972D-01
    78  7.7000000000000D-01  9.5280876618377D-01  6.4582061463469D-01
    79  7.8000000000000D-01  9.8263820261246D-01  6.0683680917480D-01
    80  7.9000000000000D-01  1.0120436346975D+00  5.6762390104397D-01
    81  8.0000000000000D-01  1.0409567878959D+00  5.2825138765412D-01
    82  8.1000000000000D-01  1.0693091496689D+00  4.8878876549141D-01
    83  8.2000000000000D-01  1.0970321793938D+00  4.4930537702449D-01
    84  8.3000000000000D-01  1.1240575232889D+00  4.0987025658398D-01
    85  8.4000000000000D-01  1.1503172335875D+00  3.7055197564503D-01
    86  8.5000000000000D-01  1.1757439911610D+00  3.3141848795580D-01
    87  8.6000000000000D-01  1.2002713307579D+00  2.9253697496420D-01
    88  8.7000000000000D-01  1.2238338679984D+00  2.5397369200345D-01
    89  8.8000000000000D-01  1.2463675272376D+00  2.1579381570315D-01
    90  8.9000000000000D-01  1.2678097693884D+00  1.7806129309738D-01
    91  9.0000000000000D-01  1.2880998187797D+00  1.4083869290406D-01
    92  9.1000000000000D-01  1.3071788881082D+00  1.0418705945088D-01
    93  9.2000000000000D-01  1.3249904005358D+00  6.8165769722353D-02
    94  9.3000000000000D-01  1.3414802079775D+00  3.2832393999725D-02
    95  9.4000000000000D-01  1.3565968046234D+00 -1.7574394391513D-03
    96  9.5000000000000D-01  1.3702915347437D+00 -3.5550175099404D-02
    97  9.6000000000000D-01  1.3825187938320D+00 -6.8494456076241D-02
    98  9.7000000000000D-01  1.3932362221538D+00 -1.0054124444799D-01
    99  9.8000000000000D-01  1.4024048897880D+00 -1.3164393582599D-01
   100  9.9000000000000D-01  1.4099894722649D+00 -1.6175846764659D-01
   101  1.0000000000000D+00  1.4159584159356D+00 -1.9084342080630D-01
   102  1.0100000000000D+00  1.4202840922329D+00 -2.1886011425982D-01
   103  1.0200000000000D+00  1.4229429400234D+00 -2.4577269221970D-01
   104  1.0300000000000D+00  1.4239155952838D+00 -2.7154820361844D-01
   105  1.0400000000000D+00  1.4231870073815D+00 -2.9615667351646D-01
   106  1.0500000000000D+00  1.4207465412846D+00 -3.1957116616509D-01
   107  1.0600000000000D+00  1.4165880650723D+00 -3.4176783945739D-01
   108  1.0700000000000D+00  1.4107100221785D+00 -3.6272599053028D-01
   109  1.0800000000000D+00  1.4031154878501D+00 -3.8242809230787D-01
   110  1.0900000000000D+00  1.3938122093657D+00 -4.0085982080659D-01
   111  1.1000000000000D+00  1.3828126296237D+00 -4.1801007305479D-01
   112  1.1100000000000D+00  1.3701338937638D+00 -4.3387097550679D-01
   113  1.1200000000000D+00  1.3557978385678D+00 -4.4843788287023D-01
   114  1.1300000000000D+00  1.3398309644397D+00 -4.6170936729347D-01
   115  1.1400000000000D+00  1.3222643898509D+00 -4.7368719789862D-01
   116  1.1500000000000D+00  1.3031337881816D+00 -4.8437631067024D-01
   117  1.1600000000000D+00  1.2824793069907D+00 -4.9378476875535D-01
   118  1.1700000000000D+00  1.2603454697990D+00 -5.0192371325673D-01
   119  1.1800000000000D+00  1.2367810605544D+00 -5.0880730464022D-01
   120  1.1900000000000D+00  1.2118389909975D+00 -5.1445265490080D-01
   121  1.2000000000000D+00  1.1855761512488D+00 -5.1887975067858D-01
   122  1.2100000000000D+00  1.1580532439891D+00 -5.2211136754212D-01
   123  1.2200000000000D+00  1.1293346026674D+00 -5.2417297568151D-01
   124  1.2300000000000D+00  1.0994879942481D+00 -5.2509263729406D-01
   125  1.2400000000000D+00  1.0685844070806D+00 -5.2490089597435D-01
   126  1.2500000000000D+00  1.0366978245165D+00 -5.2363065844191D-01
   127  1.2600000000000D+00  1.0039049849621D+00 -5.2131706896821D-01
   128  1.2700000000000D+00  9.7028512913374D-01 -5.1799737690018D-01
   129  1.2800000000000D+00  9.3591973530551D-01 -5.1371079768891D-01
   130  1.2900000000000D+00  9.0089224339117D-01 -5.0849836785474D-01
   131  1.3000000000000D+00  8.6528776877578D-01 -5.0240279435432D-01
   132  1.3100000000000D+00  8.2919280681494D-01 -4.9546829881592D-01
   133  1.3200000000000D+00  7.9269492896974D-01 -4.8774045713214D-01
   134  1.3300000000000D+00  7.5588247159587D-01 -4.7926603492189D-01
   135  1.3400000000000D+00  7.1884421839292D-01 -4.7009281936810D-01
   136  1.3500000000000D+00  6.8166907757419D-01 -4.6026944796185D-01
   137  1.3600000000000D+00  6.4444575482145D-01 -4.4984523468580D-01
   138  1.3700000000000D+00  6.0726242309038D-01 -4.3886999417006D-01
   139  1.3800000000000D+00  5.7020639036085D-01 -4.2739386436671D-01
   140  1.3900000000000D+00  5.3336376639583D-01 -4.1546712827543D-01
   141  1.4000000000000D+00  4.9681912960823D-01 -4.0314003526847D-01
   142  1.4100000000000D+00  4.6065519507346D-01 -3.9046262253591D-01
   143  1.4200000000000D+00  4.2495248476278D-01 -3.7748453718852D-01
   144  1.4300000000000D+00  3.8978900102391D-01 -3.6425485953389D-01
   145  1.4400000000000D+00  3.5523990428003D-01 -3.5082192801650D-01
   146  1.4500000000000D+00  3.2137719600061D-01 -3.3723316634942D-01
   147  1.4600000000000D+00  2.8826940777121D-01 -3.2353491326355D-01
   148  1.4700000000000D+00  2.5598129748441D-01 -3.0977225538776D-01
   149  1.4800000000000D+00  2.2457355341678D-01 -2.9598886365797D-01
   150  1.4900000000000D+00  1.9410250703100D-01 -2.8222683368593D-01
   151  1.5000000000000D+00  1.6461985532233D-01 -2.6852653050993D-01
   152  1.5100000000000D+00  1.3617239325412D-01 -2.5492643802549D-01
   153  1.5200000000000D+00  1.0880175718431D-01 -2.4146301355555D-01
   154  1.5300000000000D+00  8.2544177291828D-02 -2.2817054705782D-01
   155  1.5400000000000D+00  5.7430251394315D-02 -2.1508102885502D-01
   156  1.5500000000000D+00  3.3484700722927D-02 -2.0222401392581D-01
   157  1.5600000000000D+00  1.0726231714677D-02 -1.8962652149783D-01
   158  1.5700000000000D+00 -1.0832626879868D-02 -1.7731292733210D-01
   159  1.5800000000000D+00 -3.1186233557122D-02 -1.6530469709745D-01
   160  1.5900000000000D+00 -5.0335157413113D-02 -1.5362053703669D-01
   161  1.6000000000000D+00 -6.8284830707307D-02 -1.4227674118487D-01
   162  1.6100000000000D+00 -8.5044474054780D-02 -1.3128749757802D-01
   163  1.6200000000000D+00 -1.0062547782617D-01 -1.2066537154201D-01
   164  1.6300000000000D+00 -1.1504143311007D-01 -1.1042130274902D-01
   165  1.6400000000000D+00 -1.2830846893772D-01 -1.0056452422812D-01
   166  1.6500000000000D+00 -1.4044496225218D-01 -9.1102658787480D-02
   167  1.6600000000000D+00 -1.5147153569470D-01 -8.2041735607337D-02
   168  1.6700000000000D+00 -1.6141095478438D-01 -7.3386237329079D-02
   169  1.6800000000000D+00 -1.7028804399145D-01 -6.5139143016521D-02
   170  1.6900000000000D+00 -1.7812959012079D-01 -5.7301976167871D-02
   171  1.7000000000000D+00 -1.8496423807873D-01 -4.9874856184864D-02
   172  1.7100000000000D+00 -1.9082237941726D-01 -4.2856553163681D-02
   173  1.7200000000000D+00 -1.9573603469907D-01 -3.6244545576185D-02
   174  1.7300000000000D+00 -1.9973872988782D-01 -3.0035080749010D-02
   175  1.7400000000000D+00 -2.0286536776379D-01 -2.4223237724521D-02
   176  1.7500000000000D+00 -2.0515209471749D-01 -1.8802992353143D-02
   177  1.7600000000000D+00 -2.0663616382644D-01 -1.3767284237284D-02
   178  1.7700000000000D+00 -2.0735579473274D-01 -9.1080853109808D-03
   179  1.7800000000000D+00 -2.0735003110071D-01 -4.8164697246060D-03
   180  1.7900000000000D+00 -2.0665859632774D-01 -8.8268475634270D-04
   181  1.8000000000000D+00 -2.0532174816115D-01  2.7037775300571D-03
   182  1.8100000000000D+00 -2.0338013300228D-01  5.9541082041375D-03
   183  1.8200000000000D+00 -2.0087464046778D-01  8.8801092108609D-03
   184  1.8300000000000D+00 -1.9784625899937D-01  1.1494121265597D-02
   185  1.8400000000000D+00 -1.9433593311592D-01  1.3808952155920D-02
   186  1.8500000000000D+00 -1.9038442294352D-01  1.5837805721783D-02
   187  1.8600000000000D+00 -1.8603216678736D-01  1.7594211833614D-02
   188  1.8700000000000D+00 -1.8131914703374D-01  1.9091957504831D-02
   189  1.8800000000000D+00 -1.7628476057336D-01  2.0345019623616D-02
   190  1.8900000000000D+00 -1.7096769342889D-01  2.1367499204926D-02
   191  1.9000000000000D+00 -1.6540580113027D-01  2.2173557790311D-02
   192  1.9100000000000D+00 -1.5963599433346D-01  2.2777355815382D-02
   193  1.9200000000000D+00 -1.5369413095453D-01  2.3192993472057D-02
   194  1.9300000000000D+00 -1.4761491459312D-01  2.3434453995910D-02
   195  1.9400000000000D+00 -1.4143180008723D-01  2.3515549726221D-02
   196  1.9500000000000D+00 -1.3517690677275D-01  2.3449871184248D-02
   197  1.9600000000000D+00 -1.2888093880359D-01  2.3250738941567D-02
   198  1.9700000000000D+00 -1.2257311411872D-01  2.2931158930418D-02
   199  1.9800000000000D+00 -1.1628110081038D-01  2.2503780709873D-02
   200  1.9900000000000D+00 -1.1003096237046D-01  2.1980859311238D-02
   201  2.0000000000000D+00 -1.0384711082530D-01  2.1374220278881D-02
   202  2.0100000000000D+00 -9.7752268680305D-02  2.0695228288714D-02
   203  2.0200000000000D+00 -9.1767439938542D-02  1.9954759468140D-02
   204  2.0300000000000D+00 -8.5911888861346D-02  1.9163176911009D-02
   205  2.0400000000000D+00 -8.0203128346983D-02  1.8330310159923D-02
   206  2.0500000000000D+00 -7.4656915843257D-02  1.7465437831978D-02
   207  2.0600000000000D+00 -6.9287258218466D-02  1.6577273987517D-02
   208  2.0700000000000D+00 -6.4106424650519D-02  1.5673957879518D-02
   209  2.0800000000000D+00 -5.9124967103762D-02  1.4763046928959D-02
   210  2.0900000000000D+00 -5.4351749473313D-02  1.3851513380150D-02
   211  2.1000000000000D+00 -4.9793983179267D-02  1.2945743760642D-02
   212  2.1100000000000D+00 -4.5457270695785D-02  1.2051541770145D-02
   213  2.1200000000000D+00 -4.1345655559366D-02  1.1174134024290D-02
   214  2.1300000000000D+00 -3.7461678558253D-02  1.0318178552534D-02
   215  2.1400000000000D+00 -3.3806440590524D-02  9.4877762736745D-03
   216  2.1500000000000D+00 -3.0379670329171D-02  8.6864847013295D-03
   217  2.1600000000000D+00 -2.7179797562177D-02  7.9173342660854D-03
   218  2.1700000000000D+00 -2.4204031001686D-02  7.1828467741332D-03
   219  2.1800000000000D+00 -2.1448439958807D-02  6.4850557728271D-03
   220  2.1900000000000D+00 -1.8908040083961D-02  5.8255289432413D-03
   221  2.2000000000000D+00 -1.6576881792837D-02  5.2053919473275D-03
   222  2.2100000000000D+00 -1.4448141373394D-02  4.6253537720646D-03
   223  2.2200000000000D+00 -1.2514214082215D-02  4.0857333018212D-03
   224  2.2300000000000D+00 -1.0766808607669D-02  3.5864868545983D-03
   225  2.2400000000000D+00 -9.1970423456640D-03  3.1272365294538D-03
   226  2.2500000000000D+00 -7.7955370457874D-03  2.7072991451681D-03
   227  2.2600000000000D+00 -6.5525142196230D-03  2.3257155600754D-03
   228  2.2700000000000D+00 -5.4578894420788D-03  1.9812800599686D-03
   229  2.2800000000000D+00 -4.5013657888665D-03  1.6725698658007D-03
   230  2.2900000000000D+00 -3.6725249673193D-03  1.3979742481244D-03
   231  2.3000000000000D+00 -2.9609159027715D-03  1.1557231441779D-03
   232  2.3100000000000D+00 -2.3561413204380D-03  9.4391545862041D-04
   233  2.3200000000000D+00 -1.8479396799212D-03  7.6054608386646D-04
   234  2.3300000000000D+00 -1.4262639404064D-03  6.0353216191408D-04
   235  2.3400000000000D+00 -1.0813566045823D-03  4.7073838005459D-04
   236  2.3500000000000D+00 -8.0381857448261D-04  3.6000038372192D-04
   237  2.3600000000000D+00 -5.8467432249567D-04  2.6914721984551D-04
   238  2.3700000000000D+00 -4.1543142480038D-04  1.9602208167372D-04
   239  2.3800000000000D+00 -2.8816573146084D-04  1.3850323817812D-04
   240  2.3900000000000D+00 -1.9546625908857D-04  9.4513942439761D-05
   241  2.4000000000000D+00 -1.3052728141362D-04  6.2041149668584D-05
   242  2.4100000000000D+00 -8.6976004026176D-05  3.9086708201207D-05
   243  2.4200000000000D+00 -5.9955427959069D-05  2.3919626680831D-05
   244  2.4300000000000D+00 -4.5216644162718D-05  1.4879771982256D-05
   245  2.4400000000000D+00 -3.9816599237829D-05  1.0616352684545D-05
   246  2.4500000000000D+00 -3.7699564783114D-05  8.8800447778657D-06
   247  2.4600000000000D+00 -3.4084871010599D-05  7.7918472377000D-06
   248  2.4700000000000D+00 -2.3913423342547D-05  5.4496629676582D-06
   249  2.4800000000000D+00 -1.1344510643850D-05  2.6080100331309D-06
   250  2.4900000000000D+00 -2.5694239624134D-07  5.9816412892944D-08
   251  2.5000000000000D+00  3.3747635967122D-06 -7.4805835805729D-07
   252  2.5100000000000D+00  2.7427869405791D-06 -6.0832497616550D-07
   253  2.5200000000000D+00  4.8333654719918D-08 -1.0733263149368D-08
   254  2.5300000000000D+00 -7.1011700361517D-07  1.5245112369358D-07
   255  2.5400000000000D+00 -6.4444629630940D-07  1.3794572305816D-07
   256  2.5500000000000D+00 -2.9283521634574D-08  6.2526877843018D-09
   257  2.5600000000000D+00  8.3888607937638D-08 -1.9180875444019D-08
   258  2.5700000000000D+00  8.3378761559665D-08 -1.9064300618046D-08
   259  2.5800000000000D+00  9.3317083625944D-09 -2.1336667776857D-09
   260  2.5900000000000D+00  0.0000000000000D+00  0.0000000000000D+00
   261  2.6000000000000D+00  0.0000000000000D+00  0.0000000000000D+00
   262  2.6100000000000D+00  0.0000000000000D+00  0.0000000000000D+00
   263  2.6200000000000D+00  0.0000000000000D+00  0.0000000000000D+00
   264  2.6300000000000D+00  0.0000000000000D+00  0.0000000000000D+00
   265  2.6400000000000D+00  0.0000000000000D+00  0.0000000000000D+00
   266  2.6500000000000D+00  0.0000000000000D+00  0.0000000000000D+00
   267  2.6600000000000D+00  0.0000000000000D+00  0.0000000000000D+00
   268  2.6700000000000D+00  0.0000000000000D+00  0.0000000000000D+00
   269  2.6800000000000D+00  0.0000000000000D+00  0.0000000000000D+00
   270  2.6900000000000D+00  0.0000000000000D+00  0.0000000000000D+00
   271  2.7000000000000D+00  0.0000000000000D+00  0.0000000000000D+00
   272  2.7100000000000D+00  0.0000000000000D+00  0.0000000000000D+00
   273  2.7200000000000D+00  0.0000000000000D+00  0.0000000000000D+00
   274  2.7300000000000D+00  0.0000000000000D+00  0.0000000000000D+00
   275  2.7400000000000D+00  0.0000000000000D+00  0.0000000000000D+00
   276  2.7500000000000D+00  0.0000000000000D+00  0.0000000000000D+00
   277  2.7600000000000D+00  0.0000000000000D+00  0.0000000000000D+00
   278  2.7700000000000D+00  0.0000000000000D+00  0.0000000000000D+00
   279  2.7800000000000D+00  0.0000000000000D+00  0.0000000000000D+00
   280  2.7900000000000D+00  0.0000000000000D+00  0.0000000000000D+00
   281  2.8000000000000D+00  0.0000000000000D+00  0.0000000000000D+00
   282  2.8100000000000D+00  0.0000000000000D+00  0.0000000000000D+00
   283  2.8200000000000D+00  0.0000000000000D+00  0.0000000000000D+00
   284  2.8300000000000D+00  0.0000000000000D+00  0.0000000000000D+00
   285  2.8400000000000D+00  0.0000000000000D+00  0.0000000000000D+00
   286  2.8500000000000D+00  0.0000000000000D+00  0.0000000000000D+00
   287  2.8600000000000D+00  0.0000000000000D+00  0.0000000000000D+00
   288  2.8700000000000D+00  0.0000000000000D+00  0.0000000000000D+00
   289  2.8800000000000D+00  0.0000000000000D+00  0.0000000000000D+00
   290  2.8900000000000D+00  0.0000000000000D+00  0.0000000000000D+00
   291  2.9000000000000D+00  0.0000000000000D+00  0.0000000000000D+00
   292  2.9100000000000D+00  0.0000000000000D+00  0.0000000000000D+00
   293  2.9200000000000D+00  0.0000000000000D+00  0.0000000000000D+00
   294  2.9300000000000D+00  0.0000000000000D+00  0.0000000000000D+00
   295  2.9400000000000D+00  0.0000000000000D+00  0.0000000000000D+00
   296  2.9500000000000D+00  0.0000000000000D+00  0.0000000000000D+00
   297  2.9600000000000D+00  0.0000000000000D+00  0.0000000000000D+00
   298  2.9700000000000D+00  0.0000000000000D+00  0.0000000000000D+00
   299  2.9800000000000D+00  0.0000000000000D+00  0.0000000000000D+00
   300  2.9900000000000D+00  0.0000000000000D+00  0.0000000000000D+00
   301  3.0000000000000D+00  0.0000000000000D+00  0.0000000000000D+00
   302  3.0100000000000D+00  0.0000000000000D+00  0.0000000000000D+00
   303  3.0200000000000D+00  0.0000000000000D+00  0.0000000000000D+00
   304  3.0300000000000D+00  0.0000000000000D+00  0.0000000000000D+00
   305  3.0400000000000D+00  0.0000000000000D+00  0.0000000000000D+00
   306  3.0500000000000D+00  0.0000000000000D+00  0.0000000000000D+00
   307  3.0600000000000D+00  0.0000000000000D+00  0.0000000000000D+00
   308  3.0700000000000D+00  0.0000000000000D+00  0.0000000000000D+00
   309  3.0800000000000D+00  0.0000000000000D+00  0.0000000000000D+00
   310  3.0900000000000D+00  0.0000000000000D+00  0.0000000000000D+00
   311  3.1000000000000D+00  0.0000000000000D+00  0.0000000000000D+00
   312  3.1100000000000D+00  0.0000000000000D+00  0.0000000000000D+00
   313  3.1200000000000D+00  0.0000000000000D+00  0.0000000000000D+00
   314  3.1300000000000D+00  0.0000000000000D+00  0.0000000000000D+00
   315  3.1400000000000D+00  0.0000000000000D+00  0.0000000000000D+00
   316  3.1500000000000D+00  0.0000000000000D+00  0.0000000000000D+00
   317  3.1600000000000D+00  0.0000000000000D+00  0.0000000000000D+00
   318  3.1700000000000D+00  0.0000000000000D+00  0.0000000000000D+00
   319  3.1800000000000D+00  0.0000000000000D+00  0.0000000000000D+00
   320  3.1900000000000D+00  0.0000000000000D+00  0.0000000000000D+00
   321  3.2000000000000D+00  0.0000000000000D+00  0.0000000000000D+00
   322  3.2100000000000D+00  0.0000000000000D+00  0.0000000000000D+00
   323  3.2200000000000D+00  0.0000000000000D+00  0.0000000000000D+00
   324  3.2300000000000D+00  0.0000000000000D+00  0.0000000000000D+00
   325  3.2400000000000D+00  0.0000000000000D+00  0.0000000000000D+00
   326  3.2500000000000D+00  0.0000000000000D+00  0.0000000000000D+00
   327  3.2600000000000D+00  0.0000000000000D+00  0.0000000000000D+00
   328  3.2700000000000D+00  0.0000000000000D+00  0.0000000000000D+00
   329  3.2800000000000D+00  0.0000000000000D+00  0.0000000000000D+00
   330  3.2900000000000D+00  0.0000000000000D+00  0.0000000000000D+00
   331  3.3000000000000D+00  0.0000000000000D+00  0.0000000000000D+00
   332  3.3100000000000D+00  0.0000000000000D+00  0.0000000000000D+00
   333  3.3200000000000D+00  0.0000000000000D+00  0.0000000000000D+00
   334  3.3300000000000D+00  0.0000000000000D+00  0.0000000000000D+00
   335  3.3400000000000D+00  0.0000000000000D+00  0.0000000000000D+00
   336  3.3500000000000D+00  0.0000000000000D+00  0.0000000000000D+00
   337  3.3600000000000D+00  0.0000000000000D+00  0.0000000000000D+00
   338  3.3700000000000D+00  0.0000000000000D+00  0.0000000000000D+00
   339  3.3800000000000D+00  0.0000000000000D+00  0.0000000000000D+00
   340  3.3900000000000D+00  0.0000000000000D+00  0.0000000000000D+00
   341  3.4000000000000D+00  0.0000000000000D+00  0.0000000000000D+00
   342  3.4100000000000D+00  0.0000000000000D+00  0.0000000000000D+00
   343  3.4200000000000D+00  0.0000000000000D+00  0.0000000000000D+00
   344  3.4300000000000D+00  0.0000000000000D+00  0.0000000000000D+00
   345  3.4400000000000D+00  0.0000000000000D+00  0.0000000000000D+00
   346  3.4500000000000D+00  0.0000000000000D+00  0.0000000000000D+00
   347  3.4600000000000D+00  0.0000000000000D+00  0.0000000000000D+00
   348  3.4700000000000D+00  0.0000000000000D+00  0.0000000000000D+00
   349  3.4800000000000D+00  0.0000000000000D+00  0.0000000000000D+00
   350  3.4900000000000D+00  0.0000000000000D+00  0.0000000000000D+00
   351  3.5000000000000D+00  0.0000000000000D+00  0.0000000000000D+00
   352  3.5100000000000D+00  0.0000000000000D+00  0.0000000000000D+00
   353  3.5200000000000D+00  0.0000000000000D+00  0.0000000000000D+00
   354  3.5300000000000D+00  0.0000000000000D+00  0.0000000000000D+00
   355  3.5400000000000D+00  0.0000000000000D+00  0.0000000000000D+00
   356  3.5500000000000D+00  0.0000000000000D+00  0.0000000000000D+00
   357  3.5600000000000D+00  0.0000000000000D+00  0.0000000000000D+00
   358  3.5700000000000D+00  0.0000000000000D+00  0.0000000000000D+00
   359  3.5800000000000D+00  0.0000000000000D+00  0.0000000000000D+00
   360  3.5900000000000D+00  0.0000000000000D+00  0.0000000000000D+00
   361  3.6000000000000D+00  0.0000000000000D+00  0.0000000000000D+00
   362  3.6100000000000D+00  0.0000000000000D+00  0.0000000000000D+00
   363  3.6200000000000D+00  0.0000000000000D+00  0.0000000000000D+00
   364  3.6300000000000D+00  0.0000000000000D+00  0.0000000000000D+00
   365  3.6400000000000D+00  0.0000000000000D+00  0.0000000000000D+00
   366  3.6500000000000D+00  0.0000000000000D+00  0.0000000000000D+00
   367  3.6600000000000D+00  0.0000000000000D+00  0.0000000000000D+00
   368  3.6700000000000D+00  0.0000000000000D+00  0.0000000000000D+00
   369  3.6800000000000D+00  0.0000000000000D+00  0.0000000000000D+00
   370  3.6900000000000D+00  0.0000000000000D+00  0.0000000000000D+00
   371  3.7000000000000D+00  0.0000000000000D+00  0.0000000000000D+00
   372  3.7100000000000D+00  0.0000000000000D+00  0.0000000000000D+00
   373  3.7200000000000D+00  0.0000000000000D+00  0.0000000000000D+00
   374  3.7300000000000D+00  0.0000000000000D+00  0.0000000000000D+00
   375  3.7400000000000D+00  0.0000000000000D+00  0.0000000000000D+00
   376  3.7500000000000D+00  0.0000000000000D+00  0.0000000000000D+00
   377  3.7600000000000D+00  0.0000000000000D+00  0.0000000000000D+00
   378  3.7700000000000D+00  0.0000000000000D+00  0.0000000000000D+00
   379  3.7800000000000D+00  0.0000000000000D+00  0.0000000000000D+00
   380  3.7900000000000D+00  0.0000000000000D+00  0.0000000000000D+00
   381  3.8000000000000D+00  0.0000000000000D+00  0.0000000000000D+00
   382  3.8100000000000D+00  0.0000000000000D+00  0.0000000000000D+00
   383  3.8200000000000D+00  0.0000000000000D+00  0.0000000000000D+00
   384  3.8300000000000D+00  0.0000000000000D+00  0.0000000000000D+00
   385  3.8400000000000D+00  0.0000000000000D+00  0.0000000000000D+00
   386  3.8500000000000D+00  0.0000000000000D+00  0.0000000000000D+00
   387  3.8600000000000D+00  0.0000000000000D+00  0.0000000000000D+00
   388  3.8700000000000D+00  0.0000000000000D+00  0.0000000000000D+00
   389  3.8800000000000D+00  0.0000000000000D+00  0.0000000000000D+00
   390  3.8900000000000D+00  0.0000000000000D+00  0.0000000000000D+00
   391  3.9000000000000D+00  0.0000000000000D+00  0.0000000000000D+00
   392  3.9100000000000D+00  0.0000000000000D+00  0.0000000000000D+00
   393  3.9200000000000D+00  0.0000000000000D+00  0.0000000000000D+00
   394  3.9300000000000D+00  0.0000000000000D+00  0.0000000000000D+00
   395  3.9400000000000D+00  0.0000000000000D+00  0.0000000000000D+00
   396  3.9500000000000D+00  0.0000000000000D+00  0.0000000000000D+00
   397  3.9600000000000D+00  0.0000000000000D+00  0.0000000000000D+00
   398  3.9700000000000D+00  0.0000000000000D+00  0.0000000000000D+00
   399  3.9800000000000D+00  0.0000000000000D+00  0.0000000000000D+00
   400  3.9900000000000D+00  0.0000000000000D+00  0.0000000000000D+00
   401  4.0000000000000D+00  0.0000000000000D+00  0.0000000000000D+00
   402  4.0100000000000D+00  0.0000000000000D+00  0.0000000000000D+00
   403  4.0200000000000D+00  0.0000000000000D+00  0.0000000000000D+00
   404  4.0300000000000D+00  0.0000000000000D+00  0.0000000000000D+00
   405  4.0400000000000D+00  0.0000000000000D+00  0.0000000000000D+00
   406  4.0500000000000D+00  0.0000000000000D+00  0.0000000000000D+00
   407  4.0600000000000D+00  0.0000000000000D+00  0.0000000000000D+00
   408  4.0700000000000D+00  0.0000000000000D+00  0.0000000000000D+00
   409  4.0800000000000D+00  0.0000000000000D+00  0.0000000000000D+00
   410  4.0900000000000D+00  0.0000000000000D+00  0.0000000000000D+00
   411  4.1000000000000D+00  0.0000000000000D+00  0.0000000000000D+00
   412  4.1100000000000D+00  0.0000000000000D+00  0.0000000000000D+00
   413  4.1200000000000D+00  0.0000000000000D+00  0.0000000000000D+00
   414  4.1300000000000D+00  0.0000000000000D+00  0.0000000000000D+00
   415  4.1400000000000D+00  0.0000000000000D+00  0.0000000000000D+00
   416  4.1500000000000D+00  0.0000000000000D+00  0.0000000000000D+00
   417  4.1600000000000D+00  0.0000000000000D+00  0.0000000000000D+00
   418  4.1700000000000D+00  0.0000000000000D+00  0.0000000000000D+00
   419  4.1800000000000D+00  0.0000000000000D+00  0.0000000000000D+00
   420  4.1900000000000D+00  0.0000000000000D+00  0.0000000000000D+00
   421  4.2000000000000D+00  0.0000000000000D+00  0.0000000000000D+00
   422  4.2100000000000D+00  0.0000000000000D+00  0.0000000000000D+00