Te    ONCVPSP-3.3.1  r_core=   2.49231   3.16383   2.80807
     52.0000     16.0000      210905    zatom,zion,pspd
     8 -116133   2     4   600     0    pspcod,pspxc,lmax,lloc,mmax,r2well
  5.99000000  0.00000000  0.00000000    rchrg fchrg qchrg
     2     2     2     0     0    nproj
     1     1           extension_switch
   0                         6.2711938271265D+00  1.3778166299686D+00
     1  0.0000000000000D+00  3.7424785492846D-12 -2.1848745035413D-11
     2  1.0000000000000D-02  1.1726209805528D-02  2.5135779596323D-02
     3  2.0000000000000D-02  2.3480876754941D-02  5.0159202964485D-02
     4  3.0000000000000D-02  3.5292339332364D-02  7.4958367617074D-02
     5  4.0000000000000D-02  4.7188699065525D-02  9.9422276882233D-02
     6  5.0000000000000D-02  5.9197702954409D-02  1.2344128865211D-01
     7  6.0000000000000D-02  7.1346626985515D-02  1.4690755915550D-01
     8  7.0000000000000D-02  8.3662161089215D-02  1.6971548012154D-01
     9  8.0000000000000D-02  9.6170295893950D-02  1.9176210772350D-01
    10  9.0000000000000D-02  1.0889621162639D-01  2.1294758171842D-01
    11  1.0000000000000D-01  1.2186416950105D-01  2.3317553323128D-01
    12  1.1000000000000D-01  1.3509740593635D-01  2.5235347966986D-01
    13  1.2000000000000D-01  1.4861802992688D-01  2.7039320529942D-01
    14  1.3000000000000D-01  1.6244692389301D-01  2.8721112605397D-01
    15  1.4000000000000D-01  1.7660364832033D-01  3.0272863721390D-01
    16  1.5000000000000D-01  1.9110635049090D-01  3.1687244263697D-01
    17  1.6000000000000D-01  2.0597167759778D-01  3.2957486429199D-01
    18  1.7000000000000D-01  2.2121469452249D-01  3.4077413091080D-01
    19  1.8000000000000D-01  2.3684880654265D-01  3.5041464464527D-01
    20  1.9000000000000D-01  2.5288568722367D-01  3.5844722469064D-01
    21  2.0000000000000D-01  2.6933521173452D-01  3.6482932691536D-01
    22  2.1000000000000D-01  2.8620539581270D-01  3.6952523862028D-01
    23  2.2000000000000D-01  3.0350234058823D-01  3.7250624763531D-01
    24  2.3000000000000D-01  3.2123018346017D-01  3.7375078505126D-01
    25  2.4000000000000D-01  3.3939105520269D-01  3.7324454097629D-01
    26  2.5000000000000D-01  3.5798504346004D-01  3.7098055280078D-01
    27  2.6000000000000D-01  3.7701016277204D-01  3.6695926555189D-01
    28  2.7000000000000D-01  3.9646233125326D-01  3.6118856401769D-01
    29  2.8000000000000D-01  4.1633535402992D-01  3.5368377642187D-01
    30  2.9000000000000D-01  4.3662091351930D-01  3.4446764953205D-01
    31  3.0000000000000D-01  4.5730856661664D-01  3.3357029518850D-01
    32  3.1000000000000D-01  4.7838574883427D-01  3.2102910834387D-01
    33  3.2000000000000D-01  4.9983778541736D-01  3.0688865680950D-01
    34  3.3000000000000D-01  5.2164790943991D-01  2.9120054300852D-01
    35  3.4000000000000D-01  5.4379728686369D-01  2.7402323814033D-01
    36  3.5000000000000D-01  5.6626504852185D-01  2.5542188926513D-01
    37  3.6000000000000D-01  5.8902832896786D-01  2.3546809991971D-01
    38  3.7000000000000D-01  6.1206231210895D-01  2.1423968497751D-01
    39  3.8000000000000D-01  6.3534028352275D-01  1.9182040056532D-01
    40  3.9000000000000D-01  6.5883368933402D-01  1.6829964994674D-01
    41  4.0000000000000D-01  6.8251220150825D-01  1.4377216637760D-01
    42  4.1000000000000D-01  7.0634378939777D-01  1.1833767403040D-01
    43  4.2000000000000D-01  7.3029479735602D-01  9.2100528173977D-02
    44  4.3000000000000D-01  7.5433002821532D-01  6.5169335879760D-02
    45  4.4000000000000D-01  7.7841283240436D-01  3.7656558606953D-02
    46  4.5000000000000D-01  8.0250520246223D-01  9.6780980961420D-03
    47  4.6000000000000D-01  8.2656787268742D-01 -1.8647132927278D-02
    48  4.7000000000000D-01  8.5056042364251D-01 -4.7197653671313D-02
    49  4.8000000000000D-01  8.7444139121777D-01 -7.5849870186940D-02
    50  4.9000000000000D-01  8.9816837994099D-01 -1.0447854058280D-01
    51  5.0000000000000D-01  9.2169818020454D-01 -1.3295724880869D-01
    52  5.1000000000000D-01  9.4498688906674D-01 -1.6115888522764D-01
    53  5.2000000000000D-01  9.6799003427029D-01 -1.8895613215928D-01
    54  5.3000000000000D-01  9.9066270110799D-01 -2.1622195254625D-01
    55  5.4000000000000D-01  1.0129596617542D+00 -2.4283007987217D-01
    56  5.5000000000000D-01  1.0348355066700D+00 -2.6865550744278D-01
    57  5.6000000000000D-01  1.0562447776806D+00 -2.9357497513284D-01
    58  5.7000000000000D-01  1.0771421023149D+00 -3.1746745169951D-01
    59  5.8000000000000D-01  1.0974823289915D+00 -3.4021461076848D-01
    60  5.9000000000000D-01  1.1172206626272D+00 -3.6170129861252D-01
    61  6.0000000000000D-01  1.1363128002437D+00 -3.8181599186285D-01
    62  6.1000000000000D-01  1.1547150661402D+00 -4.0045124332241D-01
    63  6.2000000000000D-01  1.1723845462037D+00 -4.1750411408601D-01
    64  6.3000000000000D-01  1.1892792209236D+00 -4.3287659021632D-01
    65  6.4000000000000D-01  1.2053580966817D+00 -4.4647598227527D-01
    66  6.5000000000000D-01  1.2205813348903D+00 -4.5821530606959D-01
    67  6.6000000000000D-01  1.2349103785564D+00 -4.6801364303439D-01
    68  6.7000000000000D-01  1.2483080758529D+00 -4.7579647875122D-01
    69  6.8000000000000D-01  1.2607388002892D+00 -4.8149601817697D-01
    70  6.9000000000000D-01  1.2721685670784D+00 -4.8505147624532D-01
    71  7.0000000000000D-01  1.2825651453095D+00 -4.8640934259496D-01
    72  7.1000000000000D-01  1.2918981655469D+00 -4.8552361927624D-01
    73  7.2000000000000D-01  1.3001392224878D+00 -4.8235603039207D-01
    74  7.3000000000000D-01  1.3072619723261D+00 -4.7687620273701D-01
    75  7.4000000000000D-01  1.3132422244860D+00 -4.6906181661193D-01
    76  7.5000000000000D-01  1.3180580274043D+00 -4.5889872610938D-01
    77  7.6000000000000D-01  1.3216897480590D+00 -4.4638104828593D-01
    78  7.7000000000000D-01  1.3241201449629D+00 -4.3151122076271D-01
    79  7.8000000000000D-01  1.3253344343569D+00 -4.1430002742273D-01
    80  7.9000000000000D-01  1.3253203493649D+00 -3.9476659200339D-01
    81  8.0000000000000D-01  1.3240681918890D+00 -3.7293833951381D-01
    82  8.1000000000000D-01  1.3215708770513D+00 -3.4885092553948D-01
    83  8.2000000000000D-01  1.3178239700098D+00 -3.2254813362971D-01
    84  8.3000000000000D-01  1.3128257150028D+00 -2.9408174109633D-01
    85  8.4000000000000D-01  1.3065770565009D+00 -2.6351135368471D-01
    86  8.5000000000000D-01  1.2990816523710D+00 -2.3090420970933D-01
    87  8.6000000000000D-01  1.2903458789852D+00 -1.9633495437538D-01
    88  8.7000000000000D-01  1.2803788282327D+00 -1.5988538513489D-01
    89  8.8000000000000D-01  1.2691922964207D+00 -1.2164416904977D-01
    90  8.9000000000000D-01  1.2568007650786D+00 -8.1706533254309D-02
    91  9.0000000000000D-01  1.2432213737046D+00 -4.0173929725892D-02
    92  9.1000000000000D-01  1.2284738845251D+00  2.8463243162578D-03
    93  9.2000000000000D-01  1.2125806393610D+00  4.7241428958216D-02
    94  9.3000000000000D-01  1.1955665087244D+00  9.2893505558355D-02
    95  9.4000000000000D-01  1.1774588332945D+00  1.3968002051424D-01
    96  9.5000000000000D-01  1.1582873579489D+00  1.8747422712244D-01
    97  9.6000000000000D-01  1.1380841585515D+00  2.3614562374446D-01
    98  9.7000000000000D-01  1.1168835617233D+00  2.8556042642009D-01
    99  9.8000000000000D-01  1.0947220578468D+00  3.3558205400459D-01
   100  9.9000000000000D-01  1.0716382075780D+00  3.8607162385207D-01
   101  1.0000000000000D+00  1.0476725421636D+00  4.3688845601847D-01
   102  1.0100000000000D+00  1.0228674578793D+00  4.8789058392061D-01
   103  1.0200000000000D+00  9.9726710493047D-01  5.3893526935865D-01
   104  1.0300000000000D+00  9.7091727117053D-01  5.8987951978969D-01
   105  1.0400000000000D+00  9.4386526101324D-01  6.4058060573005D-01
   106  1.0500000000000D+00  9.1615976993108D-01  6.9089657616393D-01
   107  1.0600000000000D+00  8.8785075494608D-01  7.4068676984362D-01
   108  1.0700000000000D+00  8.5898930153423D-01  7.8981232038695D-01
   109  1.0800000000000D+00  8.2962748737585D-01  8.3813665310425D-01
   110  1.0900000000000D+00  7.9981824339531D-01  8.8552597152700D-01
   111  1.1000000000000D+00  7.6961521254191D-01  9.3184973165505D-01
   112  1.1100000000000D+00  7.3907260677111D-01  9.7698110199380D-01
   113  1.1200000000000D+00  7.0824506269127D-01  1.0207974075224D+00
   114  1.1300000000000D+00  6.7718749634433D-01  1.0631805558031D+00
   115  1.1400000000000D+00  6.4595495759094D-01  1.1040174435305D+00
   116  1.1500000000000D+00  6.1460248457147D-01  1.1432003418893D+00
   117  1.1600000000000D+00  5.8318495871285D-01  1.1806272592115D+00
   118  1.1700000000000D+00  5.5175696074758D-01  1.2162022795158D+00
   119  1.1800000000000D+00  5.2037262820688D-01  1.2498358756182D+00
   120  1.1900000000000D+00  4.8908551484476D-01  1.2814451956141D+00
   121  1.2000000000000D+00  4.5794845243992D-01  1.3109543216712D+00
   122  1.2100000000000D+00  4.2701341541160D-01  1.3382945002045D+00
   123  1.2200000000000D+00  3.9633138868047D-01  1.3634043425743D+00
   124  1.2300000000000D+00  3.6595223918597D-01  1.3862299956606D+00
   125  1.2400000000000D+00  3.3592459145837D-01  1.4067252817765D+00
   126  1.2500000000000D+00  3.0629570763397D-01  1.4248518074795D+00
   127  1.2600000000000D+00  2.7711137228081D-01  1.4405790410242D+00
   128  1.2700000000000D+00  2.4841578237945D-01  1.4538843583620D+00
   129  1.2800000000000D+00  2.2025144279472D-01  1.4647530576582D+00
   130  1.2900000000000D+00  1.9265906755019D-01  1.4731783424791D+00
   131  1.3000000000000D+00  1.6567748718444D-01  1.4791612739950D+00
   132  1.3100000000000D+00  1.3934356246663D-01  1.4827106925598D+00
   133  1.3200000000000D+00  1.1369210471479D-01  1.4838431092394D+00
   134  1.3300000000000D+00  8.8755802922552D-02  1.4825825680480D+00
   135  1.3400000000000D+00  6.4565157912399D-02  1.4789604795945D+00
   136  1.3500000000000D+00  4.1148423674851D-02  1.4730154271472D+00
   137  1.3600000000000D+00  1.8531556027381D-02  1.4647929462041D+00
   138  1.3700000000000D+00 -3.2618312505835D-03  1.4543452785938D+00
   139  1.3800000000000D+00 -2.4210502749869D-02  1.4417311025278D+00
   140  1.3900000000000D+00 -4.4295630140979D-02  1.4270152398723D+00
   141  1.4000000000000D+00 -6.3500813205748D-02  1.4102683420773D+00
   142  1.4100000000000D+00 -8.1812093211065D-02  1.3915665563929D+00
   143  1.4200000000000D+00 -9.9217958577060D-02  1.3709911738291D+00
   144  1.4300000000000D+00 -1.1570934291643D-01  1.3486282606556D+00
   145  1.4400000000000D+00 -1.3127961548162D-01  1.3245682750893D+00
   146  1.4500000000000D+00 -1.4592456407977D-01  1.2989056709414D+00
   147  1.4600000000000D+00 -1.5964237061103D-01  1.2717384900682D+00
   148  1.4700000000000D+00 -1.7243357927837D-01  1.2431679453931D+00
   149  1.4800000000000D+00 -1.8430105769086D-01  1.2132979964052D+00
   150  1.4900000000000D+00 -1.9524995097129D-01  1.1822349189422D+00
   151  1.5000000000000D+00 -2.0528762907849D-01  1.1500868711563D+00
   152  1.5100000000000D+00 -2.1442362755743D-01  1.1169634574334D+00
   153  1.5200000000000D+00 -2.2266958190046D-01  1.0829752922108D+00
   154  1.5300000000000D+00 -2.3003915582337D-01  1.0482335652835D+00
   155  1.5400000000000D+00 -2.3654796362856D-01  1.0128496106251D+00
   156  1.5500000000000D+00 -2.4221348700710D-01  9.7693448011177D-01
   157  1.5600000000000D+00 -2.4705498648716D-01  9.4059852410750D-01
   158  1.5700000000000D+00 -2.5109340787689D-01  9.0395098022920D-01
   159  1.5800000000000D+00 -2.5435128396450D-01  8.6709957199419D-01
   160  1.5900000000000D+00 -2.5685263181070D-01  8.3015011869358D-01
   161  1.6000000000000D+00 -2.5862284593816D-01  7.9320615780808D-01
   162  1.6100000000000D+00 -2.5968858774720D-01  7.5636858139339D-01
   163  1.6200000000000D+00 -2.6007767148469D-01  7.1973528727186D-01
   164  1.6300000000000D+00 -2.5981894709878D-01  6.8340084657138D-01
   165  1.6400000000000D+00 -2.5894218030812D-01  6.4745618791369D-01
   166  1.6500000000000D+00 -2.5747793023107D-01  6.1198829990651D-01
   167  1.6600000000000D+00 -2.5545742488616D-01  5.7707995169305D-01
   168  1.6700000000000D+00 -2.5291243492930D-01  5.4280943329577D-01
   169  1.6800000000000D+00 -2.4987514590580D-01  5.0925031498613D-01
   170  1.6900000000000D+00 -2.4637802940670D-01  4.7647122743928D-01
   171  1.7000000000000D+00 -2.4245371336284D-01  4.4453566144936D-01
   172  1.7100000000000D+00 -2.3813485188969D-01  4.1350178889880D-01
   173  1.7200000000000D+00 -2.3345399486644D-01  3.8342230340492D-01
   174  1.7300000000000D+00 -2.2844345767934D-01  3.5434428215752D-01
   175  1.7400000000000D+00 -2.2313519126509D-01  3.2630906715765D-01
   176  1.7500000000000D+00 -2.1756065199837D-01  2.9935216362303D-01
   177  1.7600000000000D+00 -2.1175067716113D-01  2.7350317548532D-01
   178  1.7700000000000D+00 -2.0573534572483D-01  2.4878570076677D-01
   179  1.7800000000000D+00 -1.9954388104051D-01  2.2521739178443D-01
   180  1.7900000000000D+00 -1.9320451248492D-01  2.0280988722838D-01
   181  1.8000000000000D+00 -1.8674428652708D-01  1.8156854111639D-01
   182  1.8100000000000D+00 -1.8018902473192D-01  1.6149272914473D-01
   183  1.8200000000000D+00 -1.7356337644634D-01  1.4257655243375D-01
   184  1.8300000000000D+00 -1.6689085122488D-01  1.2480939966375D-01
   185  1.8400000000000D+00 -1.6019391766398D-01  1.0817665817514D-01
   186  1.8500000000000D+00 -1.5349411236158D-01  9.2660480541855D-02
   187  1.8600000000000D+00 -1.4681194410404D-01  7.8239725789803D-02
   188  1.8700000000000D+00 -1.4016684478106D-01  6.4890039794669D-02
   189  1.8800000000000D+00 -1.3357718759853D-01  5.2584247021013D-02
   190  1.8900000000000D+00 -1.2706025832750D-01  4.1292521562302D-02
   191  1.9000000000000D+00 -1.2063224736793D-01  3.0982637589059D-02
   192  1.9100000000000D+00 -1.1430824260909D-01  2.1620212468645D-02
   193  1.9200000000000D+00 -1.0810222536956D-01  1.3168950243559D-02
   194  1.9300000000000D+00 -1.0202707011559D-01  5.5908876670394D-03
   195  1.9400000000000D+00 -9.6094547541151D-02 -1.1533596659348D-03
   196  1.9500000000000D+00 -9.0315331178905D-02 -7.1043525747420D-03
   197  1.9600000000000D+00 -8.4699007070617D-02 -1.2303585443919D-02
   198  1.9700000000000D+00 -7.9254086882183D-02 -1.6793247733955D-02
   199  1.9800000000000D+00 -7.3988023897449D-02 -2.0615989454246D-02
   200  1.9900000000000D+00 -6.8907232107434D-02 -2.3814693201935D-02
   201  2.0000000000000D+00 -6.4017108112530D-02 -2.6432252929920D-02
   202  2.0100000000000D+00 -5.9322055684455D-02 -2.8511360417722D-02
   203  2.0200000000000D+00 -5.4825513002763D-02 -3.0094301780883D-02
   204  2.0300000000000D+00 -5.0529982174467D-02 -3.1222762165926D-02
   205  2.0400000000000D+00 -4.6437061133905D-02 -3.1937643149985D-02
   206  2.0500000000000D+00 -4.2547477570417D-02 -3.2278890022509D-02
   207  2.0600000000000D+00 -3.8861124810903D-02 -3.2285331871109D-02
   208  2.0700000000000D+00 -3.5377099486514D-02 -3.1994535022865D-02
   209  2.0800000000000D+00 -3.2093740780267D-02 -3.1442667796338D-02
   210  2.0900000000000D+00 -2.9008671109511D-02 -3.0664381605038D-02
   211  2.1000000000000D+00 -2.6118838086399D-02 -2.9692703537023D-02
   212  2.1100000000000D+00 -2.3420557548801D-02 -2.8558944521351D-02
   213  2.1200000000000D+00 -2.0909557510357D-02 -2.7292622083311D-02
   214  2.1300000000000D+00 -1.8581022928853D-02 -2.5921395523322D-02
   215  2.1400000000000D+00 -1.6429640964527D-02 -2.4471018374995D-02
   216  2.1500000000000D+00 -1.4449646787301D-02 -2.2965302413947D-02
   217  2.1600000000000D+00 -1.2634869601820D-02 -2.1426096936938D-02
   218  2.1700000000000D+00 -1.0978778764156D-02 -1.9873282352484D-02
   219  2.1800000000000D+00 -9.4745300385670D-03 -1.8324774633415D-02
   220  2.1900000000000D+00 -8.1150114719719D-03 -1.6796545768544D-02
   221  2.2000000000000D+00 -6.8928891450565D-03 -1.5302654221996D-02
   222  2.2100000000000D+00 -5.8006524566664D-03 -1.3855287560687D-02
   223  2.2200000000000D+00 -4.8306587392506D-03 -1.2464817274666D-02
   224  2.2300000000000D+00 -3.9751774151997D-03 -1.1139861925558D-02
   225  2.2400000000000D+00 -3.2264331524130D-03 -9.8873615210598D-03
   226  2.2500000000000D+00 -2.5766481929723D-03 -8.7126600025377D-03
   227  2.2600000000000D+00 -2.0180838098983D-03 -7.6195948102743D-03
   228  2.2700000000000D+00 -1.5430804049693D-03 -6.6105946800865D-03
   229  2.2800000000000D+00 -1.1440966443466D-03 -5.6867824202317D-03
   230  2.2900000000000D+00 -8.1374725011510D-04 -4.8480829196386D-03
   231  2.3000000000000D+00 -5.4483931498478D-04 -4.0933353740406D-03
   232  2.3100000000000D+00 -3.3040742206475D-04 -3.4204084174141D-03
   233  2.3200000000000D+00 -1.6374706044595D-04 -2.8263171743069D-03
   234  2.3300000000000D+00 -3.8446495636215D-05 -2.3073412431625D-03
   235  2.3400000000000D+00  5.1582766846616D-05 -1.8591435745730D-03
   236  2.3500000000000D+00  1.1207750865739D-04 -1.4768870068979D-03
   237  2.3600000000000D+00  1.4839586277017D-04 -1.1553498386242D-03
   238  2.3700000000000D+00  1.6549208828626D-04 -8.8903923422074D-04
   239  2.3800000000000D+00  1.6789337834229D-04 -6.7229889864179D-04
   240  2.3900000000000D+00  1.5967831656391D-04 -4.9941421453984D-04
   241  2.4000000000000D+00  1.4445724043387D-04 -3.6471174702449D-04
   242  2.4100000000000D+00  1.2538294301170D-04 -2.6271606802459D-04
   243  2.4200000000000D+00  1.0504930065075D-04 -1.8803963706056D-04
   244  2.4300000000000D+00  8.5505286076217D-05 -1.3552559363950D-04
   245  2.4400000000000D+00  6.7979143543172D-05 -9.9982698544712D-05
   246  2.4500000000000D+00  5.4065181771517D-05 -7.8096548049057D-05
   247  2.4600000000000D+00  4.4880766747912D-05 -6.7164354504514D-05
   248  2.4700000000000D+00  4.1612189957764D-05 -6.5809527851334D-05
   249  2.4800000000000D+00  4.0729772940078D-05 -6.6933780724214D-05
   250  2.4900000000000D+00  3.8003259824189D-05 -6.3452739196803D-05
   251  2.5000000000000D+00  2.8305460581746D-05 -4.7623558991332D-05
   252  2.5100000000000D+00  1.4856991588303D-05 -2.5099521004279D-05
   253  2.5200000000000D+00  2.2748469601746D-06 -3.8488864735061D-06
   254  2.5300000000000D+00 -3.3182042105028D-06  5.6637519844888D-06
   255  2.5400000000000D+00 -3.4154709229457D-06  5.8435683401698D-06
   256  2.5500000000000D+00 -7.7694554904691D-07  1.3317308123234D-06
   257  2.5600000000000D+00  6.7166269180940D-07 -1.1369228861448D-06
   258  2.5700000000000D+00  8.1111234040343D-07 -1.3737584065190D-06
   259  2.5800000000000D+00  2.4225612663220D-07 -4.1049999244700D-07
   260  2.5900000000000D+00 -7.3307295187673D-08  1.2255570495121D-07
   261  2.6000000000000D+00 -1.0169673548560D-07  1.7001739154018D-07
   262  2.6100000000000D+00 -3.9773391800119D-08  6.6493465048533D-08
   263  2.6200000000000D+00  0.0000000000000D+00  0.0000000000000D+00
   264  2.6300000000000D+00  0.0000000000000D+00  0.0000000000000D+00
   265  2.6400000000000D+00  0.0000000000000D+00  0.0000000000000D+00
   266  2.6500000000000D+00  0.0000000000000D+00  0.0000000000000D+00
   267  2.6600000000000D+00  0.0000000000000D+00  0.0000000000000D+00
   268  2.6700000000000D+00  0.0000000000000D+00  0.0000000000000D+00
   269  2.6800000000000D+00  0.0000000000000D+00  0.0000000000000D+00
   270  2.6900000000000D+00  0.0000000000000D+00  0.0000000000000D+00
   271  2.7000000000000D+00  0.0000000000000D+00  0.0000000000000D+00
   272  2.7100000000000D+00  0.0000000000000D+00  0.0000000000000D+00
   273  2.7200000000000D+00  0.0000000000000D+00  0.0000000000000D+00
   274  2.7300000000000D+00  0.0000000000000D+00  0.0000000000000D+00
   275  2.7400000000000D+00  0.0000000000000D+00  0.0000000000000D+00
   276  2.7500000000000D+00  0.0000000000000D+00  0.0000000000000D+00
   277  2.7600000000000D+00  0.0000000000000D+00  0.0000000000000D+00
   278  2.7700000000000D+00  0.0000000000000D+00  0.0000000000000D+00
   279  2.7800000000000D+00  0.0000000000000D+00  0.0000000000000D+00
   280  2.7900000000000D+00  0.0000000000000D+00  0.0000000000000D+00
   281  2.8000000000000D+00  0.0000000000000D+00  0.0000000000000D+00
   282  2.8100000000000D+00  0.0000000000000D+00  0.0000000000000D+00
   283  2.8200000000000D+00  0.0000000000000D+00  0.0000000000000D+00
   284  2.8300000000000D+00  0.0000000000000D+00  0.0000000000000D+00
   285  2.8400000000000D+00  0.0000000000000D+00  0.0000000000000D+00
   286  2.8500000000000D+00  0.0000000000000D+00  0.0000000000000D+00
   287  2.8600000000000D+00  0.0000000000000D+00  0.0000000000000D+00
   288  2.8700000000000D+00  0.0000000000000D+00  0.0000000000000D+00
   289  2.8800000000000D+00  0.0000000000000D+00  0.0000000000000D+00
   290  2.8900000000000D+00  0.0000000000000D+00  0.0000000000000D+00
   291  2.9000000000000D+00  0.0000000000000D+00  0.0000000000000D+00
   292  2.9100000000000D+00  0.0000000000000D+00  0.0000000000000D+00
   293  2.9200000000000D+00  0.0000000000000D+00  0.0000000000000D+00
   294  2.9300000000000D+00  0.0000000000000D+00  0.0000000000000D+00
   295  2.9400000000000D+00  0.0000000000000D+00  0.0000000000000D+00
   296  2.9500000000000D+00  0.0000000000000D+00  0.0000000000000D+00
   297  2.9600000000000D+00  0.0000000000000D+00  0.0000000000000D+00
   298  2.9700000000000D+00  0.0000000000000D+00  0.0000000000000D+00
   299  2.9800000000000D+00  0.0000000000000D+00  0.0000000000000D+00
   300  2.9900000000000D+00  0.0000000000000D+00  0.0000000000000D+00
   301  3.0000000000000D+00  0.0000000000000D+00  0.0000000000000D+00
   302  3.0100000000000D+00  0.0000000000000D+00  0.0000000000000D+00
   303  3.0200000000000D+00  0.0000000000000D+00  0.0000000000000D+00
   304  3.0300000000000D+00  0.0000000000000D+00  0.0000000000000D+00
   305  3.0400000000000D+00  0.0000000000000D+00  0.0000000000000D+00
   306  3.0500000000000D+00  0.0000000000000D+00  0.0000000000000D+00
   307  3.0600000000000D+00  0.0000000000000D+00  0.0000000000000D+00
   308  3.0700000000000D+00  0.0000000000000D+00  0.0000000000000D+00
   309  3.0800000000000D+00  0.0000000000000D+00  0.0000000000000D+00
   310  3.0900000000000D+00  0.0000000000000D+00  0.0000000000000D+00
   311  3.1000000000000D+00  0.0000000000000D+00  0.0000000000000D+00
   312  3.1100000000000D+00  0.0000000000000D+00  0.0000000000000D+00
   313  3.1200000000000D+00  0.0000000000000D+00  0.0000000000000D+00
   314  3.1300000000000D+00  0.0000000000000D+00  0.0000000000000D+00
   315  3.1400000000000D+00  0.0000000000000D+00  0.0000000000000D+00
   316  3.1500000000000D+00  0.0000000000000D+00  0.0000000000000D+00
   317  3.1600000000000D+00  0.0000000000000D+00  0.0000000000000D+00
   318  3.1700000000000D+00  0.0000000000000D+00  0.0000000000000D+00
   319  3.1800000000000D+00  0.0000000000000D+00  0.0000000000000D+00
   320  3.1900000000000D+00  0.0000000000000D+00  0.0000000000000D+00
   321  3.2000000000000D+00  0.0000000000000D+00  0.0000000000000D+00
   322  3.2100000000000D+00  0.0000000000000D+00  0.0000000000000D+00
   323  3.2200000000000D+00  0.0000000000000D+00  0.0000000000000D+00
   324  3.2300000000000D+00  0.0000000000000D+00  0.0000000000000D+00
   325  3.2400000000000D+00  0.0000000000000D+00  0.0000000000000D+00
   326  3.2500000000000D+00  0.0000000000000D+00  0.0000000000000D+00
   327  3.2600000000000D+00  0.0000000000000D+00  0.0000000000000D+00
   328  3.2700000000000D+00  0.0000000000000D+00  0.0000000000000D+00
   329  3.2800000000000D+00  0.0000000000000D+00  0.0000000000000D+00
   330  3.2900000000000D+00  0.0000000000000D+00  0.0000000000000D+00
   331  3.3000000000000D+00  0.0000000000000D+00  0.0000000000000D+00
   332  3.3100000000000D+00  0.0000000000000D+00  0.0000000000000D+00
   333  3.3200000000000D+00  0.0000000000000D+00  0.0000000000000D+00
   334  3.3300000000000D+00  0.0000000000000D+00  0.0000000000000D+00
   335  3.3400000000000D+00  0.0000000000000D+00  0.0000000000000D+00
   336  3.3500000000000D+00  0.0000000000000D+00  0.0000000000000D+00
   337  3.3600000000000D+00  0.0000000000000D+00  0.0000000000000D+00
   338  3.3700000000000D+00  0.0000000000000D+00  0.0000000000000D+00
   339  3.3800000000000D+00  0.0000000000000D+00  0.0000000000000D+00
   340  3.3900000000000D+00  0.0000000000000D+00  0.0000000000000D+00
   341  3.4000000000000D+00  0.0000000000000D+00  0.0000000000000D+00
   342  3.4100000000000D+00  0.0000000000000D+00  0.0000000000000D+00
   343  3.4200000000000D+00  0.0000000000000D+00  0.0000000000000D+00
   344  3.4300000000000D+00  0.0000000000000D+00  0.0000000000000D+00
   345  3.4400000000000D+00  0.0000000000000D+00  0.0000000000000D+00
   346  3.4500000000000D+00  0.0000000000000D+00  0.0000000000000D+00
   347  3.4600000000000D+00  0.0000000000000D+00  0.0000000000000D+00
   348  3.4700000000000D+00  0.0000000000000D+00  0.0000000000000D+00
   349  3.4800000000000D+00  0.0000000000000D+00  0.0000000000000D+00
   350  3.4900000000000D+00  0.0000000000000D+00  0.0000000000000D+00
   351  3.5000000000000D+00  0.0000000000000D+00  0.0000000000000D+00
   352  3.5100000000000D+00  0.0000000000000D+00  0.0000000000000D+00
   353  3.5200000000000D+00  0.0000000000000D+00  0.0000000000000D+00
   354  3.5300000000000D+00  0.0000000000000D+00  0.0000000000000D+00
   355  3.5400000000000D+00  0.0000000000000D+00  0.0000000000000D+00
   356  3.5500000000000D+00  0.0000000000000D+00  0.0000000000000D+00
   357  3.5600000000000D+00  0.0000000000000D+00  0.0000000000000D+00
   358  3.5700000000000D+00  0.0000000000000D+00  0.0000000000000D+00
   359  3.5800000000000D+00  0.0000000000000D+00  0.0000000000000D+00
   360  3.5900000000000D+00  0.0000000000000D+00  0.0000000000000D+00
   361  3.6000000000000D+00  0.0000000000000D+00  0.0000000000000D+00
   362  3.6100000000000D+00  0.0000000000000D+00  0.0000000000000D+00
   363  3.6200000000000D+00  0.0000000000000D+00  0.0000000000000D+00
   364  3.6300000000000D+00  0.0000000000000D+00  0.0000000000000D+00
   365  3.6400000000000D+00  0.0000000000000D+00  0.0000000000000D+00
   366  3.6500000000000D+00  0.0000000000000D+00  0.0000000000000D+00
   367  3.6600000000000D+00  0.0000000000000D+00  0.0000000000000D+00
   368  3.6700000000000D+00  0.0000000000000D+00  0.0000000000000D+00
   369  3.6800000000000D+00  0.0000000000000D+00  0.0000000000000D+00
   370  3.6900000000000D+00  0.0000000000000D+00  0.0000000000000D+00
   371  3.7000000000000D+00  0.0000000000000D+00  0.0000000000000D+00
   372  3.7100000000000D+00  0.0000000000000D+00  0.0000000000000D+00
   373  3.7200000000000D+00  0.0000000000000D+00  0.0000000000000D+00
   374  3.7300000000000D+00  0.0000000000000D+00  0.0000000000000D+00
   375  3.7400000000000D+00  0.0000000000000D+00  0.0000000000000D+00
   376  3.7500000000000D+00  0.0000000000000D+00  0.0000000000000D+00
   377  3.7600000000000D+00  0.0000000000000D+00  0.0000000000000D+00
   378  3.7700000000000D+00  0.0000000000000D+00  0.0000000000000D+00
   379  3.7800000000000D+00  0.0000000000000D+00  0.0000000000000D+00
   380  3.7900000000000D+00  0.0000000000000D+00  0.0000000000000D+00
   381  3.8000000000000D+00  0.0000000000000D+00  0.0000000000000D+00
   382  3.8100000000000D+00  0.0000000000000D+00  0.0000000000000D+00
   383  3.8200000000000D+00  0.0000000000000D+00  0.0000000000000D+00
   384  3.8300000000000D+00  0.0000000000000D+00  0.0000000000000D+00
   385  3.8400000000000D+00  0.0000000000000D+00  0.0000000000000D+00
   386  3.8500000000000D+00  0.0000000000000D+00  0.0000000000000D+00
   387  3.8600000000000D+00  0.0000000000000D+00  0.0000000000000D+00
   388  3.8700000000000D+00  0.0000000000000D+00  0.0000000000000D+00
   389  3.8800000000000D+00  0.0000000000000D+00  0.0000000000000D+00
   390  3.8900000000000D+00  0.0000000000000D+00  0.0000000000000D+00
   391  3.9000000000000D+00  0.0000000000000D+00  0.0000000000000D+00
   392  3.9100000000000D+00  0.0000000000000D+00  0.0000000000000D+00
   393  3.9200000000000D+00  0.0000000000000D+00  0.0000000000000D+00
   394  3.9300000000000D+00  0.0000000000000D+00  0.0000000000000D+00
   395  3.9400000000000D+00  0.0000000000000D+00  0.0000000000000D+00
   396  3.9500000000000D+00  0.0000000000000D+00  0.0000000000000D+00
   397  3.9600000000000D+00  0.0000000000000D+00  0.0000000000000D+00
   398  3.9700000000000D+00  0.0000000000000D+00  0.0000000000000D+00
   399  3.9800000000000D+00  0.0000000000000D+00  0.0000000000000D+00
   400  3.9900000000000D+00  0.0000000000000D+00  0.0000000000000D+00
   401  4.0000000000000D+00  0.0000000000000D+00  0.0000000000000D+00
   402  4.0100000000000D+00  0.0000000000000D+00  0.0000000000000D+00
   403  4.0200000000000D+00  0.0000000000000D+00  0.0000000000000D+00
   404  4.0300000000000D+00  0.0000000000000D+00  0.0000000000000D+00
   405  4.0400000000000D+00  0.0000000000000D+00  0.0000000000000D+00
   406  4.0500000000000D+00  0.0000000000000D+00  0.0000000000000D+00
   407  4.0600000000000D+00  0.0000000000000D+00  0.0000000000000D+00
   408  4.0700000000000D+00  0.0000000000000D+00  0.0000000000000D+00
   409  4.0800000000000D+00  0.0000000000000D+00  0.0000000000000D+00
   410  4.0900000000000D+00  0.0000000000000D+00  0.0000000000000D+00
   411  4.1000000000000D+00  0.0000000000000D+00  0.0000000000000D+00
   412  4.1100000000000D+00  0.0000000000000D+00  0.0000000000000D+00
   413  4.1200000000000D+00  0.0000000000000D+00  0.0000000000000D+00
   414  4.1300000000000D+00  0.0000000000000D+00  0.0000000000000D+00
   415  4.1400000000000D+00  0.0000000000000D+00  0.0000000000000D+00
   416  4.1500000000000D+00  0.0000000000000D+00  0.0000000000000D+00
   417  4.1600000000000D+00  0.0000000000000D+00  0.0000000000000D+00
   418  4.1700000000000D+00  0.0000000000000D+00  0.0000000000000D+00
   419  4.1800000000000D+00  0.0000000000000D+00  0.0000000000000D+00
   420  4.1900000000000D+00  0.0000000000000D+00  0.0000000000000D+00
   421  4.2000000000000D+00  0.0000000000000D+00  0.0000000000000D+00
   422  4.2100000000000D+00  0.0000000000000D+00  0.0000000000000D+00