Ti    ONCVPSP-3.3.1  r_core=   2.46607   2.35117   2.29574
     22.0000     12.0000      210905    zatom,zion,pspd
     8 -116133   2     4   600     0    pspcod,pspxc,lmax,lloc,mmax,r2well
  5.99000000  0.00000000  0.00000000    rchrg fchrg qchrg
     2     3     2     0    nproj
     3     1           extension_switch
     3     2     0    nprojso
   0                        -9.2055474749868D-02  2.0974892390876D+00
     1  0.0000000000000D+00 -1.7826573550650D-11  4.6352366389613D-12
     2  1.0000000000000D-02  3.1551040611242D-02  4.7323669455775D-02
     3  2.0000000000000D-02  6.3015421682991D-02  9.4593372667293D-02
     4  3.0000000000000D-02  9.4306802443548D-02  1.4175517782675D-01
     5  4.0000000000000D-02  1.2533947846196D-01  1.8875522216661D-01
     6  5.0000000000000D-02  1.5602869683579D-01  2.3553974689702D-01
     7  6.0000000000000D-02  1.8629096781236D-01  2.8205513264065D-01
     8  7.0000000000000D-02  2.1604437167571D-01  3.2824793552534D-01
     9  8.0000000000000D-02  2.4520885974909D-01  3.7406492409035D-01
    10  9.0000000000000D-02  2.7370654838542D-01  4.1945311715624D-01
    11  1.0000000000000D-01  3.0146200484447D-01  4.6435982280137D-01
    12  1.1000000000000D-01  3.2840252398596D-01  5.0873267858049D-01
    13  1.2000000000000D-01  3.5445839474293D-01  5.5251969311139D-01
    14  1.3000000000000D-01  3.7956315537810D-01  5.9566928914608D-01
    15  1.4000000000000D-01  4.0365383656831D-01  6.3813034823168D-01
    16  1.5000000000000D-01  4.2667119140851D-01  6.7985225705451D-01
    17  1.6000000000000D-01  4.4855991147597D-01  7.2078495554790D-01
    18  1.7000000000000D-01  4.6926882814835D-01  7.6087898683096D-01
    19  1.8000000000000D-01  4.8875109842518D-01  8.0008554903087D-01
    20  1.9000000000000D-01  5.0696437456099D-01  8.3835654902629D-01
    21  2.0000000000000D-01  5.2387095687967D-01  8.7564465813390D-01
    22  2.1000000000000D-01  5.3943792920372D-01  9.1190336974345D-01
    23  2.2000000000000D-01  5.5363727639790D-01  9.4708705889032D-01
    24  2.3000000000000D-01  5.6644598359471D-01  9.8115104373674D-01
    25  2.4000000000000D-01  5.7784611673899D-01  1.0140516489158D+00
    26  2.5000000000000D-01  5.8782488415980D-01  1.0457462706743D+00
    27  2.6000000000000D-01  5.9637467895007D-01  1.0761934437313D+00
    28  2.7000000000000D-01  6.0349310200761D-01  1.1053529097543D+00
    29  2.8000000000000D-01  6.0918296566472D-01  1.1331856873308D+00
    30  2.9000000000000D-01  6.1345227790761D-01  1.1596541433026D+00
    31  3.0000000000000D-01  6.1631420726108D-01  1.1847220653049D+00
    32  3.1000000000000D-01  6.1778702848737D-01  1.2083547353381D+00
    33  3.2000000000000D-01  6.1789404932167D-01  1.2305190041845D+00
    34  3.3000000000000D-01  6.1666351853888D-01  1.2511833664597D+00
    35  3.4000000000000D-01  6.1412851571786D-01  1.2703180360771D+00
    36  3.5000000000000D-01  6.1032682313872D-01  1.2878950218867D+00
    37  3.6000000000000D-01  6.0530078031792D-01  1.3038882032313D+00
    38  3.7000000000000D-01  5.9909712175096D-01  1.3182734051547D+00
    39  3.8000000000000D-01  5.9176679849788D-01  1.3310284729766D+00
    40  3.9000000000000D-01  5.8336478430719D-01  1.3421333459428D+00
    41  4.0000000000000D-01  5.7394986703371D-01  1.3515701296420D+00
    42  4.1000000000000D-01  5.6358442616123D-01  1.3593231668761D+00
    43  4.2000000000000D-01  5.5233419729388D-01  1.3653791066570D+00
    44  4.3000000000000D-01  5.4026802452941D-01  1.3697269709996D+00
    45  4.4000000000000D-01  5.2745760167357D-01  1.3723582191714D+00
    46  4.5000000000000D-01  5.1397720329626D-01  1.3732668090564D+00
    47  4.6000000000000D-01  4.9990340666902D-01  1.3724492552873D+00
    48  4.7000000000000D-01  4.8531480565633D-01  1.3699046837989D+00
    49  4.8000000000000D-01  4.7029171766351D-01  1.3656348824546D+00
    50  4.9000000000000D-01  4.5491588476914D-01  1.3596443474016D+00
    51  5.0000000000000D-01  4.3927017019011D-01  1.3519403248136D+00
    52  5.1000000000000D-01  4.2343825124423D-01  1.3425328476831D+00
    53  5.2000000000000D-01  4.0750430998615D-01  1.3314347673364D+00
    54  5.3000000000000D-01  3.9155272269945D-01  1.3186617793505D+00
    55  5.4000000000000D-01  3.7566774942911D-01  1.3042324435633D+00
    56  5.5000000000000D-01  3.5993322473634D-01  1.2881681978807D+00
    57  5.6000000000000D-01  3.4443225084935D-01  1.2704933655994D+00
    58  5.7000000000000D-01  3.2924689437213D-01  1.2512351559799D+00
    59  5.8000000000000D-01  3.1445788769463D-01  1.2304236578226D+00
    60  5.9000000000000D-01  3.0014433622791D-01  1.2080918258204D+00
    61  6.0000000000000D-01  2.8638343255945D-01  1.1842754594807D+00
    62  6.1000000000000D-01  2.7325017859449D-01  1.1590131744360D+00
    63  6.2000000000000D-01  2.6081711671320D-01  1.1323463659840D+00
    64  6.3000000000000D-01  2.4915407093425D-01  1.1043191647258D+00
    65  6.4000000000000D-01  2.3832789903243D-01  1.0749783841990D+00
    66  6.5000000000000D-01  2.2840225650982D-01  1.0443734604294D+00
    67  6.6000000000000D-01  2.1943737327023D-01  1.0125563833568D+00
    68  6.7000000000000D-01  2.1148984379097D-01  9.7958162012134D-01
    69  6.8000000000000D-01  2.0461243153000D-01  9.4550603022746D-01
    70  6.9000000000000D-01  1.9885388824442D-01  9.1038877263767D-01
    71  7.0000000000000D-01  1.9425878883446D-01  8.7429120488018D-01
    72  7.1000000000000D-01  1.9086738226093D-01  8.3727677428926D-01
    73  7.2000000000000D-01  1.8871545901610D-01  7.9941090153174D-01
    74  7.3000000000000D-01  1.8783423555938D-01  7.6076085660771D-01
    75  7.4000000000000D-01  1.8825025605697D-01  7.2139562754817D-01
    76  7.5000000000000D-01  1.8998531169354D-01  6.8138578206735D-01
    77  7.6000000000000D-01  1.9305637775005D-01  6.4080332246150D-01
    78  7.7000000000000D-01  1.9747556856868D-01  5.9972153408031D-01
    79  7.8000000000000D-01  2.0325011045158D-01  5.5821482773025D-01
    80  7.9000000000000D-01  2.1038233246685D-01  5.1635857640172D-01
    81  8.0000000000000D-01  2.1886967506133D-01  4.7422894674356D-01
    82  8.1000000000000D-01  2.2870471630779D-01  4.3190272573897D-01
    83  8.2000000000000D-01  2.3987521554243D-01  3.8945714306583D-01
    84  8.3000000000000D-01  2.5236417407856D-01  3.4696968965237D-01
    85  8.4000000000000D-01  2.6614991261477D-01  3.0451793296478D-01
    86  8.5000000000000D-01  2.8120616488895D-01  2.6217932958801D-01
    87  8.6000000000000D-01  2.9750218706662D-01  2.2003103568271D-01
    88  8.7000000000000D-01  3.1500288229071D-01  1.7814971592180D-01
    89  8.8000000000000D-01  3.3366893976186D-01  1.3661135152792D-01
    90  8.9000000000000D-01  3.5345698766381D-01  9.5491048048259D-02
    91  9.0000000000000D-01  3.7431975919697D-01  5.4862843516643D-02
    92  9.1000000000000D-01  3.9620627093594D-01  1.4799517662844D-02
    93  9.2000000000000D-01  4.1906201268305D-01 -2.4627597163185D-02
    94  9.3000000000000D-01  4.4282914795088D-01 -6.3348802679530D-02
    95  9.4000000000000D-01  4.6744672417136D-01 -1.0129621829844D-01
    96  9.5000000000000D-01  4.9285089169896D-01 -1.3840396101672D-01
    97  9.6000000000000D-01  5.1897513064946D-01 -1.7460832090055D-01
    98  9.7000000000000D-01  5.4575048459478D-01 -2.0984793150223D-01
    99  9.8000000000000D-01  5.7310580011840D-01 -2.4406393455560D-01
   100  9.9000000000000D-01  6.0096797122442D-01 -2.7720013831043D-01
   101  1.0000000000000D+00  6.2926218758748D-01 -3.0920316888194D-01
   102  1.0100000000000D+00  6.5791218562944D-01 -3.4002261401026D-01
   103  1.0200000000000D+00  6.8684050141262D-01 -3.6961115864697D-01
   104  1.0300000000000D+00  7.1596872434831D-01 -3.9792471181006D-01
   105  1.0400000000000D+00  7.4521775073401D-01 -4.2492252417766D-01
   106  1.0500000000000D+00  7.7450803614938D-01 -4.5056729591795D-01
   107  1.0600000000000D+00  8.0375984576710D-01 -4.7482527428941D-01
   108  1.0700000000000D+00  8.3289350166138D-01 -4.9766634057819D-01
   109  1.0800000000000D+00  8.6182962622954D-01 -5.1906408597741D-01
   110  1.0900000000000D+00  8.9048938088275D-01 -5.3899587605600D-01
   111  1.1000000000000D+00  9.1879469919452D-01 -5.5744290349872D-01
   112  1.1100000000000D+00  9.4666851375157D-01 -5.7439022885252D-01
   113  1.1200000000000D+00  9.7403497599231D-01 -5.8982680905184D-01
   114  1.1300000000000D+00  1.0008196683778D+00 -6.0374551354867D-01
   115  1.1400000000000D+00  1.0269498082857D+00 -6.1614312791269D-01
   116  1.1500000000000D+00  1.0523544430852D+00 -6.2702034482287D-01
   117  1.1600000000000D+00  1.0769646359071D+00 -6.3638174241867D-01
   118  1.1700000000000D+00  1.1007136416954D+00 -6.4423575003434D-01
   119  1.1800000000000D+00  1.1235370731712D+00 -6.5059460137502D-01
   120  1.1900000000000D+00  1.1453730564292D+00 -6.5547427526238D-01
   121  1.2000000000000D+00  1.1661623759464D+00 -6.5889442411892D-01
   122  1.2100000000000D+00  1.1858486088534D+00 -6.6087829041137D-01
   123  1.2200000000000D+00  1.2043782483723D+00 -6.6145261131360D-01
   124  1.2300000000000D+00  1.2217008164238D+00 -6.6064751191556D-01
   125  1.2400000000000D+00  1.2377689654692D+00 -6.5849638734687D-01
   126  1.2500000000000D+00  1.2525385696803D+00 -6.5503577420330D-01
   127  1.2600000000000D+00  1.2659688056634D+00 -6.5030521174962D-01
   128  1.2700000000000D+00  1.2780222230021D+00 -6.4434709339456D-01
   129  1.2800000000000D+00  1.2886648049128D+00 -6.3720650895322D-01
   130  1.2900000000000D+00  1.2978660194322D+00 -6.2893107828765D-01
   131  1.3000000000000D+00  1.3055988615995D+00 -6.1957077693609D-01
   132  1.3100000000000D+00  1.3118398871001D+00 -6.0917775434827D-01
   133  1.3200000000000D+00  1.3165692379773D+00 -5.9780614541848D-01
   134  1.3300000000000D+00  1.3197706610329D+00 -5.8551187600798D-01
   135  1.3400000000000D+00  1.3214315195418D+00 -5.7235246315929D-01
   136  1.3500000000000D+00  1.3215427990499D+00 -5.5838681076362D-01
   137  1.3600000000000D+00  1.3200991079801D+00 -5.4367500142082D-01
   138  1.3700000000000D+00  1.3170986738340D+00 -5.2827808526309D-01
   139  1.3800000000000D+00  1.3125433358497D+00 -5.1225786652401D-01
   140  1.3900000000000D+00  1.3064385349303D+00 -4.9567668862718D-01
   141  1.4000000000000D+00  1.2987933017513D+00 -4.7859721858952D-01
   142  1.4100000000000D+00  1.2896202439387D+00 -4.6108223150612D-01
   143  1.4200000000000D+00  1.2789355332201D+00 -4.4319439591640D-01
   144  1.4300000000000D+00  1.2667588934899D+00 -4.2499606079278D-01
   145  1.4400000000000D+00  1.2531135906985D+00 -4.0654904492836D-01
   146  1.4500000000000D+00  1.2380264255108D+00 -3.8791442945958D-01
   147  1.4600000000000D+00  1.2215277296284D+00 -3.6915235421363D-01
   148  1.4700000000000D+00  1.2036513667337D+00 -3.5032181864333D-01
   149  1.4800000000000D+00  1.1844347388829D+00 -3.3148048791816D-01
   150  1.4900000000000D+00  1.1639187993076D+00 -3.1268450492681D-01
   151  1.5000000000000D+00  1.1421480724026D+00 -2.9398830869494D-01
   152  1.5100000000000D+00  1.1191706817636D+00 -2.7544445985153D-01
   153  1.5200000000000D+00  1.0950383870781D+00 -2.5710347367703D-01
   154  1.5300000000000D+00  1.0698066305384D+00 -2.3901366115335D-01
   155  1.5400000000000D+00  1.0435345936541D+00 -2.2122097862124D-01
   156  1.5500000000000D+00  1.0162852648718D+00 -2.0376888621288D-01
   157  1.5600000000000D+00  9.8812551895646D-01 -1.8669821572758D-01
   158  1.5700000000000D+00  9.5912620831696D-01 -1.7004704792029D-01
   159  1.5800000000000D+00  9.2936226716883D-01 -1.5385059980405D-01
   160  1.5900000000000D+00  8.9891283716593D-01 -1.3814112132519D-01
   161  1.6000000000000D+00  8.6786136786531D-01 -1.2294780489064D-01
   162  1.6100000000000D+00  8.3629585185761D-01 -1.0829669696436D-01
   163  1.6200000000000D+00  8.0430875154474D-01 -9.4210642769788D-02
   164  1.6300000000000D+00  7.7199710256342D-01 -8.0709227677647D-02
   165  1.6400000000000D+00  7.3946411416531D-01 -6.7808635221146D-02
   166  1.6500000000000D+00  7.0681747951360D-01 -5.5521730706530D-02
   167  1.6600000000000D+00  6.7416566706488D-01 -4.3858277446486D-02
   168  1.6700000000000D+00  6.4161519309826D-01 -3.2825138492685D-02
   169  1.6800000000000D+00  6.0926662171106D-01 -2.2426592245451D-02
   170  1.6900000000000D+00  5.7721376211874D-01 -1.2664451977765D-02
   171  1.7000000000000D+00  5.4554492172659D-01 -3.5380744848405D-03
   172  1.7100000000000D+00  5.1434267816536D-01  4.9555348613892D-03
   173  1.7200000000000D+00  4.8368377050220D-01  1.2821618795806D-02
   174  1.7300000000000D+00  4.5363921262514D-01  2.0067569862230D-02
   175  1.7400000000000D+00  4.2427430719504D-01  2.6702820129824D-02
   176  1.7500000000000D+00  3.9564871205429D-01  3.2738728146745D-02
   177  1.7600000000000D+00  3.6781650592930D-01  3.8188460515772D-02
   178  1.7700000000000D+00  3.4082626314360D-01  4.3066869213300D-02
   179  1.7800000000000D+00  3.1472113719057D-01  4.7390365193077D-02
   180  1.7900000000000D+00  2.8953895302601D-01  5.1176788925254D-02
   181  1.8000000000000D+00  2.6531230783556D-01  5.4445278367387D-02
   182  1.8100000000000D+00  2.4206868035912D-01  5.7216135111465D-02
   183  1.8200000000000D+00  2.1983054839770D-01  5.9510689199121D-02
   184  1.8300000000000D+00  1.9861551479504D-01  6.1351163349513D-02
   185  1.8400000000000D+00  1.7843644146496D-01  6.2760537185576D-02
   186  1.8500000000000D+00  1.5930159178435D-01  6.3762412053090D-02
   187  1.8600000000000D+00  1.4121478112253D-01  6.4380877232354D-02
   188  1.8700000000000D+00  1.2417553551734D-01  6.4640377893197D-02
   189  1.8800000000000D+00  1.0817925871564D-01  6.4565585769771D-02
   190  1.8900000000000D+00  9.3217407154237D-02  6.4181272779354D-02
   191  1.9000000000000D+00  7.9277673319785D-02  6.3512188492354D-02
   192  1.9100000000000D+00  6.6344177115272D-02  6.2582941853197D-02
   193  1.9200000000000D+00  5.4397664986354D-02  6.1417887573876D-02
   194  1.9300000000000D+00  4.3415717619041D-02  6.0041018229537D-02
   195  1.9400000000000D+00  3.3372963865890D-02  5.8475861491931D-02
   196  1.9500000000000D+00  2.4241303867415D-02  5.6745384441023D-02
   197  1.9600000000000D+00  1.5990137053321D-02  5.4871903611126D-02
   198  1.9700000000000D+00  8.5865982497916D-03  5.2877002718662D-02
   199  1.9800000000000D+00  1.9957985936137D-03  5.0781457240395D-02
   200  1.9900000000000D+00 -3.8189286101191D-03  4.8605166455852D-02
   201  2.0000000000000D+00 -8.8957764961758D-03  4.6367093763088D-02
   202  2.0100000000000D+00 -1.3274212673741D-02  4.4085213706860D-02
   203  2.0200000000000D+00 -1.6994722117796D-02  4.1776468335075D-02
   204  2.0300000000000D+00 -2.0098552029202D-02  3.9456730186909D-02
   205  2.0400000000000D+00 -2.2627455861007D-02  3.7140774002599D-02
   206  2.0500000000000D+00 -2.4623439737340D-02  3.4842256082024D-02
   207  2.0600000000000D+00 -2.6128513457225D-02  3.2573700765682D-02
   208  2.0700000000000D+00 -2.7184446017507D-02  3.0346495424953D-02
   209  2.0800000000000D+00 -2.7832528806637D-02  2.8170891452972D-02
   210  2.0900000000000D+00 -2.8113348217851D-02  2.6056013146666D-02
   211  2.1000000000000D+00 -2.8066568445420D-02  2.4009872721760D-02
   212  2.1100000000000D+00 -2.7730726537931D-02  2.2039391370865D-02
   213  2.1200000000000D+00 -2.7143043862378D-02  2.0150426661167D-02
   214  2.1300000000000D+00 -2.6339248932356D-02  1.8347804670036D-02
   215  2.1400000000000D+00 -2.5353422463317D-02  1.6635357444985D-02
   216  2.1500000000000D+00 -2.4217857913159D-02  1.5015964741301D-02
   217  2.1600000000000D+00 -2.2962939834553D-02  1.3491599670813D-02
   218  2.1700000000000D+00 -2.1617048756937D-02  1.2063377800811D-02
   219  2.1800000000000D+00 -2.0206478147248D-02  1.0731609391870D-02
   220  2.1900000000000D+00 -1.8755379593641D-02  9.4958538713291D-03
   221  2.2000000000000D+00 -1.7285727676440D-02  8.3549763754839D-03
   222  2.2100000000000D+00 -1.5817299625537D-02  7.3072062215522D-03
   223  2.2200000000000D+00 -1.4367685545574D-02  6.3501957800915D-03
   224  2.2300000000000D+00 -1.2952309297876D-02  5.4810807362930D-03
   225  2.2400000000000D+00 -1.1584470761503D-02  4.6965403702596D-03
   226  2.2500000000000D+00 -1.0275408035338D-02  3.9928574213930D-03
   227  2.2600000000000D+00 -9.0343690572794D-03  3.3659783357010D-03
   228  2.2700000000000D+00 -7.8687024740939D-03  2.8115718650745D-03
   229  2.2800000000000D+00 -6.7839583985230D-03  2.3250869351316D-03
   230  2.2900000000000D+00 -5.7839985233200D-03  1.9018095172352D-03
   231  2.3000000000000D+00 -4.8711154028957D-03  1.5369170120393D-03
   232  2.3100000000000D+00 -4.0461579936643D-03  1.2255314046012D-03
   233  2.3200000000000D+00 -3.3086610814145D-03  9.6277009761127D-04
   234  2.3300000000000D+00 -2.6569747976812D-03  7.4379400074434D-04
   235  2.3400000000000D+00 -2.0883993732644D-03  5.6385361068253D-04
   236  2.3500000000000D+00 -1.5993138338991D-03  4.1833185274031D-04
   237  2.3600000000000D+00 -1.1853009805321D-03  3.0278389077063D-04
   238  2.3700000000000D+00 -8.4127589416353D-04  2.1297432570955D-04
   239  2.3800000000000D+00 -5.6157710244358D-04  1.4491070396566D-04
   240  2.3900000000000D+00 -3.3988277492536D-04  9.4876861989974D-05
   241  2.4000000000000D+00 -1.7032083368494D-04  5.9441905752123D-05
   242  2.4100000000000D+00 -4.6708000787065D-05  3.5496024424150D-05
   243  2.4200000000000D+00  3.7388206616406D-05  2.0270188574234D-05
   244  2.4300000000000D+00  9.2489500483289D-05  1.1432666586924D-05
   245  2.4400000000000D+00  1.2805925943706D-04  7.0141373718535D-06
   246  2.4500000000000D+00  1.4919604286954D-04  5.3124409028504D-06
   247  2.4600000000000D+00  1.4937711869928D-04  4.6784437543116D-06
   248  2.4700000000000D+00  1.2288655924791D-04  3.8678294642336D-06
   249  2.4800000000000D+00  7.3672653125169D-05  2.3928977913020D-06
   250  2.4900000000000D+00  2.3176572709458D-05  7.8303988097254D-07
   251  2.5000000000000D+00 -8.6256956725458D-06 -2.6896757403146D-07
   252  2.5100000000000D+00 -1.4475193632165D-05 -4.5614359114621D-07
   253  2.5200000000000D+00 -6.6712127844846D-06 -2.1246592901153D-07
   254  2.5300000000000D+00  1.7551295991791D-06  4.8868206598697D-08
   255  2.5400000000000D+00  3.3617509646138D-06  9.3031130513604D-08
   256  2.5500000000000D+00  1.7638001640905D-06  4.8562116735415D-08
   257  2.5600000000000D+00 -1.8124228143710D-07 -5.6774497091480D-09
   258  2.5700000000000D+00 -3.9155570452233D-07 -1.2265558583398D-08
   259  2.5800000000000D+00 -2.3213369878626D-07 -7.2716332536061D-09
   260  2.5900000000000D+00  0.0000000000000D+00  0.0000000000000D+00
   261  2.6000000000000D+00  0.0000000000000D+00  0.0000000000000D+00
   262  2.6100000000000D+00  0.0000000000000D+00  0.0000000000000D+00
   263  2.6200000000000D+00  0.0000000000000D+00  0.0000000000000D+00
   264  2.6300000000000D+00  0.0000000000000D+00  0.0000000000000D+00
   265  2.6400000000000D+00  0.0000000000000D+00  0.0000000000000D+00
   266  2.6500000000000D+00  0.0000000000000D+00  0.0000000000000D+00
   267  2.6600000000000D+00  0.0000000000000D+00  0.0000000000000D+00
   268  2.6700000000000D+00  0.0000000000000D+00  0.0000000000000D+00
   269  2.6800000000000D+00  0.0000000000000D+00  0.0000000000000D+00
   270  2.6900000000000D+00  0.0000000000000D+00  0.0000000000000D+00
   271  2.7000000000000D+00  0.0000000000000D+00  0.0000000000000D+00
   272  2.7100000000000D+00  0.0000000000000D+00  0.0000000000000D+00
   273  2.7200000000000D+00  0.0000000000000D+00  0.0000000000000D+00
   274  2.7300000000000D+00  0.0000000000000D+00  0.0000000000000D+00
   275  2.7400000000000D+00  0.0000000000000D+00  0.0000000000000D+00
   276  2.7500000000000D+00  0.0000000000000D+00  0.0000000000000D+00
   277  2.7600000000000D+00  0.0000000000000D+00  0.0000000000000D+00
   278  2.7700000000000D+00  0.0000000000000D+00  0.0000000000000D+00
   279  2.7800000000000D+00  0.0000000000000D+00  0.0000000000000D+00
   280  2.7900000000000D+00  0.0000000000000D+00  0.0000000000000D+00
   281  2.8000000000000D+00  0.0000000000000D+00  0.0000000000000D+00
   282  2.8100000000000D+00  0.0000000000000D+00  0.0000000000000D+00
   283  2.8200000000000D+00  0.0000000000000D+00  0.0000000000000D+00
   284  2.8300000000000D+00  0.0000000000000D+00  0.0000000000000D+00
   285  2.8400000000000D+00  0.0000000000000D+00  0.0000000000000D+00
   286  2.8500000000000D+00  0.0000000000000D+00  0.0000000000000D+00
   287  2.8600000000000D+00  0.0000000000000D+00  0.0000000000000D+00
   288  2.8700000000000D+00  0.0000000000000D+00  0.0000000000000D+00
   289  2.8800000000000D+00  0.0000000000000D+00  0.0000000000000D+00
   290  2.8900000000000D+00  0.0000000000000D+00  0.0000000000000D+00
   291  2.9000000000000D+00  0.0000000000000D+00  0.0000000000000D+00
   292  2.9100000000000D+00  0.0000000000000D+00  0.0000000000000D+00
   293  2.9200000000000D+00  0.0000000000000D+00  0.0000000000000D+00
   294  2.9300000000000D+00  0.0000000000000D+00  0.0000000000000D+00
   295  2.9400000000000D+00  0.0000000000000D+00  0.0000000000000D+00
   296  2.9500000000000D+00  0.0000000000000D+00  0.0000000000000D+00
   297  2.9600000000000D+00  0.0000000000000D+00  0.0000000000000D+00
   298  2.9700000000000D+00  0.0000000000000D+00  0.0000000000000D+00
   299  2.9800000000000D+00  0.0000000000000D+00  0.0000000000000D+00
   300  2.9900000000000D+00  0.0000000000000D+00  0.0000000000000D+00
   301  3.0000000000000D+00  0.0000000000000D+00  0.0000000000000D+00
   302  3.0100000000000D+00  0.0000000000000D+00  0.0000000000000D+00
   303  3.0200000000000D+00  0.0000000000000D+00  0.0000000000000D+00
   304  3.0300000000000D+00  0.0000000000000D+00  0.0000000000000D+00
   305  3.0400000000000D+00  0.0000000000000D+00  0.0000000000000D+00
   306  3.0500000000000D+00  0.0000000000000D+00  0.0000000000000D+00
   307  3.0600000000000D+00  0.0000000000000D+00  0.0000000000000D+00
   308  3.0700000000000D+00  0.0000000000000D+00  0.0000000000000D+00
   309  3.0800000000000D+00  0.0000000000000D+00  0.0000000000000D+00
   310  3.0900000000000D+00  0.0000000000000D+00  0.0000000000000D+00
   311  3.1000000000000D+00  0.0000000000000D+00  0.0000000000000D+00
   312  3.1100000000000D+00  0.0000000000000D+00  0.0000000000000D+00
   313  3.1200000000000D+00  0.0000000000000D+00  0.0000000000000D+00
   314  3.1300000000000D+00  0.0000000000000D+00  0.0000000000000D+00
   315  3.1400000000000D+00  0.0000000000000D+00  0.0000000000000D+00
   316  3.1500000000000D+00  0.0000000000000D+00  0.0000000000000D+00
   317  3.1600000000000D+00  0.0000000000000D+00  0.0000000000000D+00
   318  3.1700000000000D+00  0.0000000000000D+00  0.0000000000000D+00
   319  3.1800000000000D+00  0.0000000000000D+00  0.0000000000000D+00
   320  3.1900000000000D+00  0.0000000000000D+00  0.0000000000000D+00
   321  3.2000000000000D+00  0.0000000000000D+00  0.0000000000000D+00
   322  3.2100000000000D+00  0.0000000000000D+00  0.0000000000000D+00
   323  3.2200000000000D+00  0.0000000000000D+00  0.0000000000000D+00
   324  3.2300000000000D+00  0.0000000000000D+00  0.0000000000000D+00
   325  3.2400000000000D+00  0.0000000000000D+00  0.0000000000000D+00
   326  3.2500000000000D+00  0.0000000000000D+00  0.0000000000000D+00
   327  3.2600000000000D+00  0.0000000000000D+00  0.0000000000000D+00
   328  3.2700000000000D+00  0.0000000000000D+00  0.0000000000000D+00
   329  3.2800000000000D+00  0.0000000000000D+00  0.0000000000000D+00
   330  3.2900000000000D+00  0.0000000000000D+00  0.0000000000000D+00
   331  3.3000000000000D+00  0.0000000000000D+00  0.0000000000000D+00
   332  3.3100000000000D+00  0.0000000000000D+00  0.0000000000000D+00
   333  3.3200000000000D+00  0.0000000000000D+00  0.0000000000000D+00
   334  3.3300000000000D+00  0.0000000000000D+00  0.0000000000000D+00
   335  3.3400000000000D+00  0.0000000000000D+00  0.0000000000000D+00
   336  3.3500000000000D+00  0.0000000000000D+00  0.0000000000000D+00
   337  3.3600000000000D+00  0.0000000000000D+00  0.0000000000000D+00
   338  3.3700000000000D+00  0.0000000000000D+00  0.0000000000000D+00
   339  3.3800000000000D+00  0.0000000000000D+00  0.0000000000000D+00
   340  3.3900000000000D+00  0.0000000000000D+00  0.0000000000000D+00
   341  3.4000000000000D+00  0.0000000000000D+00  0.0000000000000D+00
   342  3.4100000000000D+00  0.0000000000000D+00  0.0000000000000D+00
   343  3.4200000000000D+00  0.0000000000000D+00  0.0000000000000D+00
   344  3.4300000000000D+00  0.0000000000000D+00  0.0000000000000D+00
   345  3.4400000000000D+00  0.0000000000000D+00  0.0000000000000D+00
   346  3.4500000000000D+00  0.0000000000000D+00  0.0000000000000D+00
   347  3.4600000000000D+00  0.0000000000000D+00  0.0000000000000D+00
   348  3.4700000000000D+00  0.0000000000000D+00  0.0000000000000D+00
   349  3.4800000000000D+00  0.0000000000000D+00  0.0000000000000D+00
   350  3.4900000000000D+00  0.0000000000000D+00  0.0000000000000D+00
   351  3.5000000000000D+00  0.0000000000000D+00  0.0000000000000D+00
   352  3.5100000000000D+00  0.0000000000000D+00  0.0000000000000D+00
   353  3.5200000000000D+00  0.0000000000000D+00  0.0000000000000D+00
   354  3.5300000000000D+00  0.0000000000000D+00  0.0000000000000D+00
   355  3.5400000000000D+00  0.0000000000000D+00  0.0000000000000D+00
   356  3.5500000000000D+00  0.0000000000000D+00  0.0000000000000D+00
   357  3.5600000000000D+00  0.0000000000000D+00  0.0000000000000D+00
   358  3.5700000000000D+00  0.0000000000000D+00  0.0000000000000D+00
   359  3.5800000000000D+00  0.0000000000000D+00  0.0000000000000D+00
   360  3.5900000000000D+00  0.0000000000000D+00  0.0000000000000D+00
   361  3.6000000000000D+00  0.0000000000000D+00  0.0000000000000D+00
   362  3.6100000000000D+00  0.0000000000000D+00  0.0000000000000D+00
   363  3.6200000000000D+00  0.0000000000000D+00  0.0000000000000D+00
   364  3.6300000000000D+00  0.0000000000000D+00  0.0000000000000D+00
   365  3.6400000000000D+00  0.0000000000000D+00  0.0000000000000D+00
   366  3.6500000000000D+00  0.0000000000000D+00  0.0000000000000D+00
   367  3.6600000000000D+00  0.0000000000000D+00  0.0000000000000D+00
   368  3.6700000000000D+00  0.0000000000000D+00  0.0000000000000D+00
   369  3.6800000000000D+00  0.0000000000000D+00  0.0000000000000D+00
   370  3.6900000000000D+00  0.0000000000000D+00  0.0000000000000D+00
   371  3.7000000000000D+00  0.0000000000000D+00  0.0000000000000D+00
   372  3.7100000000000D+00  0.0000000000000D+00  0.0000000000000D+00
   373  3.7200000000000D+00  0.0000000000000D+00  0.0000000000000D+00
   374  3.7300000000000D+00  0.0000000000000D+00  0.0000000000000D+00
   375  3.7400000000000D+00  0.0000000000000D+00  0.0000000000000D+00
   376  3.7500000000000D+00  0.0000000000000D+00  0.0000000000000D+00
   377  3.7600000000000D+00  0.0000000000000D+00  0.0000000000000D+00
   378  3.7700000000000D+00  0.0000000000000D+00  0.0000000000000D+00
   379  3.7800000000000D+00  0.0000000000000D+00  0.0000000000000D+00
   380  3.7900000000000D+00  0.0000000000000D+00  0.0000000000000D+00
   381  3.8000000000000D+00  0.0000000000000D+00  0.0000000000000D+00
   382  3.8100000000000D+00  0.0000000000000D+00  0.0000000000000D+00
   383  3.8200000000000D+00  0.0000000000000D+00  0.0000000000000D+00
   384  3.8300000000000D+00  0.0000000000000D+00  0.0000000000000D+00
   385  3.8400000000000D+00  0.0000000000000D+00  0.0000000000000D+00
   386  3.8500000000000D+00  0.0000000000000D+00  0.0000000000000D+00
   387  3.8600000000000D+00  0.0000000000000D+00  0.0000000000000D+00
   388  3.8700000000000D+00  0.0000000000000D+00  0.0000000000000D+00
   389  3.8800000000000D+00  0.0000000000000D+00  0.0000000000000D+00
   390  3.8900000000000D+00  0.0000000000000D+00  0.0000000000000D+00
   391  3.9000000000000D+00  0.0000000000000D+00  0.0000000000000D+00
   392  3.9100000000000D+00  0.0000000000000D+00  0.0000000000000D+00
   393  3.9200000000000D+00  0.0000000000000D+00  0.0000000000000D+00
   394  3.9300000000000D+00  0.0000000000000D+00  0.0000000000000D+00
   395  3.9400000000000D+00  0.0000000000000D+00  0.0000000000000D+00
   396  3.9500000000000D+00  0.0000000000000D+00  0.0000000000000D+00
   397  3.9600000000000D+00  0.0000000000000D+00  0.0000000000000D+00
   398  3.9700000000000D+00  0.0000000000000D+00  0.0000000000000D+00
   399  3.9800000000000D+00  0.0000000000000D+00  0.0000000000000D+00
   400  3.9900000000000D+00  0.0000000000000D+00  0.0000000000000D+00
   401  4.0000000000000D+00  0.0000000000000D+00  0.0000000000000D+00
   402  4.0100000000000D+00  0.0000000000000D+00  0.0000000000000D+00
   403  4.0200000000000D+00  0.0000000000000D+00  0.0000000000000D+00
   404  4.0300000000000D+00  0.0000000000000D+00  0.0000000000000D+00
   405  4.0400000000000D+00  0.0000000000000D+00  0.0000000000000D+00
   406  4.0500000000000D+00  0.0000000000000D+00  0.0000000000000D+00
   407  4.0600000000000D+00  0.0000000000000D+00  0.0000000000000D+00
   408  4.0700000000000D+00  0.0000000000000D+00  0.0000000000000D+00
   409  4.0800000000000D+00  0.0000000000000D+00  0.0000000000000D+00
   410  4.0900000000000D+00  0.0000000000000D+00  0.0000000000000D+00
   411  4.1000000000000D+00  0.0000000000000D+00  0.0000000000000D+00
   412  4.1100000000000D+00  0.0000000000000D+00  0.0000000000000D+00
   413  4.1200000000000D+00  0.0000000000000D+00  0.0000000000000D+00
   414  4.1300000000000D+00  0.0000000000000D+00  0.0000000000000D+00
   415  4.1400000000000D+00  0.0000000000000D+00  0.0000000000000D+00
   416  4.1500000000000D+00  0.0000000000000D+00  0.0000000000000D+00
   417  4.1600000000000D+00  0.0000000000000D+00  0.0000000000000D+00
   418  4.1700000000000D+00  0.0000000000000D+00  0.0000000000000D+00
   419  4.1800000000000D+00  0.0000000000000D+00  0.0000000000000D+00
   420  4.1900000000000D+00  0.0000000000000D+00  0.0000000000000D+00
   421  4.2000000000000D+00  0.0000000000000D+00  0.0000000000000D+00
   422  4.2100000000000D+00  0.0000000000000D+00  0.0000000000000D+00