Tl    ONCVPSP-3.3.1  r_core=   3.35206   3.68771   3.15798   3.35206
     81.0000     13.0000      210905    zatom,zion,pspd
     8 -116133   3     4   600     0    pspcod,pspxc,lmax,lloc,mmax,r2well
  5.99000000  0.00000000  0.00000000    rchrg fchrg qchrg
     2     3     3     2    nproj
     3     1           extension_switch
     4     4     3    nprojso
   0                         2.8941106853282D-01  2.9629128344118D+00
     1  0.0000000000000D+00 -2.6681434839304D-12  5.9165172761055D-13
     2  1.0000000000000D-02  3.6163401012527D-02  1.3160792073718D-02
     3  2.0000000000000D-02  7.2256442226361D-02  2.6328924132915D-02
     4  3.0000000000000D-02  1.0820891186569D-01  3.9511707193025D-02
     5  4.0000000000000D-02  1.4395089388562D-01  5.2716394397645D-02
     6  5.0000000000000D-02  1.7941291505126D-01  6.5950152253123D-02
     7  6.0000000000000D-02  2.1452609107494D-01  7.9220032067313D-02
     8  7.0000000000000D-02  2.4922227150084D-01  9.2532941659896D-02
     9  8.0000000000000D-02  2.8343418302883D-01  1.0589561741103D-01
    10  9.0000000000000D-02  3.1709557097276D-01  1.1931459671440D-01
    11  1.0000000000000D-01  3.5014133855215D-01  1.3279619089976D-01
    12  1.1000000000000D-01  3.8250768372138D-01  1.4634645868929D-01
    13  1.2000000000000D-01  4.1413223324503D-01  1.5997118025048D-01
    14  1.3000000000000D-01  4.4495417373447D-01  1.7367583190760D-01
    15  1.4000000000000D-01  4.7491437936701D-01  1.8746556157159D-01
    16  1.5000000000000D-01  5.0395553601590D-01  2.0134516494750D-01
    17  1.6000000000000D-01  5.3202226152746D-01  2.1531906257615D-01
    18  1.7000000000000D-01  5.5906122188942D-01  2.2939127776536D-01
    19  1.8000000000000D-01  5.8502124304367D-01  2.4356541546403D-01
    20  1.9000000000000D-01  6.0985341810563D-01  2.5784464213013D-01
    21  2.0000000000000D-01  6.3351120976250D-01  2.7223166664181D-01
    22  2.1000000000000D-01  6.5595054763278D-01  2.8672872229824D-01
    23  2.2000000000000D-01  6.7712992038020D-01  3.0133754995464D-01
    24  2.3000000000000D-01  6.9701046238651D-01  3.1605938233338D-01
    25  2.4000000000000D-01  7.1555603479922D-01  3.3089492955049D-01
    26  2.5000000000000D-01  7.3273330078219D-01  3.4584436589420D-01
    27  2.6000000000000D-01  7.4851179480970D-01  3.6090731788956D-01
    28  2.7000000000000D-01  7.6286398585704D-01  3.7608285368012D-01
    29  2.8000000000000D-01  7.7576533435395D-01  3.9136947375497D-01
    30  2.9000000000000D-01  7.8719434278064D-01  4.0676510304643D-01
    31  3.0000000000000D-01  7.9713259979939D-01  4.2226708442054D-01
    32  3.1000000000000D-01  8.0556481782901D-01  4.3787217357972D-01
    33  3.2000000000000D-01  8.1247886398334D-01  4.5357653539349D-01
    34  3.3000000000000D-01  8.1786578430903D-01  4.6937574167038D-01
    35  3.4000000000000D-01  8.2171982127249D-01  4.8526477038061D-01
    36  3.5000000000000D-01  8.2403842446037D-01  5.0123800633624D-01
    37  3.6000000000000D-01  8.2482225447219D-01  5.1728924333200D-01
    38  3.7000000000000D-01  8.2407517999897D-01  5.3341168774699D-01
    39  3.8000000000000D-01  8.2180426809564D-01  5.4959796360399D-01
    40  3.9000000000000D-01  8.1801976767040D-01  5.6584011908010D-01
    41  4.0000000000000D-01  8.1273508622825D-01  5.8212963445898D-01
    42  4.1000000000000D-01  8.0596675992057D-01  5.9845743151193D-01
    43  4.2000000000000D-01  7.9773441696749D-01  6.1481388429173D-01
    44  4.3000000000000D-01  7.8806073453329D-01  6.3118883132008D-01
    45  4.4000000000000D-01  7.7697138914996D-01  6.4757158914635D-01
    46  4.5000000000000D-01  7.6449500079756D-01  6.6395096725208D-01
    47  4.6000000000000D-01  7.5066307076386D-01  6.8031528427309D-01
    48  4.7000000000000D-01  7.3550991341905D-01  6.9665238550750D-01
    49  4.8000000000000D-01  7.1907258205479D-01  7.1294966167548D-01
    50  4.9000000000000D-01  7.0139078894927D-01  7.2919406889367D-01
    51  5.0000000000000D-01  6.8250681983288D-01  7.4537214982415D-01
    52  5.1000000000000D-01  6.6246544294087D-01  7.6147005595547D-01
    53  5.2000000000000D-01  6.4131381285135D-01  7.7747357097057D-01
    54  5.3000000000000D-01  6.1910136931810D-01  7.9336813515385D-01
    55  5.4000000000000D-01  5.9587973131873D-01  8.0913887078726D-01
    56  5.5000000000000D-01  5.7170258654881D-01  8.2477060848314D-01
    57  5.6000000000000D-01  5.4662557660271D-01  8.4024791439914D-01
    58  5.7000000000000D-01  5.2070617809121D-01  8.5555511827859D-01
    59  5.8000000000000D-01  4.9400357995458D-01  8.7067634225782D-01
    60  5.9000000000000D-01  4.6657855723829D-01  8.8559553037991D-01
    61  6.0000000000000D-01  4.3849334160606D-01  9.0029647875287D-01
    62  6.1000000000000D-01  4.0981148887206D-01  9.1476286628852D-01
    63  6.2000000000000D-01  3.8059774384046D-01  9.2897828595709D-01
    64  6.3000000000000D-01  3.5091790274652D-01  9.4292627649100D-01
    65  6.4000000000000D-01  3.2083867359827D-01  9.5659035447056D-01
    66  6.5000000000000D-01  2.9042753472279D-01  9.6995404672288D-01
    67  6.6000000000000D-01  2.5975259182437D-01  9.8300092296475D-01
    68  6.7000000000000D-01  2.2888243386566D-01  9.9571462861953D-01
    69  6.8000000000000D-01  1.9788598808470D-01  1.0080789177373D+00
    70  6.9000000000000D-01  1.6683237446319D-01  1.0200776859476D+00
    71  7.0000000000000D-01  1.3579075996182D-01  1.0316950033732D+00
    72  7.1000000000000D-01  1.0483021283935D-01  1.0429151474338D+00
    73  7.2000000000000D-01  7.4019557371483D-02  1.0537226354692D+00
    74  7.3000000000000D-01  4.3427229284768D-02  1.0641022571094D+00
    75  7.4000000000000D-01  1.3121132218837D-02  1.0740391063227D+00
    76  7.5000000000000D-01 -1.6831504471931D-02  1.0835186130709D+00
    77  7.6000000000000D-01 -4.6364266269545D-02  1.0925265745032D+00
    78  7.7000000000000D-01 -7.5411692092313D-02  1.1010491856188D+00
    79  7.8000000000000D-01 -1.0390941064394D-01  1.1090730693330D+00
    80  7.9000000000000D-01 -1.3179427421751D-01  1.1165853058787D+00
    81  8.0000000000000D-01 -1.5900448966579D-01  1.1235734614794D+00
    82  8.1000000000000D-01 -1.8547974625591D-01  1.1300256162302D+00
    83  8.2000000000000D-01 -2.1116134013343D-01  1.1359303911246D+00
    84  8.3000000000000D-01 -2.3599229512870D-01  1.1412769741676D+00
    85  8.4000000000000D-01 -2.5991747964662D-01  1.1460551455162D+00
    86  8.5000000000000D-01 -2.8288371939015D-01  1.1502553015915D+00
    87  8.6000000000000D-01 -3.0483990567691D-01  1.1538684781091D+00
    88  8.7000000000000D-01 -3.2573709911884D-01  1.1568863719744D+00
    89  8.8000000000000D-01 -3.4552862844501D-01  1.1593013619947D+00
    90  8.9000000000000D-01 -3.6417018425902D-01  1.1611065283614D+00
    91  9.0000000000000D-01 -3.8161990753384D-01  1.1622956708566D+00
    92  9.1000000000000D-01 -3.9783847265893D-01  1.1628633257440D+00
    93  9.2000000000000D-01 -4.1278916486710D-01  1.1628047813046D+00
    94  9.3000000000000D-01 -4.2643795188101D-01  1.1621160919820D+00
    95  9.4000000000000D-01 -4.3875354963287D-01  1.1607940911028D+00
    96  9.5000000000000D-01 -4.4970748192381D-01  1.1588364021445D+00
    97  9.6000000000000D-01 -4.5927413390390D-01  1.1562414485227D+00
    98  9.7000000000000D-01 -4.6743079926723D-01  1.1530084618744D+00
    99  9.8000000000000D-01 -4.7415772107116D-01  1.1491374888170D+00
   100  9.9000000000000D-01 -4.7943812610346D-01  1.1446293961667D+00
   101  1.0000000000000D+00 -4.8325825273522D-01  1.1394858746019D+00
   102  1.0100000000000D+00 -4.8560737221290D-01  1.1337094407611D+00
   103  1.0200000000000D+00 -4.8647780335742D-01  1.1273034377701D+00
   104  1.0300000000000D+00 -4.8586492065320D-01  1.1202720341923D+00
   105  1.0400000000000D+00 -4.8376715572538D-01  1.1126202214045D+00
   106  1.0500000000000D+00 -4.8018599221826D-01  1.1043538094005D+00
   107  1.0600000000000D+00 -4.7512595410280D-01  1.0954794210290D+00
   108  1.0700000000000D+00 -4.6859458745626D-01  1.0860044846767D+00
   109  1.0800000000000D+00 -4.6060243577175D-01  1.0759372254099D+00
   110  1.0900000000000D+00 -4.5116300887010D-01  1.0652866545908D+00
   111  1.1000000000000D+00 -4.4029274550136D-01  1.0540625579904D+00
   112  1.1100000000000D+00 -4.2801096973607D-01  1.0422754824197D+00
   113  1.1200000000000D+00 -4.1433984126219D-01  1.0299367209068D+00
   114  1.1300000000000D+00 -3.9930429971644D-01  1.0170582964506D+00
   115  1.1400000000000D+00 -3.8293200319274D-01  1.0036529443818D+00
   116  1.1500000000000D+00 -3.6525326108215D-01  9.8973409336970D-01
   117  1.1600000000000D+00 -3.4630096141269D-01  9.7531584511229D-01
   118  1.1700000000000D+00 -3.2611049286952D-01  9.6041295275151D-01
   119  1.1800000000000D+00 -3.0471966168854D-01  9.4504079805896D-01
   120  1.1900000000000D+00 -2.8216860362411D-01  9.2921536743826D-01
   121  1.2000000000000D+00 -2.5849969120770D-01  9.1295322679448D-01
   122  1.2100000000000D+00 -2.3375743652156D-01  8.9627149532256D-01
   123  1.2200000000000D+00 -2.0798838972149D-01  8.7918781826930D-01
   124  1.2300000000000D+00 -1.8124103355149D-01  8.6172033872508D-01
   125  1.2400000000000D+00 -1.5356567410424D-01  8.4388766850466D-01
   126  1.2500000000000D+00 -1.2501432808743D-01  8.2570885817744D-01
   127  1.2600000000000D+00 -9.5640606861125D-02  8.0720336630910D-01
   128  1.2700000000000D+00 -6.5499597523413D-02  7.8839102797922D-01
   129  1.2800000000000D+00 -3.4647741324212D-02  7.6929202264037D-01
   130  1.2900000000000D+00 -3.1427096903057D-03  7.4992684138477D-01
   131  1.3000000000000D+00  2.8956721844699D-02  7.3031625368734D-01
   132  1.3100000000000D+00  6.1590801512684D-02  7.1048127369391D-01
   133  1.3200000000000D+00  9.4698930689032D-02  6.9044312612397D-01
   134  1.3300000000000D+00  1.2821979447420D-01  6.7022321185936D-01
   135  1.3400000000000D+00  1.6209149317900D-01  6.4984307328929D-01
   136  1.3500000000000D+00  1.9625167440946D-01  6.2932435948352D-01
   137  1.3600000000000D+00  2.3063766544892D-01  6.0868879126529D-01
   138  1.3700000000000D+00  2.6518660563455D-01  5.8795812625561D-01
   139  1.3800000000000D+00  2.9983557842523D-01  5.6715412396078D-01
   140  1.3900000000000D+00  3.3452174286565D-01  5.4629851097371D-01
   141  1.4000000000000D+00  3.6918246414253D-01  5.2541294636105D-01
   142  1.4100000000000D+00  4.0375544294628D-01  5.0451898730505D-01
   143  1.4200000000000D+00  4.3817884334566D-01  4.8363805507016D-01
   144  1.4300000000000D+00  4.7239141888607D-01  4.6279140136369D-01
   145  1.4400000000000D+00  5.0633263664570D-01  4.4200007515513D-01
   146  1.4500000000000D+00  5.3994279895552D-01  4.2128489002459D-01
   147  1.4600000000000D+00  5.7316316253826D-01  4.0066639210046D-01
   148  1.4700000000000D+00  6.0593605479228D-01  3.8016482865267D-01
   149  1.4800000000000D+00  6.3820498697211D-01  3.5980011740240D-01
   150  1.4900000000000D+00  6.6991476403558D-01  3.3959181660515D-01
   151  1.5000000000000D+00  7.0101159089554D-01  3.1955909597110D-01
   152  1.5100000000000D+00  7.3144317489605D-01  2.9972070846887D-01
   153  1.5200000000000D+00  7.6115882424735D-01  2.8009496307743D-01
   154  1.5300000000000D+00  7.9010954226880D-01  2.6069969852582D-01
   155  1.5400000000000D+00  8.1824811720700D-01  2.4155225807845D-01
   156  1.5500000000000D+00  8.4552920747448D-01  2.2266946540633D-01
   157  1.5600000000000D+00  8.7190942213570D-01  2.0406760158883D-01
   158  1.5700000000000D+00  8.9734739646934D-01  1.8576238329019D-01
   159  1.5800000000000D+00  9.2180386250303D-01  1.6776894213991D-01
   160  1.5900000000000D+00  9.4524171432891D-01  1.5010180536562D-01
   161  1.6000000000000D+00  9.6762606817017D-01  1.3277487769138D-01
   162  1.6100000000000D+00  9.8892431698591D-01  1.1580142455460D-01
   163  1.6200000000000D+00  1.0091061796587D+00  9.9194056637674D-02
   164  1.6300000000000D+00  1.0281437445386D+00  8.2964715771008D-02
   165  1.6400000000000D+00  1.0460115074441D+00  6.7124662190405D-02
   166  1.6500000000000D+00  1.0626864039112D+00  5.1684463201923D-02
   167  1.6600000000000D+00  1.0781478358172D+00  3.6653983230864D-02
   168  1.6700000000000D+00  1.0923776922057D+00  2.2042375300427D-02
   169  1.6800000000000D+00  1.1053603644622D+00  7.8580739109862D-03
   170  1.6900000000000D+00  1.1170827556968D+00 -5.8912106410656D-03
   171  1.7000000000000D+00  1.1275342845144D+00 -1.9198496541204D-02
   172  1.7100000000000D+00  1.1367068830497D+00 -3.2057533297143D-02
   173  1.7200000000000D+00  1.1445949894862D+00 -4.4462803187297D-02
   174  1.7300000000000D+00  1.1511955349480D+00 -5.6409521285302D-02
   175  1.7400000000000D+00  1.1565079250313D+00 -6.7893634117931D-02
   176  1.7500000000000D+00  1.1605340158643D+00 -7.8911816923767D-02
   177  1.7600000000000D+00  1.1632780850193D+00 -8.9461469584052D-02
   178  1.7700000000000D+00  1.1647467971566D+00 -9.9540711190234D-02
   179  1.7800000000000D+00  1.1649491647805D+00 -1.0914837333390D-01
   180  1.7900000000000D+00  1.1638965039887D+00 -1.1828399208335D-01
   181  1.8000000000000D+00  1.1616023856185D+00 -1.2694779873846D-01
   182  1.8100000000000D+00  1.1580825817207D+00 -1.3514070934002D-01
   183  1.8200000000000D+00  1.1533550077315D+00 -1.4286431301764D-01
   184  1.8300000000000D+00  1.1474396603648D+00 -1.5012085917387D-01
   185  1.8400000000000D+00  1.1403585515321D+00 -1.5691324357424D-01
   186  1.8500000000000D+00  1.1321356384172D+00 -1.6324499336647D-01
   187  1.8600000000000D+00  1.1227967499387D+00 -1.6912025107997D-01
   188  1.8700000000000D+00  1.1123695098353D+00 -1.7454375765682D-01
   189  1.8800000000000D+00  1.1008832565308D+00 -1.7952083454484D-01
   190  1.8900000000000D+00  1.0883689601076D+00 -1.8405736493048D-01
   191  1.9000000000000D+00  1.0748591364936D+00 -1.8815977412576D-01
   192  1.9100000000000D+00  1.0603877592367D+00 -1.9183500920271D-01
   193  1.9200000000000D+00  1.0449901689837D+00 -1.9509051788935D-01
   194  1.9300000000000D+00  1.0287029810014D+00 -1.9793422681407D-01
   195  1.9400000000000D+00  1.0115639909365D+00 -2.0037451913353D-01
   196  1.9500000000000D+00  9.9361207907732D-01 -2.0242021160895D-01
   197  1.9600000000000D+00  9.7488711337653D-01 -2.0408053118921D-01
   198  1.9700000000000D+00  9.5542985147842D-01 -2.0536509115150D-01
   199  1.9800000000000D+00  9.3528184198760D-01 -2.0628386686500D-01
   200  1.9900000000000D+00  9.1448532528025D-01 -2.0684717123188D-01
   201  2.0000000000000D+00  8.9308313402601D-01 -2.0706562986161D-01
   202  2.0100000000000D+00  8.7111859375736D-01 -2.0695015604379D-01
   203  2.0200000000000D+00  8.4863542366796D-01 -2.0651192557013D-01
   204  2.0300000000000D+00  8.2567763787682D-01 -2.0576235146262D-01
   205  2.0400000000000D+00  8.0228944750029D-01 -2.0471305867988D-01
   206  2.0500000000000D+00  7.7851516354810D-01 -2.0337585882427D-01
   207  2.0600000000000D+00  7.5439910116090D-01 -2.0176272495230D-01
   208  2.0700000000000D+00  7.2998548513505D-01 -1.9988576649649D-01
   209  2.0800000000000D+00  7.0531835710000D-01 -1.9775720437768D-01
   210  2.0900000000000D+00  6.8044148461975D-01 -1.9538934637168D-01
   211  2.1000000000000D+00  6.5539827209717D-01 -1.9279456272186D-01
   212  2.1100000000000D+00  6.3023167419360D-01 -1.8998526214363D-01
   213  2.1200000000000D+00  6.0498411141171D-01 -1.8697386816764D-01
   214  2.1300000000000D+00  5.7969738834542D-01 -1.8377279593026D-01
   215  2.1400000000000D+00  5.5441261479383D-01 -1.8039442946164D-01
   216  2.1500000000000D+00  5.2917012945726D-01 -1.7685109942803D-01
   217  2.1600000000000D+00  5.0400942708288D-01 -1.7315506151098D-01
   218  2.1700000000000D+00  4.7896908849277D-01 -1.6931847532223D-01
   219  2.1800000000000D+00  4.5408671396963D-01 -1.6535338396007D-01
   220  2.1900000000000D+00  4.2939886027739D-01 -1.6127169427496D-01
   221  2.2000000000000D+00  4.0494098079908D-01 -1.5708515774861D-01
   222  2.2100000000000D+00  3.8074736969393D-01 -1.5280535218313D-01
   223  2.2200000000000D+00  3.5685110956598D-01 -1.4844366410558D-01
   224  2.2300000000000D+00  3.3328402271666D-01 -1.4401127191255D-01
   225  2.2400000000000D+00  3.1007662664823D-01 -1.3951912990597D-01
   226  2.2500000000000D+00  2.8725809297419D-01 -1.3497795305111D-01
   227  2.2600000000000D+00  2.6485621044488D-01 -1.3039820261799D-01
   228  2.2700000000000D+00  2.4289735202856D-01 -1.2579007270364D-01
   229  2.2800000000000D+00  2.2140644543946D-01 -1.2116347751283D-01
   230  2.2900000000000D+00  2.0040694813024D-01 -1.1652803962962D-01
   231  2.3000000000000D+00  1.7992082593819D-01 -1.1189307911189D-01
   232  2.3100000000000D+00  1.5996853538400D-01 -1.0726760341784D-01
   233  2.3200000000000D+00  1.4056901034901D-01 -1.0266029833691D-01
   234  2.3300000000000D+00  1.2173965208756D-01 -9.8079519700910D-02
   235  2.3400000000000D+00  1.0349632307682D-01 -9.3533285999029D-02
   236  2.3500000000000D+00  8.5853344823300D-02 -8.9029271934830D-02
   237  2.3600000000000D+00  6.8823498808337D-02 -8.4574802746447D-02
   238  2.3700000000000D+00  5.2418031250455D-02 -8.0176849459166D-02
   239  2.3800000000000D+00  3.6646661335240D-02 -7.5842024999699D-02
   240  2.3900000000000D+00  2.1517592345022D-02 -7.1576581045850D-02
   241  2.4000000000000D+00  7.0375264281238D-03 -6.7386405803883D-02
   242  2.4100000000000D+00 -6.7883176866086D-03 -6.3277022556163D-02
   243  2.4200000000000D+00 -1.9956184360755D-02 -5.9253588904965D-02
   244  2.4300000000000D+00 -3.2463757406909D-02 -5.5320896906304D-02
   245  2.4400000000000D+00 -4.4310134057452D-02 -5.1483373869881D-02
   246  2.4500000000000D+00 -5.5495796569100D-02 -4.7745083827025D-02
   247  2.4600000000000D+00 -6.6022581103326D-02 -4.4109729786836D-02
   248  2.4700000000000D+00 -7.5893644641089D-02 -4.0580656582897D-02
   249  2.4800000000000D+00 -8.5113429911815D-02 -3.7160854329250D-02
   250  2.4900000000000D+00 -9.3687628235224D-02 -3.3852962547399D-02
   251  2.5000000000000D+00 -1.0162314081158D-01 -3.0659274809531D-02
   252  2.5100000000000D+00 -1.0892803848509D-01 -2.7581743910741D-02
   253  2.5200000000000D+00 -1.1561152006570D-01 -2.4621987590641D-02
   254  2.5300000000000D+00 -1.2168386952245D-01 -2.1781294692161D-02
   255  2.5400000000000D+00 -1.2715641214323D-01 -1.9060631756661D-02
   256  2.5500000000000D+00 -1.3204146990621D-01 -1.6460650043038D-02
   257  2.5600000000000D+00 -1.3635231614766D-01 -1.3981692901723D-02
   258  2.5700000000000D+00 -1.4010312967802D-01 -1.1623803488551D-02
   259  2.5800000000000D+00 -1.4330894877804D-01 -9.3867327724355D-03
   260  2.5900000000000D+00 -1.4598562491115D-01 -7.2699478138173D-03
   261  2.6000000000000D+00 -1.4814977629951D-01 -5.2726402934935D-03
   262  2.6100000000000D+00 -1.4981874207971D-01 -3.3937351973983D-03
   263  2.6200000000000D+00 -1.5101053658358D-01 -1.6318996874860D-03
   264  2.6300000000000D+00 -1.5174380377251D-01  1.4447847550683D-05
   265  2.6400000000000D+00 -1.5203777301066D-01  1.5471287364078D-03
   266  2.6500000000000D+00 -1.5191222155537D-01  2.9681957755160D-03
   267  2.6600000000000D+00 -1.5138740793056D-01  4.2799205345572D-03
   268  2.6700000000000D+00 -1.5048405531028D-01  5.4847878341836D-03
   269  2.6800000000000D+00 -1.4922335223718D-01  6.5854927720957D-03
   270  2.6900000000000D+00 -1.4762676321628D-01  7.5849090177994D-03
   271  2.7000000000000D+00 -1.4571611699768D-01  8.4860987187110D-03
   272  2.7100000000000D+00 -1.4351350868048D-01  9.2922948537025D-03
   273  2.7200000000000D+00 -1.4104149265311D-01  1.0006925059081D-02
   274  2.7300000000000D+00 -1.3832291833887D-01  1.0633583911725D-02
   275  2.7400000000000D+00 -1.3538061321778D-01  1.1175982536214D-02
   276  2.7500000000000D+00 -1.3223727316709D-01  1.1637928778339D-02
   277  2.7600000000000D+00 -1.2891527821856D-01  1.2023297045864D-02
   278  2.7700000000000D+00 -1.2543653942820D-01  1.2335997589702D-02
   279  2.7800000000000D+00 -1.2182245567714D-01  1.2579965181722D-02
   280  2.7900000000000D+00 -1.1809328188513D-01  1.2759060154846D-02
   281  2.8000000000000D+00 -1.1426859170303D-01  1.2877130182958D-02
   282  2.8100000000000D+00 -1.1036707284764D-01  1.2937974251397D-02
   283  2.8200000000000D+00 -1.0640667985839D-01  1.2945357327350D-02
   284  2.8300000000000D+00 -1.0240452314627D-01  1.2902988723445D-02
   285  2.8400000000000D+00 -9.8376823780607D-02  1.2814509656453D-02
   286  2.8500000000000D+00 -9.4338929910658D-02  1.2683489463570D-02
   287  2.8600000000000D+00 -9.0305319355406D-02  1.2513420042949D-02
   288  2.8700000000000D+00 -8.6289577107330D-02  1.2307706900343D-02
   289  2.8800000000000D+00 -8.2304398548669D-02  1.2069663954540D-02
   290  2.8900000000000D+00 -7.8361588918760D-02  1.1802507868002D-02
   291  2.9000000000000D+00 -7.4472067827673D-02  1.1509353366135D-02
   292  2.9100000000000D+00 -7.0645875591663D-02  1.1193208893453D-02
   293  2.9200000000000D+00 -6.6892181891452D-02  1.0856972718403D-02
   294  2.9300000000000D+00 -6.3219297627062D-02  1.0503429674418D-02
   295  2.9400000000000D+00 -5.9634689890978D-02  1.0135248530161D-02
   296  2.9500000000000D+00 -5.6144998975928D-02  9.7549797810014D-03
   297  2.9600000000000D+00 -5.2756056970038D-02  9.3650537498787D-03
   298  2.9700000000000D+00 -4.9472910180094D-02  8.9677795292373D-03
   299  2.9800000000000D+00 -4.6299842848577D-02  8.5653441913372D-03
   300  2.9900000000000D+00 -4.3240402640002D-02  8.1598123935087D-03
   301  3.0000000000000D+00 -4.0297428318294D-02  7.7531264797201D-03
   302  3.0100000000000D+00 -3.7473079582354D-02  7.3471070816495D-03
   303  3.0200000000000D+00 -3.4768868198026D-02  6.9434540416073D-03
   304  3.0300000000000D+00 -3.2185689894506D-02  6.5437475405181D-03
   305  3.0400000000000D+00 -2.9723858824633D-02  6.1494498588164D-03
   306  3.0500000000000D+00 -2.7383142462856D-02  5.7619072977819D-03
   307  3.0600000000000D+00 -2.5162797635439D-02  5.3823524145759D-03
   308  3.0700000000000D+00 -2.3061607458464D-02  5.0119065284455D-03
   309  3.0800000000000D+00 -2.1077918673255D-02  4.6515824746865D-03
   310  3.0900000000000D+00 -1.9209679701363D-02  4.3022875802044D-03
   311  3.1000000000000D+00 -1.7454479000643D-02  3.9648268060386D-03
   312  3.1100000000000D+00 -1.5809583631430D-02  3.6399060906014D-03
   313  3.1200000000000D+00 -1.4271977869067D-02  3.3281358336395D-03
   314  3.1300000000000D+00 -1.2838401539454D-02  3.0300344672330D-03
   315  3.1400000000000D+00 -1.1505388839822D-02  2.7460322112084D-03
   316  3.1500000000000D+00 -1.0269305568485D-02  2.4764747558399D-03
   317  3.1600000000000D+00 -9.1263863769275D-03  2.2216270533372D-03
   318  3.1700000000000D+00 -8.0727712613670D-03  1.9816771229290D-03
   319  3.1800000000000D+00 -7.1045420332342D-03  1.7567399749298D-03
   320  3.1900000000000D+00 -6.2177558232928D-03  1.5468612076559D-03
   321  3.2000000000000D+00 -5.4084786296417D-03  1.3520207260047D-03
   322  3.2100000000000D+00 -4.6728179227511D-03  1.1721364377024D-03
   323  3.2200000000000D+00 -4.0069537138541D-03  1.0070678285757D-03
   324  3.2300000000000D+00 -3.4071669826721D-03  8.5661923972565D-04
   325  3.2400000000000D+00 -2.8703451274710D-03  7.2064354881664D-04
   326  3.2500000000000D+00 -2.3926854006532D-03  5.9876733768516D-04
   327  3.2600000000000D+00 -1.9702240159660D-03  4.9049997479674D-04
   328  3.2700000000000D+00 -1.5997920205486D-03  3.9543260492815D-04
   329  3.2800000000000D+00 -1.2756047168911D-03  3.1246424784474D-04
   330  3.2900000000000D+00 -9.9899649224307D-04  2.4201544079352D-04
   331  3.3000000000000D+00 -7.7171487597603D-04  1.8450246202906D-04
   332  3.3100000000000D+00 -5.9293800370495D-04  1.3966207450148D-04
   333  3.3200000000000D+00 -4.6809849033304D-04  1.0865588322932D-04
   334  3.3300000000000D+00 -3.8159051451938D-04  8.7587847469385D-05
   335  3.3400000000000D+00 -3.1774641823349D-04  7.2521160482222D-05
   336  3.3500000000000D+00 -2.6390795445145D-04  6.0229485990076D-05
   337  3.3600000000000D+00 -1.9809803982582D-04  4.5253507277973D-05
   338  3.3700000000000D+00 -1.2859121426304D-04  2.9423787735923D-05
   339  3.3800000000000D+00 -6.3651423294079D-05  1.4597718405613D-05
   340  3.3900000000000D+00 -9.9985684104400D-06  2.2987838851192D-06
   341  3.4000000000000D+00  1.6124086972657D-05 -3.6686999070507D-06
   342  3.4100000000000D+00  2.2259342342762D-05 -5.0649016803551D-06
   343  3.4200000000000D+00  1.6181397297262D-05 -3.6823994370426D-06
   344  3.4300000000000D+00  3.9326043735789D-06 -8.9510148831379D-07
   345  3.4400000000000D+00 -3.1072787491805D-06  7.0380532724976D-07
   346  3.4500000000000D+00 -5.1390924853933D-06  1.1636102200086D-06
   347  3.4600000000000D+00 -4.2944029543013D-06  9.7205473272704D-07
   348  3.4700000000000D+00 -1.4483756077524D-06  3.2775624688062D-07
   349  3.4800000000000D+00  3.4505018915120D-07 -7.8790988191868D-08
   350  3.4900000000000D+00  6.8730076124670D-07 -1.5694269374801D-07
   351  3.5000000000000D+00  6.4744400550153D-07 -1.4784154478470D-07
   352  3.5100000000000D+00  2.8995340400354D-07 -6.6209832509393D-08
   353  3.5200000000000D+00  0.0000000000000D+00  0.0000000000000D+00
   354  3.5300000000000D+00  0.0000000000000D+00  0.0000000000000D+00
   355  3.5400000000000D+00  0.0000000000000D+00  0.0000000000000D+00
   356  3.5500000000000D+00  0.0000000000000D+00  0.0000000000000D+00
   357  3.5600000000000D+00  0.0000000000000D+00  0.0000000000000D+00
   358  3.5700000000000D+00  0.0000000000000D+00  0.0000000000000D+00
   359  3.5800000000000D+00  0.0000000000000D+00  0.0000000000000D+00
   360  3.5900000000000D+00  0.0000000000000D+00  0.0000000000000D+00
   361  3.6000000000000D+00  0.0000000000000D+00  0.0000000000000D+00
   362  3.6100000000000D+00  0.0000000000000D+00  0.0000000000000D+00
   363  3.6200000000000D+00  0.0000000000000D+00  0.0000000000000D+00
   364  3.6300000000000D+00  0.0000000000000D+00  0.0000000000000D+00
   365  3.6400000000000D+00  0.0000000000000D+00  0.0000000000000D+00
   366  3.6500000000000D+00  0.0000000000000D+00  0.0000000000000D+00
   367  3.6600000000000D+00  0.0000000000000D+00  0.0000000000000D+00
   368  3.6700000000000D+00  0.0000000000000D+00  0.0000000000000D+00
   369  3.6800000000000D+00  0.0000000000000D+00  0.0000000000000D+00
   370  3.6900000000000D+00  0.0000000000000D+00  0.0000000000000D+00
   371  3.7000000000000D+00  0.0000000000000D+00  0.0000000000000D+00
   372  3.7100000000000D+00  0.0000000000000D+00  0.0000000000000D+00
   373  3.7200000000000D+00  0.0000000000000D+00  0.0000000000000D+00
   374  3.7300000000000D+00  0.0000000000000D+00  0.0000000000000D+00
   375  3.7400000000000D+00  0.0000000000000D+00  0.0000000000000D+00
   376  3.7500000000000D+00  0.0000000000000D+00  0.0000000000000D+00
   377  3.7600000000000D+00  0.0000000000000D+00  0.0000000000000D+00
   378  3.7700000000000D+00  0.0000000000000D+00  0.0000000000000D+00
   379  3.7800000000000D+00  0.0000000000000D+00  0.0000000000000D+00
   380  3.7900000000000D+00  0.0000000000000D+00  0.0000000000000D+00
   381  3.8000000000000D+00  0.0000000000000D+00  0.0000000000000D+00
   382  3.8100000000000D+00  0.0000000000000D+00  0.0000000000000D+00
   383  3.8200000000000D+00  0.0000000000000D+00  0.0000000000000D+00
   384  3.8300000000000D+00  0.0000000000000D+00  0.0000000000000D+00
   385  3.8400000000000D+00  0.0000000000000D+00  0.0000000000000D+00
   386  3.8500000000000D+00  0.0000000000000D+00  0.0000000000000D+00
   387  3.8600000000000D+00  0.0000000000000D+00  0.0000000000000D+00
   388  3.8700000000000D+00  0.0000000000000D+00  0.0000000000000D+00
   389  3.8800000000000D+00  0.0000000000000D+00  0.0000000000000D+00
   390  3.8900000000000D+00  0.0000000000000D+00  0.0000000000000D+00
   391  3.9000000000000D+00  0.0000000000000D+00  0.0000000000000D+00
   392  3.9100000000000D+00  0.0000000000000D+00  0.0000000000000D+00
   393  3.9200000000000D+00  0.0000000000000D+00  0.0000000000000D+00
   394  3.9300000000000D+00  0.0000000000000D+00  0.0000000000000D+00
   395  3.9400000000000D+00  0.0000000000000D+00  0.0000000000000D+00
   396  3.9500000000000D+00  0.0000000000000D+00  0.0000000000000D+00
   397  3.9600000000000D+00  0.0000000000000D+00  0.0000000000000D+00
   398  3.9700000000000D+00  0.0000000000000D+00  0.0000000000000D+00
   399  3.9800000000000D+00  0.0000000000000D+00  0.0000000000000D+00
   400  3.9900000000000D+00  0.0000000000000D+00  0.0000000000000D+00
   401  4.0000000000000D+00  0.0000000000000D+00  0.0000000000000D+00
   402  4.0100000000000D+00  0.0000000000000D+00  0.0000000000000D+00
   403  4.0200000000000D+00  0.0000000000000D+00  0.0000000000000D+00
   404  4.0300000000000D+00  0.0000000000000D+00  0.0000000000000D+00
   405  4.0400000000000D+00  0.0000000000000D+00  0.0000000000000D+00
   406  4.0500000000000D+00  0.0000000000000D+00  0.0000000000000D+00
   407  4.0600000000000D+00  0.0000000000000D+00  0.0000000000000D+00
   408  4.0700000000000D+00  0.0000000000000D+00  0.0000000000000D+00
   409  4.0800000000000D+00  0.0000000000000D+00  0.0000000000000D+00
   410  4.0900000000000D+00  0.0000000000000D+00  0.0000000000000D+00
   411  4.1000000000000D+00  0.0000000000000D+00  0.0000000000000D+00
   412  4.1100000000000D+00  0.0000000000000D+00  0.0000000000000D+00
   413  4.1200000000000D+00  0.0000000000000D+00  0.0000000000000D+00
   414  4.1300000000000D+00  0.0000000000000D+00  0.0000000000000D+00
   415  4.1400000000000D+00  0.0000000000000D+00  0.0000000000000D+00
   416  4.1500000000000D+00  0.0000000000000D+00  0.0000000000000D+00
   417  4.1600000000000D+00  0.0000000000000D+00  0.0000000000000D+00
   418  4.1700000000000D+00  0.0000000000000D+00  0.0000000000000D+00
   419  4.1800000000000D+00  0.0000000000000D+00  0.0000000000000D+00
   420  4.1900000000000D+00  0.0000000000000D+00  0.0000000000000D+00
   421  4.2000000000000D+00  0.0000000000000D+00  0.0000000000000D+00
   422  4.2100000000000D+00  0.0000000000000D+00  0.0000000000000D+00