V     ONCVPSP-3.3.1  r_core=   1.72984   1.99606   2.02001
     23.0000     13.0000      210905    zatom,zion,pspd
     8 -116133   2     4   600     0    pspcod,pspxc,lmax,lloc,mmax,r2well
  5.99000000  0.00000000  0.00000000    rchrg fchrg qchrg
     2     2     2     0     0    nproj
     1     1           extension_switch
   0                         3.6057955184666D+00 -5.0297176803020D-01
     1  0.0000000000000D+00  3.1743357942204D-10  6.9921036321974D-10
     2  1.0000000000000D-02  5.8855450421588D-02 -7.7730138921622D-03
     3  2.0000000000000D-02  1.1766267128663D-01 -1.5349632689288D-02
     4  3.0000000000000D-02  1.7637283585767D-01 -2.2535348001147D-02
     5  4.0000000000000D-02  2.3493593110708D-01 -2.9139406487638D-02
     6  5.0000000000000D-02  2.9330018466977D-01 -3.4976641664288D-02
     7  6.0000000000000D-02  3.5141151568653D-01 -3.9869251344053D-02
     8  7.0000000000000D-02  4.0921301712587D-01 -4.3648503422038D-02
     9  8.0000000000000D-02  4.6664447685467D-01 -4.6156353408903D-02
    10  9.0000000000000D-02  5.2364194433717D-01 -4.7246957979991D-02
    11  1.0000000000000D-01  5.8013734938027D-01 -4.6788069821982D-02
    12  1.1000000000000D-01  6.3605817881672D-01 -4.4662300217573D-02
    13  1.2000000000000D-01  6.9132721643035D-01 -4.0768237099769D-02
    14  1.3000000000000D-01  7.4586235078479D-01 -3.5021407718561D-02
    15  1.4000000000000D-01  7.9957645492607D-01 -2.7355076580133D-02
    16  1.5000000000000D-01  8.5237734119535D-01 -1.7720870927751D-02
    17  1.6000000000000D-01  9.0416779361885D-01 -6.0892277182577D-03
    18  1.7000000000000D-01  9.5484567954457D-01  7.5503422075290D-03
    19  1.8000000000000D-01  1.0043041413774D+00  2.3189175275418D-02
    20  1.9000000000000D-01  1.0524318684334D+00  4.0799562352320D-02
    21  2.0000000000000D-01  1.0991134480982D+00  6.0335040828124D-02
    22  2.1000000000000D-01  1.1442297946429D+00  8.1730868679310D-02
    23  2.2000000000000D-01  1.1876586532275D+00  1.0490467580740D-01
    24  2.3000000000000D-01  1.2292751758221D+00  1.2975728620953D-01
    25  2.4000000000000D-01  1.2689525649983D+00  1.5617370286481D-01
    26  2.5000000000000D-01  1.3065627808019D+00  1.8402424562509D-01
    27  2.6000000000000D-01  1.3419773052195D+00  2.1316583089845D-01
    28  2.7000000000000D-01  1.3750679580970D+00  2.4344338052170D-01
    29  2.8000000000000D-01  1.4057077577723D+00  2.7469134594972D-01
    30  2.9000000000000D-01  1.4337718191463D+00  3.0673533275533D-01
    31  3.0000000000000D-01  1.4591382814444D+00  3.3939380944640D-01
    32  3.1000000000000D-01  1.4816892575211D+00  3.7247988377543D-01
    33  3.2000000000000D-01  1.5013117962300D+00  4.0580312905031D-01
    34  3.3000000000000D-01  1.5178988491377D+00  4.3917144245899D-01
    35  3.4000000000000D-01  1.5313502326847D+00  4.7239291710143D-01
    36  3.5000000000000D-01  1.5415735768166D+00  5.0527770928180D-01
    37  3.6000000000000D-01  1.5484852511015D+00  5.3763988265462D-01
    38  3.7000000000000D-01  1.5520112594322D+00  5.6929921103996D-01
    39  3.8000000000000D-01  1.5520880945765D+00  6.0008292212288D-01
    40  3.9000000000000D-01  1.5486635440851D+00  6.2982736482734D-01
    41  4.0000000000000D-01  1.5416974393920D+00  6.5837958389940D-01
    42  4.1000000000000D-01  1.5311623403506D+00  6.8559878614180D-01
    43  4.2000000000000D-01  1.5170441479227D+00  7.1135768380203D-01
    44  4.3000000000000D-01  1.4993426382891D+00  7.3554370182105D-01
    45  4.4000000000000D-01  1.4780719122638D+00  7.5806003698480D-01
    46  4.5000000000000D-01  1.4532607545664D+00  7.7882655847599D-01
    47  4.6000000000000D-01  1.4249528982351D+00  7.9778054088278D-01
    48  4.7000000000000D-01  1.3932071902380D+00  8.1487722236964D-01
    49  4.8000000000000D-01  1.3580976551545D+00  8.3009018243827D-01
    50  4.9000000000000D-01  1.3197134546467D+00  8.4341153548449D-01
    51  5.0000000000000D-01  1.2781587413158D+00  8.5485193817517D-01
    52  5.1000000000000D-01  1.2335524064272D+00  8.6444041050807D-01
    53  5.2000000000000D-01  1.1860277218901D+00  8.7222397225951D-01
    54  5.3000000000000D-01  1.1357318777795D+00  8.7826709835121D-01
    55  5.4000000000000D-01  1.0828254175824D+00  8.8265099846265D-01
    56  5.5000000000000D-01  1.0274815742306D+00  8.8547272795757D-01
    57  5.6000000000000D-01  9.6988551083926D-01  8.8684413886800D-01
    58  5.7000000000000D-01  9.1023347089738D-01  8.8689068127147D-01
    59  5.8000000000000D-01  8.4873184344215D-01  8.8575006688355D-01
    60  5.9000000000000D-01  7.8559614949421D-01  8.8357080806672D-01
    61  6.0000000000000D-01  7.2104995671773D-01  8.8051064669740D-01
    62  6.1000000000000D-01  6.5532372990349D-01  8.7673488844100D-01
    63  6.2000000000000D-01  5.8865362543795D-01  8.7241465893295D-01
    64  6.3000000000000D-01  5.2128023841994D-01  8.6772509915393D-01
    65  6.4000000000000D-01  4.5344731151035D-01  8.6284351790650D-01
    66  6.5000000000000D-01  3.8540041494451D-01  8.5794751974051D-01
    67  6.6000000000000D-01  3.1738560740319D-01  8.5321312693731D-01
    68  6.7000000000000D-01  2.4964808761820D-01  8.4881291423749D-01
    69  6.8000000000000D-01  1.8243084668537D-01  8.4491417488968D-01
    70  6.9000000000000D-01  1.1597333106811D-01  8.4167713630419D-01
    71  7.0000000000000D-01  5.0510126199244D-02  8.3925324312152D-01
    72  7.1000000000000D-01 -1.3730329572213D-02  8.3778352485227D-01
    73  7.2000000000000D-01 -7.6526991185435D-02  8.3739706442670D-01
    74  7.3000000000000D-01 -1.3766740404610D-01  8.3820958300265D-01
    75  7.4000000000000D-01 -1.9694884340445D-01  8.4032215524417D-01
    76  7.5000000000000D-01 -2.5417938763688D-01  8.4382006800227D-01
    77  7.6000000000000D-01 -3.0917891768276D-01  8.4877183391922D-01
    78  7.7000000000000D-01 -3.6178003550175D-01  8.5522836995082D-01
    79  7.8000000000000D-01 -4.1182889508814D-01  8.6322234917672D-01
    80  7.9000000000000D-01 -4.5918594030399D-01  8.7276773255790D-01
    81  8.0000000000000D-01 -5.0372654456582D-01  8.8385948551936D-01
    82  8.1000000000000D-01 -5.4534154822872D-01  8.9647348241157D-01
    83  8.2000000000000D-01 -5.8393769035557D-01  9.1056660004315D-01
    84  8.3000000000000D-01 -6.1943793242543D-01  9.2607699960492D-01
    85  8.4000000000000D-01 -6.5178167241855D-01  9.4292459443874D-01
    86  8.5000000000000D-01 -6.8092484860679D-01  9.6101169926220D-01
    87  8.6000000000000D-01 -7.0683993326988D-01  9.8022385466083D-01
    88  8.7000000000000D-01 -7.2951581744154D-01  1.0004308189209D+00
    89  8.8000000000000D-01 -7.4895758865790D-01  1.0214877176159D+00
    90  8.9000000000000D-01 -7.6518620452482D-01  1.0432363397942D+00
    91  9.0000000000000D-01 -7.7823806573452D-01  1.0655065681632D+00
    92  9.1000000000000D-01 -7.8816449293763D-01  1.0881179293342D+00
    93  9.2000000000000D-01 -7.9503111260724D-01  1.1108812490048D+00
    94  9.3000000000000D-01 -7.9891715771108D-01  1.1336003959177D+00
    95  9.4000000000000D-01 -7.9991468963154D-01  1.1560740975548D+00
    96  9.5000000000000D-01 -7.9812774833363D-01  1.1780978098239D+00
    97  9.6000000000000D-01 -7.9367143827166D-01  1.1994656224651D+00
    98  9.7000000000000D-01 -7.8667095795612D-01  1.2199721815563D+00
    99  9.8000000000000D-01 -7.7726058144537D-01  1.2394146103405D+00
   100  9.9000000000000D-01 -7.6558260030318D-01  1.2575944096290D+00
   101  1.0000000000000D+00 -7.5178623475803D-01  1.2743193192486D+00
   102  1.0100000000000D+00 -7.3602652291717D-01  1.2894051224042D+00
   103  1.0200000000000D+00 -7.1846319692261D-01  1.3026773754303D+00
   104  1.0300000000000D+00 -6.9925955489838D-01  1.3139730461328D+00
   105  1.0400000000000D+00 -6.7858133741976D-01  1.3231420448770D+00
   106  1.0500000000000D+00 -6.5659561703623D-01  1.3300486336670D+00
   107  1.0600000000000D+00 -6.3346970911814D-01  1.3345726996809D+00
   108  1.0700000000000D+00 -6.0937011195484D-01  1.3366108811198D+00
   109  1.0800000000000D+00 -5.8446148362346D-01  1.3360775347336D+00
   110  1.0900000000000D+00 -5.5890566272551D-01  1.3329055358678D+00
   111  1.1000000000000D+00 -5.3286073950736D-01  1.3270469037592D+00
   112  1.1100000000000D+00 -5.0648018336889D-01  1.3184732463934D+00
   113  1.1200000000000D+00 -4.7991203208121D-01  1.3071760212531D+00
   114  1.1300000000000D+00 -4.5329814751182D-01  1.2931666097900D+00
   115  1.1400000000000D+00 -4.2677354184026D-01  1.2764762057038D+00
   116  1.1500000000000D+00 -4.0046577762568D-01  1.2571555187445D+00
   117  1.1600000000000D+00 -3.7449444427400D-01  1.2352742978223D+00
   118  1.1700000000000D+00 -3.4897071293062D-01  1.2109206785266D+00
   119  1.1800000000000D+00 -3.2399697084635D-01  1.1842003625030D+00
   120  1.1900000000000D+00 -2.9966653566553D-01  1.1552356374755D+00
   121  1.2000000000000D+00 -2.7606344932479D-01  1.1241642483684D+00
   122  1.2100000000000D+00 -2.5326235071504D-01  1.0911381311632D+00
   123  1.2200000000000D+00 -2.3132842531057D-01  1.0563220230217D+00
   124  1.2300000000000D+00 -2.1031742945227D-01  1.0198919630727D+00
   125  1.2400000000000D+00 -1.9027578660057D-01  9.8203369901725D-01
   126  1.2500000000000D+00 -1.7124075191509D-01  9.4294101627353D-01
   127  1.2600000000000D+00 -1.5324064119494D-01  9.0281400664102D-01
   128  1.2700000000000D+00 -1.3629511991692D-01  8.6185729394435D-01
   129  1.2800000000000D+00 -1.2041554740917D-01  8.2027823487959D-01
   130  1.2900000000000D+00 -1.0560537095831D-01  7.7828511303095D-01
   131  1.3000000000000D+00 -9.1860564528077D-02  7.3608534423968D-01
   132  1.3100000000000D+00 -7.9170106260530D-02  6.9388371144160D-01
   133  1.3200000000000D+00 -6.7516488956238D-02  6.5188064600629D-01
   134  1.3300000000000D+00 -5.6876257618789D-02  6.1027057320341D-01
   135  1.3400000000000D+00 -4.7220567972439D-02  5.6924033773864D-01
   136  1.3500000000000D+00 -3.8515760158942D-02  5.2896772402461D-01
   137  1.3600000000000D+00 -3.0723941509084D-02  4.8962008697958D-01
   138  1.3700000000000D+00 -2.3803572857103D-02  4.5135310471773D-01
   139  1.3800000000000D+00 -1.7710052828176D-02  4.1430966553753D-01
   140  1.3900000000000D+00 -1.2396294563931D-02  3.7861890031897D-01
   141  1.4000000000000D+00 -7.8132904523650D-03  3.4439536649162D-01
   142  1.4100000000000D+00 -3.9106595132904D-03  3.1173839384700D-01
   143  1.4200000000000D+00 -6.3717371283640D-04  2.8073159486885D-01
   144  1.4300000000000D+00  2.0587407028445D-03  2.5144254366682D-01
   145  1.4400000000000D+00  4.2285308548159D-03  2.2392262725681D-01
   146  1.4500000000000D+00  5.9230756413461D-03  1.9820706478142D-01
   147  1.4600000000000D+00  7.1922788671627D-03  1.7431509823220D-01
   148  1.4700000000000D+00  8.0846977269532D-03  1.5225034599974D-01
   149  1.4800000000000D+00  8.6472089360893D-03  1.3200131687177D-01
   150  1.4900000000000D+00  8.9247134924324D-03  1.1354207700662D-01
   151  1.5000000000000D+00  8.9598797917842D-03  9.6833058951487D-02
   152  1.5100000000000D+00  8.7929266575877D-03  8.1822006974827D-02
   153  1.5200000000000D+00  8.4614439002661D-03  6.8445041413105D-02
   154  1.5300000000000D+00  8.0002516976081D-03  5.6627835285237D-02
   155  1.5400000000000D+00  7.4412956552477D-03  4.6286883953349D-02
   156  1.5500000000000D+00  6.8135774066174D-03  3.7330857008457D-02
   157  1.5600000000000D+00  6.1431178973796D-03  2.9662014103860D-02
   158  1.5700000000000D+00  5.4529515862619D-03  2.3177670088972D-02
   159  1.5800000000000D+00  4.7631490092586D-03  1.7771691720133D-02
   160  1.5900000000000D+00  4.0908648771996D-03  1.3336010005245D-02
   161  1.6000000000000D+00  3.4504091284705D-03  9.7621296382903D-03
   162  1.6100000000000D+00  2.8533377873683D-03  6.9426212181218D-03
   163  1.6200000000000D+00  2.3085606317311D-03  4.7725754352142D-03
   164  1.6300000000000D+00  1.8224629645581D-03  3.1510093599010D-03
   165  1.6400000000000D+00  1.3990377409334D-03  1.9822007194859D-03
   166  1.6500000000000D+00  1.0400266198527D-03  1.1769468757380D-03
   167  1.6600000000000D+00  7.4506584517509D-04  6.5372217970450D-04
   168  1.6700000000000D+00  5.1184032951584D-04  3.3975397796810D-04
   169  1.6800000000000D+00  3.3627862698577D-04  1.7204626061583D-04
   170  1.6900000000000D+00  2.1217269909123D-04  9.7146916344609D-05
   171  1.7000000000000D+00  1.3171013574440D-04  7.3173643959537D-05
   172  1.7100000000000D+00  8.9869142054964D-05  7.4671107877417D-05
   173  1.7200000000000D+00  7.7830947184936D-05  8.4448140200402D-05
   174  1.7300000000000D+00  6.7066637207461D-05  7.7851829837180D-05
   175  1.7400000000000D+00  3.4660865202286D-05  4.0882928634552D-05
   176  1.7500000000000D+00  1.5607949682173D-06  1.8356668601337D-06
   177  1.7600000000000D+00 -6.9540238315054D-06 -8.4835294603852D-06
   178  1.7700000000000D+00 -1.3084844416906D-06 -1.6025464833811D-06
   179  1.7800000000000D+00  1.5159157396809D-06  1.8468970494455D-06
   180  1.7900000000000D+00  5.7118125360796D-07  6.9787198949380D-07
   181  1.8000000000000D+00 -1.7308504399601D-07 -2.0080755411858D-07
   182  1.8100000000000D+00 -1.0810109570712D-07 -1.2541532257973D-07
   183  1.8200000000000D+00  0.0000000000000D+00  0.0000000000000D+00
   184  1.8300000000000D+00  0.0000000000000D+00  0.0000000000000D+00
   185  1.8400000000000D+00  0.0000000000000D+00  0.0000000000000D+00
   186  1.8500000000000D+00  0.0000000000000D+00  0.0000000000000D+00
   187  1.8600000000000D+00  0.0000000000000D+00  0.0000000000000D+00
   188  1.8700000000000D+00  0.0000000000000D+00  0.0000000000000D+00
   189  1.8800000000000D+00  0.0000000000000D+00  0.0000000000000D+00
   190  1.8900000000000D+00  0.0000000000000D+00  0.0000000000000D+00
   191  1.9000000000000D+00  0.0000000000000D+00  0.0000000000000D+00
   192  1.9100000000000D+00  0.0000000000000D+00  0.0000000000000D+00
   193  1.9200000000000D+00  0.0000000000000D+00  0.0000000000000D+00
   194  1.9300000000000D+00  0.0000000000000D+00  0.0000000000000D+00
   195  1.9400000000000D+00  0.0000000000000D+00  0.0000000000000D+00
   196  1.9500000000000D+00  0.0000000000000D+00  0.0000000000000D+00
   197  1.9600000000000D+00  0.0000000000000D+00  0.0000000000000D+00
   198  1.9700000000000D+00  0.0000000000000D+00  0.0000000000000D+00
   199  1.9800000000000D+00  0.0000000000000D+00  0.0000000000000D+00
   200  1.9900000000000D+00  0.0000000000000D+00  0.0000000000000D+00
   201  2.0000000000000D+00  0.0000000000000D+00  0.0000000000000D+00
   202  2.0100000000000D+00  0.0000000000000D+00  0.0000000000000D+00
   203  2.0200000000000D+00  0.0000000000000D+00  0.0000000000000D+00
   204  2.0300000000000D+00  0.0000000000000D+00  0.0000000000000D+00
   205  2.0400000000000D+00  0.0000000000000D+00  0.0000000000000D+00
   206  2.0500000000000D+00  0.0000000000000D+00  0.0000000000000D+00
   207  2.0600000000000D+00  0.0000000000000D+00  0.0000000000000D+00
   208  2.0700000000000D+00  0.0000000000000D+00  0.0000000000000D+00
   209  2.0800000000000D+00  0.0000000000000D+00  0.0000000000000D+00
   210  2.0900000000000D+00  0.0000000000000D+00  0.0000000000000D+00
   211  2.1000000000000D+00  0.0000000000000D+00  0.0000000000000D+00
   212  2.1100000000000D+00  0.0000000000000D+00  0.0000000000000D+00
   213  2.1200000000000D+00  0.0000000000000D+00  0.0000000000000D+00
   214  2.1300000000000D+00  0.0000000000000D+00  0.0000000000000D+00
   215  2.1400000000000D+00  0.0000000000000D+00  0.0000000000000D+00
   216  2.1500000000000D+00  0.0000000000000D+00  0.0000000000000D+00
   217  2.1600000000000D+00  0.0000000000000D+00  0.0000000000000D+00
   218  2.1700000000000D+00  0.0000000000000D+00  0.0000000000000D+00
   219  2.1800000000000D+00  0.0000000000000D+00  0.0000000000000D+00
   220  2.1900000000000D+00  0.0000000000000D+00  0.0000000000000D+00
   221  2.2000000000000D+00  0.0000000000000D+00  0.0000000000000D+00
   222  2.2100000000000D+00  0.0000000000000D+00  0.0000000000000D+00
   223  2.2200000000000D+00  0.0000000000000D+00  0.0000000000000D+00
   224  2.2300000000000D+00  0.0000000000000D+00  0.0000000000000D+00
   225  2.2400000000000D+00  0.0000000000000D+00  0.0000000000000D+00
   226  2.2500000000000D+00  0.0000000000000D+00  0.0000000000000D+00
   227  2.2600000000000D+00  0.0000000000000D+00  0.0000000000000D+00
   228  2.2700000000000D+00  0.0000000000000D+00  0.0000000000000D+00
   229  2.2800000000000D+00  0.0000000000000D+00  0.0000000000000D+00
   230  2.2900000000000D+00  0.0000000000000D+00  0.0000000000000D+00
   231  2.3000000000000D+00  0.0000000000000D+00  0.0000000000000D+00
   232  2.3100000000000D+00  0.0000000000000D+00  0.0000000000000D+00
   233  2.3200000000000D+00  0.0000000000000D+00  0.0000000000000D+00
   234  2.3300000000000D+00  0.0000000000000D+00  0.0000000000000D+00
   235  2.3400000000000D+00  0.0000000000000D+00  0.0000000000000D+00
   236  2.3500000000000D+00  0.0000000000000D+00  0.0000000000000D+00
   237  2.3600000000000D+00  0.0000000000000D+00  0.0000000000000D+00
   238  2.3700000000000D+00  0.0000000000000D+00  0.0000000000000D+00
   239  2.3800000000000D+00  0.0000000000000D+00  0.0000000000000D+00
   240  2.3900000000000D+00  0.0000000000000D+00  0.0000000000000D+00
   241  2.4000000000000D+00  0.0000000000000D+00  0.0000000000000D+00
   242  2.4100000000000D+00  0.0000000000000D+00  0.0000000000000D+00
   243  2.4200000000000D+00  0.0000000000000D+00  0.0000000000000D+00
   244  2.4300000000000D+00  0.0000000000000D+00  0.0000000000000D+00
   245  2.4400000000000D+00  0.0000000000000D+00  0.0000000000000D+00
   246  2.4500000000000D+00  0.0000000000000D+00  0.0000000000000D+00
   247  2.4600000000000D+00  0.0000000000000D+00  0.0000000000000D+00
   248  2.4700000000000D+00  0.0000000000000D+00  0.0000000000000D+00
   249  2.4800000000000D+00  0.0000000000000D+00  0.0000000000000D+00
   250  2.4900000000000D+00  0.0000000000000D+00  0.0000000000000D+00
   251  2.5000000000000D+00  0.0000000000000D+00  0.0000000000000D+00
   252  2.5100000000000D+00  0.0000000000000D+00  0.0000000000000D+00
   253  2.5200000000000D+00  0.0000000000000D+00  0.0000000000000D+00
   254  2.5300000000000D+00  0.0000000000000D+00  0.0000000000000D+00
   255  2.5400000000000D+00  0.0000000000000D+00  0.0000000000000D+00
   256  2.5500000000000D+00  0.0000000000000D+00  0.0000000000000D+00
   257  2.5600000000000D+00  0.0000000000000D+00  0.0000000000000D+00
   258  2.5700000000000D+00  0.0000000000000D+00  0.0000000000000D+00
   259  2.5800000000000D+00  0.0000000000000D+00  0.0000000000000D+00
   260  2.5900000000000D+00  0.0000000000000D+00  0.0000000000000D+00
   261  2.6000000000000D+00  0.0000000000000D+00  0.0000000000000D+00
   262  2.6100000000000D+00  0.0000000000000D+00  0.0000000000000D+00
   263  2.6200000000000D+00  0.0000000000000D+00  0.0000000000000D+00
   264  2.6300000000000D+00  0.0000000000000D+00  0.0000000000000D+00
   265  2.6400000000000D+00  0.0000000000000D+00  0.0000000000000D+00
   266  2.6500000000000D+00  0.0000000000000D+00  0.0000000000000D+00
   267  2.6600000000000D+00  0.0000000000000D+00  0.0000000000000D+00
   268  2.6700000000000D+00  0.0000000000000D+00  0.0000000000000D+00
   269  2.6800000000000D+00  0.0000000000000D+00  0.0000000000000D+00
   270  2.6900000000000D+00  0.0000000000000D+00  0.0000000000000D+00
   271  2.7000000000000D+00  0.0000000000000D+00  0.0000000000000D+00
   272  2.7100000000000D+00  0.0000000000000D+00  0.0000000000000D+00
   273  2.7200000000000D+00  0.0000000000000D+00  0.0000000000000D+00
   274  2.7300000000000D+00  0.0000000000000D+00  0.0000000000000D+00
   275  2.7400000000000D+00  0.0000000000000D+00  0.0000000000000D+00
   276  2.7500000000000D+00  0.0000000000000D+00  0.0000000000000D+00
   277  2.7600000000000D+00  0.0000000000000D+00  0.0000000000000D+00
   278  2.7700000000000D+00  0.0000000000000D+00  0.0000000000000D+00
   279  2.7800000000000D+00  0.0000000000000D+00  0.0000000000000D+00
   280  2.7900000000000D+00  0.0000000000000D+00  0.0000000000000D+00
   281  2.8000000000000D+00  0.0000000000000D+00  0.0000000000000D+00
   282  2.8100000000000D+00  0.0000000000000D+00  0.0000000000000D+00
   283  2.8200000000000D+00  0.0000000000000D+00  0.0000000000000D+00
   284  2.8300000000000D+00  0.0000000000000D+00  0.0000000000000D+00
   285  2.8400000000000D+00  0.0000000000000D+00  0.0000000000000D+00
   286  2.8500000000000D+00  0.0000000000000D+00  0.0000000000000D+00
   287  2.8600000000000D+00  0.0000000000000D+00  0.0000000000000D+00
   288  2.8700000000000D+00  0.0000000000000D+00  0.0000000000000D+00
   289  2.8800000000000D+00  0.0000000000000D+00  0.0000000000000D+00
   290  2.8900000000000D+00  0.0000000000000D+00  0.0000000000000D+00
   291  2.9000000000000D+00  0.0000000000000D+00  0.0000000000000D+00
   292  2.9100000000000D+00  0.0000000000000D+00  0.0000000000000D+00
   293  2.9200000000000D+00  0.0000000000000D+00  0.0000000000000D+00
   294  2.9300000000000D+00  0.0000000000000D+00  0.0000000000000D+00
   295  2.9400000000000D+00  0.0000000000000D+00  0.0000000000000D+00
   296  2.9500000000000D+00  0.0000000000000D+00  0.0000000000000D+00
   297  2.9600000000000D+00  0.0000000000000D+00  0.0000000000000D+00
   298  2.9700000000000D+00  0.0000000000000D+00  0.0000000000000D+00
   299  2.9800000000000D+00  0.0000000000000D+00  0.0000000000000D+00
   300  2.9900000000000D+00  0.0000000000000D+00  0.0000000000000D+00
   301  3.0000000000000D+00  0.0000000000000D+00  0.0000000000000D+00
   302  3.0100000000000D+00  0.0000000000000D+00  0.0000000000000D+00
   303  3.0200000000000D+00  0.0000000000000D+00  0.0000000000000D+00
   304  3.0300000000000D+00  0.0000000000000D+00  0.0000000000000D+00
   305  3.0400000000000D+00  0.0000000000000D+00  0.0000000000000D+00
   306  3.0500000000000D+00  0.0000000000000D+00  0.0000000000000D+00
   307  3.0600000000000D+00  0.0000000000000D+00  0.0000000000000D+00
   308  3.0700000000000D+00  0.0000000000000D+00  0.0000000000000D+00
   309  3.0800000000000D+00  0.0000000000000D+00  0.0000000000000D+00
   310  3.0900000000000D+00  0.0000000000000D+00  0.0000000000000D+00
   311  3.1000000000000D+00  0.0000000000000D+00  0.0000000000000D+00
   312  3.1100000000000D+00  0.0000000000000D+00  0.0000000000000D+00
   313  3.1200000000000D+00  0.0000000000000D+00  0.0000000000000D+00
   314  3.1300000000000D+00  0.0000000000000D+00  0.0000000000000D+00
   315  3.1400000000000D+00  0.0000000000000D+00  0.0000000000000D+00
   316  3.1500000000000D+00  0.0000000000000D+00  0.0000000000000D+00
   317  3.1600000000000D+00  0.0000000000000D+00  0.0000000000000D+00
   318  3.1700000000000D+00  0.0000000000000D+00  0.0000000000000D+00
   319  3.1800000000000D+00  0.0000000000000D+00  0.0000000000000D+00
   320  3.1900000000000D+00  0.0000000000000D+00  0.0000000000000D+00
   321  3.2000000000000D+00  0.0000000000000D+00  0.0000000000000D+00
   322  3.2100000000000D+00  0.0000000000000D+00  0.0000000000000D+00
   323  3.2200000000000D+00  0.0000000000000D+00  0.0000000000000D+00
   324  3.2300000000000D+00  0.0000000000000D+00  0.0000000000000D+00
   325  3.2400000000000D+00  0.0000000000000D+00  0.0000000000000D+00
   326  3.2500000000000D+00  0.0000000000000D+00  0.0000000000000D+00
   327  3.2600000000000D+00  0.0000000000000D+00  0.0000000000000D+00
   328  3.2700000000000D+00  0.0000000000000D+00  0.0000000000000D+00
   329  3.2800000000000D+00  0.0000000000000D+00  0.0000000000000D+00
   330  3.2900000000000D+00  0.0000000000000D+00  0.0000000000000D+00
   331  3.3000000000000D+00  0.0000000000000D+00  0.0000000000000D+00
   332  3.3100000000000D+00  0.0000000000000D+00  0.0000000000000D+00
   333  3.3200000000000D+00  0.0000000000000D+00  0.0000000000000D+00
   334  3.3300000000000D+00  0.0000000000000D+00  0.0000000000000D+00
   335  3.3400000000000D+00  0.0000000000000D+00  0.0000000000000D+00
   336  3.3500000000000D+00  0.0000000000000D+00  0.0000000000000D+00
   337  3.3600000000000D+00  0.0000000000000D+00  0.0000000000000D+00
   338  3.3700000000000D+00  0.0000000000000D+00  0.0000000000000D+00
   339  3.3800000000000D+00  0.0000000000000D+00  0.0000000000000D+00
   340  3.3900000000000D+00  0.0000000000000D+00  0.0000000000000D+00
   341  3.4000000000000D+00  0.0000000000000D+00  0.0000000000000D+00
   342  3.4100000000000D+00  0.0000000000000D+00  0.0000000000000D+00
   343  3.4200000000000D+00  0.0000000000000D+00  0.0000000000000D+00
   344  3.4300000000000D+00  0.0000000000000D+00  0.0000000000000D+00
   345  3.4400000000000D+00  0.0000000000000D+00  0.0000000000000D+00
   346  3.4500000000000D+00  0.0000000000000D+00  0.0000000000000D+00
   347  3.4600000000000D+00  0.0000000000000D+00  0.0000000000000D+00
   348  3.4700000000000D+00  0.0000000000000D+00  0.0000000000000D+00
   349  3.4800000000000D+00  0.0000000000000D+00  0.0000000000000D+00
   350  3.4900000000000D+00  0.0000000000000D+00  0.0000000000000D+00
   351  3.5000000000000D+00  0.0000000000000D+00  0.0000000000000D+00
   352  3.5100000000000D+00  0.0000000000000D+00  0.0000000000000D+00
   353  3.5200000000000D+00  0.0000000000000D+00  0.0000000000000D+00
   354  3.5300000000000D+00  0.0000000000000D+00  0.0000000000000D+00
   355  3.5400000000000D+00  0.0000000000000D+00  0.0000000000000D+00
   356  3.5500000000000D+00  0.0000000000000D+00  0.0000000000000D+00
   357  3.5600000000000D+00  0.0000000000000D+00  0.0000000000000D+00
   358  3.5700000000000D+00  0.0000000000000D+00  0.0000000000000D+00
   359  3.5800000000000D+00  0.0000000000000D+00  0.0000000000000D+00
   360  3.5900000000000D+00  0.0000000000000D+00  0.0000000000000D+00
   361  3.6000000000000D+00  0.0000000000000D+00  0.0000000000000D+00
   362  3.6100000000000D+00  0.0000000000000D+00  0.0000000000000D+00
   363  3.6200000000000D+00  0.0000000000000D+00  0.0000000000000D+00
   364  3.6300000000000D+00  0.0000000000000D+00  0.0000000000000D+00
   365  3.6400000000000D+00  0.0000000000000D+00  0.0000000000000D+00
   366  3.6500000000000D+00  0.0000000000000D+00  0.0000000000000D+00
   367  3.6600000000000D+00  0.0000000000000D+00  0.0000000000000D+00
   368  3.6700000000000D+00  0.0000000000000D+00  0.0000000000000D+00
   369  3.6800000000000D+00  0.0000000000000D+00  0.0000000000000D+00
   370  3.6900000000000D+00  0.0000000000000D+00  0.0000000000000D+00
   371  3.7000000000000D+00  0.0000000000000D+00  0.0000000000000D+00
   372  3.7100000000000D+00  0.0000000000000D+00  0.0000000000000D+00
   373  3.7200000000000D+00  0.0000000000000D+00  0.0000000000000D+00
   374  3.7300000000000D+00  0.0000000000000D+00  0.0000000000000D+00
   375  3.7400000000000D+00  0.0000000000000D+00  0.0000000000000D+00
   376  3.7500000000000D+00  0.0000000000000D+00  0.0000000000000D+00
   377  3.7600000000000D+00  0.0000000000000D+00  0.0000000000000D+00
   378  3.7700000000000D+00  0.0000000000000D+00  0.0000000000000D+00
   379  3.7800000000000D+00  0.0000000000000D+00  0.0000000000000D+00
   380  3.7900000000000D+00  0.0000000000000D+00  0.0000000000000D+00
   381  3.8000000000000D+00  0.0000000000000D+00  0.0000000000000D+00
   382  3.8100000000000D+00  0.0000000000000D+00  0.0000000000000D+00
   383  3.8200000000000D+00  0.0000000000000D+00  0.0000000000000D+00
   384  3.8300000000000D+00  0.0000000000000D+00  0.0000000000000D+00
   385  3.8400000000000D+00  0.0000000000000D+00  0.0000000000000D+00
   386  3.8500000000000D+00  0.0000000000000D+00  0.0000000000000D+00
   387  3.8600000000000D+00  0.0000000000000D+00  0.0000000000000D+00
   388  3.8700000000000D+00  0.0000000000000D+00  0.0000000000000D+00
   389  3.8800000000000D+00  0.0000000000000D+00  0.0000000000000D+00
   390  3.8900000000000D+00  0.0000000000000D+00  0.0000000000000D+00
   391  3.9000000000000D+00  0.0000000000000D+00  0.0000000000000D+00
   392  3.9100000000000D+00  0.0000000000000D+00  0.0000000000000D+00
   393  3.9200000000000D+00  0.0000000000000D+00  0.0000000000000D+00
   394  3.9300000000000D+00  0.0000000000000D+00  0.0000000000000D+00
   395  3.9400000000000D+00  0.0000000000000D+00  0.0000000000000D+00
   396  3.9500000000000D+00  0.0000000000000D+00  0.0000000000000D+00
   397  3.9600000000000D+00  0.0000000000000D+00  0.0000000000000D+00
   398  3.9700000000000D+00  0.0000000000000D+00  0.0000000000000D+00
   399  3.9800000000000D+00  0.0000000000000D+00  0.0000000000000D+00
   400  3.9900000000000D+00  0.0000000000000D+00  0.0000000000000D+00
   401  4.0000000000000D+00  0.0000000000000D+00  0.0000000000000D+00
   402  4.0100000000000D+00  0.0000000000000D+00  0.0000000000000D+00
   403  4.0200000000000D+00  0.0000000000000D+00  0.0000000000000D+00
   404  4.0300000000000D+00  0.0000000000000D+00  0.0000000000000D+00
   405  4.0400000000000D+00  0.0000000000000D+00  0.0000000000000D+00
   406  4.0500000000000D+00  0.0000000000000D+00  0.0000000000000D+00
   407  4.0600000000000D+00  0.0000000000000D+00  0.0000000000000D+00
   408  4.0700000000000D+00  0.0000000000000D+00  0.0000000000000D+00
   409  4.0800000000000D+00  0.0000000000000D+00  0.0000000000000D+00
   410  4.0900000000000D+00  0.0000000000000D+00  0.0000000000000D+00
   411  4.1000000000000D+00  0.0000000000000D+00  0.0000000000000D+00
   412  4.1100000000000D+00  0.0000000000000D+00  0.0000000000000D+00
   413  4.1200000000000D+00  0.0000000000000D+00  0.0000000000000D+00
   414  4.1300000000000D+00  0.0000000000000D+00  0.0000000000000D+00
   415  4.1400000000000D+00  0.0000000000000D+00  0.0000000000000D+00
   416  4.1500000000000D+00  0.0000000000000D+00  0.0000000000000D+00
   417  4.1600000000000D+00  0.0000000000000D+00  0.0000000000000D+00
   418  4.1700000000000D+00  0.0000000000000D+00  0.0000000000000D+00
   419  4.1800000000000D+00  0.0000000000000D+00  0.0000000000000D+00
   420  4.1900000000000D+00  0.0000000000000D+00  0.0000000000000D+00
   421  4.2000000000000D+00  0.0000000000000D+00  0.0000000000000D+00
   422  4.2100000000000D+00  0.0000000000000D+00  0.0000000000000D+00