W     ONCVPSP-3.3.1  r_core=   2.17082   2.22323   1.90387   3.06802
     74.0000     28.0000      210905    zatom,zion,pspd
     8 -116133   3     4   600     0    pspcod,pspxc,lmax,lloc,mmax,r2well
  5.99000000  0.00000000  0.00000000    rchrg fchrg qchrg
     2     2     2     2     0    nproj
     1     1           extension_switch
   0                         7.8285675942468D+00  9.3134594371809D-01
     1  0.0000000000000D+00  9.5873864403018D-12 -1.9982626664472D-11
     2  1.0000000000000D-02  6.1031287218322D-02 -1.5495205745684D-02
     3  2.0000000000000D-02  1.2196190011307D-01 -3.0917800959412D-02
     4  3.0000000000000D-02  1.8269132862267D-01 -4.6195311146649D-02
     5  4.0000000000000D-02  2.4311939118409D-01 -6.1255534116454D-02
     6  5.0000000000000D-02  3.0314639891607D-01 -7.6026676700051D-02
     7  6.0000000000000D-02  3.6267331971634D-01 -9.0437492135272D-02
     8  7.0000000000000D-02  4.2160194223261D-01 -1.0441741831520D-01
     9  8.0000000000000D-02  4.7983503965782D-01 -1.1789671707937D-01
    10  9.0000000000000D-02  5.3727653328816D-01 -1.3080661470123D-01
    11  1.0000000000000D-01  5.9383165576844D-01 -1.4307944369656D-01
    12  1.1000000000000D-01  6.4940711393358D-01 -1.5464878604430D-01
    13  1.2000000000000D-01  7.0391125113714D-01 -1.6544961787403D-01
    14  1.3000000000000D-01  7.5725420893866D-01 -1.7541845563407D-01
    15  1.4000000000000D-01  8.0934808800052D-01 -1.8449350371000D-01
    16  1.5000000000000D-01  8.6010710802312D-01 -1.9261480341729D-01
    17  1.6000000000000D-01  9.0944776652421D-01 -1.9972438324258D-01
    18  1.7000000000000D-01  9.5728899624398D-01 -2.0576641015789D-01
    19  1.8000000000000D-01  1.0035523209336D+00 -2.1068734177969D-01
    20  1.9000000000000D-01  1.0481620092598D+00 -2.1443607909210D-01
    21  2.0000000000000D-01  1.0910452265336D+00 -2.1696411939997D-01
    22  2.1000000000000D-01  1.1321321839465D+00 -2.1822570912503D-01
    23  2.2000000000000D-01  1.1713562849743D+00 -2.1817799600512D-01
    24  2.3000000000000D-01  1.2086542685847D+00 -2.1678118020602D-01
    25  2.4000000000000D-01  1.2439663488619D+00 -2.1399866380558D-01
    26  2.5000000000000D-01  1.2772363506441D+00 -2.0979719806249D-01
    27  2.6000000000000D-01  1.3084118407454D+00 -2.0414702783814D-01
    28  2.7000000000000D-01  1.3374442543206D+00 -1.9702203249799D-01
    29  2.8000000000000D-01  1.3642890159144D+00 -1.8839986258208D-01
    30  2.9000000000000D-01  1.3889056547216D+00 -1.7826207150058D-01
    31  3.0000000000000D-01  1.4112579135782D+00 -1.6659424148162D-01
    32  3.1000000000000D-01  1.4313138511926D+00 -1.5338610297486D-01
    33  3.2000000000000D-01  1.4490459371212D+00 -1.3863164669585D-01
    34  3.3000000000000D-01  1.4644311389929D+00 -1.2232922748344D-01
    35  3.4000000000000D-01  1.4774510014858D+00 -1.0448165913561D-01
    36  3.5000000000000D-01  1.4880917165659D+00 -8.5096299388386D-02
    37  3.6000000000000D-01  1.4963441845048D+00 -6.4185124208431D-02
    38  3.7000000000000D-01  1.5022040652056D+00 -4.1764790581911D-02
    39  3.8000000000000D-01  1.5056718193798D+00 -1.7856687001105D-02
    40  3.9000000000000D-01  1.5067527391390D+00  7.5130291240040D-03
    41  4.0000000000000D-01  1.5054569675865D+00  3.4313407870024D-02
    42  4.1000000000000D-01  1.5017995070174D+00  6.2508697722148D-02
    43  4.2000000000000D-01  1.4958002153706D+00  9.2058351670214D-02
    44  4.3000000000000D-01  1.4874837906026D+00  1.2291704908371D-01
    45  4.4000000000000D-01  1.4768797426937D+00  1.5503473391246D-01
    46  4.5000000000000D-01  1.4640223530338D+00  1.8835666969576D-01
    47  4.6000000000000D-01  1.4489506209793D+00  2.2282351179359D-01
    48  4.7000000000000D-01  1.4317081974151D+00  2.5837139717831D-01
    49  4.8000000000000D-01  1.4123433052060D+00  2.9493205204585D-01
    50  4.9000000000000D-01  1.3909086464709D+00  3.3243291742120D-01
    51  5.0000000000000D-01  1.3674612966641D+00  3.7079729284471D-01
    52  5.1000000000000D-01  1.3420625855049D+00  4.0994449813432D-01
    53  5.2000000000000D-01  1.3147779648508D+00  4.4979005312400D-01
    54  5.3000000000000D-01  1.2856768636657D+00  4.9024587518192D-01
    55  5.4000000000000D-01  1.2548325302951D+00  5.3122049421315D-01
    56  5.5000000000000D-01  1.2223218623168D+00  5.7261928475164D-01
    57  5.6000000000000D-01  1.1882252242957D+00  6.1434471464605D-01
    58  5.7000000000000D-01  1.1526262538297D+00  6.5629660974355D-01
    59  5.8000000000000D-01  1.1156116563321D+00  6.9837243387658D-01
    60  5.9000000000000D-01  1.0772709890546D+00  7.4046758335905D-01
    61  6.0000000000000D-01  1.0376964349115D+00  7.8247569510333D-01
    62  6.1000000000000D-01  9.9698256671820D-01  8.2428896737566D-01
    63  6.2000000000000D-01  9.5522610251600D-01  8.6579849211843D-01
    64  6.3000000000000D-01  9.1252565270020D-01  9.0689459768238D-01
    65  6.4000000000000D-01  8.6898145972189D-01  9.4746720073046D-01
    66  6.5000000000000D-01  8.2469513117698D-01  9.8740616600049D-01
    67  6.6000000000000D-01  7.7976936713985D-01  1.0266016725435D+00
    68  6.7000000000000D-01  7.3430768263777D-01  1.0649445849917D+00
    69  6.8000000000000D-01  6.8841412619773D-01  1.1023268283547D+00
    70  6.9000000000000D-01  6.4219299542897D-01  1.1386417647918D+00
    71  7.0000000000000D-01  5.9574855063128D-01  1.1737845707704D+00
    72  7.1000000000000D-01  5.4918472744233D-01  1.2076526129849D+00
    73  7.2000000000000D-01  5.0260484955477D-01  1.2401458213880D+00
    74  7.3000000000000D-01  4.5611134254757D-01  1.2711670576710D+00
    75  7.4000000000000D-01  4.0980544988379D-01  1.3006224775223D+00
    76  7.5000000000000D-01  3.6378695213042D-01  1.3284218849987D+00
    77  7.6000000000000D-01  3.1815389045372D-01  1.3544790773531D+00
    78  7.7000000000000D-01  2.7300229543610D-01  1.3787121786873D+00
    79  7.8000000000000D-01  2.2842592224819D-01  1.4010439608270D+00
    80  7.9000000000000D-01  1.8451599319189D-01  1.4214021498592D+00
    81  8.0000000000000D-01  1.4136094860710D-01  1.4397197168183D+00
    82  8.1000000000000D-01  9.9046207106777D-02  1.4559351510699D+00
    83  8.2000000000000D-01  5.7653936071857D-02  1.4699927150056D+00
    84  8.3000000000000D-01  1.7262833299462D-02  1.4818426787385D+00
    85  8.4000000000000D-01 -2.2052079344939D-02  1.4914415335752D+00
    86  8.5000000000000D-01 -6.0219649467988D-02  1.4987521831268D+00
    87  8.6000000000000D-01 -9.7172774129669D-02  1.5037441110266D+00
    88  8.7000000000000D-01 -1.3284856556909D-01  1.5063935243209D+00
    89  8.8000000000000D-01 -1.6718850203810D-01  1.5066834717158D+00
    90  8.9000000000000D-01 -2.0013856316859D-01  1.5046039359770D+00
    91  9.0000000000000D-01 -2.3164934936573D-01  1.5001518999023D+00
    92  9.1000000000000D-01 -2.6167618478783D-01  1.4933313854123D+00
    93  9.2000000000000D-01 -2.9017920354490D-01  1.4841534654333D+00
    94  9.3000000000000D-01 -3.1712341882115D-01  1.4726362483796D+00
    95  9.4000000000000D-01 -3.4247877470207D-01  1.4588048351752D+00
    96  9.5000000000000D-01 -3.6622018056181D-01  1.4426912488897D+00
    97  9.6000000000000D-01 -3.8832752794484D-01  1.4243343371982D+00
    98  9.7000000000000D-01 -4.0878568995237D-01  1.4037796480118D+00
    99  9.8000000000000D-01 -4.2758450322192D-01  1.3810792787540D+00
   100  9.9000000000000D-01 -4.4471873266510D-01  1.3562916998956D+00
   101  1.0000000000000D+00 -4.6018801920466D-01  1.3294815534823D+00
   102  1.0100000000000D+00 -4.7399681082667D-01  1.3007194275193D+00
   103  1.0200000000000D+00 -4.8615427733813D-01  1.2700816071949D+00
   104  1.0300000000000D+00 -4.9667420928712D-01  1.2376498040372D+00
   105  1.0400000000000D+00 -5.0557490157632D-01  1.2035108642124D+00
   106  1.0500000000000D+00 -5.1287902236262D-01  1.1677564572704D+00
   107  1.0600000000000D+00 -5.1861346789873D-01  1.1304827467413D+00
   108  1.0700000000000D+00 -5.2280920403227D-01  1.0917900440728D+00
   109  1.0800000000000D+00 -5.2550109513055D-01  1.0517824474752D+00
   110  1.0900000000000D+00 -5.2672772125025D-01  1.0105674673109D+00
   111  1.1000000000000D+00 -5.2653118441920D-01  9.6825563972944D-01
   112  1.1100000000000D+00 -5.2495690493564D-01  9.2496013029459D-01
   113  1.1200000000000D+00 -5.2205340862934D-01  8.8079632939241D-01
   114  1.1300000000000D+00 -5.1787210605491D-01  8.3588144123762D-01
   115  1.1400000000000D+00 -5.1246706462016D-01  7.9033406831911D-01
   116  1.1500000000000D+00 -5.0589477466764D-01  7.4427379313055D-01
   117  1.1600000000000D+00 -4.9821391054290D-01  6.9782075902678D-01
   118  1.1700000000000D+00 -4.8948508769214D-01  6.5109525204386D-01
   119  1.1800000000000D+00 -4.7977061683694D-01  6.0421728548760D-01
   120  1.1900000000000D+00 -4.6913425626827D-01  5.5730618906294D-01
   121  1.2000000000000D+00 -4.5764096329426D-01  5.1048020427067D-01
   122  1.2100000000000D+00 -4.4535664586812D-01  4.6385608775715D-01
   123  1.2200000000000D+00 -4.3234791539712D-01  4.1754872421812D-01
   124  1.2300000000000D+00 -4.1868184170377D-01  3.7167075037439D-01
   125  1.2400000000000D+00 -4.0442571110517D-01  3.2633219151501D-01
   126  1.2500000000000D+00 -3.8964678851404D-01  2.8164011193580D-01
   127  1.2600000000000D+00 -3.7441208442995D-01  2.3769828052035D-01
   128  1.2700000000000D+00 -3.5878812767478D-01  1.9460685266963D-01
   129  1.2800000000000D+00 -3.4284074464537D-01  1.5246206958995D-01
   130  1.2900000000000D+00 -3.2663484580009D-01  1.1135597582805D-01
   131  1.3000000000000D+00 -3.1023422009440D-01  7.1376155932135D-02
   132  1.3100000000000D+00 -2.9370133796500D-01  3.2605490859389D-02
   133  1.3200000000000D+00 -2.7709716339595D-01 -4.8780653839422D-03
   134  1.3300000000000D+00 -2.6048097562930D-01 -4.1001688329396D-02
   135  1.3400000000000D+00 -2.4391020089234D-01 -7.5697864719874D-02
   136  1.3500000000000D+00 -2.2744025450840D-01 -1.0890455313041D-01
   137  1.3600000000000D+00 -2.1112439374910D-01 -1.4056532342648D-01
   138  1.3700000000000D+00 -1.9501358156680D-01 -1.7062947538254D-01
   139  1.3800000000000D+00 -1.7915636142775D-01 -1.9905213661781D-01
   140  1.3900000000000D+00 -1.6359874334043D-01 -2.2579434026303D-01
   141  1.4000000000000D+00 -1.4838410101467D-01 -2.5082308305714D-01
   142  1.4100000000000D+00 -1.3355308024438D-01 -2.7411136429087D-01
   143  1.4200000000000D+00 -1.1914351826750D-01 -2.9563820663562D-01
   144  1.4300000000000D+00 -1.0519037399391D-01 -3.1538865963455D-01
   145  1.4400000000000D+00 -9.1725668887981D-02 -3.3335378684044D-01
   146  1.4500000000000D+00 -7.8778438088881D-02 -3.4953063790301D-01
   147  1.4600000000000D+00 -6.6374691588775D-02 -3.6392220653746D-01
   148  1.4700000000000D+00 -5.4537384878512D-02 -3.7653737595857D-01
   149  1.4800000000000D+00 -4.3286398730746D-02 -3.8739085294521D-01
   150  1.4900000000000D+00 -3.2638527555493D-02 -3.9650309208177D-01
   151  1.5000000000000D+00 -2.2607475763133D-02 -4.0390021166985D-01
   152  1.5100000000000D+00 -1.3203861622289D-02 -4.0961390279806D-01
   153  1.5200000000000D+00 -4.4352278700575D-03 -4.1368133325358D-01
   154  1.5300000000000D+00  3.6939414375862D-03 -4.1614504778857D-01
   155  1.5400000000000D+00  1.1182198643948D-02 -4.1705286645024D-01
   156  1.5500000000000D+00  1.8031105371083D-02 -4.1645778256202D-01
   157  1.5600000000000D+00  2.4245201344346D-02 -4.1441786201609D-01
   158  1.5700000000000D+00  2.9831969834366D-02 -4.1099614545436D-01
   159  1.5800000000000D+00  3.4801800482567D-02 -4.0626055500165D-01
   160  1.5900000000000D+00  3.9167950193625D-02 -4.0028380695814D-01
   161  1.6000000000000D+00  4.2946506471354D-02 -3.9314334348645D-01
   162  1.6100000000000D+00  4.6156329465317D-02 -3.8492120785590D-01
   163  1.6200000000000D+00  4.8819067691615D-02 -3.7570415970216D-01
   164  1.6300000000000D+00  5.0958970799295D-02 -3.6558316850799D-01
   165  1.6400000000000D+00  5.2602984855538D-02 -3.5465378525761D-01
   166  1.6500000000000D+00  5.3781046072483D-02 -3.4301716809535D-01
   167  1.6600000000000D+00  5.4525036825242D-02 -3.3077689575591D-01
   168  1.6700000000000D+00  5.4867975835491D-02 -3.1803651454988D-01
   169  1.6800000000000D+00  5.4843204827664D-02 -3.0489720926044D-01
   170  1.6900000000000D+00  5.4483224480996D-02 -2.9145436249278D-01
   171  1.7000000000000D+00  5.3819866996723D-02 -2.7779833428616D-01
   172  1.7100000000000D+00  5.2884348295513D-02 -2.6401489140544D-01
   173  1.7200000000000D+00  5.1706971563263D-02 -2.5018449739086D-01
   174  1.7300000000000D+00  5.0317094544686D-02 -2.3638244734841D-01
   175  1.7400000000000D+00  4.8743011516775D-02 -2.2267872328247D-01
   176  1.7500000000000D+00  4.7011871887221D-02 -2.0913796032605D-01
   177  1.7600000000000D+00  4.5149605070657D-02 -1.9581942558829D-01
   178  1.7700000000000D+00  4.3180854916930D-02 -1.8277702067079D-01
   179  1.7800000000000D+00  4.1128924788215D-02 -1.7005930983933D-01
   180  1.7900000000000D+00  3.9015732228646D-02 -1.5770957112820D-01
   181  1.8000000000000D+00  3.6861773967058D-02 -1.4576587150549D-01
   182  1.8100000000000D+00  3.4686100348504D-02 -1.3426116374126D-01
   183  1.8200000000000D+00  3.2506299514329D-02 -1.2322340517967D-01
   184  1.8300000000000D+00  3.0338490695378D-02 -1.1267569665025D-01
   185  1.8400000000000D+00  2.8197326429845D-02 -1.0263644064452D-01
   186  1.8500000000000D+00  2.6096003421329D-02 -9.3119517720243D-02
   187  1.8600000000000D+00  2.4046281310997D-02 -8.4134479184527D-02
   188  1.8700000000000D+00  2.2058509439104D-02 -7.5686755698070D-02
   189  1.8800000000000D+00  2.0141660403323D-02 -6.7777879010039D-02
   190  1.8900000000000D+00  1.8303370712969D-02 -6.0405716794343D-02
   191  1.9000000000000D+00  1.6549987176006D-02 -5.3564717611103D-02
   192  1.9100000000000D+00  1.4886619148147D-02 -4.7246165513034D-02
   193  1.9200000000000D+00  1.3317195557495D-02 -4.1438441952298D-02
   194  1.9300000000000D+00  1.1844526359949D-02 -3.6127293614483D-02
   195  1.9400000000000D+00  1.0470367742644D-02 -3.1296104515331D-02
   196  1.9500000000000D+00  9.1954903912136D-03 -2.6926170602595D-02
   197  1.9600000000000D+00  8.0197502469140D-03 -2.2996975052013D-02
   198  1.9700000000000D+00  6.9421611726001D-03 -1.9486463231564D-02
   199  1.9800000000000D+00  5.9609686593910D-03 -1.6371314473531D-02
   200  1.9900000000000D+00  5.0737243468605D-03 -1.3627210668140D-02
   201  2.0000000000000D+00  4.2773602978007D-03 -1.1229098535314D-02
   202  2.0100000000000D+00  3.5682627469727D-03 -9.1514450900313D-03
   203  2.0200000000000D+00  2.9423447526365D-03 -7.3684848896671D-03
   204  2.0300000000000D+00  2.3951166788867D-03 -5.8544561481869D-03
   205  2.0400000000000D+00  1.9217550526137D-03 -4.5838274976962D-03
   206  2.0500000000000D+00  1.5171678100091D-03 -3.5315100095230D-03
   207  2.0600000000000D+00  1.1760568951748D-03 -2.6730572917129D-03
   208  2.0700000000000D+00  8.9297689958777D-04 -1.9848502380800D-03
   209  2.0800000000000D+00  6.6238919871808D-04 -1.4442651023761D-03
   210  2.0900000000000D+00  4.7871256259460D-04 -1.0298275919476D-03
   211  2.1000000000000D+00  3.3640408591489D-04 -7.2150144217632D-04
   212  2.1100000000000D+00  2.2987694422869D-04 -5.0028451511962D-04
   213  2.1200000000000D+00  1.5357104532793D-04 -3.4848682442040D-04
   214  2.1300000000000D+00  1.0165807365226D-04 -2.4889657274523D-04
   215  2.1400000000000D+00  7.0360264522337D-05 -1.9231638141470D-04
   216  2.1500000000000D+00  5.5991805234037D-05 -1.7076093699154D-04
   217  2.1600000000000D+00  5.1119288314928D-05 -1.6549066534961D-04
   218  2.1700000000000D+00  4.5572088058733D-05 -1.4965961873383D-04
   219  2.1800000000000D+00  2.9855168582418D-05 -9.8218959967908D-05
   220  2.1900000000000D+00  1.0969833644326D-05 -3.5989207629622D-05
   221  2.2000000000000D+00 -2.3369462815365D-06  7.7601842272711D-06
   222  2.2100000000000D+00 -4.5408194020440D-06  1.5084240715172D-05
   223  2.2200000000000D+00 -1.3990480390919D-06  4.6472812566421D-06
   224  2.2300000000000D+00  8.1966418310253D-07 -2.7430215327701D-06
   225  2.2400000000000D+00  8.9591678655418D-07 -3.0012060101019D-06
   226  2.2500000000000D+00 -1.6700041733781D-09  5.4843716309266D-09
   227  2.2600000000000D+00 -1.2127115737164D-07  3.9826013955000D-07
   228  2.2700000000000D+00 -8.7118193584055D-08  2.8610021282970D-07
   229  2.2800000000000D+00  0.0000000000000D+00  0.0000000000000D+00
   230  2.2900000000000D+00  0.0000000000000D+00  0.0000000000000D+00
   231  2.3000000000000D+00  0.0000000000000D+00  0.0000000000000D+00
   232  2.3100000000000D+00  0.0000000000000D+00  0.0000000000000D+00
   233  2.3200000000000D+00  0.0000000000000D+00  0.0000000000000D+00
   234  2.3300000000000D+00  0.0000000000000D+00  0.0000000000000D+00
   235  2.3400000000000D+00  0.0000000000000D+00  0.0000000000000D+00
   236  2.3500000000000D+00  0.0000000000000D+00  0.0000000000000D+00
   237  2.3600000000000D+00  0.0000000000000D+00  0.0000000000000D+00
   238  2.3700000000000D+00  0.0000000000000D+00  0.0000000000000D+00
   239  2.3800000000000D+00  0.0000000000000D+00  0.0000000000000D+00
   240  2.3900000000000D+00  0.0000000000000D+00  0.0000000000000D+00
   241  2.4000000000000D+00  0.0000000000000D+00  0.0000000000000D+00
   242  2.4100000000000D+00  0.0000000000000D+00  0.0000000000000D+00
   243  2.4200000000000D+00  0.0000000000000D+00  0.0000000000000D+00
   244  2.4300000000000D+00  0.0000000000000D+00  0.0000000000000D+00
   245  2.4400000000000D+00  0.0000000000000D+00  0.0000000000000D+00
   246  2.4500000000000D+00  0.0000000000000D+00  0.0000000000000D+00
   247  2.4600000000000D+00  0.0000000000000D+00  0.0000000000000D+00
   248  2.4700000000000D+00  0.0000000000000D+00  0.0000000000000D+00
   249  2.4800000000000D+00  0.0000000000000D+00  0.0000000000000D+00
   250  2.4900000000000D+00  0.0000000000000D+00  0.0000000000000D+00
   251  2.5000000000000D+00  0.0000000000000D+00  0.0000000000000D+00
   252  2.5100000000000D+00  0.0000000000000D+00  0.0000000000000D+00
   253  2.5200000000000D+00  0.0000000000000D+00  0.0000000000000D+00
   254  2.5300000000000D+00  0.0000000000000D+00  0.0000000000000D+00
   255  2.5400000000000D+00  0.0000000000000D+00  0.0000000000000D+00
   256  2.5500000000000D+00  0.0000000000000D+00  0.0000000000000D+00
   257  2.5600000000000D+00  0.0000000000000D+00  0.0000000000000D+00
   258  2.5700000000000D+00  0.0000000000000D+00  0.0000000000000D+00
   259  2.5800000000000D+00  0.0000000000000D+00  0.0000000000000D+00
   260  2.5900000000000D+00  0.0000000000000D+00  0.0000000000000D+00
   261  2.6000000000000D+00  0.0000000000000D+00  0.0000000000000D+00
   262  2.6100000000000D+00  0.0000000000000D+00  0.0000000000000D+00
   263  2.6200000000000D+00  0.0000000000000D+00  0.0000000000000D+00
   264  2.6300000000000D+00  0.0000000000000D+00  0.0000000000000D+00
   265  2.6400000000000D+00  0.0000000000000D+00  0.0000000000000D+00
   266  2.6500000000000D+00  0.0000000000000D+00  0.0000000000000D+00
   267  2.6600000000000D+00  0.0000000000000D+00  0.0000000000000D+00
   268  2.6700000000000D+00  0.0000000000000D+00  0.0000000000000D+00
   269  2.6800000000000D+00  0.0000000000000D+00  0.0000000000000D+00
   270  2.6900000000000D+00  0.0000000000000D+00  0.0000000000000D+00
   271  2.7000000000000D+00  0.0000000000000D+00  0.0000000000000D+00
   272  2.7100000000000D+00  0.0000000000000D+00  0.0000000000000D+00
   273  2.7200000000000D+00  0.0000000000000D+00  0.0000000000000D+00
   274  2.7300000000000D+00  0.0000000000000D+00  0.0000000000000D+00
   275  2.7400000000000D+00  0.0000000000000D+00  0.0000000000000D+00
   276  2.7500000000000D+00  0.0000000000000D+00  0.0000000000000D+00
   277  2.7600000000000D+00  0.0000000000000D+00  0.0000000000000D+00
   278  2.7700000000000D+00  0.0000000000000D+00  0.0000000000000D+00
   279  2.7800000000000D+00  0.0000000000000D+00  0.0000000000000D+00
   280  2.7900000000000D+00  0.0000000000000D+00  0.0000000000000D+00
   281  2.8000000000000D+00  0.0000000000000D+00  0.0000000000000D+00
   282  2.8100000000000D+00  0.0000000000000D+00  0.0000000000000D+00
   283  2.8200000000000D+00  0.0000000000000D+00  0.0000000000000D+00
   284  2.8300000000000D+00  0.0000000000000D+00  0.0000000000000D+00
   285  2.8400000000000D+00  0.0000000000000D+00  0.0000000000000D+00
   286  2.8500000000000D+00  0.0000000000000D+00  0.0000000000000D+00
   287  2.8600000000000D+00  0.0000000000000D+00  0.0000000000000D+00
   288  2.8700000000000D+00  0.0000000000000D+00  0.0000000000000D+00
   289  2.8800000000000D+00  0.0000000000000D+00  0.0000000000000D+00
   290  2.8900000000000D+00  0.0000000000000D+00  0.0000000000000D+00
   291  2.9000000000000D+00  0.0000000000000D+00  0.0000000000000D+00
   292  2.9100000000000D+00  0.0000000000000D+00  0.0000000000000D+00
   293  2.9200000000000D+00  0.0000000000000D+00  0.0000000000000D+00
   294  2.9300000000000D+00  0.0000000000000D+00  0.0000000000000D+00
   295  2.9400000000000D+00  0.0000000000000D+00  0.0000000000000D+00
   296  2.9500000000000D+00  0.0000000000000D+00  0.0000000000000D+00
   297  2.9600000000000D+00  0.0000000000000D+00  0.0000000000000D+00
   298  2.9700000000000D+00  0.0000000000000D+00  0.0000000000000D+00
   299  2.9800000000000D+00  0.0000000000000D+00  0.0000000000000D+00
   300  2.9900000000000D+00  0.0000000000000D+00  0.0000000000000D+00
   301  3.0000000000000D+00  0.0000000000000D+00  0.0000000000000D+00
   302  3.0100000000000D+00  0.0000000000000D+00  0.0000000000000D+00
   303  3.0200000000000D+00  0.0000000000000D+00  0.0000000000000D+00
   304  3.0300000000000D+00  0.0000000000000D+00  0.0000000000000D+00
   305  3.0400000000000D+00  0.0000000000000D+00  0.0000000000000D+00
   306  3.0500000000000D+00  0.0000000000000D+00  0.0000000000000D+00
   307  3.0600000000000D+00  0.0000000000000D+00  0.0000000000000D+00
   308  3.0700000000000D+00  0.0000000000000D+00  0.0000000000000D+00
   309  3.0800000000000D+00  0.0000000000000D+00  0.0000000000000D+00
   310  3.0900000000000D+00  0.0000000000000D+00  0.0000000000000D+00
   311  3.1000000000000D+00  0.0000000000000D+00  0.0000000000000D+00
   312  3.1100000000000D+00  0.0000000000000D+00  0.0000000000000D+00
   313  3.1200000000000D+00  0.0000000000000D+00  0.0000000000000D+00
   314  3.1300000000000D+00  0.0000000000000D+00  0.0000000000000D+00
   315  3.1400000000000D+00  0.0000000000000D+00  0.0000000000000D+00
   316  3.1500000000000D+00  0.0000000000000D+00  0.0000000000000D+00
   317  3.1600000000000D+00  0.0000000000000D+00  0.0000000000000D+00
   318  3.1700000000000D+00  0.0000000000000D+00  0.0000000000000D+00
   319  3.1800000000000D+00  0.0000000000000D+00  0.0000000000000D+00
   320  3.1900000000000D+00  0.0000000000000D+00  0.0000000000000D+00
   321  3.2000000000000D+00  0.0000000000000D+00  0.0000000000000D+00
   322  3.2100000000000D+00  0.0000000000000D+00  0.0000000000000D+00
   323  3.2200000000000D+00  0.0000000000000D+00  0.0000000000000D+00
   324  3.2300000000000D+00  0.0000000000000D+00  0.0000000000000D+00
   325  3.2400000000000D+00  0.0000000000000D+00  0.0000000000000D+00
   326  3.2500000000000D+00  0.0000000000000D+00  0.0000000000000D+00
   327  3.2600000000000D+00  0.0000000000000D+00  0.0000000000000D+00
   328  3.2700000000000D+00  0.0000000000000D+00  0.0000000000000D+00
   329  3.2800000000000D+00  0.0000000000000D+00  0.0000000000000D+00
   330  3.2900000000000D+00  0.0000000000000D+00  0.0000000000000D+00
   331  3.3000000000000D+00  0.0000000000000D+00  0.0000000000000D+00
   332  3.3100000000000D+00  0.0000000000000D+00  0.0000000000000D+00
   333  3.3200000000000D+00  0.0000000000000D+00  0.0000000000000D+00
   334  3.3300000000000D+00  0.0000000000000D+00  0.0000000000000D+00
   335  3.3400000000000D+00  0.0000000000000D+00  0.0000000000000D+00
   336  3.3500000000000D+00  0.0000000000000D+00  0.0000000000000D+00
   337  3.3600000000000D+00  0.0000000000000D+00  0.0000000000000D+00
   338  3.3700000000000D+00  0.0000000000000D+00  0.0000000000000D+00
   339  3.3800000000000D+00  0.0000000000000D+00  0.0000000000000D+00
   340  3.3900000000000D+00  0.0000000000000D+00  0.0000000000000D+00
   341  3.4000000000000D+00  0.0000000000000D+00  0.0000000000000D+00
   342  3.4100000000000D+00  0.0000000000000D+00  0.0000000000000D+00
   343  3.4200000000000D+00  0.0000000000000D+00  0.0000000000000D+00
   344  3.4300000000000D+00  0.0000000000000D+00  0.0000000000000D+00
   345  3.4400000000000D+00  0.0000000000000D+00  0.0000000000000D+00
   346  3.4500000000000D+00  0.0000000000000D+00  0.0000000000000D+00
   347  3.4600000000000D+00  0.0000000000000D+00  0.0000000000000D+00
   348  3.4700000000000D+00  0.0000000000000D+00  0.0000000000000D+00
   349  3.4800000000000D+00  0.0000000000000D+00  0.0000000000000D+00
   350  3.4900000000000D+00  0.0000000000000D+00  0.0000000000000D+00
   351  3.5000000000000D+00  0.0000000000000D+00  0.0000000000000D+00
   352  3.5100000000000D+00  0.0000000000000D+00  0.0000000000000D+00
   353  3.5200000000000D+00  0.0000000000000D+00  0.0000000000000D+00
   354  3.5300000000000D+00  0.0000000000000D+00  0.0000000000000D+00
   355  3.5400000000000D+00  0.0000000000000D+00  0.0000000000000D+00
   356  3.5500000000000D+00  0.0000000000000D+00  0.0000000000000D+00
   357  3.5600000000000D+00  0.0000000000000D+00  0.0000000000000D+00
   358  3.5700000000000D+00  0.0000000000000D+00  0.0000000000000D+00
   359  3.5800000000000D+00  0.0000000000000D+00  0.0000000000000D+00
   360  3.5900000000000D+00  0.0000000000000D+00  0.0000000000000D+00
   361  3.6000000000000D+00  0.0000000000000D+00  0.0000000000000D+00
   362  3.6100000000000D+00  0.0000000000000D+00  0.0000000000000D+00
   363  3.6200000000000D+00  0.0000000000000D+00  0.0000000000000D+00
   364  3.6300000000000D+00  0.0000000000000D+00  0.0000000000000D+00
   365  3.6400000000000D+00  0.0000000000000D+00  0.0000000000000D+00
   366  3.6500000000000D+00  0.0000000000000D+00  0.0000000000000D+00
   367  3.6600000000000D+00  0.0000000000000D+00  0.0000000000000D+00
   368  3.6700000000000D+00  0.0000000000000D+00  0.0000000000000D+00
   369  3.6800000000000D+00  0.0000000000000D+00  0.0000000000000D+00
   370  3.6900000000000D+00  0.0000000000000D+00  0.0000000000000D+00
   371  3.7000000000000D+00  0.0000000000000D+00  0.0000000000000D+00
   372  3.7100000000000D+00  0.0000000000000D+00  0.0000000000000D+00
   373  3.7200000000000D+00  0.0000000000000D+00  0.0000000000000D+00
   374  3.7300000000000D+00  0.0000000000000D+00  0.0000000000000D+00
   375  3.7400000000000D+00  0.0000000000000D+00  0.0000000000000D+00
   376  3.7500000000000D+00  0.0000000000000D+00  0.0000000000000D+00
   377  3.7600000000000D+00  0.0000000000000D+00  0.0000000000000D+00
   378  3.7700000000000D+00  0.0000000000000D+00  0.0000000000000D+00
   379  3.7800000000000D+00  0.0000000000000D+00  0.0000000000000D+00
   380  3.7900000000000D+00  0.0000000000000D+00  0.0000000000000D+00
   381  3.8000000000000D+00  0.0000000000000D+00  0.0000000000000D+00
   382  3.8100000000000D+00  0.0000000000000D+00  0.0000000000000D+00
   383  3.8200000000000D+00  0.0000000000000D+00  0.0000000000000D+00
   384  3.8300000000000D+00  0.0000000000000D+00  0.0000000000000D+00
   385  3.8400000000000D+00  0.0000000000000D+00  0.0000000000000D+00
   386  3.8500000000000D+00  0.0000000000000D+00  0.0000000000000D+00
   387  3.8600000000000D+00  0.0000000000000D+00  0.0000000000000D+00
   388  3.8700000000000D+00  0.0000000000000D+00  0.0000000000000D+00
   389  3.8800000000000D+00  0.0000000000000D+00  0.0000000000000D+00
   390  3.8900000000000D+00  0.0000000000000D+00  0.0000000000000D+00
   391  3.9000000000000D+00  0.0000000000000D+00  0.0000000000000D+00
   392  3.9100000000000D+00  0.0000000000000D+00  0.0000000000000D+00
   393  3.9200000000000D+00  0.0000000000000D+00  0.0000000000000D+00
   394  3.9300000000000D+00  0.0000000000000D+00  0.0000000000000D+00
   395  3.9400000000000D+00  0.0000000000000D+00  0.0000000000000D+00
   396  3.9500000000000D+00  0.0000000000000D+00  0.0000000000000D+00
   397  3.9600000000000D+00  0.0000000000000D+00  0.0000000000000D+00
   398  3.9700000000000D+00  0.0000000000000D+00  0.0000000000000D+00
   399  3.9800000000000D+00  0.0000000000000D+00  0.0000000000000D+00
   400  3.9900000000000D+00  0.0000000000000D+00  0.0000000000000D+00
   401  4.0000000000000D+00  0.0000000000000D+00  0.0000000000000D+00
   402  4.0100000000000D+00  0.0000000000000D+00  0.0000000000000D+00
   403  4.0200000000000D+00  0.0000000000000D+00  0.0000000000000D+00
   404  4.0300000000000D+00  0.0000000000000D+00  0.0000000000000D+00
   405  4.0400000000000D+00  0.0000000000000D+00  0.0000000000000D+00
   406  4.0500000000000D+00  0.0000000000000D+00  0.0000000000000D+00
   407  4.0600000000000D+00  0.0000000000000D+00  0.0000000000000D+00
   408  4.0700000000000D+00  0.0000000000000D+00  0.0000000000000D+00
   409  4.0800000000000D+00  0.0000000000000D+00  0.0000000000000D+00
   410  4.0900000000000D+00  0.0000000000000D+00  0.0000000000000D+00
   411  4.1000000000000D+00  0.0000000000000D+00  0.0000000000000D+00
   412  4.1100000000000D+00  0.0000000000000D+00  0.0000000000000D+00
   413  4.1200000000000D+00  0.0000000000000D+00  0.0000000000000D+00
   414  4.1300000000000D+00  0.0000000000000D+00  0.0000000000000D+00
   415  4.1400000000000D+00  0.0000000000000D+00  0.0000000000000D+00
   416  4.1500000000000D+00  0.0000000000000D+00  0.0000000000000D+00
   417  4.1600000000000D+00  0.0000000000000D+00  0.0000000000000D+00
   418  4.1700000000000D+00  0.0000000000000D+00  0.0000000000000D+00
   419  4.1800000000000D+00  0.0000000000000D+00  0.0000000000000D+00
   420  4.1900000000000D+00  0.0000000000000D+00  0.0000000000000D+00
   421  4.2000000000000D+00  0.0000000000000D+00  0.0000000000000D+00
   422  4.2100000000000D+00  0.0000000000000D+00  0.0000000000000D+00