Y     ONCVPSP-3.3.1  r_core=   2.32341   2.11194   1.85223
     39.0000     11.0000      210905    zatom,zion,pspd
     8 -116133   2     4   600     0    pspcod,pspxc,lmax,lloc,mmax,r2well
  5.99000000  0.00000000  0.00000000    rchrg fchrg qchrg
     2     4     3     0    nproj
     3     1           extension_switch
     4     4     0    nprojso
   0                         8.3482641770272D-01  5.2302150969072D+00
     1  0.0000000000000D+00 -2.7186829176795D-11  1.0326794974702D-11
     2  1.0000000000000D-02 -3.8583622526808D-03  4.2035516960720D-02
     3  2.0000000000000D-02 -7.7248712875097D-03  8.4039270873394D-02
     4  3.0000000000000D-02 -1.1607478291711D-02  1.2597945802686D-01
     5  4.0000000000000D-02 -1.5513744563591D-02  1.6782419385398D-01
     6  5.0000000000000D-02 -1.9450649813533D-02  2.0954147367662D-01
     7  6.0000000000000D-02 -2.3424404340318D-02  2.5109913485089D-01
     8  7.0000000000000D-02 -2.7440266342647D-02  2.9246482076738D-01
     9  8.0000000000000D-02 -3.1502365598561D-02  3.3360594715047D-01
    10  9.0000000000000D-02 -3.5613534711702D-02  3.7448967108835D-01
    11  1.0000000000000D-01 -3.9775149083284D-02  4.1508286320993D-01
    12  1.1000000000000D-01 -4.3986976722251D-02  4.5535208340718D-01
    13  1.2000000000000D-01 -4.8247038953785D-02  4.9526356048158D-01
    14  1.3000000000000D-01 -5.2551483028194D-02  5.3478317607134D-01
    15  1.4000000000000D-01 -5.6894467568632D-02  5.7387645319165D-01
    16  1.5000000000000D-01 -6.1268061727321D-02  6.1250854969433D-01
    17  1.6000000000000D-01 -6.5662158846224D-02  6.5064425692498D-01
    18  1.7000000000000D-01 -7.0064405340036D-02  6.8824800382622D-01
    19  1.8000000000000D-01 -7.4460145436907D-02  7.2528386670406D-01
    20  1.9000000000000D-01 -7.8832382326240D-02  7.6171558484185D-01
    21  2.0000000000000D-01 -8.3161756173460D-02  7.9750658211218D-01
    22  2.1000000000000D-01 -8.7426539369198D-02  8.3261999470190D-01
    23  2.2000000000000D-01 -9.1602649285457D-02  8.6701870502940D-01
    24  2.3000000000000D-01 -9.5663678714411D-02  9.0066538189632D-01
    25  2.4000000000000D-01 -9.9580944067017D-02  9.3352252687843D-01
    26  2.5000000000000D-01 -1.0332355130900D-01  9.6555252692263D-01
    27  2.6000000000000D-01 -1.0685847951177D-01  9.9671771307862D-01
    28  2.7000000000000D-01 -1.1015068179533D-01  1.0269804252561D+00
    29  2.8000000000000D-01 -1.1316320334083D-01  1.0563030828596D+00
    30  2.9000000000000D-01 -1.1585731605102D-01  1.0846482611167D+00
    31  3.0000000000000D-01 -1.1819266933979D-01  1.1119787728762D+00
    32  3.1000000000000D-01 -1.2012745643620D-01  1.1382577556193D+00
    33  3.2000000000000D-01 -1.2161859549527D-01  1.1634487633873D+00
    34  3.3000000000000D-01 -1.2262192471771D-01  1.1875158633007D+00
    35  3.4000000000000D-01 -1.2309241059364D-01  1.2104237363046D+00
    36  3.5000000000000D-01 -1.2298436830268D-01  1.2321377817495D+00
    37  3.6000000000000D-01 -1.2225169322384D-01  1.2526242253840D+00
    38  3.7000000000000D-01 -1.2084810243483D-01  1.2718502303071D+00
    39  3.8000000000000D-01 -1.1872738501152D-01  1.2897840104033D+00
    40  3.9000000000000D-01 -1.1584365987539D-01  1.3063949457583D+00
    41  4.0000000000000D-01 -1.1215163987889D-01  1.3216536995325D+00
    42  4.1000000000000D-01 -1.0760690076842D-01  1.3355323357482D+00
    43  4.2000000000000D-01 -1.0216615361977D-01  1.3480044374309D+00
    44  4.3000000000000D-01 -9.5787519303374D-02  1.3590452245315D+00
    45  4.4000000000000D-01 -8.8430803506761D-02  1.3686316710416D+00
    46  4.5000000000000D-01 -8.0057770818462D-02  1.3767426207088D+00
    47  4.6000000000000D-01 -7.0632416362116D-02  1.3833589007517D+00
    48  4.7000000000000D-01 -6.0121233462525D-02  1.3884634329698D+00
    49  4.8000000000000D-01 -4.8493475825009D-02  1.3920413416473D+00
    50  4.9000000000000D-01 -3.5721412718149D-02  1.3940800576496D+00
    51  5.0000000000000D-01 -2.1780575666143D-02  1.3945694181182D+00
    52  5.1000000000000D-01 -6.6499951810684D-03  1.3935017611823D+00
    53  5.2000000000000D-01  9.6875739022568D-03  1.3908720151127D+00
    54  5.3000000000000D-01  2.7245439886068D-02  1.3866777813628D+00
    55  5.4000000000000D-01  4.6032775813642D-02  1.3809194109588D+00
    56  5.5000000000000D-01  6.6054436511305D-02  1.3736000737233D+00
    57  5.6000000000000D-01  8.7310792299829D-02  1.3647258198385D+00
    58  5.7000000000000D-01  1.0979758053621D-01  1.3543056332860D+00
    59  5.8000000000000D-01  1.3350577607006D-01  1.3423514767272D+00
    60  5.9000000000000D-01  1.5842148161571D-01  1.3288783274209D+00
    61  6.0000000000000D-01  1.8452583895108D-01  1.3139042038113D+00
    62  6.1000000000000D-01  2.1179496175925D-01  1.2974501824553D+00
    63  6.2000000000000D-01  2.4019989082810D-01  1.2795404049966D+00
    64  6.3000000000000D-01  2.6970657221723D-01  1.2602020749378D+00
    65  6.4000000000000D-01  3.0027585889208D-01  1.2394654440021D+00
    66  6.5000000000000D-01  3.3186353621069D-01  1.2173637879219D+00
    67  6.6000000000000D-01  3.6442037153176D-01  1.1939333715389D+00
    68  6.7000000000000D-01  3.9789218809272D-01  1.1692134031441D+00
    69  6.8000000000000D-01  4.3221996318452D-01  1.1432459780388D+00
    70  6.9000000000000D-01  4.6733995052627D-01  1.1160760113416D+00
    71  7.0000000000000D-01  5.0318382661847D-01  1.0877511601203D+00
    72  7.1000000000000D-01  5.3967886072951D-01  1.0583217349735D+00
    73  7.2000000000000D-01  5.7674810804525D-01  1.0278406012386D+00
    74  7.3000000000000D-01  6.1431062538881D-01  9.9636307005164D-01
    75  7.4000000000000D-01  6.5228170879678D-01  9.6394677953183D-01
    76  7.5000000000000D-01  6.9057315211840D-01  9.3065156641432D-01
    77  7.6000000000000D-01  7.2909352568952D-01  8.9653932849907D-01
    78  7.7000000000000D-01  7.6774847402045D-01  8.6167387833118D-01
    79  7.8000000000000D-01  8.0644103132926D-01  8.2612078857187D-01
    80  7.9000000000000D-01  8.4507195364981D-01  7.8994722956144D-01
    81  8.0000000000000D-01  8.8354006614629D-01  7.5322179961677D-01
    82  8.1000000000000D-01  9.2174262417552D-01  7.1601434864377D-01
    83  8.2000000000000D-01  9.5957568655376D-01  6.7839579568140D-01
    84  8.3000000000000D-01  9.9693449940816D-01  6.4043794102735D-01
    85  8.4000000000000D-01  1.0337138889232D+00  6.0221327362580D-01
    86  8.5000000000000D-01  1.0698086612321D+00  5.6379477442539D-01
    87  8.6000000000000D-01  1.1051140076498D+00  5.2525571644009D-01
    88  8.7000000000000D-01  1.1395259134012D+00  4.8666946226661D-01
    89  8.8000000000000D-01  1.1729415679633D+00  4.4810925982983D-01
    90  8.9000000000000D-01  1.2052597751155D+00  4.0964803714198D-01
    91  9.0000000000000D-01  1.2363813607769D+00  3.7135819687157D-01
    92  9.1000000000000D-01  1.2662095767037D+00  3.3331141152529D-01
    93  9.2000000000000D-01  1.2946504981254D+00  2.9557842004872D-01
    94  9.3000000000000D-01  1.3216134134128D+00  2.5822882665120D-01
    95  9.4000000000000D-01  1.3470112038939D+00  2.2133090265531D-01
    96  9.5000000000000D-01  1.3707607119727D+00  1.8495139216312D-01
    97  9.6000000000000D-01  1.3927830957451D+00  1.4915532231900D-01
    98  9.7000000000000D-01  1.4130041683661D+00  1.1400581893231D-01
    99  9.8000000000000D-01  1.4313547204803D+00  7.9563928204100D-02
   100  9.9000000000000D-01  1.4477708241074D+00  4.5888445277895D-02
   101  1.0000000000000D+00  1.4621941164491D+00  1.3035750307771D-02
   102  1.0100000000000D+00  1.4745720621817D+00 -1.8940347293548D-02
   103  1.0200000000000D+00  1.4848581928894D+00 -4.9988755797544D-02
   104  1.0300000000000D+00  1.4930123224068D+00 -8.0061238701446D-02
   105  1.0400000000000D+00  1.4990007369475D+00 -1.0911254231750D-01
   106  1.0500000000000D+00  1.5027963590131D+00 -1.3710051289770D-01
   107  1.0600000000000D+00  1.5043788842090D+00 -1.6398620283192D-01
   108  1.0700000000000D+00  1.5037348902183D+00 -1.8973396550119D-01
   109  1.0800000000000D+00  1.5008579173198D+00 -2.1431153841825D-01
   110  1.0900000000000D+00  1.4957485199861D+00 -2.3769011434237D-01
   111  1.1000000000000D+00  1.4884142892115D+00 -2.5984440009880D-01
   112  1.1100000000000D+00  1.4788698453982D+00 -2.8075266289982D-01
   113  1.1200000000000D+00  1.4671368017493D+00 -3.0039676401003D-01
   114  1.1300000000000D+00  1.4532436982800D+00 -3.1876217966211D-01
   115  1.1400000000000D+00  1.4372259066828D+00 -3.3583800917568D-01
   116  1.1500000000000D+00  1.4191255064465D+00 -3.5161697029784D-01
   117  1.1600000000000D+00  1.3989911327659D+00 -3.6609538183586D-01
   118  1.1700000000000D+00  1.3768777969269D+00 -3.7927313371430D-01
   119  1.1800000000000D+00  1.3528466799561D+00 -3.9115364462788D-01
   120  1.1900000000000D+00  1.3269649004992D+00 -4.0174380753550D-01
   121  1.2000000000000D+00  1.2993052580024D+00 -4.1105392328373D-01
   122  1.2100000000000D+00  1.2699459523867D+00 -4.1909762270022D-01
   123  1.2200000000000D+00  1.2389702815129D+00 -4.2589177753929D-01
   124  1.2300000000000D+00  1.2064663178763D+00 -4.3145640072587D-01
   125  1.2400000000000D+00  1.1725265660538D+00 -4.3581453638237D-01
   126  1.2500000000000D+00  1.1372476024789D+00 -4.3899214014362D-01
   127  1.2600000000000D+00  1.1007296992789D+00 -4.4101795034152D-01
   128  1.2700000000000D+00  1.0630764339369D+00 -4.4192335065678D-01
   129  1.2800000000000D+00  1.0243942865839D+00 -4.4174222485431D-01
   130  1.2900000000000D+00  9.8479222684215D-01 -4.4051080427989D-01
   131  1.3000000000000D+00  9.4438129214012D-01 -4.3826750880417D-01
   132  1.3100000000000D+00  9.0327415944866D-01 -4.3505278191036D-01
   133  1.3200000000000D+00  8.6158471245027D-01 -4.3090892066990D-01
   134  1.3300000000000D+00  8.1942760611263D-01 -4.2587990134117D-01
   135  1.3400000000000D+00  7.7691783068487D-01 -4.2001120134235D-01
   136  1.3500000000000D+00  7.3417027708954D-01 -4.1334961836603D-01
   137  1.3600000000000D+00  6.9129930566116D-01 -4.0594308738870D-01
   138  1.3700000000000D+00  6.4841832020630D-01 -3.9784049634794D-01
   139  1.3800000000000D+00  6.0563934919343D-01 -3.8909150122889D-01
   140  1.3900000000000D+00  5.6307263597835D-01 -3.7974634131918D-01
   141  1.4000000000000D+00  5.2082623980375D-01 -3.6985565536484D-01
   142  1.4100000000000D+00  4.7900564919106D-01 -3.5947029932150D-01
   143  1.4200000000000D+00  4.3771340950344D-01 -3.4864116644377D-01
   144  1.4300000000000D+00  3.9704876596605D-01 -3.3741901032456D-01
   145  1.4400000000000D+00  3.5710732375119D-01 -3.2585427158042D-01
   146  1.4500000000000D+00  3.1798072634634D-01 -3.1399690877698D-01
   147  1.4600000000000D+00  2.7975635330034D-01 -3.0189623414391D-01
   148  1.4700000000000D+00  2.4251703869401D-01 -2.8960075471179D-01
   149  1.4800000000000D+00  2.0634081083134D-01 -2.7715801923963D-01
   150  1.4900000000000D+00  1.7130065446363D-01 -2.6461447155610D-01
   151  1.5000000000000D+00  1.3746429575482D-01 -2.5201531059237D-01
   152  1.5100000000000D+00  1.0489401080898D-01 -2.3940435757411D-01
   153  1.5200000000000D+00  7.3646458078435D-02 -2.2682393068556D-01
   154  1.5300000000000D+00  4.3772534705051D-02 -2.1431472742053D-01
   155  1.5400000000000D+00  1.5317257340459D-02 -2.0191571501107D-01
   156  1.5500000000000D+00 -1.1680333300929D-02 -1.8966402887451D-01
   157  1.5600000000000D+00 -3.7187243452462D-02 -1.7759487952871D-01
   158  1.5700000000000D+00 -6.1176574182409D-02 -1.6574146771341D-01
   159  1.5800000000000D+00 -8.3627545672382D-02 -1.5413490809604D-01
   160  1.5900000000000D+00 -1.0452549933283D-01 -1.4280416124564D-01
   161  1.6000000000000D+00 -1.2386187779546D-01 -1.3177597406808D-01
   162  1.6100000000000D+00 -1.4163418416977D-01 -1.2107482840197D-01
   163  1.6200000000000D+00 -1.5784592116249D-01 -1.1072289776170D-01
   164  1.6300000000000D+00 -1.7250651138228D-01 -1.0074001194859D-01
   165  1.6400000000000D+00 -1.8563119990428D-01 -9.1143629330095D-02
   166  1.6500000000000D+00 -1.9724094039896D-01 -8.1948816515709D-02
   167  1.6600000000000D+00 -2.0736226625445D-01 -7.3168235078380D-02
   168  1.6700000000000D+00 -2.1602714804235D-01 -6.4812135036029D-02
   169  1.6800000000000D+00 -2.2327283897282D-01 -5.6888354634897D-02
   170  1.6900000000000D+00 -2.2914171433852D-01 -4.9402324680654D-02
   171  1.7000000000000D+00 -2.3368107853911D-01 -4.2357085760463D-02
   172  1.7100000000000D+00 -2.3694304037920D-01 -3.5753286478177D-02
   173  1.7200000000000D+00 -2.3898419498202D-01 -2.9589246863777D-02
   174  1.7300000000000D+00 -2.3986547353258D-01 -2.3860968960526D-02
   175  1.7400000000000D+00 -2.3965238483212D-01 -1.8562029468012D-02
   176  1.7500000000000D+00 -2.3841426425136D-01 -1.3683787852304D-02
   177  1.7600000000000D+00 -2.3622296769410D-01 -9.2157672704253D-03
   178  1.7700000000000D+00 -2.3315182679336D-01 -5.1459727066238D-03
   179  1.7800000000000D+00 -2.2927429821034D-01 -1.4613236814711D-03
   180  1.7900000000000D+00 -2.2466303214482D-01  1.8520434943543D-03
   181  1.8000000000000D+00 -2.1938998200568D-01  4.8087925696513D-03
   182  1.8100000000000D+00 -2.1352621748431D-01  7.4243062357076D-03
   183  1.8200000000000D+00 -2.0714145451041D-01  9.7145202177033D-03
   184  1.8300000000000D+00 -2.0030387126855D-01  1.1695841039488D-02
   185  1.8400000000000D+00 -1.9307982624049D-01  1.3385032103447D-02
   186  1.8500000000000D+00 -1.8553362700232D-01  1.4799113516894D-02
   187  1.8600000000000D+00 -1.7772731061887D-01  1.5955263668857D-02
   188  1.8700000000000D+00 -1.6972044041447D-01  1.6870724224361D-02
   189  1.8800000000000D+00 -1.6156992346906D-01  1.7562709949972D-02
   190  1.8900000000000D+00 -1.5332984646633D-01  1.8048322779993D-02
   191  1.9000000000000D+00 -1.4505133198658D-01  1.8344470879270D-02
   192  1.9100000000000D+00 -1.3678241523270D-01  1.8467792823383D-02
   193  1.9200000000000D+00 -1.2856794063152D-01  1.8434586851214D-02
   194  1.9300000000000D+00 -1.2044948041637D-01  1.8260745949539D-02
   195  1.9400000000000D+00 -1.1246527179778D-01  1.7961697856207D-02
   196  1.9500000000000D+00 -1.0465017749683D-01  1.7552351591893D-02
   197  1.9600000000000D+00 -9.7035664278797D-02  1.7047048963274D-02
   198  1.9700000000000D+00 -8.9649803147383D-02  1.6459522316185D-02
   199  1.9800000000000D+00 -8.2517288316462D-02  1.5802857749967D-02
   200  1.9900000000000D+00 -7.5659474970169D-02  1.5089463926116D-02
   201  2.0000000000000D+00 -6.9094436447623D-02  1.4331046804670D-02
   202  2.0100000000000D+00 -6.2837036948261D-02  1.3538589169092D-02
   203  2.0200000000000D+00 -5.6899023072273D-02  1.2722336164615D-02
   204  2.0300000000000D+00 -5.1289129069648D-02  1.1891785284144D-02
   205  2.0400000000000D+00 -4.6013197668301D-02  1.1055681574384D-02
   206  2.0500000000000D+00 -4.1074314161695D-02  1.0222017416189D-02
   207  2.0600000000000D+00 -3.6472952014339D-02  9.3980364279259D-03
   208  2.0700000000000D+00 -3.2207130461724D-02  8.5902418326072D-03
   209  2.0800000000000D+00 -2.8272580631887D-02  7.8044081807957D-03
   210  2.0900000000000D+00 -2.4662920600327D-02  7.0455968062155D-03
   211  2.1000000000000D+00 -2.1369837051453D-02  6.3181742835983D-03
   212  2.1100000000000D+00 -1.8383272275351D-02  5.6258336094244D-03
   213  2.1200000000000D+00 -1.5691615241721D-02  4.9716178966170D-03
   214  2.1300000000000D+00 -1.3281895444440D-02  4.3579460886811D-03
   215  2.1400000000000D+00 -1.1139977428921D-02  3.7866403408782D-03
   216  2.1500000000000D+00 -9.2507553739187D-03  3.2589548014683D-03
   217  2.1600000000000D+00 -7.5983462835073D-03  2.7756054430251D-03
   218  2.1700000000000D+00 -6.1662790703055D-03  2.3368003117038D-03
   219  2.1800000000000D+00 -4.9376809874809D-03  1.9422704737529D-03
   220  2.1900000000000D+00 -3.8954569579738D-03  1.5913005921465D-03
   221  2.2000000000000D+00 -3.0224623206121D-03  1.2827592314636D-03
   222  2.2100000000000D+00 -2.3016693783739D-03  1.0151289782672D-03
   223  2.2200000000000D+00 -1.7163217476469D-03  7.8653486179140D-04
   224  2.2300000000000D+00 -1.2500816512917D-03  5.9477236611826D-04
   225  2.2400000000000D+00 -8.8716516276663D-04  4.3733375869335D-04
   226  2.2500000000000D+00 -6.1255710508751D-04  3.1145212394364D-04
   227  2.2600000000000D+00 -4.1176679583326D-04  2.1404902162440D-04
   228  2.2700000000000D+00 -2.7113306101542D-04  1.4176886039924D-04
   229  2.2800000000000D+00 -1.7772853122369D-04  9.0912638446091D-05
   230  2.2900000000000D+00 -1.2223844712038D-04  5.8593428525911D-05
   231  2.3000000000000D+00 -9.6276129890159D-05  4.1743243793297D-05
   232  2.3100000000000D+00 -8.8149851814896D-05  3.5291907968737D-05
   233  2.3200000000000D+00 -8.1373215638643D-05  3.1618558600186D-05
   234  2.3300000000000D+00 -6.1139428105895D-05  2.3608854012751D-05
   235  2.3400000000000D+00 -3.1023068937006D-05  1.1980548396586D-05
   236  2.3500000000000D+00 -2.9406726689649D-06  1.1396705473458D-06
   237  2.3600000000000D+00  7.5928410291833D-06 -2.8819201159403D-06
   238  2.3700000000000D+00  6.2402658939814D-06 -2.3658637804823D-06
   239  2.3800000000000D+00 -1.2552651779380D-07  4.7442357623501D-08
   240  2.3900000000000D+00 -1.7067565000847D-06  6.4404367317974D-07
   241  2.4000000000000D+00 -1.2735589971109D-06  4.7995315101980D-07
   242  2.4100000000000D+00  5.4020469419300D-08 -2.0953681512947D-08
   243  2.4200000000000D+00  2.1555619841104D-07 -8.3610823419333D-08
   244  2.4300000000000D+00  1.4293215687736D-07 -5.5441111959253D-08
   245  2.4400000000000D+00  0.0000000000000D+00  0.0000000000000D+00
   246  2.4500000000000D+00  0.0000000000000D+00  0.0000000000000D+00
   247  2.4600000000000D+00  0.0000000000000D+00  0.0000000000000D+00
   248  2.4700000000000D+00  0.0000000000000D+00  0.0000000000000D+00
   249  2.4800000000000D+00  0.0000000000000D+00  0.0000000000000D+00
   250  2.4900000000000D+00  0.0000000000000D+00  0.0000000000000D+00
   251  2.5000000000000D+00  0.0000000000000D+00  0.0000000000000D+00
   252  2.5100000000000D+00  0.0000000000000D+00  0.0000000000000D+00
   253  2.5200000000000D+00  0.0000000000000D+00  0.0000000000000D+00
   254  2.5300000000000D+00  0.0000000000000D+00  0.0000000000000D+00
   255  2.5400000000000D+00  0.0000000000000D+00  0.0000000000000D+00
   256  2.5500000000000D+00  0.0000000000000D+00  0.0000000000000D+00
   257  2.5600000000000D+00  0.0000000000000D+00  0.0000000000000D+00
   258  2.5700000000000D+00  0.0000000000000D+00  0.0000000000000D+00
   259  2.5800000000000D+00  0.0000000000000D+00  0.0000000000000D+00
   260  2.5900000000000D+00  0.0000000000000D+00  0.0000000000000D+00
   261  2.6000000000000D+00  0.0000000000000D+00  0.0000000000000D+00
   262  2.6100000000000D+00  0.0000000000000D+00  0.0000000000000D+00
   263  2.6200000000000D+00  0.0000000000000D+00  0.0000000000000D+00
   264  2.6300000000000D+00  0.0000000000000D+00  0.0000000000000D+00
   265  2.6400000000000D+00  0.0000000000000D+00  0.0000000000000D+00
   266  2.6500000000000D+00  0.0000000000000D+00  0.0000000000000D+00
   267  2.6600000000000D+00  0.0000000000000D+00  0.0000000000000D+00
   268  2.6700000000000D+00  0.0000000000000D+00  0.0000000000000D+00
   269  2.6800000000000D+00  0.0000000000000D+00  0.0000000000000D+00
   270  2.6900000000000D+00  0.0000000000000D+00  0.0000000000000D+00
   271  2.7000000000000D+00  0.0000000000000D+00  0.0000000000000D+00
   272  2.7100000000000D+00  0.0000000000000D+00  0.0000000000000D+00
   273  2.7200000000000D+00  0.0000000000000D+00  0.0000000000000D+00
   274  2.7300000000000D+00  0.0000000000000D+00  0.0000000000000D+00
   275  2.7400000000000D+00  0.0000000000000D+00  0.0000000000000D+00
   276  2.7500000000000D+00  0.0000000000000D+00  0.0000000000000D+00
   277  2.7600000000000D+00  0.0000000000000D+00  0.0000000000000D+00
   278  2.7700000000000D+00  0.0000000000000D+00  0.0000000000000D+00
   279  2.7800000000000D+00  0.0000000000000D+00  0.0000000000000D+00
   280  2.7900000000000D+00  0.0000000000000D+00  0.0000000000000D+00
   281  2.8000000000000D+00  0.0000000000000D+00  0.0000000000000D+00
   282  2.8100000000000D+00  0.0000000000000D+00  0.0000000000000D+00
   283  2.8200000000000D+00  0.0000000000000D+00  0.0000000000000D+00
   284  2.8300000000000D+00  0.0000000000000D+00  0.0000000000000D+00
   285  2.8400000000000D+00  0.0000000000000D+00  0.0000000000000D+00
   286  2.8500000000000D+00  0.0000000000000D+00  0.0000000000000D+00
   287  2.8600000000000D+00  0.0000000000000D+00  0.0000000000000D+00
   288  2.8700000000000D+00  0.0000000000000D+00  0.0000000000000D+00
   289  2.8800000000000D+00  0.0000000000000D+00  0.0000000000000D+00
   290  2.8900000000000D+00  0.0000000000000D+00  0.0000000000000D+00
   291  2.9000000000000D+00  0.0000000000000D+00  0.0000000000000D+00
   292  2.9100000000000D+00  0.0000000000000D+00  0.0000000000000D+00
   293  2.9200000000000D+00  0.0000000000000D+00  0.0000000000000D+00
   294  2.9300000000000D+00  0.0000000000000D+00  0.0000000000000D+00
   295  2.9400000000000D+00  0.0000000000000D+00  0.0000000000000D+00
   296  2.9500000000000D+00  0.0000000000000D+00  0.0000000000000D+00
   297  2.9600000000000D+00  0.0000000000000D+00  0.0000000000000D+00
   298  2.9700000000000D+00  0.0000000000000D+00  0.0000000000000D+00
   299  2.9800000000000D+00  0.0000000000000D+00  0.0000000000000D+00
   300  2.9900000000000D+00  0.0000000000000D+00  0.0000000000000D+00
   301  3.0000000000000D+00  0.0000000000000D+00  0.0000000000000D+00
   302  3.0100000000000D+00  0.0000000000000D+00  0.0000000000000D+00
   303  3.0200000000000D+00  0.0000000000000D+00  0.0000000000000D+00
   304  3.0300000000000D+00  0.0000000000000D+00  0.0000000000000D+00
   305  3.0400000000000D+00  0.0000000000000D+00  0.0000000000000D+00
   306  3.0500000000000D+00  0.0000000000000D+00  0.0000000000000D+00
   307  3.0600000000000D+00  0.0000000000000D+00  0.0000000000000D+00
   308  3.0700000000000D+00  0.0000000000000D+00  0.0000000000000D+00
   309  3.0800000000000D+00  0.0000000000000D+00  0.0000000000000D+00
   310  3.0900000000000D+00  0.0000000000000D+00  0.0000000000000D+00
   311  3.1000000000000D+00  0.0000000000000D+00  0.0000000000000D+00
   312  3.1100000000000D+00  0.0000000000000D+00  0.0000000000000D+00
   313  3.1200000000000D+00  0.0000000000000D+00  0.0000000000000D+00
   314  3.1300000000000D+00  0.0000000000000D+00  0.0000000000000D+00
   315  3.1400000000000D+00  0.0000000000000D+00  0.0000000000000D+00
   316  3.1500000000000D+00  0.0000000000000D+00  0.0000000000000D+00
   317  3.1600000000000D+00  0.0000000000000D+00  0.0000000000000D+00
   318  3.1700000000000D+00  0.0000000000000D+00  0.0000000000000D+00
   319  3.1800000000000D+00  0.0000000000000D+00  0.0000000000000D+00
   320  3.1900000000000D+00  0.0000000000000D+00  0.0000000000000D+00
   321  3.2000000000000D+00  0.0000000000000D+00  0.0000000000000D+00
   322  3.2100000000000D+00  0.0000000000000D+00  0.0000000000000D+00
   323  3.2200000000000D+00  0.0000000000000D+00  0.0000000000000D+00
   324  3.2300000000000D+00  0.0000000000000D+00  0.0000000000000D+00
   325  3.2400000000000D+00  0.0000000000000D+00  0.0000000000000D+00
   326  3.2500000000000D+00  0.0000000000000D+00  0.0000000000000D+00
   327  3.2600000000000D+00  0.0000000000000D+00  0.0000000000000D+00
   328  3.2700000000000D+00  0.0000000000000D+00  0.0000000000000D+00
   329  3.2800000000000D+00  0.0000000000000D+00  0.0000000000000D+00
   330  3.2900000000000D+00  0.0000000000000D+00  0.0000000000000D+00
   331  3.3000000000000D+00  0.0000000000000D+00  0.0000000000000D+00
   332  3.3100000000000D+00  0.0000000000000D+00  0.0000000000000D+00
   333  3.3200000000000D+00  0.0000000000000D+00  0.0000000000000D+00
   334  3.3300000000000D+00  0.0000000000000D+00  0.0000000000000D+00
   335  3.3400000000000D+00  0.0000000000000D+00  0.0000000000000D+00
   336  3.3500000000000D+00  0.0000000000000D+00  0.0000000000000D+00
   337  3.3600000000000D+00  0.0000000000000D+00  0.0000000000000D+00
   338  3.3700000000000D+00  0.0000000000000D+00  0.0000000000000D+00
   339  3.3800000000000D+00  0.0000000000000D+00  0.0000000000000D+00
   340  3.3900000000000D+00  0.0000000000000D+00  0.0000000000000D+00
   341  3.4000000000000D+00  0.0000000000000D+00  0.0000000000000D+00
   342  3.4100000000000D+00  0.0000000000000D+00  0.0000000000000D+00
   343  3.4200000000000D+00  0.0000000000000D+00  0.0000000000000D+00
   344  3.4300000000000D+00  0.0000000000000D+00  0.0000000000000D+00
   345  3.4400000000000D+00  0.0000000000000D+00  0.0000000000000D+00
   346  3.4500000000000D+00  0.0000000000000D+00  0.0000000000000D+00
   347  3.4600000000000D+00  0.0000000000000D+00  0.0000000000000D+00
   348  3.4700000000000D+00  0.0000000000000D+00  0.0000000000000D+00
   349  3.4800000000000D+00  0.0000000000000D+00  0.0000000000000D+00
   350  3.4900000000000D+00  0.0000000000000D+00  0.0000000000000D+00
   351  3.5000000000000D+00  0.0000000000000D+00  0.0000000000000D+00
   352  3.5100000000000D+00  0.0000000000000D+00  0.0000000000000D+00
   353  3.5200000000000D+00  0.0000000000000D+00  0.0000000000000D+00
   354  3.5300000000000D+00  0.0000000000000D+00  0.0000000000000D+00
   355  3.5400000000000D+00  0.0000000000000D+00  0.0000000000000D+00
   356  3.5500000000000D+00  0.0000000000000D+00  0.0000000000000D+00
   357  3.5600000000000D+00  0.0000000000000D+00  0.0000000000000D+00
   358  3.5700000000000D+00  0.0000000000000D+00  0.0000000000000D+00
   359  3.5800000000000D+00  0.0000000000000D+00  0.0000000000000D+00
   360  3.5900000000000D+00  0.0000000000000D+00  0.0000000000000D+00
   361  3.6000000000000D+00  0.0000000000000D+00  0.0000000000000D+00
   362  3.6100000000000D+00  0.0000000000000D+00  0.0000000000000D+00
   363  3.6200000000000D+00  0.0000000000000D+00  0.0000000000000D+00
   364  3.6300000000000D+00  0.0000000000000D+00  0.0000000000000D+00
   365  3.6400000000000D+00  0.0000000000000D+00  0.0000000000000D+00
   366  3.6500000000000D+00  0.0000000000000D+00  0.0000000000000D+00
   367  3.6600000000000D+00  0.0000000000000D+00  0.0000000000000D+00
   368  3.6700000000000D+00  0.0000000000000D+00  0.0000000000000D+00
   369  3.6800000000000D+00  0.0000000000000D+00  0.0000000000000D+00
   370  3.6900000000000D+00  0.0000000000000D+00  0.0000000000000D+00
   371  3.7000000000000D+00  0.0000000000000D+00  0.0000000000000D+00
   372  3.7100000000000D+00  0.0000000000000D+00  0.0000000000000D+00
   373  3.7200000000000D+00  0.0000000000000D+00  0.0000000000000D+00
   374  3.7300000000000D+00  0.0000000000000D+00  0.0000000000000D+00
   375  3.7400000000000D+00  0.0000000000000D+00  0.0000000000000D+00
   376  3.7500000000000D+00  0.0000000000000D+00  0.0000000000000D+00
   377  3.7600000000000D+00  0.0000000000000D+00  0.0000000000000D+00
   378  3.7700000000000D+00  0.0000000000000D+00  0.0000000000000D+00
   379  3.7800000000000D+00  0.0000000000000D+00  0.0000000000000D+00
   380  3.7900000000000D+00  0.0000000000000D+00  0.0000000000000D+00
   381  3.8000000000000D+00  0.0000000000000D+00  0.0000000000000D+00
   382  3.8100000000000D+00  0.0000000000000D+00  0.0000000000000D+00
   383  3.8200000000000D+00  0.0000000000000D+00  0.0000000000000D+00
   384  3.8300000000000D+00  0.0000000000000D+00  0.0000000000000D+00
   385  3.8400000000000D+00  0.0000000000000D+00  0.0000000000000D+00
   386  3.8500000000000D+00  0.0000000000000D+00  0.0000000000000D+00
   387  3.8600000000000D+00  0.0000000000000D+00  0.0000000000000D+00
   388  3.8700000000000D+00  0.0000000000000D+00  0.0000000000000D+00
   389  3.8800000000000D+00  0.0000000000000D+00  0.0000000000000D+00
   390  3.8900000000000D+00  0.0000000000000D+00  0.0000000000000D+00
   391  3.9000000000000D+00  0.0000000000000D+00  0.0000000000000D+00
   392  3.9100000000000D+00  0.0000000000000D+00  0.0000000000000D+00
   393  3.9200000000000D+00  0.0000000000000D+00  0.0000000000000D+00
   394  3.9300000000000D+00  0.0000000000000D+00  0.0000000000000D+00
   395  3.9400000000000D+00  0.0000000000000D+00  0.0000000000000D+00
   396  3.9500000000000D+00  0.0000000000000D+00  0.0000000000000D+00
   397  3.9600000000000D+00  0.0000000000000D+00  0.0000000000000D+00
   398  3.9700000000000D+00  0.0000000000000D+00  0.0000000000000D+00
   399  3.9800000000000D+00  0.0000000000000D+00  0.0000000000000D+00
   400  3.9900000000000D+00  0.0000000000000D+00  0.0000000000000D+00
   401  4.0000000000000D+00  0.0000000000000D+00  0.0000000000000D+00
   402  4.0100000000000D+00  0.0000000000000D+00  0.0000000000000D+00
   403  4.0200000000000D+00  0.0000000000000D+00  0.0000000000000D+00
   404  4.0300000000000D+00  0.0000000000000D+00  0.0000000000000D+00
   405  4.0400000000000D+00  0.0000000000000D+00  0.0000000000000D+00
   406  4.0500000000000D+00  0.0000000000000D+00  0.0000000000000D+00
   407  4.0600000000000D+00  0.0000000000000D+00  0.0000000000000D+00
   408  4.0700000000000D+00  0.0000000000000D+00  0.0000000000000D+00
   409  4.0800000000000D+00  0.0000000000000D+00  0.0000000000000D+00
   410  4.0900000000000D+00  0.0000000000000D+00  0.0000000000000D+00
   411  4.1000000000000D+00  0.0000000000000D+00  0.0000000000000D+00
   412  4.1100000000000D+00  0.0000000000000D+00  0.0000000000000D+00
   413  4.1200000000000D+00  0.0000000000000D+00  0.0000000000000D+00
   414  4.1300000000000D+00  0.0000000000000D+00  0.0000000000000D+00
   415  4.1400000000000D+00  0.0000000000000D+00  0.0000000000000D+00
   416  4.1500000000000D+00  0.0000000000000D+00  0.0000000000000D+00
   417  4.1600000000000D+00  0.0000000000000D+00  0.0000000000000D+00
   418  4.1700000000000D+00  0.0000000000000D+00  0.0000000000000D+00
   419  4.1800000000000D+00  0.0000000000000D+00  0.0000000000000D+00
   420  4.1900000000000D+00  0.0000000000000D+00  0.0000000000000D+00
   421  4.2000000000000D+00  0.0000000000000D+00  0.0000000000000D+00
   422  4.2100000000000D+00  0.0000000000000D+00  0.0000000000000D+00