Zn    ONCVPSP-3.3.1  r_core=   1.96594   2.08676   2.08676
     30.0000     20.0000      210905    zatom,zion,pspd
     8 -116133   2     4   600     0    pspcod,pspxc,lmax,lloc,mmax,r2well
  5.99000000  0.00000000  0.00000000    rchrg fchrg qchrg
     2     2     2     0     0    nproj
     1     1           extension_switch
   0                        -3.7953869733746D+00 -2.8965342432583D-01
     1  0.0000000000000D+00 -7.4860673215937D-12 -1.9231023717925D-10
     2  1.0000000000000D-02  4.2244495966497D-02 -5.6594761057872D-03
     3  2.0000000000000D-02  8.4443899248491D-02 -1.1411929246454D-02
     4  3.0000000000000D-02  1.2655319397054D-01 -1.7349394436158D-02
     5  4.0000000000000D-02  1.6852751760100D-01 -2.3562029641976D-02
     6  5.0000000000000D-02  2.1032223694013D-01 -3.0137194697416D-02
     7  6.0000000000000D-02  2.5189302329283D-01 -3.7158551003727D-02
     8  7.0000000000000D-02  2.9319592656323D-01 -4.4705188721604D-02
     9  8.0000000000000D-02  3.3418744801559D-01 -5.2850787963550D-02
    10  9.0000000000000D-02  3.7482461145528D-01 -6.1662820259252D-02
    11  1.0000000000000D-01  4.1506503259459D-01 -7.1201796284549D-02
    12  1.1000000000000D-01  4.5486698638044D-01 -8.1520565520689D-02
    13  1.2000000000000D-01  4.9418947207520D-01 -9.2663673147037D-02
    14  1.3000000000000D-01  5.3299227589705D-01 -1.0466677906946D-01
    15  1.4000000000000D-01  5.7123603104295D-01 -1.1755614355139D-01
    16  1.5000000000000D-01  6.0888227493491D-01 -1.3134818344755D-01
    17  1.6000000000000D-01  6.4589350354894D-01 -1.4604910254551D-01
    18  1.7000000000000D-01  6.8223322270546D-01 -1.6165459899980D-01
    19  1.8000000000000D-01  7.1786599621996D-01 -1.7814965230277D-01
    20  1.9000000000000D-01  7.5275749083338D-01 -1.9550839167690D-01
    21  2.0000000000000D-01  7.8687451786233D-01 -2.1369404720147D-01
    22  2.1000000000000D-01  8.2018507153040D-01 -2.3265898440410D-01
    23  2.2000000000000D-01  8.5265836396256D-01 -2.5234482245994D-01
    24  2.3000000000000D-01  8.8426485684557D-01 -2.7268263555206D-01
    25  2.4000000000000D-01  9.1497628977727D-01 -2.9359323635955D-01
    26  2.5000000000000D-01  9.4476570534765D-01 -3.1498754005965D-01
    27  2.6000000000000D-01  9.7360747101356D-01 -3.3676700666042D-01
    28  2.7000000000000D-01  1.0014772978467D+00 -3.5882415892537D-01
    29  2.8000000000000D-01  1.0283522562520D+00 -3.8104317261443D-01
    30  2.9000000000000D-01  1.0542107887693D+00 -4.0330053525136D-01
    31  3.0000000000000D-01  1.0790327200853D+00 -4.2546576913834D-01
    32  3.1000000000000D-01  1.1027992643968D+00 -4.4740221387894D-01
    33  3.2000000000000D-01  1.1254930302768D+00 -4.6896786324320D-01
    34  3.3000000000000D-01  1.1470980232057D+00 -4.9001625081597D-01
    35  3.4000000000000D-01  1.1675996459374D+00 -5.1039737851634D-01
    36  3.5000000000000D-01  1.1869846968779D+00 -5.2995868176155D-01
    37  3.6000000000000D-01  1.2052413666553D+00 -5.4854602477863D-01
    38  3.7000000000000D-01  1.2223592330680D+00 -5.6600471934077D-01
    39  3.8000000000000D-01  1.2383292545925D+00 -5.8218056002520D-01
    40  3.9000000000000D-01  1.2531437626366D+00 -5.9692086895759D-01
    41  4.0000000000000D-01  1.2667964527166D+00 -6.1007554292360D-01
    42  4.1000000000000D-01  1.2792823747350D+00 -6.2149809569402D-01
    43  4.2000000000000D-01  1.2905979225272D+00 -6.3104668842391D-01
    44  4.3000000000000D-01  1.3007408228365D+00 -6.3858514105088D-01
    45  4.4000000000000D-01  1.3097101238685D+00 -6.4398391772972D-01
    46  4.5000000000000D-01  1.3175061835636D+00 -6.4712107950195D-01
    47  4.6000000000000D-01  1.3241306577107D+00 -6.4788319760675D-01
    48  4.7000000000000D-01  1.3295864880155D+00 -6.4616622109311D-01
    49  4.8000000000000D-01  1.3338778902164D+00 -6.4187629269065D-01
    50  4.9000000000000D-01  1.3370103423266D+00 -6.3493050723559D-01
    51  5.0000000000000D-01  1.3389905730635D+00 -6.2525760732714D-01
    52  5.1000000000000D-01  1.3398265505068D+00 -6.1279861130481D-01
    53  5.2000000000000D-01  1.3395274710093D+00 -5.9750736908699D-01
    54  5.3000000000000D-01  1.3381037483630D+00 -5.7935104189089D-01
    55  5.4000000000000D-01  1.3355670032064D+00 -5.5831050236186D-01
    56  5.5000000000000D-01  1.3319300526374D+00 -5.3438065217199D-01
    57  5.6000000000000D-01  1.3272068999770D+00 -5.0757065469921D-01
    58  5.7000000000000D-01  1.3214127246120D+00 -4.7790408096703D-01
    59  5.8000000000000D-01  1.3145638718246D+00 -4.4541896760517D-01
    60  5.9000000000000D-01  1.3066778425009D+00 -4.1016778618102D-01
    61  6.0000000000000D-01  1.2977732825928D+00 -3.7221732384425D-01
    62  6.1000000000000D-01  1.2878699721938D+00 -3.3164847582198D-01
    63  6.2000000000000D-01  1.2769888140742D+00 -2.8855595088890D-01
    64  6.3000000000000D-01  1.2651518215094D+00 -2.4304789152101D-01
    65  6.4000000000000D-01  1.2523821052245D+00 -1.9524541100808D-01
    66  6.5000000000000D-01  1.2387038592683D+00 -1.4528205035433D-01
    67  6.6000000000000D-01  1.2241423456251D+00 -9.3303158330320D-02
    68  6.7000000000000D-01  1.2087238773651D+00 -3.9465198546316D-02
    69  6.8000000000000D-01  1.1924758001332D+00  1.6065012098398D-02
    70  6.9000000000000D-01  1.1754264717750D+00  7.3111128785502D-02
    71  7.0000000000000D-01  1.1576052398993D+00  1.3148816274345D-01
    72  7.1000000000000D-01  1.1390424171829D+00  1.9100341820606D-01
    73  7.2000000000000D-01  1.1197692542271D+00  2.5145747641634D-01
    74  7.3000000000000D-01  1.0998179097848D+00  3.1264522042916D-01
    75  7.4000000000000D-01  1.0792214181891D+00  3.7435689420852D-01
    76  7.5000000000000D-01  1.0580136538262D+00  4.3637918930318D-01
    77  7.6000000000000D-01  1.0362292925112D+00  4.9849635221948D-01
    78  7.7000000000000D-01  1.0139037696421D+00  5.6049130549200D-01
    79  7.8000000000000D-01  9.9107323502888D-01  6.2214677538359D-01
    80  7.9000000000000D-01  9.6777450431368D-01  6.8324641912557D-01
    81  8.0000000000000D-01  9.4404500692218D-01  7.4357594463696D-01
    82  8.1000000000000D-01  9.1992273051120D-01  8.0292421573789D-01
    83  8.2000000000000D-01  8.9544616190345D-01  8.6108433599646D-01
    84  8.3000000000000D-01  8.7065422452772D-01  9.1785470451865D-01
    85  8.4000000000000D-01  8.4558621241119D-01  9.7304003720720D-01
    86  8.5000000000000D-01  8.2028172080000D-01  1.0264523472741D+00
    87  8.6000000000000D-01  7.9478057351370D-01  1.0779118790931D+00
    88  8.7000000000000D-01  7.6912274716954D-01  1.1272479898169D+00
    89  8.8000000000000D-01  7.4334829244283D-01  1.1742999735641D+00
    90  8.9000000000000D-01  7.1749725255940D-01  1.2189178233855D+00
    91  9.0000000000000D-01  6.9160957924628D-01  1.2609629266680D+00
    92  9.1000000000000D-01  6.6572504639526D-01  1.3003086900956D+00
    93  9.2000000000000D-01  6.3988316172255D-01  1.3368410907849D+00
    94  9.3000000000000D-01  6.1412307673419D-01  1.3704591507226D+00
    95  9.4000000000000D-01  5.8848349533273D-01  1.4010753321627D+00
    96  9.5000000000000D-01  5.6300258142432D-01  1.4286158521833D+00
    97  9.6000000000000D-01  5.3771786590713D-01  1.4530209151503D+00
    98  9.7000000000000D-01  5.1266615344232D-01  1.4742448624012D+00
    99  9.8000000000000D-01  4.8788342942548D-01  1.4922562389991D+00
   100  9.9000000000000D-01  4.6340476759213D-01  1.5070377779794D+00
   101  1.0000000000000D+00  4.3926423870253D-01  1.5185863030457D+00
   102  1.0100000000000D+00  4.1549482076099D-01  1.5269125512082D+00
   103  1.0200000000000D+00  3.9212831123050D-01  1.5320409173779D+00
   104  1.0300000000000D+00  3.6919524170764D-01  1.5340091234277D+00
   105  1.0400000000000D+00  3.4672479552171D-01  1.5328678147245D+00
   106  1.0500000000000D+00  3.2474472871991D-01  1.5286800875513D+00
   107  1.0600000000000D+00  3.0328129489297D-01  1.5215209513157D+00
   108  1.0700000000000D+00  2.8235917428598D-01  1.5114767297957D+00
   109  1.0800000000000D+00  2.6200140762630D-01  1.4986444060456D+00
   110  1.0900000000000D+00  2.4222933508175D-01  1.4831309159216D+00
   111  1.1000000000000D+00  2.2306254074688D-01  1.4650523954309D+00
   112  1.1100000000000D+00  2.0451880302687D-01  1.4445333874098D+00
   113  1.1200000000000D+00  1.8661405126644D-01  1.4217060131980D+00
   114  1.1300000000000D+00  1.6936232893804D-01  1.3967091151571D+00
   115  1.1400000000000D+00  1.5277576367762D-01  1.3696873759826D+00
   116  1.1500000000000D+00  1.3686454441705D-01  1.3407904208583D+00
   117  1.1600000000000D+00  1.2163690582737D-01  1.3101719085170D+00
   118  1.1700000000000D+00  1.0709912024344D-01  1.2779886172464D+00
   119  1.1800000000000D+00  9.3255497212653D-02  1.2443995318583D+00
   120  1.1900000000000D+00  8.0108390753178D-02  1.2095649375170D+00
   121  1.2000000000000D+00  6.7658214369527D-02  1.1736455261837D+00
   122  1.2100000000000D+00  5.5903463827255D-02  1.1368015212448D+00
   123  1.2200000000000D+00  4.4840747652762D-02  1.0991918257549D+00
   124  1.2300000000000D+00  3.4464825260417D-02  1.0609731993741D+00
   125  1.2400000000000D+00  2.4768652566306D-02  1.0222994687690D+00
   126  1.2500000000000D+00  1.5743434930172D-02  9.8332077618083D-01
   127  1.2600000000000D+00  7.3786871791148D-03  9.4418287020800D-01
   128  1.2700000000000D+00 -3.3769955932632D-04  9.0502644256515D-01
   129  1.2800000000000D+00 -7.4193845063484D-03  8.6598651447219D-01
   130  1.2900000000000D+00 -1.3881497737814D-02  8.2719187554363D-01
   131  1.3000000000000D+00 -1.9740554946985D-02  7.8876457767097D-01
   132  1.3100000000000D+00 -2.5014366869687D-02  7.5081948642239D-01
   133  1.3200000000000D+00 -2.9721943865539D-02  7.1346389140891D-01
   134  1.3300000000000D+00 -3.3883396152480D-02  6.7679717684861D-01
   135  1.3400000000000D+00 -3.7519830201848D-02  6.4091055360065D-01
   136  1.3500000000000D+00 -4.0653241878773D-02  6.0588685258330D-01
   137  1.3600000000000D+00 -4.3306406887400D-02  5.7180037977028D-01
   138  1.3700000000000D+00 -4.5502769118336D-02  5.3871683249883D-01
   139  1.3800000000000D+00 -4.7266327521617D-02  5.0669327572365D-01
   140  1.3900000000000D+00 -4.8621522111999D-02  4.7577817749907D-01
   141  1.4000000000000D+00 -4.9593119751502D-02  4.4601150172235D-01
   142  1.4100000000000D+00 -5.0206100326168D-02  4.1742485603052D-01
   143  1.4200000000000D+00 -5.0485543965515D-02  3.9004169300203D-01
   144  1.4300000000000D+00 -5.0456519910163D-02  3.6387756133661D-01
   145  1.4400000000000D+00 -5.0143977657366D-02  3.3894040467213D-01
   146  1.4500000000000D+00 -4.9572640987231D-02  3.1523090450840D-01
   147  1.4600000000000D+00 -4.8766905420251D-02  2.9274286385948D-01
   148  1.4700000000000D+00 -4.7750739734965D-02  2.7146362826726D-01
   149  1.4800000000000D+00 -4.6547591977670D-02  2.5137454003725D-01
   150  1.4900000000000D+00 -4.5180300585695D-02  2.3245142222403D-01
   151  1.5000000000000D+00 -4.3671010989904D-02  2.1466508805310D-01
   152  1.5100000000000D+00 -4.2041098192062D-02  1.9798187200984D-01
   153  1.5200000000000D+00 -4.0311095712935D-02  1.8236417833810D-01
   154  1.5300000000000D+00 -3.8500631183036D-02  1.6777104316391D-01
   155  1.5400000000000D+00 -3.6628369047733D-02  1.5415870586150D-01
   156  1.5500000000000D+00 -3.4711960391898D-02  1.4148118635156D-01
   157  1.5600000000000D+00 -3.2768000420901D-02  1.2969086366520D-01
   158  1.5700000000000D+00 -3.0811993394926D-02  1.1873905312230D-01
   159  1.5800000000000D+00 -2.8858325479867D-02  1.0857657749320D-01
   160  1.5900000000000D+00 -2.6920245253362D-02  9.9154329867298D-02
   161  1.6000000000000D+00 -2.5009852131503D-02  9.0423824146586D-02
   162  1.6100000000000D+00 -2.3138092465656D-02  8.2337730995889D-02
   163  1.6200000000000D+00 -2.1314763345718D-02  7.4850396064428D-02
   164  1.6300000000000D+00 -1.9548523994506D-02  6.7918344240235D-02
   165  1.6400000000000D+00 -1.7846913865479D-02  6.1500731438947D-02
   166  1.6500000000000D+00 -1.6216379744417D-02  5.5559870554358D-02
   167  1.6600000000000D+00 -1.4662304461141D-02  5.0061476739917D-02
   168  1.6700000000000D+00 -1.3189046893902D-02  4.4975120139973D-02
   169  1.6800000000000D+00 -1.1800000255202D-02  4.0275300888244D-02
   170  1.6900000000000D+00 -1.0497620807304D-02  3.5940676306787D-02
   171  1.7000000000000D+00 -9.2834493043746D-03  3.1952595014726D-02
   172  1.7100000000000D+00 -8.1581431818021D-03  2.8294032573773D-02
   173  1.7200000000000D+00 -7.1214995813351D-03  2.4947869242649D-02
   174  1.7300000000000D+00 -6.1725113360387D-03  2.1896642763754D-02
   175  1.7400000000000D+00 -5.3094448830152D-03  1.9123279540703D-02
   176  1.7500000000000D+00 -4.5299082383271D-03  1.6611129921348D-02
   177  1.7600000000000D+00 -3.8309205404484D-03  1.4343939845254D-02
   178  1.7700000000000D+00 -3.2089862239002D-03  1.2305974569787D-02
   179  1.7800000000000D+00 -2.6601686033445D-03  1.0482040236484D-02
   180  1.7900000000000D+00 -2.1801643109671D-03  8.8575187302092D-03
   181  1.8000000000000D+00 -1.7643772895486D-03  7.4183798694490D-03
   182  1.8100000000000D+00 -1.4079919199339D-03  6.1511798259523D-03
   183  1.8200000000000D+00 -1.1060445245064D-03  5.0430465891788D-03
   184  1.8300000000000D+00 -8.5349300235985D-04  4.0816548356376D-03
   185  1.8400000000000D+00 -6.4528352565504D-04  3.2551917086145D-03
   186  1.8500000000000D+00 -4.7641453503995D-04  2.5523148324074D-03
   187  1.8600000000000D+00 -3.4199658450088D-04  1.9621053923694D-03
   188  1.8700000000000D+00 -2.3730864829024D-04  1.4740161841789D-03
   189  1.8800000000000D+00 -1.5784944009655D-04  1.0778183286947D-03
   190  1.8900000000000D+00 -9.9384245956941D-05  7.6354604806499D-04
   191  1.9000000000000D+00 -5.7981511723338D-05  5.2146226458194D-04
   192  1.9100000000000D+00 -3.0060607288025D-05  3.4195765245612D-04
   193  1.9200000000000D+00 -1.2440483107129D-05  2.1540819917947D-04
   194  1.9300000000000D+00 -2.3696064093612D-06  1.3185711957384D-04
   195  1.9400000000000D+00  2.7882430108129D-06  8.3699063519245D-05
   196  1.9500000000000D+00  5.1935720813447D-06  6.3556288072318D-05
   197  1.9600000000000D+00  5.6869754338179D-06  5.5531858071209D-05
   198  1.9700000000000D+00  4.4160777396686D-06  4.2423486257881D-05
   199  1.9800000000000D+00  2.0077633044909D-06  1.9714184182964D-05
   200  1.9900000000000D+00 -5.2349814700332D-08 -4.8901727413676D-07
   201  2.0000000000000D+00 -5.4517069311292D-07 -5.1155744363465D-06
   202  2.0100000000000D+00 -1.8931330103081D-07 -1.7874211377551D-06
   203  2.0200000000000D+00  1.0743432288586D-07  9.3878195878944D-07
   204  2.0300000000000D+00  1.0046890558258D-07  8.7319288553250D-07
   205  2.0400000000000D+00 -5.2521859155174D-09 -5.0523673463940D-08
   206  2.0500000000000D+00 -1.4664252215827D-08 -1.4106353096838D-07
   207  2.0600000000000D+00 -3.5617893852868D-09 -3.4262816805073D-08
   208  2.0700000000000D+00  0.0000000000000D+00  0.0000000000000D+00
   209  2.0800000000000D+00  0.0000000000000D+00  0.0000000000000D+00
   210  2.0900000000000D+00  0.0000000000000D+00  0.0000000000000D+00
   211  2.1000000000000D+00  0.0000000000000D+00  0.0000000000000D+00
   212  2.1100000000000D+00  0.0000000000000D+00  0.0000000000000D+00
   213  2.1200000000000D+00  0.0000000000000D+00  0.0000000000000D+00
   214  2.1300000000000D+00  0.0000000000000D+00  0.0000000000000D+00
   215  2.1400000000000D+00  0.0000000000000D+00  0.0000000000000D+00
   216  2.1500000000000D+00  0.0000000000000D+00  0.0000000000000D+00
   217  2.1600000000000D+00  0.0000000000000D+00  0.0000000000000D+00
   218  2.1700000000000D+00  0.0000000000000D+00  0.0000000000000D+00
   219  2.1800000000000D+00  0.0000000000000D+00  0.0000000000000D+00
   220  2.1900000000000D+00  0.0000000000000D+00  0.0000000000000D+00
   221  2.2000000000000D+00  0.0000000000000D+00  0.0000000000000D+00
   222  2.2100000000000D+00  0.0000000000000D+00  0.0000000000000D+00
   223  2.2200000000000D+00  0.0000000000000D+00  0.0000000000000D+00
   224  2.2300000000000D+00  0.0000000000000D+00  0.0000000000000D+00
   225  2.2400000000000D+00  0.0000000000000D+00  0.0000000000000D+00
   226  2.2500000000000D+00  0.0000000000000D+00  0.0000000000000D+00
   227  2.2600000000000D+00  0.0000000000000D+00  0.0000000000000D+00
   228  2.2700000000000D+00  0.0000000000000D+00  0.0000000000000D+00
   229  2.2800000000000D+00  0.0000000000000D+00  0.0000000000000D+00
   230  2.2900000000000D+00  0.0000000000000D+00  0.0000000000000D+00
   231  2.3000000000000D+00  0.0000000000000D+00  0.0000000000000D+00
   232  2.3100000000000D+00  0.0000000000000D+00  0.0000000000000D+00
   233  2.3200000000000D+00  0.0000000000000D+00  0.0000000000000D+00
   234  2.3300000000000D+00  0.0000000000000D+00  0.0000000000000D+00
   235  2.3400000000000D+00  0.0000000000000D+00  0.0000000000000D+00
   236  2.3500000000000D+00  0.0000000000000D+00  0.0000000000000D+00
   237  2.3600000000000D+00  0.0000000000000D+00  0.0000000000000D+00
   238  2.3700000000000D+00  0.0000000000000D+00  0.0000000000000D+00
   239  2.3800000000000D+00  0.0000000000000D+00  0.0000000000000D+00
   240  2.3900000000000D+00  0.0000000000000D+00  0.0000000000000D+00
   241  2.4000000000000D+00  0.0000000000000D+00  0.0000000000000D+00
   242  2.4100000000000D+00  0.0000000000000D+00  0.0000000000000D+00
   243  2.4200000000000D+00  0.0000000000000D+00  0.0000000000000D+00
   244  2.4300000000000D+00  0.0000000000000D+00  0.0000000000000D+00
   245  2.4400000000000D+00  0.0000000000000D+00  0.0000000000000D+00
   246  2.4500000000000D+00  0.0000000000000D+00  0.0000000000000D+00
   247  2.4600000000000D+00  0.0000000000000D+00  0.0000000000000D+00
   248  2.4700000000000D+00  0.0000000000000D+00  0.0000000000000D+00
   249  2.4800000000000D+00  0.0000000000000D+00  0.0000000000000D+00
   250  2.4900000000000D+00  0.0000000000000D+00  0.0000000000000D+00
   251  2.5000000000000D+00  0.0000000000000D+00  0.0000000000000D+00
   252  2.5100000000000D+00  0.0000000000000D+00  0.0000000000000D+00
   253  2.5200000000000D+00  0.0000000000000D+00  0.0000000000000D+00
   254  2.5300000000000D+00  0.0000000000000D+00  0.0000000000000D+00
   255  2.5400000000000D+00  0.0000000000000D+00  0.0000000000000D+00
   256  2.5500000000000D+00  0.0000000000000D+00  0.0000000000000D+00
   257  2.5600000000000D+00  0.0000000000000D+00  0.0000000000000D+00
   258  2.5700000000000D+00  0.0000000000000D+00  0.0000000000000D+00
   259  2.5800000000000D+00  0.0000000000000D+00  0.0000000000000D+00
   260  2.5900000000000D+00  0.0000000000000D+00  0.0000000000000D+00
   261  2.6000000000000D+00  0.0000000000000D+00  0.0000000000000D+00
   262  2.6100000000000D+00  0.0000000000000D+00  0.0000000000000D+00
   263  2.6200000000000D+00  0.0000000000000D+00  0.0000000000000D+00
   264  2.6300000000000D+00  0.0000000000000D+00  0.0000000000000D+00
   265  2.6400000000000D+00  0.0000000000000D+00  0.0000000000000D+00
   266  2.6500000000000D+00  0.0000000000000D+00  0.0000000000000D+00
   267  2.6600000000000D+00  0.0000000000000D+00  0.0000000000000D+00
   268  2.6700000000000D+00  0.0000000000000D+00  0.0000000000000D+00
   269  2.6800000000000D+00  0.0000000000000D+00  0.0000000000000D+00
   270  2.6900000000000D+00  0.0000000000000D+00  0.0000000000000D+00
   271  2.7000000000000D+00  0.0000000000000D+00  0.0000000000000D+00
   272  2.7100000000000D+00  0.0000000000000D+00  0.0000000000000D+00
   273  2.7200000000000D+00  0.0000000000000D+00  0.0000000000000D+00
   274  2.7300000000000D+00  0.0000000000000D+00  0.0000000000000D+00
   275  2.7400000000000D+00  0.0000000000000D+00  0.0000000000000D+00
   276  2.7500000000000D+00  0.0000000000000D+00  0.0000000000000D+00
   277  2.7600000000000D+00  0.0000000000000D+00  0.0000000000000D+00
   278  2.7700000000000D+00  0.0000000000000D+00  0.0000000000000D+00
   279  2.7800000000000D+00  0.0000000000000D+00  0.0000000000000D+00
   280  2.7900000000000D+00  0.0000000000000D+00  0.0000000000000D+00
   281  2.8000000000000D+00  0.0000000000000D+00  0.0000000000000D+00
   282  2.8100000000000D+00  0.0000000000000D+00  0.0000000000000D+00
   283  2.8200000000000D+00  0.0000000000000D+00  0.0000000000000D+00
   284  2.8300000000000D+00  0.0000000000000D+00  0.0000000000000D+00
   285  2.8400000000000D+00  0.0000000000000D+00  0.0000000000000D+00
   286  2.8500000000000D+00  0.0000000000000D+00  0.0000000000000D+00
   287  2.8600000000000D+00  0.0000000000000D+00  0.0000000000000D+00
   288  2.8700000000000D+00  0.0000000000000D+00  0.0000000000000D+00
   289  2.8800000000000D+00  0.0000000000000D+00  0.0000000000000D+00
   290  2.8900000000000D+00  0.0000000000000D+00  0.0000000000000D+00
   291  2.9000000000000D+00  0.0000000000000D+00  0.0000000000000D+00
   292  2.9100000000000D+00  0.0000000000000D+00  0.0000000000000D+00
   293  2.9200000000000D+00  0.0000000000000D+00  0.0000000000000D+00
   294  2.9300000000000D+00  0.0000000000000D+00  0.0000000000000D+00
   295  2.9400000000000D+00  0.0000000000000D+00  0.0000000000000D+00
   296  2.9500000000000D+00  0.0000000000000D+00  0.0000000000000D+00
   297  2.9600000000000D+00  0.0000000000000D+00  0.0000000000000D+00
   298  2.9700000000000D+00  0.0000000000000D+00  0.0000000000000D+00
   299  2.9800000000000D+00  0.0000000000000D+00  0.0000000000000D+00
   300  2.9900000000000D+00  0.0000000000000D+00  0.0000000000000D+00
   301  3.0000000000000D+00  0.0000000000000D+00  0.0000000000000D+00
   302  3.0100000000000D+00  0.0000000000000D+00  0.0000000000000D+00
   303  3.0200000000000D+00  0.0000000000000D+00  0.0000000000000D+00
   304  3.0300000000000D+00  0.0000000000000D+00  0.0000000000000D+00
   305  3.0400000000000D+00  0.0000000000000D+00  0.0000000000000D+00
   306  3.0500000000000D+00  0.0000000000000D+00  0.0000000000000D+00
   307  3.0600000000000D+00  0.0000000000000D+00  0.0000000000000D+00
   308  3.0700000000000D+00  0.0000000000000D+00  0.0000000000000D+00
   309  3.0800000000000D+00  0.0000000000000D+00  0.0000000000000D+00
   310  3.0900000000000D+00  0.0000000000000D+00  0.0000000000000D+00
   311  3.1000000000000D+00  0.0000000000000D+00  0.0000000000000D+00
   312  3.1100000000000D+00  0.0000000000000D+00  0.0000000000000D+00
   313  3.1200000000000D+00  0.0000000000000D+00  0.0000000000000D+00
   314  3.1300000000000D+00  0.0000000000000D+00  0.0000000000000D+00
   315  3.1400000000000D+00  0.0000000000000D+00  0.0000000000000D+00
   316  3.1500000000000D+00  0.0000000000000D+00  0.0000000000000D+00
   317  3.1600000000000D+00  0.0000000000000D+00  0.0000000000000D+00
   318  3.1700000000000D+00  0.0000000000000D+00  0.0000000000000D+00
   319  3.1800000000000D+00  0.0000000000000D+00  0.0000000000000D+00
   320  3.1900000000000D+00  0.0000000000000D+00  0.0000000000000D+00
   321  3.2000000000000D+00  0.0000000000000D+00  0.0000000000000D+00
   322  3.2100000000000D+00  0.0000000000000D+00  0.0000000000000D+00
   323  3.2200000000000D+00  0.0000000000000D+00  0.0000000000000D+00
   324  3.2300000000000D+00  0.0000000000000D+00  0.0000000000000D+00
   325  3.2400000000000D+00  0.0000000000000D+00  0.0000000000000D+00
   326  3.2500000000000D+00  0.0000000000000D+00  0.0000000000000D+00
   327  3.2600000000000D+00  0.0000000000000D+00  0.0000000000000D+00
   328  3.2700000000000D+00  0.0000000000000D+00  0.0000000000000D+00
   329  3.2800000000000D+00  0.0000000000000D+00  0.0000000000000D+00
   330  3.2900000000000D+00  0.0000000000000D+00  0.0000000000000D+00
   331  3.3000000000000D+00  0.0000000000000D+00  0.0000000000000D+00
   332  3.3100000000000D+00  0.0000000000000D+00  0.0000000000000D+00
   333  3.3200000000000D+00  0.0000000000000D+00  0.0000000000000D+00
   334  3.3300000000000D+00  0.0000000000000D+00  0.0000000000000D+00
   335  3.3400000000000D+00  0.0000000000000D+00  0.0000000000000D+00
   336  3.3500000000000D+00  0.0000000000000D+00  0.0000000000000D+00
   337  3.3600000000000D+00  0.0000000000000D+00  0.0000000000000D+00
   338  3.3700000000000D+00  0.0000000000000D+00  0.0000000000000D+00
   339  3.3800000000000D+00  0.0000000000000D+00  0.0000000000000D+00
   340  3.3900000000000D+00  0.0000000000000D+00  0.0000000000000D+00
   341  3.4000000000000D+00  0.0000000000000D+00  0.0000000000000D+00
   342  3.4100000000000D+00  0.0000000000000D+00  0.0000000000000D+00
   343  3.4200000000000D+00  0.0000000000000D+00  0.0000000000000D+00
   344  3.4300000000000D+00  0.0000000000000D+00  0.0000000000000D+00
   345  3.4400000000000D+00  0.0000000000000D+00  0.0000000000000D+00
   346  3.4500000000000D+00  0.0000000000000D+00  0.0000000000000D+00
   347  3.4600000000000D+00  0.0000000000000D+00  0.0000000000000D+00
   348  3.4700000000000D+00  0.0000000000000D+00  0.0000000000000D+00
   349  3.4800000000000D+00  0.0000000000000D+00  0.0000000000000D+00
   350  3.4900000000000D+00  0.0000000000000D+00  0.0000000000000D+00
   351  3.5000000000000D+00  0.0000000000000D+00  0.0000000000000D+00
   352  3.5100000000000D+00  0.0000000000000D+00  0.0000000000000D+00
   353  3.5200000000000D+00  0.0000000000000D+00  0.0000000000000D+00
   354  3.5300000000000D+00  0.0000000000000D+00  0.0000000000000D+00
   355  3.5400000000000D+00  0.0000000000000D+00  0.0000000000000D+00
   356  3.5500000000000D+00  0.0000000000000D+00  0.0000000000000D+00
   357  3.5600000000000D+00  0.0000000000000D+00  0.0000000000000D+00
   358  3.5700000000000D+00  0.0000000000000D+00  0.0000000000000D+00
   359  3.5800000000000D+00  0.0000000000000D+00  0.0000000000000D+00
   360  3.5900000000000D+00  0.0000000000000D+00  0.0000000000000D+00
   361  3.6000000000000D+00  0.0000000000000D+00  0.0000000000000D+00
   362  3.6100000000000D+00  0.0000000000000D+00  0.0000000000000D+00
   363  3.6200000000000D+00  0.0000000000000D+00  0.0000000000000D+00
   364  3.6300000000000D+00  0.0000000000000D+00  0.0000000000000D+00
   365  3.6400000000000D+00  0.0000000000000D+00  0.0000000000000D+00
   366  3.6500000000000D+00  0.0000000000000D+00  0.0000000000000D+00
   367  3.6600000000000D+00  0.0000000000000D+00  0.0000000000000D+00
   368  3.6700000000000D+00  0.0000000000000D+00  0.0000000000000D+00
   369  3.6800000000000D+00  0.0000000000000D+00  0.0000000000000D+00
   370  3.6900000000000D+00  0.0000000000000D+00  0.0000000000000D+00
   371  3.7000000000000D+00  0.0000000000000D+00  0.0000000000000D+00
   372  3.7100000000000D+00  0.0000000000000D+00  0.0000000000000D+00
   373  3.7200000000000D+00  0.0000000000000D+00  0.0000000000000D+00
   374  3.7300000000000D+00  0.0000000000000D+00  0.0000000000000D+00
   375  3.7400000000000D+00  0.0000000000000D+00  0.0000000000000D+00
   376  3.7500000000000D+00  0.0000000000000D+00  0.0000000000000D+00
   377  3.7600000000000D+00  0.0000000000000D+00  0.0000000000000D+00
   378  3.7700000000000D+00  0.0000000000000D+00  0.0000000000000D+00
   379  3.7800000000000D+00  0.0000000000000D+00  0.0000000000000D+00
   380  3.7900000000000D+00  0.0000000000000D+00  0.0000000000000D+00
   381  3.8000000000000D+00  0.0000000000000D+00  0.0000000000000D+00
   382  3.8100000000000D+00  0.0000000000000D+00  0.0000000000000D+00
   383  3.8200000000000D+00  0.0000000000000D+00  0.0000000000000D+00
   384  3.8300000000000D+00  0.0000000000000D+00  0.0000000000000D+00
   385  3.8400000000000D+00  0.0000000000000D+00  0.0000000000000D+00
   386  3.8500000000000D+00  0.0000000000000D+00  0.0000000000000D+00
   387  3.8600000000000D+00  0.0000000000000D+00  0.0000000000000D+00
   388  3.8700000000000D+00  0.0000000000000D+00  0.0000000000000D+00
   389  3.8800000000000D+00  0.0000000000000D+00  0.0000000000000D+00
   390  3.8900000000000D+00  0.0000000000000D+00  0.0000000000000D+00
   391  3.9000000000000D+00  0.0000000000000D+00  0.0000000000000D+00
   392  3.9100000000000D+00  0.0000000000000D+00  0.0000000000000D+00
   393  3.9200000000000D+00  0.0000000000000D+00  0.0000000000000D+00
   394  3.9300000000000D+00  0.0000000000000D+00  0.0000000000000D+00
   395  3.9400000000000D+00  0.0000000000000D+00  0.0000000000000D+00
   396  3.9500000000000D+00  0.0000000000000D+00  0.0000000000000D+00
   397  3.9600000000000D+00  0.0000000000000D+00  0.0000000000000D+00
   398  3.9700000000000D+00  0.0000000000000D+00  0.0000000000000D+00
   399  3.9800000000000D+00  0.0000000000000D+00  0.0000000000000D+00
   400  3.9900000000000D+00  0.0000000000000D+00  0.0000000000000D+00
   401  4.0000000000000D+00  0.0000000000000D+00  0.0000000000000D+00
   402  4.0100000000000D+00  0.0000000000000D+00  0.0000000000000D+00
   403  4.0200000000000D+00  0.0000000000000D+00  0.0000000000000D+00
   404  4.0300000000000D+00  0.0000000000000D+00  0.0000000000000D+00
   405  4.0400000000000D+00  0.0000000000000D+00  0.0000000000000D+00
   406  4.0500000000000D+00  0.0000000000000D+00  0.0000000000000D+00
   407  4.0600000000000D+00  0.0000000000000D+00  0.0000000000000D+00
   408  4.0700000000000D+00  0.0000000000000D+00  0.0000000000000D+00
   409  4.0800000000000D+00  0.0000000000000D+00  0.0000000000000D+00
   410  4.0900000000000D+00  0.0000000000000D+00  0.0000000000000D+00
   411  4.1000000000000D+00  0.0000000000000D+00  0.0000000000000D+00
   412  4.1100000000000D+00  0.0000000000000D+00  0.0000000000000D+00
   413  4.1200000000000D+00  0.0000000000000D+00  0.0000000000000D+00
   414  4.1300000000000D+00  0.0000000000000D+00  0.0000000000000D+00
   415  4.1400000000000D+00  0.0000000000000D+00  0.0000000000000D+00
   416  4.1500000000000D+00  0.0000000000000D+00  0.0000000000000D+00
   417  4.1600000000000D+00  0.0000000000000D+00  0.0000000000000D+00
   418  4.1700000000000D+00  0.0000000000000D+00  0.0000000000000D+00
   419  4.1800000000000D+00  0.0000000000000D+00  0.0000000000000D+00
   420  4.1900000000000D+00  0.0000000000000D+00  0.0000000000000D+00
   421  4.2000000000000D+00  0.0000000000000D+00  0.0000000000000D+00
   422  4.2100000000000D+00  0.0000000000000D+00  0.0000000000000D+00