Zr    ONCVPSP-3.3.1  r_core=   2.49215   1.91692   2.18569
     40.0000     12.0000      210905    zatom,zion,pspd
     8 -116133   2     4   600     0    pspcod,pspxc,lmax,lloc,mmax,r2well
  5.99000000  0.00000000  0.00000000    rchrg fchrg qchrg
     2     2     2     0     0    nproj
     1     1           extension_switch
   0                         5.4923026079171D+00  1.0549486186270D+00
     1  0.0000000000000D+00  3.3531510901241D-12 -8.4409007561348D-12
     2  1.0000000000000D-02  4.3053465122872D-02 -7.9724000964743D-03
     3  2.0000000000000D-02  8.6067140968615D-02 -1.5931909212024D-02
     4  3.0000000000000D-02  1.2900125225839D-01 -2.3865574708209D-02
     5  4.0000000000000D-02  1.7181605186041D-01 -3.1760321113972D-02
     6  5.0000000000000D-02  2.1447183523870D-01 -3.9602889913232D-02
     7  6.0000000000000D-02  2.5692895534992D-01 -4.7379780771194D-02
     8  7.0000000000000D-02  2.9914783813341D-01 -5.5077194668995D-02
     9  8.0000000000000D-02  3.4108899873660D-01 -6.2680979407893D-02
    10  9.0000000000000D-02  3.8271305861353D-01 -7.0176577933544D-02
    11  1.0000000000000D-01  4.2398076362928D-01 -7.7548979918419D-02
    12  1.1000000000000D-01  4.6485300329725D-01 -8.4782677025714D-02
    13  1.2000000000000D-01  5.0529083126980D-01 -9.1861622261559D-02
    14  1.3000000000000D-01  5.4525548719519D-01 -9.8769193803774D-02
    15  1.4000000000000D-01  5.8470842004603D-01 -1.0548816367507D-01
    16  1.5000000000000D-01  6.2361131301538D-01 -1.1200067160637D-01
    17  1.6000000000000D-01  6.6192611006739D-01 -1.1828820441183D-01
    18  1.7000000000000D-01  6.9961504421922D-01 -1.2433158117184D-01
    19  1.8000000000000D-01  7.3664066762048D-01 -1.3011094449252D-01
    20  1.9000000000000D-01  7.7296588348488D-01 -1.3560575808199D-01
    21  2.0000000000000D-01  8.0855397991732D-01 -1.4079481085308D-01
    22  2.1000000000000D-01  8.4336866566727D-01 -1.4565622773086D-01
    23  2.2000000000000D-01  8.7737410782654D-01 -1.5016748731047D-01
    24  2.3000000000000D-01  9.1053497147676D-01 -1.5430544647701D-01
    25  2.4000000000000D-01  9.4281646127799D-01 -1.5804637206411D-01
    26  2.5000000000000D-01  9.7418436497672D-01 -1.6136597959230D-01
    27  2.6000000000000D-01  1.0046050987973D+00 -1.6423947909165D-01
    28  2.7000000000000D-01  1.0340457546667D+00 -1.6664162797601D-01
    29  2.8000000000000D-01  1.0624741492084D+00 -1.6854679089858D-01
    30  2.9000000000000D-01  1.0898588744272D+00 -1.6992900648068D-01
    31  3.0000000000000D-01  1.1161693499922D+00 -1.7076206076727D-01
    32  3.1000000000000D-01  1.1413758770099D+00 -1.7101956722492D-01
    33  3.2000000000000D-01  1.1654496931688D+00 -1.7067505305961D-01
    34  3.3000000000000D-01  1.1883630291188D+00 -1.6970205159415D-01
    35  3.4000000000000D-01  1.2100891659372D+00 -1.6807420040794D-01
    36  3.5000000000000D-01  1.2306024935211D+00 -1.6576534490487D-01
    37  3.6000000000000D-01  1.2498785697306D+00 -1.6274964693956D-01
    38  3.7000000000000D-01  1.2678941800961D+00 -1.5900169809740D-01
    39  3.8000000000000D-01  1.2846273978927D+00 -1.5449663718996D-01
    40  3.9000000000000D-01  1.3000576443698D+00 -1.4921027149532D-01
    41  4.0000000000000D-01  1.3141657489176D+00 -1.4311920124178D-01
    42  4.1000000000000D-01  1.3269340089405D+00 -1.3620094680459D-01
    43  4.2000000000000D-01  1.3383462491970D+00 -1.2843407805795D-01
    44  4.3000000000000D-01  1.3483878803615D+00 -1.1979834529911D-01
    45  4.4000000000000D-01  1.3570459565524D+00 -1.1027481113886D-01
    46  4.5000000000000D-01  1.3643092315673D+00 -9.9845982731328D-02
    47  4.6000000000000D-01  1.3701682135589D+00 -8.8495943698528D-02
    48  4.7000000000000D-01  1.3746152178849D+00 -7.6210485088827D-02
    49  4.8000000000000D-01  1.3776444178567D+00 -6.2977234696323D-02
    50  4.9000000000000D-01  1.3792518931157D+00 -4.8785784057790D-02
    51  5.0000000000000D-01  1.3794356753626D+00 -3.3627812437316D-02
    52  5.1000000000000D-01  1.3781957911648D+00 -1.7497207104800D-02
    53  5.2000000000000D-01  1.3755343015736D+00 -3.9017921408266D-04
    54  5.3000000000000D-01  1.3714553382813D+00  1.7694625410805D-02
    55  5.4000000000000D-01  1.3659651360564D+00  3.6756021266456D-02
    56  5.5000000000000D-01  1.3590720611993D+00  5.6790184613882D-02
    57  5.6000000000000D-01  1.3507866357709D+00  7.7790562037797D-02
    58  5.7000000000000D-01  1.3411215573518D+00  9.9747786767711D-02
    59  5.8000000000000D-01  1.3300917141030D+00  1.2264960338691D-01
    60  5.9000000000000D-01  1.3177141949103D+00  1.4648080153206D-01
    61  6.0000000000000D-01  1.3040082944039D+00  1.7122315915921D-01
    62  6.1000000000000D-01  1.2889955126652D+00  1.9685539592174D-01
    63  6.2000000000000D-01  1.2726995494419D+00  2.2335313717206D-01
    64  6.3000000000000D-01  1.2551462927133D+00  2.5068888906203D-01
    65  6.4000000000000D-01  1.2363638014635D+00  2.7883202517721D-01
    66  6.5000000000000D-01  1.2163822825406D+00  3.0774878509691D-01
    67  6.6000000000000D-01  1.1952340614976D+00  3.3740228522602D-01
    68  6.7000000000000D-01  1.1729535473356D+00  3.6775254219640D-01
    69  6.8000000000000D-01  1.1495771910872D+00  3.9875650908406D-01
    70  6.9000000000000D-01  1.1251434382048D+00  4.3036812463511D-01
    71  7.0000000000000D-01  1.0996926747391D+00  4.6253837563792D-01
    72  7.1000000000000D-01  1.0732671673192D+00  4.9521537252140D-01
    73  7.2000000000000D-01  1.0459109969695D+00  5.2834443819997D-01
    74  7.3000000000000D-01  1.0176699868233D+00  5.6186821012570D-01
    75  7.4000000000000D-01  9.8859162382024D-01  5.9572675544587D-01
    76  7.5000000000000D-01  9.5872497449880D-01  6.2985769910214D-01
    77  7.6000000000000D-01  9.2812059502173D-01  6.6419636464421D-01
    78  7.7000000000000D-01  8.9683043559809D-01  6.9867592746754D-01
    79  7.8000000000000D-01  8.6490773949150D-01  7.3322758012134D-01
    80  7.9000000000000D-01  8.3240693682949D-01  7.6778070927034D-01
    81  8.0000000000000D-01  7.9938353345432D-01  8.0226308383135D-01
    82  8.1000000000000D-01  7.6589399508002D-01  8.3660105374447D-01
    83  8.2000000000000D-01  7.3199562704499D-01  8.7071975877909D-01
    84  8.3000000000000D-01  6.9774644997226D-01  9.0454334671621D-01
    85  8.4000000000000D-01  6.6320507167259D-01  9.3799520019269D-01
    86  8.5000000000000D-01  6.2843055564668D-01  9.7099817143885D-01
    87  8.6000000000000D-01  5.9348228656359D-01  1.0034748240894D+00
    88  8.7000000000000D-01  5.5841983311119D-01  1.0353476811995D+00
    89  8.8000000000000D-01  5.2330280863298D-01  1.0665394785521D+00
    90  8.9000000000000D-01  4.8819072998153D-01  1.0969734223009D+00
    91  9.0000000000000D-01  4.5314287503398D-01  1.1265734499554D+00
    92  9.1000000000000D-01  4.1821813932850D-01  1.1552644936807D+00
    93  9.2000000000000D-01  3.8347489229181D-01  1.1829727448539D+00
    94  9.3000000000000D-01  3.4897083353811D-01  1.2096259187935D+00
    95  9.4000000000000D-01  3.1476284972730D-01  1.2351535185598D+00
    96  9.5000000000000D-01  2.8090687247672D-01  1.2594870967040D+00
    97  9.6000000000000D-01  2.4745773782452D-01  1.2825605138368D+00
    98  9.7000000000000D-01  2.1446904774454D-01  1.3043101928785D+00
    99  9.8000000000000D-01  1.8199303421290D-01  1.3246753678530D+00
   100  9.9000000000000D-01  1.5008042632403D-01  1.3435983260927D+00
   101  1.0000000000000D+00  1.1878032094959D-01  1.3610246427301D+00
   102  1.0100000000000D+00  8.8140057427334D-02  1.3769034063672D+00
   103  1.0200000000000D+00  5.8205096758528D-02  1.3911874348352D+00
   104  1.0300000000000D+00  2.9018905781680D-02  1.4038334799808D+00
   105  1.0400000000000D+00  6.2284677766153D-04  1.4148024204478D+00
   106  1.0500000000000D+00 -2.6943927053510D-02  1.4240594414586D+00
   107  1.0600000000000D+00 -5.3644569820156D-02  1.4315742006373D+00
   108  1.0700000000000D+00 -7.9444634466395D-02  1.4373209789687D+00
   109  1.0800000000000D+00 -1.0431215721480D-01  1.4412788160309D+00
   110  1.0900000000000D+00 -1.2821773456293D-01  1.4434316286998D+00
   111  1.1000000000000D+00 -1.5113459249538D-01  1.4437683125778D+00
   112  1.1100000000000D+00 -1.7303864759837D-01  1.4422828254632D+00
   113  1.1200000000000D+00 -1.9390855979290D-01  1.4389742522458D+00
   114  1.1300000000000D+00 -2.1372577642921D-01  1.4338468506826D+00
   115  1.1400000000000D+00 -2.3247456751734D-01  1.4269100775813D+00
   116  1.1500000000000D+00 -2.5014205189348D-01  1.4181785949862D+00
   117  1.1600000000000D+00 -2.6671821416216D-01  1.4076722560544D+00
   118  1.1700000000000D+00 -2.8219591228201D-01  1.3954160703806D+00
   119  1.1800000000000D+00 -2.9657087569667D-01  1.3814401486109D+00
   120  1.1900000000000D+00 -3.0984169394380D-01  1.3657796262606D+00
   121  1.2000000000000D+00 -3.2200979571566D-01  1.3484745667526D+00
   122  1.2100000000000D+00 -3.3307941837934D-01  1.3295698437728D+00
   123  1.2200000000000D+00 -3.4305756798442D-01  1.3091150030884D+00
   124  1.2300000000000D+00 -3.5195396984061D-01  1.2871641041083D+00
   125  1.2400000000000D+00 -3.5978100977440D-01  1.2637755415238D+00
   126  1.2500000000000D+00 -3.6655366619804D-01  1.2390118474294D+00
   127  1.2600000000000D+00 -3.7228943316771D-01  1.2129394744260D+00
   128  1.2700000000000D+00 -3.7700823464482D-01  1.1856285602954D+00
   129  1.2800000000000D+00 -3.8073233018879D-01  1.1571526748680D+00
   130  1.2900000000000D+00 -3.8348621234988D-01  1.1275885498023D+00
   131  1.3000000000000D+00 -3.8529649607057D-01  1.0970157920841D+00
   132  1.3100000000000D+00 -3.8619180040680D-01  1.0655165820591D+00
   133  1.3200000000000D+00 -3.8620262292362D-01  1.0331753569144D+00
   134  1.3300000000000D+00 -3.8536120715274D-01  1.0000784805934D+00
   135  1.3400000000000D+00 -3.8370140349079D-01  9.6631390110999D-01
   136  1.3500000000000D+00 -3.8125852397109D-01  9.3197079634971D-01
   137  1.3600000000000D+00 -3.7806919135144D-01  8.9713920945550D-01
   138  1.3700000000000D+00 -3.7417118295395D-01  8.6190967489238D-01
   139  1.3800000000000D+00 -3.6960326975064D-01  8.2637283639427D-01
   140  1.3900000000000D+00 -3.6440505116299D-01  7.9061905794290D-01
   141  1.4000000000000D+00 -3.5861678607208D-01  7.5473802899074D-01
   142  1.4100000000000D+00 -3.5227922054730D-01  7.1881836513796D-01
   143  1.4200000000000D+00 -3.4543341279157D-01  6.8294720547525D-01
   144  1.4300000000000D+00 -3.3812055582464D-01  6.4720980781662D-01
   145  1.4400000000000D+00 -3.3038179840729D-01  6.1168914301189D-01
   146  1.4500000000000D+00 -3.2225806473084D-01  5.7646548957791D-01
   147  1.4600000000000D+00 -3.1378987336101D-01  5.4161602975403D-01
   148  1.4700000000000D+00 -3.0501715596493D-01  5.0721444823608D-01
   149  1.4800000000000D+00 -2.9597907557718D-01  4.7333053154612D-01
   150  1.4900000000000D+00 -2.8671384950297D-01  4.4002978898863D-01
   151  1.5000000000000D+00 -2.7725855907003D-01  4.0737301906635D-01
   152  1.5100000000000D+00 -2.6764900561330D-01  3.7541606584366D-01
   153  1.5200000000000D+00 -2.5791950157233D-01  3.4420931685865D-01
   154  1.5300000000000D+00 -2.4810261743932D-01  3.1379697584961D-01
   155  1.5400000000000D+00 -2.3822933620364D-01  2.8421812363621D-01
   156  1.5500000000000D+00 -2.2832916093141D-01  2.5550752329230D-01
   157  1.5600000000000D+00 -2.1843034033008D-01  2.2769675049965D-01
   158  1.5700000000000D+00 -2.0856001019981D-01  2.0081495182871D-01
   159  1.5800000000000D+00 -1.9874405713461D-01  1.7488834224817D-01
   160  1.5900000000000D+00 -1.8900708619942D-01  1.4994014921123D-01
   161  1.6000000000000D+00 -1.7937240753542D-01  1.2599064831973D-01
   162  1.6100000000000D+00 -1.6986200590369D-01  1.0305710519066D-01
   163  1.6200000000000D+00 -1.6049652317685D-01  8.1153768220768D-02
   164  1.6300000000000D+00 -1.5129524279302D-01  6.0291860925050D-02
   165  1.6400000000000D+00 -1.4227607940158D-01  4.0479588650698D-02
   166  1.6500000000000D+00 -1.3345557323291D-01  2.1722157332864D-02
   167  1.6600000000000D+00 -1.2484888898573D-01  4.0218036563103D-03
   168  1.6700000000000D+00 -1.1646981919210D-01 -1.2622163654946D-02
   169  1.6800000000000D+00 -1.0833079183611D-01 -2.8213312054047D-02
   170  1.6900000000000D+00 -1.0044288249438D-01 -4.2758022006349D-02
   171  1.7000000000000D+00 -9.2815830521014D-02 -5.6265413971499D-02
   172  1.7100000000000D+00 -8.5458059247213D-02 -6.8747265778374D-02
   173  1.7200000000000D+00 -7.8376700037253D-02 -8.0217920694961D-02
   174  1.7300000000000D+00 -7.1577619912596D-02 -9.0694187278631D-02
   175  1.7400000000000D+00 -6.5065452505099D-02 -1.0019523164919D-01
   176  1.7500000000000D+00 -5.8843632739774D-02 -1.0874246076250D-01
   177  1.7600000000000D+00 -5.2914434605646D-02 -1.1635939874548D-01
   178  1.7700000000000D+00 -4.7279011718689D-02 -1.2307155738070D-01
   179  1.7800000000000D+00 -4.1937440583662D-02 -1.2890630083176D-01
   180  1.7900000000000D+00 -3.6888766303704D-02 -1.3389270541672D-01
   181  1.8000000000000D+00 -3.2131050449203D-02 -1.3806141527709D-01
   182  1.8100000000000D+00 -2.7661421035106D-02 -1.4144449402276D-01
   183  1.8200000000000D+00 -2.3476124355156D-02 -1.4407527308137D-01
   184  1.8300000000000D+00 -1.9570578281506D-02 -1.4598819796793D-01
   185  1.8400000000000D+00 -1.5939426814034D-02 -1.4721867311524D-01
   186  1.8500000000000D+00 -1.2576595696694D-02 -1.4780290569866D-01
   187  1.8600000000000D+00 -9.4753488411882D-03 -1.4777774927359D-01
   188  1.8700000000000D+00 -6.6283453240988D-03 -1.4718054780964D-01
   189  1.8800000000000D+00 -4.0276966513124D-03 -1.4604898110625D-01
   190  1.8900000000000D+00 -1.6650241636351D-03 -1.4442091179935D-01
   191  1.9000000000000D+00  4.6848378611568D-04 -1.4233423513369D-01
   192  1.9100000000000D+00  2.3820149791141D-03 -1.3982673163734D-01
   193  1.9200000000000D+00  4.0850771343036D-03 -1.3693592370768D-01
   194  1.9300000000000D+00  5.5874425329780D-03 -1.3369893651269D-01
   195  1.9400000000000D+00  6.8990936409253D-03 -1.3015236365354D-01
   196  1.9500000000000D+00  8.0301700861635D-03 -1.2633213866048D-01
   197  1.9600000000000D+00  8.9909168848165D-03 -1.2227341181608D-01
   198  1.9700000000000D+00  9.7916345215619D-03 -1.1801043419138D-01
   199  1.9800000000000D+00  1.0442630597117D-02 -1.1357644781229D-01
   200  1.9900000000000D+00  1.0954173593225D-02 -1.0900358363350D-01
   201  2.0000000000000D+00  1.1336448678832D-02 -1.0432276694958D-01
   202  2.0100000000000D+00  1.1599515696138D-02 -9.9563630569606D-02
   203  2.0200000000000D+00  1.1753269716742D-02 -9.4754436890163D-02
   204  2.0300000000000D+00  1.1807403753610D-02 -8.9922007433354D-02
   205  2.0400000000000D+00  1.1771374419284D-02 -8.5091662238455D-02
   206  2.0500000000000D+00  1.1654369951706D-02 -8.0287167175579D-02
   207  2.0600000000000D+00  1.1465281097819D-02 -7.5530690605536D-02
   208  2.0700000000000D+00  1.1212674876681D-02 -7.0842769344343D-02
   209  2.0800000000000D+00  1.0904770860443D-02 -6.6242282709775D-02
   210  2.0900000000000D+00  1.0549420748603D-02 -6.1746436922111D-02
   211  2.1000000000000D+00  1.0154090395969D-02 -5.7370757191135D-02
   212  2.1100000000000D+00  9.7258449376223D-03 -5.3129089333706D-02
   213  2.1200000000000D+00  9.2713367803276D-03 -4.9033610119303D-02
   214  2.1300000000000D+00  8.7967961010289D-03 -4.5094845165857D-02
   215  2.1400000000000D+00  8.3080245671917D-03 -4.1321696395160D-02
   216  2.1500000000000D+00  7.8103913271731D-03 -3.7721476136498D-02
   217  2.1600000000000D+00  7.3088318374799D-03 -3.4299949423915D-02
   218  2.1700000000000D+00  6.8078493042924D-03 -3.1061383724172D-02
   219  2.1800000000000D+00  6.3115181808783D-03 -2.8008604391437D-02
   220  2.1900000000000D+00  5.8234904691773D-03 -2.5143057837794D-02
   221  2.2000000000000D+00  5.3470038449255D-03 -2.2464879553462D-02
   222  2.2100000000000D+00  4.8848919143386D-03 -1.9972967704136D-02
   223  2.2200000000000D+00  4.4395965411717D-03 -1.7665061991553D-02
   224  2.2300000000000D+00  4.0131816223751D-03 -1.5537826003332D-02
   225  2.2400000000000D+00  3.6073486997237D-03 -1.3586933874745D-02
   226  2.2500000000000D+00  3.2234538844704D-03 -1.1807159789373D-02
   227  2.2600000000000D+00  2.8625259243413D-03 -1.0192469758134D-02
   228  2.2700000000000D+00  2.5252854694648D-03 -8.7361155159680D-03
   229  2.2800000000000D+00  2.2121650951439D-03 -7.4307294744935D-03
   230  2.2900000000000D+00  1.9233300108260D-03 -6.2684202332160D-03
   231  2.3000000000000D+00  1.6586992334370D-03 -5.2408678868808D-03
   232  2.3100000000000D+00  1.4179671317102D-03 -4.3394190677694D-03
   233  2.3200000000000D+00  1.2006249468899D-03 -3.5551801192796D-03
   234  2.3300000000000D+00  1.0059822161649D-03 -2.8791083234539D-03
   235  2.3400000000000D+00  8.3318820531431D-04 -2.3021016297182D-03
   236  2.3500000000000D+00  6.8125243804228D-04 -1.8150836197020D-03
   237  2.3600000000000D+00  5.4906490825483D-04 -1.4090859042371D-03
   238  2.3700000000000D+00  4.3541566287363D-04 -1.0753268478055D-03
   239  2.3800000000000D+00  3.3901291035996D-04 -8.0528379773674D-04
   240  2.3900000000000D+00  2.5850056409340D-04 -5.9076193204657D-04
   241  2.4000000000000D+00  1.9247449230769D-04 -4.2395728218403D-04
   242  2.4100000000000D+00  1.3950204021511D-04 -2.9754695986306D-04
   243  2.4200000000000D+00  9.8120478602054D-05 -2.0463516785820D-04
   244  2.4300000000000D+00  6.6854727495637D-05 -1.3883780543417D-04
   245  2.4400000000000D+00  4.4147448832010D-05 -9.4116483203615D-05
   246  2.4500000000000D+00  2.8689722160686D-05 -6.5856505495613D-05
   247  2.4600000000000D+00  1.9195292749048D-05 -5.0109688370699D-05
   248  2.4700000000000D+00  1.4625903827802D-05 -4.4108944542630D-05
   249  2.4800000000000D+00  1.2746345629585D-05 -4.2060614839625D-05
   250  2.4900000000000D+00  1.1406834598097D-05 -3.8689236551894D-05
   251  2.5000000000000D+00  8.3857729345202D-06 -2.8594211940132D-05
   252  2.5100000000000D+00  4.3804331057923D-06 -1.4902249766570D-05
   253  2.5200000000000D+00  6.3299609648431D-07 -2.1405646350485D-06
   254  2.5300000000000D+00 -9.8430288388485D-07  3.4278147141728D-06
   255  2.5400000000000D+00 -9.9497964794995D-07  3.4680186589236D-06
   256  2.5500000000000D+00 -2.1337749888466D-07  7.4390647261829D-07
   257  2.5600000000000D+00  1.9440046141092D-07 -6.8554373591914D-07
   258  2.5700000000000D+00  2.2957956149612D-07 -8.1109365672723D-07
   259  2.5800000000000D+00  6.5241294313294D-08 -2.3085146469555D-07
   260  2.5900000000000D+00 -2.2379037994522D-08  7.5942323520883D-08
   261  2.6000000000000D+00 -3.0390680187987D-08  1.0312949410161D-07
   262  2.6100000000000D+00 -1.1468190834143D-08  3.8916822909855D-08
   263  2.6200000000000D+00  0.0000000000000D+00  0.0000000000000D+00
   264  2.6300000000000D+00  0.0000000000000D+00  0.0000000000000D+00
   265  2.6400000000000D+00  0.0000000000000D+00  0.0000000000000D+00
   266  2.6500000000000D+00  0.0000000000000D+00  0.0000000000000D+00
   267  2.6600000000000D+00  0.0000000000000D+00  0.0000000000000D+00
   268  2.6700000000000D+00  0.0000000000000D+00  0.0000000000000D+00
   269  2.6800000000000D+00  0.0000000000000D+00  0.0000000000000D+00
   270  2.6900000000000D+00  0.0000000000000D+00  0.0000000000000D+00
   271  2.7000000000000D+00  0.0000000000000D+00  0.0000000000000D+00
   272  2.7100000000000D+00  0.0000000000000D+00  0.0000000000000D+00
   273  2.7200000000000D+00  0.0000000000000D+00  0.0000000000000D+00
   274  2.7300000000000D+00  0.0000000000000D+00  0.0000000000000D+00
   275  2.7400000000000D+00  0.0000000000000D+00  0.0000000000000D+00
   276  2.7500000000000D+00  0.0000000000000D+00  0.0000000000000D+00
   277  2.7600000000000D+00  0.0000000000000D+00  0.0000000000000D+00
   278  2.7700000000000D+00  0.0000000000000D+00  0.0000000000000D+00
   279  2.7800000000000D+00  0.0000000000000D+00  0.0000000000000D+00
   280  2.7900000000000D+00  0.0000000000000D+00  0.0000000000000D+00
   281  2.8000000000000D+00  0.0000000000000D+00  0.0000000000000D+00
   282  2.8100000000000D+00  0.0000000000000D+00  0.0000000000000D+00
   283  2.8200000000000D+00  0.0000000000000D+00  0.0000000000000D+00
   284  2.8300000000000D+00  0.0000000000000D+00  0.0000000000000D+00
   285  2.8400000000000D+00  0.0000000000000D+00  0.0000000000000D+00
   286  2.8500000000000D+00  0.0000000000000D+00  0.0000000000000D+00
   287  2.8600000000000D+00  0.0000000000000D+00  0.0000000000000D+00
   288  2.8700000000000D+00  0.0000000000000D+00  0.0000000000000D+00
   289  2.8800000000000D+00  0.0000000000000D+00  0.0000000000000D+00
   290  2.8900000000000D+00  0.0000000000000D+00  0.0000000000000D+00
   291  2.9000000000000D+00  0.0000000000000D+00  0.0000000000000D+00
   292  2.9100000000000D+00  0.0000000000000D+00  0.0000000000000D+00
   293  2.9200000000000D+00  0.0000000000000D+00  0.0000000000000D+00
   294  2.9300000000000D+00  0.0000000000000D+00  0.0000000000000D+00
   295  2.9400000000000D+00  0.0000000000000D+00  0.0000000000000D+00
   296  2.9500000000000D+00  0.0000000000000D+00  0.0000000000000D+00
   297  2.9600000000000D+00  0.0000000000000D+00  0.0000000000000D+00
   298  2.9700000000000D+00  0.0000000000000D+00  0.0000000000000D+00
   299  2.9800000000000D+00  0.0000000000000D+00  0.0000000000000D+00
   300  2.9900000000000D+00  0.0000000000000D+00  0.0000000000000D+00
   301  3.0000000000000D+00  0.0000000000000D+00  0.0000000000000D+00
   302  3.0100000000000D+00  0.0000000000000D+00  0.0000000000000D+00
   303  3.0200000000000D+00  0.0000000000000D+00  0.0000000000000D+00
   304  3.0300000000000D+00  0.0000000000000D+00  0.0000000000000D+00
   305  3.0400000000000D+00  0.0000000000000D+00  0.0000000000000D+00
   306  3.0500000000000D+00  0.0000000000000D+00  0.0000000000000D+00
   307  3.0600000000000D+00  0.0000000000000D+00  0.0000000000000D+00
   308  3.0700000000000D+00  0.0000000000000D+00  0.0000000000000D+00
   309  3.0800000000000D+00  0.0000000000000D+00  0.0000000000000D+00
   310  3.0900000000000D+00  0.0000000000000D+00  0.0000000000000D+00
   311  3.1000000000000D+00  0.0000000000000D+00  0.0000000000000D+00
   312  3.1100000000000D+00  0.0000000000000D+00  0.0000000000000D+00
   313  3.1200000000000D+00  0.0000000000000D+00  0.0000000000000D+00
   314  3.1300000000000D+00  0.0000000000000D+00  0.0000000000000D+00
   315  3.1400000000000D+00  0.0000000000000D+00  0.0000000000000D+00
   316  3.1500000000000D+00  0.0000000000000D+00  0.0000000000000D+00
   317  3.1600000000000D+00  0.0000000000000D+00  0.0000000000000D+00
   318  3.1700000000000D+00  0.0000000000000D+00  0.0000000000000D+00
   319  3.1800000000000D+00  0.0000000000000D+00  0.0000000000000D+00
   320  3.1900000000000D+00  0.0000000000000D+00  0.0000000000000D+00
   321  3.2000000000000D+00  0.0000000000000D+00  0.0000000000000D+00
   322  3.2100000000000D+00  0.0000000000000D+00  0.0000000000000D+00
   323  3.2200000000000D+00  0.0000000000000D+00  0.0000000000000D+00
   324  3.2300000000000D+00  0.0000000000000D+00  0.0000000000000D+00
   325  3.2400000000000D+00  0.0000000000000D+00  0.0000000000000D+00
   326  3.2500000000000D+00  0.0000000000000D+00  0.0000000000000D+00
   327  3.2600000000000D+00  0.0000000000000D+00  0.0000000000000D+00
   328  3.2700000000000D+00  0.0000000000000D+00  0.0000000000000D+00
   329  3.2800000000000D+00  0.0000000000000D+00  0.0000000000000D+00
   330  3.2900000000000D+00  0.0000000000000D+00  0.0000000000000D+00
   331  3.3000000000000D+00  0.0000000000000D+00  0.0000000000000D+00
   332  3.3100000000000D+00  0.0000000000000D+00  0.0000000000000D+00
   333  3.3200000000000D+00  0.0000000000000D+00  0.0000000000000D+00
   334  3.3300000000000D+00  0.0000000000000D+00  0.0000000000000D+00
   335  3.3400000000000D+00  0.0000000000000D+00  0.0000000000000D+00
   336  3.3500000000000D+00  0.0000000000000D+00  0.0000000000000D+00
   337  3.3600000000000D+00  0.0000000000000D+00  0.0000000000000D+00
   338  3.3700000000000D+00  0.0000000000000D+00  0.0000000000000D+00
   339  3.3800000000000D+00  0.0000000000000D+00  0.0000000000000D+00
   340  3.3900000000000D+00  0.0000000000000D+00  0.0000000000000D+00
   341  3.4000000000000D+00  0.0000000000000D+00  0.0000000000000D+00
   342  3.4100000000000D+00  0.0000000000000D+00  0.0000000000000D+00
   343  3.4200000000000D+00  0.0000000000000D+00  0.0000000000000D+00
   344  3.4300000000000D+00  0.0000000000000D+00  0.0000000000000D+00
   345  3.4400000000000D+00  0.0000000000000D+00  0.0000000000000D+00
   346  3.4500000000000D+00  0.0000000000000D+00  0.0000000000000D+00
   347  3.4600000000000D+00  0.0000000000000D+00  0.0000000000000D+00
   348  3.4700000000000D+00  0.0000000000000D+00  0.0000000000000D+00
   349  3.4800000000000D+00  0.0000000000000D+00  0.0000000000000D+00
   350  3.4900000000000D+00  0.0000000000000D+00  0.0000000000000D+00
   351  3.5000000000000D+00  0.0000000000000D+00  0.0000000000000D+00
   352  3.5100000000000D+00  0.0000000000000D+00  0.0000000000000D+00
   353  3.5200000000000D+00  0.0000000000000D+00  0.0000000000000D+00
   354  3.5300000000000D+00  0.0000000000000D+00  0.0000000000000D+00
   355  3.5400000000000D+00  0.0000000000000D+00  0.0000000000000D+00
   356  3.5500000000000D+00  0.0000000000000D+00  0.0000000000000D+00
   357  3.5600000000000D+00  0.0000000000000D+00  0.0000000000000D+00
   358  3.5700000000000D+00  0.0000000000000D+00  0.0000000000000D+00
   359  3.5800000000000D+00  0.0000000000000D+00  0.0000000000000D+00
   360  3.5900000000000D+00  0.0000000000000D+00  0.0000000000000D+00
   361  3.6000000000000D+00  0.0000000000000D+00  0.0000000000000D+00
   362  3.6100000000000D+00  0.0000000000000D+00  0.0000000000000D+00
   363  3.6200000000000D+00  0.0000000000000D+00  0.0000000000000D+00
   364  3.6300000000000D+00  0.0000000000000D+00  0.0000000000000D+00
   365  3.6400000000000D+00  0.0000000000000D+00  0.0000000000000D+00
   366  3.6500000000000D+00  0.0000000000000D+00  0.0000000000000D+00
   367  3.6600000000000D+00  0.0000000000000D+00  0.0000000000000D+00
   368  3.6700000000000D+00  0.0000000000000D+00  0.0000000000000D+00
   369  3.6800000000000D+00  0.0000000000000D+00  0.0000000000000D+00
   370  3.6900000000000D+00  0.0000000000000D+00  0.0000000000000D+00
   371  3.7000000000000D+00  0.0000000000000D+00  0.0000000000000D+00
   372  3.7100000000000D+00  0.0000000000000D+00  0.0000000000000D+00
   373  3.7200000000000D+00  0.0000000000000D+00  0.0000000000000D+00
   374  3.7300000000000D+00  0.0000000000000D+00  0.0000000000000D+00
   375  3.7400000000000D+00  0.0000000000000D+00  0.0000000000000D+00
   376  3.7500000000000D+00  0.0000000000000D+00  0.0000000000000D+00
   377  3.7600000000000D+00  0.0000000000000D+00  0.0000000000000D+00
   378  3.7700000000000D+00  0.0000000000000D+00  0.0000000000000D+00
   379  3.7800000000000D+00  0.0000000000000D+00  0.0000000000000D+00
   380  3.7900000000000D+00  0.0000000000000D+00  0.0000000000000D+00
   381  3.8000000000000D+00  0.0000000000000D+00  0.0000000000000D+00
   382  3.8100000000000D+00  0.0000000000000D+00  0.0000000000000D+00
   383  3.8200000000000D+00  0.0000000000000D+00  0.0000000000000D+00
   384  3.8300000000000D+00  0.0000000000000D+00  0.0000000000000D+00
   385  3.8400000000000D+00  0.0000000000000D+00  0.0000000000000D+00
   386  3.8500000000000D+00  0.0000000000000D+00  0.0000000000000D+00
   387  3.8600000000000D+00  0.0000000000000D+00  0.0000000000000D+00
   388  3.8700000000000D+00  0.0000000000000D+00  0.0000000000000D+00
   389  3.8800000000000D+00  0.0000000000000D+00  0.0000000000000D+00
   390  3.8900000000000D+00  0.0000000000000D+00  0.0000000000000D+00
   391  3.9000000000000D+00  0.0000000000000D+00  0.0000000000000D+00
   392  3.9100000000000D+00  0.0000000000000D+00  0.0000000000000D+00
   393  3.9200000000000D+00  0.0000000000000D+00  0.0000000000000D+00
   394  3.9300000000000D+00  0.0000000000000D+00  0.0000000000000D+00
   395  3.9400000000000D+00  0.0000000000000D+00  0.0000000000000D+00
   396  3.9500000000000D+00  0.0000000000000D+00  0.0000000000000D+00
   397  3.9600000000000D+00  0.0000000000000D+00  0.0000000000000D+00
   398  3.9700000000000D+00  0.0000000000000D+00  0.0000000000000D+00
   399  3.9800000000000D+00  0.0000000000000D+00  0.0000000000000D+00
   400  3.9900000000000D+00  0.0000000000000D+00  0.0000000000000D+00
   401  4.0000000000000D+00  0.0000000000000D+00  0.0000000000000D+00
   402  4.0100000000000D+00  0.0000000000000D+00  0.0000000000000D+00
   403  4.0200000000000D+00  0.0000000000000D+00  0.0000000000000D+00
   404  4.0300000000000D+00  0.0000000000000D+00  0.0000000000000D+00
   405  4.0400000000000D+00  0.0000000000000D+00  0.0000000000000D+00
   406  4.0500000000000D+00  0.0000000000000D+00  0.0000000000000D+00
   407  4.0600000000000D+00  0.0000000000000D+00  0.0000000000000D+00
   408  4.0700000000000D+00  0.0000000000000D+00  0.0000000000000D+00
   409  4.0800000000000D+00  0.0000000000000D+00  0.0000000000000D+00
   410  4.0900000000000D+00  0.0000000000000D+00  0.0000000000000D+00
   411  4.1000000000000D+00  0.0000000000000D+00  0.0000000000000D+00
   412  4.1100000000000D+00  0.0000000000000D+00  0.0000000000000D+00
   413  4.1200000000000D+00  0.0000000000000D+00  0.0000000000000D+00
   414  4.1300000000000D+00  0.0000000000000D+00  0.0000000000000D+00
   415  4.1400000000000D+00  0.0000000000000D+00  0.0000000000000D+00
   416  4.1500000000000D+00  0.0000000000000D+00  0.0000000000000D+00
   417  4.1600000000000D+00  0.0000000000000D+00  0.0000000000000D+00
   418  4.1700000000000D+00  0.0000000000000D+00  0.0000000000000D+00
   419  4.1800000000000D+00  0.0000000000000D+00  0.0000000000000D+00
   420  4.1900000000000D+00  0.0000000000000D+00  0.0000000000000D+00
   421  4.2000000000000D+00  0.0000000000000D+00  0.0000000000000D+00
   422  4.2100000000000D+00  0.0000000000000D+00  0.0000000000000D+00