<UPF version="2.0.1">
  <PP_INFO>

 This pseudopotential file has been produced using the code
 ONCVPSP  (Optimized Norm-Conservinng Vanderbilt PSeudopotential)
 fully-relativistic version 3.3.1 12/12/2017 by D. R. Hamann
 The code is available through a link at URL www.mat-simresearch.com.
 Documentation with the package provides a full discription of the
 input data below.


 While it is not required under the terms of the GNU GPL, it is
 suggested that you cite D. R. Hamann, Phys. Rev. B 88, 085117 (2013)
 in any publication using these pseudopotentials.

    <PP_INPUTFILE>
# ATOM AND REFERENCE CONFIGURATION
# atsym  z   nc   nv     iexc    psfile
  Ar 18.00    3    2 -116133      upf
#
#   n    l    f        energy (Ha)
    1    0    2.00
    2    0    2.00
    2    1    6.00
    3    0    2.00
    3    1    6.00
#
# PSEUDOPOTENTIAL AND OPTIMIZATION
# lmax
    2
#
#   l,   rc,     ep,   ncon, nbas, qcut
    0   1.55000  -0.88930    4    8   8.20000
    1   1.55000  -0.37388    4    8   8.20000
    2   1.55000   0.10000    4    8   8.20000
#
# LOCAL POTENTIAL
# lloc, lpopt,  rc(5),   dvloc0
    4    5   1.50000      0.00000
#
# VANDERBILT-KLEINMAN-BYLANDER PROJECTORs
# l, nproj, debl
    0    2   1.50000
    1    2   1.49784
    2    2   1.00000
#
# MODEL CORE CHARGE
# icmod, fcfact, rcfact
    3   7.00000   1.25000
#
# LOG DERIVATIVE ANALYSIS
# epsh1, epsh2, depsh
  -12.00   12.00    0.02
#
# OUTPUT GRID
# rlmax, drl
    4.00    0.01
#
# TEST CONFIGURATIONS
# ncnf
    0
# nvcnf
#   n    l    f
    </PP_INPUTFILE>
  </PP_INFO>
  <!--                               -->
  <!-- END OF HUMAN READABLE SECTION -->
  <!--                               -->
    <PP_HEADER
       generated="Generated using ONCVPSP code by D. R. Hamann"
       author="anonymous"
       date="210905"
       comment=""
       element="Ar"
       pseudo_type="NC"
       relativistic="full"
       is_ultrasoft="F"
       is_paw="F"
       is_coulomb="F"
       has_so="T"
       has_wfc="F"
       has_gipaw="F"
       core_correction="T"
       functional="PBESOL"
       z_valence="    8.00"
       total_psenergy="  -4.22686445201E+01"
       rho_cutoff="   9.37000000000E+00"
       l_max="2"
       l_local="-1"
       mesh_size="   938"
       number_of_wfc="3"
       number_of_proj="10"/>
 <PP_MESH>
   <PP_R type="real"  size=" 938" columns="8">
    0.0000    0.0100    0.0200    0.0300    0.0400    0.0500    0.0600    0.0700
    0.0800    0.0900    0.1000    0.1100    0.1200    0.1300    0.1400    0.1500
    0.1600    0.1700    0.1800    0.1900    0.2000    0.2100    0.2200    0.2300
    0.2400    0.2500    0.2600    0.2700    0.2800    0.2900    0.3000    0.3100
    0.3200    0.3300    0.3400    0.3500    0.3600    0.3700    0.3800    0.3900
    0.4000    0.4100    0.4200    0.4300    0.4400    0.4500    0.4600    0.4700
    0.4800    0.4900    0.5000    0.5100    0.5200    0.5300    0.5400    0.5500
    0.5600    0.5700    0.5800    0.5900    0.6000    0.6100    0.6200    0.6300
    0.6400    0.6500    0.6600    0.6700    0.6800    0.6900    0.7000    0.7100
    0.7200    0.7300    0.7400    0.7500    0.7600    0.7700    0.7800    0.7900
    0.8000    0.8100    0.8200    0.8300    0.8400    0.8500    0.8600    0.8700
    0.8800    0.8900    0.9000    0.9100    0.9200    0.9300    0.9400    0.9500
    0.9600    0.9700    0.9800    0.9900    1.0000    1.0100    1.0200    1.0300
    1.0400    1.0500    1.0600    1.0700    1.0800    1.0900    1.1000    1.1100
    1.1200    1.1300    1.1400    1.1500    1.1600    1.1700    1.1800    1.1900
    1.2000    1.2100    1.2200    1.2300    1.2400    1.2500    1.2600    1.2700
    1.2800    1.2900    1.3000    1.3100    1.3200    1.3300    1.3400    1.3500
    1.3600    1.3700    1.3800    1.3900    1.4000    1.4100    1.4200    1.4300
    1.4400    1.4500    1.4600    1.4700    1.4800    1.4900    1.5000    1.5100
    1.5200    1.5300    1.5400    1.5500    1.5600    1.5700    1.5800    1.5900
    1.6000    1.6100    1.6200    1.6300    1.6400    1.6500    1.6600    1.6700
    1.6800    1.6900    1.7000    1.7100    1.7200    1.7300    1.7400    1.7500
    1.7600    1.7700    1.7800    1.7900    1.8000    1.8100    1.8200    1.8300
    1.8400    1.8500    1.8600    1.8700    1.8800    1.8900    1.9000    1.9100
    1.9200    1.9300    1.9400    1.9500    1.9600    1.9700    1.9800    1.9900
    2.0000    2.0100    2.0200    2.0300    2.0400    2.0500    2.0600    2.0700
    2.0800    2.0900    2.1000    2.1100    2.1200    2.1300    2.1400    2.1500
    2.1600    2.1700    2.1800    2.1900    2.2000    2.2100    2.2200    2.2300
    2.2400    2.2500    2.2600    2.2700    2.2800    2.2900    2.3000    2.3100
    2.3200    2.3300    2.3400    2.3500    2.3600    2.3700    2.3800    2.3900
    2.4000    2.4100    2.4200    2.4300    2.4400    2.4500    2.4600    2.4700
    2.4800    2.4900    2.5000    2.5100    2.5200    2.5300    2.5400    2.5500
    2.5600    2.5700    2.5800    2.5900    2.6000    2.6100    2.6200    2.6300
    2.6400    2.6500    2.6600    2.6700    2.6800    2.6900    2.7000    2.7100
    2.7200    2.7300    2.7400    2.7500    2.7600    2.7700    2.7800    2.7900
    2.8000    2.8100    2.8200    2.8300    2.8400    2.8500    2.8600    2.8700
    2.8800    2.8900    2.9000    2.9100    2.9200    2.9300    2.9400    2.9500
    2.9600    2.9700    2.9800    2.9900    3.0000    3.0100    3.0200    3.0300
    3.0400    3.0500    3.0600    3.0700    3.0800    3.0900    3.1000    3.1100
    3.1200    3.1300    3.1400    3.1500    3.1600    3.1700    3.1800    3.1900
    3.2000    3.2100    3.2200    3.2300    3.2400    3.2500    3.2600    3.2700
    3.2800    3.2900    3.3000    3.3100    3.3200    3.3300    3.3400    3.3500
    3.3600    3.3700    3.3800    3.3900    3.4000    3.4100    3.4200    3.4300
    3.4400    3.4500    3.4600    3.4700    3.4800    3.4900    3.5000    3.5100
    3.5200    3.5300    3.5400    3.5500    3.5600    3.5700    3.5800    3.5900
    3.6000    3.6100    3.6200    3.6300    3.6400    3.6500    3.6600    3.6700
    3.6800    3.6900    3.7000    3.7100    3.7200    3.7300    3.7400    3.7500
    3.7600    3.7700    3.7800    3.7900    3.8000    3.8100    3.8200    3.8300
    3.8400    3.8500    3.8600    3.8700    3.8800    3.8900    3.9000    3.9100
    3.9200    3.9300    3.9400    3.9500    3.9600    3.9700    3.9800    3.9900
    4.0000    4.0100    4.0200    4.0300    4.0400    4.0500    4.0600    4.0700
    4.0800    4.0900    4.1000    4.1100    4.1200    4.1300    4.1400    4.1500
    4.1600    4.1700    4.1800    4.1900    4.2000    4.2100    4.2200    4.2300
    4.2400    4.2500    4.2600    4.2700    4.2800    4.2900    4.3000    4.3100
    4.3200    4.3300    4.3400    4.3500    4.3600    4.3700    4.3800    4.3900
    4.4000    4.4100    4.4200    4.4300    4.4400    4.4500    4.4600    4.4700
    4.4800    4.4900    4.5000    4.5100    4.5200    4.5300    4.5400    4.5500
    4.5600    4.5700    4.5800    4.5900    4.6000    4.6100    4.6200    4.6300
    4.6400    4.6500    4.6600    4.6700    4.6800    4.6900    4.7000    4.7100
    4.7200    4.7300    4.7400    4.7500    4.7600    4.7700    4.7800    4.7900
    4.8000    4.8100    4.8200    4.8300    4.8400    4.8500    4.8600    4.8700
    4.8800    4.8900    4.9000    4.9100    4.9200    4.9300    4.9400    4.9500
    4.9600    4.9700    4.9800    4.9900    5.0000    5.0100    5.0200    5.0300
    5.0400    5.0500    5.0600    5.0700    5.0800    5.0900    5.1000    5.1100
    5.1200    5.1300    5.1400    5.1500    5.1600    5.1700    5.1800    5.1900
    5.2000    5.2100    5.2200    5.2300    5.2400    5.2500    5.2600    5.2700
    5.2800    5.2900    5.3000    5.3100    5.3200    5.3300    5.3400    5.3500
    5.3600    5.3700    5.3800    5.3900    5.4000    5.4100    5.4200    5.4300
    5.4400    5.4500    5.4600    5.4700    5.4800    5.4900    5.5000    5.5100
    5.5200    5.5300    5.5400    5.5500    5.5600    5.5700    5.5800    5.5900
    5.6000    5.6100    5.6200    5.6300    5.6400    5.6500    5.6600    5.6700
    5.6800    5.6900    5.7000    5.7100    5.7200    5.7300    5.7400    5.7500
    5.7600    5.7700    5.7800    5.7900    5.8000    5.8100    5.8200    5.8300
    5.8400    5.8500    5.8600    5.8700    5.8800    5.8900    5.9000    5.9100
    5.9200    5.9300    5.9400    5.9500    5.9600    5.9700    5.9800    5.9900
    6.0000    6.0100    6.0200    6.0300    6.0400    6.0500    6.0600    6.0700
    6.0800    6.0900    6.1000    6.1100    6.1200    6.1300    6.1400    6.1500
    6.1600    6.1700    6.1800    6.1900    6.2000    6.2100    6.2200    6.2300
    6.2400    6.2500    6.2600    6.2700    6.2800    6.2900    6.3000    6.3100
    6.3200    6.3300    6.3400    6.3500    6.3600    6.3700    6.3800    6.3900
    6.4000    6.4100    6.4200    6.4300    6.4400    6.4500    6.4600    6.4700
    6.4800    6.4900    6.5000    6.5100    6.5200    6.5300    6.5400    6.5500
    6.5600    6.5700    6.5800    6.5900    6.6000    6.6100    6.6200    6.6300
    6.6400    6.6500    6.6600    6.6700    6.6800    6.6900    6.7000    6.7100
    6.7200    6.7300    6.7400    6.7500    6.7600    6.7700    6.7800    6.7900
    6.8000    6.8100    6.8200    6.8300    6.8400    6.8500    6.8600    6.8700
    6.8800    6.8900    6.9000    6.9100    6.9200    6.9300    6.9400    6.9500
    6.9600    6.9700    6.9800    6.9900    7.0000    7.0100    7.0200    7.0300
    7.0400    7.0500    7.0600    7.0700    7.0800    7.0900    7.1000    7.1100
    7.1200    7.1300    7.1400    7.1500    7.1600    7.1700    7.1800    7.1900
    7.2000    7.2100    7.2200    7.2300    7.2400    7.2500    7.2600    7.2700
    7.2800    7.2900    7.3000    7.3100    7.3200    7.3300    7.3400    7.3500
    7.3600    7.3700    7.3800    7.3900    7.4000    7.4100    7.4200    7.4300
    7.4400    7.4500    7.4600    7.4700    7.4800    7.4900    7.5000    7.5100
    7.5200    7.5300    7.5400    7.5500    7.5600    7.5700    7.5800    7.5900
    7.6000    7.6100    7.6200    7.6300    7.6400    7.6500    7.6600    7.6700
    7.6800    7.6900    7.7000    7.7100    7.7200    7.7300    7.7400    7.7500
    7.7600    7.7700    7.7800    7.7900    7.8000    7.8100    7.8200    7.8300
    7.8400    7.8500    7.8600    7.8700    7.8800    7.8900    7.9000    7.9100
    7.9200    7.9300    7.9400    7.9500    7.9600    7.9700    7.9800    7.9900
    8.0000    8.0100    8.0200    8.0300    8.0400    8.0500    8.0600    8.0700
    8.0800    8.0900    8.1000    8.1100    8.1200    8.1300    8.1400    8.1500
    8.1600    8.1700    8.1800    8.1900    8.2000    8.2100    8.2200    8.2300
    8.2400    8.2500    8.2600    8.2700    8.2800    8.2900    8.3000    8.3100
    8.3200    8.3300    8.3400    8.3500    8.3600    8.3700    8.3800    8.3900
    8.4000    8.4100    8.4200    8.4300    8.4400    8.4500    8.4600    8.4700
    8.4800    8.4900    8.5000    8.5100    8.5200    8.5300    8.5400    8.5500
    8.5600    8.5700    8.5800    8.5900    8.6000    8.6100    8.6200    8.6300
    8.6400    8.6500    8.6600    8.6700    8.6800    8.6900    8.7000    8.7100
    8.7200    8.7300    8.7400    8.7500    8.7600    8.7700    8.7800    8.7900
    8.8000    8.8100    8.8200    8.8300    8.8400    8.8500    8.8600    8.8700
    8.8800    8.8900    8.9000    8.9100    8.9200    8.9300    8.9400    8.9500
    8.9600    8.9700    8.9800    8.9900    9.0000    9.0100    9.0200    9.0300
    9.0400    9.0500    9.0600    9.0700    9.0800    9.0900    9.1000    9.1100
    9.1200    9.1300    9.1400    9.1500    9.1600    9.1700    9.1800    9.1900
    9.2000    9.2100    9.2200    9.2300    9.2400    9.2500    9.2600    9.2700
    9.2800    9.2900    9.3000    9.3100    9.3200    9.3300    9.3400    9.3500
    9.3600    9.3700
   </PP_R>
   <PP_RAB type="real"  size=" 938" columns="8">
    0.0100    0.0100    0.0100    0.0100    0.0100    0.0100    0.0100    0.0100
    0.0100    0.0100    0.0100    0.0100    0.0100    0.0100    0.0100    0.0100
    0.0100    0.0100    0.0100    0.0100    0.0100    0.0100    0.0100    0.0100
    0.0100    0.0100    0.0100    0.0100    0.0100    0.0100    0.0100    0.0100
    0.0100    0.0100    0.0100    0.0100    0.0100    0.0100    0.0100    0.0100
    0.0100    0.0100    0.0100    0.0100    0.0100    0.0100    0.0100    0.0100
    0.0100    0.0100    0.0100    0.0100    0.0100    0.0100    0.0100    0.0100
    0.0100    0.0100    0.0100    0.0100    0.0100    0.0100    0.0100    0.0100
    0.0100    0.0100    0.0100    0.0100    0.0100    0.0100    0.0100    0.0100
    0.0100    0.0100    0.0100    0.0100    0.0100    0.0100    0.0100    0.0100
    0.0100    0.0100    0.0100    0.0100    0.0100    0.0100    0.0100    0.0100
    0.0100    0.0100    0.0100    0.0100    0.0100    0.0100    0.0100    0.0100
    0.0100    0.0100    0.0100    0.0100    0.0100    0.0100    0.0100    0.0100
    0.0100    0.0100    0.0100    0.0100    0.0100    0.0100    0.0100    0.0100
    0.0100    0.0100    0.0100    0.0100    0.0100    0.0100    0.0100    0.0100
    0.0100    0.0100    0.0100    0.0100    0.0100    0.0100    0.0100    0.0100
    0.0100    0.0100    0.0100    0.0100    0.0100    0.0100    0.0100    0.0100
    0.0100    0.0100    0.0100    0.0100    0.0100    0.0100    0.0100    0.0100
    0.0100    0.0100    0.0100    0.0100    0.0100    0.0100    0.0100    0.0100
    0.0100    0.0100    0.0100    0.0100    0.0100    0.0100    0.0100    0.0100
    0.0100    0.0100    0.0100    0.0100    0.0100    0.0100    0.0100    0.0100
    0.0100    0.0100    0.0100    0.0100    0.0100    0.0100    0.0100    0.0100
    0.0100    0.0100    0.0100    0.0100    0.0100    0.0100    0.0100    0.0100
    0.0100    0.0100    0.0100    0.0100    0.0100    0.0100    0.0100    0.0100
    0.0100    0.0100    0.0100    0.0100    0.0100    0.0100    0.0100    0.0100
    0.0100    0.0100    0.0100    0.0100    0.0100    0.0100    0.0100    0.0100
    0.0100    0.0100    0.0100    0.0100    0.0100    0.0100    0.0100    0.0100
    0.0100    0.0100    0.0100    0.0100    0.0100    0.0100    0.0100    0.0100
    0.0100    0.0100    0.0100    0.0100    0.0100    0.0100    0.0100    0.0100
    0.0100    0.0100    0.0100    0.0100    0.0100    0.0100    0.0100    0.0100
    0.0100    0.0100    0.0100    0.0100    0.0100    0.0100    0.0100    0.0100
    0.0100    0.0100    0.0100    0.0100    0.0100    0.0100    0.0100    0.0100
    0.0100    0.0100    0.0100    0.0100    0.0100    0.0100    0.0100    0.0100
    0.0100    0.0100    0.0100    0.0100    0.0100    0.0100    0.0100    0.0100
    0.0100    0.0100    0.0100    0.0100    0.0100    0.0100    0.0100    0.0100
    0.0100    0.0100    0.0100    0.0100    0.0100    0.0100    0.0100    0.0100
    0.0100    0.0100    0.0100    0.0100    0.0100    0.0100    0.0100    0.0100
    0.0100    0.0100    0.0100    0.0100    0.0100    0.0100    0.0100    0.0100
    0.0100    0.0100    0.0100    0.0100    0.0100    0.0100    0.0100    0.0100
    0.0100    0.0100    0.0100    0.0100    0.0100    0.0100    0.0100    0.0100
    0.0100    0.0100    0.0100    0.0100    0.0100    0.0100    0.0100    0.0100
    0.0100    0.0100    0.0100    0.0100    0.0100    0.0100    0.0100    0.0100
    0.0100    0.0100    0.0100    0.0100    0.0100    0.0100    0.0100    0.0100
    0.0100    0.0100    0.0100    0.0100    0.0100    0.0100    0.0100    0.0100
    0.0100    0.0100    0.0100    0.0100    0.0100    0.0100    0.0100    0.0100
    0.0100    0.0100    0.0100    0.0100    0.0100    0.0100    0.0100    0.0100
    0.0100    0.0100    0.0100    0.0100    0.0100    0.0100    0.0100    0.0100
    0.0100    0.0100    0.0100    0.0100    0.0100    0.0100    0.0100    0.0100
    0.0100    0.0100    0.0100    0.0100    0.0100    0.0100    0.0100    0.0100
    0.0100    0.0100    0.0100    0.0100    0.0100    0.0100    0.0100    0.0100
    0.0100    0.0100    0.0100    0.0100    0.0100    0.0100    0.0100    0.0100
    0.0100    0.0100    0.0100    0.0100    0.0100    0.0100    0.0100    0.0100
    0.0100    0.0100    0.0100    0.0100    0.0100    0.0100    0.0100    0.0100
    0.0100    0.0100    0.0100    0.0100    0.0100    0.0100    0.0100    0.0100
    0.0100    0.0100    0.0100    0.0100    0.0100    0.0100    0.0100    0.0100
    0.0100    0.0100    0.0100    0.0100    0.0100    0.0100    0.0100    0.0100
    0.0100    0.0100    0.0100    0.0100    0.0100    0.0100    0.0100    0.0100
    0.0100    0.0100    0.0100    0.0100    0.0100    0.0100    0.0100    0.0100
    0.0100    0.0100    0.0100    0.0100    0.0100    0.0100    0.0100    0.0100
    0.0100    0.0100    0.0100    0.0100    0.0100    0.0100    0.0100    0.0100
    0.0100    0.0100    0.0100    0.0100    0.0100    0.0100    0.0100    0.0100
    0.0100    0.0100    0.0100    0.0100    0.0100    0.0100    0.0100    0.0100
    0.0100    0.0100    0.0100    0.0100    0.0100    0.0100    0.0100    0.0100
    0.0100    0.0100    0.0100    0.0100    0.0100    0.0100    0.0100    0.0100
    0.0100    0.0100    0.0100    0.0100    0.0100    0.0100    0.0100    0.0100
    0.0100    0.0100    0.0100    0.0100    0.0100    0.0100    0.0100    0.0100
    0.0100    0.0100    0.0100    0.0100    0.0100    0.0100    0.0100    0.0100
    0.0100    0.0100    0.0100    0.0100    0.0100    0.0100    0.0100    0.0100
    0.0100    0.0100    0.0100    0.0100    0.0100    0.0100    0.0100    0.0100
    0.0100    0.0100    0.0100    0.0100    0.0100    0.0100    0.0100    0.0100
    0.0100    0.0100    0.0100    0.0100    0.0100    0.0100    0.0100    0.0100
    0.0100    0.0100    0.0100    0.0100    0.0100    0.0100    0.0100    0.0100
    0.0100    0.0100    0.0100    0.0100    0.0100    0.0100    0.0100    0.0100
    0.0100    0.0100    0.0100    0.0100    0.0100    0.0100    0.0100    0.0100
    0.0100    0.0100    0.0100    0.0100    0.0100    0.0100    0.0100    0.0100
    0.0100    0.0100    0.0100    0.0100    0.0100    0.0100    0.0100    0.0100
    0.0100    0.0100    0.0100    0.0100    0.0100    0.0100    0.0100    0.0100
    0.0100    0.0100    0.0100    0.0100    0.0100    0.0100    0.0100    0.0100
    0.0100    0.0100    0.0100    0.0100    0.0100    0.0100    0.0100    0.0100
    0.0100    0.0100    0.0100    0.0100    0.0100    0.0100    0.0100    0.0100
    0.0100    0.0100    0.0100    0.0100    0.0100    0.0100    0.0100    0.0100
    0.0100    0.0100    0.0100    0.0100    0.0100    0.0100    0.0100    0.0100
    0.0100    0.0100    0.0100    0.0100    0.0100    0.0100    0.0100    0.0100
    0.0100    0.0100    0.0100    0.0100    0.0100    0.0100    0.0100    0.0100
    0.0100    0.0100    0.0100    0.0100    0.0100    0.0100    0.0100    0.0100
    0.0100    0.0100    0.0100    0.0100    0.0100    0.0100    0.0100    0.0100
    0.0100    0.0100    0.0100    0.0100    0.0100    0.0100    0.0100    0.0100
    0.0100    0.0100    0.0100    0.0100    0.0100    0.0100    0.0100    0.0100
    0.0100    0.0100    0.0100    0.0100    0.0100    0.0100    0.0100    0.0100
    0.0100    0.0100    0.0100    0.0100    0.0100    0.0100    0.0100    0.0100
    0.0100    0.0100    0.0100    0.0100    0.0100    0.0100    0.0100    0.0100
    0.0100    0.0100    0.0100    0.0100    0.0100    0.0100    0.0100    0.0100
    0.0100    0.0100    0.0100    0.0100    0.0100    0.0100    0.0100    0.0100
    0.0100    0.0100    0.0100    0.0100    0.0100    0.0100    0.0100    0.0100
    0.0100    0.0100    0.0100    0.0100    0.0100    0.0100    0.0100    0.0100
    0.0100    0.0100    0.0100    0.0100    0.0100    0.0100    0.0100    0.0100
    0.0100    0.0100    0.0100    0.0100    0.0100    0.0100    0.0100    0.0100
    0.0100    0.0100    0.0100    0.0100    0.0100    0.0100    0.0100    0.0100
    0.0100    0.0100    0.0100    0.0100    0.0100    0.0100    0.0100    0.0100
    0.0100    0.0100    0.0100    0.0100    0.0100    0.0100    0.0100    0.0100
    0.0100    0.0100    0.0100    0.0100    0.0100    0.0100    0.0100    0.0100
    0.0100    0.0100    0.0100    0.0100    0.0100    0.0100    0.0100    0.0100
    0.0100    0.0100    0.0100    0.0100    0.0100    0.0100    0.0100    0.0100
    0.0100    0.0100    0.0100    0.0100    0.0100    0.0100    0.0100    0.0100
    0.0100    0.0100    0.0100    0.0100    0.0100    0.0100    0.0100    0.0100
    0.0100    0.0100    0.0100    0.0100    0.0100    0.0100    0.0100    0.0100
    0.0100    0.0100    0.0100    0.0100    0.0100    0.0100    0.0100    0.0100
    0.0100    0.0100    0.0100    0.0100    0.0100    0.0100    0.0100    0.0100
    0.0100    0.0100    0.0100    0.0100    0.0100    0.0100    0.0100    0.0100
    0.0100    0.0100    0.0100    0.0100    0.0100    0.0100    0.0100    0.0100
    0.0100    0.0100    0.0100    0.0100    0.0100    0.0100    0.0100    0.0100
    0.0100    0.0100    0.0100    0.0100    0.0100    0.0100    0.0100    0.0100
    0.0100    0.0100    0.0100    0.0100    0.0100    0.0100    0.0100    0.0100
    0.0100    0.0100    0.0100    0.0100    0.0100    0.0100    0.0100    0.0100
    0.0100    0.0100    0.0100    0.0100    0.0100    0.0100    0.0100    0.0100
    0.0100    0.0100    0.0100    0.0100    0.0100    0.0100    0.0100    0.0100
    0.0100    0.0100    0.0100    0.0100    0.0100    0.0100    0.0100    0.0100
    0.0100    0.0100
   </PP_RAB>
 </PP_MESH>
  <PP_LOCAL type="real"  size=" 938" columns="4">
   -2.1436842117E+01   -2.1436197356E+01   -2.1434263388E+01   -2.1431041182E+01
   -2.1426532336E+01   -2.1420739067E+01   -2.1413664191E+01   -2.1405311094E+01
   -2.1395683701E+01   -2.1384786440E+01   -2.1372624202E+01   -2.1359202295E+01
   -2.1344526397E+01   -2.1328602505E+01   -2.1311436879E+01   -2.1293035992E+01
   -2.1273406472E+01   -2.1252555045E+01   -2.1230488478E+01   -2.1207213522E+01
   -2.1182736863E+01   -2.1157065058E+01   -2.1130204493E+01   -2.1102161326E+01
   -2.1072941440E+01   -2.1042550403E+01   -2.1010993420E+01   -2.0978275294E+01
   -2.0944400395E+01   -2.0909372618E+01   -2.0873195361E+01   -2.0835871491E+01
   -2.0797403324E+01   -2.0757792599E+01   -2.0717040464E+01   -2.0675147457E+01
   -2.0632113491E+01   -2.0587937846E+01   -2.0542619157E+01   -2.0496155411E+01
   -2.0448543938E+01   -2.0399781412E+01   -2.0349863852E+01   -2.0298786621E+01
   -2.0246544432E+01   -2.0193131358E+01   -2.0138540838E+01   -2.0082765693E+01
   -2.0025798142E+01   -1.9967629821E+01   -1.9908251808E+01   -1.9847654655E+01
   -1.9785828416E+01   -1.9722762698E+01   -1.9658446697E+01   -1.9592869267E+01
   -1.9526018976E+01   -1.9457884191E+01   -1.9388453164E+01   -1.9317714142E+01
   -1.9245655488E+01   -1.9172265824E+01   -1.9097534201E+01   -1.9021450289E+01
   -1.8944004594E+01   -1.8865188707E+01   -1.8784995586E+01   -1.8703419857E+01
   -1.8620458152E+01   -1.8536109469E+01   -1.8450375542E+01   -1.8363261230E+01
   -1.8274774894E+01   -1.8184928758E+01   -1.8093739245E+01   -1.8001227249E+01
   -1.7907418352E+01   -1.7812342949E+01   -1.7716036281E+01   -1.7618538351E+01
   -1.7519893735E+01   -1.7420151272E+01   -1.7319363655E+01   -1.7217586918E+01
   -1.7114879861E+01   -1.7011303414E+01   -1.6906919986E+01   -1.6801792812E+01
   -1.6695985337E+01   -1.6589560648E+01   -1.6482580983E+01   -1.6375107328E+01
   -1.6267199107E+01   -1.6158913966E+01   -1.6050307649E+01   -1.5941433956E+01
   -1.5832344772E+01   -1.5723090155E+01   -1.5613718456E+01   -1.5504276483E+01
   -1.5394809665E+01   -1.5285362229E+01   -1.5175977370E+01   -1.5066697408E+01
   -1.4957563925E+01   -1.4848617888E+01   -1.4739899742E+01   -1.4631449489E+01
   -1.4523306729E+01   -1.4415510697E+01   -1.4308100267E+01   -1.4201113939E+01
   -1.4094589814E+01   -1.3988565549E+01   -1.3883078300E+01   -1.3778164658E+01
   -1.3673860571E+01   -1.3570201261E+01   -1.3467221138E+01   -1.3364953712E+01
   -1.3263431498E+01   -1.3162685927E+01   -1.3062747255E+01   -1.2963644481E+01
   -1.2865405260E+01   -1.2768055832E+01   -1.2671620944E+01   -1.2576123791E+01
   -1.2481585954E+01   -1.2388027352E+01   -1.2295466195E+01   -1.2203918944E+01
   -1.2113400287E+01   -1.2023923104E+01   -1.1935498456E+01   -1.1848135566E+01
   -1.1761841808E+01   -1.1676622707E+01   -1.1592481932E+01   -1.1509421301E+01
   -1.1427440783E+01   -1.1346538503E+01   -1.1266710753E+01   -1.1187951998E+01
   -1.1110254888E+01   -1.1033610263E+01   -1.0958007170E+01   -1.0883432867E+01
   -1.0809872819E+01   -1.0737310778E+01   -1.0665728719E+01   -1.0595106685E+01
   -1.0525423319E+01   -1.0456656485E+01   -1.0388784320E+01   -1.0321786189E+01
   -1.0255644156E+01   -1.0190343242E+01   -1.0125870913E+01   -1.0062215682E+01
   -9.9993640065E+00   -9.9373005120E+00   -9.8760087051E+00   -9.8154718518E+00
   -9.7556749327E+00   -9.6966038783E+00   -9.6382448425E+00   -9.5805844011E+00
   -9.5236092338E+00   -9.4673063360E+00   -9.4116632859E+00   -9.3566680520E+00
   -9.3023088977E+00   -9.2485744369E+00   -9.1954536368E+00   -9.1429357928E+00
   -9.0910105149E+00   -9.0396677176E+00   -8.9888976074E+00   -8.9386906700E+00
   -8.8890376576E+00   -8.8399295766E+00   -8.7913576747E+00   -8.7433134285E+00
   -8.6957885316E+00   -8.6487748823E+00   -8.6022645726E+00   -8.5562498766E+00
   -8.5107232403E+00   -8.4656772713E+00   -8.4211047294E+00   -8.3769985173E+00
   -8.3333516729E+00   -8.2901573612E+00   -8.2474088675E+00   -8.2050995911E+00
   -8.1632230395E+00   -8.1217728237E+00   -8.0807426539E+00   -8.0401263353E+00
   -7.9999177659E+00   -7.9601109333E+00   -7.9206999133E+00   -7.8816788681E+00
   -7.8430420456E+00   -7.8047837790E+00   -7.7668984862E+00   -7.7293806702E+00
   -7.6922249197E+00   -7.6554259093E+00   -7.6189784006E+00   -7.5828772430E+00
   -7.5471173744E+00   -7.5116938224E+00   -7.4766017050E+00   -7.4418362313E+00
   -7.4073927024E+00   -7.3732665115E+00   -7.3394531445E+00   -7.3059481798E+00
   -7.2727472882E+00   -7.2398462325E+00   -7.2072408667E+00   -7.1749271350E+00
   -7.1429010705E+00   -7.1111587937E+00   -7.0796965108E+00   -7.0485105112E+00
   -7.0175971660E+00   -6.9869529247E+00   -6.9565743132E+00   -6.9264579306E+00
   -6.8966004465E+00   -6.8669985979E+00   -6.8376491861E+00   -6.8085490737E+00
   -6.7796951815E+00   -6.7510844857E+00   -6.7227140144E+00   -6.6945808454E+00
   -6.6666821031E+00   -6.6390149562E+00   -6.6115766151E+00   -6.5843643298E+00
   -6.5573753883E+00   -6.5306071142E+00   -6.5040568658E+00   -6.4777220345E+00
   -6.4516000440E+00   -6.4256883492E+00   -6.3999844357E+00   -6.3744858196E+00
   -6.3491900471E+00   -6.3240946944E+00   -6.2991973680E+00   -6.2744957049E+00
   -6.2499873726E+00   -6.2256700702E+00   -6.2015415282E+00   -6.1775995095E+00
   -6.1538418094E+00   -6.1302662567E+00   -6.1068707130E+00   -6.0836530756E+00
   -6.0606112758E+00   -6.0377432838E+00   -6.0150470920E+00   -5.9925207266E+00
   -5.9701622430E+00   -5.9479697612E+00   -5.9259414645E+00   -5.9040755555E+00
   -5.8823702443E+00   -5.8608236810E+00   -5.8394340577E+00   -5.8181996013E+00
   -5.7971185734E+00   -5.7761893033E+00   -5.7554101427E+00   -5.7347796557E+00
   -5.7142964708E+00   -5.6939592507E+00   -5.6737666058E+00   -5.6537170231E+00
   -5.6338089960E+00   -5.6140409972E+00   -5.5944114633E+00   -5.5749188439E+00
   -5.5555615820E+00   -5.5363382301E+00   -5.5172474077E+00   -5.4982877610E+00
   -5.4794579737E+00   -5.4607567057E+00   -5.4421826533E+00   -5.4237345302E+00
   -5.4054110620E+00   -5.3872109883E+00   -5.3691330641E+00   -5.3511760590E+00
   -5.3333387663E+00   -5.3156199932E+00   -5.2980185630E+00   -5.2805333139E+00
   -5.2631630993E+00   -5.2459067876E+00   -5.2287632620E+00   -5.2117314205E+00
   -5.1948101753E+00   -5.1779984525E+00   -5.1612951923E+00   -5.1446993485E+00
   -5.1282098882E+00   -5.1118257918E+00   -5.0955460526E+00   -5.0793696767E+00
   -5.0632956829E+00   -5.0473231022E+00   -5.0314509779E+00   -5.0156783653E+00
   -5.0000043315E+00   -4.9844279553E+00   -4.9689483266E+00   -4.9535645471E+00
   -4.9382757292E+00   -4.9230809962E+00   -4.9079794826E+00   -4.8929703329E+00
   -4.8780527025E+00   -4.8632257569E+00   -4.8484886715E+00   -4.8338406321E+00
   -4.8192808339E+00   -4.8048084821E+00   -4.7904227911E+00   -4.7761229850E+00
   -4.7619082969E+00   -4.7477779690E+00   -4.7337312528E+00   -4.7197674081E+00
   -4.7058857039E+00   -4.6920854175E+00   -4.6783658346E+00   -4.6647262496E+00
   -4.6511659646E+00   -4.6376842902E+00   -4.6242805448E+00   -4.6109540546E+00
   -4.5977041537E+00   -4.5845301837E+00   -4.5714314937E+00   -4.5584074405E+00
   -4.5454573878E+00   -4.5325807068E+00   -4.5197767757E+00   -4.5070449797E+00
   -4.4943847110E+00   -4.4817953684E+00   -4.4692763577E+00   -4.4568270911E+00
   -4.4444469874E+00   -4.4321354719E+00   -4.4198919762E+00   -4.4077159381E+00
   -4.3956068017E+00   -4.3835640170E+00   -4.3715870403E+00   -4.3596753336E+00
   -4.3478283648E+00   -4.3360456076E+00   -4.3243265414E+00   -4.3126706511E+00
   -4.3010774272E+00   -4.2895463659E+00   -4.2780769683E+00   -4.2666687413E+00
   -4.2553211967E+00   -4.2440338518E+00   -4.2328062286E+00   -4.2216378545E+00
   -4.2105282617E+00   -4.1994769874E+00   -4.1884835736E+00   -4.1775475671E+00
   -4.1666685194E+00   -4.1558459866E+00   -4.1450795295E+00   -4.1343687134E+00
   -4.1237131081E+00   -4.1131122879E+00   -4.1025658312E+00   -4.0920733210E+00
   -4.0816343444E+00   -4.0712484928E+00   -4.0609153617E+00   -4.0506345506E+00
   -4.0404056632E+00   -4.0302283071E+00   -4.0201020939E+00   -4.0100266390E+00
   -4.0000015618E+00   -3.9900264854E+00   -3.9801010366E+00   -3.9702248460E+00
   -3.9603975478E+00   -3.9506187798E+00   -3.9408881834E+00   -3.9312054036E+00
   -3.9215700888E+00   -3.9119818908E+00   -3.9024404648E+00   -3.8929454694E+00
   -3.8834965666E+00   -3.8740934216E+00   -3.8647357026E+00   -3.8554230815E+00
   -3.8461552329E+00   -3.8369318346E+00   -3.8277525678E+00   -3.8186171164E+00