<UPF version="2.0.1">
  <PP_INFO>

 This pseudopotential file has been produced using the code
 ONCVPSP  (Optimized Norm-Conservinng Vanderbilt PSeudopotential)
 fully-relativistic version 3.3.1 12/12/2017 by D. R. Hamann
 The code is available through a link at URL www.mat-simresearch.com.
 Documentation with the package provides a full discription of the
 input data below.


 While it is not required under the terms of the GNU GPL, it is
 suggested that you cite D. R. Hamann, Phys. Rev. B 88, 085117 (2013)
 in any publication using these pseudopotentials.

    <PP_INPUTFILE>
# ATOM AND REFERENCE CONFIGURATION
# atsym  z   nc   nv     iexc    psfile
  O  8.00    1    2 -116133      upf
#
#   n    l    f        energy (Ha)
    1    0    2.00
    2    0    2.00
    2    1    4.00
#
# PSEUDOPOTENTIAL AND OPTIMIZATION
# lmax
    2
#
#   l,   rc,     ep,   ncon, nbas, qcut
    0   1.35000  -0.87493    4    8   8.40000
    1   1.45000  -0.32933    4    8   9.30000
    2   1.25000   0.10000    4    8   6.00000
#
# LOCAL POTENTIAL
# lloc, lpopt,  rc(5),   dvloc0
    4    5   1.20000      0.00000
#
# VANDERBILT-KLEINMAN-BYLANDER PROJECTORs
# l, nproj, debl
    0    2   1.00000
    1    2   0.99955
    2    1   1.00000
#
# MODEL CORE CHARGE
# icmod, fcfact, rcfact
    3   4.00000   1.50000
#
# LOG DERIVATIVE ANALYSIS
# epsh1, epsh2, depsh
  -12.00   12.00    0.02
#
# OUTPUT GRID
# rlmax, drl
    6.00    0.01
#
# TEST CONFIGURATIONS
# ncnf
    0
# nvcnf
#   n    l    f
    </PP_INPUTFILE>
  </PP_INFO>
  <!--                               -->
  <!-- END OF HUMAN READABLE SECTION -->
  <!--                               -->
    <PP_HEADER
       generated="Generated using ONCVPSP code by D. R. Hamann"
       author="anonymous"
       date="210905"
       comment=""
       element="O "
       pseudo_type="NC"
       relativistic="full"
       is_ultrasoft="F"
       is_paw="F"
       is_coulomb="F"
       has_so="T"
       has_wfc="F"
       has_gipaw="F"
       core_correction="T"
       functional="PBESOL"
       z_valence="    6.00"
       total_psenergy="  -3.14217254081E+01"
       rho_cutoff="   9.35000000000E+00"
       l_max="2"
       l_local="-1"
       mesh_size="   936"
       number_of_wfc="3"
       number_of_proj="8"/>
 <PP_MESH>
   <PP_R type="real"  size=" 936" columns="8">
    0.0000    0.0100    0.0200    0.0300    0.0400    0.0500    0.0600    0.0700
    0.0800    0.0900    0.1000    0.1100    0.1200    0.1300    0.1400    0.1500
    0.1600    0.1700    0.1800    0.1900    0.2000    0.2100    0.2200    0.2300
    0.2400    0.2500    0.2600    0.2700    0.2800    0.2900    0.3000    0.3100
    0.3200    0.3300    0.3400    0.3500    0.3600    0.3700    0.3800    0.3900
    0.4000    0.4100    0.4200    0.4300    0.4400    0.4500    0.4600    0.4700
    0.4800    0.4900    0.5000    0.5100    0.5200    0.5300    0.5400    0.5500
    0.5600    0.5700    0.5800    0.5900    0.6000    0.6100    0.6200    0.6300
    0.6400    0.6500    0.6600    0.6700    0.6800    0.6900    0.7000    0.7100
    0.7200    0.7300    0.7400    0.7500    0.7600    0.7700    0.7800    0.7900
    0.8000    0.8100    0.8200    0.8300    0.8400    0.8500    0.8600    0.8700
    0.8800    0.8900    0.9000    0.9100    0.9200    0.9300    0.9400    0.9500
    0.9600    0.9700    0.9800    0.9900    1.0000    1.0100    1.0200    1.0300
    1.0400    1.0500    1.0600    1.0700    1.0800    1.0900    1.1000    1.1100
    1.1200    1.1300    1.1400    1.1500    1.1600    1.1700    1.1800    1.1900
    1.2000    1.2100    1.2200    1.2300    1.2400    1.2500    1.2600    1.2700
    1.2800    1.2900    1.3000    1.3100    1.3200    1.3300    1.3400    1.3500
    1.3600    1.3700    1.3800    1.3900    1.4000    1.4100    1.4200    1.4300
    1.4400    1.4500    1.4600    1.4700    1.4800    1.4900    1.5000    1.5100
    1.5200    1.5300    1.5400    1.5500    1.5600    1.5700    1.5800    1.5900
    1.6000    1.6100    1.6200    1.6300    1.6400    1.6500    1.6600    1.6700
    1.6800    1.6900    1.7000    1.7100    1.7200    1.7300    1.7400    1.7500
    1.7600    1.7700    1.7800    1.7900    1.8000    1.8100    1.8200    1.8300
    1.8400    1.8500    1.8600    1.8700    1.8800    1.8900    1.9000    1.9100
    1.9200    1.9300    1.9400    1.9500    1.9600    1.9700    1.9800    1.9900
    2.0000    2.0100    2.0200    2.0300    2.0400    2.0500    2.0600    2.0700
    2.0800    2.0900    2.1000    2.1100    2.1200    2.1300    2.1400    2.1500
    2.1600    2.1700    2.1800    2.1900    2.2000    2.2100    2.2200    2.2300
    2.2400    2.2500    2.2600    2.2700    2.2800    2.2900    2.3000    2.3100
    2.3200    2.3300    2.3400    2.3500    2.3600    2.3700    2.3800    2.3900
    2.4000    2.4100    2.4200    2.4300    2.4400    2.4500    2.4600    2.4700
    2.4800    2.4900    2.5000    2.5100    2.5200    2.5300    2.5400    2.5500
    2.5600    2.5700    2.5800    2.5900    2.6000    2.6100    2.6200    2.6300
    2.6400    2.6500    2.6600    2.6700    2.6800    2.6900    2.7000    2.7100
    2.7200    2.7300    2.7400    2.7500    2.7600    2.7700    2.7800    2.7900
    2.8000    2.8100    2.8200    2.8300    2.8400    2.8500    2.8600    2.8700
    2.8800    2.8900    2.9000    2.9100    2.9200    2.9300    2.9400    2.9500
    2.9600    2.9700    2.9800    2.9900    3.0000    3.0100    3.0200    3.0300
    3.0400    3.0500    3.0600    3.0700    3.0800    3.0900    3.1000    3.1100
    3.1200    3.1300    3.1400    3.1500    3.1600    3.1700    3.1800    3.1900
    3.2000    3.2100    3.2200    3.2300    3.2400    3.2500    3.2600    3.2700
    3.2800    3.2900    3.3000    3.3100    3.3200    3.3300    3.3400    3.3500
    3.3600    3.3700    3.3800    3.3900    3.4000    3.4100    3.4200    3.4300
    3.4400    3.4500    3.4600    3.4700    3.4800    3.4900    3.5000    3.5100
    3.5200    3.5300    3.5400    3.5500    3.5600    3.5700    3.5800    3.5900
    3.6000    3.6100    3.6200    3.6300    3.6400    3.6500    3.6600    3.6700
    3.6800    3.6900    3.7000    3.7100    3.7200    3.7300    3.7400    3.7500
    3.7600    3.7700    3.7800    3.7900    3.8000    3.8100    3.8200    3.8300
    3.8400    3.8500    3.8600    3.8700    3.8800    3.8900    3.9000    3.9100
    3.9200    3.9300    3.9400    3.9500    3.9600    3.9700    3.9800    3.9900
    4.0000    4.0100    4.0200    4.0300    4.0400    4.0500    4.0600    4.0700
    4.0800    4.0900    4.1000    4.1100    4.1200    4.1300    4.1400    4.1500
    4.1600    4.1700    4.1800    4.1900    4.2000    4.2100    4.2200    4.2300
    4.2400    4.2500    4.2600    4.2700    4.2800    4.2900    4.3000    4.3100
    4.3200    4.3300    4.3400    4.3500    4.3600    4.3700    4.3800    4.3900
    4.4000    4.4100    4.4200    4.4300    4.4400    4.4500    4.4600    4.4700
    4.4800    4.4900    4.5000    4.5100    4.5200    4.5300    4.5400    4.5500
    4.5600    4.5700    4.5800    4.5900    4.6000    4.6100    4.6200    4.6300
    4.6400    4.6500    4.6600    4.6700    4.6800    4.6900    4.7000    4.7100
    4.7200    4.7300    4.7400    4.7500    4.7600    4.7700    4.7800    4.7900
    4.8000    4.8100    4.8200    4.8300    4.8400    4.8500    4.8600    4.8700
    4.8800    4.8900    4.9000    4.9100    4.9200    4.9300    4.9400    4.9500
    4.9600    4.9700    4.9800    4.9900    5.0000    5.0100    5.0200    5.0300
    5.0400    5.0500    5.0600    5.0700    5.0800    5.0900    5.1000    5.1100
    5.1200    5.1300    5.1400    5.1500    5.1600    5.1700    5.1800    5.1900
    5.2000    5.2100    5.2200    5.2300    5.2400    5.2500    5.2600    5.2700
    5.2800    5.2900    5.3000    5.3100    5.3200    5.3300    5.3400    5.3500
    5.3600    5.3700    5.3800    5.3900    5.4000    5.4100    5.4200    5.4300
    5.4400    5.4500    5.4600    5.4700    5.4800    5.4900    5.5000    5.5100
    5.5200    5.5300    5.5400    5.5500    5.5600    5.5700    5.5800    5.5900
    5.6000    5.6100    5.6200    5.6300    5.6400    5.6500    5.6600    5.6700
    5.6800    5.6900    5.7000    5.7100    5.7200    5.7300    5.7400    5.7500
    5.7600    5.7700    5.7800    5.7900    5.8000    5.8100    5.8200    5.8300
    5.8400    5.8500    5.8600    5.8700    5.8800    5.8900    5.9000    5.9100
    5.9200    5.9300    5.9400    5.9500    5.9600    5.9700    5.9800    5.9900
    6.0000    6.0100    6.0200    6.0300    6.0400    6.0500    6.0600    6.0700
    6.0800    6.0900    6.1000    6.1100    6.1200    6.1300    6.1400    6.1500
    6.1600    6.1700    6.1800    6.1900    6.2000    6.2100    6.2200    6.2300
    6.2400    6.2500    6.2600    6.2700    6.2800    6.2900    6.3000    6.3100
    6.3200    6.3300    6.3400    6.3500    6.3600    6.3700    6.3800    6.3900
    6.4000    6.4100    6.4200    6.4300    6.4400    6.4500    6.4600    6.4700
    6.4800    6.4900    6.5000    6.5100    6.5200    6.5300    6.5400    6.5500
    6.5600    6.5700    6.5800    6.5900    6.6000    6.6100    6.6200    6.6300
    6.6400    6.6500    6.6600    6.6700    6.6800    6.6900    6.7000    6.7100
    6.7200    6.7300    6.7400    6.7500    6.7600    6.7700    6.7800    6.7900
    6.8000    6.8100    6.8200    6.8300    6.8400    6.8500    6.8600    6.8700
    6.8800    6.8900    6.9000    6.9100    6.9200    6.9300    6.9400    6.9500
    6.9600    6.9700    6.9800    6.9900    7.0000    7.0100    7.0200    7.0300
    7.0400    7.0500    7.0600    7.0700    7.0800    7.0900    7.1000    7.1100
    7.1200    7.1300    7.1400    7.1500    7.1600    7.1700    7.1800    7.1900
    7.2000    7.2100    7.2200    7.2300    7.2400    7.2500    7.2600    7.2700
    7.2800    7.2900    7.3000    7.3100    7.3200    7.3300    7.3400    7.3500
    7.3600    7.3700    7.3800    7.3900    7.4000    7.4100    7.4200    7.4300
    7.4400    7.4500    7.4600    7.4700    7.4800    7.4900    7.5000    7.5100
    7.5200    7.5300    7.5400    7.5500    7.5600    7.5700    7.5800    7.5900
    7.6000    7.6100    7.6200    7.6300    7.6400    7.6500    7.6600    7.6700
    7.6800    7.6900    7.7000    7.7100    7.7200    7.7300    7.7400    7.7500
    7.7600    7.7700    7.7800    7.7900    7.8000    7.8100    7.8200    7.8300
    7.8400    7.8500    7.8600    7.8700    7.8800    7.8900    7.9000    7.9100
    7.9200    7.9300    7.9400    7.9500    7.9600    7.9700    7.9800    7.9900
    8.0000    8.0100    8.0200    8.0300    8.0400    8.0500    8.0600    8.0700
    8.0800    8.0900    8.1000    8.1100    8.1200    8.1300    8.1400    8.1500
    8.1600    8.1700    8.1800    8.1900    8.2000    8.2100    8.2200    8.2300
    8.2400    8.2500    8.2600    8.2700    8.2800    8.2900    8.3000    8.3100
    8.3200    8.3300    8.3400    8.3500    8.3600    8.3700    8.3800    8.3900
    8.4000    8.4100    8.4200    8.4300    8.4400    8.4500    8.4600    8.4700
    8.4800    8.4900    8.5000    8.5100    8.5200    8.5300    8.5400    8.5500
    8.5600    8.5700    8.5800    8.5900    8.6000    8.6100    8.6200    8.6300
    8.6400    8.6500    8.6600    8.6700    8.6800    8.6900    8.7000    8.7100
    8.7200    8.7300    8.7400    8.7500    8.7600    8.7700    8.7800    8.7900
    8.8000    8.8100    8.8200    8.8300    8.8400    8.8500    8.8600    8.8700
    8.8800    8.8900    8.9000    8.9100    8.9200    8.9300    8.9400    8.9500
    8.9600    8.9700    8.9800    8.9900    9.0000    9.0100    9.0200    9.0300
    9.0400    9.0500    9.0600    9.0700    9.0800    9.0900    9.1000    9.1100
    9.1200    9.1300    9.1400    9.1500    9.1600    9.1700    9.1800    9.1900
    9.2000    9.2100    9.2200    9.2300    9.2400    9.2500    9.2600    9.2700
    9.2800    9.2900    9.3000    9.3100    9.3200    9.3300    9.3400    9.3500
   </PP_R>
   <PP_RAB type="real"  size=" 936" columns="8">
    0.0100    0.0100    0.0100    0.0100    0.0100    0.0100    0.0100    0.0100
    0.0100    0.0100    0.0100    0.0100    0.0100    0.0100    0.0100    0.0100
    0.0100    0.0100    0.0100    0.0100    0.0100    0.0100    0.0100    0.0100
    0.0100    0.0100    0.0100    0.0100    0.0100    0.0100    0.0100    0.0100
    0.0100    0.0100    0.0100    0.0100    0.0100    0.0100    0.0100    0.0100
    0.0100    0.0100    0.0100    0.0100    0.0100    0.0100    0.0100    0.0100
    0.0100    0.0100    0.0100    0.0100    0.0100    0.0100    0.0100    0.0100
    0.0100    0.0100    0.0100    0.0100    0.0100    0.0100    0.0100    0.0100
    0.0100    0.0100    0.0100    0.0100    0.0100    0.0100    0.0100    0.0100
    0.0100    0.0100    0.0100    0.0100    0.0100    0.0100    0.0100    0.0100
    0.0100    0.0100    0.0100    0.0100    0.0100    0.0100    0.0100    0.0100
    0.0100    0.0100    0.0100    0.0100    0.0100    0.0100    0.0100    0.0100
    0.0100    0.0100    0.0100    0.0100    0.0100    0.0100    0.0100    0.0100
    0.0100    0.0100    0.0100    0.0100    0.0100    0.0100    0.0100    0.0100
    0.0100    0.0100    0.0100    0.0100    0.0100    0.0100    0.0100    0.0100
    0.0100    0.0100    0.0100    0.0100    0.0100    0.0100    0.0100    0.0100
    0.0100    0.0100    0.0100    0.0100    0.0100    0.0100    0.0100    0.0100
    0.0100    0.0100    0.0100    0.0100    0.0100    0.0100    0.0100    0.0100
    0.0100    0.0100    0.0100    0.0100    0.0100    0.0100    0.0100    0.0100
    0.0100    0.0100    0.0100    0.0100    0.0100    0.0100    0.0100    0.0100
    0.0100    0.0100    0.0100    0.0100    0.0100    0.0100    0.0100    0.0100
    0.0100    0.0100    0.0100    0.0100    0.0100    0.0100    0.0100    0.0100
    0.0100    0.0100    0.0100    0.0100    0.0100    0.0100    0.0100    0.0100
    0.0100    0.0100    0.0100    0.0100    0.0100    0.0100    0.0100    0.0100
    0.0100    0.0100    0.0100    0.0100    0.0100    0.0100    0.0100    0.0100
    0.0100    0.0100    0.0100    0.0100    0.0100    0.0100    0.0100    0.0100
    0.0100    0.0100    0.0100    0.0100    0.0100    0.0100    0.0100    0.0100
    0.0100    0.0100    0.0100    0.0100    0.0100    0.0100    0.0100    0.0100
    0.0100    0.0100    0.0100    0.0100    0.0100    0.0100    0.0100    0.0100
    0.0100    0.0100    0.0100    0.0100    0.0100    0.0100    0.0100    0.0100
    0.0100    0.0100    0.0100    0.0100    0.0100    0.0100    0.0100    0.0100
    0.0100    0.0100    0.0100    0.0100    0.0100    0.0100    0.0100    0.0100
    0.0100    0.0100    0.0100    0.0100    0.0100    0.0100    0.0100    0.0100
    0.0100    0.0100    0.0100    0.0100    0.0100    0.0100    0.0100    0.0100
    0.0100    0.0100    0.0100    0.0100    0.0100    0.0100    0.0100    0.0100
    0.0100    0.0100    0.0100    0.0100    0.0100    0.0100    0.0100    0.0100
    0.0100    0.0100    0.0100    0.0100    0.0100    0.0100    0.0100    0.0100
    0.0100    0.0100    0.0100    0.0100    0.0100    0.0100    0.0100    0.0100
    0.0100    0.0100    0.0100    0.0100    0.0100    0.0100    0.0100    0.0100
    0.0100    0.0100    0.0100    0.0100    0.0100    0.0100    0.0100    0.0100
    0.0100    0.0100    0.0100    0.0100    0.0100    0.0100    0.0100    0.0100
    0.0100    0.0100    0.0100    0.0100    0.0100    0.0100    0.0100    0.0100
    0.0100    0.0100    0.0100    0.0100    0.0100    0.0100    0.0100    0.0100
    0.0100    0.0100    0.0100    0.0100    0.0100    0.0100    0.0100    0.0100
    0.0100    0.0100    0.0100    0.0100    0.0100    0.0100    0.0100    0.0100
    0.0100    0.0100    0.0100    0.0100    0.0100    0.0100    0.0100    0.0100
    0.0100    0.0100    0.0100    0.0100    0.0100    0.0100    0.0100    0.0100
    0.0100    0.0100    0.0100    0.0100    0.0100    0.0100    0.0100    0.0100
    0.0100    0.0100    0.0100    0.0100    0.0100    0.0100    0.0100    0.0100
    0.0100    0.0100    0.0100    0.0100    0.0100    0.0100    0.0100    0.0100
    0.0100    0.0100    0.0100    0.0100    0.0100    0.0100    0.0100    0.0100
    0.0100    0.0100    0.0100    0.0100    0.0100    0.0100    0.0100    0.0100
    0.0100    0.0100    0.0100    0.0100    0.0100    0.0100    0.0100    0.0100
    0.0100    0.0100    0.0100    0.0100    0.0100    0.0100    0.0100    0.0100
    0.0100    0.0100    0.0100    0.0100    0.0100    0.0100    0.0100    0.0100
    0.0100    0.0100    0.0100    0.0100    0.0100    0.0100    0.0100    0.0100
    0.0100    0.0100    0.0100    0.0100    0.0100    0.0100    0.0100    0.0100
    0.0100    0.0100    0.0100    0.0100    0.0100    0.0100    0.0100    0.0100
    0.0100    0.0100    0.0100    0.0100    0.0100    0.0100    0.0100    0.0100
    0.0100    0.0100    0.0100    0.0100    0.0100    0.0100    0.0100    0.0100
    0.0100    0.0100    0.0100    0.0100    0.0100    0.0100    0.0100    0.0100
    0.0100    0.0100    0.0100    0.0100    0.0100    0.0100    0.0100    0.0100
    0.0100    0.0100    0.0100    0.0100    0.0100    0.0100    0.0100    0.0100
    0.0100    0.0100    0.0100    0.0100    0.0100    0.0100    0.0100    0.0100
    0.0100    0.0100    0.0100    0.0100    0.0100    0.0100    0.0100    0.0100
    0.0100    0.0100    0.0100    0.0100    0.0100    0.0100    0.0100    0.0100
    0.0100    0.0100    0.0100    0.0100    0.0100    0.0100    0.0100    0.0100
    0.0100    0.0100    0.0100    0.0100    0.0100    0.0100    0.0100    0.0100
    0.0100    0.0100    0.0100    0.0100    0.0100    0.0100    0.0100    0.0100
    0.0100    0.0100    0.0100    0.0100    0.0100    0.0100    0.0100    0.0100
    0.0100    0.0100    0.0100    0.0100    0.0100    0.0100    0.0100    0.0100
    0.0100    0.0100    0.0100    0.0100    0.0100    0.0100    0.0100    0.0100
    0.0100    0.0100    0.0100    0.0100    0.0100    0.0100    0.0100    0.0100
    0.0100    0.0100    0.0100    0.0100    0.0100    0.0100    0.0100    0.0100
    0.0100    0.0100    0.0100    0.0100    0.0100    0.0100    0.0100    0.0100
    0.0100    0.0100    0.0100    0.0100    0.0100    0.0100    0.0100    0.0100
    0.0100    0.0100    0.0100    0.0100    0.0100    0.0100    0.0100    0.0100
    0.0100    0.0100    0.0100    0.0100    0.0100    0.0100    0.0100    0.0100
    0.0100    0.0100    0.0100    0.0100    0.0100    0.0100    0.0100    0.0100
    0.0100    0.0100    0.0100    0.0100    0.0100    0.0100    0.0100    0.0100
    0.0100    0.0100    0.0100    0.0100    0.0100    0.0100    0.0100    0.0100
    0.0100    0.0100    0.0100    0.0100    0.0100    0.0100    0.0100    0.0100
    0.0100    0.0100    0.0100    0.0100    0.0100    0.0100    0.0100    0.0100
    0.0100    0.0100    0.0100    0.0100    0.0100    0.0100    0.0100    0.0100
    0.0100    0.0100    0.0100    0.0100    0.0100    0.0100    0.0100    0.0100
    0.0100    0.0100    0.0100    0.0100    0.0100    0.0100    0.0100    0.0100
    0.0100    0.0100    0.0100    0.0100    0.0100    0.0100    0.0100    0.0100
    0.0100    0.0100    0.0100    0.0100    0.0100    0.0100    0.0100    0.0100
    0.0100    0.0100    0.0100    0.0100    0.0100    0.0100    0.0100    0.0100
    0.0100    0.0100    0.0100    0.0100    0.0100    0.0100    0.0100    0.0100
    0.0100    0.0100    0.0100    0.0100    0.0100    0.0100    0.0100    0.0100
    0.0100    0.0100    0.0100    0.0100    0.0100    0.0100    0.0100    0.0100
    0.0100    0.0100    0.0100    0.0100    0.0100    0.0100    0.0100    0.0100
    0.0100    0.0100    0.0100    0.0100    0.0100    0.0100    0.0100    0.0100
    0.0100    0.0100    0.0100    0.0100    0.0100    0.0100    0.0100    0.0100
    0.0100    0.0100    0.0100    0.0100    0.0100    0.0100    0.0100    0.0100
    0.0100    0.0100    0.0100    0.0100    0.0100    0.0100    0.0100    0.0100
    0.0100    0.0100    0.0100    0.0100    0.0100    0.0100    0.0100    0.0100
    0.0100    0.0100    0.0100    0.0100    0.0100    0.0100    0.0100    0.0100
    0.0100    0.0100    0.0100    0.0100    0.0100    0.0100    0.0100    0.0100
    0.0100    0.0100    0.0100    0.0100    0.0100    0.0100    0.0100    0.0100
    0.0100    0.0100    0.0100    0.0100    0.0100    0.0100    0.0100    0.0100
    0.0100    0.0100    0.0100    0.0100    0.0100    0.0100    0.0100    0.0100
    0.0100    0.0100    0.0100    0.0100    0.0100    0.0100    0.0100    0.0100
    0.0100    0.0100    0.0100    0.0100    0.0100    0.0100    0.0100    0.0100
    0.0100    0.0100    0.0100    0.0100    0.0100    0.0100    0.0100    0.0100
    0.0100    0.0100    0.0100    0.0100    0.0100    0.0100    0.0100    0.0100
    0.0100    0.0100    0.0100    0.0100    0.0100    0.0100    0.0100    0.0100
    0.0100    0.0100    0.0100    0.0100    0.0100    0.0100    0.0100    0.0100
    0.0100    0.0100    0.0100    0.0100    0.0100    0.0100    0.0100    0.0100
    0.0100    0.0100    0.0100    0.0100    0.0100    0.0100    0.0100    0.0100
    0.0100    0.0100    0.0100    0.0100    0.0100    0.0100    0.0100    0.0100
    0.0100    0.0100    0.0100    0.0100    0.0100    0.0100    0.0100    0.0100
    0.0100    0.0100    0.0100    0.0100    0.0100    0.0100    0.0100    0.0100
    0.0100    0.0100    0.0100    0.0100    0.0100    0.0100    0.0100    0.0100
    0.0100    0.0100    0.0100    0.0100    0.0100    0.0100    0.0100    0.0100
    0.0100    0.0100    0.0100    0.0100    0.0100    0.0100    0.0100    0.0100
   </PP_RAB>
 </PP_MESH>
  <PP_LOCAL type="real"  size=" 936" columns="4">
   -2.0549256469E+01   -2.0548084971E+01   -2.0544583828E+01   -2.0538792919E+01
   -2.0530776353E+01   -2.0520619263E+01   -2.0508423642E+01   -2.0494303542E+01
   -2.0478379989E+01   -2.0460775931E+01   -2.0441611486E+01   -2.0420999740E+01
   -2.0399043206E+01   -2.0375831070E+01   -2.0351437194E+01   -2.0325918871E+01
   -2.0299316238E+01   -2.0271652249E+01   -2.0242933098E+01   -2.0213148976E+01
   -2.0182275064E+01   -2.0150272672E+01   -2.0117090435E+01   -2.0082665531E+01
   -2.0046924867E+01   -2.0009786202E+01   -1.9971159205E+01   -1.9930946432E+01
   -1.9889044237E+01   -1.9845343608E+01   -1.9799730963E+01   -1.9752088903E+01
   -1.9702296967E+01   -1.9650232383E+01   -1.9595770888E+01   -1.9538787616E+01
   -1.9479158131E+01   -1.9416759644E+01   -1.9351472476E+01   -1.9283181828E+01
   -1.9211779889E+01   -1.9137168335E+01   -1.9059261167E+01   -1.8977987851E+01
   -1.8893296605E+01   -1.8805157641E+01   -1.8713566085E+01   -1.8618544276E+01
   -1.8520143120E+01   -1.8418442231E+01   -1.8313548699E+01   -1.8205594423E+01
   -1.8094732179E+01   -1.7981130688E+01   -1.7864969135E+01   -1.7746431613E+01
   -1.7625701994E+01   -1.7502959623E+01   -1.7378376111E+01   -1.7252113340E+01
   -1.7124322647E+01   -1.6995145010E+01   -1.6864712018E+01   -1.6733147332E+01
   -1.6600568389E+01   -1.6467088113E+01   -1.6332816465E+01   -1.6197861705E+01
   -1.6062331311E+01   -1.5926332528E+01   -1.5789972565E+01   -1.5653358479E+01
   -1.5516596804E+01   -1.5379792994E+01   -1.5243050744E+01   -1.5106471262E+01
   -1.4970152542E+01   -1.4834188702E+01   -1.4698669409E+01   -1.4563679426E+01
   -1.4429298297E+01   -1.4295600163E+01   -1.4162653720E+01   -1.4030522287E+01
   -1.3899263984E+01   -1.3768931995E+01   -1.3639574882E+01   -1.3511236962E+01
   -1.3383958688E+01   -1.3257777051E+01   -1.3132725965E+01   -1.3008836643E+01
   -1.2886137937E+01   -1.2764656650E+01   -1.2644417800E+01   -1.2525444852E+01
   -1.2407759901E+01   -1.2291383814E+01   -1.2176336328E+01   -1.2062636112E+01
   -1.1950300788E+01   -1.1839346922E+01   -1.1729789979E+01   -1.1621644254E+01
   -1.1514922784E+01   -1.1409637231E+01   -1.1305797753E+01   -1.1203412872E+01
   -1.1102489316E+01   -1.1003031873E+01   -1.0905043227E+01   -1.0808523811E+01
   -1.0713471646E+01   -1.0619882200E+01   -1.0527748240E+01   -1.0437059707E+01
   -1.0347803583E+01   -1.0259963783E+01   -1.0173521041E+01   -1.0088452869E+01
   -1.0004733333E+01   -9.9223330697E+00   -9.8412211162E+00   -9.7613667236E+00
   -9.6827406199E+00   -9.6053146231E+00   -9.5290616900E+00   -9.4539558929E+00
   -9.3799723987E+00   -9.3070874678E+00   -9.2352784108E+00   -9.1645236146E+00
   -9.0948022113E+00   -9.0260941157E+00   -8.9583805357E+00   -8.8916458212E+00
   -8.8258794990E+00   -8.7610746282E+00   -8.6972251349E+00   -8.6343204563E+00
   -8.5723466039E+00   -8.5112877267E+00   -8.4511296868E+00   -8.3918598032E+00
   -8.3334644934E+00   -8.2759247505E+00   -8.2192123319E+00   -8.1632944566E+00
   -8.1081381507E+00   -8.0537195426E+00   -8.0000230796E+00   -7.9470366805E+00
   -7.8947492837E+00   -7.8431470265E+00   -7.7922158949E+00   -7.7419427610E+00
   -7.6923148575E+00   -7.6433199221E+00   -7.5949458922E+00   -7.5471808920E+00
   -7.5000133631E+00   -7.4534320344E+00   -7.4074259074E+00   -7.3619842597E+00
   -7.3170966092E+00   -7.2727527520E+00   -7.2289428604E+00   -7.1856573200E+00
   -7.1428866390E+00   -7.1006214852E+00   -7.0588524898E+00   -7.0175706879E+00
   -6.9767680533E+00   -6.9364369649E+00   -6.8965700301E+00   -6.8571598562E+00
   -6.8181984141E+00   -6.7796775541E+00   -6.7415895396E+00   -6.7039269367E+00
   -6.6666826646E+00   -6.6298499300E+00   -6.5934220075E+00   -6.5573922193E+00
   -6.5217540489E+00   -6.4865011565E+00   -6.4516273323E+00   -6.4171264934E+00
   -6.3829926874E+00   -6.3492200886E+00   -6.3158029937E+00   -6.2827358187E+00
   -6.2500130961E+00   -6.2176294718E+00   -6.1855797018E+00   -6.1538586499E+00
   -6.1224612846E+00   -6.0913826767E+00   -6.0606179965E+00   -6.0301625112E+00
   -6.0000115830E+00   -5.9701606662E+00   -5.9406053050E+00   -5.9113411317E+00
   -5.8823638640E+00   -5.8536693031E+00   -5.8252533321E+00   -5.7971119133E+00
   -5.7692410867E+00   -5.7416369683E+00   -5.7142957478E+00   -5.6872136873E+00
   -5.6603871194E+00   -5.6338124455E+00   -5.6074861345E+00   -5.5814047207E+00
   -5.5555648027E+00   -5.5299630419E+00   -5.5045961608E+00   -5.4794609418E+00
   -5.4545542258E+00   -5.4298729110E+00   -5.4054139514E+00   -5.3811743556E+00
   -5.3571511857E+00   -5.3333415558E+00   -5.3097426315E+00   -5.2863516281E+00
   -5.2631658096E+00   -5.2401824880E+00   -5.2173990221E+00   -5.1948128163E+00
   -5.1724213198E+00   -5.1502220255E+00   -5.1282124694E+00   -5.1063902291E+00
   -5.0847529236E+00   -5.0632982119E+00   -5.0420237923E+00   -5.0209274018E+00
   -5.0000068150E+00   -4.9792598433E+00   -4.9586843346E+00   -4.9382781720E+00
   -4.9180392734E+00   -4.8979655906E+00   -4.8780551088E+00   -4.8583058457E+00
   -4.8387158512E+00   -4.8192832063E+00   -4.8000060228E+00   -4.7808824426E+00
   -4.7619106371E+00   -4.7430888065E+00   -4.7244151796E+00   -4.7058880127E+00
   -4.6875055895E+00   -4.6692662203E+00   -4.6511682418E+00   -4.6332100163E+00
   -4.6153899311E+00   -4.5977063985E+00   -4.5801578549E+00   -4.5627427604E+00
   -4.5454595986E+00   -4.5283068760E+00   -4.5112831214E+00   -4.4943868857E+00
   -4.4776167415E+00   -4.4609712826E+00   -4.4444491236E+00   -4.4280488994E+00
   -4.4117692654E+00   -4.3956088963E+00   -4.3795664862E+00   -4.3636407484E+00
   -4.3478304147E+00   -4.3321342352E+00   -4.3165509781E+00   -4.3010794292E+00
   -4.2857183915E+00   -4.2704666852E+00   -4.2553231473E+00   -4.2402866311E+00
   -4.2253560061E+00   -4.2105301576E+00   -4.1958079866E+00   -4.1811884094E+00
   -4.1666703573E+00   -4.1522527763E+00   -4.1379346273E+00   -4.1237148850E+00
   -4.1095925385E+00   -4.0955665905E+00   -4.0816360574E+00   -4.0677999688E+00
   -4.0540573677E+00   -4.0404073096E+00   -4.0268488629E+00   -4.0133811085E+00
   -4.0000031394E+00   -3.9867140608E+00   -3.9735129896E+00   -3.9603990546E+00
   -3.9473713957E+00   -3.9344291645E+00   -3.9215715233E+00   -3.9087976456E+00
   -3.8961067154E+00   -3.8834979276E+00   -3.8709704871E+00   -3.8585236093E+00
   -3.8461565195E+00   -3.8338684530E+00   -3.8216586547E+00   -3.8095263794E+00
   -3.7974708910E+00   -3.7854914628E+00   -3.7735873772E+00   -3.7617579258E+00
   -3.7500024089E+00   -3.7383201354E+00   -3.7267104229E+00   -3.7151725976E+00
   -3.7037059938E+00   -3.6923099541E+00   -3.6809838291E+00   -3.6697269774E+00
   -3.6585387654E+00   -3.6474185673E+00   -3.6363657646E+00   -3.6253797466E+00
   -3.6144599098E+00   -3.6036056580E+00   -3.5928164021E+00   -3.5820915599E+00
   -3.5714305566E+00   -3.5608328236E+00   -3.5502977994E+00   -3.5398249292E+00
   -3.5294136644E+00   -3.5190634631E+00   -3.5087737897E+00   -3.4985441147E+00
   -3.4883739149E+00   -3.4782626731E+00   -3.4682098782E+00   -3.4582150247E+00
   -3.4482776133E+00   -3.4383971502E+00   -3.4285731472E+00   -3.4188051217E+00
   -3.4090925967E+00   -3.3994351005E+00   -3.3898321667E+00   -3.3802833343E+00
   -3.3707881473E+00   -3.3613461549E+00   -3.3519569115E+00   -3.3426199760E+00
   -3.3333349128E+00   -3.3241012906E+00   -3.3149186832E+00   -3.3057866690E+00
   -3.2967048309E+00   -3.2876727566E+00   -3.2786900382E+00   -3.2697562722E+00
   -3.2608710595E+00   -3.2520340055E+00   -3.2432447195E+00   -3.2345028154E+00
   -3.2258079110E+00   -3.2171596284E+00   -3.2085575935E+00   -3.2000014363E+00
   -3.1914907908E+00   -3.1830252949E+00   -3.1746045902E+00   -3.1662283221E+00
   -3.1578961398E+00   -3.1496076963E+00   -3.1413626480E+00   -3.1331606549E+00
   -3.1250013807E+00   -3.1168844926E+00   -3.1088096610E+00   -3.1007765601E+00
   -3.0927848670E+00   -3.0848342626E+00   -3.0769244306E+00   -3.0690550582E+00
   -3.0612258359E+00   -3.0534364572E+00   -3.0456866185E+00   -3.0379760197E+00
   -3.0303043635E+00   -3.0226713555E+00   -3.0150767045E+00   -3.0075201220E+00
   -3.0000013226E+00   -2.9925200236E+00   -2.9850759450E+00   -2.9776688099E+00
   -2.9702983439E+00   -2.9629642754E+00   -2.9556663353E+00   -2.9484042575E+00
   -2.9411777782E+00   -2.9339866363E+00   -2.9268305732E+00   -2.9197093329E+00
   -2.9126226618E+00   -2.9055703088E+00   -2.8985520253E+00   -2.8915675648E+00
   -2.8846166835E+00   -2.8776991399E+00   -2.8708146946E+00   -2.8639631107E+00
   -2.8571441534E+00   -2.8503575903E+00   -2.8436031910E+00   -2.8368807275E+00