Ag    ONCVPSP-3.3.1  r_core=   2.69244   2.56699   2.50648
     47.0000     19.0000      210904    zatom,zion,pspd
     8       2   2     4   600     0    pspcod,pspxc,lmax,lloc,mmax,r2well
  5.99000000  0.00000000  0.00000000    rchrg fchrg qchrg
     2     2     2     0     0    nproj
     1     1           extension_switch
   0                         3.6358987600802D+00  4.1685877238923D-01
     1  0.0000000000000D+00 -5.1721960048212D-12 -1.6924031620569D-12
     2  1.0000000000000D-02  6.0203852125745D-02 -6.4414665465008D-03
     3  2.0000000000000D-02  1.2030157870830D-01 -1.2832965010893D-02
     4  3.0000000000000D-02  1.8018727812714D-01 -1.9124638350122D-02
     5  4.0000000000000D-02  2.3975549608335D-01 -2.5266851473007D-02
     6  5.0000000000000D-02  2.9890144795254D-01 -3.1210301900216D-02
     7  6.0000000000000D-02  3.5752123957179D-01 -3.6906130043913D-02
     8  7.0000000000000D-02  4.1551208594495D-01 -4.2306028978484D-02
     9  8.0000000000000D-02  4.7277252735541D-01 -4.7362353572032D-02
    10  9.0000000000000D-02  5.2920264238230D-01 -5.2028228846523D-02
    11  1.0000000000000D-01  5.8470425732343D-01 -5.6257657431993D-02
    12  1.1000000000000D-01  6.3918115153757D-01 -6.0005625977772D-02
    13  1.2000000000000D-01  6.9253925822857D-01 -6.3228210380592D-02
    14  1.3000000000000D-01  7.4468686020537D-01 -6.5882679686354D-02
    15  1.4000000000000D-01  7.9553478016423D-01 -6.7927598518818D-02
    16  1.5000000000000D-01  8.4499656505332D-01 -6.9322927884918D-02
    17  1.6000000000000D-01  8.9298866409453D-01 -7.0030124202584D-02
    18  1.7000000000000D-01  9.3943060005285D-01 -7.0012236392941D-02
    19  1.8000000000000D-01  9.8424513336073D-01 -6.9234000874966D-02
    20  1.9000000000000D-01  1.0273584187224D+00 -6.7661934296433D-02
    21  2.0000000000000D-01  1.0687001538418D+00 -6.5264423831226D-02
    22  2.1000000000000D-01  1.1082037199372D+00 -6.2011814868866D-02
    23  2.2000000000000D-01  1.1458063137259D+00 -5.7876495918713D-02
    24  2.3000000000000D-01  1.1814490705836D+00 -5.2832980547122D-02
    25  2.4000000000000D-01  1.2150771786051D+00 -4.6857986162943D-02
    26  2.5000000000000D-01  1.2466399833140D+00 -3.9930509463390D-02
    27  2.6000000000000D-01  1.2760910827943D+00 -3.2031898349380D-02
    28  2.7000000000000D-01  1.3033884130386D+00 -2.3145920117366D-02
    29  2.8000000000000D-01  1.3284943233319D+00 -1.3258825732424D-02
    30  2.9000000000000D-01  1.3513756415156D+00 -2.3594099860527D-03
    31  3.0000000000000D-01  1.3720037289997D+00  9.5609326588526D-03
    32  3.1000000000000D-01  1.3903545254158D+00  2.2508156733599D-02
    33  3.2000000000000D-01  1.4064085828322D+00  3.6485519137564D-02
    34  3.3000000000000D-01  1.4201510894723D+00  5.1493537416669D-02
    35  3.4000000000000D-01  1.4315718829082D+00  6.7529953141444D-02
    36  3.5000000000000D-01  1.4406654527244D+00  8.4589700576618D-02
    37  3.6000000000000D-01  1.4474309326710D+00  1.0266488083150D-01
    38  3.7000000000000D-01  1.4518720823545D+00  1.2174474167568D-01
    39  3.8000000000000D-01  1.4539972585363D+00  1.4181566319974D-01
    40  3.9000000000000D-01  1.4538193761349D+00  1.6286114949468D-01
    41  4.0000000000000D-01  1.4513558590542D+00  1.8486182651673D-01
    42  4.1000000000000D-01  1.4466285809814D+00  2.0779544629662D-01
    43  4.2000000000000D-01  1.4396637963253D+00  2.3163689764306D-01
    44  4.3000000000000D-01  1.4304920614863D+00  2.5635822348078D-01
    45  4.4000000000000D-01  1.4191481466742D+00  2.8192864495248D-01
    46  4.5000000000000D-01  1.4056709385113D+00  3.0831459240202D-01
    47  4.6000000000000D-01  1.3901033336800D+00  3.3547974334387D-01
    48  4.7000000000000D-01  1.3724921238961D+00  3.6338506750929D-01
    49  4.8000000000000D-01  1.3528878725064D+00  3.9198887904570D-01
    50  4.9000000000000D-01  1.3313447830322D+00  4.2124689592933D-01
    51  5.0000000000000D-01  1.3079205599965D+00  4.5111230663514D-01
    52  5.1000000000000D-01  1.2826762623901D+00  4.8153584408969D-01
    53  5.2000000000000D-01  1.2556761501508D+00  5.1246586691508D-01
    54  5.3000000000000D-01  1.2269875240425D+00  5.4384844795211D-01
    55  5.4000000000000D-01  1.1966805593391D+00  5.7562747003105D-01
    56  5.5000000000000D-01  1.1648281337282D+00  6.0774472893760D-01
    57  5.6000000000000D-01  1.1315056498662D+00  6.4014004349988D-01
    58  5.7000000000000D-01  1.0967908530239D+00  6.7275137270083D-01
    59  5.8000000000000D-01  1.0607636442752D+00  7.0551493969690D-01
    60  5.9000000000000D-01  1.0235058896899D+00  7.3836536260102D-01
    61  6.0000000000000D-01  9.8510122599819D-01  7.7123579186489D-01
    62  6.1000000000000D-01  9.4563486320353D-01  8.0405805407080D-01
    63  6.2000000000000D-01  9.0519338462578D-01  8.3676280191893D-01
    64  6.3000000000000D-01  8.6386454485954D-01  8.6927967017307D-01
    65  6.4000000000000D-01  8.2173706613806D-01  9.0153743730123D-01
    66  6.5000000000000D-01  7.7890043359388D-01  9.3346419252463D-01
    67  6.6000000000000D-01  7.3544468990877D-01  9.6498750796343D-01
    68  6.7000000000000D-01  6.9146022984522D-01  9.9603461554349D-01
    69  6.8000000000000D-01  6.4703759515024D-01  1.0265325883043D+00
    70  6.9000000000000D-01  6.0226727031945D-01  1.0564085257252D+00
    71  7.0000000000000D-01  5.5723947970597D-01  1.0855897426623D+00
    72  7.1000000000000D-01  5.1204398645319D-01  1.1140039614687D+00
    73  7.2000000000000D-01  4.6676989372462D-01  1.1415795068453D+00
    74  7.3000000000000D-01  4.2150544869684D-01  1.1682455029507D+00
    75  7.4000000000000D-01  3.7633784977298D-01  1.1939320722779D+00
    76  7.5000000000000D-01  3.3135305746496D-01  1.2185705357856D+00
    77  7.6000000000000D-01  2.8663560938219D-01  1.2420936137534D+00
    78  7.7000000000000D-01  2.4226843975299D-01  1.2644356268138D+00
    79  7.8000000000000D-01  1.9833270389244D-01  1.2855326965980D+00
    80  7.9000000000000D-01  1.5490760801726D-01  1.3053229454166D+00
    81  8.0000000000000D-01  1.1207024479383D-01  1.3237466943838D+00
    82  8.1000000000000D-01  6.9895434990393D-02  1.3407466593823D+00
    83  8.2000000000000D-01  2.8455575588549D-02  1.3562681442561D+00
    84  8.3000000000000D-01 -1.2179505307439D-02  1.3702592306067D+00
    85  8.4000000000000D-01 -5.1942686442601D-02  1.3826709635668D+00
    86  8.5000000000000D-01 -9.0769683961618D-02  1.3934575329150D+00
    87  8.6000000000000D-01 -1.2859917425330D-01  1.4025764488944D+00
    88  8.7000000000000D-01 -1.6537290882437D-01  1.4099887120967D+00
    89  8.8000000000000D-01 -2.0103582095744D-01  1.4156589767721D+00
    90  8.9000000000000D-01 -2.3553612392846D-01  1.4195557069286D+00
    91  9.0000000000000D-01 -2.6882540057937D-01  1.4216513245885D+00
    92  9.1000000000000D-01 -3.0085868406310D-01  1.4219223495766D+00
    93  9.2000000000000D-01 -3.3159452959904D-01  1.4203495302202D+00
    94  9.3000000000000D-01 -3.6099507709891D-01  1.4169179643561D+00
    95  9.4000000000000D-01 -3.8902610454478D-01  1.4116172100469D+00
    96  9.5000000000000D-01 -4.1565707202256D-01  1.4044413854253D+00
    97  9.6000000000000D-01 -4.4086115633669D-01  1.3953892571035D+00
    98  9.7000000000000D-01 -4.6461527615350D-01  1.3844643165977D+00
    99  9.8000000000000D-01 -4.8690010764276D-01  1.3716748442430D+00
   100  9.9000000000000D-01 -5.0770009060859D-01  1.3570339600932D+00
   101  1.0000000000000D+00 -5.2700342512300D-01  1.3405596613232D+00
   102  1.0100000000000D+00 -5.4480205869639D-01  1.3222748456804D+00
   103  1.0200000000000D+00 -5.6109166404110D-01  1.3022073205547D+00
   104  1.0300000000000D+00 -5.7587160750406D-01  1.2803897972689D+00
   105  1.0400000000000D+00 -5.8914490826640D-01  1.2568598702200D+00
   106  1.0500000000000D+00 -6.0091818842706D-01  1.2316599805348D+00
   107  1.0600000000000D+00 -6.1120161410735D-01  1.2048373639356D+00
   108  1.0700000000000D+00 -6.2000882773326D-01  1.1764439825490D+00
   109  1.0800000000000D+00 -6.2735687166915D-01  1.1465364404219D+00
   110  1.0900000000000D+00 -6.3326610339630D-01  1.1151758825508D+00
   111  1.1000000000000D+00 -6.3776010244630D-01  1.0824278772659D+00
   112  1.1100000000000D+00 -6.4086556931575D-01  1.0483622818506D+00
   113  1.1200000000000D+00 -6.4261221660556D-01  1.0130530913185D+00
   114  1.1300000000000D+00 -6.4303265264095D-01  9.7657827030398D-01
   115  1.1400000000000D+00 -6.4216225784590D-01  9.3901956807231D-01
   116  1.1500000000000D+00 -6.4003905415701D-01  9.0046231668921D-01
   117  1.1600000000000D+00 -6.3670356777543D-01  8.6099521243604D-01
   118  1.1700000000000D+00 -6.3219868556549D-01  8.2071008058880D-01
   119  1.1800000000000D+00 -6.2656950542255D-01  7.7970162373333D-01
   120  1.1900000000000D+00 -6.1986318094063D-01  7.3806715382351D-01
   121  1.2000000000000D+00 -6.1212876071876D-01  6.9590630822643D-01
   122  1.2100000000000D+00 -6.0341702265428D-01  6.5332075004243D-01
   123  1.2200000000000D+00 -5.9378030357849D-01  6.1041385303149D-01
   124  1.2300000000000D+00 -5.8327232459546D-01  5.6729037151359D-01
   125  1.2400000000000D+00 -5.7194801248874D-01  5.2405609563594D-01
   126  1.2500000000000D+00 -5.5986331756804D-01  4.8081749246009D-01
   127  1.2600000000000D+00 -5.4707502832771D-01  4.3768133334886D-01
   128  1.2700000000000D+00 -5.3364058329234D-01  3.9475430814562D-01
   129  1.2800000000000D+00 -5.1961788042668D-01  3.5214262670883D-01
   130  1.2900000000000D+00 -5.0506508448478D-01  3.0995160837912D-01
   131  1.3000000000000D+00 -4.9004043267558D-01  2.6828525996478D-01
   132  1.3100000000000D+00 -4.7460203901812D-01  2.2724584290161D-01
   133  1.3200000000000D+00 -4.5880769775523D-01  1.8693343024495D-01
   134  1.3300000000000D+00 -4.4271468619758D-01  1.4744545416284D-01
   135  1.3400000000000D+00 -4.2637956735641D-01  1.0887624466100D-01
   136  1.3500000000000D+00 -4.0985799272241D-01  7.1316560256537D-02
   137  1.3600000000000D+00 -3.9320450554715D-01  3.4853111343133D-02
   138  1.3700000000000D+00 -3.7647234496118D-01 -4.3192297292911D-04
   139  1.3800000000000D+00 -3.5971325127337D-01 -3.4461383805978D-02
   140  1.3900000000000D+00 -3.4297727277693D-01 -6.7163626393145D-02
   141  1.4000000000000D+00 -3.2631257436941D-01 -9.8473018168199D-02
   142  1.4100000000000D+00 -3.0976524831546D-01 -1.2833044020759D-01
   143  1.4200000000000D+00 -2.9337912742514D-01 -1.5668379122913D-01
   144  1.4300000000000D+00 -2.7719560094946D-01 -1.8348849333935D-01
   145  1.4400000000000D+00 -2.6125343346635D-01 -2.0870799870653D-01
   146  1.4500000000000D+00 -2.4558858699881D-01 -2.3231429636371D-01
   147  1.4600000000000D+00 -2.3023404665002D-01 -2.5428841831348D-01
   148  1.4700000000000D+00 -2.1521964994589D-01 -2.7462094416182D-01
   149  1.4800000000000D+00 -2.0057192014616D-01 -2.9331250346638D-01
   150  1.4900000000000D+00 -1.8631385616319D-01 -3.1037449951332D-01
   151  1.5000000000000D+00 -1.7246500396908D-01 -3.2582852072838D-01
   152  1.5100000000000D+00 -1.5904143876493D-01 -3.3970619191824D-01
   153  1.5200000000000D+00 -1.4605260014626D-01 -3.5206388835995D-01
   154  1.5300000000000D+00 -1.3350627176675D-01 -3.6295903850751D-01
   155  1.5400000000000D+00 -1.2141822215632D-01 -3.7240446384990D-01
   156  1.5500000000000D+00 -1.0978490137086D-01 -3.8049698622439D-01
   157  1.5600000000000D+00 -9.8572601873013D-02 -3.8746850648724D-01
   158  1.5700000000000D+00 -8.7768516031631D-02 -3.9344464447498D-01
   159  1.5800000000000D+00 -7.7388740785051D-02 -3.9840724402088D-01
   160  1.5900000000000D+00 -6.7438415830924D-02 -4.0238404534777D-01
   161  1.6000000000000D+00 -5.7911308165004D-02 -4.0545097471113D-01
   162  1.6100000000000D+00 -4.8804039909534D-02 -4.0766464856079D-01
   163  1.6200000000000D+00 -4.0114031298891D-02 -4.0907240164223D-01
   164  1.6300000000000D+00 -3.1837421467302D-02 -4.0972243224039D-01
   165  1.6400000000000D+00 -2.3969750099963D-02 -4.0966079053610D-01
   166  1.6500000000000D+00 -1.6506053345299D-02 -4.0893115521646D-01
   167  1.6600000000000D+00 -9.4408532874111D-03 -4.0757511417527D-01
   168  1.6700000000000D+00 -2.7681832609457D-03 -4.0563227141473D-01
   169  1.6800000000000D+00  3.5183867210840D-03 -4.0314035005333D-01
   170  1.6900000000000D+00  9.4257244618297D-03 -4.0013529152729D-01
   171  1.7000000000000D+00  1.4961110007465D-02 -3.9665135073718D-01
   172  1.7100000000000D+00  2.0132210052422D-02 -3.9272118731003D-01
   173  1.7200000000000D+00  2.4947052335086D-02 -3.8837595274086D-01
   174  1.7300000000000D+00  2.9414000069503D-02 -3.8364537361008D-01
   175  1.7400000000000D+00  3.3541726430137D-02 -3.7855783067255D-01
   176  1.7500000000000D+00  3.7339189133677D-02 -3.7314043402899D-01
   177  1.7600000000000D+00  4.0815605140484D-02 -3.6741909421906D-01
   178  1.7700000000000D+00  4.3980425516601D-02 -3.6141858944402D-01
   179  1.7800000000000D+00  4.6843310484754D-02 -3.5516262881567D-01
   180  1.7900000000000D+00  4.9414104701442D-02 -3.4867391181856D-01
   181  1.8000000000000D+00  5.1702812793606D-02 -3.4197418395356D-01
   182  1.8100000000000D+00  5.3719575188670D-02 -3.3508428871176D-01
   183  1.8200000000000D+00  5.5474644274223D-02 -3.2802421592903D-01
   184  1.8300000000000D+00  5.6978360920091D-02 -3.2081314661986D-01
   185  1.8400000000000D+00  5.8241131397549D-02 -3.1346949442706D-01
   186  1.8500000000000D+00  5.9273404731848D-02 -3.0601094373164D-01
   187  1.8600000000000D+00  6.0085650514756D-02 -2.9845448463932D-01
   188  1.8700000000000D+00  6.0688337223196D-02 -2.9081644484261D-01
   189  1.8800000000000D+00  6.1091911055233D-02 -2.8311251863080D-01
   190  1.8900000000000D+00  6.1306775342942D-02 -2.7535779303688D-01
   191  1.9000000000000D+00  6.1343270540945D-02 -2.6756677138667D-01
   192  1.9100000000000D+00  6.1211654850541D-02 -2.5975339430167D-01
   193  1.9200000000000D+00  6.0922085483423D-02 -2.5193105835088D-01
   194  1.9300000000000D+00  6.0484600606231D-02 -2.4411263248383D-01
   195  1.9400000000000D+00  5.9909101992588D-02 -2.3631047238646D-01
   196  1.9500000000000D+00  5.9205338387386D-02 -2.2853643292704D-01
   197  1.9600000000000D+00  5.8382889646920D-02 -2.2080187883391D-01
   198  1.9700000000000D+00  5.7451151617255D-02 -2.1311769374515D-01
   199  1.9800000000000D+00  5.6419321839252D-02 -2.0549428781703D-01
   200  1.9900000000000D+00  5.5296386034867D-02 -1.9794160398911D-01
   201  2.0000000000000D+00  5.4091105433452D-02 -1.9046912310057D-01
   202  2.0100000000000D+00  5.2812004943004D-02 -1.8308586798925D-01
   203  2.0200000000000D+00  5.1467362148889D-02 -1.7580040667190D-01
   204  2.0300000000000D+00  5.0065197218241D-02 -1.6862085486240D-01
   205  2.0400000000000D+00  4.8613263626880D-02 -1.6155487778776D-01
   206  2.0500000000000D+00  4.7119039808082D-02 -1.5460969162968D-01
   207  2.0600000000000D+00  4.5589721660883D-02 -1.4779206456738D-01
   208  2.0700000000000D+00  4.4032215938586D-02 -1.4110831758910D-01
   209  2.0800000000000D+00  4.2453134558392D-02 -1.3456432529523D-01
   210  2.0900000000000D+00  4.0858789736693D-02 -1.2816551654803D-01
   211  2.1000000000000D+00  3.9255190067403D-02 -1.2191687542322D-01
   212  2.1100000000000D+00  3.7648037431164D-02 -1.1582294224580D-01
   213  2.1200000000000D+00  3.6042724776809D-02 -1.0988781495680D-01
   214  2.1300000000000D+00  3.4444334791445D-02 -1.0411515098650D-01
   215  2.1400000000000D+00  3.2857639350897D-02 -9.8508169386223D-02
   216  2.1500000000000D+00  3.1287099867976D-02 -9.3069653756841D-02
   217  2.1600000000000D+00  2.9736868409554D-02 -8.7801955631362D-02
   218  2.1700000000000D+00  2.8210789607326D-02 -8.2706998528961D-02
   219  2.1800000000000D+00  2.6712403383578D-02 -7.7786282897010D-02
   220  2.1900000000000D+00  2.5244948366259D-02 -7.3040891564094D-02
   221  2.2000000000000D+00  2.3811366086976D-02 -6.8471496232635D-02
   222  2.2100000000000D+00  2.2414305861697D-02 -6.4078364720778D-02
   223  2.2200000000000D+00  2.1056130318280D-02 -5.9861368930073D-02
   224  2.2300000000000D+00  1.9738921627246D-02 -5.5819993954491D-02
   225  2.2400000000000D+00  1.8464488293847D-02 -5.1953347800406D-02
   226  2.2500000000000D+00  1.7234372556571D-02 -4.8260172100997D-02
   227  2.2600000000000D+00  1.6049858351371D-02 -4.4738853786135D-02
   228  2.2700000000000D+00  1.4911979746401D-02 -4.1387437347604D-02
   229  2.2800000000000D+00  1.3821529903988D-02 -3.8203638225720D-02
   230  2.2900000000000D+00  1.2779070464053D-02 -3.5184856871529D-02
   231  2.3000000000000D+00  1.1784941318294D-02 -3.2328193475634D-02
   232  2.3100000000000D+00  1.0839270784717D-02 -2.9630463689992D-02
   233  2.3200000000000D+00  9.9419860830824D-03 -2.7088214821623D-02
   234  2.3300000000000D+00  9.0928241040893D-03 -2.4697742725002D-02
   235  2.3400000000000D+00  8.2913424347528D-03 -2.2455109398423D-02
   236  2.3500000000000D+00  7.5369305803293D-03 -2.0356160926981D-02
   237  2.3600000000000D+00  6.8288213558140D-03 -1.8396546026616D-02
   238  2.3700000000000D+00  6.1661023999774D-03 -1.6571734998179D-02
   239  2.3800000000000D+00  5.5477277828010D-03 -1.4877038890196D-02
   240  2.3900000000000D+00  4.9725296397632D-03 -1.3307629070187D-02
   241  2.4000000000000D+00  4.4392298116418D-03 -1.1858556928709D-02
   242  2.4100000000000D+00  3.9464514730794D-03 -1.0524773645612D-02
   243  2.4200000000000D+00  3.4927306349585D-03 -9.3011500796164D-03
   244  2.4300000000000D+00  3.0765275589815D-03 -8.1824965620232D-03
   245  2.4400000000000D+00  2.6962380395708D-03 -7.1635825778252D-03
   246  2.4500000000000D+00  2.3502044272092D-03 -6.2391562344930D-03
   247  2.4600000000000D+00  2.0367264732330D-03 -5.4039634608647D-03
   248  2.4700000000000D+00  1.7540719231927D-03 -4.6527668640421D-03
   249  2.4800000000000D+00  1.5004867329655D-03 -3.9803640637772D-03
   250  2.4900000000000D+00  1.2742050247658D-03 -3.3816055931851D-03
   251  2.5000000000000D+00  1.0734586810465D-03 -2.8514122151485D-03
   252  2.5100000000000D+00  8.9648645598199D-04 -2.3847914332054D-03
   253  2.5200000000000D+00  7.4154275576497D-04 -1.9768534190996D-03
   254  2.5300000000000D+00  6.0690596272006D-04 -1.6228261288694D-03
   255  2.5400000000000D+00  4.9088618311613D-04 -1.3180693550184D-03
   256  2.5500000000000D+00  3.9183260438935D-04 -1.0580880640369D-03
   257  2.5600000000000D+00  3.0814032755777D-04 -8.3854474125674D-04
   258  2.5700000000000D+00  2.3825653747975D-04 -6.5527043047790D-04
   259  2.5800000000000D+00  1.8068623570516D-04 -5.0427494977366D-04
   260  2.5900000000000D+00  1.3399741373469D-04 -3.8175600972546D-04
   261  2.6000000000000D+00  9.6825341762363D-05 -2.8411618871093D-04
   262  2.6100000000000D+00  6.7876596801736D-05 -2.0796498017495D-04
   263  2.6200000000000D+00  4.5933644529853D-05 -1.5004598178765D-04
   264  2.6300000000000D+00  2.9852786111304D-05 -1.0732611672293D-04
   265  2.6400000000000D+00  1.8555320857177D-05 -7.6812200790528D-05
   266  2.6500000000000D+00  1.1099554171494D-05 -5.6597578138401D-05
   267  2.6600000000000D+00  6.5922741700861D-06 -4.4502836514423D-05
   268  2.6700000000000D+00  4.3236671034320D-06 -3.9408538874861D-05
   269  2.6800000000000D+00  3.3213850832995D-06 -3.6769048669383D-05
   270  2.6900000000000D+00  2.8414433680742D-06 -3.3365099406771D-05
   271  2.7000000000000D+00  2.1502112616984D-06 -2.5288520009942D-05
   272  2.7100000000000D+00  1.2555323355734D-06 -1.4511222812243D-05
   273  2.7200000000000D+00  3.6123274265725D-07 -4.0733307784886D-06
   274  2.7300000000000D+00 -1.7270846832227D-07  2.1080988647505D-06
   275  2.7400000000000D+00 -2.7095204687385D-07  3.2947408304700D-06
   276  2.7500000000000D+00 -1.5028951149059D-07  1.8186506055359D-06
   277  2.7600000000000D+00  1.6546711731745D-08 -2.1922994708566D-07
   278  2.7700000000000D+00  5.3474617908073D-08 -7.1310765558704D-07
   279  2.7800000000000D+00  4.3077698321721D-08 -5.7763243913759D-07
   280  2.7900000000000D+00  2.4771574222647D-09 -3.3373922061079D-08
   281  2.8000000000000D+00 -6.4264078201872D-09  7.5458779894003D-08
   282  2.8100000000000D+00 -7.3370286727471D-09  8.6151275671249D-08
   283  2.8200000000000D+00 -2.6951298382930D-09  3.1646172316463D-08
   284  2.8300000000000D+00  0.0000000000000D+00  0.0000000000000D+00
   285  2.8400000000000D+00  0.0000000000000D+00  0.0000000000000D+00
   286  2.8500000000000D+00  0.0000000000000D+00  0.0000000000000D+00
   287  2.8600000000000D+00  0.0000000000000D+00  0.0000000000000D+00
   288  2.8700000000000D+00  0.0000000000000D+00  0.0000000000000D+00
   289  2.8800000000000D+00  0.0000000000000D+00  0.0000000000000D+00
   290  2.8900000000000D+00  0.0000000000000D+00  0.0000000000000D+00
   291  2.9000000000000D+00  0.0000000000000D+00  0.0000000000000D+00
   292  2.9100000000000D+00  0.0000000000000D+00  0.0000000000000D+00
   293  2.9200000000000D+00  0.0000000000000D+00  0.0000000000000D+00
   294  2.9300000000000D+00  0.0000000000000D+00  0.0000000000000D+00
   295  2.9400000000000D+00  0.0000000000000D+00  0.0000000000000D+00
   296  2.9500000000000D+00  0.0000000000000D+00  0.0000000000000D+00
   297  2.9600000000000D+00  0.0000000000000D+00  0.0000000000000D+00
   298  2.9700000000000D+00  0.0000000000000D+00  0.0000000000000D+00
   299  2.9800000000000D+00  0.0000000000000D+00  0.0000000000000D+00
   300  2.9900000000000D+00  0.0000000000000D+00  0.0000000000000D+00
   301  3.0000000000000D+00  0.0000000000000D+00  0.0000000000000D+00
   302  3.0100000000000D+00  0.0000000000000D+00  0.0000000000000D+00
   303  3.0200000000000D+00  0.0000000000000D+00  0.0000000000000D+00
   304  3.0300000000000D+00  0.0000000000000D+00  0.0000000000000D+00
   305  3.0400000000000D+00  0.0000000000000D+00  0.0000000000000D+00
   306  3.0500000000000D+00  0.0000000000000D+00  0.0000000000000D+00
   307  3.0600000000000D+00  0.0000000000000D+00  0.0000000000000D+00
   308  3.0700000000000D+00  0.0000000000000D+00  0.0000000000000D+00
   309  3.0800000000000D+00  0.0000000000000D+00  0.0000000000000D+00
   310  3.0900000000000D+00  0.0000000000000D+00  0.0000000000000D+00
   311  3.1000000000000D+00  0.0000000000000D+00  0.0000000000000D+00
   312  3.1100000000000D+00  0.0000000000000D+00  0.0000000000000D+00
   313  3.1200000000000D+00  0.0000000000000D+00  0.0000000000000D+00
   314  3.1300000000000D+00  0.0000000000000D+00  0.0000000000000D+00
   315  3.1400000000000D+00  0.0000000000000D+00  0.0000000000000D+00
   316  3.1500000000000D+00  0.0000000000000D+00  0.0000000000000D+00
   317  3.1600000000000D+00  0.0000000000000D+00  0.0000000000000D+00
   318  3.1700000000000D+00  0.0000000000000D+00  0.0000000000000D+00
   319  3.1800000000000D+00  0.0000000000000D+00  0.0000000000000D+00
   320  3.1900000000000D+00  0.0000000000000D+00  0.0000000000000D+00
   321  3.2000000000000D+00  0.0000000000000D+00  0.0000000000000D+00
   322  3.2100000000000D+00  0.0000000000000D+00  0.0000000000000D+00
   323  3.2200000000000D+00  0.0000000000000D+00  0.0000000000000D+00
   324  3.2300000000000D+00  0.0000000000000D+00  0.0000000000000D+00
   325  3.2400000000000D+00  0.0000000000000D+00  0.0000000000000D+00
   326  3.2500000000000D+00  0.0000000000000D+00  0.0000000000000D+00
   327  3.2600000000000D+00  0.0000000000000D+00  0.0000000000000D+00
   328  3.2700000000000D+00  0.0000000000000D+00  0.0000000000000D+00
   329  3.2800000000000D+00  0.0000000000000D+00  0.0000000000000D+00
   330  3.2900000000000D+00  0.0000000000000D+00  0.0000000000000D+00
   331  3.3000000000000D+00  0.0000000000000D+00  0.0000000000000D+00
   332  3.3100000000000D+00  0.0000000000000D+00  0.0000000000000D+00
   333  3.3200000000000D+00  0.0000000000000D+00  0.0000000000000D+00
   334  3.3300000000000D+00  0.0000000000000D+00  0.0000000000000D+00
   335  3.3400000000000D+00  0.0000000000000D+00  0.0000000000000D+00
   336  3.3500000000000D+00  0.0000000000000D+00  0.0000000000000D+00
   337  3.3600000000000D+00  0.0000000000000D+00  0.0000000000000D+00
   338  3.3700000000000D+00  0.0000000000000D+00  0.0000000000000D+00
   339  3.3800000000000D+00  0.0000000000000D+00  0.0000000000000D+00
   340  3.3900000000000D+00  0.0000000000000D+00  0.0000000000000D+00
   341  3.4000000000000D+00  0.0000000000000D+00  0.0000000000000D+00
   342  3.4100000000000D+00  0.0000000000000D+00  0.0000000000000D+00
   343  3.4200000000000D+00  0.0000000000000D+00  0.0000000000000D+00
   344  3.4300000000000D+00  0.0000000000000D+00  0.0000000000000D+00
   345  3.4400000000000D+00  0.0000000000000D+00  0.0000000000000D+00
   346  3.4500000000000D+00  0.0000000000000D+00  0.0000000000000D+00
   347  3.4600000000000D+00  0.0000000000000D+00  0.0000000000000D+00
   348  3.4700000000000D+00  0.0000000000000D+00  0.0000000000000D+00
   349  3.4800000000000D+00  0.0000000000000D+00  0.0000000000000D+00
   350  3.4900000000000D+00  0.0000000000000D+00  0.0000000000000D+00
   351  3.5000000000000D+00  0.0000000000000D+00  0.0000000000000D+00
   352  3.5100000000000D+00  0.0000000000000D+00  0.0000000000000D+00
   353  3.5200000000000D+00  0.0000000000000D+00  0.0000000000000D+00
   354  3.5300000000000D+00  0.0000000000000D+00  0.0000000000000D+00
   355  3.5400000000000D+00  0.0000000000000D+00  0.0000000000000D+00
   356  3.5500000000000D+00  0.0000000000000D+00  0.0000000000000D+00
   357  3.5600000000000D+00  0.0000000000000D+00  0.0000000000000D+00
   358  3.5700000000000D+00  0.0000000000000D+00  0.0000000000000D+00
   359  3.5800000000000D+00  0.0000000000000D+00  0.0000000000000D+00
   360  3.5900000000000D+00  0.0000000000000D+00  0.0000000000000D+00
   361  3.6000000000000D+00  0.0000000000000D+00  0.0000000000000D+00
   362  3.6100000000000D+00  0.0000000000000D+00  0.0000000000000D+00
   363  3.6200000000000D+00  0.0000000000000D+00  0.0000000000000D+00
   364  3.6300000000000D+00  0.0000000000000D+00  0.0000000000000D+00
   365  3.6400000000000D+00  0.0000000000000D+00  0.0000000000000D+00
   366  3.6500000000000D+00  0.0000000000000D+00  0.0000000000000D+00
   367  3.6600000000000D+00  0.0000000000000D+00  0.0000000000000D+00
   368  3.6700000000000D+00  0.0000000000000D+00  0.0000000000000D+00
   369  3.6800000000000D+00  0.0000000000000D+00  0.0000000000000D+00
   370  3.6900000000000D+00  0.0000000000000D+00  0.0000000000000D+00
   371  3.7000000000000D+00  0.0000000000000D+00  0.0000000000000D+00
   372  3.7100000000000D+00  0.0000000000000D+00  0.0000000000000D+00
   373  3.7200000000000D+00  0.0000000000000D+00  0.0000000000000D+00
   374  3.7300000000000D+00  0.0000000000000D+00  0.0000000000000D+00
   375  3.7400000000000D+00  0.0000000000000D+00  0.0000000000000D+00
   376  3.7500000000000D+00  0.0000000000000D+00  0.0000000000000D+00
   377  3.7600000000000D+00  0.0000000000000D+00  0.0000000000000D+00
   378  3.7700000000000D+00  0.0000000000000D+00  0.0000000000000D+00
   379  3.7800000000000D+00  0.0000000000000D+00  0.0000000000000D+00
   380  3.7900000000000D+00  0.0000000000000D+00  0.0000000000000D+00
   381  3.8000000000000D+00  0.0000000000000D+00  0.0000000000000D+00
   382  3.8100000000000D+00  0.0000000000000D+00  0.0000000000000D+00
   383  3.8200000000000D+00  0.0000000000000D+00  0.0000000000000D+00
   384  3.8300000000000D+00  0.0000000000000D+00  0.0000000000000D+00
   385  3.8400000000000D+00  0.0000000000000D+00  0.0000000000000D+00
   386  3.8500000000000D+00  0.0000000000000D+00  0.0000000000000D+00
   387  3.8600000000000D+00  0.0000000000000D+00  0.0000000000000D+00
   388  3.8700000000000D+00  0.0000000000000D+00  0.0000000000000D+00
   389  3.8800000000000D+00  0.0000000000000D+00  0.0000000000000D+00
   390  3.8900000000000D+00  0.0000000000000D+00  0.0000000000000D+00
   391  3.9000000000000D+00  0.0000000000000D+00  0.0000000000000D+00
   392  3.9100000000000D+00  0.0000000000000D+00  0.0000000000000D+00
   393  3.9200000000000D+00  0.0000000000000D+00  0.0000000000000D+00
   394  3.9300000000000D+00  0.0000000000000D+00  0.0000000000000D+00
   395  3.9400000000000D+00  0.0000000000000D+00  0.0000000000000D+00
   396  3.9500000000000D+00  0.0000000000000D+00  0.0000000000000D+00
   397  3.9600000000000D+00  0.0000000000000D+00  0.0000000000000D+00
   398  3.9700000000000D+00  0.0000000000000D+00  0.0000000000000D+00
   399  3.9800000000000D+00  0.0000000000000D+00  0.0000000000000D+00
   400  3.9900000000000D+00  0.0000000000000D+00  0.0000000000000D+00
   401  4.0000000000000D+00  0.0000000000000D+00  0.0000000000000D+00
   402  4.0100000000000D+00  0.0000000000000D+00  0.0000000000000D+00
   403  4.0200000000000D+00  0.0000000000000D+00  0.0000000000000D+00
   404  4.0300000000000D+00  0.0000000000000D+00  0.0000000000000D+00
   405  4.0400000000000D+00  0.0000000000000D+00  0.0000000000000D+00
   406  4.0500000000000D+00  0.0000000000000D+00  0.0000000000000D+00
   407  4.0600000000000D+00  0.0000000000000D+00  0.0000000000000D+00
   408  4.0700000000000D+00  0.0000000000000D+00  0.0000000000000D+00
   409  4.0800000000000D+00  0.0000000000000D+00  0.0000000000000D+00
   410  4.0900000000000D+00  0.0000000000000D+00  0.0000000000000D+00
   411  4.1000000000000D+00  0.0000000000000D+00  0.0000000000000D+00
   412  4.1100000000000D+00  0.0000000000000D+00  0.0000000000000D+00
   413  4.1200000000000D+00  0.0000000000000D+00  0.0000000000000D+00
   414  4.1300000000000D+00  0.0000000000000D+00  0.0000000000000D+00
   415  4.1400000000000D+00  0.0000000000000D+00  0.0000000000000D+00
   416  4.1500000000000D+00  0.0000000000000D+00  0.0000000000000D+00
   417  4.1600000000000D+00  0.0000000000000D+00  0.0000000000000D+00
   418  4.1700000000000D+00  0.0000000000000D+00  0.0000000000000D+00
   419  4.1800000000000D+00  0.0000000000000D+00  0.0000000000000D+00
   420  4.1900000000000D+00  0.0000000000000D+00  0.0000000000000D+00
   421  4.2000000000000D+00  0.0000000000000D+00  0.0000000000000D+00
   422  4.2100000000000D+00  0.0000000000000D+00  0.0000000000000D+00