Ag    ONCVPSP-3.3.1  r_core=   2.69244   2.56699   2.50648
     47.0000     19.0000      210904    zatom,zion,pspd
     8       2   2     4   600     0    pspcod,pspxc,lmax,lloc,mmax,r2well
  5.99000000  0.00000000  0.00000000    rchrg fchrg qchrg
     2     3     3     0    nproj
     3     1           extension_switch
     4     4     0    nprojso
   0                         4.1487811905734D-01  3.6273940264870D+00
     1  0.0000000000000D+00 -1.6812246039777D-12 -5.1617599083897D-12
     2  1.0000000000000D-02 -6.4702667032267D-03  6.0150116610825D-02
     3  2.0000000000000D-02 -1.2890636330563D-02  1.2019437073008D-01
     4  3.0000000000000D-02 -1.9211322492842D-02  1.8002712304678D-01
     5  4.0000000000000D-02 -2.5382760048671D-02  2.3954318008928D-01
     6  5.0000000000000D-02 -3.1355715413748D-02  2.9863801584164D-01
     7  6.0000000000000D-02 -3.7081396491530D-02  3.5720799179974D-01
     8  7.0000000000000D-02 -4.2511562097223D-02  4.1515057495299D-01
     9  8.0000000000000D-02 -4.7598630745360D-02  4.7236455318291D-01
    10  9.0000000000000D-02 -5.2295788669405D-02  5.2875024757605D-01
    11  1.0000000000000D-01 -5.6557096939432D-02  5.8420972115649D-01
    12  1.1000000000000D-01 -6.0337597541367D-02  6.3864698355230D-01
    13  1.2000000000000D-01 -6.3593418278291D-02  6.9196819112000D-01
    14  1.3000000000000D-01 -6.6281876351255D-02  7.4408184206290D-01
    15  1.4000000000000D-01 -6.8361580473383D-02  7.9489896609120D-01
    16  1.5000000000000D-01 -6.9792531367741D-02  8.4433330818572D-01
    17  1.6000000000000D-01 -7.0536220495347D-02  8.9230150604130D-01
    18  1.7000000000000D-01 -7.0555726856099D-02  9.3872326078220D-01
    19  1.8000000000000D-01 -6.9815811701092D-02  9.8352150055789D-01
    20  1.9000000000000D-01 -6.8283010991110D-02  1.0266225366459D+00
    21  2.0000000000000D-01 -6.5925725431964D-02  1.0679562117066D+00
    22  2.1000000000000D-01 -6.2714307913196D-02  1.1074560398537D+00
    23  2.2000000000000D-01 -5.8621148173465D-02  1.1450593382265D+00
    24  2.3000000000000D-01 -5.3620754511518D-02  1.1807073497677D+00
    25  2.4000000000000D-01 -4.7689832359133D-02  1.2143453569353D+00
    26  2.5000000000000D-01 -4.0807359528351D-02  1.2459227860984D+00
    27  2.6000000000000D-01 -3.2954657943411D-02  1.2753933023882D+00
    28  2.7000000000000D-01 -2.4115461664905D-02  1.3027148948015D+00
    29  2.8000000000000D-01 -1.4275981011607D-02  1.3278499513765D+00
    30  2.9000000000000D-01 -3.4249625844947D-03  1.3507653242846D+00
    31  3.0000000000000D-01  8.4462550039826D-03  1.3714323847080D+00
    32  3.1000000000000D-01  2.1343689892391D-02  1.3898270673966D+00
    33  3.2000000000000D-01  3.5270670421287D-02  1.4059299048236D+00
    34  3.3000000000000D-01  5.0227793468517D-02  1.4197260508839D+00
    35  3.4000000000000D-01  6.6212887862708D-02  1.4312052941063D+00
    36  3.5000000000000D-01  8.3220983066640D-02  1.4403620603728D+00
    37  3.6000000000000D-01  1.0124428331860D-01  1.4471954051685D+00
    38  3.7000000000000D-01  1.2027214741579D-01  1.4517089954055D+00
    39  3.8000000000000D-01  1.4029107431876D-01  1.4539110808932D+00
    40  3.9000000000000D-01  1.6128469474996D-01  1.4538144555517D+00
    41  4.0000000000000D-01  1.8323376895248D-01  1.4514364084869D+00
    42  4.1000000000000D-01  2.0611619076736D-01  1.4467986650737D+00
    43  4.2000000000000D-01  2.2990699817894D-01  1.4399273182161D+00
    44  4.3000000000000D-01  2.5457839046799D-01  1.4308527499740D+00
    45  4.4000000000000D-01  2.8009975210139D-01  1.4196095437744D+00
    46  4.5000000000000D-01  3.0643768347586D-01  1.4062363874411D+00
    47  4.6000000000000D-01  3.3355603861955D-01  1.3907759673032D+00
    48  4.7000000000000D-01  3.6141596994287D-01  1.3732748536611D+00
    49  4.8000000000000D-01  3.8997598011373D-01  1.3537833779088D+00
    50  4.9000000000000D-01  4.1919198111799D-01  1.3323555016320D+00
    51  5.0000000000000D-01  4.4901736054853D-01  1.3090486780191D+00
    52  5.1000000000000D-01  4.7940305514920D-01  1.2839237059386D+00
    53  5.2000000000000D-01  5.1029763162141D-01  1.2570445770562D+00
    54  5.3000000000000D-01  5.4164737468185D-01  1.2284783163766D+00
    55  5.4000000000000D-01  5.7339638234055D-01  1.1982948166129D+00
    56  5.5000000000000D-01  6.0548666834622D-01  1.1665666667990D+00
    57  5.6000000000000D-01  6.3785827172651D-01  1.1333689755719D+00
    58  5.7000000000000D-01  6.7044937332704D-01  1.0987791895640D+00
    59  5.8000000000000D-01  7.0319641923117D-01  1.0628769073550D+00
    60  5.9000000000000D-01  7.3603425091996D-01  1.0257436894427D+00
    61  6.0000000000000D-01  7.6889624200698D-01  9.8746286469812D-01
    62  6.1000000000000D-01  8.0171444136021D-01  9.4811933378162D-01
    63  6.2000000000000D-01  8.3441972239796D-01  9.0779936999665D-01
    64  6.3000000000000D-01  8.6694193832247D-01  8.6659041806739D-01
    65  6.4000000000000D-01  8.9921008302957D-01  8.2458089132665D-01
    66  6.5000000000000D-01  9.3115245740896D-01  7.8185996780402D-01
    67  6.6000000000000D-01  9.6269684072546D-01  7.3851738570445D-01
    68  6.7000000000000D-01  9.9377066674651D-01  6.9464323876777D-01
    69  6.8000000000000D-01  1.0243012042587D+00  6.5032777199741D-01
    70  6.9000000000000D-01  1.0542157415914D+00  6.0566117824480D-01
    71  7.0000000000000D-01  1.0834417747429D+00  5.6073339613134D-01
    72  7.1000000000000D-01  1.1119071986831D+00  5.1563390978526D-01
    73  7.2000000000000D-01  1.1395405013815D+00  4.7045155086442D-01
    74  7.3000000000000D-01  1.1662709600940D+00  4.2527430332907D-01
    75  7.4000000000000D-01  1.1920288394148D+00  3.8018911141977D-01
    76  7.5000000000000D-01  1.2167455905870D+00  3.3528169128692D-01
    77  7.6000000000000D-01  1.2403540515416D+00  2.9063634670742D-01
    78  7.7000000000000D-01  1.2627886471220D+00  2.4633578931279D-01
    79  7.8000000000000D-01  1.2839855889323D+00  2.0246096374054D-01
    80  7.9000000000000D-01  1.3038830742340D+00  1.5909087810752D-01
    81  8.0000000000000D-01  1.3224214833035D+00  1.1630244018934D-01
    82  8.1000000000000D-01  1.3395435746488D+00  7.4170299675179D-02
    83  8.2000000000000D-01  1.3551946774755D+00  3.2766696851470D-02
    84  8.3000000000000D-01  1.3693228807841D+00 -7.8386819491374D-03
    85  8.4000000000000D-01  1.3818792184703D+00 -4.7578841813900D-02
    86  8.5000000000000D-01  1.3928178497992D+00 -8.6389609330115D-02
    87  8.6000000000000D-01  1.4020962346187D+00 -1.2420975499653D-01
    88  8.7000000000000D-01  1.4096753026743D+00 -1.6098110770265D-01
    89  8.8000000000000D-01  1.4155196163923D+00 -1.9664866103228D-01
    90  8.9000000000000D-01  1.4195975264954D+00 -2.3116067116785D-01
    91  9.0000000000000D-01  1.4218813198238D+00 -2.6446874619266D-01
    92  9.1000000000000D-01  1.4223473587371D+00 -2.9652792660923D-01
    93  9.2000000000000D-01  1.4209762114832D+00 -3.2729675691303D-01
    94  9.3000000000000D-01  1.4177527729292D+00 -3.5673734808257D-01
    95  9.4000000000000D-01  1.4126663750624D+00 -3.8481543086856D-01
    96  9.5000000000000D-01  1.4057108866817D+00 -4.1150039978615D-01
    97  9.6000000000000D-01  1.3968848017194D+00 -4.3676534773700D-01
    98  9.7000000000000D-01  1.3861913156477D+00 -4.6058709120910D-01
    99  9.8000000000000D-01  1.3736383894459D+00 -4.8294618602446D-01
   100  9.9000000000000D-01  1.3592388006271D+00 -5.0382693362652D-01
   101  1.0000000000000D+00  1.3430101808443D+00 -5.2321737792067D-01
   102  1.0100000000000D+00  1.3249750396250D+00 -5.4110929270262D-01
   103  1.0200000000000D+00  1.3051607738057D+00 -5.5749815973105D-01
   104  1.0300000000000D+00  1.2835996622710D+00 -5.7238313752040D-01
   105  1.0400000000000D+00  1.2603288456308D+00 -5.8576702095187D-01
   106  1.0500000000000D+00  1.2353902904986D+00 -5.9765619181959D-01
   107  1.0600000000000D+00  1.2088307380716D+00 -6.0806056044860D-01
   108  1.0700000000000D+00  1.1807016367449D+00 -6.1699349854115D-01
   109  1.0800000000000D+00  1.1510590585280D+00 -6.2447176342476D-01
   110  1.0900000000000D+00  1.1199635990682D+00 -6.3051541389490D-01
   111  1.1000000000000D+00  1.0874802611266D+00 -6.3514771786159D-01
   112  1.1100000000000D+00  1.0536783213863D+00 -6.3839505202611D-01
   113  1.1200000000000D+00  1.0186311805177D+00 -6.4028679382988D-01
   114  1.1300000000000D+00  9.8241619645603D-01 -6.4085520593119D-01
   115  1.1400000000000D+00  9.4511450089850D-01 -6.4013531348242D-01
   116  1.1500000000000D+00  9.0681079906192D-01 -6.3816477449162D-01
   117  1.1600000000000D+00  8.6759315278617D-01 -6.3498374356630D-01
   118  1.1700000000000D+00  8.2755274710240D-01 -6.3063472934660D-01
   119  1.1800000000000D+00  7.8678364043799D-01 -6.2516244594931D-01
   120  1.1900000000000D+00  7.4538249866463D-01 -6.1861365875194D-01
   121  1.2000000000000D+00  7.0344831323309D-01 -6.1103702485438D-01
   122  1.2100000000000D+00  6.6108210368180D-01 -6.0248292856491D-01
   123  1.2200000000000D+00  6.1838660484957D-01 -5.9300331226456D-01
   124  1.2300000000000D+00  5.7546593915910D-01 -5.8265150300886D-01
   125  1.2400000000000D+00  5.3242527436270D-01 -5.7148203523034D-01
   126  1.2500000000000D+00  4.8937046720177D-01 -5.5955046991192D-01
   127  1.2600000000000D+00  4.4640769345804D-01 -5.4691321060154D-01
   128  1.2700000000000D+00  4.0364306488736D-01 -5.3362731664129D-01
   129  1.2800000000000D+00  3.6118223359659D-01 -5.1975031398674D-01
   130  1.2900000000000D+00  3.1912998443857D-01 -5.0534000398924D-01
   131  1.3000000000000D+00  2.7758981600870D-01 -4.9045427051671D-01
   132  1.3100000000000D+00  2.3666351089608D-01 -4.7515088578414D-01
   133  1.3200000000000D+00  1.9645069584436D-01 -4.5948731526067D-01
   134  1.3300000000000D+00  1.5704839248798D-01 -4.4352052202323D-01
   135  1.3400000000000D+00  1.1855055939147D-01 -4.2730677091305D-01
   136  1.3500000000000D+00  8.1047626105259D-02 -4.1090143285061D-01
   137  1.3600000000000D+00  4.4626019977190D-02 -3.9435878966326D-01
   138  1.3700000000000D+00  9.3676864952313D-03 -3.7773183975787D-01
   139  1.3800000000000D+00 -2.4650396082129D-02 -3.6107210498089D-01
   140  1.3900000000000D+00 -5.7356707011811D-02 -3.4442943898941D-01
   141  1.4000000000000D+00 -8.8685677475128D-02 -3.2785183743843D-01
   142  1.4100000000000D+00 -1.1857818831441D-01 -3.1138525031120D-01
   143  1.4200000000000D+00 -1.4698207028224D-01 -2.9507339666355D-01
   144  1.4300000000000D+00 -1.7385260600348D-01 -2.7895758208183D-01
   145  1.4400000000000D+00 -1.9915303283176D-01 -2.6307651912585D-01
   146  1.4500000000000D+00 -2.2285504580943D-01 -2.4746615099665D-01
   147  1.4600000000000D+00 -2.4493929990694D-01 -2.3215947871205D-01
   148  1.4700000000000D+00 -2.6539591077427D-01 -2.1718639197868D-01
   149  1.4800000000000D+00 -2.8422495319396D-01 -2.0257350401976D-01
   150  1.4900000000000D+00 -3.0143717770500D-01 -1.8834394399288D-01
   151  1.5000000000000D+00 -3.1705343380321D-01 -1.7451742506966D-01
   152  1.5100000000000D+00 -3.3110452721825D-01 -1.6111022508695D-01
   153  1.5200000000000D+00 -3.4364571973650D-01 -1.4813208727944D-01
   154  1.5300000000000D+00 -3.5473338458366D-01 -1.3559109261569D-01
   155  1.5400000000000D+00 -3.6438002974657D-01 -1.2350309301531D-01
   156  1.5500000000000D+00 -3.7268098098308D-01 -1.1186499234699D-01
   157  1.5600000000000D+00 -3.7986468687302D-01 -1.0064414120518D-01
   158  1.5700000000000D+00 -3.8605504552590D-01 -8.9828282080141D-02
   159  1.5800000000000D+00 -3.9123444524646D-01 -7.9433388554914D-02
   160  1.5900000000000D+00 -3.9543036944238D-01 -6.9464711793959D-02
   161  1.6000000000000D+00 -3.9871765645160D-01 -5.9916374294542D-02
   162  1.6100000000000D+00 -4.0115217055320D-01 -5.0785258750383D-02
   163  1.6200000000000D+00 -4.0278066632533D-01 -4.2068999188685D-02
   164  1.6300000000000D+00 -4.0365074777041D-01 -3.3763954698135D-02
   165  1.6400000000000D+00 -4.0380791233906D-01 -2.5865875036111D-02
   166  1.6500000000000D+00 -4.0329533241585D-01 -1.8369995030286D-02
   167  1.6600000000000D+00 -4.0215413103038D-01 -1.1271025313806D-02
   168  1.6700000000000D+00 -4.0042348709324D-01 -4.5631779703854D-03
   169  1.6800000000000D+00 -3.9814073676090D-01  1.7598077121699D-03
   170  1.6900000000000D+00 -3.9534147101357D-01  7.7046394145192D-03
   171  1.7000000000000D+00 -3.9205962919930D-01  1.3278445894914D-02
   172  1.7100000000000D+00 -3.8832758871666D-01  1.8488751081219D-02
   173  1.7200000000000D+00 -3.8417625060258D-01  2.3343448158657D-02
   174  1.7300000000000D+00 -3.7963512122152D-01  2.7850773698575D-02
   175  1.7400000000000D+00 -3.7473238985415D-01  3.2019281845947D-02
   176  1.7500000000000D+00 -3.6949500239633D-01  3.5857818609448D-02
   177  1.7600000000000D+00 -3.6394873101004D-01  3.9375496277269D-02
   178  1.7700000000000D+00 -3.5811823993385D-01  4.2581667999426D-02
   179  1.7800000000000D+00 -3.5202714735168D-01  4.5485902565434D-02
   180  1.7900000000000D+00 -3.4569808350685D-01  4.8097959414324D-02
   181  1.8000000000000D+00 -3.3915274503081D-01  5.0427763910815D-02
   182  1.8100000000000D+00 -3.3241194563601D-01  5.2485382921363D-02
   183  1.8200000000000D+00 -3.2549566322365D-01  5.4281000726511D-02
   184  1.8300000000000D+00 -3.1842308350599D-01  5.5824895302333D-02
   185  1.8400000000000D+00 -3.1121264027961D-01  5.7127415005673D-02
   186  1.8500000000000D+00 -3.0388205239513D-01  5.8198955699547D-02
   187  1.8600000000000D+00 -2.9644835763914D-01  5.9049938345142D-02
   188  1.8700000000000D+00 -2.8892794352894D-01  5.9690787106814D-02
   189  1.8800000000000D+00 -2.8133657529086D-01  6.0131907980914D-02
   190  1.8900000000000D+00 -2.7368942101332D-01  6.0383668008361D-02
   191  1.9000000000000D+00 -2.6600107423815D-01  6.0456375069282D-02
   192  1.9100000000000D+00 -2.5828557404298D-01  6.0360258319906D-02
   193  1.9200000000000D+00 -2.5055642280931D-01  6.0105449275411D-02
   194  1.9300000000000D+00 -2.4282660180837D-01  5.9701963579981D-02
   195  1.9400000000000D+00 -2.3510858474689D-01  5.9159683490641D-02
   196  1.9500000000000D+00 -2.2741434943855D-01  5.8488341079401D-02
   197  1.9600000000000D+00 -2.1975538774433D-01  5.7697502217405D-02
   198  1.9700000000000D+00 -2.1214271391954D-01  5.6796551303099D-02
   199  1.9800000000000D+00 -2.0458687155611D-01  5.5794676822948D-02
   200  1.9900000000000D+00 -1.9709793921589D-01  5.4700857699005D-02
   201  2.0000000000000D+00 -1.8968553495001D-01  5.3523850482019D-02
   202  2.0100000000000D+00 -1.8235881983533D-01  5.2272177394878D-02
   203  2.0200000000000D+00 -1.7512650062508D-01  5.0954115208693D-02
   204  2.0300000000000D+00 -1.6799683177130D-01  4.9577685029689D-02
   205  2.0400000000000D+00 -1.6097761677667D-01  4.8150642913485D-02
   206  2.0500000000000D+00 -1.5407620920437D-01  4.6680471406016D-02
   207  2.0600000000000D+00 -1.4729951331989D-01  4.5174371948592D-02
   208  2.0700000000000D+00 -1.4065398453198D-01  4.3639258167612D-02
   209  2.0800000000000D+00 -1.3414562985522D-01  4.2081750089689D-02
   210  2.0900000000000D+00 -1.2778000824750D-01  4.0508169186614D-02
   211  2.1000000000000D+00 -1.2156223127816D-01  3.8924534367301D-02
   212  2.1100000000000D+00 -1.1549696390729D-01  3.7336558804475D-02
   213  2.1200000000000D+00 -1.0958842562242D-01  3.5749647637312D-02
   214  2.1300000000000D+00 -1.0384039210776D-01  3.4168896566173D-02
   215  2.1400000000000D+00 -9.8256197196174D-02  3.2599091231208D-02
   216  2.1500000000000D+00 -9.2838735642429D-02  3.1044707491904D-02
   217  2.1600000000000D+00 -8.7590466373123D-02  2.9509912478642D-02
   218  2.1700000000000D+00 -8.2513416430291D-02  2.7998566440916D-02
   219  2.1800000000000D+00 -7.7609185824356D-02  2.6514225413310D-02
   220  2.1900000000000D+00 -7.2878952918190D-02  2.5060144573670D-02
   221  2.2000000000000D+00 -6.8323480870270D-02  2.3639282386627D-02
   222  2.2100000000000D+00 -6.3943124845522D-02  2.2254305432384D-02
   223  2.2200000000000D+00 -5.9737839969492D-02  2.0907593884784D-02
   224  2.2300000000000D+00 -5.5707190440393D-02  1.9601247694686D-02
   225  2.2400000000000D+00 -5.1850359267907D-02  1.8337093337005D-02
   226  2.2500000000000D+00 -4.8166159021066D-02  1.7116691166161D-02
   227  2.2600000000000D+00 -4.4653043545357D-02  1.5941343339148D-02
   228  2.2700000000000D+00 -4.1309120288415D-02  1.4812102211232D-02
   229  2.2800000000000D+00 -3.8132163758685D-02  1.3729779260438D-02
   230  2.2900000000000D+00 -3.5119629671004D-02  1.2694954435348D-02
   231  2.3000000000000D+00 -3.2268669769293D-02  1.1707985895416D-02
   232  2.3100000000000D+00 -2.9576147650947D-02  1.0769020153000D-02
   233  2.3200000000000D+00 -2.7038655072256D-02  9.8780025180752D-03
   234  2.3300000000000D+00 -2.4652528959996D-02  9.0346878381021D-03
   235  2.3400000000000D+00 -2.2413869133370D-02  8.2386514954284D-03
   236  2.3500000000000D+00 -2.0318556379440D-02  7.4893006028354D-03
   237  2.3600000000000D+00 -1.8362271134145D-02  6.7858853698625D-03
   238  2.3700000000000D+00 -1.6540512577710D-02  6.1275105929821D-03
   239  2.3800000000000D+00 -1.4848617943477D-02  5.5131472406540D-03
   240  2.3900000000000D+00 -1.3281782236937D-02  4.9416440662708D-03
   241  2.4000000000000D+00 -1.1835078090162D-02  4.4117392279458D-03
   242  2.4100000000000D+00 -1.0503475681071D-02  3.9220718984184D-03
   243  2.4200000000000D+00 -9.2818627750551D-03  3.4711937497489D-03
   244  2.4300000000000D+00 -8.1650646721046D-03  3.0575803515511D-03
   245  2.4400000000000D+00 -7.1478640415495D-03  2.6796424377700D-03
   246  2.4500000000000D+00 -6.2250205417571D-03  2.3357369159327D-03
   247  2.4600000000000D+00 -5.3912901697459D-03  2.0241776991260D-03
   248  2.4700000000000D+00 -4.6414442669969D-03  1.7432462877165D-03
   249  2.4800000000000D+00 -3.9702879985606D-03  1.4912019749073D-03
   250  2.4900000000000D+00 -3.3726783969029D-03  1.2662917934190D-03
   251  2.5000000000000D+00 -2.8435418179379D-03  1.0667601012197D-03
   252  2.5100000000000D+00 -2.3778905860257D-03  8.9085768597052D-04
   253  2.5200000000000D+00 -1.9708390528731D-03  7.3685053947075D-04
   254  2.5300000000000D+00 -1.6176188401209D-03  6.0302817707878D-04
   255  2.5400000000000D+00 -1.3135930113692D-03  4.8771138201468D-04
   256  2.5500000000000D+00 -1.0542695258081D-03  3.8925956021739D-04
   257  2.5600000000000D+00 -8.3531369341013D-04  3.0607757155846D-04
   258  2.5700000000000D+00 -6.5255931721463D-04  2.3662190012345D-04
   259  2.5800000000000D+00 -5.0201900728180D-04  1.7940638819172D-04
   260  2.5900000000000D+00 -3.7989339083832D-04  1.3300741177337D-04
   261  2.6000000000000D+00 -2.8258801616344D-04  9.6068128896219D-05
   262  2.6100000000000D+00 -2.0671555421658D-04  6.7302534000425D-05
   263  2.6200000000000D+00 -1.4902435035572D-04  4.5500412581355D-05
   264  2.6300000000000D+00 -1.0648624265736D-04  2.9524880137155D-05
   265  2.6400000000000D+00 -7.6116011545106D-05  1.8304364489578D-05
   266  2.6500000000000D+00 -5.6002379214681D-05  1.0900110721208D-05
   267  2.6600000000000D+00 -4.3969215464518D-05  6.4235483583383D-06
   268  2.6700000000000D+00 -3.8889511705326D-05  4.1656985438502D-06
   269  2.6800000000000D+00 -3.6262383657009D-05  3.1698268617063D-06
   270  2.6900000000000D+00 -3.2899027942873D-05  2.7027394454172D-06
   271  2.7000000000000D+00 -2.4934724780679D-05  2.0449671529513D-06
   272  2.7100000000000D+00 -1.4308725837149D-05  1.1952274939252D-06
   273  2.7200000000000D+00 -4.0167226237948D-06  3.4434666976925D-07
   274  2.7300000000000D+00  2.0784274825707D-06 -1.6389738971001D-07
   275  2.7400000000000D+00  3.2484030265922D-06 -2.5718608805806D-07
   276  2.7500000000000D+00  1.7930972325847D-06 -1.4269460648638D-07
   277  2.7600000000000D+00 -2.1609846101819D-07  1.5622578885505D-08
   278  2.7700000000000D+00 -7.0291060080013D-07  5.0466577846037D-08
   279  2.7800000000000D+00 -5.6936508826871D-07  4.0639731171248D-08
   280  2.7900000000000D+00 -3.2895887310935D-08  2.3362301134780D-09
   281  2.8000000000000D+00  7.4404030128888D-08 -6.1125949003268D-09
   282  2.8100000000000D+00  8.4947068050793D-08 -6.9787485175939D-09
   283  2.8200000000000D+00  3.1203827597075D-08 -2.5635218564122D-09
   284  2.8300000000000D+00  0.0000000000000D+00  0.0000000000000D+00
   285  2.8400000000000D+00  0.0000000000000D+00  0.0000000000000D+00
   286  2.8500000000000D+00  0.0000000000000D+00  0.0000000000000D+00
   287  2.8600000000000D+00  0.0000000000000D+00  0.0000000000000D+00
   288  2.8700000000000D+00  0.0000000000000D+00  0.0000000000000D+00
   289  2.8800000000000D+00  0.0000000000000D+00  0.0000000000000D+00
   290  2.8900000000000D+00  0.0000000000000D+00  0.0000000000000D+00
   291  2.9000000000000D+00  0.0000000000000D+00  0.0000000000000D+00
   292  2.9100000000000D+00  0.0000000000000D+00  0.0000000000000D+00
   293  2.9200000000000D+00  0.0000000000000D+00  0.0000000000000D+00
   294  2.9300000000000D+00  0.0000000000000D+00  0.0000000000000D+00
   295  2.9400000000000D+00  0.0000000000000D+00  0.0000000000000D+00
   296  2.9500000000000D+00  0.0000000000000D+00  0.0000000000000D+00
   297  2.9600000000000D+00  0.0000000000000D+00  0.0000000000000D+00
   298  2.9700000000000D+00  0.0000000000000D+00  0.0000000000000D+00
   299  2.9800000000000D+00  0.0000000000000D+00  0.0000000000000D+00
   300  2.9900000000000D+00  0.0000000000000D+00  0.0000000000000D+00
   301  3.0000000000000D+00  0.0000000000000D+00  0.0000000000000D+00
   302  3.0100000000000D+00  0.0000000000000D+00  0.0000000000000D+00
   303  3.0200000000000D+00  0.0000000000000D+00  0.0000000000000D+00
   304  3.0300000000000D+00  0.0000000000000D+00  0.0000000000000D+00
   305  3.0400000000000D+00  0.0000000000000D+00  0.0000000000000D+00
   306  3.0500000000000D+00  0.0000000000000D+00  0.0000000000000D+00
   307  3.0600000000000D+00  0.0000000000000D+00  0.0000000000000D+00
   308  3.0700000000000D+00  0.0000000000000D+00  0.0000000000000D+00
   309  3.0800000000000D+00  0.0000000000000D+00  0.0000000000000D+00
   310  3.0900000000000D+00  0.0000000000000D+00  0.0000000000000D+00
   311  3.1000000000000D+00  0.0000000000000D+00  0.0000000000000D+00
   312  3.1100000000000D+00  0.0000000000000D+00  0.0000000000000D+00
   313  3.1200000000000D+00  0.0000000000000D+00  0.0000000000000D+00
   314  3.1300000000000D+00  0.0000000000000D+00  0.0000000000000D+00
   315  3.1400000000000D+00  0.0000000000000D+00  0.0000000000000D+00
   316  3.1500000000000D+00  0.0000000000000D+00  0.0000000000000D+00
   317  3.1600000000000D+00  0.0000000000000D+00  0.0000000000000D+00
   318  3.1700000000000D+00  0.0000000000000D+00  0.0000000000000D+00
   319  3.1800000000000D+00  0.0000000000000D+00  0.0000000000000D+00
   320  3.1900000000000D+00  0.0000000000000D+00  0.0000000000000D+00
   321  3.2000000000000D+00  0.0000000000000D+00  0.0000000000000D+00
   322  3.2100000000000D+00  0.0000000000000D+00  0.0000000000000D+00
   323  3.2200000000000D+00  0.0000000000000D+00  0.0000000000000D+00
   324  3.2300000000000D+00  0.0000000000000D+00  0.0000000000000D+00
   325  3.2400000000000D+00  0.0000000000000D+00  0.0000000000000D+00
   326  3.2500000000000D+00  0.0000000000000D+00  0.0000000000000D+00
   327  3.2600000000000D+00  0.0000000000000D+00  0.0000000000000D+00
   328  3.2700000000000D+00  0.0000000000000D+00  0.0000000000000D+00
   329  3.2800000000000D+00  0.0000000000000D+00  0.0000000000000D+00
   330  3.2900000000000D+00  0.0000000000000D+00  0.0000000000000D+00
   331  3.3000000000000D+00  0.0000000000000D+00  0.0000000000000D+00
   332  3.3100000000000D+00  0.0000000000000D+00  0.0000000000000D+00
   333  3.3200000000000D+00  0.0000000000000D+00  0.0000000000000D+00
   334  3.3300000000000D+00  0.0000000000000D+00  0.0000000000000D+00
   335  3.3400000000000D+00  0.0000000000000D+00  0.0000000000000D+00
   336  3.3500000000000D+00  0.0000000000000D+00  0.0000000000000D+00
   337  3.3600000000000D+00  0.0000000000000D+00  0.0000000000000D+00
   338  3.3700000000000D+00  0.0000000000000D+00  0.0000000000000D+00
   339  3.3800000000000D+00  0.0000000000000D+00  0.0000000000000D+00
   340  3.3900000000000D+00  0.0000000000000D+00  0.0000000000000D+00
   341  3.4000000000000D+00  0.0000000000000D+00  0.0000000000000D+00
   342  3.4100000000000D+00  0.0000000000000D+00  0.0000000000000D+00
   343  3.4200000000000D+00  0.0000000000000D+00  0.0000000000000D+00
   344  3.4300000000000D+00  0.0000000000000D+00  0.0000000000000D+00
   345  3.4400000000000D+00  0.0000000000000D+00  0.0000000000000D+00
   346  3.4500000000000D+00  0.0000000000000D+00  0.0000000000000D+00
   347  3.4600000000000D+00  0.0000000000000D+00  0.0000000000000D+00
   348  3.4700000000000D+00  0.0000000000000D+00  0.0000000000000D+00
   349  3.4800000000000D+00  0.0000000000000D+00  0.0000000000000D+00
   350  3.4900000000000D+00  0.0000000000000D+00  0.0000000000000D+00
   351  3.5000000000000D+00  0.0000000000000D+00  0.0000000000000D+00
   352  3.5100000000000D+00  0.0000000000000D+00  0.0000000000000D+00
   353  3.5200000000000D+00  0.0000000000000D+00  0.0000000000000D+00
   354  3.5300000000000D+00  0.0000000000000D+00  0.0000000000000D+00
   355  3.5400000000000D+00  0.0000000000000D+00  0.0000000000000D+00
   356  3.5500000000000D+00  0.0000000000000D+00  0.0000000000000D+00
   357  3.5600000000000D+00  0.0000000000000D+00  0.0000000000000D+00
   358  3.5700000000000D+00  0.0000000000000D+00  0.0000000000000D+00
   359  3.5800000000000D+00  0.0000000000000D+00  0.0000000000000D+00
   360  3.5900000000000D+00  0.0000000000000D+00  0.0000000000000D+00
   361  3.6000000000000D+00  0.0000000000000D+00  0.0000000000000D+00
   362  3.6100000000000D+00  0.0000000000000D+00  0.0000000000000D+00
   363  3.6200000000000D+00  0.0000000000000D+00  0.0000000000000D+00
   364  3.6300000000000D+00  0.0000000000000D+00  0.0000000000000D+00
   365  3.6400000000000D+00  0.0000000000000D+00  0.0000000000000D+00
   366  3.6500000000000D+00  0.0000000000000D+00  0.0000000000000D+00
   367  3.6600000000000D+00  0.0000000000000D+00  0.0000000000000D+00
   368  3.6700000000000D+00  0.0000000000000D+00  0.0000000000000D+00
   369  3.6800000000000D+00  0.0000000000000D+00  0.0000000000000D+00
   370  3.6900000000000D+00  0.0000000000000D+00  0.0000000000000D+00
   371  3.7000000000000D+00  0.0000000000000D+00  0.0000000000000D+00
   372  3.7100000000000D+00  0.0000000000000D+00  0.0000000000000D+00
   373  3.7200000000000D+00  0.0000000000000D+00  0.0000000000000D+00
   374  3.7300000000000D+00  0.0000000000000D+00  0.0000000000000D+00
   375  3.7400000000000D+00  0.0000000000000D+00  0.0000000000000D+00
   376  3.7500000000000D+00  0.0000000000000D+00  0.0000000000000D+00
   377  3.7600000000000D+00  0.0000000000000D+00  0.0000000000000D+00
   378  3.7700000000000D+00  0.0000000000000D+00  0.0000000000000D+00
   379  3.7800000000000D+00  0.0000000000000D+00  0.0000000000000D+00
   380  3.7900000000000D+00  0.0000000000000D+00  0.0000000000000D+00
   381  3.8000000000000D+00  0.0000000000000D+00  0.0000000000000D+00
   382  3.8100000000000D+00  0.0000000000000D+00  0.0000000000000D+00
   383  3.8200000000000D+00  0.0000000000000D+00  0.0000000000000D+00
   384  3.8300000000000D+00  0.0000000000000D+00  0.0000000000000D+00
   385  3.8400000000000D+00  0.0000000000000D+00  0.0000000000000D+00
   386  3.8500000000000D+00  0.0000000000000D+00  0.0000000000000D+00
   387  3.8600000000000D+00  0.0000000000000D+00  0.0000000000000D+00
   388  3.8700000000000D+00  0.0000000000000D+00  0.0000000000000D+00
   389  3.8800000000000D+00  0.0000000000000D+00  0.0000000000000D+00
   390  3.8900000000000D+00  0.0000000000000D+00  0.0000000000000D+00
   391  3.9000000000000D+00  0.0000000000000D+00  0.0000000000000D+00
   392  3.9100000000000D+00  0.0000000000000D+00  0.0000000000000D+00
   393  3.9200000000000D+00  0.0000000000000D+00  0.0000000000000D+00
   394  3.9300000000000D+00  0.0000000000000D+00  0.0000000000000D+00
   395  3.9400000000000D+00  0.0000000000000D+00  0.0000000000000D+00
   396  3.9500000000000D+00  0.0000000000000D+00  0.0000000000000D+00
   397  3.9600000000000D+00  0.0000000000000D+00  0.0000000000000D+00
   398  3.9700000000000D+00  0.0000000000000D+00  0.0000000000000D+00
   399  3.9800000000000D+00  0.0000000000000D+00  0.0000000000000D+00
   400  3.9900000000000D+00  0.0000000000000D+00  0.0000000000000D+00
   401  4.0000000000000D+00  0.0000000000000D+00  0.0000000000000D+00
   402  4.0100000000000D+00  0.0000000000000D+00  0.0000000000000D+00
   403  4.0200000000000D+00  0.0000000000000D+00  0.0000000000000D+00
   404  4.0300000000000D+00  0.0000000000000D+00  0.0000000000000D+00
   405  4.0400000000000D+00  0.0000000000000D+00  0.0000000000000D+00
   406  4.0500000000000D+00  0.0000000000000D+00  0.0000000000000D+00
   407  4.0600000000000D+00  0.0000000000000D+00  0.0000000000000D+00
   408  4.0700000000000D+00  0.0000000000000D+00  0.0000000000000D+00
   409  4.0800000000000D+00  0.0000000000000D+00  0.0000000000000D+00
   410  4.0900000000000D+00  0.0000000000000D+00  0.0000000000000D+00
   411  4.1000000000000D+00  0.0000000000000D+00  0.0000000000000D+00
   412  4.1100000000000D+00  0.0000000000000D+00  0.0000000000000D+00
   413  4.1200000000000D+00  0.0000000000000D+00  0.0000000000000D+00
   414  4.1300000000000D+00  0.0000000000000D+00  0.0000000000000D+00
   415  4.1400000000000D+00  0.0000000000000D+00  0.0000000000000D+00
   416  4.1500000000000D+00  0.0000000000000D+00  0.0000000000000D+00
   417  4.1600000000000D+00  0.0000000000000D+00  0.0000000000000D+00
   418  4.1700000000000D+00  0.0000000000000D+00  0.0000000000000D+00
   419  4.1800000000000D+00  0.0000000000000D+00  0.0000000000000D+00
   420  4.1900000000000D+00  0.0000000000000D+00  0.0000000000000D+00
   421  4.2000000000000D+00  0.0000000000000D+00  0.0000000000000D+00
   422  4.2100000000000D+00  0.0000000000000D+00  0.0000000000000D+00