Al    ONCVPSP-3.3.1  r_core=   1.31212   2.41091
     13.0000     11.0000      210904    zatom,zion,pspd
     8       2   1     4   600     0    pspcod,pspxc,lmax,lloc,mmax,r2well
  5.99000000  0.00000000  0.00000000    rchrg fchrg qchrg
     2     2     0     0    nproj
     3     1           extension_switch
     3     0     0    nprojso
   0                        -4.2340461590062D-01  2.8263809693131D+00
     1  0.0000000000000D+00  1.7812346320145D-09  1.0872529543349D-09
     2  1.0000000000000D-02  2.2834445634193D-02  1.2192444931125D-01
     3  2.0000000000000D-02  4.5807427068301D-02  2.4328657405388D-01
     4  3.0000000000000D-02  6.9055354078151D-02  3.6352631772900D-01
     5  4.0000000000000D-02  9.2710414968308D-02  4.8208816231727D-01
     6  5.0000000000000D-02  1.1689854181579D-01  5.9842340308152D-01
     7  6.0000000000000D-02  1.4173746560002D-01  7.1199242924675D-01
     8  7.0000000000000D-02  1.6733488905377D-01  8.2226701120535D-01
     9  8.0000000000000D-02  1.9378680328889D-01  9.2873259380794D-01
    10  9.0000000000000D-02  2.2117597207551D-01  1.0308905939865D+00
    11  1.0000000000000D-01  2.4957060511928D-01  1.1282606994454D+00
    12  1.1000000000000D-01  2.7902323882465D-01  1.2203831634810D+00
    13  1.2000000000000D-01  3.0956983990032D-01  1.3068210891895D+00
    14  1.3000000000000D-01  3.4122914380047D-01  1.3871626944380D+00
    15  1.4000000000000D-01  3.7400223645766D-01  1.4610235470473D+00
    16  1.5000000000000D-01  4.0787238410189D-01  1.5280487577163D+00
    17  1.6000000000000D-01  4.4280511223466D-01  1.5879151163490D+00
    18  1.7000000000000D-01  4.7874853109205D-01  1.6403331556788D+00
    19  1.8000000000000D-01  5.1563390124724D-01  1.6850491244662D+00
    20  1.9000000000000D-01  5.5337642942583D-01  1.7218468511151D+00
    21  2.0000000000000D-01  5.9187628119394D-01  1.7505494773668D+00
    22  2.1000000000000D-01  6.3101979398119D-01  1.7710210408079D+00
    23  2.2000000000000D-01  6.7068087096986D-01  1.7831678843319D+00
    24  2.3000000000000D-01  7.1072253376177D-01  1.7869398704252D+00
    25  2.4000000000000D-01  7.5099860946885D-01  1.7823313782644D+00
    26  2.5000000000000D-01  7.9135552599488D-01  1.7693820621009D+00
    27  2.6000000000000D-01  8.3163418781682D-01  1.7481773503163D+00
    28  2.7000000000000D-01  8.7167190355461D-01  1.7188486658363D+00
    29  2.8000000000000D-01  9.1130433605608D-01  1.6815733503107D+00
    30  2.9000000000000D-01  9.5036744562616D-01  1.6365742765893D+00
    31  3.0000000000000D-01  9.8869939739863D-01  1.5841191365229D+00
    32  3.1000000000000D-01  1.0261424046766D+00  1.5245193939929D+00
    33  3.2000000000000D-01  1.0625444813434D+00  1.4581288962703D+00
    34  3.3000000000000D-01  1.0977610781434D+00  1.3853421403039D+00
    35  3.4000000000000D-01  1.1316565797296D+00  1.3065921942874D+00
    36  3.5000000000000D-01  1.1641056418304D+00  1.2223482788116D+00
    37  3.6000000000000D-01  1.1949943506700D+00  1.1331130160094D+00
    38  3.7000000000000D-01  1.2242211898259D+00  1.0394193592991D+00
    39  3.8000000000000D-01  1.2516978029912D+00  9.4182722055416D-01
    40  3.9000000000000D-01  1.2773495445525D+00  8.4091981571656D-01
    41  4.0000000000000D-01  1.3011158134582D+00  7.3729975395708D-01
    42  4.1000000000000D-01  1.3229501694625D+00  6.3158489940132D-01
    43  4.2000000000000D-01  1.3428202344399D+00  5.2440403812449D-01
    44  4.3000000000000D-01  1.3607073849975D+00  4.1639238649925D-01
    45  4.4000000000000D-01  1.3766062460286D+00  3.0818698000437D-01
    46  4.5000000000000D-01  1.3905239980712D+00  2.0042198420631D-01
    47  4.6000000000000D-01  1.4024795143245D+00  9.3723971761799D-02
    48  4.7000000000000D-01  1.4125023458730D+00 -1.1292789090827D-02
    49  4.8000000000000D-01  1.4206315760291D+00 -1.1403098801761D-01
    50  4.9000000000000D-01  1.4269145666957D+00 -2.1391482103771D-01
    51  5.0000000000000D-01  1.4314056212283D+00 -3.1039438704629D-01
    52  5.1000000000000D-01  1.4341645894278D+00 -4.0294988626991D-01
    53  5.2000000000000D-01  1.4352554409880D+00 -4.9109557588318D-01
    54  5.3000000000000D-01  1.4347448339576D+00 -5.7438344000269D-01
    55  5.4000000000000D-01  1.4327007045473D+00 -6.5240653386215D-01
    56  5.5000000000000D-01  1.4291909039185D+00 -7.2480196513871D-01
    57  5.6000000000000D-01  1.4242819064657D+00 -7.9125347909420D-01
    58  5.7000000000000D-01  1.4180376125383D+00 -8.5149361840025D-01
    59  5.8000000000000D-01  1.4105182666102D+00 -9.0530543313558D-01
    60  5.9000000000000D-01  1.4017795095919D+00 -9.5252372146913D-01
    61  6.0000000000000D-01  1.3918715813757D+00 -9.9303578684145D-01
    62  6.1000000000000D-01  1.3808386868098D+00 -1.0267817030322D+00
    63  6.2000000000000D-01  1.3687185352305D+00 -1.0537540841730D+00
    64  6.3000000000000D-01  1.3555420604196D+00 -1.0739973625715D+00
    65  6.4000000000000D-01  1.3413333245418D+00 -1.0876065829435D+00
    66  6.5000000000000D-01  1.3261096062550D+00 -1.0947257273117D+00
    67  6.6000000000000D-01  1.3098816698543D+00 -1.0955455903034D+00
    68  6.7000000000000D-01  1.2926542090991D+00 -1.0903012297603D+00
    69  6.8000000000000D-01  1.2744264562974D+00 -1.0792690224159D+00
    70  6.9000000000000D-01  1.2551929443683D+00 -1.0627633588192D+00
    71  7.0000000000000D-01  1.2349444070228D+00 -1.0411330155907D+00
    72  7.1000000000000D-01  1.2136687999411D+00 -1.0147572464587D+00
    73  7.2000000000000D-01  1.1913524239155D+00 -9.8404163627416D-01
    74  7.3000000000000D-01  1.1679811294196D+00 -9.4941376430256D-01
    75  7.4000000000000D-01  1.1435415809824D+00 -9.1131872449853D-01
    76  7.5000000000000D-01  1.1180225591063D+00 -8.7021455117757D-01
    77  7.6000000000000D-01  1.0914162772812D+00 -8.2656759848586D-01
    78  7.7000000000000D-01  1.0637196919237D+00 -7.8084792135244D-01
    79  7.8000000000000D-01  1.0349357837971D+00 -7.3352470417748D-01
    80  7.9000000000000D-01  1.0050747906306D+00 -6.8506178141777D-01
    81  8.0000000000000D-01  9.7415537223810D-01 -6.3591329149688D-01
    82  8.1000000000000D-01  9.4220569139398D-01 -5.8651950214574D-01
    83  8.2000000000000D-01  9.0926439602910D-01 -5.3730284142720D-01
    84  8.3000000000000D-01  8.7538149091118D-01 -4.8866416438161D-01
    85  8.4000000000000D-01  8.4061908981941D-01 -4.4097928052468D-01
    86  8.5000000000000D-01  8.0505204225849D-01 -3.9459576241383D-01
    87  8.6000000000000D-01  7.6876843191948D-01 -3.4983005026192D-01
    88  8.7000000000000D-01  7.3186994732209D-01 -3.0696486220658D-01
    89  8.8000000000000D-01  6.9447212829984D-01 -2.6624691443023D-01
    90  8.9000000000000D-01  6.5670449515096D-01 -2.2788494996345D-01
    91  9.0000000000000D-01  6.1871057031105D-01 -1.9204806978105D-01
    92  9.1000000000000D-01  5.8064780906304D-01 -1.5886435259185D-01
    93  9.2000000000000D-01  5.4268744714189D-01 -1.2841975048550D-01
    94  9.3000000000000D-01  5.0501417253209D-01 -1.0075731115211D-01
    95  9.4000000000000D-01  4.6782632106403D-01 -7.5876289171448D-02
    96  9.5000000000000D-01  4.3133313978712D-01 -5.3733156098520D-02
    97  9.6000000000000D-01  3.9573918007672D-01 -3.4250683243599D-02
    98  9.7000000000000D-01  3.6122960531679D-01 -1.7328427829058D-02
    99  9.8000000000000D-01  3.2796870027975D-01 -2.8465325301444D-03
   100  9.9000000000000D-01  2.9610050342908D-01  9.3316205406121D-03
   101  1.0000000000000D+00  2.6574562054258D-01  1.9354032726470D-02
   102  1.0100000000000D+00  2.3701440096749D-01  2.7386658258637D-02
   103  1.0200000000000D+00  2.0998490371988D-01  3.3594287407104D-02
   104  1.0300000000000D+00  1.8460309871520D-01  3.8064544655936D-02
   105  1.0400000000000D+00  1.6101368381492D-01  4.1043575765952D-02
   106  1.0500000000000D+00  1.3928606782528D-01  4.2738611044963D-02
   107  1.0600000000000D+00  1.1939082005416D-01  4.3297559249913D-02
   108  1.0700000000000D+00  1.0132287870892D-01  4.2893403636219D-02
   109  1.0800000000000D+00  8.5051086103224D-02  4.1686040320986D-02
   110  1.0900000000000D+00  7.0529205514411D-02  3.9827705786324D-02
   111  1.1000000000000D+00  5.7696282698152D-02  3.7461029718213D-02
   112  1.1100000000000D+00  4.6477895224371D-02  3.4717866634215D-02
   113  1.1200000000000D+00  3.6787634970087D-02  3.1718450824148D-02
   114  1.1300000000000D+00  2.8528694567845D-02  2.8570785052671D-02
   115  1.1400000000000D+00  2.1595565677493D-02  2.5370269653836D-02
   116  1.1500000000000D+00  1.5875832403149D-02  2.2199558825075D-02
   117  1.1600000000000D+00  1.1252041276350D-02  1.9128628282515D-02
   118  1.1700000000000D+00  7.6036268402051D-03  1.6215035049766D-02
   119  1.1800000000000D+00  4.8088702677117D-03  1.3504347870014D-02
   120  1.1900000000000D+00  2.7468665736845D-03  1.1030723825741D-02
   121  1.2000000000000D+00  1.2994754977833D-03  8.8176057359299D-03
   122  1.2100000000000D+00  3.5323047212921D-04  6.8785136886480D-03
   123  1.2200000000000D+00 -1.9882024749502D-04  5.2179030343243D-03
   124  1.2300000000000D+00 -4.5536540074320D-04  3.8320615862993D-03
   125  1.2400000000000D+00 -5.0519975015192D-04  2.7100193459794D-03
   126  1.2500000000000D+00 -4.2573404911998D-04  1.8344442609759D-03
   127  1.2600000000000D+00 -2.8166678698491D-04  1.1825001875350D-03
   128  1.2700000000000D+00 -1.2355792836469D-04  7.2686134063451D-04
   129  1.2800000000000D+00  1.1843817305265D-05  4.3543978912396D-04
   130  1.2900000000000D+00  1.0132758098095D-04  2.7035484656184D-04
   131  1.3000000000000D+00  1.5789451873315D-04  2.1306833407200D-04
   132  1.3100000000000D+00  1.6927181655878D-04  1.9552738011583D-04
   133  1.3200000000000D+00  8.1224351284625D-05  9.2851187005946D-05
   134  1.3300000000000D+00 -9.5051080718592D-06 -1.0661925110857D-05
   135  1.3400000000000D+00 -9.8659133796622D-06 -1.1047563368705D-05
   136  1.3500000000000D+00  3.7959001724290D-06  4.2040055095145D-06
   137  1.3600000000000D+00 -7.4326855641814D-09 -8.5503947854829D-09
   138  1.3700000000000D+00 -4.1205690965110D-07 -4.7402102795546D-07
   139  1.3800000000000D+00  0.0000000000000D+00  0.0000000000000D+00
   140  1.3900000000000D+00  0.0000000000000D+00  0.0000000000000D+00
   141  1.4000000000000D+00  0.0000000000000D+00  0.0000000000000D+00
   142  1.4100000000000D+00  0.0000000000000D+00  0.0000000000000D+00
   143  1.4200000000000D+00  0.0000000000000D+00  0.0000000000000D+00
   144  1.4300000000000D+00  0.0000000000000D+00  0.0000000000000D+00
   145  1.4400000000000D+00  0.0000000000000D+00  0.0000000000000D+00
   146  1.4500000000000D+00  0.0000000000000D+00  0.0000000000000D+00
   147  1.4600000000000D+00  0.0000000000000D+00  0.0000000000000D+00
   148  1.4700000000000D+00  0.0000000000000D+00  0.0000000000000D+00
   149  1.4800000000000D+00  0.0000000000000D+00  0.0000000000000D+00
   150  1.4900000000000D+00  0.0000000000000D+00  0.0000000000000D+00
   151  1.5000000000000D+00  0.0000000000000D+00  0.0000000000000D+00
   152  1.5100000000000D+00  0.0000000000000D+00  0.0000000000000D+00
   153  1.5200000000000D+00  0.0000000000000D+00  0.0000000000000D+00
   154  1.5300000000000D+00  0.0000000000000D+00  0.0000000000000D+00
   155  1.5400000000000D+00  0.0000000000000D+00  0.0000000000000D+00
   156  1.5500000000000D+00  0.0000000000000D+00  0.0000000000000D+00
   157  1.5600000000000D+00  0.0000000000000D+00  0.0000000000000D+00
   158  1.5700000000000D+00  0.0000000000000D+00  0.0000000000000D+00
   159  1.5800000000000D+00  0.0000000000000D+00  0.0000000000000D+00
   160  1.5900000000000D+00  0.0000000000000D+00  0.0000000000000D+00
   161  1.6000000000000D+00  0.0000000000000D+00  0.0000000000000D+00
   162  1.6100000000000D+00  0.0000000000000D+00  0.0000000000000D+00
   163  1.6200000000000D+00  0.0000000000000D+00  0.0000000000000D+00
   164  1.6300000000000D+00  0.0000000000000D+00  0.0000000000000D+00
   165  1.6400000000000D+00  0.0000000000000D+00  0.0000000000000D+00
   166  1.6500000000000D+00  0.0000000000000D+00  0.0000000000000D+00
   167  1.6600000000000D+00  0.0000000000000D+00  0.0000000000000D+00
   168  1.6700000000000D+00  0.0000000000000D+00  0.0000000000000D+00
   169  1.6800000000000D+00  0.0000000000000D+00  0.0000000000000D+00
   170  1.6900000000000D+00  0.0000000000000D+00  0.0000000000000D+00
   171  1.7000000000000D+00  0.0000000000000D+00  0.0000000000000D+00
   172  1.7100000000000D+00  0.0000000000000D+00  0.0000000000000D+00
   173  1.7200000000000D+00  0.0000000000000D+00  0.0000000000000D+00
   174  1.7300000000000D+00  0.0000000000000D+00  0.0000000000000D+00
   175  1.7400000000000D+00  0.0000000000000D+00  0.0000000000000D+00
   176  1.7500000000000D+00  0.0000000000000D+00  0.0000000000000D+00
   177  1.7600000000000D+00  0.0000000000000D+00  0.0000000000000D+00
   178  1.7700000000000D+00  0.0000000000000D+00  0.0000000000000D+00
   179  1.7800000000000D+00  0.0000000000000D+00  0.0000000000000D+00
   180  1.7900000000000D+00  0.0000000000000D+00  0.0000000000000D+00
   181  1.8000000000000D+00  0.0000000000000D+00  0.0000000000000D+00
   182  1.8100000000000D+00  0.0000000000000D+00  0.0000000000000D+00
   183  1.8200000000000D+00  0.0000000000000D+00  0.0000000000000D+00
   184  1.8300000000000D+00  0.0000000000000D+00  0.0000000000000D+00
   185  1.8400000000000D+00  0.0000000000000D+00  0.0000000000000D+00
   186  1.8500000000000D+00  0.0000000000000D+00  0.0000000000000D+00
   187  1.8600000000000D+00  0.0000000000000D+00  0.0000000000000D+00
   188  1.8700000000000D+00  0.0000000000000D+00  0.0000000000000D+00
   189  1.8800000000000D+00  0.0000000000000D+00  0.0000000000000D+00
   190  1.8900000000000D+00  0.0000000000000D+00  0.0000000000000D+00
   191  1.9000000000000D+00  0.0000000000000D+00  0.0000000000000D+00
   192  1.9100000000000D+00  0.0000000000000D+00  0.0000000000000D+00
   193  1.9200000000000D+00  0.0000000000000D+00  0.0000000000000D+00
   194  1.9300000000000D+00  0.0000000000000D+00  0.0000000000000D+00
   195  1.9400000000000D+00  0.0000000000000D+00  0.0000000000000D+00
   196  1.9500000000000D+00  0.0000000000000D+00  0.0000000000000D+00
   197  1.9600000000000D+00  0.0000000000000D+00  0.0000000000000D+00
   198  1.9700000000000D+00  0.0000000000000D+00  0.0000000000000D+00
   199  1.9800000000000D+00  0.0000000000000D+00  0.0000000000000D+00
   200  1.9900000000000D+00  0.0000000000000D+00  0.0000000000000D+00
   201  2.0000000000000D+00  0.0000000000000D+00  0.0000000000000D+00
   202  2.0100000000000D+00  0.0000000000000D+00  0.0000000000000D+00
   203  2.0200000000000D+00  0.0000000000000D+00  0.0000000000000D+00
   204  2.0300000000000D+00  0.0000000000000D+00  0.0000000000000D+00
   205  2.0400000000000D+00  0.0000000000000D+00  0.0000000000000D+00
   206  2.0500000000000D+00  0.0000000000000D+00  0.0000000000000D+00
   207  2.0600000000000D+00  0.0000000000000D+00  0.0000000000000D+00
   208  2.0700000000000D+00  0.0000000000000D+00  0.0000000000000D+00
   209  2.0800000000000D+00  0.0000000000000D+00  0.0000000000000D+00
   210  2.0900000000000D+00  0.0000000000000D+00  0.0000000000000D+00
   211  2.1000000000000D+00  0.0000000000000D+00  0.0000000000000D+00
   212  2.1100000000000D+00  0.0000000000000D+00  0.0000000000000D+00
   213  2.1200000000000D+00  0.0000000000000D+00  0.0000000000000D+00
   214  2.1300000000000D+00  0.0000000000000D+00  0.0000000000000D+00
   215  2.1400000000000D+00  0.0000000000000D+00  0.0000000000000D+00
   216  2.1500000000000D+00  0.0000000000000D+00  0.0000000000000D+00
   217  2.1600000000000D+00  0.0000000000000D+00  0.0000000000000D+00
   218  2.1700000000000D+00  0.0000000000000D+00  0.0000000000000D+00
   219  2.1800000000000D+00  0.0000000000000D+00  0.0000000000000D+00
   220  2.1900000000000D+00  0.0000000000000D+00  0.0000000000000D+00
   221  2.2000000000000D+00  0.0000000000000D+00  0.0000000000000D+00
   222  2.2100000000000D+00  0.0000000000000D+00  0.0000000000000D+00
   223  2.2200000000000D+00  0.0000000000000D+00  0.0000000000000D+00
   224  2.2300000000000D+00  0.0000000000000D+00  0.0000000000000D+00
   225  2.2400000000000D+00  0.0000000000000D+00  0.0000000000000D+00
   226  2.2500000000000D+00  0.0000000000000D+00  0.0000000000000D+00
   227  2.2600000000000D+00  0.0000000000000D+00  0.0000000000000D+00
   228  2.2700000000000D+00  0.0000000000000D+00  0.0000000000000D+00
   229  2.2800000000000D+00  0.0000000000000D+00  0.0000000000000D+00
   230  2.2900000000000D+00  0.0000000000000D+00  0.0000000000000D+00
   231  2.3000000000000D+00  0.0000000000000D+00  0.0000000000000D+00
   232  2.3100000000000D+00  0.0000000000000D+00  0.0000000000000D+00
   233  2.3200000000000D+00  0.0000000000000D+00  0.0000000000000D+00
   234  2.3300000000000D+00  0.0000000000000D+00  0.0000000000000D+00
   235  2.3400000000000D+00  0.0000000000000D+00  0.0000000000000D+00
   236  2.3500000000000D+00  0.0000000000000D+00  0.0000000000000D+00
   237  2.3600000000000D+00  0.0000000000000D+00  0.0000000000000D+00
   238  2.3700000000000D+00  0.0000000000000D+00  0.0000000000000D+00
   239  2.3800000000000D+00  0.0000000000000D+00  0.0000000000000D+00
   240  2.3900000000000D+00  0.0000000000000D+00  0.0000000000000D+00
   241  2.4000000000000D+00  0.0000000000000D+00  0.0000000000000D+00
   242  2.4100000000000D+00  0.0000000000000D+00  0.0000000000000D+00
   243  2.4200000000000D+00  0.0000000000000D+00  0.0000000000000D+00
   244  2.4300000000000D+00  0.0000000000000D+00  0.0000000000000D+00
   245  2.4400000000000D+00  0.0000000000000D+00  0.0000000000000D+00
   246  2.4500000000000D+00  0.0000000000000D+00  0.0000000000000D+00
   247  2.4600000000000D+00  0.0000000000000D+00  0.0000000000000D+00
   248  2.4700000000000D+00  0.0000000000000D+00  0.0000000000000D+00
   249  2.4800000000000D+00  0.0000000000000D+00  0.0000000000000D+00
   250  2.4900000000000D+00  0.0000000000000D+00  0.0000000000000D+00
   251  2.5000000000000D+00  0.0000000000000D+00  0.0000000000000D+00
   252  2.5100000000000D+00  0.0000000000000D+00  0.0000000000000D+00
   253  2.5200000000000D+00  0.0000000000000D+00  0.0000000000000D+00
   254  2.5300000000000D+00  0.0000000000000D+00  0.0000000000000D+00
   255  2.5400000000000D+00  0.0000000000000D+00  0.0000000000000D+00
   256  2.5500000000000D+00  0.0000000000000D+00  0.0000000000000D+00
   257  2.5600000000000D+00  0.0000000000000D+00  0.0000000000000D+00
   258  2.5700000000000D+00  0.0000000000000D+00  0.0000000000000D+00
   259  2.5800000000000D+00  0.0000000000000D+00  0.0000000000000D+00
   260  2.5900000000000D+00  0.0000000000000D+00  0.0000000000000D+00
   261  2.6000000000000D+00  0.0000000000000D+00  0.0000000000000D+00
   262  2.6100000000000D+00  0.0000000000000D+00  0.0000000000000D+00
   263  2.6200000000000D+00  0.0000000000000D+00  0.0000000000000D+00
   264  2.6300000000000D+00  0.0000000000000D+00  0.0000000000000D+00
   265  2.6400000000000D+00  0.0000000000000D+00  0.0000000000000D+00
   266  2.6500000000000D+00  0.0000000000000D+00  0.0000000000000D+00
   267  2.6600000000000D+00  0.0000000000000D+00  0.0000000000000D+00
   268  2.6700000000000D+00  0.0000000000000D+00  0.0000000000000D+00
   269  2.6800000000000D+00  0.0000000000000D+00  0.0000000000000D+00
   270  2.6900000000000D+00  0.0000000000000D+00  0.0000000000000D+00
   271  2.7000000000000D+00  0.0000000000000D+00  0.0000000000000D+00
   272  2.7100000000000D+00  0.0000000000000D+00  0.0000000000000D+00
   273  2.7200000000000D+00  0.0000000000000D+00  0.0000000000000D+00
   274  2.7300000000000D+00  0.0000000000000D+00  0.0000000000000D+00
   275  2.7400000000000D+00  0.0000000000000D+00  0.0000000000000D+00
   276  2.7500000000000D+00  0.0000000000000D+00  0.0000000000000D+00
   277  2.7600000000000D+00  0.0000000000000D+00  0.0000000000000D+00
   278  2.7700000000000D+00  0.0000000000000D+00  0.0000000000000D+00
   279  2.7800000000000D+00  0.0000000000000D+00  0.0000000000000D+00
   280  2.7900000000000D+00  0.0000000000000D+00  0.0000000000000D+00
   281  2.8000000000000D+00  0.0000000000000D+00  0.0000000000000D+00
   282  2.8100000000000D+00  0.0000000000000D+00  0.0000000000000D+00
   283  2.8200000000000D+00  0.0000000000000D+00  0.0000000000000D+00
   284  2.8300000000000D+00  0.0000000000000D+00  0.0000000000000D+00
   285  2.8400000000000D+00  0.0000000000000D+00  0.0000000000000D+00
   286  2.8500000000000D+00  0.0000000000000D+00  0.0000000000000D+00
   287  2.8600000000000D+00  0.0000000000000D+00  0.0000000000000D+00
   288  2.8700000000000D+00  0.0000000000000D+00  0.0000000000000D+00
   289  2.8800000000000D+00  0.0000000000000D+00  0.0000000000000D+00
   290  2.8900000000000D+00  0.0000000000000D+00  0.0000000000000D+00
   291  2.9000000000000D+00  0.0000000000000D+00  0.0000000000000D+00
   292  2.9100000000000D+00  0.0000000000000D+00  0.0000000000000D+00
   293  2.9200000000000D+00  0.0000000000000D+00  0.0000000000000D+00
   294  2.9300000000000D+00  0.0000000000000D+00  0.0000000000000D+00
   295  2.9400000000000D+00  0.0000000000000D+00  0.0000000000000D+00
   296  2.9500000000000D+00  0.0000000000000D+00  0.0000000000000D+00
   297  2.9600000000000D+00  0.0000000000000D+00  0.0000000000000D+00
   298  2.9700000000000D+00  0.0000000000000D+00  0.0000000000000D+00
   299  2.9800000000000D+00  0.0000000000000D+00  0.0000000000000D+00
   300  2.9900000000000D+00  0.0000000000000D+00  0.0000000000000D+00
   301  3.0000000000000D+00  0.0000000000000D+00  0.0000000000000D+00
   302  3.0100000000000D+00  0.0000000000000D+00  0.0000000000000D+00
   303  3.0200000000000D+00  0.0000000000000D+00  0.0000000000000D+00
   304  3.0300000000000D+00  0.0000000000000D+00  0.0000000000000D+00
   305  3.0400000000000D+00  0.0000000000000D+00  0.0000000000000D+00
   306  3.0500000000000D+00  0.0000000000000D+00  0.0000000000000D+00
   307  3.0600000000000D+00  0.0000000000000D+00  0.0000000000000D+00
   308  3.0700000000000D+00  0.0000000000000D+00  0.0000000000000D+00
   309  3.0800000000000D+00  0.0000000000000D+00  0.0000000000000D+00
   310  3.0900000000000D+00  0.0000000000000D+00  0.0000000000000D+00
   311  3.1000000000000D+00  0.0000000000000D+00  0.0000000000000D+00
   312  3.1100000000000D+00  0.0000000000000D+00  0.0000000000000D+00
   313  3.1200000000000D+00  0.0000000000000D+00  0.0000000000000D+00
   314  3.1300000000000D+00  0.0000000000000D+00  0.0000000000000D+00
   315  3.1400000000000D+00  0.0000000000000D+00  0.0000000000000D+00
   316  3.1500000000000D+00  0.0000000000000D+00  0.0000000000000D+00
   317  3.1600000000000D+00  0.0000000000000D+00  0.0000000000000D+00
   318  3.1700000000000D+00  0.0000000000000D+00  0.0000000000000D+00
   319  3.1800000000000D+00  0.0000000000000D+00  0.0000000000000D+00
   320  3.1900000000000D+00  0.0000000000000D+00  0.0000000000000D+00
   321  3.2000000000000D+00  0.0000000000000D+00  0.0000000000000D+00
   322  3.2100000000000D+00  0.0000000000000D+00  0.0000000000000D+00
   323  3.2200000000000D+00  0.0000000000000D+00  0.0000000000000D+00
   324  3.2300000000000D+00  0.0000000000000D+00  0.0000000000000D+00
   325  3.2400000000000D+00  0.0000000000000D+00  0.0000000000000D+00
   326  3.2500000000000D+00  0.0000000000000D+00  0.0000000000000D+00
   327  3.2600000000000D+00  0.0000000000000D+00  0.0000000000000D+00
   328  3.2700000000000D+00  0.0000000000000D+00  0.0000000000000D+00
   329  3.2800000000000D+00  0.0000000000000D+00  0.0000000000000D+00
   330  3.2900000000000D+00  0.0000000000000D+00  0.0000000000000D+00
   331  3.3000000000000D+00  0.0000000000000D+00  0.0000000000000D+00
   332  3.3100000000000D+00  0.0000000000000D+00  0.0000000000000D+00
   333  3.3200000000000D+00  0.0000000000000D+00  0.0000000000000D+00
   334  3.3300000000000D+00  0.0000000000000D+00  0.0000000000000D+00
   335  3.3400000000000D+00  0.0000000000000D+00  0.0000000000000D+00
   336  3.3500000000000D+00  0.0000000000000D+00  0.0000000000000D+00
   337  3.3600000000000D+00  0.0000000000000D+00  0.0000000000000D+00
   338  3.3700000000000D+00  0.0000000000000D+00  0.0000000000000D+00
   339  3.3800000000000D+00  0.0000000000000D+00  0.0000000000000D+00
   340  3.3900000000000D+00  0.0000000000000D+00  0.0000000000000D+00
   341  3.4000000000000D+00  0.0000000000000D+00  0.0000000000000D+00
   342  3.4100000000000D+00  0.0000000000000D+00  0.0000000000000D+00
   343  3.4200000000000D+00  0.0000000000000D+00  0.0000000000000D+00
   344  3.4300000000000D+00  0.0000000000000D+00  0.0000000000000D+00
   345  3.4400000000000D+00  0.0000000000000D+00  0.0000000000000D+00
   346  3.4500000000000D+00  0.0000000000000D+00  0.0000000000000D+00
   347  3.4600000000000D+00  0.0000000000000D+00  0.0000000000000D+00
   348  3.4700000000000D+00  0.0000000000000D+00  0.0000000000000D+00
   349  3.4800000000000D+00  0.0000000000000D+00  0.0000000000000D+00
   350  3.4900000000000D+00  0.0000000000000D+00  0.0000000000000D+00
   351  3.5000000000000D+00  0.0000000000000D+00  0.0000000000000D+00
   352  3.5100000000000D+00  0.0000000000000D+00  0.0000000000000D+00
   353  3.5200000000000D+00  0.0000000000000D+00  0.0000000000000D+00
   354  3.5300000000000D+00  0.0000000000000D+00  0.0000000000000D+00
   355  3.5400000000000D+00  0.0000000000000D+00  0.0000000000000D+00
   356  3.5500000000000D+00  0.0000000000000D+00  0.0000000000000D+00
   357  3.5600000000000D+00  0.0000000000000D+00  0.0000000000000D+00
   358  3.5700000000000D+00  0.0000000000000D+00  0.0000000000000D+00
   359  3.5800000000000D+00  0.0000000000000D+00  0.0000000000000D+00
   360  3.5900000000000D+00  0.0000000000000D+00  0.0000000000000D+00
   361  3.6000000000000D+00  0.0000000000000D+00  0.0000000000000D+00
   362  3.6100000000000D+00  0.0000000000000D+00  0.0000000000000D+00
   363  3.6200000000000D+00  0.0000000000000D+00  0.0000000000000D+00
   364  3.6300000000000D+00  0.0000000000000D+00  0.0000000000000D+00
   365  3.6400000000000D+00  0.0000000000000D+00  0.0000000000000D+00
   366  3.6500000000000D+00  0.0000000000000D+00  0.0000000000000D+00
   367  3.6600000000000D+00  0.0000000000000D+00  0.0000000000000D+00
   368  3.6700000000000D+00  0.0000000000000D+00  0.0000000000000D+00
   369  3.6800000000000D+00  0.0000000000000D+00  0.0000000000000D+00
   370  3.6900000000000D+00  0.0000000000000D+00  0.0000000000000D+00
   371  3.7000000000000D+00  0.0000000000000D+00  0.0000000000000D+00
   372  3.7100000000000D+00  0.0000000000000D+00  0.0000000000000D+00
   373  3.7200000000000D+00  0.0000000000000D+00  0.0000000000000D+00
   374  3.7300000000000D+00  0.0000000000000D+00  0.0000000000000D+00
   375  3.7400000000000D+00  0.0000000000000D+00  0.0000000000000D+00
   376  3.7500000000000D+00  0.0000000000000D+00  0.0000000000000D+00
   377  3.7600000000000D+00  0.0000000000000D+00  0.0000000000000D+00
   378  3.7700000000000D+00  0.0000000000000D+00  0.0000000000000D+00
   379  3.7800000000000D+00  0.0000000000000D+00  0.0000000000000D+00
   380  3.7900000000000D+00  0.0000000000000D+00  0.0000000000000D+00
   381  3.8000000000000D+00  0.0000000000000D+00  0.0000000000000D+00
   382  3.8100000000000D+00  0.0000000000000D+00  0.0000000000000D+00
   383  3.8200000000000D+00  0.0000000000000D+00  0.0000000000000D+00
   384  3.8300000000000D+00  0.0000000000000D+00  0.0000000000000D+00
   385  3.8400000000000D+00  0.0000000000000D+00  0.0000000000000D+00
   386  3.8500000000000D+00  0.0000000000000D+00  0.0000000000000D+00
   387  3.8600000000000D+00  0.0000000000000D+00  0.0000000000000D+00
   388  3.8700000000000D+00  0.0000000000000D+00  0.0000000000000D+00
   389  3.8800000000000D+00  0.0000000000000D+00  0.0000000000000D+00
   390  3.8900000000000D+00  0.0000000000000D+00  0.0000000000000D+00
   391  3.9000000000000D+00  0.0000000000000D+00  0.0000000000000D+00
   392  3.9100000000000D+00  0.0000000000000D+00  0.0000000000000D+00
   393  3.9200000000000D+00  0.0000000000000D+00  0.0000000000000D+00
   394  3.9300000000000D+00  0.0000000000000D+00  0.0000000000000D+00
   395  3.9400000000000D+00  0.0000000000000D+00  0.0000000000000D+00
   396  3.9500000000000D+00  0.0000000000000D+00  0.0000000000000D+00
   397  3.9600000000000D+00  0.0000000000000D+00  0.0000000000000D+00
   398  3.9700000000000D+00  0.0000000000000D+00  0.0000000000000D+00
   399  3.9800000000000D+00  0.0000000000000D+00  0.0000000000000D+00
   400  3.9900000000000D+00  0.0000000000000D+00  0.0000000000000D+00
   401  4.0000000000000D+00  0.0000000000000D+00  0.0000000000000D+00
   402  4.0100000000000D+00  0.0000000000000D+00  0.0000000000000D+00
   403  4.0200000000000D+00  0.0000000000000D+00  0.0000000000000D+00
   404  4.0300000000000D+00  0.0000000000000D+00  0.0000000000000D+00
   405  4.0400000000000D+00  0.0000000000000D+00  0.0000000000000D+00
   406  4.0500000000000D+00  0.0000000000000D+00  0.0000000000000D+00
   407  4.0600000000000D+00  0.0000000000000D+00  0.0000000000000D+00
   408  4.0700000000000D+00  0.0000000000000D+00  0.0000000000000D+00
   409  4.0800000000000D+00  0.0000000000000D+00  0.0000000000000D+00
   410  4.0900000000000D+00  0.0000000000000D+00  0.0000000000000D+00
   411  4.1000000000000D+00  0.0000000000000D+00  0.0000000000000D+00
   412  4.1100000000000D+00  0.0000000000000D+00  0.0000000000000D+00
   413  4.1200000000000D+00  0.0000000000000D+00  0.0000000000000D+00
   414  4.1300000000000D+00  0.0000000000000D+00  0.0000000000000D+00
   415  4.1400000000000D+00  0.0000000000000D+00  0.0000000000000D+00
   416  4.1500000000000D+00  0.0000000000000D+00  0.0000000000000D+00
   417  4.1600000000000D+00  0.0000000000000D+00  0.0000000000000D+00
   418  4.1700000000000D+00  0.0000000000000D+00  0.0000000000000D+00
   419  4.1800000000000D+00  0.0000000000000D+00  0.0000000000000D+00
   420  4.1900000000000D+00  0.0000000000000D+00  0.0000000000000D+00
   421  4.2000000000000D+00  0.0000000000000D+00  0.0000000000000D+00
   422  4.2100000000000D+00  0.0000000000000D+00  0.0000000000000D+00