Ar    ONCVPSP-3.3.1  r_core=   2.67516   1.78325
     18.0000      8.0000      210904    zatom,zion,pspd
     8       2   1     4   600     0    pspcod,pspxc,lmax,lloc,mmax,r2well
  5.99000000  0.00000000  0.00000000    rchrg fchrg qchrg
     2     2     0     0    nproj
     3     1           extension_switch
     4     0     0    nprojso
   0                        -2.9920613718666D+00  2.7455354863864D+00
     1  0.0000000000000D+00 -2.4200808024233D-11 -6.8874350667159D-12
     2  1.0000000000000D-02 -4.1743945205673D-02  2.5698334792978D-02
     3  2.0000000000000D-02 -8.3433400594584D-02  5.1381610079035D-02
     4  3.0000000000000D-02 -1.2501384500259D-01  7.7034803699622D-02
     5  4.0000000000000D-02 -1.6643069540665D-01  1.0264296793687D-01
     6  5.0000000000000D-02 -2.0762927807893D-01  1.2819126609553D-01
     7  6.0000000000000D-02 -2.4855480222398D-01  1.5366500832368D-01
     8  7.0000000000000D-02 -2.8915233689813D-01  1.7904968642665D-01
     9  8.0000000000000D-02 -3.2936679198626D-01  2.0433100743533D-01
    10  9.0000000000000D-02 -3.6914290398076D-01  2.2949492569870D-01
    11  1.0000000000000D-01 -4.0842522727243D-01  2.5452767328046D-01
    12  1.1000000000000D-01 -4.4715813162168D-01  2.7941578845126D-01
    13  1.2000000000000D-01 -4.8528580643294D-01  3.0414614208110D-01
    14  1.3000000000000D-01 -5.2275227240392D-01  3.2870596175095D-01
    15  1.4000000000000D-01 -5.5950140106648D-01  3.5308285341815D-01
    16  1.5000000000000D-01 -5.9547694267611D-01  3.7726482048742D-01
    17  1.6000000000000D-01 -6.3062256284429D-01  4.0124028015661D-01
    18  1.7000000000000D-01 -6.6488188824100D-01  4.2499807692585D-01
    19  1.8000000000000D-01 -6.9819856162552D-01  4.4852749317792D-01
    20  1.9000000000000D-01 -7.3051630639157D-01  4.7181825675833D-01
    21  2.0000000000000D-01 -7.6177900073874D-01  4.9486054550448D-01
    22  2.1000000000000D-01 -7.9193076150686D-01  5.1764498869447D-01
    23  2.2000000000000D-01 -8.2091603763276D-01  5.4016266540817D-01
    24  2.3000000000000D-01 -8.4867971311214D-01  5.6240509981447D-01
    25  2.4000000000000D-01 -8.7516721927149D-01  5.8436425342090D-01
    26  2.5000000000000D-01 -9.0032465607813D-01  6.0603251434319D-01
    27  2.6000000000000D-01 -9.2409892214019D-01  6.2740268367389D-01
    28  2.7000000000000D-01 -9.4643785297374D-01  6.4846795905002D-01
    29  2.8000000000000D-01 -9.6729036704125D-01  6.6922191554044D-01
    30  2.9000000000000D-01 -9.8660661899487D-01  6.8965848399295D-01
    31  3.0000000000000D-01 -1.0043381594905D+00  7.0977192700049D-01
    32  3.1000000000000D-01 -1.0204381008738D+00  7.2955681266342D-01
    33  3.2000000000000D-01 -1.0348612879783D+00  7.4900798634213D-01
    34  3.3000000000000D-01 -1.0475644732197D+00  7.6812054060966D-01
    35  3.4000000000000D-01 -1.0585064951161D+00  7.8688978362866D-01
    36  3.5000000000000D-01 -1.0676484593198D+00  8.0531120619009D-01
    37  3.6000000000000D-01 -1.0749539211996D+00  8.2338044766256D-01
    38  3.7000000000000D-01 -1.0803890689785D+00  8.4109326111130D-01
    39  3.8000000000000D-01 -1.0839229064004D+00  8.5844547785431D-01
    40  3.9000000000000D-01 -1.0855274338714D+00  8.7543297172980D-01
    41  4.0000000000000D-01 -1.0851778270056D+00  8.9205162335405D-01
    42  4.1000000000000D-01 -1.0828526114890D+00  9.0829728465221D-01
    43  4.2000000000000D-01 -1.0785338331717D+00  9.2416574394574D-01
    44  4.3000000000000D-01 -1.0722072222957D+00  9.3965269187998D-01
    45  4.4000000000000D-01 -1.0638623507748D+00  9.5475368847295D-01
    46  4.5000000000000D-01 -1.0534927814534D+00  9.6946413156244D-01
    47  4.6000000000000D-01 -1.0410962082943D+00  9.8377922692254D-01
    48  4.7000000000000D-01 -1.0266745864674D+00  9.9769396031324D-01
    49  4.8000000000000D-01 -1.0102342513480D+00  1.0112030717169D+00
    50  4.9000000000000D-01 -9.9178602546887D-01  1.0243010320046D+00
    51  5.0000000000000D-01 -9.7134531251664D-01  1.0369820222626D+00
    52  5.1000000000000D-01 -9.4893217751348D-01  1.0492399159948D+00
    53  5.2000000000000D-01 -9.2457141238102D-01  1.0610682644001D+00
    54  5.3000000000000D-01 -8.9829258614491D-01  1.0724602849090D+00
    55  5.4000000000000D-01 -8.7013007910488D-01  1.0834088531418D+00
    56  5.5000000000000D-01 -8.4012310036651D-01  1.0939064984344D+00
    57  5.6000000000000D-01 -8.0831568820573D-01  1.1039454030531D+00
    58  5.7000000000000D-01 -7.7475669281667D-01  1.1135174052019D+00
    59  5.8000000000000D-01 -7.3949974107585D-01  1.1226140059008D+00
    60  5.9000000000000D-01 -7.0260318304121D-01  1.1312263797890D+00
    61  6.0000000000000D-01 -6.6413001999277D-01  1.1393453898876D+00
    62  6.1000000000000D-01 -6.2414781391151D-01  1.1469616063263D+00
    63  6.2000000000000D-01 -5.8272857838501D-01  1.1540653290183D+00
    64  6.3000000000000D-01 -5.3994865102084D-01  1.1606466142401D+00
    65  6.4000000000000D-01 -4.9588854754193D-01  1.1666953050502D+00
    66  6.5000000000000D-01 -4.5063279783159D-01  1.1722010654543D+00
    67  6.6000000000000D-01 -4.0426976428825D-01  1.1771534182006D+00
    68  6.7000000000000D-01 -3.5689144294187D-01  1.1815417860666D+00
    69  6.8000000000000D-01 -3.0859324787417D-01  1.1853555364721D+00
    70  6.9000000000000D-01 -2.5947377957302D-01  1.1885840292345D+00
    71  7.0000000000000D-01 -2.0963457793680D-01  1.1912166672576D+00
    72  7.1000000000000D-01 -1.5917986072732D-01  1.1932429499258D+00
    73  7.2000000000000D-01 -1.0821624834918D-01  1.1946525289559D+00
    74  7.3000000000000D-01 -5.6852475908605D-02  1.1954352664402D+00
    75  7.4000000000000D-01 -5.1990935759170D-03  1.1955812947977D+00
    76  7.5000000000000D-01  4.6631843658055D-02  1.1950810783338D+00
    77  7.6000000000000D-01  9.8527095679929D-02  1.1939254760969D+00
    78  7.7000000000000D-01  1.5037256519874D-01  1.1921058057060D+00
    79  7.8000000000000D-01  2.0205363268045D-01  1.1896139078132D+00
    80  7.9000000000000D-01  2.5345549697055D-01  1.1864422108568D+00
    81  8.0000000000000D-01  3.0446352026552D-01  1.1825837957539D+00
    82  8.1000000000000D-01  3.5496357606249D-01  1.1780324601747D+00
    83  8.2000000000000D-01  4.0484239869217D-01  1.1727827820388D+00
    84  8.3000000000000D-01  4.5398793302167D-01  1.1668301818736D+00
    85  8.4000000000000D-01  5.0228968290367D-01  1.1601709836727D+00
    86  8.5000000000000D-01  5.4963905694354D-01  1.1528024738971D+00
    87  8.6000000000000D-01  5.9592971015982D-01  1.1447229582673D+00
    88  8.7000000000000D-01  6.4105788012284D-01  1.1359318159986D+00
    89  8.8000000000000D-01  6.8492271617357D-01  1.1264295511417D+00
    90  8.9000000000000D-01  7.2742660034818D-01  1.1162178407023D+00
    91  9.0000000000000D-01  7.6847545866451D-01  1.1052995792230D+00
    92  9.1000000000000D-01  8.0797906146360D-01  1.0936789195273D+00
    93  9.2000000000000D-01  8.4585131154245D-01  1.0813613093384D+00
    94  9.3000000000000D-01  8.8201051886419D-01  1.0683535235060D+00
    95  9.4000000000000D-01  9.1637966068659D-01  1.0546636915893D+00
    96  9.5000000000000D-01  9.4888662601106D-01  1.0403013205678D+00
    97  9.6000000000000D-01  9.7946444332024D-01  1.0252773124703D+00
    98  9.7000000000000D-01  1.0080514906431D+00  1.0096039767365D+00
    99  9.8000000000000D-01  1.0345916870626D+00  9.9329503714828D-01
   100  9.9000000000000D-01  1.0590346648594D+00  9.7636563319363D-01
   101  1.0000000000000D+00  1.0813359215690D+00  9.5883231574845D-01
   102  1.0100000000000D+00  1.1014569513167D+00  9.4071303699099D-01
   103  1.0200000000000D+00  1.1193653548821D+00  9.2202713448740D-01
   104  1.0300000000000D+00  1.1350349280391D+00  9.0279530941444D-01
   105  1.0400000000000D+00  1.1484457278081D+00  8.8303959891240D-01
   106  1.0500000000000D+00  1.1595841163554D+00  8.6278334258871D-01
   107  1.0600000000000D+00  1.1684427823624D+00  8.4205114321732D-01
   108  1.0700000000000D+00  1.1750207397949D+00  8.2086882170899D-01
   109  1.0800000000000D+00  1.1793233040876D+00  7.9926336645103D-01
   110  1.0900000000000D+00  1.1813620458610D+00  7.7726287714223D-01
   111  1.1000000000000D+00  1.1811547223807D+00  7.5489650327383D-01
   112  1.1100000000000D+00  1.1787251870536D+00  7.3219437742919D-01
   113  1.1200000000000D+00  1.1741032773594D+00  7.0918754360225D-01
   114  1.1300000000000D+00  1.1673246816920D+00  6.8590788075358D-01
   115  1.1400000000000D+00  1.1584307856829D+00  6.6238802184703D-01
   116  1.1500000000000D+00  1.1474684986357D+00  6.3866126862455D-01
   117  1.1600000000000D+00  1.1344900608102D+00  6.1476150240199D-01
   118  1.1700000000000D+00  1.1195528323460D+00  5.9072309118074D-01
   119  1.1800000000000D+00  1.1027190646955D+00  5.6658079338775D-01
   120  1.1900000000000D+00  1.0840556554857D+00  5.4236965856705D-01
   121  1.2000000000000D+00  1.0636338878089D+00  5.1812492536292D-01
   122  1.2100000000000D+00  1.0415291549857D+00  4.9388191714146D-01
   123  1.2200000000000D+00  1.0178206718805D+00  4.6967593560502D-01
   124  1.2300000000000D+00  9.9259117391165D-01  4.4554215276388D-01
   125  1.2400000000000D+00  9.6592660492853D-01  4.2151550163176D-01
   126  1.2500000000000D+00  9.3791579514926D-01  3.9763056601422D-01
   127  1.2600000000000D+00  9.0865013038697D-01  3.7392146976207D-01
   128  1.2700000000000D+00  8.7822321381148D-01  3.5042176585867D-01
   129  1.2800000000000D+00  8.4673052149457D-01  3.2716432570679D-01
   130  1.2900000000000D+00  8.1426905300554D-01  3.0418122898034D-01
   131  1.3000000000000D+00  7.8093697831404D-01  2.8150365439248D-01
   132  1.3100000000000D+00  7.4683328224959D-01  2.5916177172746D-01
   133  1.3200000000000D+00  7.1205740777116D-01  2.3718463547882D-01
   134  1.3300000000000D+00  6.7670889924916D-01  2.1560008040851D-01
   135  1.3400000000000D+00  6.4088704697056D-01  1.9443461934746D-01
   136  1.3500000000000D+00  6.0469053404349D-01  1.7371334353588D-01
   137  1.3600000000000D+00  5.6821708702283D-01  1.5345982733405D-01
   138  1.3700000000000D+00  5.3156312990887D-01  1.3369602741792D-01
   139  1.3800000000000D+00  4.9482344435651D-01  1.1444218775471D-01
   140  1.3900000000000D+00  4.5809084778679D-01  9.5716838547205D-02
   141  1.4000000000000D+00  4.2145584654430D-01  7.7536538542322D-02
   142  1.4100000000000D+00  3.8500631235153D-01  5.9915700486065D-02
   143  1.4200000000000D+00  3.4882715469968D-01  4.2866647794244D-02
   144  1.4300000000000D+00  3.1300009918990D-01  2.6399919632244D-02
   145  1.4400000000000D+00  2.7760358680737D-01  1.0525047637890D-02
   146  1.4500000000000D+00  2.4271260324004D-01 -4.7495371588443D-03
   147  1.4600000000000D+00  2.0839853233096D-01 -1.9416678021821D-02
   148  1.4700000000000D+00  1.7472903523871D-01 -3.3470421949117D-02
   149  1.4800000000000D+00  1.4176794256354D-01 -4.6906045590157D-02
   150  1.4900000000000D+00  1.0957516394826D-01 -5.9720056658885D-02
   151  1.5000000000000D+00  7.8206613934753D-02 -7.1910193538886D-02
   152  1.5100000000000D+00  4.7714153957102D-02 -8.3475419846663D-02
   153  1.5200000000000D+00  1.8145550313334D-02 -9.4415914557768D-02
   154  1.5300000000000D+00 -1.0455552476048D-02 -1.0473305791046D-01
   155  1.5400000000000D+00 -3.8049643085258D-02 -1.1442941319316D-01
   156  1.5500000000000D+00 -6.4601340234270D-02 -1.2350870464743D-01
   157  1.5600000000000D+00 -9.0079375298258D-02 -1.3197579163383D-01
   158  1.5700000000000D+00 -1.1445656129996D-01 -1.3983663928332D-01
   159  1.5800000000000D+00 -1.3770974879394D-01 -1.4709828582607D-01
   160  1.5900000000000D+00 -1.5981976922833D-01 -1.5376880681128D-01
   161  1.6000000000000D+00 -1.8077136643823D-01 -1.5985727644140D-01
   162  1.6100000000000D+00 -2.0055311683945D-01 -1.6537372623237D-01
   163  1.6200000000000D+00 -2.1915733907137D-01 -1.7032910123913D-01
   164  1.6300000000000D+00 -2.3657999366793D-01 -1.7473521406420D-01
   165  1.6400000000000D+00 -2.5282057354785D-01 -1.7860469688857D-01
   166  1.6500000000000D+00 -2.6788198593964D-01 -1.8195095175647D-01
   167  1.6600000000000D+00 -2.8177042652568D-01 -1.8478809933900D-01
   168  1.6700000000000D+00 -2.9449524647980D-01 -1.8713092642761D-01
   169  1.6800000000000D+00 -3.0606881313240D-01 -1.8899483235623D-01
   170  1.6900000000000D+00 -3.1650636501269D-01 -1.9039577462613D-01
   171  1.7000000000000D+00 -3.2582586191656D-01 -1.9135021389673D-01
   172  1.7100000000000D+00 -3.3404783083305D-01 -1.9187505864080D-01
   173  1.7200000000000D+00 -3.4119520826749D-01 -1.9198760958566D-01
   174  1.7300000000000D+00 -3.4729317987598D-01 -1.9170550426098D-01
   175  1.7400000000000D+00 -3.5236901782702D-01 -1.9104666173204D-01
   176  1.7500000000000D+00 -3.5645191687097D-01 -1.9002922785380D-01
   177  1.7600000000000D+00 -3.5957282941659D-01 -1.8867152108614D-01
   178  1.7700000000000D+00 -3.6176430063000D-01 -1.8699197920992D-01
   179  1.7800000000000D+00 -3.6306030376609D-01 -1.8500910695717D-01
   180  1.7900000000000D+00 -3.6349607672328D-01 -1.8274142487444D-01
   181  1.8000000000000D+00 -3.6310795999857D-01 -1.8020741942848D-01
   182  1.8100000000000D+00 -3.6193323693256D-01 -1.7742549463016D-01
   183  1.8200000000000D+00 -3.6000997646938D-01 -1.7441392520753D-01
   184  1.8300000000000D+00 -3.5737687910833D-01 -1.7119081152073D-01
   185  1.8400000000000D+00 -3.5407312643205D-01 -1.6777403631039D-01
   186  1.8500000000000D+00 -3.5013823455040D-01 -1.6418122335152D-01
   187  1.8600000000000D+00 -3.4561191212760D-01 -1.6042969820278D-01
   188  1.8700000000000D+00 -3.4053392286756D-01 -1.5653645096390D-01
   189  1.8800000000000D+00 -3.3494395350503D-01 -1.5251810135780D-01
   190  1.8900000000000D+00 -3.2888148667828D-01 -1.4839086588595D-01
   191  1.9000000000000D+00 -3.2238568000160D-01 -1.4417052745766D-01
   192  1.9100000000000D+00 -3.1549525054769D-01 -1.3987240719390D-01
   193  1.9200000000000D+00 -3.0824836578867D-01 -1.3551133871022D-01
   194  1.9300000000000D+00 -3.0068254061404D-01 -1.3110164471904D-01
   195  1.9400000000000D+00 -2.9283454077397D-01 -1.2665711602499D-01
   196  1.9500000000000D+00 -2.8474029304080D-01 -1.2219099297076D-01
   197  1.9600000000000D+00 -2.7643480159347D-01 -1.1771594914225D-01
   198  1.9700000000000D+00 -2.6795207158974D-01 -1.1324407759557D-01
   199  1.9800000000000D+00 -2.5932503886312D-01 -1.0878687924665D-01
   200  1.9900000000000D+00 -2.5058550678686D-01 -1.0435525370068D-01
   201  2.0000000000000D+00 -2.4176408949160D-01 -9.9959492245857D-02
   202  2.0100000000000D+00 -2.3289016174823D-01 -9.5609273066006D-02
   203  2.0200000000000D+00 -2.2399181556383D-01 -9.1313658650299D-02
   204  2.0300000000000D+00 -2.1509582279744D-01 -8.7081095169449D-02
   205  2.0400000000000D+00 -2.0622760458661D-01 -8.2919413996146D-02
   206  2.0500000000000D+00 -1.9741120647668D-01 -7.8835835037142D-02
   207  2.0600000000000D+00 -1.8866927983067D-01 -7.4836971987300D-02
   208  2.0700000000000D+00 -1.8002306900703D-01 -7.0928839336455D-02
   209  2.0800000000000D+00 -1.7149240400169D-01 -6.7116861013790D-02
   210  2.0900000000000D+00 -1.6309569880851D-01 -6.3405880680683D-02
   211  2.1000000000000D+00 -1.5484995465821D-01 -5.9800173447794D-02
   212  2.1100000000000D+00 -1.4677076845361D-01 -5.6303459022605D-02
   213  2.1200000000000D+00 -1.3887234584534D-01 -5.2918916135655D-02
   214  2.1300000000000D+00 -1.3116751871434D-01 -4.9649198148976D-02
   215  2.1400000000000D+00 -1.2366776700901D-01 -4.6496449760405D-02
   216  2.1500000000000D+00 -1.1638324440023D-01 -4.3462324700284D-02
   217  2.1600000000000D+00 -1.0932280768738D-01 -4.0548004295335D-02
   218  2.1700000000000D+00 -1.0249404960196D-01 -3.7754216822949D-02
   219  2.1800000000000D+00 -9.5903334748184D-02 -3.5081257574890D-02
   220  2.1900000000000D+00 -8.9555838378318D-02 -3.2529009443105D-02
   221  2.2000000000000D+00 -8.3455587831313D-02 -3.0096964069481D-02
   222  2.2100000000000D+00 -7.7605506235936D-02 -2.7784243341291D-02
   223  2.2200000000000D+00 -7.2007458228760D-02 -2.5589621161786D-02
   224  2.2300000000000D+00 -6.6662297669954D-02 -2.3511545552660D-02
   225  2.2400000000000D+00 -6.1569916601464D-02 -2.1548160717814D-02
   226  2.2500000000000D+00 -5.6729295704095D-02 -1.9697329265028D-02
   227  2.2600000000000D+00 -5.2138555819549D-02 -1.7956654401996D-02
   228  2.2700000000000D+00 -4.7795010017196D-02 -1.6323501896254D-02
   229  2.2800000000000D+00 -4.3695216610078D-02 -1.4795022026688D-02
   230  2.2900000000000D+00 -3.9835032274813D-02 -1.3368171171515D-02
   231  2.3000000000000D+00 -3.6209665251915D-02 -1.2039733056311D-02
   232  2.3100000000000D+00 -3.2813728949542D-02 -1.0806339826866D-02
   233  2.3200000000000D+00 -2.9641294724671D-02 -9.6644924537316D-03
   234  2.3300000000000D+00 -2.6685944549946D-02 -8.6105807925686D-03
   235  2.3400000000000D+00 -2.3940823327430D-02 -7.6409032209375D-03
   236  2.3500000000000D+00 -2.1398689878196D-02 -6.7516854861157D-03
   237  2.3600000000000D+00 -1.9051967553542D-02 -5.9390991620451D-03
   238  2.3700000000000D+00 -1.6892793757488D-02 -5.1992794561677D-03
   239  2.3800000000000D+00 -1.4913067953329D-02 -4.5283422249003D-03
   240  2.3900000000000D+00 -1.3104498954942D-02 -3.9224005186158D-03
   241  2.4000000000000D+00 -1.1458650563252D-02 -3.3775803255698D-03
   242  2.4100000000000D+00 -9.9669856031062D-03 -2.8900355553800D-03
   243  2.4200000000000D+00 -8.6209089529091D-03 -2.4559624887415D-03
   244  2.4300000000000D+00 -7.4118085106075D-03 -2.0716133407139D-03
   245  2.4400000000000D+00 -6.3310945421079D-03 -1.7333091109391D-03
   246  2.4500000000000D+00 -5.3702377808233D-03 -1.4374518546195D-03
   247  2.4600000000000D+00 -4.5208052240810D-03 -1.1805360478975D-03
   248  2.4700000000000D+00 -3.7744943197397D-03 -9.5915928910047D-04
   249  2.4800000000000D+00 -3.1231657163520D-03 -7.7003239339053D-04
   250  2.4900000000000D+00 -2.5588736319756D-03 -6.0998862195091D-04
   251  2.5000000000000D+00 -2.0738946205865D-03 -4.7599228858359D-04
   252  2.5100000000000D+00 -1.6607547680409D-03 -3.6514674904334D-04
   253  2.5200000000000D+00 -1.3122545654143D-03 -2.7470161149954D-04
   254  2.5300000000000D+00 -1.0214921747969D-03 -2.0205935535768D-04
   255  2.5400000000000D+00 -7.8188503963991D-04 -1.4478133589010D-04
   256  2.5500000000000D+00 -5.8718933123734D-04 -1.0059312560248D-04
   257  2.5600000000000D+00 -4.3151777062173D-04 -6.7389286266058D-05
   258  2.5700000000000D+00 -3.0935575165425D-04 -4.3237539798474D-05
   259  2.5800000000000D+00 -2.1557551320430D-04 -2.6382399782691D-05
   260  2.5900000000000D+00 -1.4545915510112D-04 -1.5258090574220D-05
   261  2.6000000000000D+00 -9.4670841238245D-05 -8.4548197748943D-06
   262  2.6100000000000D+00 -5.9305295381446D-05 -4.7578183183555D-06
   263  2.6200000000000D+00 -3.5843422094338D-05 -3.1167412661643D-06
   264  2.6300000000000D+00 -2.1338812996398D-05 -2.7584207008246D-06
   265  2.6400000000000D+00 -1.3253671853635D-05 -3.0814517402639D-06
   266  2.6500000000000D+00 -9.5886580120871D-06 -3.6936540640233D-06
   267  2.6600000000000D+00 -8.3149686202765D-06 -4.1713096985220D-06
   268  2.6700000000000D+00 -7.7221482741211D-06 -4.1843099908371D-06
   269  2.6800000000000D+00 -6.4234839028805D-06 -3.4876523895816D-06
   270  2.6900000000000D+00 -4.1203672816599D-06 -2.2088962994234D-06
   271  2.7000000000000D+00 -1.5903600818104D-06 -8.3541643574106D-07
   272  2.7100000000000D+00  2.9350118492518D-07  1.6358199288893D-07
   273  2.7200000000000D+00  7.8837250369982D-07  4.3814429212615D-07
   274  2.7300000000000D+00  5.5799465017840D-07  3.0897156036911D-07
   275  2.7400000000000D+00 -5.0064612078083D-09 -2.9582275519956D-09
   276  2.7500000000000D+00 -1.4576963769798D-07 -8.6521306106927D-08
   277  2.7600000000000D+00 -1.4444587832432D-07 -8.6059715112372D-08
   278  2.7700000000000D+00 -3.5990412022437D-08 -2.1511709390011D-08
   279  2.7800000000000D+00  1.4514566211114D-08  7.8722226524245D-09
   280  2.7900000000000D+00  2.0440010688272D-08  1.1085988572831D-08
   281  2.8000000000000D+00  1.0336286572019D-08  5.6060613945111D-09
   282  2.8100000000000D+00  0.0000000000000D+00  0.0000000000000D+00
   283  2.8200000000000D+00  0.0000000000000D+00  0.0000000000000D+00
   284  2.8300000000000D+00  0.0000000000000D+00  0.0000000000000D+00
   285  2.8400000000000D+00  0.0000000000000D+00  0.0000000000000D+00
   286  2.8500000000000D+00  0.0000000000000D+00  0.0000000000000D+00
   287  2.8600000000000D+00  0.0000000000000D+00  0.0000000000000D+00
   288  2.8700000000000D+00  0.0000000000000D+00  0.0000000000000D+00
   289  2.8800000000000D+00  0.0000000000000D+00  0.0000000000000D+00
   290  2.8900000000000D+00  0.0000000000000D+00  0.0000000000000D+00
   291  2.9000000000000D+00  0.0000000000000D+00  0.0000000000000D+00
   292  2.9100000000000D+00  0.0000000000000D+00  0.0000000000000D+00
   293  2.9200000000000D+00  0.0000000000000D+00  0.0000000000000D+00
   294  2.9300000000000D+00  0.0000000000000D+00  0.0000000000000D+00
   295  2.9400000000000D+00  0.0000000000000D+00  0.0000000000000D+00
   296  2.9500000000000D+00  0.0000000000000D+00  0.0000000000000D+00
   297  2.9600000000000D+00  0.0000000000000D+00  0.0000000000000D+00
   298  2.9700000000000D+00  0.0000000000000D+00  0.0000000000000D+00
   299  2.9800000000000D+00  0.0000000000000D+00  0.0000000000000D+00
   300  2.9900000000000D+00  0.0000000000000D+00  0.0000000000000D+00
   301  3.0000000000000D+00  0.0000000000000D+00  0.0000000000000D+00
   302  3.0100000000000D+00  0.0000000000000D+00  0.0000000000000D+00
   303  3.0200000000000D+00  0.0000000000000D+00  0.0000000000000D+00
   304  3.0300000000000D+00  0.0000000000000D+00  0.0000000000000D+00
   305  3.0400000000000D+00  0.0000000000000D+00  0.0000000000000D+00
   306  3.0500000000000D+00  0.0000000000000D+00  0.0000000000000D+00
   307  3.0600000000000D+00  0.0000000000000D+00  0.0000000000000D+00
   308  3.0700000000000D+00  0.0000000000000D+00  0.0000000000000D+00
   309  3.0800000000000D+00  0.0000000000000D+00  0.0000000000000D+00
   310  3.0900000000000D+00  0.0000000000000D+00  0.0000000000000D+00
   311  3.1000000000000D+00  0.0000000000000D+00  0.0000000000000D+00
   312  3.1100000000000D+00  0.0000000000000D+00  0.0000000000000D+00
   313  3.1200000000000D+00  0.0000000000000D+00  0.0000000000000D+00
   314  3.1300000000000D+00  0.0000000000000D+00  0.0000000000000D+00
   315  3.1400000000000D+00  0.0000000000000D+00  0.0000000000000D+00
   316  3.1500000000000D+00  0.0000000000000D+00  0.0000000000000D+00
   317  3.1600000000000D+00  0.0000000000000D+00  0.0000000000000D+00
   318  3.1700000000000D+00  0.0000000000000D+00  0.0000000000000D+00
   319  3.1800000000000D+00  0.0000000000000D+00  0.0000000000000D+00
   320  3.1900000000000D+00  0.0000000000000D+00  0.0000000000000D+00
   321  3.2000000000000D+00  0.0000000000000D+00  0.0000000000000D+00
   322  3.2100000000000D+00  0.0000000000000D+00  0.0000000000000D+00
   323  3.2200000000000D+00  0.0000000000000D+00  0.0000000000000D+00
   324  3.2300000000000D+00  0.0000000000000D+00  0.0000000000000D+00
   325  3.2400000000000D+00  0.0000000000000D+00  0.0000000000000D+00
   326  3.2500000000000D+00  0.0000000000000D+00  0.0000000000000D+00
   327  3.2600000000000D+00  0.0000000000000D+00  0.0000000000000D+00
   328  3.2700000000000D+00  0.0000000000000D+00  0.0000000000000D+00
   329  3.2800000000000D+00  0.0000000000000D+00  0.0000000000000D+00
   330  3.2900000000000D+00  0.0000000000000D+00  0.0000000000000D+00
   331  3.3000000000000D+00  0.0000000000000D+00  0.0000000000000D+00
   332  3.3100000000000D+00  0.0000000000000D+00  0.0000000000000D+00
   333  3.3200000000000D+00  0.0000000000000D+00  0.0000000000000D+00
   334  3.3300000000000D+00  0.0000000000000D+00  0.0000000000000D+00
   335  3.3400000000000D+00  0.0000000000000D+00  0.0000000000000D+00
   336  3.3500000000000D+00  0.0000000000000D+00  0.0000000000000D+00
   337  3.3600000000000D+00  0.0000000000000D+00  0.0000000000000D+00
   338  3.3700000000000D+00  0.0000000000000D+00  0.0000000000000D+00
   339  3.3800000000000D+00  0.0000000000000D+00  0.0000000000000D+00
   340  3.3900000000000D+00  0.0000000000000D+00  0.0000000000000D+00
   341  3.4000000000000D+00  0.0000000000000D+00  0.0000000000000D+00
   342  3.4100000000000D+00  0.0000000000000D+00  0.0000000000000D+00
   343  3.4200000000000D+00  0.0000000000000D+00  0.0000000000000D+00
   344  3.4300000000000D+00  0.0000000000000D+00  0.0000000000000D+00
   345  3.4400000000000D+00  0.0000000000000D+00  0.0000000000000D+00
   346  3.4500000000000D+00  0.0000000000000D+00  0.0000000000000D+00
   347  3.4600000000000D+00  0.0000000000000D+00  0.0000000000000D+00
   348  3.4700000000000D+00  0.0000000000000D+00  0.0000000000000D+00
   349  3.4800000000000D+00  0.0000000000000D+00  0.0000000000000D+00
   350  3.4900000000000D+00  0.0000000000000D+00  0.0000000000000D+00
   351  3.5000000000000D+00  0.0000000000000D+00  0.0000000000000D+00
   352  3.5100000000000D+00  0.0000000000000D+00  0.0000000000000D+00
   353  3.5200000000000D+00  0.0000000000000D+00  0.0000000000000D+00
   354  3.5300000000000D+00  0.0000000000000D+00  0.0000000000000D+00
   355  3.5400000000000D+00  0.0000000000000D+00  0.0000000000000D+00
   356  3.5500000000000D+00  0.0000000000000D+00  0.0000000000000D+00
   357  3.5600000000000D+00  0.0000000000000D+00  0.0000000000000D+00
   358  3.5700000000000D+00  0.0000000000000D+00  0.0000000000000D+00
   359  3.5800000000000D+00  0.0000000000000D+00  0.0000000000000D+00
   360  3.5900000000000D+00  0.0000000000000D+00  0.0000000000000D+00
   361  3.6000000000000D+00  0.0000000000000D+00  0.0000000000000D+00
   362  3.6100000000000D+00  0.0000000000000D+00  0.0000000000000D+00
   363  3.6200000000000D+00  0.0000000000000D+00  0.0000000000000D+00
   364  3.6300000000000D+00  0.0000000000000D+00  0.0000000000000D+00
   365  3.6400000000000D+00  0.0000000000000D+00  0.0000000000000D+00
   366  3.6500000000000D+00  0.0000000000000D+00  0.0000000000000D+00
   367  3.6600000000000D+00  0.0000000000000D+00  0.0000000000000D+00
   368  3.6700000000000D+00  0.0000000000000D+00  0.0000000000000D+00
   369  3.6800000000000D+00  0.0000000000000D+00  0.0000000000000D+00
   370  3.6900000000000D+00  0.0000000000000D+00  0.0000000000000D+00
   371  3.7000000000000D+00  0.0000000000000D+00  0.0000000000000D+00
   372  3.7100000000000D+00  0.0000000000000D+00  0.0000000000000D+00
   373  3.7200000000000D+00  0.0000000000000D+00  0.0000000000000D+00
   374  3.7300000000000D+00  0.0000000000000D+00  0.0000000000000D+00
   375  3.7400000000000D+00  0.0000000000000D+00  0.0000000000000D+00
   376  3.7500000000000D+00  0.0000000000000D+00  0.0000000000000D+00
   377  3.7600000000000D+00  0.0000000000000D+00  0.0000000000000D+00
   378  3.7700000000000D+00  0.0000000000000D+00  0.0000000000000D+00
   379  3.7800000000000D+00  0.0000000000000D+00  0.0000000000000D+00
   380  3.7900000000000D+00  0.0000000000000D+00  0.0000000000000D+00
   381  3.8000000000000D+00  0.0000000000000D+00  0.0000000000000D+00
   382  3.8100000000000D+00  0.0000000000000D+00  0.0000000000000D+00
   383  3.8200000000000D+00  0.0000000000000D+00  0.0000000000000D+00
   384  3.8300000000000D+00  0.0000000000000D+00  0.0000000000000D+00
   385  3.8400000000000D+00  0.0000000000000D+00  0.0000000000000D+00
   386  3.8500000000000D+00  0.0000000000000D+00  0.0000000000000D+00
   387  3.8600000000000D+00  0.0000000000000D+00  0.0000000000000D+00
   388  3.8700000000000D+00  0.0000000000000D+00  0.0000000000000D+00
   389  3.8800000000000D+00  0.0000000000000D+00  0.0000000000000D+00
   390  3.8900000000000D+00  0.0000000000000D+00  0.0000000000000D+00
   391  3.9000000000000D+00  0.0000000000000D+00  0.0000000000000D+00
   392  3.9100000000000D+00  0.0000000000000D+00  0.0000000000000D+00
   393  3.9200000000000D+00  0.0000000000000D+00  0.0000000000000D+00
   394  3.9300000000000D+00  0.0000000000000D+00  0.0000000000000D+00
   395  3.9400000000000D+00  0.0000000000000D+00  0.0000000000000D+00
   396  3.9500000000000D+00  0.0000000000000D+00  0.0000000000000D+00
   397  3.9600000000000D+00  0.0000000000000D+00  0.0000000000000D+00
   398  3.9700000000000D+00  0.0000000000000D+00  0.0000000000000D+00
   399  3.9800000000000D+00  0.0000000000000D+00  0.0000000000000D+00
   400  3.9900000000000D+00  0.0000000000000D+00  0.0000000000000D+00
   401  4.0000000000000D+00  0.0000000000000D+00  0.0000000000000D+00
   402  4.0100000000000D+00  0.0000000000000D+00  0.0000000000000D+00
   403  4.0200000000000D+00  0.0000000000000D+00  0.0000000000000D+00
   404  4.0300000000000D+00  0.0000000000000D+00  0.0000000000000D+00
   405  4.0400000000000D+00  0.0000000000000D+00  0.0000000000000D+00
   406  4.0500000000000D+00  0.0000000000000D+00  0.0000000000000D+00
   407  4.0600000000000D+00  0.0000000000000D+00  0.0000000000000D+00
   408  4.0700000000000D+00  0.0000000000000D+00  0.0000000000000D+00
   409  4.0800000000000D+00  0.0000000000000D+00  0.0000000000000D+00
   410  4.0900000000000D+00  0.0000000000000D+00  0.0000000000000D+00
   411  4.1000000000000D+00  0.0000000000000D+00  0.0000000000000D+00
   412  4.1100000000000D+00  0.0000000000000D+00  0.0000000000000D+00
   413  4.1200000000000D+00  0.0000000000000D+00  0.0000000000000D+00
   414  4.1300000000000D+00  0.0000000000000D+00  0.0000000000000D+00
   415  4.1400000000000D+00  0.0000000000000D+00  0.0000000000000D+00
   416  4.1500000000000D+00  0.0000000000000D+00  0.0000000000000D+00
   417  4.1600000000000D+00  0.0000000000000D+00  0.0000000000000D+00
   418  4.1700000000000D+00  0.0000000000000D+00  0.0000000000000D+00
   419  4.1800000000000D+00  0.0000000000000D+00  0.0000000000000D+00
   420  4.1900000000000D+00  0.0000000000000D+00  0.0000000000000D+00
   421  4.2000000000000D+00  0.0000000000000D+00  0.0000000000000D+00
   422  4.2100000000000D+00  0.0000000000000D+00  0.0000000000000D+00