As    ONCVPSP-3.3.1  r_core=   2.94957   2.03781   2.94957
     33.0000      5.0000      210904    zatom,zion,pspd
     8       2   2     4   600     0    pspcod,pspxc,lmax,lloc,mmax,r2well
  5.99000000  0.00000000  0.00000000    rchrg fchrg qchrg
     2     2     2     0     0    nproj
     1     1           extension_switch
   0                         4.5727010899981D+00  6.2475216926827D-01
     1  0.0000000000000D+00  7.1001537982340D-13 -1.5687607463066D-12
     2  1.0000000000000D-02  2.6212406328747D-02 -1.5274982373216D-03
     3  2.0000000000000D-02  5.2417558577793D-02 -3.0691672420565D-03
     4  3.0000000000000D-02  7.8608181223311D-02 -4.6390983031366D-03
     5  4.0000000000000D-02  1.0477695593837D-01 -6.2512239917103D-03
     6  5.0000000000000D-02  1.3091650040408D-01 -7.9192393998533D-03
     7  6.0000000000000D-02  1.5701934737548D-01 -9.6565240953097D-03
     8  7.0000000000000D-02  1.8307792408624D-01 -1.1476065029214D-02
     9  8.0000000000000D-02  2.0908453207570D-01 -1.3390380632174D-02
    10  9.0000000000000D-02  2.3503132752057D-01 -1.5411446332173D-02
    11  1.0000000000000D-01  2.6091030215297D-01 -1.7550621725509D-02
    12  1.1000000000000D-01  2.8671326484500D-01 -1.9818579629139D-02
    13  1.2000000000000D-01  3.1243182393859D-01 -2.2225237239806D-02
    14  1.3000000000000D-01  3.3805737039805D-01 -2.4779689621654D-02
    15  1.4000000000000D-01  3.6358106186072D-01 -2.7490145740073D-02
    16  1.5000000000000D-01  3.8899380765933D-01 -3.0363867255095D-02
    17  1.6000000000000D-01  4.1428625488741D-01 -3.3407110282697D-02
    18  1.7000000000000D-01  4.3944877557701D-01 -3.6625070327036D-02
    19  1.8000000000000D-01  4.6447145505519D-01 -4.0021830580721D-02
    20  1.9000000000000D-01  4.8934408154342D-01 -4.3600313783933D-02
    21  2.0000000000000D-01  5.1405613706077D-01 -4.7362237826265D-02
    22  2.1000000000000D-01  5.3859678968913D-01 -5.1308075267772D-02
    23  2.2000000000000D-01  5.6295488725512D-01 -5.5437016947844D-02
    24  2.3000000000000D-01  5.8711895248023D-01 -5.9746939841979D-02
    25  2.4000000000000D-01  6.1107717964697D-01 -6.4234379317641D-02
    26  2.5000000000000D-01  6.3481743282498D-01 -6.8894505930627D-02
    27  2.6000000000000D-01  6.5832724569747D-01 -7.3721106893540D-02
    28  2.7000000000000D-01  6.8159382302367D-01 -7.8706572336964D-02
    29  2.8000000000000D-01  7.0460404376922D-01 -8.3841886472976D-02
    30  2.9000000000000D-01  7.2734446593175D-01 -8.9116623758679D-02
    31  3.0000000000000D-01  7.4980133308419D-01 -9.4518950145179D-02
    32  3.1000000000000D-01  7.7196058265373D-01 -1.0003562948446D-01
    33  3.2000000000000D-01  7.9380785594947D-01 -1.0565203515325D-01
    34  3.3000000000000D-01  8.1532850994664D-01 -1.1135216693915D-01
    35  3.4000000000000D-01  8.3650763083016D-01 -1.1711867321956D-01
    36  3.5000000000000D-01  8.5733004929484D-01 -1.2293287844937D-01
    37  3.6000000000000D-01  8.7778035759449D-01 -1.2877481595771D-01
    38  3.7000000000000D-01  8.9784292832623D-01 -1.3462326603856D-01
    39  3.8000000000000D-01  9.1750193493101D-01 -1.4045579930353D-01
    40  3.9000000000000D-01  9.3674137388558D-01 -1.4624882524880D-01
    41  4.0000000000000D-01  9.5554508855531D-01 -1.5197764597118D-01
    42  4.1000000000000D-01  9.7389679467163D-01 -1.5761651495125D-01
    43  4.2000000000000D-01  9.9178010739194D-01 -1.6313870080400D-01
    44  4.3000000000000D-01  1.0091785698941D+00 -1.6851655588004D-01
    45  4.4000000000000D-01  1.0260756834516D+00 -1.7372158958242D-01
    46  4.5000000000000D-01  1.0424549389300D+00 -1.7872454624670D-01
    47  4.6000000000000D-01  1.0582998496387D+00 -1.8349548741403D-01
    48  4.7000000000000D-01  1.0735939854682D+00 -1.8800387830900D-01
    49  4.8000000000000D-01  1.0883210082349D+00 -1.9221867831693D-01
    50  4.9000000000000D-01  1.1024647081512D+00 -1.9610843523720D-01
    51  5.0000000000000D-01  1.1160090413345D+00 -1.9964138307282D-01
    52  5.1000000000000D-01  1.1289381682607D+00 -2.0278554309873D-01
    53  5.2000000000000D-01  1.1412364930653D+00 -2.0550882793567D-01
    54  5.3000000000000D-01  1.1528887035879D+00 -2.0777914833992D-01
    55  5.4000000000000D-01  1.1638798120533D+00 -2.0956452240410D-01
    56  5.5000000000000D-01  1.1741951962772D+00 -2.1083318684921D-01
    57  5.6000000000000D-01  1.1838206412790D+00 -2.1155371007434D-01
    58  5.7000000000000D-01  1.1927423811820D+00 -2.1169510661659D-01
    59  5.8000000000000D-01  1.2009471412765D+00 -2.1122695266206D-01
    60  5.9000000000000D-01  1.2084221801193D+00 -2.1011950223650D-01
    61  6.0000000000000D-01  1.2151553315375D+00 -2.0834380369416D-01
    62  6.1000000000000D-01  1.2211350464047D+00 -2.0587181611398D-01
    63  6.2000000000000D-01  1.2263504340530D+00 -2.0267652520347D-01
    64  6.3000000000000D-01  1.2307913031852D+00 -1.9873205830437D-01
    65  6.4000000000000D-01  1.2344482021457D+00 -1.9401379808753D-01
    66  6.5000000000000D-01  1.2373124584124D+00 -1.8849849452083D-01
    67  6.6000000000000D-01  1.2393762171675D+00 -1.8216437469017D-01
    68  6.7000000000000D-01  1.2406324788076D+00 -1.7499125005277D-01
    69  6.8000000000000D-01  1.2410751352507D+00 -1.6696062070107D-01
    70  6.9000000000000D-01  1.2406990049027D+00 -1.5805577621779D-01
    71  7.0000000000000D-01  1.2394998661429D+00 -1.4826189270516D-01
    72  7.1000000000000D-01  1.2374744891923D+00 -1.3756612557653D-01
    73  7.2000000000000D-01  1.2346206662312D+00 -1.2595769770421D-01
    74  7.3000000000000D-01  1.2309372396322D+00 -1.1342798252603D-01
    75  7.4000000000000D-01  1.2264241281820D+00 -9.9970581722341D-02
    76  7.5000000000000D-01  1.2210823511665D+00 -8.5581397086680D-02
    77  7.6000000000000D-01  1.2149140501982D+00 -7.0258696226150D-02
    78  7.7000000000000D-01  1.2079225086716D+00 -5.4003171742439D-02
    79  7.8000000000000D-01  1.2001121687338D+00 -3.6817993560620D-02
    80  7.9000000000000D-01  1.1914886456691D+00 -1.8708854090857D-02
    81  8.0000000000000D-01  1.1820587395956D+00  3.1599407227031D-04
    82  8.1000000000000D-01  1.1718304443847D+00  2.0245708186941D-02
    83  8.2000000000000D-01  1.1608129537180D+00  4.1066833389469D-02
    84  8.3000000000000D-01  1.1490166642048D+00  6.2763288934983D-02
    85  8.4000000000000D-01  1.1364531754919D+00  8.5316362855491D-02
    86  8.5000000000000D-01  1.1231352873045D+00  1.0870471521024D-01
    87  8.6000000000000D-01  1.1090769933682D+00  1.3290439007527D-01
    88  8.7000000000000D-01  1.0942934721676D+00  1.5788883638963D-01
    89  8.8000000000000D-01  1.0788010745114D+00  1.8362893774544D-01
    90  8.9000000000000D-01  1.0626173078792D+00  2.1009305117765D-01
    91  9.0000000000000D-01  1.0457608175374D+00  2.3724705497667D-01
    92  9.1000000000000D-01  1.0282513644230D+00  2.6505440551444D-01
    93  9.2000000000000D-01  1.0101097998021D+00  2.9347620304041D-01
    94  9.3000000000000D-01  9.9135803672264D-01  3.2247126636959D-01
    95  9.4000000000000D-01  9.7201901829139D-01  3.5199621635031D-01
    96  9.5000000000000D-01  9.5211668281533D-01  3.8200556796383D-01
    97  9.6000000000000D-01  9.3167592586009D-01  4.1245183087319D-01
    98  9.7000000000000D-01  9.1072255928815D-01  4.4328561820256D-01
    99  9.8000000000000D-01  8.8928326735082D-01  4.7445576329440D-01
   100  9.9000000000000D-01  8.6738555991951D-01  5.0590944415525D-01
   101  1.0000000000000D+00  8.4505772295240D-01  5.3759231526743D-01
   102  1.0100000000000D+00  8.2232876630355D-01  5.6944864640917D-01
   103  1.0200000000000D+00  7.9922836899234D-01  6.0142146809231D-01
   104  1.0300000000000D+00  7.7578682206156D-01  6.3345272319425D-01
   105  1.0400000000000D+00  7.5203496916274D-01  6.6548342432795D-01
   106  1.0500000000000D+00  7.2800414501706D-01  6.9745381646505D-01
   107  1.0600000000000D+00  7.0372611191038D-01  7.2930354429512D-01
   108  1.0700000000000D+00  6.7923299438972D-01  7.6097182377715D-01
   109  1.0800000000000D+00  6.5455721233771D-01  7.9239761731260D-01
   110  1.0900000000000D+00  6.2973141261020D-01  8.2351981194215D-01
   111  1.1000000000000D+00  6.0478839942925D-01  8.5427739994873D-01
   112  1.1100000000000D+00  5.7976106373284D-01  8.8460966122216D-01
   113  1.1200000000000D+00  5.5468231168821D-01  9.1445634672487D-01
   114  1.1300000000000D+00  5.2958499258323D-01  9.4375786237742D-01
   115  1.1400000000000D+00  5.0450182631507D-01  9.7245545266953D-01
   116  1.1500000000000D+00  4.7946533070138D-01  1.0004913832853D+00
   117  1.1600000000000D+00  4.5450774884385D-01  1.0278091220216D+00
   118  1.1700000000000D+00  4.2966097677759D-01  1.0543535172682D+00
   119  1.1800000000000D+00  4.0495649164287D-01  1.0800709733139D+00
   120  1.1900000000000D+00  3.8042528061920D-01  1.1049096217329D+00
   121  1.2000000000000D+00  3.5609777086282D-01  1.1288194881105D+00
   122  1.2100000000000D+00  3.3200376068998D-01  1.1517526533611D+00
   123  1.2200000000000D+00  3.0817235224922D-01  1.1736634088986D+00
   124  1.2300000000000D+00  2.8463188592541D-01  1.1945084049209D+00
   125  1.2400000000000D+00  2.6140987671618D-01  1.2142467910848D+00
   126  1.2500000000000D+00  2.3853295282235D-01  1.2328403488460D+00
   127  1.2600000000000D+00  2.1602679668863D-01  1.2502536147616D+00
   128  1.2700000000000D+00  1.9391608872791D-01  1.2664539940700D+00
   129  1.2800000000000D+00  1.7222445396186D-01  1.2814118638627D+00
   130  1.2900000000000D+00  1.5097441180213D-01  1.2951006652009D+00
   131  1.3000000000000D+00  1.3018732919006D-01  1.3074969835539D+00
   132  1.3100000000000D+00  1.0988337731481D-01  1.3185806169293D+00
   133  1.3200000000000D+00  9.0081492113404D-02  1.3283346311298D+00
   134  1.3300000000000D+00  7.0799338751199D-02  1.3367454015898D+00
   135  1.3400000000000D+00  5.2053280283564D-02  1.3438026412356D+00
   136  1.3500000000000D+00  3.3858350673628D-02  1.3494994139138D+00
   137  1.3600000000000D+00  1.6228232344717D-02  1.3538321329127D+00
   138  1.3700000000000D+00 -8.2476156122307D-04  1.3568005441342D+00
   139  1.3800000000000D+00 -1.7289700076890D-02  1.3584076935737D+00
   140  1.3900000000000D+00 -3.3157042294606D-02  1.3586598787058D+00
   141  1.4000000000000D+00 -4.8418640116552D-02  1.3575665834905D+00
   142  1.4100000000000D+00 -6.3067735752925D-02  1.3551403967463D+00
   143  1.4200000000000D+00 -7.7098953836593D-02  1.3513969135904D+00
   144  1.4300000000000D+00 -9.0508288081655D-02  1.3463546198447D+00
   145  1.4400000000000D+00 -1.0329308237367D-01  1.3400347591742D+00
   146  1.4500000000000D+00 -1.1545200622855D-01  1.3324611828913D+00
   147  1.4600000000000D+00 -1.2698502456284D-01  1.3236601823740D+00
   148  1.4700000000000D+00 -1.3789336169937D-01  1.3136603039914D+00
   149  1.4800000000000D+00 -1.4817945961139D-01  1.3024921466823D+00
   150  1.4900000000000D+00 -1.5784693033152D-01  1.2901881420878D+00
   151  1.5000000000000D+00 -1.6690050255629D-01  1.2767823174749D+00
   152  1.5100000000000D+00 -1.7534596241681D-01  1.2623100414918D+00
   153  1.5200000000000D+00 -1.8319008820246D-01  1.2468077498677D+00
   154  1.5300000000000D+00 -1.9044058068517D-01  1.2303126726112D+00
   155  1.5400000000000D+00 -1.9710598222746D-01  1.2128624782120D+00
   156  1.5500000000000D+00 -2.0319560822567D-01  1.1944951074530D+00
   157  1.5600000000000D+00 -2.0871943836407D-01  1.1752482145901D+00
   158  1.5700000000000D+00 -2.1368801884437D-01  1.1551586945364D+00
   159  1.5800000000000D+00 -2.1811243999241D-01  1.1342634061517D+00
   160  1.5900000000000D+00 -2.2200430877873D-01  1.1125996607913D+00
   161  1.6000000000000D+00 -2.2537578045741D-01  1.0902060188863D+00
   162  1.6100000000000D+00 -2.2823956348452D-01  1.0671227531353D+00
   163  1.6200000000000D+00 -2.3060886764514D-01  1.0433913912468D+00
   164  1.6300000000000D+00 -2.3249737449497D-01  1.0190545866921D+00
   165  1.6400000000000D+00 -2.3391920767551D-01  9.9415605837859D-01
   166  1.6500000000000D+00 -2.3488889865766D-01  9.6874043524627D-01
   167  1.6600000000000D+00 -2.3542135369325D-01  9.4285313634367D-01
   168  1.6700000000000D+00 -2.3553181949252D-01  9.1654023802188D-01
   169  1.6800000000000D+00 -2.3523584859977D-01  8.8984834320235D-01
   170  1.6900000000000D+00 -2.3454926441725D-01  8.6282445063473D-01
   171  1.7000000000000D+00 -2.3348812597399D-01  8.3551582450814D-01
   172  1.7100000000000D+00 -2.3206869254353D-01  8.0796986484149D-01
   173  1.7200000000000D+00 -2.3030738820356D-01  7.8023397899251D-01
   174  1.7300000000000D+00 -2.2822076644399D-01  7.5235545471134D-01
   175  1.7400000000000D+00 -2.2582547491211D-01  7.2438133505612D-01
   176  1.7500000000000D+00 -2.2313822040078D-01  6.9635829558072D-01
   177  1.7600000000000D+00 -2.2017573416556D-01  6.6833252410108D-01
   178  1.7700000000000D+00 -2.1695473767050D-01  6.4034960340825D-01
   179  1.7800000000000D+00 -2.1349190885054D-01  6.1245439724766D-01
   180  1.7900000000000D+00 -2.0980384897475D-01  5.8469093985113D-01
   181  1.8000000000000D+00 -2.0590705020921D-01  5.5710232939243D-01
   182  1.8100000000000D+00 -2.0181786393566D-01  5.2973062551882D-01
   183  1.8200000000000D+00 -1.9755246994729D-01  5.0261675143154D-01
   184  1.8300000000000D+00 -1.9312684653493D-01  4.7580040047287D-01
   185  1.8400000000000D+00 -1.8855674161995D-01  4.4931994784442D-01
   186  1.8500000000000D+00 -1.8385764489468D-01  4.2321236718665D-01
   187  1.8600000000000D+00 -1.7904476115703D-01  3.9751315276763D-01
   188  1.8700000000000D+00 -1.7413298477230D-01  3.7225624690044D-01
   189  1.8800000000000D+00 -1.6913687543143D-01  3.4747397324747D-01
   190  1.8900000000000D+00 -1.6407063516530D-01  3.2319697575887D-01
   191  1.9000000000000D+00 -1.5894808671824D-01  2.9945416360819D-01
   192  1.9100000000000D+00 -1.5378265330538D-01  2.7627266215678D-01
   193  1.9200000000000D+00 -1.4858733975606D-01  2.5367776988038D-01
   194  1.9300000000000D+00 -1.4337471516470D-01  2.3169292169279D-01
   195  1.9400000000000D+00 -1.3815689692603D-01  2.1033965808478D-01
   196  1.9500000000000D+00 -1.3294553636830D-01  1.8963760088508D-01
   197  1.9600000000000D+00 -1.2775180580030D-01  1.6960443482087D-01
   198  1.9700000000000D+00 -1.2258638714903D-01  1.5025589552400D-01
   199  1.9800000000000D+00 -1.1745946209177D-01  1.3160576352590D-01
   200  1.9900000000000D+00 -1.1238070370567D-01  1.1366586426320D-01
   201  2.0000000000000D+00 -1.0735926969834D-01  9.6446074275009D-02
   202  2.0100000000000D+00 -1.0240379705546D-01  7.9954332878303D-02
   203  2.0200000000000D+00 -9.7522398308804D-02  6.4196660041987D-02
   204  2.0300000000000D+00 -9.2722659186144D-02  4.9177179467755D-02
   205  2.0400000000000D+00 -8.8011637783564D-02  3.4898147342700D-02
   206  2.0500000000000D+00 -8.3395865166800D-02  2.1359986337832D-02
   207  2.0600000000000D+00 -7.8881347330294D-02  8.5613245112827D-03
   208  2.0700000000000D+00 -7.4473568611874D-02 -3.5009605986210D-03
   209  2.0800000000000D+00 -7.0177496341134D-02 -1.4831693575070D-02
   210  2.0900000000000D+00 -6.5997586855263D-02 -2.5437348021778D-02
   211  2.1000000000000D+00 -6.1937792723619D-02 -3.5325989399937D-02
   212  2.1100000000000D+00 -5.8001571147026D-02 -4.4507214006002D-02
   213  2.1200000000000D+00 -5.4191893560237D-02 -5.2992084087890D-02
   214  2.1300000000000D+00 -5.0511256244427D-02 -6.0793059821251D-02
   215  2.1400000000000D+00 -4.6961692033090D-02 -6.7923927991249D-02
   216  2.1500000000000D+00 -4.3544782961415D-02 -7.4399727939572D-02
   217  2.1600000000000D+00 -4.0261673807002D-02 -8.0236675041220D-02
   218  2.1700000000000D+00 -3.7113086518537D-02 -8.5452081863475D-02
   219  2.1800000000000D+00 -3.4099335378636D-02 -9.0064277506285D-02
   220  2.1900000000000D+00 -3.1220342905722D-02 -9.4092525306058D-02
   221  2.2000000000000D+00 -2.8475656397032D-02 -9.7556939255771D-02
   222  2.2100000000000D+00 -2.5864465035021D-02 -1.0047839942050D-01
   223  2.2200000000000D+00 -2.3385617513692D-02 -1.0287846675666D-01
   224  2.2300000000000D+00 -2.1037640097958D-02 -1.0477929747427D-01
   225  2.2400000000000D+00 -1.8818755049073D-02 -1.0620355738605D-01
   226  2.2500000000000D+00 -1.6726899339391D-02 -1.0717433659372D-01
   227  2.2600000000000D+00 -1.4759743624896D-02 -1.0771506446864D-01
   228  2.2700000000000D+00 -1.2914711340458D-02 -1.0784942575260D-01
   229  2.2800000000000D+00 -1.1188997901779D-02 -1.0760127767080D-01
   230  2.2900000000000D+00 -9.5795899712673D-03 -1.0699456820199D-01
   231  2.3000000000000D+00 -8.0832846071900D-03 -1.0605325649187D-01
   232  2.3100000000000D+00 -6.6967083823958D-03 -1.0480123475355D-01
   233  2.3200000000000D+00 -5.4163363253084D-03 -1.0326225241561D-01
   234  2.3300000000000D+00 -4.2385105755136D-03 -1.0145984301598D-01
   235  2.3400000000000D+00 -3.1594588672059D-03 -9.9417253123741D-02
   236  2.3500000000000D+00 -2.1753125918160D-03 -9.7157374548645D-02
   237  2.3600000000000D+00 -1.2821244543193D-03 -9.4702679670059D-02
   238  2.3700000000000D+00 -4.7588582831071D-04 -9.2075159266707D-02
   239  2.3800000000000D+00  2.4745654712607D-04 -8.9296264612401D-02
   240  2.3900000000000D+00  8.9198434451845D-04 -8.6386852813861D-02
   241  2.4000000000000D+00  1.4617918587731D-03 -8.3367135134486D-02
   242  2.4100000000000D+00  1.9609710731668D-03 -8.0256630333473D-02
   243  2.4200000000000D+00  2.3935972177762D-03 -7.7074121149491D-02
   244  2.4300000000000D+00  2.7637149393962D-03 -7.3837614462749D-02
   245  2.4400000000000D+00  3.0753253947155D-03 -7.0564306583165D-02
   246  2.4500000000000D+00  3.3323738963342D-03 -6.7270551805109D-02
   247  2.4600000000000D+00  3.5387382915582D-03 -6.3971835040412D-02
   248  2.4700000000000D+00  3.6982183023792D-03 -6.0682749549687D-02
   249  2.4800000000000D+00  3.8145254557872D-03 -5.7416977954184D-02
   250  2.4900000000000D+00  3.8912738286282D-03 -5.4187277527737D-02
   251  2.5000000000000D+00  3.9319717588099D-03 -5.1005470412132D-02
   252  2.5100000000000D+00  3.9400141645341D-03 -4.7882437032916D-02
   253  2.5200000000000D+00  3.9186757115956D-03 -4.4828113766212D-02
   254  2.5300000000000D+00  3.8711049302841D-03 -4.1851495255830D-02
   255  2.5400000000000D+00  3.8003189362846D-03 -3.8960639750473D-02
   256  2.5500000000000D+00  3.7091989826538D-03 -3.6162678428883D-02
   257  2.5600000000000D+00  3.6004869267723D-03 -3.3463829021895D-02
   258  2.5700000000000D+00  3.4767822771868D-03 -3.0869412182891D-02
   259  2.5800000000000D+00  3.3405400061032D-03 -2.8383871367567D-02
   260  2.5900000000000D+00  3.1940692267528D-03 -2.6010796585215D-02
   261  2.6000000000000D+00  3.0395324075892D-03 -2.3752950542279D-02
   262  2.6100000000000D+00  2.8789452470162D-03 -2.1612297650801D-02
   263  2.6200000000000D+00  2.7141773450580D-03 -1.9590036396431D-02
   264  2.6300000000000D+00  2.5469533513542D-03 -1.7686633666241D-02
   265  2.6400000000000D+00  2.3788546450615D-03 -1.5901861215869D-02
   266  2.6500000000000D+00  2.2113217182986D-03 -1.4234834858248D-02
   267  2.6600000000000D+00  2.0456569591015D-03 -1.2684055109207D-02
   268  2.6700000000000D+00  1.8830278381606D-03 -1.1247449286123D-02
   269  2.6800000000000D+00  1.7244706685389D-03 -9.9224155021501D-03
   270  2.6900000000000D+00  1.5708946654431D-03 -8.7058675402955D-03
   271  2.7000000000000D+00  1.4230863293494D-03 -7.5942806957598D-03
   272  2.7100000000000D+00  1.2817141904769D-03 -6.5837383781144D-03
   273  2.7200000000000D+00  1.1473337798621D-03 -5.6699791144059D-03
   274  2.7300000000000D+00  1.0203928365188D-03 -4.8484439868711D-03
   275  2.7400000000000D+00  9.0123667156538D-04 -4.1143238298730D-03
   276  2.7500000000000D+00  7.9011365909916D-04 -3.4626061656211D-03
   277  2.7600000000000D+00  6.8718085815269D-04 -2.8881219791253D-03
   278  2.7700000000000D+00  5.9250967255796D-04 -2.3855917159086D-03
   279  2.7800000000000D+00  5.0609145594056D-04 -1.9496699437070D-03
   280  2.7900000000000D+00  4.2784313304145D-04 -1.5749892187865D-03
   281  2.8000000000000D+00  3.5761286898372D-04 -1.2562033127077D-03
   282  2.8100000000000D+00  2.9518538213014D-04 -9.8802742677459D-04
   283  2.8200000000000D+00  2.4028723177465D-04 -7.6527740384850D-04
   284  2.8300000000000D+00  1.9259210928822D-04 -5.8290804798996D-04
   285  2.8400000000000D+00  1.5172562107189D-04 -4.3604769409528D-04
   286  2.8500000000000D+00  1.1727340821194D-04 -3.2005083716736D-04
   287  2.8600000000000D+00  8.8777782666958D-05 -2.3048475590950D-04
   288  2.8700000000000D+00  6.5737588713713D-05 -1.6313359544523D-04
   289  2.8800000000000D+00  4.7628956481620D-05 -1.1412015485651D-04
   290  2.8900000000000D+00  3.3789634124951D-05 -7.9584889221146D-05
   291  2.9000000000000D+00  2.3846279317257D-05 -5.6896029198277D-05
   292  2.9100000000000D+00  1.7255906271152D-05 -4.3363137641134D-05
   293  2.9200000000000D+00  1.3641480641399D-05 -3.7096910044397D-05
   294  2.9300000000000D+00  1.2059734430454D-05 -3.5127563290426D-05
   295  2.9400000000000D+00  1.1205651273259D-05 -3.3883666316640D-05
   296  2.9500000000000D+00  1.0105935270373D-05 -3.0893296347646D-05
   297  2.9600000000000D+00  7.4470882418206D-06 -2.2923534412502D-05
   298  2.9700000000000D+00  4.2986167949144D-06 -1.3251713979074D-05
   299  2.9800000000000D+00  1.2614497835324D-06 -3.8841977118150D-06
   300  2.9900000000000D+00 -6.0533627589889D-07  1.8994695157104D-06
   301  3.0000000000000D+00 -1.0573157851269D-06  3.3251708560072D-06
   302  3.0100000000000D+00 -7.4162087276613D-07  2.3361094918480D-06
   303  3.0200000000000D+00 -5.6778619160051D-08  1.7906560322300D-07
   304  3.0300000000000D+00  1.8351248020708D-07 -5.7578041626052D-07
   305  3.0400000000000D+00  2.2425463250301D-07 -7.0436999914284D-07
   306  3.0500000000000D+00  1.1938625305642D-07 -3.7533325005567D-07
   307  3.0600000000000D+00 -8.4748142077788D-09  2.5894566211921D-08
   308  3.0700000000000D+00 -2.6955453218860D-08  8.2361660212848D-08
   309  3.0800000000000D+00 -2.5841967794532D-08  7.8959435534010D-08
   310  3.0900000000000D+00 -8.5302076588510D-09  2.6063819407487D-08
   311  3.1000000000000D+00  0.0000000000000D+00  0.0000000000000D+00
   312  3.1100000000000D+00  0.0000000000000D+00  0.0000000000000D+00
   313  3.1200000000000D+00  0.0000000000000D+00  0.0000000000000D+00
   314  3.1300000000000D+00  0.0000000000000D+00  0.0000000000000D+00
   315  3.1400000000000D+00  0.0000000000000D+00  0.0000000000000D+00
   316  3.1500000000000D+00  0.0000000000000D+00  0.0000000000000D+00
   317  3.1600000000000D+00  0.0000000000000D+00  0.0000000000000D+00
   318  3.1700000000000D+00  0.0000000000000D+00  0.0000000000000D+00
   319  3.1800000000000D+00  0.0000000000000D+00  0.0000000000000D+00
   320  3.1900000000000D+00  0.0000000000000D+00  0.0000000000000D+00
   321  3.2000000000000D+00  0.0000000000000D+00  0.0000000000000D+00
   322  3.2100000000000D+00  0.0000000000000D+00  0.0000000000000D+00
   323  3.2200000000000D+00  0.0000000000000D+00  0.0000000000000D+00
   324  3.2300000000000D+00  0.0000000000000D+00  0.0000000000000D+00
   325  3.2400000000000D+00  0.0000000000000D+00  0.0000000000000D+00
   326  3.2500000000000D+00  0.0000000000000D+00  0.0000000000000D+00
   327  3.2600000000000D+00  0.0000000000000D+00  0.0000000000000D+00
   328  3.2700000000000D+00  0.0000000000000D+00  0.0000000000000D+00
   329  3.2800000000000D+00  0.0000000000000D+00  0.0000000000000D+00
   330  3.2900000000000D+00  0.0000000000000D+00  0.0000000000000D+00
   331  3.3000000000000D+00  0.0000000000000D+00  0.0000000000000D+00
   332  3.3100000000000D+00  0.0000000000000D+00  0.0000000000000D+00
   333  3.3200000000000D+00  0.0000000000000D+00  0.0000000000000D+00
   334  3.3300000000000D+00  0.0000000000000D+00  0.0000000000000D+00
   335  3.3400000000000D+00  0.0000000000000D+00  0.0000000000000D+00
   336  3.3500000000000D+00  0.0000000000000D+00  0.0000000000000D+00
   337  3.3600000000000D+00  0.0000000000000D+00  0.0000000000000D+00
   338  3.3700000000000D+00  0.0000000000000D+00  0.0000000000000D+00
   339  3.3800000000000D+00  0.0000000000000D+00  0.0000000000000D+00
   340  3.3900000000000D+00  0.0000000000000D+00  0.0000000000000D+00
   341  3.4000000000000D+00  0.0000000000000D+00  0.0000000000000D+00
   342  3.4100000000000D+00  0.0000000000000D+00  0.0000000000000D+00
   343  3.4200000000000D+00  0.0000000000000D+00  0.0000000000000D+00
   344  3.4300000000000D+00  0.0000000000000D+00  0.0000000000000D+00
   345  3.4400000000000D+00  0.0000000000000D+00  0.0000000000000D+00
   346  3.4500000000000D+00  0.0000000000000D+00  0.0000000000000D+00
   347  3.4600000000000D+00  0.0000000000000D+00  0.0000000000000D+00
   348  3.4700000000000D+00  0.0000000000000D+00  0.0000000000000D+00
   349  3.4800000000000D+00  0.0000000000000D+00  0.0000000000000D+00
   350  3.4900000000000D+00  0.0000000000000D+00  0.0000000000000D+00
   351  3.5000000000000D+00  0.0000000000000D+00  0.0000000000000D+00
   352  3.5100000000000D+00  0.0000000000000D+00  0.0000000000000D+00
   353  3.5200000000000D+00  0.0000000000000D+00  0.0000000000000D+00
   354  3.5300000000000D+00  0.0000000000000D+00  0.0000000000000D+00
   355  3.5400000000000D+00  0.0000000000000D+00  0.0000000000000D+00
   356  3.5500000000000D+00  0.0000000000000D+00  0.0000000000000D+00
   357  3.5600000000000D+00  0.0000000000000D+00  0.0000000000000D+00
   358  3.5700000000000D+00  0.0000000000000D+00  0.0000000000000D+00
   359  3.5800000000000D+00  0.0000000000000D+00  0.0000000000000D+00
   360  3.5900000000000D+00  0.0000000000000D+00  0.0000000000000D+00
   361  3.6000000000000D+00  0.0000000000000D+00  0.0000000000000D+00
   362  3.6100000000000D+00  0.0000000000000D+00  0.0000000000000D+00
   363  3.6200000000000D+00  0.0000000000000D+00  0.0000000000000D+00
   364  3.6300000000000D+00  0.0000000000000D+00  0.0000000000000D+00
   365  3.6400000000000D+00  0.0000000000000D+00  0.0000000000000D+00
   366  3.6500000000000D+00  0.0000000000000D+00  0.0000000000000D+00
   367  3.6600000000000D+00  0.0000000000000D+00  0.0000000000000D+00
   368  3.6700000000000D+00  0.0000000000000D+00  0.0000000000000D+00
   369  3.6800000000000D+00  0.0000000000000D+00  0.0000000000000D+00
   370  3.6900000000000D+00  0.0000000000000D+00  0.0000000000000D+00
   371  3.7000000000000D+00  0.0000000000000D+00  0.0000000000000D+00
   372  3.7100000000000D+00  0.0000000000000D+00  0.0000000000000D+00
   373  3.7200000000000D+00  0.0000000000000D+00  0.0000000000000D+00
   374  3.7300000000000D+00  0.0000000000000D+00  0.0000000000000D+00
   375  3.7400000000000D+00  0.0000000000000D+00  0.0000000000000D+00
   376  3.7500000000000D+00  0.0000000000000D+00  0.0000000000000D+00
   377  3.7600000000000D+00  0.0000000000000D+00  0.0000000000000D+00
   378  3.7700000000000D+00  0.0000000000000D+00  0.0000000000000D+00
   379  3.7800000000000D+00  0.0000000000000D+00  0.0000000000000D+00
   380  3.7900000000000D+00  0.0000000000000D+00  0.0000000000000D+00
   381  3.8000000000000D+00  0.0000000000000D+00  0.0000000000000D+00
   382  3.8100000000000D+00  0.0000000000000D+00  0.0000000000000D+00
   383  3.8200000000000D+00  0.0000000000000D+00  0.0000000000000D+00
   384  3.8300000000000D+00  0.0000000000000D+00  0.0000000000000D+00
   385  3.8400000000000D+00  0.0000000000000D+00  0.0000000000000D+00
   386  3.8500000000000D+00  0.0000000000000D+00  0.0000000000000D+00
   387  3.8600000000000D+00  0.0000000000000D+00  0.0000000000000D+00
   388  3.8700000000000D+00  0.0000000000000D+00  0.0000000000000D+00
   389  3.8800000000000D+00  0.0000000000000D+00  0.0000000000000D+00
   390  3.8900000000000D+00  0.0000000000000D+00  0.0000000000000D+00
   391  3.9000000000000D+00  0.0000000000000D+00  0.0000000000000D+00
   392  3.9100000000000D+00  0.0000000000000D+00  0.0000000000000D+00
   393  3.9200000000000D+00  0.0000000000000D+00  0.0000000000000D+00
   394  3.9300000000000D+00  0.0000000000000D+00  0.0000000000000D+00
   395  3.9400000000000D+00  0.0000000000000D+00  0.0000000000000D+00
   396  3.9500000000000D+00  0.0000000000000D+00  0.0000000000000D+00
   397  3.9600000000000D+00  0.0000000000000D+00  0.0000000000000D+00
   398  3.9700000000000D+00  0.0000000000000D+00  0.0000000000000D+00
   399  3.9800000000000D+00  0.0000000000000D+00  0.0000000000000D+00
   400  3.9900000000000D+00  0.0000000000000D+00  0.0000000000000D+00
   401  4.0000000000000D+00  0.0000000000000D+00  0.0000000000000D+00
   402  4.0100000000000D+00  0.0000000000000D+00  0.0000000000000D+00
   403  4.0200000000000D+00  0.0000000000000D+00  0.0000000000000D+00
   404  4.0300000000000D+00  0.0000000000000D+00  0.0000000000000D+00
   405  4.0400000000000D+00  0.0000000000000D+00  0.0000000000000D+00
   406  4.0500000000000D+00  0.0000000000000D+00  0.0000000000000D+00
   407  4.0600000000000D+00  0.0000000000000D+00  0.0000000000000D+00
   408  4.0700000000000D+00  0.0000000000000D+00  0.0000000000000D+00
   409  4.0800000000000D+00  0.0000000000000D+00  0.0000000000000D+00
   410  4.0900000000000D+00  0.0000000000000D+00  0.0000000000000D+00
   411  4.1000000000000D+00  0.0000000000000D+00  0.0000000000000D+00
   412  4.1100000000000D+00  0.0000000000000D+00  0.0000000000000D+00
   413  4.1200000000000D+00  0.0000000000000D+00  0.0000000000000D+00
   414  4.1300000000000D+00  0.0000000000000D+00  0.0000000000000D+00
   415  4.1400000000000D+00  0.0000000000000D+00  0.0000000000000D+00
   416  4.1500000000000D+00  0.0000000000000D+00  0.0000000000000D+00
   417  4.1600000000000D+00  0.0000000000000D+00  0.0000000000000D+00
   418  4.1700000000000D+00  0.0000000000000D+00  0.0000000000000D+00
   419  4.1800000000000D+00  0.0000000000000D+00  0.0000000000000D+00
   420  4.1900000000000D+00  0.0000000000000D+00  0.0000000000000D+00
   421  4.2000000000000D+00  0.0000000000000D+00  0.0000000000000D+00
   422  4.2100000000000D+00  0.0000000000000D+00  0.0000000000000D+00