Au    ONCVPSP-3.3.1  r_core=   2.46102   2.46102   2.18429   3.16160
     79.0000     19.0000      210904    zatom,zion,pspd
     8       2   3     4   600     0    pspcod,pspxc,lmax,lloc,mmax,r2well
  5.99000000  0.00000000  0.00000000    rchrg fchrg qchrg
     2     2     2     2     0    nproj
     1     1           extension_switch
   0                         4.0378084119028D+00  5.0233837017470D-01
     1  0.0000000000000D+00 -2.3026025530726D-13 -1.6207452047112D-11
     2  1.0000000000000D-02  5.5876558576750D-02  8.8712685995303D-03
     3  2.0000000000000D-02  1.1166313892594D-01  1.7735532141638D-02
     4  3.0000000000000D-02  1.6726991688336D-01  2.6585900634784D-02
     5  4.0000000000000D-02  2.2260737618837D-01  3.5415713428858D-02
     6  5.0000000000000D-02  2.7758646187781D-01  4.4218651914114D-02
     7  6.0000000000000D-02  3.3211873301068D-01  5.2988849865397D-02
     8  7.0000000000000D-02  3.8611651450063D-01  6.1721000665712D-02
     9  8.0000000000000D-02  4.3949304783389D-01  7.0410460659376D-02
    10  9.0000000000000D-02  4.9216264045013D-01  7.9053347905032D-02
    11  1.0000000000000D-01  5.4404081356441D-01  8.7646635622699D-02
    12  1.1000000000000D-01  5.9504444820879D-01  9.6188239656681D-02
    13  1.2000000000000D-01  6.4509192927269D-01  1.0467709930730D-01
    14  1.3000000000000D-01  6.9410328732159D-01  1.1311325091915D-01
    15  1.4000000000000D-01  7.4200033797472D-01  1.2149789365166D-01
    16  1.5000000000000D-01  7.8870681862304D-01  1.2983344689858D-01
    17  1.6000000000000D-01  8.3414852226976D-01  1.3812359886764D-01
    18  1.7000000000000D-01  8.7825342827710D-01  1.4637334587804D-01
    19  1.8000000000000D-01  9.2095182980403D-01  1.5458902198322D-01
    20  1.9000000000000D-01  9.6217645772139D-01  1.6277831857809D-01
    21  2.0000000000000D-01  1.0018626007923D+00  1.7095029370382D-01
    22  2.1000000000000D-01  1.0399482219083D+00  1.7911537081926D-01
    23  2.2000000000000D-01  1.0763740701723D+00  1.8728532686531D-01
    24  2.3000000000000D-01  1.1110837886243D+00  1.9547326950761D-01
    25  2.4000000000000D-01  1.1440240174061D+00  2.0369360350272D-01
    26  2.5000000000000D-01  1.1751444921649D+00  2.1196198619380D-01
    27  2.6000000000000D-01  1.2043981375004D+00  2.2029527220294D-01
    28  2.7000000000000D-01  1.2317411552615D+00  2.2871144744903D-01
    29  2.8000000000000D-01  1.2571331075039D+00  2.3722955268139D-01
    30  2.9000000000000D-01  1.2805369939245D+00  2.4586959678068D-01
    31  3.0000000000000D-01  1.3019193235914D+00  2.5465246013891D-01
    32  3.1000000000000D-01  1.3212501807970D+00  2.6359978849026D-01
    33  3.2000000000000D-01  1.3385032848629D+00  2.7273387762249D-01
    34  3.3000000000000D-01  1.3536560437358D+00  2.8207754945578D-01
    35  3.4000000000000D-01  1.3666896012155D+00  2.9165402003068D-01
    36  3.5000000000000D-01  1.3775888776687D+00  3.0148675999988D-01
    37  3.6000000000000D-01  1.3863426040847D+00  3.1159934826895D-01
    38  3.7000000000000D-01  1.3929433493398D+00  3.2201531947927D-01
    39  3.8000000000000D-01  1.3973875405461D+00  3.3275800607095D-01
    40  3.9000000000000D-01  1.3996754763695D+00  3.4385037570574D-01
    41  4.0000000000000D-01  1.3998113332092D+00  3.5531486486802D-01
    42  4.1000000000000D-01  1.3978031641453D+00  3.6717320949671D-01
    43  4.2000000000000D-01  1.3936628905695D+00  3.7944627353189D-01
    44  4.3000000000000D-01  1.3874062864250D+00  3.9215387628658D-01
    45  4.4000000000000D-01  1.3790529549976D+00  4.0531461957661D-01
    46  4.5000000000000D-01  1.3686262982071D+00  4.1894571555991D-01
    47  4.6000000000000D-01  1.3561534783675D+00  4.3306281624963D-01
    48  4.7000000000000D-01  1.3416653723934D+00  4.4767984567467D-01
    49  4.8000000000000D-01  1.3251965184491D+00  4.6280883566513D-01
    50  4.9000000000000D-01  1.3067850550475D+00  4.7845976623926D-01
    51  5.0000000000000D-01  1.2864726526252D+00  4.9464041156270D-01
    52  5.1000000000000D-01  1.2643044376360D+00  5.1135619244000D-01
    53  5.2000000000000D-01  1.2403289092179D+00  5.2861003628241D-01
    54  5.3000000000000D-01  1.2145978485125D+00  5.4640224547517D-01
    55  5.4000000000000D-01  1.1871662207268D+00  5.6473037504169D-01
    56  5.5000000000000D-01  1.1580920700502D+00  5.8358912047102D-01
    57  5.6000000000000D-01  1.1274364075548D+00  6.0297021653961D-01
    58  5.7000000000000D-01  1.0952630922281D+00  6.2286234791764D-01
    59  5.8000000000000D-01  1.0616387053046D+00  6.4325107230546D-01
    60  5.9000000000000D-01  1.0266324180830D+00  6.6411875679614D-01
    61  6.0000000000000D-01  9.9031585343398D-01  6.8544452810612D-01
    62  6.1000000000000D-01  9.5276294122468D-01  7.0720423725826D-01
    63  6.2000000000000D-01  9.1404976790387D-01  7.2937043924018D-01
    64  6.3000000000000D-01  8.7425442051209D-01  7.5191238809465D-01
    65  6.4000000000000D-01  8.3345682540018D-01  7.7479604783105D-01
    66  6.5000000000000D-01  7.9173858195890D-01  7.9798411947462D-01
    67  6.6000000000000D-01  7.4918279168110D-01  8.2143608449598D-01
    68  6.7000000000000D-01  7.0587388289656D-01  8.4510826478651D-01
    69  6.8000000000000D-01  6.6189743153766D-01  8.6895389926655D-01
    70  6.9000000000000D-01  6.1733997831185D-01  8.9292323713222D-01
    71  7.0000000000000D-01  5.7228884267373D-01  9.1696364766553D-01
    72  7.1000000000000D-01  5.2683193400602D-01  9.4101974644898D-01
    73  7.2000000000000D-01  4.8105756043428D-01  9.6503353774295D-01
    74  7.3000000000000D-01  4.3505423571495D-01  9.8894457270036D-01
    75  7.4000000000000D-01  3.8891048465015D-01  1.0126901230103D+00
    76  7.5000000000000D-01  3.4271464749536D-01  1.0362053694796D+00
    77  7.6000000000000D-01  2.9655468383777D-01  1.0594236049803D+00
    78  7.7000000000000D-01  2.5051797643375D-01  1.0822764511109D+00
    79  7.8000000000000D-01  2.0469113550272D-01  1.1046940878416D+00
    80  7.9000000000000D-01  1.5915980398300D-01  1.1266054953389D+00
    81  8.0000000000000D-01  1.1400846426118D-01  1.1479387070917D+00
    82  8.1000000000000D-01  6.9320246891861D-02  1.1686210733916D+00
    83  8.2000000000000D-01  2.5176741827741D-02  1.1885795341560D+00
    84  8.3000000000000D-01 -1.8342187318105D-02  1.2077409000181D+00
    85  8.4000000000000D-01 -6.1158585455974D-02  1.2260321405528D+00
    86  8.5000000000000D-01 -1.0319658412899D-01  1.2433806784535D+00
    87  8.6000000000000D-01 -1.4438257503160D-01  1.2597146884285D+00
    88  8.7000000000000D-01 -1.8464537842549D-01  1.2749633995402D+00
    89  8.8000000000000D-01 -2.2391640594846D-01  1.2890573996773D+00
    90  8.9000000000000D-01 -2.6212981732074D-01  1.3019289408164D+00
    91  9.0000000000000D-01 -2.9922267046392D-01  1.3135122437050D+00
    92  9.1000000000000D-01 -3.3513506456044D-01  1.3237438005799D+00
    93  9.2000000000000D-01 -3.6981027559590D-01  1.3325626745220D+00
    94  9.3000000000000D-01 -4.0319488394321D-01  1.3399107940421D+00
    95  9.4000000000000D-01 -4.3523889356543D-01  1.3457332414950D+00
    96  9.5000000000000D-01 -4.6589584243424D-01  1.3499785339241D+00
    97  9.6000000000000D-01 -4.9512290378299D-01  1.3525988949562D+00
    98  9.7000000000000D-01 -5.2288097783646D-01  1.3535505163829D+00
    99  9.8000000000000D-01 -5.4913477368482D-01  1.3527938080977D+00
   100  9.9000000000000D-01 -5.7385288099587D-01  1.3502936350886D+00
   101  1.0000000000000D+00 -5.9700783128765D-01  1.3460195402265D+00
   102  1.0100000000000D+00 -6.1857614851374D-01  1.3399459516413D+00
   103  1.0200000000000D+00 -6.3853838874389D-01  1.3320523735248D+00
   104  1.0300000000000D+00 -6.5687916875515D-01  1.3223235592642D+00
   105  1.0400000000000D+00 -6.7358718338174D-01  1.3107496658708D+00
   106  1.0500000000000D+00 -6.8865521150724D-01  1.2973263887443D+00
   107  1.0600000000000D+00 -7.0208011061471D-01  1.2820550758800D+00
   108  1.0700000000000D+00 -7.1386279985055D-01  1.2649428207162D+00
   109  1.0800000000000D+00 -7.2400823159095D-01  1.2460025328971D+00
   110  1.0900000000000D+00 -7.3252535153831D-01  1.2252529863192D+00
   111  1.1000000000000D+00 -7.3942704741270D-01  1.2027188439212D+00
   112  1.1100000000000D+00 -7.4473008633673D-01  1.1784306587640D+00
   113  1.1200000000000D+00 -7.4845504105604D-01  1.1524248510625D+00
   114  1.1300000000000D+00 -7.5062620516889D-01  1.1247436609144D+00
   115  1.1400000000000D+00 -7.5127149758134D-01  1.0954350765923D+00
   116  1.1500000000000D+00 -7.5042235642999D-01  1.0645527383354D+00
   117  1.1600000000000D+00 -7.4811362276320D-01  1.0321558177224D+00
   118  1.1700000000000D+00 -7.4438341429762D-01  9.9830887278139D-01
   119  1.1800000000000D+00 -7.3927298960538D-01  9.6308167911401D-01
   120  1.1900000000000D+00 -7.3282660311187D-01  9.2654903738658D-01
   121  1.2000000000000D+00 -7.2509135132749D-01  8.8879055767849D-01
   122  1.2100000000000D+00 -7.1611701076048D-01  8.4989042126247D-01
   123  1.2200000000000D+00 -7.0595586798054D-01  8.0993712046427D-01
   124  1.2300000000000D+00 -6.9466254233951D-01  7.6902317737691D-01
   125  1.2400000000000D+00 -6.8229380187739D-01  7.2724484228916D-01
   126  1.2500000000000D+00 -6.6890837295977D-01  6.8470177275347D-01
   127  1.2600000000000D+00 -6.5456674421612D-01  6.4149669430830D-01
   128  1.2700000000000D+00 -6.3933096537277D-01  5.9773504397388D-01
   129  1.2800000000000D+00 -6.2326444158078D-01  5.5352459767388D-01
   130  1.2900000000000D+00 -6.0643172385664D-01  5.0897508280799D-01
   131  1.3000000000000D+00 -5.8889829627033D-01  4.6419777729832D-01
   132  1.3100000000000D+00 -5.7073036051410D-01  4.1930509643416D-01
   133  1.3200000000000D+00 -5.5199461849936D-01  3.7441016891166D-01
   134  1.3300000000000D+00 -5.3275805362986D-01  3.2962640352466D-01
   135  1.3400000000000D+00 -5.1308771139804D-01  2.8506704794939D-01
   136  1.3500000000000D+00 -4.9305047995761D-01  2.4084474113655D-01
   137  1.3600000000000D+00 -4.7271287130481D-01  1.9707106082133D-01
   138  1.3700000000000D+00 -4.5214080371792D-01  1.5385606767091D-01
   139  1.3800000000000D+00 -4.3139938607248D-01  1.1130784761328D-01
   140  1.3900000000000D+00 -4.1055270464130D-01  6.9532053852069D-02
   141  1.4000000000000D+00 -3.8966361300168D-01  2.8631450119263D-02
   142  1.4100000000000D+00 -3.6879352559668D-01 -1.1294543382286D-02
   143  1.4200000000000D+00 -3.4800221554805D-01 -5.0150299829682D-02
   144  1.4300000000000D+00 -3.2734761724534D-01 -8.7844429997111D-02
   145  1.4400000000000D+00 -3.0688563421147D-01 -1.2429021947863D-01
   146  1.4500000000000D+00 -2.8666995279086D-01 -1.5940605744995D-01
   147  1.4600000000000D+00 -2.6675186203907D-01 -1.9311585582920D-01
   148  1.4700000000000D+00 -2.4718008034087D-01 -2.2534945740539D-01
   149  1.4800000000000D+00 -2.2800058908372D-01 -2.5604303189833D-01
   150  1.4900000000000D+00 -2.0925647378888D-01 -2.8513945877526D-01
   151  1.5000000000000D+00 -1.9098777306082D-01 -3.1258869571563D-01
   152  1.5100000000000D+00 -1.7323133556652D-01 -3.3834813196808D-01
   153  1.5200000000000D+00 -1.5602068545652D-01 -3.6238292537157D-01
   154  1.5300000000000D+00 -1.3938589626475D-01 -3.8466632268950D-01
   155  1.5400000000000D+00 -1.2335347368255D-01 -4.0517996206013D-01
   156  1.5500000000000D+00 -1.0794623249776D-01 -4.2391421184144D-01
   157  1.5600000000000D+00 -9.3183254514344D-02 -4.4086822376298D-01
   158  1.5700000000000D+00 -7.9079914904750D-02 -4.5604974670472D-01
   159  1.5800000000000D+00 -6.5647002739560D-02 -4.6947831629060D-01
   160  1.5900000000000D+00 -5.2890821757574D-02 -4.8118481768544D-01
   161  1.6000000000000D+00 -4.0817459712329D-02 -4.9119561203546D-01
   162  1.6100000000000D+00 -2.9429664420719D-02 -4.9954406668683D-01
   163  1.6200000000000D+00 -1.8715755984971D-02 -5.0631171451325D-01
   164  1.6300000000000D+00 -8.6583730771573D-03 -5.1159579676374D-01
   165  1.6400000000000D+00  7.5032766660929D-04 -5.1545270863602D-01
   166  1.6500000000000D+00  9.5159238010990D-03 -5.1792542395843D-01
   167  1.6600000000000D+00  1.7648998756905D-02 -5.1907113297171D-01
   168  1.6700000000000D+00  2.5161629637894D-02 -5.1894826129333D-01
   169  1.6800000000000D+00  3.2066484584272D-02 -5.1761328063204D-01
   170  1.6900000000000D+00  3.8377537410801D-02 -5.1512364013639D-01
   171  1.7000000000000D+00  4.4109876342968D-02 -5.1153727028402D-01
   172  1.7100000000000D+00  4.9279611593188D-02 -5.0691245891348D-01
   173  1.7200000000000D+00  5.3903796760216D-02 -5.0130777646660D-01
   174  1.7300000000000D+00  5.8000347038080D-02 -4.9478198610010D-01
   175  1.7400000000000D+00  6.1587956387023D-02 -4.8739394655867D-01
   176  1.7500000000000D+00  6.4686013946371D-02 -4.7920250840409D-01
   177  1.7600000000000D+00  6.7314519994696D-02 -4.7026640463011D-01
   178  1.7700000000000D+00  6.9494001784640D-02 -4.6064413642406D-01
   179  1.7800000000000D+00  7.1245429516673D-02 -4.5039385498985D-01
   180  1.7900000000000D+00  7.2590132826041D-02 -4.3957324037988D-01
   181  1.8000000000000D+00  7.3549718001877D-02 -4.2823937809779D-01
   182  1.8100000000000D+00  7.4145986309416D-02 -4.1644863446249D-01
   183  1.8200000000000D+00  7.4400853626477D-02 -4.0425653144083D-01
   184  1.8300000000000D+00  7.4336271743952D-02 -3.9171762196121D-01
   185  1.8400000000000D+00  7.3974151574272D-02 -3.7888536645879D-01
   186  1.8500000000000D+00  7.3336288496085D-02 -3.6581201138816D-01
   187  1.8600000000000D+00  7.2444290191834D-02 -3.5254847072428D-01
   188  1.8700000000000D+00  7.1319507014373D-02 -3.3914421071840D-01
   189  1.8800000000000D+00  6.9982965425602D-02 -3.2564713941586D-01
   190  1.8900000000000D+00  6.8455304286381D-02 -3.1210350051867D-01
   191  1.9000000000000D+00  6.6756714703136D-02 -2.9855777355633D-01
   192  1.9100000000000D+00  6.4906883094959D-02 -2.8505257960992D-01
   193  1.9200000000000D+00  6.2924938085533D-02 -2.7162859432230D-01
   194  1.9300000000000D+00  6.0829401066623D-02 -2.5832446789719D-01
   195  1.9400000000000D+00  5.8638140669749D-02 -2.4517675284957D-01
   196  1.9500000000000D+00  5.6368331382924D-02 -2.3221984026509D-01
   197  1.9600000000000D+00  5.4036416016005D-02 -2.1948590386087D-01
   198  1.9700000000000D+00  5.1658072712160D-02 -2.0700485389761D-01
   199  1.9800000000000D+00  4.9248185796424D-02 -1.9480429906139D-01
   200  1.9900000000000D+00  4.6820821243877D-02 -1.8290951863080D-01
   201  2.0000000000000D+00  4.4389206210693D-02 -1.7134344345246D-01
   202  2.0100000000000D+00  4.1965712885018D-02 -1.6012664656593D-01
   203  2.0200000000000D+00  3.9561846763673D-02 -1.4927734388765D-01
   204  2.0300000000000D+00  3.7188238779528D-02 -1.3881140339767D-01
   205  2.0400000000000D+00  3.4854642052021D-02 -1.2874236518095D-01
   206  2.0500000000000D+00  3.2569932281104D-02 -1.1908146957070D-01
   207  2.0600000000000D+00  3.0342112387751D-02 -1.0983769527362D-01
   208  2.0700000000000D+00  2.8178320974342D-02 -1.0101780632866D-01
   209  2.0800000000000D+00  2.6084844327610D-02 -9.2626407189138D-02
   210  2.0900000000000D+00  2.4067132362248D-02 -8.4666007233378D-02
   211  2.1000000000000D+00  2.2129817596344D-02 -7.7137092090347D-02
   212  2.1100000000000D+00  2.0276737674732D-02 -7.0038203465394D-02
   213  2.1200000000000D+00  1.8510960847981D-02 -6.3366025786534D-02
   214  2.1300000000000D+00  1.6834814199044D-02 -5.7115479160692D-02
   215  2.1400000000000D+00  1.5249914774994D-02 -5.1279819270718D-02
   216  2.1500000000000D+00  1.3757202868344D-02 -4.5850741978994D-02
   217  2.1600000000000D+00  1.2356977679536D-02 -4.0818493538125D-02
   218  2.1700000000000D+00  1.1048934896267D-02 -3.6171985070591D-02
   219  2.1800000000000D+00  9.8322058935045D-03 -3.1898910508183D-02
   220  2.1900000000000D+00  8.7053985323979D-03 -2.7985868156913D-02
   221  2.2000000000000D+00  7.6666390706080D-03 -2.4418484356707D-02
   222  2.2100000000000D+00  6.7136150469067D-03 -2.1181539064203D-02
   223  2.2200000000000D+00  5.8436188485075D-03 -1.8259092562851D-02
   224  2.2300000000000D+00  5.0535917691709D-03 -1.5634612675528D-02
   225  2.2400000000000D+00  4.3401681216097D-03 -1.3291101532283D-02
   226  2.2500000000000D+00  3.6997193660315D-03 -1.1211221614547D-02
   227  2.2600000000000D+00  3.1283979338763D-03 -9.3774202860873D-03
   228  2.2700000000000D+00  2.6221802696265D-03 -7.7720515936561D-03
   229  2.2800000000000D+00  2.1769093512576D-03 -6.3774959278001D-03
   230  2.2900000000000D+00  1.7883359371258D-03 -5.1762756137793D-03
   231  2.3000000000000D+00  1.4521584435753D-03 -4.1511661512807D-03
   232  2.3100000000000D+00  1.1640617992754D-03 -3.2853040045936D-03
   233  2.3200000000000D+00  9.1975397420539D-04 -2.5622874889965D-03
   234  2.3300000000000D+00  7.1500091423852D-04 -1.9662726863734D-03
   235  2.3400000000000D+00  5.4565971907953D-04 -1.4820639688606D-03
   236  2.3500000000000D+00  4.0770880799190D-04 -1.0951957345603D-03
   237  2.3600000000000D+00  2.9727634112717D-04 -7.9200879450233D-04
   238  2.3700000000000D+00  2.1066603503104D-04 -5.5971907736744D-04
   239  2.3800000000000D+00  1.4438040349572D-04 -3.8652070758429D-04
   240  2.3900000000000D+00  9.5139298655401D-05 -2.6150336485754D-04
   241  2.4000000000000D+00  5.9898051007132D-05 -1.7475112594101D-04
   242  2.4100000000000D+00  3.5831945201698D-05 -1.1713102865221D-04
   243  2.4200000000000D+00  2.0458330091195D-05 -8.1658827465529D-05
   244  2.4300000000000D+00  1.1556848052773D-05 -6.2396476391948D-05
   245  2.4400000000000D+00  7.3063951851293D-06 -5.5235865268166D-05
   246  2.4500000000000D+00  5.6226016335498D-06 -5.2269296749451D-05
   247  2.4600000000000D+00  4.8302005514417D-06 -4.7142359522950D-05
   248  2.4700000000000D+00  3.4217384290639D-06 -3.3264732798035D-05
   249  2.4800000000000D+00  1.6821392820539D-06 -1.5989873814304D-05
   250  2.4900000000000D+00  7.4790819597346D-08 -6.9220321748242D-07
   251  2.5000000000000D+00 -4.5628972193440D-07  4.5844426170076D-06
   252  2.5100000000000D+00 -3.8406374758614D-07  3.8390572950384D-06
   253  2.5200000000000D+00 -1.7665232129449D-08  1.7558472410788D-07
   254  2.5300000000000D+00  8.8146017967468D-08 -9.6438335019377D-07
   255  2.5400000000000D+00  8.2054784240009D-08 -9.0274657552308D-07
   256  2.5500000000000D+00  6.1303166880308D-09 -6.7761677140327D-08
   257  2.5600000000000D+00 -1.1647692792120D-08  1.1359200999486D-07
   258  2.5700000000000D+00 -1.1941936584928D-08  1.1646156918140D-07
   259  2.5800000000000D+00 -1.6811620768741D-09  1.6395228037648D-08
   260  2.5900000000000D+00  0.0000000000000D+00  0.0000000000000D+00
   261  2.6000000000000D+00  0.0000000000000D+00  0.0000000000000D+00
   262  2.6100000000000D+00  0.0000000000000D+00  0.0000000000000D+00
   263  2.6200000000000D+00  0.0000000000000D+00  0.0000000000000D+00
   264  2.6300000000000D+00  0.0000000000000D+00  0.0000000000000D+00
   265  2.6400000000000D+00  0.0000000000000D+00  0.0000000000000D+00
   266  2.6500000000000D+00  0.0000000000000D+00  0.0000000000000D+00
   267  2.6600000000000D+00  0.0000000000000D+00  0.0000000000000D+00
   268  2.6700000000000D+00  0.0000000000000D+00  0.0000000000000D+00
   269  2.6800000000000D+00  0.0000000000000D+00  0.0000000000000D+00
   270  2.6900000000000D+00  0.0000000000000D+00  0.0000000000000D+00
   271  2.7000000000000D+00  0.0000000000000D+00  0.0000000000000D+00
   272  2.7100000000000D+00  0.0000000000000D+00  0.0000000000000D+00
   273  2.7200000000000D+00  0.0000000000000D+00  0.0000000000000D+00
   274  2.7300000000000D+00  0.0000000000000D+00  0.0000000000000D+00
   275  2.7400000000000D+00  0.0000000000000D+00  0.0000000000000D+00
   276  2.7500000000000D+00  0.0000000000000D+00  0.0000000000000D+00
   277  2.7600000000000D+00  0.0000000000000D+00  0.0000000000000D+00
   278  2.7700000000000D+00  0.0000000000000D+00  0.0000000000000D+00
   279  2.7800000000000D+00  0.0000000000000D+00  0.0000000000000D+00
   280  2.7900000000000D+00  0.0000000000000D+00  0.0000000000000D+00
   281  2.8000000000000D+00  0.0000000000000D+00  0.0000000000000D+00
   282  2.8100000000000D+00  0.0000000000000D+00  0.0000000000000D+00
   283  2.8200000000000D+00  0.0000000000000D+00  0.0000000000000D+00
   284  2.8300000000000D+00  0.0000000000000D+00  0.0000000000000D+00
   285  2.8400000000000D+00  0.0000000000000D+00  0.0000000000000D+00
   286  2.8500000000000D+00  0.0000000000000D+00  0.0000000000000D+00
   287  2.8600000000000D+00  0.0000000000000D+00  0.0000000000000D+00
   288  2.8700000000000D+00  0.0000000000000D+00  0.0000000000000D+00
   289  2.8800000000000D+00  0.0000000000000D+00  0.0000000000000D+00
   290  2.8900000000000D+00  0.0000000000000D+00  0.0000000000000D+00
   291  2.9000000000000D+00  0.0000000000000D+00  0.0000000000000D+00
   292  2.9100000000000D+00  0.0000000000000D+00  0.0000000000000D+00
   293  2.9200000000000D+00  0.0000000000000D+00  0.0000000000000D+00
   294  2.9300000000000D+00  0.0000000000000D+00  0.0000000000000D+00
   295  2.9400000000000D+00  0.0000000000000D+00  0.0000000000000D+00
   296  2.9500000000000D+00  0.0000000000000D+00  0.0000000000000D+00
   297  2.9600000000000D+00  0.0000000000000D+00  0.0000000000000D+00
   298  2.9700000000000D+00  0.0000000000000D+00  0.0000000000000D+00
   299  2.9800000000000D+00  0.0000000000000D+00  0.0000000000000D+00
   300  2.9900000000000D+00  0.0000000000000D+00  0.0000000000000D+00
   301  3.0000000000000D+00  0.0000000000000D+00  0.0000000000000D+00
   302  3.0100000000000D+00  0.0000000000000D+00  0.0000000000000D+00
   303  3.0200000000000D+00  0.0000000000000D+00  0.0000000000000D+00
   304  3.0300000000000D+00  0.0000000000000D+00  0.0000000000000D+00
   305  3.0400000000000D+00  0.0000000000000D+00  0.0000000000000D+00
   306  3.0500000000000D+00  0.0000000000000D+00  0.0000000000000D+00
   307  3.0600000000000D+00  0.0000000000000D+00  0.0000000000000D+00
   308  3.0700000000000D+00  0.0000000000000D+00  0.0000000000000D+00
   309  3.0800000000000D+00  0.0000000000000D+00  0.0000000000000D+00
   310  3.0900000000000D+00  0.0000000000000D+00  0.0000000000000D+00
   311  3.1000000000000D+00  0.0000000000000D+00  0.0000000000000D+00
   312  3.1100000000000D+00  0.0000000000000D+00  0.0000000000000D+00
   313  3.1200000000000D+00  0.0000000000000D+00  0.0000000000000D+00
   314  3.1300000000000D+00  0.0000000000000D+00  0.0000000000000D+00
   315  3.1400000000000D+00  0.0000000000000D+00  0.0000000000000D+00
   316  3.1500000000000D+00  0.0000000000000D+00  0.0000000000000D+00
   317  3.1600000000000D+00  0.0000000000000D+00  0.0000000000000D+00
   318  3.1700000000000D+00  0.0000000000000D+00  0.0000000000000D+00
   319  3.1800000000000D+00  0.0000000000000D+00  0.0000000000000D+00
   320  3.1900000000000D+00  0.0000000000000D+00  0.0000000000000D+00
   321  3.2000000000000D+00  0.0000000000000D+00  0.0000000000000D+00
   322  3.2100000000000D+00  0.0000000000000D+00  0.0000000000000D+00
   323  3.2200000000000D+00  0.0000000000000D+00  0.0000000000000D+00
   324  3.2300000000000D+00  0.0000000000000D+00  0.0000000000000D+00
   325  3.2400000000000D+00  0.0000000000000D+00  0.0000000000000D+00
   326  3.2500000000000D+00  0.0000000000000D+00  0.0000000000000D+00
   327  3.2600000000000D+00  0.0000000000000D+00  0.0000000000000D+00
   328  3.2700000000000D+00  0.0000000000000D+00  0.0000000000000D+00
   329  3.2800000000000D+00  0.0000000000000D+00  0.0000000000000D+00
   330  3.2900000000000D+00  0.0000000000000D+00  0.0000000000000D+00
   331  3.3000000000000D+00  0.0000000000000D+00  0.0000000000000D+00
   332  3.3100000000000D+00  0.0000000000000D+00  0.0000000000000D+00
   333  3.3200000000000D+00  0.0000000000000D+00  0.0000000000000D+00
   334  3.3300000000000D+00  0.0000000000000D+00  0.0000000000000D+00
   335  3.3400000000000D+00  0.0000000000000D+00  0.0000000000000D+00
   336  3.3500000000000D+00  0.0000000000000D+00  0.0000000000000D+00
   337  3.3600000000000D+00  0.0000000000000D+00  0.0000000000000D+00
   338  3.3700000000000D+00  0.0000000000000D+00  0.0000000000000D+00
   339  3.3800000000000D+00  0.0000000000000D+00  0.0000000000000D+00
   340  3.3900000000000D+00  0.0000000000000D+00  0.0000000000000D+00
   341  3.4000000000000D+00  0.0000000000000D+00  0.0000000000000D+00
   342  3.4100000000000D+00  0.0000000000000D+00  0.0000000000000D+00
   343  3.4200000000000D+00  0.0000000000000D+00  0.0000000000000D+00
   344  3.4300000000000D+00  0.0000000000000D+00  0.0000000000000D+00
   345  3.4400000000000D+00  0.0000000000000D+00  0.0000000000000D+00
   346  3.4500000000000D+00  0.0000000000000D+00  0.0000000000000D+00
   347  3.4600000000000D+00  0.0000000000000D+00  0.0000000000000D+00
   348  3.4700000000000D+00  0.0000000000000D+00  0.0000000000000D+00
   349  3.4800000000000D+00  0.0000000000000D+00  0.0000000000000D+00
   350  3.4900000000000D+00  0.0000000000000D+00  0.0000000000000D+00
   351  3.5000000000000D+00  0.0000000000000D+00  0.0000000000000D+00
   352  3.5100000000000D+00  0.0000000000000D+00  0.0000000000000D+00
   353  3.5200000000000D+00  0.0000000000000D+00  0.0000000000000D+00
   354  3.5300000000000D+00  0.0000000000000D+00  0.0000000000000D+00
   355  3.5400000000000D+00  0.0000000000000D+00  0.0000000000000D+00
   356  3.5500000000000D+00  0.0000000000000D+00  0.0000000000000D+00
   357  3.5600000000000D+00  0.0000000000000D+00  0.0000000000000D+00
   358  3.5700000000000D+00  0.0000000000000D+00  0.0000000000000D+00
   359  3.5800000000000D+00  0.0000000000000D+00  0.0000000000000D+00
   360  3.5900000000000D+00  0.0000000000000D+00  0.0000000000000D+00
   361  3.6000000000000D+00  0.0000000000000D+00  0.0000000000000D+00
   362  3.6100000000000D+00  0.0000000000000D+00  0.0000000000000D+00
   363  3.6200000000000D+00  0.0000000000000D+00  0.0000000000000D+00
   364  3.6300000000000D+00  0.0000000000000D+00  0.0000000000000D+00
   365  3.6400000000000D+00  0.0000000000000D+00  0.0000000000000D+00
   366  3.6500000000000D+00  0.0000000000000D+00  0.0000000000000D+00
   367  3.6600000000000D+00  0.0000000000000D+00  0.0000000000000D+00
   368  3.6700000000000D+00  0.0000000000000D+00  0.0000000000000D+00
   369  3.6800000000000D+00  0.0000000000000D+00  0.0000000000000D+00
   370  3.6900000000000D+00  0.0000000000000D+00  0.0000000000000D+00
   371  3.7000000000000D+00  0.0000000000000D+00  0.0000000000000D+00
   372  3.7100000000000D+00  0.0000000000000D+00  0.0000000000000D+00
   373  3.7200000000000D+00  0.0000000000000D+00  0.0000000000000D+00
   374  3.7300000000000D+00  0.0000000000000D+00  0.0000000000000D+00
   375  3.7400000000000D+00  0.0000000000000D+00  0.0000000000000D+00
   376  3.7500000000000D+00  0.0000000000000D+00  0.0000000000000D+00
   377  3.7600000000000D+00  0.0000000000000D+00  0.0000000000000D+00
   378  3.7700000000000D+00  0.0000000000000D+00  0.0000000000000D+00
   379  3.7800000000000D+00  0.0000000000000D+00  0.0000000000000D+00
   380  3.7900000000000D+00  0.0000000000000D+00  0.0000000000000D+00
   381  3.8000000000000D+00  0.0000000000000D+00  0.0000000000000D+00
   382  3.8100000000000D+00  0.0000000000000D+00  0.0000000000000D+00
   383  3.8200000000000D+00  0.0000000000000D+00  0.0000000000000D+00
   384  3.8300000000000D+00  0.0000000000000D+00  0.0000000000000D+00
   385  3.8400000000000D+00  0.0000000000000D+00  0.0000000000000D+00
   386  3.8500000000000D+00  0.0000000000000D+00  0.0000000000000D+00
   387  3.8600000000000D+00  0.0000000000000D+00  0.0000000000000D+00
   388  3.8700000000000D+00  0.0000000000000D+00  0.0000000000000D+00
   389  3.8800000000000D+00  0.0000000000000D+00  0.0000000000000D+00
   390  3.8900000000000D+00  0.0000000000000D+00  0.0000000000000D+00
   391  3.9000000000000D+00  0.0000000000000D+00  0.0000000000000D+00
   392  3.9100000000000D+00  0.0000000000000D+00  0.0000000000000D+00
   393  3.9200000000000D+00  0.0000000000000D+00  0.0000000000000D+00
   394  3.9300000000000D+00  0.0000000000000D+00  0.0000000000000D+00
   395  3.9400000000000D+00  0.0000000000000D+00  0.0000000000000D+00
   396  3.9500000000000D+00  0.0000000000000D+00  0.0000000000000D+00
   397  3.9600000000000D+00  0.0000000000000D+00  0.0000000000000D+00
   398  3.9700000000000D+00  0.0000000000000D+00  0.0000000000000D+00
   399  3.9800000000000D+00  0.0000000000000D+00  0.0000000000000D+00
   400  3.9900000000000D+00  0.0000000000000D+00  0.0000000000000D+00
   401  4.0000000000000D+00  0.0000000000000D+00  0.0000000000000D+00
   402  4.0100000000000D+00  0.0000000000000D+00  0.0000000000000D+00
   403  4.0200000000000D+00  0.0000000000000D+00  0.0000000000000D+00
   404  4.0300000000000D+00  0.0000000000000D+00  0.0000000000000D+00
   405  4.0400000000000D+00  0.0000000000000D+00  0.0000000000000D+00
   406  4.0500000000000D+00  0.0000000000000D+00  0.0000000000000D+00
   407  4.0600000000000D+00  0.0000000000000D+00  0.0000000000000D+00
   408  4.0700000000000D+00  0.0000000000000D+00  0.0000000000000D+00
   409  4.0800000000000D+00  0.0000000000000D+00  0.0000000000000D+00
   410  4.0900000000000D+00  0.0000000000000D+00  0.0000000000000D+00
   411  4.1000000000000D+00  0.0000000000000D+00  0.0000000000000D+00
   412  4.1100000000000D+00  0.0000000000000D+00  0.0000000000000D+00
   413  4.1200000000000D+00  0.0000000000000D+00  0.0000000000000D+00
   414  4.1300000000000D+00  0.0000000000000D+00  0.0000000000000D+00
   415  4.1400000000000D+00  0.0000000000000D+00  0.0000000000000D+00
   416  4.1500000000000D+00  0.0000000000000D+00  0.0000000000000D+00
   417  4.1600000000000D+00  0.0000000000000D+00  0.0000000000000D+00
   418  4.1700000000000D+00  0.0000000000000D+00  0.0000000000000D+00
   419  4.1800000000000D+00  0.0000000000000D+00  0.0000000000000D+00
   420  4.1900000000000D+00  0.0000000000000D+00  0.0000000000000D+00
   421  4.2000000000000D+00  0.0000000000000D+00  0.0000000000000D+00
   422  4.2100000000000D+00  0.0000000000000D+00  0.0000000000000D+00