B     ONCVPSP-3.3.1  r_core=   1.77019   1.90153
      5.0000      3.0000      210904    zatom,zion,pspd
     8       2   1     4   600     0    pspcod,pspxc,lmax,lloc,mmax,r2well
  5.99000000  0.00000000  0.00000000    rchrg fchrg qchrg
     2     2     0     0    nproj
     3     1           extension_switch
     2     0     0    nprojso
   0                         1.9391474105961D-01  4.3262077838062D+00
     1  0.0000000000000D+00  2.3928537623563D-10 -4.0511760612816D-11
     2  1.0000000000000D-02  6.9610909110492D-03  5.2789170360349D-02
     3  2.0000000000000D-02  1.3897811033729D-02  1.0549978628955D-01
     4  3.0000000000000D-02  2.0785626771386D-02  1.5805350356384D-01
     5  4.0000000000000D-02  2.7599683522687D-02  2.1037239719219D-01
     6  5.0000000000000D-02  3.4314656647410D-02  2.6237916808799D-01
     7  6.0000000000000D-02  4.0904616022419D-02  3.1399734623605D-01
     8  7.0000000000000D-02  4.7342908433764D-02  3.6515148923468D-01
     9  8.0000000000000D-02  5.3602061811569D-02  4.1576737513320D-01
    10  9.0000000000000D-02  5.9653715019737D-02  4.6577218853483D-01
    11  1.0000000000000D-01  6.5468576566815D-02  5.1509469899432D-01
    12  1.1000000000000D-01  7.1016415210065D-02  5.6366543080604D-01
    13  1.2000000000000D-01  7.6266084987645D-02  6.1141682335389D-01
    14  1.3000000000000D-01  8.1185586737449D-02  6.5828338127550D-01
    15  1.4000000000000D-01  8.5742167651657D-02  7.0420181378156D-01
    16  1.5000000000000D-01  8.9902459878939D-02  7.4911116256421D-01
    17  1.6000000000000D-01  9.3632658626659D-02  7.9295291782605D-01
    18  1.7000000000000D-01  9.6898739641540D-02  8.3567112206260D-01
    19  1.8000000000000D-01  9.9666715363449D-02  8.7721246133428D-01
    20  1.9000000000000D-01  1.0190292846093D-01  9.1752634386952D-01
    21  2.0000000000000D-01  1.0357438087622D-01  9.5656496594546D-01
    22  2.1000000000000D-01  1.0464909593636D-01  9.9428336509828D-01
    23  2.2000000000000D-01  1.0509651053512D-01  1.0306394608178D+00
    24  2.3000000000000D-01  1.0488789386160D-01  1.0655940829819D+00
    25  2.4000000000000D-01  1.0399678865375D-01  1.0991109883844D+00
    26  2.5000000000000D-01  1.0239947049420D-01  1.1311568657995D+00
    27  2.6000000000000D-01  1.0007542024661D-01  1.1617013301176D+00
    28  2.7000000000000D-01  9.7007804360513D-02  1.1907169061634D+00
    29  2.8000000000000D-01  9.3183957453808D-02  1.2181790028844D+00
    30  2.9000000000000D-01  8.8595861321148D-02  1.2440658786615D+00
    31  3.0000000000000D-01  8.3240614316143D-02  1.2683585985528D+00
    32  3.1000000000000D-01  7.7120884919358D-02  1.2910409843272D+00
    33  3.2000000000000D-01  7.0245343234381D-02  1.3120995581884D+00
    34  3.3000000000000D-01  6.2629064154114D-02  1.3315234811125D+00
    35  3.4000000000000D-01  5.4293896008939D-02  1.3493044867477D+00
    36  3.5000000000000D-01  4.5268788647836D-02  1.3654368118287D+00
    37  3.6000000000000D-01  3.5590075114925D-02  1.3799171240598D+00
    38  3.7000000000000D-01  2.5301701363188D-02  1.3927444484065D+00
    39  3.8000000000000D-01  1.4455398795282D-02  1.4039200927158D+00
    40  3.9000000000000D-01  3.1107948346920D-03  1.4134475735497D+00
    41  4.0000000000000D-01 -8.6645427935211D-03  1.4213325430791D+00
    42  4.1000000000000D-01 -2.0795131858784D-02  1.4275827178305D+00
    43  4.2000000000000D-01 -3.3197674694738D-02  1.4322078100209D+00
    44  4.3000000000000D-01 -4.5781233101892D-02  1.4352194621479D+00
    45  4.4000000000000D-01 -5.8447480959439D-02  1.4366311854272D+00
    46  4.5000000000000D-01 -7.1091035703612D-02  1.4364583025884D+00
    47  4.6000000000000D-01 -8.3599869077998D-02  1.4347178954541D+00
    48  4.7000000000000D-01 -9.5855796787276D-02  1.4314287576340D+00
    49  4.8000000000000D-01 -1.0773504589298D-01  1.4266113525722D+00
    50  4.9000000000000D-01 -1.1910889798985D-01  1.4202877770862D+00
    51  5.0000000000000D-01 -1.2984440539833D-01  1.4124817304379D+00
    52  5.1000000000000D-01 -1.3980517681343D-01  1.4032184888757D+00
    53  5.2000000000000D-01 -1.4885222806881D-01  1.3925248854878D+00
    54  5.3000000000000D-01 -1.5684489291688D-01  1.3804292951077D+00
    55  5.4000000000000D-01 -1.6364178799728D-01  1.3669616239194D+00
    56  5.5000000000000D-01 -1.6910182547673D-01  1.3521533033150D+00
    57  5.6000000000000D-01 -1.7308526619925D-01  1.3360372874756D+00
    58  5.7000000000000D-01 -1.7545480559388D-01  1.3186480540594D+00
    59  5.8000000000000D-01 -1.7607668405694D-01  1.3000216073122D+00
    60  5.9000000000000D-01 -1.7482181305787D-01  1.2801954828455D+00
    61  6.0000000000000D-01 -1.7156690782571D-01  1.2592087532709D+00
    62  6.1000000000000D-01 -1.6619561715421D-01  1.2371020338296D+00
    63  6.2000000000000D-01 -1.5859964062708D-01  1.2139174871184D+00
    64  6.3000000000000D-01 -1.4867982341423D-01  1.1896988259831D+00
    65  6.4000000000000D-01 -1.3634721872554D-01  1.1644913136339D+00
    66  6.5000000000000D-01 -1.2152410803391D-01  1.1383417600294D+00
    67  6.6000000000000D-01 -1.0414496929895D-01  1.1112985135831D+00
    68  6.7000000000000D-01 -8.4157383631103D-02  1.0834114472592D+00
    69  6.8000000000000D-01 -6.1522871136308D-02  1.0547319381565D+00
    70  6.9000000000000D-01 -3.6217647074926D-02  1.0253128397146D+00
    71  7.0000000000000D-01 -8.2332899463744D-03  9.9520844573127D-01
    72  7.1000000000000D-01  2.2422686321669D-02  9.6447444543680D-01
    73  7.2000000000000D-01  5.5726363257343D-02  9.3316786894837D-01
    74  7.3000000000000D-01  9.1637058252745D-02  9.0134702250386D-01
    75  7.4000000000000D-01  1.3009708015365D-01  8.6907141296919D-01
    76  7.5000000000000D-01  1.7103160482729D-01  8.3640166121045D-01
    77  7.6000000000000D-01  2.1434867458617D-01  8.0339940402949D-01
    78  7.7000000000000D-01  2.5993932437376D-01  7.7012718447442D-01
    79  7.8000000000000D-01  3.0767783660909D-01  7.3664833045504D-01
    80  7.9000000000000D-01  3.5742212553375D-01  7.0302682171617D-01
    81  8.0000000000000D-01  4.0901425083564D-01  6.6932714534804D-01
    82  8.1000000000000D-01  4.6228105923311D-01  6.3561414014042D-01
    83  8.2000000000000D-01  5.1703495160695D-01  6.0195283021611D-01
    84  8.3000000000000D-01  5.7307477217486D-01  5.6840824850742D-01
    85  8.4000000000000D-01  6.3018681512321D-01  5.3504525076531D-01
    86  8.5000000000000D-01  6.8814594305391D-01  5.0192832091362D-01
    87  8.6000000000000D-01  7.4671681057956D-01  4.6912136867957D-01
    88  8.7000000000000D-01  8.0565518541814D-01  4.3668752054419D-01
    89  8.8000000000000D-01  8.6470935840747D-01  4.0468890516205D-01
    90  8.9000000000000D-01  9.2362163298952D-01  3.7318643449754D-01
    91  9.0000000000000D-01  9.8212988391309D-01  3.4223958201306D-01
    92  9.1000000000000D-01  1.0399691741787D+00  3.1190615932289D-01
    93  9.2000000000000D-01  1.0968734186083D+00  2.8224209279345D-01
    94  9.3000000000000D-01  1.1525770818732D+00  2.5330120162569D-01
    95  9.4000000000000D-01  1.2068168983593D+00  2.2513497899736D-01
    96  9.5000000000000D-01  1.2593336008961D+00  1.9779237787213D-01
    97  9.6000000000000D-01  1.3098736451321D+00  1.7131960309698D-01
    98  9.7000000000000D-01  1.3581909161960D+00  1.4575991141054D-01
    99  9.8000000000000D-01  1.4040484042626D+00  1.2115342097066D-01
   100  9.9000000000000D-01  1.4472198357211D+00  9.7536931981514D-02
   101  1.0000000000000D+00  1.4874912468471D+00  7.4943759957122D-02
   102  1.0100000000000D+00  1.5246624871834D+00  5.3403583101131D-02
   103  1.0200000000000D+00  1.5585486402574D+00  3.2942305210728D-02
   104  1.0300000000000D+00  1.5889813497978D+00  1.3581935426051D-02
   105  1.0400000000000D+00  1.6158100402053D+00 -4.6595139465022D-03
   106  1.0500000000000D+00  1.6389030208106D+00 -2.1768110427039D-02
   107  1.0600000000000D+00  1.6581484642344D+00 -3.7734064177401D-02
   108  1.0700000000000D+00  1.6734552500722D+00 -5.2551769778506D-02
   109  1.0800000000000D+00  1.6847536661752D+00 -6.6219826261056D-02
   110  1.0900000000000D+00  1.6919959606844D+00 -7.8741034807489D-02
   111  1.1000000000000D+00  1.6951567392954D+00 -9.0122373729911D-02
   112  1.1100000000000D+00  1.6942332032469D+00 -1.0037495047088D-01
   113  1.1200000000000D+00  1.6892452248362D+00 -1.0951393055565D-01
   114  1.1300000000000D+00  1.6802352583946D+00 -1.1755844357966D-01
   115  1.1400000000000D+00  1.6672680859518D+00 -1.2453146649311D-01
   116  1.1500000000000D+00  1.6504303981467D+00 -1.3045968462286D-01
   117  1.1600000000000D+00  1.6298302121911D+00 -1.3537333104009D-01
   118  1.1700000000000D+00  1.6055961297902D+00 -1.3930600502755D-01
   119  1.1800000000000D+00  1.5778764392983D+00 -1.4229447058237D-01
   120  1.1900000000000D+00  1.5468380675660D+00 -1.4437843604287D-01
   121  1.2000000000000D+00  1.5126653881551D+00 -1.4560031608402D-01
   122  1.2100000000000D+00  1.4755588932191D+00 -1.4600497740651D-01
   123  1.2200000000000D+00  1.4357337380469D+00 -1.4563946965779D-01
   124  1.2300000000000D+00  1.3934181678042D+00 -1.4455274318501D-01
   125  1.2400000000000D+00  1.3488518367385D+00 -1.4279535531017D-01
   126  1.2500000000000D+00  1.3022840311905D+00 -1.4041916694411D-01
   127  1.2600000000000D+00  1.2539718083273D+00 -1.3747703141460D-01
   128  1.2700000000000D+00  1.2041780628393D+00 -1.3402247741699D-01
   129  1.2800000000000D+00  1.1531695345472D+00 -1.3010938807148D-01
   130  1.2900000000000D+00  1.1012147701235D+00 -1.2579167807472D-01
   131  1.3000000000000D+00  1.0485820521649D+00 -1.2112297093212D-01
   132  1.3100000000000D+00  9.9553730924188D-01 -1.1615627828351D-01
   133  1.3200000000000D+00  9.4234202015764D-01 -1.1094368324096D-01
   134  1.3300000000000D+00  8.8925112576031D-01 -1.0553602967972D-01
   135  1.3400000000000D+00  8.3651096142900D-01 -9.9982619347006D-02
   136  1.3500000000000D+00  7.8435721830842D-01 -9.4330918257866D-02
   137  1.3600000000000D+00  7.3301297175223D-01 -8.8626275540187D-02
   138  1.3700000000000D+00  6.8268668231226D-01 -8.2911650407999D-02
   139  1.3800000000000D+00  6.3357058672665D-01 -7.7227371608059D-02
   140  1.3900000000000D+00  5.8583839770680D-01 -7.1610869020097D-02
   141  1.4000000000000D+00  5.3964376213497D-01 -6.6096461591966D-02
   142  1.4100000000000D+00  4.9512160277358D-01 -6.0715302939416D-02
   143  1.4200000000000D+00  4.5238939109025D-01 -5.5495366500437D-02
   144  1.4300000000000D+00  4.1154934338580D-01 -5.0461517256803D-02
   145  1.4400000000000D+00  3.7268787663204D-01 -4.5635463982664D-02
   146  1.4500000000000D+00  3.3587495358960D-01 -4.1035728980257D-02
   147  1.4600000000000D+00  3.0116419807327D-01 -3.6677668102526D-02
   148  1.4700000000000D+00  2.6859284109095D-01 -3.2573501440401D-02
   149  1.4800000000000D+00  2.3818190775555D-01 -2.8732371955281D-02
   150  1.4900000000000D+00  2.0993651960595D-01 -2.5160426097850D-02
   151  1.5000000000000D+00  1.8384633791355D-01 -2.1860916609473D-02
   152  1.5100000000000D+00  1.5988614378851D-01 -1.8834327127474D-02
   153  1.5200000000000D+00  1.3801654339286D-01 -1.6078516603204D-02
   154  1.5300000000000D+00  1.1818479632200D-01 -1.3588882975909D-02
   155  1.5400000000000D+00  1.0032575554278D-01 -1.1358544127164D-02
   156  1.5500000000000D+00  8.4362911813959D-02 -9.3785348113586D-03
   157  1.5600000000000D+00  7.0209532143086D-02 -7.6380177560552D-03
   158  1.5700000000000D+00  5.7769880684242D-02 -6.1245069864833D-03
   159  1.5800000000000D+00  4.6940512313205D-02 -4.8241016578789D-03
   160  1.5900000000000D+00  3.7611624313919D-02 -3.7217280511599D-03
   161  1.6000000000000D+00  2.9668456133530D-02 -2.8013879578270D-03
   162  1.6100000000000D+00  2.2992721613445D-02 -2.0464110071556D-03
   163  1.6200000000000D+00  1.7464062279455D-02 -1.4397089436088D-03
   164  1.6300000000000D+00  1.2961507016886D-02 -9.6402958529317D-04
   165  1.6400000000000D+00  9.3649246076268D-03 -6.0220816715202D-04
   166  1.6500000000000D+00  6.5564566068333D-03 -3.3741414056795D-04
   167  1.6600000000000D+00  4.4219152039293D-03 -1.5339088389207D-04
   168  1.6700000000000D+00  2.8521360647165D-03 -3.4686788381377D-05
   169  1.6800000000000D+00  1.7442696201085D-03  3.3124978454903D-05
   170  1.6900000000000D+00  1.0030037373034D-03  6.3239108114541D-05
   171  1.7000000000000D+00  5.4170037068855D-04  6.7425993764506D-05
   172  1.7100000000000D+00  2.8353175643402D-04  5.5843097994124D-05
   173  1.7200000000000D+00  1.6228653674056D-04  3.6895411586299D-05
   174  1.7300000000000D+00  1.2211239129087D-04  1.7227552227465D-05
   175  1.7400000000000D+00  1.2041239153335D-04  1.3112545830411D-06
   176  1.7500000000000D+00  1.3314901356971D-04 -9.0032901068466D-06
   177  1.7600000000000D+00  1.4487116902303D-04 -1.3534670664841D-05
   178  1.7700000000000D+00  1.2874698918920D-04 -1.2373107410337D-05
   179  1.7800000000000D+00  6.9156331353897D-05 -6.5926581006102D-06
   180  1.7900000000000D+00  6.9095294310022D-06 -6.4621659662169D-07
   181  1.8000000000000D+00 -1.3481285606742D-05  1.3184529327807D-06
   182  1.8100000000000D+00 -4.5084871424280D-06  4.4036134782683D-07
   183  1.8200000000000D+00  2.7899013559261D-06 -2.7883486040748D-07
   184  1.8300000000000D+00  1.7446381024863D-06 -1.7476503666920D-07
   185  1.8400000000000D+00 -2.7099062495714D-07  2.6031306080076D-08
   186  1.8500000000000D+00 -2.8403497237751D-07  2.7284343525073D-08
   187  1.8600000000000D+00  0.0000000000000D+00  0.0000000000000D+00
   188  1.8700000000000D+00  0.0000000000000D+00  0.0000000000000D+00
   189  1.8800000000000D+00  0.0000000000000D+00  0.0000000000000D+00
   190  1.8900000000000D+00  0.0000000000000D+00  0.0000000000000D+00
   191  1.9000000000000D+00  0.0000000000000D+00  0.0000000000000D+00
   192  1.9100000000000D+00  0.0000000000000D+00  0.0000000000000D+00
   193  1.9200000000000D+00  0.0000000000000D+00  0.0000000000000D+00
   194  1.9300000000000D+00  0.0000000000000D+00  0.0000000000000D+00
   195  1.9400000000000D+00  0.0000000000000D+00  0.0000000000000D+00
   196  1.9500000000000D+00  0.0000000000000D+00  0.0000000000000D+00
   197  1.9600000000000D+00  0.0000000000000D+00  0.0000000000000D+00
   198  1.9700000000000D+00  0.0000000000000D+00  0.0000000000000D+00
   199  1.9800000000000D+00  0.0000000000000D+00  0.0000000000000D+00
   200  1.9900000000000D+00  0.0000000000000D+00  0.0000000000000D+00
   201  2.0000000000000D+00  0.0000000000000D+00  0.0000000000000D+00
   202  2.0100000000000D+00  0.0000000000000D+00  0.0000000000000D+00
   203  2.0200000000000D+00  0.0000000000000D+00  0.0000000000000D+00
   204  2.0300000000000D+00  0.0000000000000D+00  0.0000000000000D+00
   205  2.0400000000000D+00  0.0000000000000D+00  0.0000000000000D+00
   206  2.0500000000000D+00  0.0000000000000D+00  0.0000000000000D+00
   207  2.0600000000000D+00  0.0000000000000D+00  0.0000000000000D+00
   208  2.0700000000000D+00  0.0000000000000D+00  0.0000000000000D+00
   209  2.0800000000000D+00  0.0000000000000D+00  0.0000000000000D+00
   210  2.0900000000000D+00  0.0000000000000D+00  0.0000000000000D+00
   211  2.1000000000000D+00  0.0000000000000D+00  0.0000000000000D+00
   212  2.1100000000000D+00  0.0000000000000D+00  0.0000000000000D+00
   213  2.1200000000000D+00  0.0000000000000D+00  0.0000000000000D+00
   214  2.1300000000000D+00  0.0000000000000D+00  0.0000000000000D+00
   215  2.1400000000000D+00  0.0000000000000D+00  0.0000000000000D+00
   216  2.1500000000000D+00  0.0000000000000D+00  0.0000000000000D+00
   217  2.1600000000000D+00  0.0000000000000D+00  0.0000000000000D+00
   218  2.1700000000000D+00  0.0000000000000D+00  0.0000000000000D+00
   219  2.1800000000000D+00  0.0000000000000D+00  0.0000000000000D+00
   220  2.1900000000000D+00  0.0000000000000D+00  0.0000000000000D+00
   221  2.2000000000000D+00  0.0000000000000D+00  0.0000000000000D+00
   222  2.2100000000000D+00  0.0000000000000D+00  0.0000000000000D+00
   223  2.2200000000000D+00  0.0000000000000D+00  0.0000000000000D+00
   224  2.2300000000000D+00  0.0000000000000D+00  0.0000000000000D+00
   225  2.2400000000000D+00  0.0000000000000D+00  0.0000000000000D+00
   226  2.2500000000000D+00  0.0000000000000D+00  0.0000000000000D+00
   227  2.2600000000000D+00  0.0000000000000D+00  0.0000000000000D+00
   228  2.2700000000000D+00  0.0000000000000D+00  0.0000000000000D+00
   229  2.2800000000000D+00  0.0000000000000D+00  0.0000000000000D+00
   230  2.2900000000000D+00  0.0000000000000D+00  0.0000000000000D+00
   231  2.3000000000000D+00  0.0000000000000D+00  0.0000000000000D+00
   232  2.3100000000000D+00  0.0000000000000D+00  0.0000000000000D+00
   233  2.3200000000000D+00  0.0000000000000D+00  0.0000000000000D+00
   234  2.3300000000000D+00  0.0000000000000D+00  0.0000000000000D+00
   235  2.3400000000000D+00  0.0000000000000D+00  0.0000000000000D+00
   236  2.3500000000000D+00  0.0000000000000D+00  0.0000000000000D+00
   237  2.3600000000000D+00  0.0000000000000D+00  0.0000000000000D+00
   238  2.3700000000000D+00  0.0000000000000D+00  0.0000000000000D+00
   239  2.3800000000000D+00  0.0000000000000D+00  0.0000000000000D+00
   240  2.3900000000000D+00  0.0000000000000D+00  0.0000000000000D+00
   241  2.4000000000000D+00  0.0000000000000D+00  0.0000000000000D+00
   242  2.4100000000000D+00  0.0000000000000D+00  0.0000000000000D+00
   243  2.4200000000000D+00  0.0000000000000D+00  0.0000000000000D+00
   244  2.4300000000000D+00  0.0000000000000D+00  0.0000000000000D+00
   245  2.4400000000000D+00  0.0000000000000D+00  0.0000000000000D+00
   246  2.4500000000000D+00  0.0000000000000D+00  0.0000000000000D+00
   247  2.4600000000000D+00  0.0000000000000D+00  0.0000000000000D+00
   248  2.4700000000000D+00  0.0000000000000D+00  0.0000000000000D+00
   249  2.4800000000000D+00  0.0000000000000D+00  0.0000000000000D+00
   250  2.4900000000000D+00  0.0000000000000D+00  0.0000000000000D+00
   251  2.5000000000000D+00  0.0000000000000D+00  0.0000000000000D+00
   252  2.5100000000000D+00  0.0000000000000D+00  0.0000000000000D+00
   253  2.5200000000000D+00  0.0000000000000D+00  0.0000000000000D+00
   254  2.5300000000000D+00  0.0000000000000D+00  0.0000000000000D+00
   255  2.5400000000000D+00  0.0000000000000D+00  0.0000000000000D+00
   256  2.5500000000000D+00  0.0000000000000D+00  0.0000000000000D+00
   257  2.5600000000000D+00  0.0000000000000D+00  0.0000000000000D+00
   258  2.5700000000000D+00  0.0000000000000D+00  0.0000000000000D+00
   259  2.5800000000000D+00  0.0000000000000D+00  0.0000000000000D+00
   260  2.5900000000000D+00  0.0000000000000D+00  0.0000000000000D+00
   261  2.6000000000000D+00  0.0000000000000D+00  0.0000000000000D+00
   262  2.6100000000000D+00  0.0000000000000D+00  0.0000000000000D+00
   263  2.6200000000000D+00  0.0000000000000D+00  0.0000000000000D+00
   264  2.6300000000000D+00  0.0000000000000D+00  0.0000000000000D+00
   265  2.6400000000000D+00  0.0000000000000D+00  0.0000000000000D+00
   266  2.6500000000000D+00  0.0000000000000D+00  0.0000000000000D+00
   267  2.6600000000000D+00  0.0000000000000D+00  0.0000000000000D+00
   268  2.6700000000000D+00  0.0000000000000D+00  0.0000000000000D+00
   269  2.6800000000000D+00  0.0000000000000D+00  0.0000000000000D+00
   270  2.6900000000000D+00  0.0000000000000D+00  0.0000000000000D+00
   271  2.7000000000000D+00  0.0000000000000D+00  0.0000000000000D+00
   272  2.7100000000000D+00  0.0000000000000D+00  0.0000000000000D+00
   273  2.7200000000000D+00  0.0000000000000D+00  0.0000000000000D+00
   274  2.7300000000000D+00  0.0000000000000D+00  0.0000000000000D+00
   275  2.7400000000000D+00  0.0000000000000D+00  0.0000000000000D+00
   276  2.7500000000000D+00  0.0000000000000D+00  0.0000000000000D+00
   277  2.7600000000000D+00  0.0000000000000D+00  0.0000000000000D+00
   278  2.7700000000000D+00  0.0000000000000D+00  0.0000000000000D+00
   279  2.7800000000000D+00  0.0000000000000D+00  0.0000000000000D+00
   280  2.7900000000000D+00  0.0000000000000D+00  0.0000000000000D+00
   281  2.8000000000000D+00  0.0000000000000D+00  0.0000000000000D+00
   282  2.8100000000000D+00  0.0000000000000D+00  0.0000000000000D+00
   283  2.8200000000000D+00  0.0000000000000D+00  0.0000000000000D+00
   284  2.8300000000000D+00  0.0000000000000D+00  0.0000000000000D+00
   285  2.8400000000000D+00  0.0000000000000D+00  0.0000000000000D+00
   286  2.8500000000000D+00  0.0000000000000D+00  0.0000000000000D+00
   287  2.8600000000000D+00  0.0000000000000D+00  0.0000000000000D+00
   288  2.8700000000000D+00  0.0000000000000D+00  0.0000000000000D+00
   289  2.8800000000000D+00  0.0000000000000D+00  0.0000000000000D+00
   290  2.8900000000000D+00  0.0000000000000D+00  0.0000000000000D+00
   291  2.9000000000000D+00  0.0000000000000D+00  0.0000000000000D+00
   292  2.9100000000000D+00  0.0000000000000D+00  0.0000000000000D+00
   293  2.9200000000000D+00  0.0000000000000D+00  0.0000000000000D+00
   294  2.9300000000000D+00  0.0000000000000D+00  0.0000000000000D+00
   295  2.9400000000000D+00  0.0000000000000D+00  0.0000000000000D+00
   296  2.9500000000000D+00  0.0000000000000D+00  0.0000000000000D+00
   297  2.9600000000000D+00  0.0000000000000D+00  0.0000000000000D+00
   298  2.9700000000000D+00  0.0000000000000D+00  0.0000000000000D+00
   299  2.9800000000000D+00  0.0000000000000D+00  0.0000000000000D+00
   300  2.9900000000000D+00  0.0000000000000D+00  0.0000000000000D+00
   301  3.0000000000000D+00  0.0000000000000D+00  0.0000000000000D+00
   302  3.0100000000000D+00  0.0000000000000D+00  0.0000000000000D+00
   303  3.0200000000000D+00  0.0000000000000D+00  0.0000000000000D+00
   304  3.0300000000000D+00  0.0000000000000D+00  0.0000000000000D+00
   305  3.0400000000000D+00  0.0000000000000D+00  0.0000000000000D+00
   306  3.0500000000000D+00  0.0000000000000D+00  0.0000000000000D+00
   307  3.0600000000000D+00  0.0000000000000D+00  0.0000000000000D+00
   308  3.0700000000000D+00  0.0000000000000D+00  0.0000000000000D+00
   309  3.0800000000000D+00  0.0000000000000D+00  0.0000000000000D+00
   310  3.0900000000000D+00  0.0000000000000D+00  0.0000000000000D+00
   311  3.1000000000000D+00  0.0000000000000D+00  0.0000000000000D+00
   312  3.1100000000000D+00  0.0000000000000D+00  0.0000000000000D+00
   313  3.1200000000000D+00  0.0000000000000D+00  0.0000000000000D+00
   314  3.1300000000000D+00  0.0000000000000D+00  0.0000000000000D+00
   315  3.1400000000000D+00  0.0000000000000D+00  0.0000000000000D+00
   316  3.1500000000000D+00  0.0000000000000D+00  0.0000000000000D+00
   317  3.1600000000000D+00  0.0000000000000D+00  0.0000000000000D+00
   318  3.1700000000000D+00  0.0000000000000D+00  0.0000000000000D+00
   319  3.1800000000000D+00  0.0000000000000D+00  0.0000000000000D+00
   320  3.1900000000000D+00  0.0000000000000D+00  0.0000000000000D+00
   321  3.2000000000000D+00  0.0000000000000D+00  0.0000000000000D+00
   322  3.2100000000000D+00  0.0000000000000D+00  0.0000000000000D+00
   323  3.2200000000000D+00  0.0000000000000D+00  0.0000000000000D+00
   324  3.2300000000000D+00  0.0000000000000D+00  0.0000000000000D+00
   325  3.2400000000000D+00  0.0000000000000D+00  0.0000000000000D+00
   326  3.2500000000000D+00  0.0000000000000D+00  0.0000000000000D+00
   327  3.2600000000000D+00  0.0000000000000D+00  0.0000000000000D+00
   328  3.2700000000000D+00  0.0000000000000D+00  0.0000000000000D+00
   329  3.2800000000000D+00  0.0000000000000D+00  0.0000000000000D+00
   330  3.2900000000000D+00  0.0000000000000D+00  0.0000000000000D+00
   331  3.3000000000000D+00  0.0000000000000D+00  0.0000000000000D+00
   332  3.3100000000000D+00  0.0000000000000D+00  0.0000000000000D+00
   333  3.3200000000000D+00  0.0000000000000D+00  0.0000000000000D+00
   334  3.3300000000000D+00  0.0000000000000D+00  0.0000000000000D+00
   335  3.3400000000000D+00  0.0000000000000D+00  0.0000000000000D+00
   336  3.3500000000000D+00  0.0000000000000D+00  0.0000000000000D+00
   337  3.3600000000000D+00  0.0000000000000D+00  0.0000000000000D+00
   338  3.3700000000000D+00  0.0000000000000D+00  0.0000000000000D+00
   339  3.3800000000000D+00  0.0000000000000D+00  0.0000000000000D+00
   340  3.3900000000000D+00  0.0000000000000D+00  0.0000000000000D+00
   341  3.4000000000000D+00  0.0000000000000D+00  0.0000000000000D+00
   342  3.4100000000000D+00  0.0000000000000D+00  0.0000000000000D+00
   343  3.4200000000000D+00  0.0000000000000D+00  0.0000000000000D+00
   344  3.4300000000000D+00  0.0000000000000D+00  0.0000000000000D+00
   345  3.4400000000000D+00  0.0000000000000D+00  0.0000000000000D+00
   346  3.4500000000000D+00  0.0000000000000D+00  0.0000000000000D+00
   347  3.4600000000000D+00  0.0000000000000D+00  0.0000000000000D+00
   348  3.4700000000000D+00  0.0000000000000D+00  0.0000000000000D+00
   349  3.4800000000000D+00  0.0000000000000D+00  0.0000000000000D+00
   350  3.4900000000000D+00  0.0000000000000D+00  0.0000000000000D+00
   351  3.5000000000000D+00  0.0000000000000D+00  0.0000000000000D+00
   352  3.5100000000000D+00  0.0000000000000D+00  0.0000000000000D+00
   353  3.5200000000000D+00  0.0000000000000D+00  0.0000000000000D+00
   354  3.5300000000000D+00  0.0000000000000D+00  0.0000000000000D+00
   355  3.5400000000000D+00  0.0000000000000D+00  0.0000000000000D+00
   356  3.5500000000000D+00  0.0000000000000D+00  0.0000000000000D+00
   357  3.5600000000000D+00  0.0000000000000D+00  0.0000000000000D+00
   358  3.5700000000000D+00  0.0000000000000D+00  0.0000000000000D+00
   359  3.5800000000000D+00  0.0000000000000D+00  0.0000000000000D+00
   360  3.5900000000000D+00  0.0000000000000D+00  0.0000000000000D+00
   361  3.6000000000000D+00  0.0000000000000D+00  0.0000000000000D+00
   362  3.6100000000000D+00  0.0000000000000D+00  0.0000000000000D+00
   363  3.6200000000000D+00  0.0000000000000D+00  0.0000000000000D+00
   364  3.6300000000000D+00  0.0000000000000D+00  0.0000000000000D+00
   365  3.6400000000000D+00  0.0000000000000D+00  0.0000000000000D+00
   366  3.6500000000000D+00  0.0000000000000D+00  0.0000000000000D+00
   367  3.6600000000000D+00  0.0000000000000D+00  0.0000000000000D+00
   368  3.6700000000000D+00  0.0000000000000D+00  0.0000000000000D+00
   369  3.6800000000000D+00  0.0000000000000D+00  0.0000000000000D+00
   370  3.6900000000000D+00  0.0000000000000D+00  0.0000000000000D+00
   371  3.7000000000000D+00  0.0000000000000D+00  0.0000000000000D+00
   372  3.7100000000000D+00  0.0000000000000D+00  0.0000000000000D+00
   373  3.7200000000000D+00  0.0000000000000D+00  0.0000000000000D+00
   374  3.7300000000000D+00  0.0000000000000D+00  0.0000000000000D+00
   375  3.7400000000000D+00  0.0000000000000D+00  0.0000000000000D+00
   376  3.7500000000000D+00  0.0000000000000D+00  0.0000000000000D+00
   377  3.7600000000000D+00  0.0000000000000D+00  0.0000000000000D+00
   378  3.7700000000000D+00  0.0000000000000D+00  0.0000000000000D+00
   379  3.7800000000000D+00  0.0000000000000D+00  0.0000000000000D+00
   380  3.7900000000000D+00  0.0000000000000D+00  0.0000000000000D+00
   381  3.8000000000000D+00  0.0000000000000D+00  0.0000000000000D+00
   382  3.8100000000000D+00  0.0000000000000D+00  0.0000000000000D+00
   383  3.8200000000000D+00  0.0000000000000D+00  0.0000000000000D+00
   384  3.8300000000000D+00  0.0000000000000D+00  0.0000000000000D+00
   385  3.8400000000000D+00  0.0000000000000D+00  0.0000000000000D+00
   386  3.8500000000000D+00  0.0000000000000D+00  0.0000000000000D+00
   387  3.8600000000000D+00  0.0000000000000D+00  0.0000000000000D+00
   388  3.8700000000000D+00  0.0000000000000D+00  0.0000000000000D+00
   389  3.8800000000000D+00  0.0000000000000D+00  0.0000000000000D+00
   390  3.8900000000000D+00  0.0000000000000D+00  0.0000000000000D+00
   391  3.9000000000000D+00  0.0000000000000D+00  0.0000000000000D+00
   392  3.9100000000000D+00  0.0000000000000D+00  0.0000000000000D+00
   393  3.9200000000000D+00  0.0000000000000D+00  0.0000000000000D+00
   394  3.9300000000000D+00  0.0000000000000D+00  0.0000000000000D+00
   395  3.9400000000000D+00  0.0000000000000D+00  0.0000000000000D+00
   396  3.9500000000000D+00  0.0000000000000D+00  0.0000000000000D+00
   397  3.9600000000000D+00  0.0000000000000D+00  0.0000000000000D+00
   398  3.9700000000000D+00  0.0000000000000D+00  0.0000000000000D+00
   399  3.9800000000000D+00  0.0000000000000D+00  0.0000000000000D+00
   400  3.9900000000000D+00  0.0000000000000D+00  0.0000000000000D+00
   401  4.0000000000000D+00  0.0000000000000D+00  0.0000000000000D+00
   402  4.0100000000000D+00  0.0000000000000D+00  0.0000000000000D+00
   403  4.0200000000000D+00  0.0000000000000D+00  0.0000000000000D+00
   404  4.0300000000000D+00  0.0000000000000D+00  0.0000000000000D+00
   405  4.0400000000000D+00  0.0000000000000D+00  0.0000000000000D+00
   406  4.0500000000000D+00  0.0000000000000D+00  0.0000000000000D+00
   407  4.0600000000000D+00  0.0000000000000D+00  0.0000000000000D+00
   408  4.0700000000000D+00  0.0000000000000D+00  0.0000000000000D+00
   409  4.0800000000000D+00  0.0000000000000D+00  0.0000000000000D+00
   410  4.0900000000000D+00  0.0000000000000D+00  0.0000000000000D+00
   411  4.1000000000000D+00  0.0000000000000D+00  0.0000000000000D+00
   412  4.1100000000000D+00  0.0000000000000D+00  0.0000000000000D+00
   413  4.1200000000000D+00  0.0000000000000D+00  0.0000000000000D+00
   414  4.1300000000000D+00  0.0000000000000D+00  0.0000000000000D+00
   415  4.1400000000000D+00  0.0000000000000D+00  0.0000000000000D+00
   416  4.1500000000000D+00  0.0000000000000D+00  0.0000000000000D+00
   417  4.1600000000000D+00  0.0000000000000D+00  0.0000000000000D+00
   418  4.1700000000000D+00  0.0000000000000D+00  0.0000000000000D+00
   419  4.1800000000000D+00  0.0000000000000D+00  0.0000000000000D+00
   420  4.1900000000000D+00  0.0000000000000D+00  0.0000000000000D+00
   421  4.2000000000000D+00  0.0000000000000D+00  0.0000000000000D+00
   422  4.2100000000000D+00  0.0000000000000D+00  0.0000000000000D+00