B     ONCVPSP-3.3.1  r_core=   1.77019   1.90153
      5.0000      3.0000      210904    zatom,zion,pspd
     8       2   1     4   600     0    pspcod,pspxc,lmax,lloc,mmax,r2well
  5.99000000  0.00000000  0.00000000    rchrg fchrg qchrg
     2     2     0     0     0    nproj
     1     1           extension_switch
   0                         4.3262699820359D+00  1.9391309862777D-01
     1  0.0000000000000D+00 -4.0505543363878D-11  2.3934519643998D-10
     2  1.0000000000000D-02  5.2790116971434D-02  6.9562813010150D-03
     3  2.0000000000000D-02  1.0550167631863D-01  1.3888208371101D-02
     4  3.0000000000000D-02  1.5805633063219D-01  2.0771264138740D-02
     5  4.0000000000000D-02  2.1037615175047D-01  2.7580610462879D-02
     6  5.0000000000000D-02  2.6238383743868D-01  3.4290939065818D-02
     7  6.0000000000000D-02  3.1400291456355D-01  4.0876336055628D-02
     8  7.0000000000000D-02  3.6515793764301D-01  4.7310164283938D-02
     9  8.0000000000000D-02  4.1577468169135D-01  5.3564967545493D-02
    10  9.0000000000000D-02  4.6578032832995D-01  5.9612400331540D-02
    11  1.0000000000000D-01  5.1510364419270D-01  6.5423186503010D-02
    12  1.1000000000000D-01  5.6367515072209D-01  7.0967109855732D-02
    13  1.2000000000000D-01  6.1142728452711D-01  7.6213039112184D-02
    14  1.3000000000000D-01  6.5829454755554D-01  8.1128989398704D-02
    15  1.4000000000000D-01  7.0421364642147D-01  8.5682221756809D-02
    16  1.5000000000000D-01  7.4912362032190D-01  8.9839381700835D-02
    17  1.6000000000000D-01  7.9296595707408D-01  9.3566677274292D-02
    18  1.7000000000000D-01  8.3568469690615D-01  9.6830096483453D-02
    19  1.8000000000000D-01  8.7722652373746D-01  9.9595663402969D-02
    20  1.9000000000000D-01  9.1754084378991D-01  1.0182973166252D-01
    21  2.0000000000000D-01  9.5657985147682D-01  1.0349931344196D-01
    22  2.1000000000000D-01  9.9429858262124D-01  1.0457244153266D-01
    23  2.2000000000000D-01  1.0306549551585D+00  1.0501856146912D-01
    24  2.3000000000000D-01  1.0656097975784D+00  1.0480895020782D-01
    25  2.4000000000000D-01  1.0991268654603D+00  1.0391715733143D-01
    26  2.5000000000000D-01  1.1311728465447D+00  1.0231946429631D-01
    27  2.6000000000000D-01  1.1617173548761D+00  9.9995356822048D-02
    28  2.7000000000000D-01  1.1907329146273D+00  9.6928005151153D-02
    29  2.8000000000000D-01  1.2181949342934D+00  9.3104746588851D-02
    30  2.9000000000000D-01  1.2440816720086D+00  8.8517564471356D-02
    31  3.0000000000000D-01  1.2683741927934D+00  8.3163557511223D-02
    32  3.1000000000000D-01  1.2910563185937D+00  7.7045393332149D-02
    33  3.2000000000000D-01  1.3121145720072D+00  7.0171739935902D-02
    34  3.3000000000000D-01  1.3315381146238D+00  6.2557668844281D-02
    35  3.4000000000000D-01  1.3493186809271D+00  5.4225023727528D-02
    36  3.5000000000000D-01  1.3654505087099D+00  4.5202748471737D-02
    37  3.6000000000000D-01  1.3799302669568D+00  3.5527168846943D-02
    38  3.7000000000000D-01  1.3927569821352D+00  2.5242222218999D-02
    39  3.8000000000000D-01  1.4039319638129D+00  1.4399630095002D-02
    40  3.9000000000000D-01  1.4134587304896D+00  3.0590087057482D-03
    41  4.0000000000000D-01  1.4213429364857D+00 -8.7120866948295D-03
    42  4.1000000000000D-01  1.4275923006842D+00 -2.0838187599935D-02
    43  4.2000000000000D-01  1.4322165378591D+00 -3.3236011286324D-02
    44  4.3000000000000D-01  1.4352272932584D+00 -4.5814635676014D-02
    45  4.4000000000000D-01  1.4366380810323D+00 -5.8475751899600D-02
    46  4.5000000000000D-01  1.4364642270203D+00 -7.1113995718514D-02
    47  4.6000000000000D-01  1.4347228163191D+00 -8.3617358211597D-02
    48  4.7000000000000D-01  1.4314326459648D+00 -9.5867675357806D-02
    49  4.8000000000000D-01  1.4266141829676D+00 -1.0774119535388D-01
    50  4.9000000000000D-01  1.4202895278371D+00 -1.1910922170530D-01
    51  5.0000000000000D-01  1.4124823836385D+00 -1.2983882932720D-01
    52  5.1000000000000D-01  1.4032180305193D+00 -1.3979365009526D-01
    53  5.2000000000000D-01  1.3925233055461D+00 -1.4883472350608D-01
    54  5.3000000000000D-01  1.3804265875933D+00 -1.5682140734840D-01
    55  5.4000000000000D-01  1.3669577869303D+00 -1.6361234255807D-01
    56  5.5000000000000D-01  1.3521483390615D+00 -1.6906646574025D-01
    57  5.6000000000000D-01  1.3360312022878D+00 -1.7304406219863D-01
    58  5.7000000000000D-01  1.3186408583760D+00 -1.7540785171984D-01
    59  5.8000000000000D-01  1.3000133156507D+00 -1.7602409882983D-01
    60  5.9000000000000D-01  1.2801861137520D+00 -1.7476373877353D-01
    61  6.0000000000000D-01  1.2591983292514D+00 -1.7150351007445D-01
    62  6.1000000000000D-01  1.2370905812618D+00 -1.6612708421327D-01
    63  6.2000000000000D-01  1.2139050361445D+00 -1.5852618272853D-01
    64  6.3000000000000D-01  1.1896854103839D+00 -1.4860167189040D-01
    65  6.4000000000000D-01  1.1644769706850D+00 -1.3626462503474D-01
    66  6.5000000000000D-01  1.1383265303396D+00 -1.2143734267105D-01
    67  6.6000000000000D-01  1.1112824409161D+00 -1.0405432059568D-01
    68  6.7000000000000D-01  1.0833945783394D+00 -8.4063156451043D-02
    69  6.8000000000000D-01  1.0547143224594D+00 -6.1425385472123D-02
    70  6.9000000000000D-01  1.0252945292437D+00 -3.6117236554190D-02
    71  7.0000000000000D-01  9.9518949478126D-01 -8.1303002546114D-03
    72  7.1000000000000D-01  9.6445491034634D-01  2.2527899092347D-02
    73  7.2000000000000D-01  9.3314780784147D-01  5.5833434324899D-02
    74  7.3000000000000D-01  9.0132649502297D-01  9.1745615916808D-02
    75  7.4000000000000D-01  8.6905048000068D-01  1.3020674761207D-01
    76  7.5000000000000D-01  8.3638038460429D-01  1.7114200202673D-01
    77  7.6000000000000D-01  8.0337784631460D-01  2.1445942009584D-01
    78  7.7000000000000D-01  7.7010540857139D-01  2.6005003727052D-01
    79  7.8000000000000D-01  7.3662639938779D-01  3.0778813836246D-01
    80  7.9000000000000D-01  7.0300479832435D-01  3.5753164187940D-01
    81  8.0000000000000D-01  6.6930509200169D-01  4.0912261362518D-01
    82  8.1000000000000D-01  6.3559211845862D-01  4.6238790824903D-01
    83  8.2000000000000D-01  6.0193090079132D-01  5.1713993633076D-01
    84  8.3000000000000D-01  5.6838647063707D-01  5.7317755349753D-01
    85  8.4000000000000D-01  5.3502368219216D-01  6.3028706698686D-01
    86  8.5000000000000D-01  5.0190701757648D-01  6.8824335401434D-01
    87  8.6000000000000D-01  4.6910038447583D-01  7.4681108527955D-01
    88  8.7000000000000D-01  4.3666690710550D-01  8.0574604596217D-01
    89  8.8000000000000D-01  4.0466871164443D-01  8.6479654562916D-01
    90  8.9000000000000D-01  3.7316670738710D-01  9.2370490760369D-01
    91  9.0000000000000D-01  3.4222036494848D-01  9.8220902754543D-01
    92  9.1000000000000D-01  3.1188749293552D-01  1.0400439902663D+00
    93  9.2000000000000D-01  2.8222401456600D-01  1.0969437331660D+00
    94  9.3000000000000D-01  2.5328374577010D-01  1.1526427441208D+00
    95  9.4000000000000D-01  2.2511817635253D-01  1.2068777812068D+00
    96  9.5000000000000D-01  1.9777625582194D-01  1.2593896012838D+00
    97  9.6000000000000D-01  1.7130418550885D-01  1.3099246842238D+00
    98  9.7000000000000D-01  1.4574521859477D-01  1.3582369394266D+00
    99  9.8000000000000D-01  1.2113946966056D-01  1.4040893812383D+00
   100  9.9000000000000D-01  9.7523735334117D-02  1.4472557599761D+00
   101  1.0000000000000D+00  7.4931327574348D-02  1.4875221354580D+00
   102  1.0100000000000D+00  5.3391921070887D-02  1.5246883802461D+00
   103  1.0200000000000D+00  3.2931416167456D-02  1.5585696002304D+00
   104  1.0300000000000D+00  1.3571818630051D-02  1.5889974607183D+00
   105  1.0400000000000D+00 -4.6688625117893D-03  1.6158214067844D+00
   106  1.0500000000000D+00 -2.1776697940702D-02  1.6389097674149D+00
   107  1.0600000000000D+00 -3.7741900850704D-02  1.6581507337627D+00
   108  1.0700000000000D+00 -5.2558868709636D-02  1.6734532027356D+00
   109  1.0800000000000D+00 -6.6226203276206D-02  1.6847474781909D+00
   110  1.0900000000000D+00 -7.8746708289583D-02  1.6919858228930D+00
   111  1.1000000000000D+00 -9.0127364436341D-02  1.6951428557125D+00
   112  1.1100000000000D+00 -1.0037928134170D-01  1.6942157895595D+00
   113  1.1200000000000D+00 -1.0951762651370D-01  1.6892245068567D+00
   114  1.1300000000000D+00 -1.1756153132418D-01  1.6802114704818D+00
   115  1.1400000000000D+00 -1.2453397428832D-01  1.6672414694127D+00
   116  1.1500000000000D+00 -1.3046164208317D-01  1.6504011996292D+00
   117  1.1600000000000D+00 -1.3537476891333D-01  1.6297986820802D+00
   118  1.1700000000000D+00 -1.3930695497797D-01  1.6055625206182D+00
   119  1.1800000000000D+00 -1.4229496497475D-01  1.5778410041812D+00
   120  1.1900000000000D+00 -1.4437850772924D-01  1.5468010586755D+00
   121  1.2000000000000D+00 -1.4559999819451D-01  1.5126270552381D+00
   122  1.2100000000000D+00 -1.4600430314555D-01  1.4755194821724D+00
   123  1.2200000000000D+00 -1.4563847210704D-01  1.4356934895585D+00
   124  1.2300000000000D+00 -1.4455145511418D-01  1.3933773160671D+00
   125  1.2400000000000D+00 -1.4279380899681D-01  1.3488106082475D+00
   126  1.2500000000000D+00 -1.4041739400341D-01  1.3022426436255D+00
   127  1.2600000000000D+00 -1.3747506264006D-01  1.2539304695318D+00
   128  1.2700000000000D+00 -1.3402034263276D-01  1.2041369698976D+00
   129  1.2800000000000D+00 -1.3010711599700D-01  1.1531288729641D+00
   130  1.2900000000000D+00 -1.2578929620216D-01  1.1011747131105D+00
   131  1.3000000000000D+00 -1.2112050541711D-01  1.0485427600342D+00
   132  1.3100000000000D+00 -1.1615375384927D-01  9.9549892890858D-01
   133  1.3200000000000D+00 -1.1094112309614D-01  9.4230468475082D-01
   134  1.3300000000000D+00 -1.0553345544972D-01  8.8921495434156D-01
   135  1.3400000000000D+00 -9.9980051018900D-02  8.3647605881592D-01
   136  1.3500000000000D+00 -9.4328374138428D-02  7.8432367499988D-01
   137  1.3600000000000D+00 -8.8623772226815D-02  7.3298086395207D-01
   138  1.3700000000000D+00 -8.2909202771714D-02  6.8265607204347D-01
   139  1.3800000000000D+00 -7.7224992789068D-02  6.3354152204020D-01
   140  1.3900000000000D+00 -7.1608570432486D-02  5.8581091295454D-01
   141  1.4000000000000D+00 -6.6094252939076D-02  5.3961787831987D-01
   142  1.4100000000000D+00 -6.0713192248702D-02  4.9509732805549D-01
   143  1.4200000000000D+00 -5.5493360176363D-02  4.5236672143178D-01
   144  1.4300000000000D+00 -5.0459620153673D-02  4.1152826335334D-01
   145  1.4400000000000D+00 -4.5633679486224D-02  3.7266836025276D-01
   146  1.4500000000000D+00 -4.1034059096109D-02  3.3585696524679D-01
   147  1.4600000000000D+00 -3.6676113552357D-02  3.0114769344989D-01
   148  1.4700000000000D+00 -3.2572061763739D-02  2.6857776814162D-01
   149  1.4800000000000D+00 -2.8731045615915D-02  2.3816820769981D-01
   150  1.4900000000000D+00 -2.5159210593587D-02  2.0992412793193D-01
   151  1.5000000000000D+00 -2.1859808584052D-02  1.8383518538232D-01
   152  1.5100000000000D+00 -1.8833322483413D-02  1.5987615742920D-01
   153  1.5200000000000D+00 -1.6077610614439D-02  1.3800764747934D-01
   154  1.5300000000000D+00 -1.3588070399074D-02  1.1817691332189D-01
   155  1.5400000000000D+00 -1.1357819310438D-02  1.0031880703031D-01
   156  1.5500000000000D+00 -9.3778917998496D-03  8.4356819338506D-02
   157  1.5600000000000D+00 -7.6374503927599D-03  7.0204218046029D-02
   158  1.5700000000000D+00 -6.1240090079629D-03  5.7765268857380D-02
   159  1.5800000000000D+00 -4.8236667838321D-03  4.6936528892637D-02
   160  1.5900000000000D+00 -3.7213500672021D-03  3.7608198304200D-02
   161  1.6000000000000D+00 -2.8010607908578D-03  2.9665519957636D-02
   162  1.6100000000000D+00 -2.0461287928240D-03  2.2990211585101D-02
   163  1.6200000000000D+00 -1.4394660854537D-03  1.7461918995037D-02
   164  1.6300000000000D+00 -9.6382080527466D-04  1.2959675665197D-02
   165  1.6400000000000D+00 -6.0202854738871D-04  9.3633551967390D-03
   166  1.6500000000000D+00 -3.3725915620214D-04  6.5551041080366D-03
   167  1.6600000000000D+00 -1.5325642712061D-04  4.4207396138550D-03
   168  1.6700000000000D+00 -3.4569183782621D-05  2.8511023874201D-03
   169  1.6800000000000D+00  3.3228967037681D-05  1.7433477719939D-03
   170  1.6900000000000D+00  6.3332278808036D-05  1.0021683783038D-03
   171  1.7000000000000D+00  6.7510715555056D-05  5.4093066629403D-04
   172  1.7100000000000D+00  5.5921360593277D-05  2.8281074062436D-04
   173  1.7200000000000D+00  3.6968831054171D-05  1.6160091905773D-04
   174  1.7300000000000D+00  1.7296902998833D-05  1.2145704949418D-04
   175  1.7400000000000D+00  1.3768583283728D-06  1.1978639018561D-04
   176  1.7500000000000D+00 -8.9383321360771D-06  1.3252362233638D-04
   177  1.7600000000000D+00 -1.3466739044128D-05  1.4421209337043D-04
   178  1.7700000000000D+00 -1.2312131934811D-05  1.2815271807144D-04
   179  1.7800000000000D+00 -6.5596858156633D-06  6.8834362236818D-05
   180  1.7900000000000D+00 -6.4289665010314D-07  6.8770763487047D-06
   181  1.8000000000000D+00  1.3120947212982D-06 -1.3419160112359D-05
   182  1.8100000000000D+00  4.3823585226414D-07 -4.4877128018030D-06
   183  1.8200000000000D+00 -2.7751869369618D-07  2.7770523551294D-06
   184  1.8300000000000D+00 -1.7394219504097D-07  1.7366043933995D-06
   185  1.8400000000000D+00  2.5902906641760D-08 -2.6973915635911D-07
   186  1.8500000000000D+00  2.7149763478545D-08 -2.8272326335168D-07
   187  1.8600000000000D+00  0.0000000000000D+00  0.0000000000000D+00
   188  1.8700000000000D+00  0.0000000000000D+00  0.0000000000000D+00
   189  1.8800000000000D+00  0.0000000000000D+00  0.0000000000000D+00
   190  1.8900000000000D+00  0.0000000000000D+00  0.0000000000000D+00
   191  1.9000000000000D+00  0.0000000000000D+00  0.0000000000000D+00
   192  1.9100000000000D+00  0.0000000000000D+00  0.0000000000000D+00
   193  1.9200000000000D+00  0.0000000000000D+00  0.0000000000000D+00
   194  1.9300000000000D+00  0.0000000000000D+00  0.0000000000000D+00
   195  1.9400000000000D+00  0.0000000000000D+00  0.0000000000000D+00
   196  1.9500000000000D+00  0.0000000000000D+00  0.0000000000000D+00
   197  1.9600000000000D+00  0.0000000000000D+00  0.0000000000000D+00
   198  1.9700000000000D+00  0.0000000000000D+00  0.0000000000000D+00
   199  1.9800000000000D+00  0.0000000000000D+00  0.0000000000000D+00
   200  1.9900000000000D+00  0.0000000000000D+00  0.0000000000000D+00
   201  2.0000000000000D+00  0.0000000000000D+00  0.0000000000000D+00
   202  2.0100000000000D+00  0.0000000000000D+00  0.0000000000000D+00
   203  2.0200000000000D+00  0.0000000000000D+00  0.0000000000000D+00
   204  2.0300000000000D+00  0.0000000000000D+00  0.0000000000000D+00
   205  2.0400000000000D+00  0.0000000000000D+00  0.0000000000000D+00
   206  2.0500000000000D+00  0.0000000000000D+00  0.0000000000000D+00
   207  2.0600000000000D+00  0.0000000000000D+00  0.0000000000000D+00
   208  2.0700000000000D+00  0.0000000000000D+00  0.0000000000000D+00
   209  2.0800000000000D+00  0.0000000000000D+00  0.0000000000000D+00
   210  2.0900000000000D+00  0.0000000000000D+00  0.0000000000000D+00
   211  2.1000000000000D+00  0.0000000000000D+00  0.0000000000000D+00
   212  2.1100000000000D+00  0.0000000000000D+00  0.0000000000000D+00
   213  2.1200000000000D+00  0.0000000000000D+00  0.0000000000000D+00
   214  2.1300000000000D+00  0.0000000000000D+00  0.0000000000000D+00
   215  2.1400000000000D+00  0.0000000000000D+00  0.0000000000000D+00
   216  2.1500000000000D+00  0.0000000000000D+00  0.0000000000000D+00
   217  2.1600000000000D+00  0.0000000000000D+00  0.0000000000000D+00
   218  2.1700000000000D+00  0.0000000000000D+00  0.0000000000000D+00
   219  2.1800000000000D+00  0.0000000000000D+00  0.0000000000000D+00
   220  2.1900000000000D+00  0.0000000000000D+00  0.0000000000000D+00
   221  2.2000000000000D+00  0.0000000000000D+00  0.0000000000000D+00
   222  2.2100000000000D+00  0.0000000000000D+00  0.0000000000000D+00
   223  2.2200000000000D+00  0.0000000000000D+00  0.0000000000000D+00
   224  2.2300000000000D+00  0.0000000000000D+00  0.0000000000000D+00
   225  2.2400000000000D+00  0.0000000000000D+00  0.0000000000000D+00
   226  2.2500000000000D+00  0.0000000000000D+00  0.0000000000000D+00
   227  2.2600000000000D+00  0.0000000000000D+00  0.0000000000000D+00
   228  2.2700000000000D+00  0.0000000000000D+00  0.0000000000000D+00
   229  2.2800000000000D+00  0.0000000000000D+00  0.0000000000000D+00
   230  2.2900000000000D+00  0.0000000000000D+00  0.0000000000000D+00
   231  2.3000000000000D+00  0.0000000000000D+00  0.0000000000000D+00
   232  2.3100000000000D+00  0.0000000000000D+00  0.0000000000000D+00
   233  2.3200000000000D+00  0.0000000000000D+00  0.0000000000000D+00
   234  2.3300000000000D+00  0.0000000000000D+00  0.0000000000000D+00
   235  2.3400000000000D+00  0.0000000000000D+00  0.0000000000000D+00
   236  2.3500000000000D+00  0.0000000000000D+00  0.0000000000000D+00
   237  2.3600000000000D+00  0.0000000000000D+00  0.0000000000000D+00
   238  2.3700000000000D+00  0.0000000000000D+00  0.0000000000000D+00
   239  2.3800000000000D+00  0.0000000000000D+00  0.0000000000000D+00
   240  2.3900000000000D+00  0.0000000000000D+00  0.0000000000000D+00
   241  2.4000000000000D+00  0.0000000000000D+00  0.0000000000000D+00
   242  2.4100000000000D+00  0.0000000000000D+00  0.0000000000000D+00
   243  2.4200000000000D+00  0.0000000000000D+00  0.0000000000000D+00
   244  2.4300000000000D+00  0.0000000000000D+00  0.0000000000000D+00
   245  2.4400000000000D+00  0.0000000000000D+00  0.0000000000000D+00
   246  2.4500000000000D+00  0.0000000000000D+00  0.0000000000000D+00
   247  2.4600000000000D+00  0.0000000000000D+00  0.0000000000000D+00
   248  2.4700000000000D+00  0.0000000000000D+00  0.0000000000000D+00
   249  2.4800000000000D+00  0.0000000000000D+00  0.0000000000000D+00
   250  2.4900000000000D+00  0.0000000000000D+00  0.0000000000000D+00
   251  2.5000000000000D+00  0.0000000000000D+00  0.0000000000000D+00
   252  2.5100000000000D+00  0.0000000000000D+00  0.0000000000000D+00
   253  2.5200000000000D+00  0.0000000000000D+00  0.0000000000000D+00
   254  2.5300000000000D+00  0.0000000000000D+00  0.0000000000000D+00
   255  2.5400000000000D+00  0.0000000000000D+00  0.0000000000000D+00
   256  2.5500000000000D+00  0.0000000000000D+00  0.0000000000000D+00
   257  2.5600000000000D+00  0.0000000000000D+00  0.0000000000000D+00
   258  2.5700000000000D+00  0.0000000000000D+00  0.0000000000000D+00
   259  2.5800000000000D+00  0.0000000000000D+00  0.0000000000000D+00
   260  2.5900000000000D+00  0.0000000000000D+00  0.0000000000000D+00
   261  2.6000000000000D+00  0.0000000000000D+00  0.0000000000000D+00
   262  2.6100000000000D+00  0.0000000000000D+00  0.0000000000000D+00
   263  2.6200000000000D+00  0.0000000000000D+00  0.0000000000000D+00
   264  2.6300000000000D+00  0.0000000000000D+00  0.0000000000000D+00
   265  2.6400000000000D+00  0.0000000000000D+00  0.0000000000000D+00
   266  2.6500000000000D+00  0.0000000000000D+00  0.0000000000000D+00
   267  2.6600000000000D+00  0.0000000000000D+00  0.0000000000000D+00
   268  2.6700000000000D+00  0.0000000000000D+00  0.0000000000000D+00
   269  2.6800000000000D+00  0.0000000000000D+00  0.0000000000000D+00
   270  2.6900000000000D+00  0.0000000000000D+00  0.0000000000000D+00
   271  2.7000000000000D+00  0.0000000000000D+00  0.0000000000000D+00
   272  2.7100000000000D+00  0.0000000000000D+00  0.0000000000000D+00
   273  2.7200000000000D+00  0.0000000000000D+00  0.0000000000000D+00
   274  2.7300000000000D+00  0.0000000000000D+00  0.0000000000000D+00
   275  2.7400000000000D+00  0.0000000000000D+00  0.0000000000000D+00
   276  2.7500000000000D+00  0.0000000000000D+00  0.0000000000000D+00
   277  2.7600000000000D+00  0.0000000000000D+00  0.0000000000000D+00
   278  2.7700000000000D+00  0.0000000000000D+00  0.0000000000000D+00
   279  2.7800000000000D+00  0.0000000000000D+00  0.0000000000000D+00
   280  2.7900000000000D+00  0.0000000000000D+00  0.0000000000000D+00
   281  2.8000000000000D+00  0.0000000000000D+00  0.0000000000000D+00
   282  2.8100000000000D+00  0.0000000000000D+00  0.0000000000000D+00
   283  2.8200000000000D+00  0.0000000000000D+00  0.0000000000000D+00
   284  2.8300000000000D+00  0.0000000000000D+00  0.0000000000000D+00
   285  2.8400000000000D+00  0.0000000000000D+00  0.0000000000000D+00
   286  2.8500000000000D+00  0.0000000000000D+00  0.0000000000000D+00
   287  2.8600000000000D+00  0.0000000000000D+00  0.0000000000000D+00
   288  2.8700000000000D+00  0.0000000000000D+00  0.0000000000000D+00
   289  2.8800000000000D+00  0.0000000000000D+00  0.0000000000000D+00
   290  2.8900000000000D+00  0.0000000000000D+00  0.0000000000000D+00
   291  2.9000000000000D+00  0.0000000000000D+00  0.0000000000000D+00
   292  2.9100000000000D+00  0.0000000000000D+00  0.0000000000000D+00
   293  2.9200000000000D+00  0.0000000000000D+00  0.0000000000000D+00
   294  2.9300000000000D+00  0.0000000000000D+00  0.0000000000000D+00
   295  2.9400000000000D+00  0.0000000000000D+00  0.0000000000000D+00
   296  2.9500000000000D+00  0.0000000000000D+00  0.0000000000000D+00
   297  2.9600000000000D+00  0.0000000000000D+00  0.0000000000000D+00
   298  2.9700000000000D+00  0.0000000000000D+00  0.0000000000000D+00
   299  2.9800000000000D+00  0.0000000000000D+00  0.0000000000000D+00
   300  2.9900000000000D+00  0.0000000000000D+00  0.0000000000000D+00
   301  3.0000000000000D+00  0.0000000000000D+00  0.0000000000000D+00
   302  3.0100000000000D+00  0.0000000000000D+00  0.0000000000000D+00
   303  3.0200000000000D+00  0.0000000000000D+00  0.0000000000000D+00
   304  3.0300000000000D+00  0.0000000000000D+00  0.0000000000000D+00
   305  3.0400000000000D+00  0.0000000000000D+00  0.0000000000000D+00
   306  3.0500000000000D+00  0.0000000000000D+00  0.0000000000000D+00
   307  3.0600000000000D+00  0.0000000000000D+00  0.0000000000000D+00
   308  3.0700000000000D+00  0.0000000000000D+00  0.0000000000000D+00
   309  3.0800000000000D+00  0.0000000000000D+00  0.0000000000000D+00
   310  3.0900000000000D+00  0.0000000000000D+00  0.0000000000000D+00
   311  3.1000000000000D+00  0.0000000000000D+00  0.0000000000000D+00
   312  3.1100000000000D+00  0.0000000000000D+00  0.0000000000000D+00
   313  3.1200000000000D+00  0.0000000000000D+00  0.0000000000000D+00
   314  3.1300000000000D+00  0.0000000000000D+00  0.0000000000000D+00
   315  3.1400000000000D+00  0.0000000000000D+00  0.0000000000000D+00
   316  3.1500000000000D+00  0.0000000000000D+00  0.0000000000000D+00
   317  3.1600000000000D+00  0.0000000000000D+00  0.0000000000000D+00
   318  3.1700000000000D+00  0.0000000000000D+00  0.0000000000000D+00
   319  3.1800000000000D+00  0.0000000000000D+00  0.0000000000000D+00
   320  3.1900000000000D+00  0.0000000000000D+00  0.0000000000000D+00
   321  3.2000000000000D+00  0.0000000000000D+00  0.0000000000000D+00
   322  3.2100000000000D+00  0.0000000000000D+00  0.0000000000000D+00
   323  3.2200000000000D+00  0.0000000000000D+00  0.0000000000000D+00
   324  3.2300000000000D+00  0.0000000000000D+00  0.0000000000000D+00
   325  3.2400000000000D+00  0.0000000000000D+00  0.0000000000000D+00
   326  3.2500000000000D+00  0.0000000000000D+00  0.0000000000000D+00
   327  3.2600000000000D+00  0.0000000000000D+00  0.0000000000000D+00
   328  3.2700000000000D+00  0.0000000000000D+00  0.0000000000000D+00
   329  3.2800000000000D+00  0.0000000000000D+00  0.0000000000000D+00
   330  3.2900000000000D+00  0.0000000000000D+00  0.0000000000000D+00
   331  3.3000000000000D+00  0.0000000000000D+00  0.0000000000000D+00
   332  3.3100000000000D+00  0.0000000000000D+00  0.0000000000000D+00
   333  3.3200000000000D+00  0.0000000000000D+00  0.0000000000000D+00
   334  3.3300000000000D+00  0.0000000000000D+00  0.0000000000000D+00
   335  3.3400000000000D+00  0.0000000000000D+00  0.0000000000000D+00
   336  3.3500000000000D+00  0.0000000000000D+00  0.0000000000000D+00
   337  3.3600000000000D+00  0.0000000000000D+00  0.0000000000000D+00
   338  3.3700000000000D+00  0.0000000000000D+00  0.0000000000000D+00
   339  3.3800000000000D+00  0.0000000000000D+00  0.0000000000000D+00
   340  3.3900000000000D+00  0.0000000000000D+00  0.0000000000000D+00
   341  3.4000000000000D+00  0.0000000000000D+00  0.0000000000000D+00
   342  3.4100000000000D+00  0.0000000000000D+00  0.0000000000000D+00
   343  3.4200000000000D+00  0.0000000000000D+00  0.0000000000000D+00
   344  3.4300000000000D+00  0.0000000000000D+00  0.0000000000000D+00
   345  3.4400000000000D+00  0.0000000000000D+00  0.0000000000000D+00
   346  3.4500000000000D+00  0.0000000000000D+00  0.0000000000000D+00
   347  3.4600000000000D+00  0.0000000000000D+00  0.0000000000000D+00
   348  3.4700000000000D+00  0.0000000000000D+00  0.0000000000000D+00
   349  3.4800000000000D+00  0.0000000000000D+00  0.0000000000000D+00
   350  3.4900000000000D+00  0.0000000000000D+00  0.0000000000000D+00
   351  3.5000000000000D+00  0.0000000000000D+00  0.0000000000000D+00
   352  3.5100000000000D+00  0.0000000000000D+00  0.0000000000000D+00
   353  3.5200000000000D+00  0.0000000000000D+00  0.0000000000000D+00
   354  3.5300000000000D+00  0.0000000000000D+00  0.0000000000000D+00
   355  3.5400000000000D+00  0.0000000000000D+00  0.0000000000000D+00
   356  3.5500000000000D+00  0.0000000000000D+00  0.0000000000000D+00
   357  3.5600000000000D+00  0.0000000000000D+00  0.0000000000000D+00
   358  3.5700000000000D+00  0.0000000000000D+00  0.0000000000000D+00
   359  3.5800000000000D+00  0.0000000000000D+00  0.0000000000000D+00
   360  3.5900000000000D+00  0.0000000000000D+00  0.0000000000000D+00
   361  3.6000000000000D+00  0.0000000000000D+00  0.0000000000000D+00
   362  3.6100000000000D+00  0.0000000000000D+00  0.0000000000000D+00
   363  3.6200000000000D+00  0.0000000000000D+00  0.0000000000000D+00
   364  3.6300000000000D+00  0.0000000000000D+00  0.0000000000000D+00
   365  3.6400000000000D+00  0.0000000000000D+00  0.0000000000000D+00
   366  3.6500000000000D+00  0.0000000000000D+00  0.0000000000000D+00
   367  3.6600000000000D+00  0.0000000000000D+00  0.0000000000000D+00
   368  3.6700000000000D+00  0.0000000000000D+00  0.0000000000000D+00
   369  3.6800000000000D+00  0.0000000000000D+00  0.0000000000000D+00
   370  3.6900000000000D+00  0.0000000000000D+00  0.0000000000000D+00
   371  3.7000000000000D+00  0.0000000000000D+00  0.0000000000000D+00
   372  3.7100000000000D+00  0.0000000000000D+00  0.0000000000000D+00
   373  3.7200000000000D+00  0.0000000000000D+00  0.0000000000000D+00
   374  3.7300000000000D+00  0.0000000000000D+00  0.0000000000000D+00
   375  3.7400000000000D+00  0.0000000000000D+00  0.0000000000000D+00
   376  3.7500000000000D+00  0.0000000000000D+00  0.0000000000000D+00
   377  3.7600000000000D+00  0.0000000000000D+00  0.0000000000000D+00
   378  3.7700000000000D+00  0.0000000000000D+00  0.0000000000000D+00
   379  3.7800000000000D+00  0.0000000000000D+00  0.0000000000000D+00
   380  3.7900000000000D+00  0.0000000000000D+00  0.0000000000000D+00
   381  3.8000000000000D+00  0.0000000000000D+00  0.0000000000000D+00
   382  3.8100000000000D+00  0.0000000000000D+00  0.0000000000000D+00
   383  3.8200000000000D+00  0.0000000000000D+00  0.0000000000000D+00
   384  3.8300000000000D+00  0.0000000000000D+00  0.0000000000000D+00
   385  3.8400000000000D+00  0.0000000000000D+00  0.0000000000000D+00
   386  3.8500000000000D+00  0.0000000000000D+00  0.0000000000000D+00
   387  3.8600000000000D+00  0.0000000000000D+00  0.0000000000000D+00
   388  3.8700000000000D+00  0.0000000000000D+00  0.0000000000000D+00
   389  3.8800000000000D+00  0.0000000000000D+00  0.0000000000000D+00
   390  3.8900000000000D+00  0.0000000000000D+00  0.0000000000000D+00
   391  3.9000000000000D+00  0.0000000000000D+00  0.0000000000000D+00
   392  3.9100000000000D+00  0.0000000000000D+00  0.0000000000000D+00
   393  3.9200000000000D+00  0.0000000000000D+00  0.0000000000000D+00
   394  3.9300000000000D+00  0.0000000000000D+00  0.0000000000000D+00
   395  3.9400000000000D+00  0.0000000000000D+00  0.0000000000000D+00
   396  3.9500000000000D+00  0.0000000000000D+00  0.0000000000000D+00
   397  3.9600000000000D+00  0.0000000000000D+00  0.0000000000000D+00
   398  3.9700000000000D+00  0.0000000000000D+00  0.0000000000000D+00
   399  3.9800000000000D+00  0.0000000000000D+00  0.0000000000000D+00
   400  3.9900000000000D+00  0.0000000000000D+00  0.0000000000000D+00
   401  4.0000000000000D+00  0.0000000000000D+00  0.0000000000000D+00
   402  4.0100000000000D+00  0.0000000000000D+00  0.0000000000000D+00
   403  4.0200000000000D+00  0.0000000000000D+00  0.0000000000000D+00
   404  4.0300000000000D+00  0.0000000000000D+00  0.0000000000000D+00
   405  4.0400000000000D+00  0.0000000000000D+00  0.0000000000000D+00
   406  4.0500000000000D+00  0.0000000000000D+00  0.0000000000000D+00
   407  4.0600000000000D+00  0.0000000000000D+00  0.0000000000000D+00
   408  4.0700000000000D+00  0.0000000000000D+00  0.0000000000000D+00
   409  4.0800000000000D+00  0.0000000000000D+00  0.0000000000000D+00
   410  4.0900000000000D+00  0.0000000000000D+00  0.0000000000000D+00
   411  4.1000000000000D+00  0.0000000000000D+00  0.0000000000000D+00
   412  4.1100000000000D+00  0.0000000000000D+00  0.0000000000000D+00
   413  4.1200000000000D+00  0.0000000000000D+00  0.0000000000000D+00
   414  4.1300000000000D+00  0.0000000000000D+00  0.0000000000000D+00
   415  4.1400000000000D+00  0.0000000000000D+00  0.0000000000000D+00
   416  4.1500000000000D+00  0.0000000000000D+00  0.0000000000000D+00
   417  4.1600000000000D+00  0.0000000000000D+00  0.0000000000000D+00
   418  4.1700000000000D+00  0.0000000000000D+00  0.0000000000000D+00
   419  4.1800000000000D+00  0.0000000000000D+00  0.0000000000000D+00
   420  4.1900000000000D+00  0.0000000000000D+00  0.0000000000000D+00
   421  4.2000000000000D+00  0.0000000000000D+00  0.0000000000000D+00
   422  4.2100000000000D+00  0.0000000000000D+00  0.0000000000000D+00
   423  4.2200000000000D+00  0.0000000000000D+00  0.0000000000000D+00