Be    ONCVPSP-3.3.1  r_core=   2.37691   1.91763
      4.0000      4.0000      210904    zatom,zion,pspd
     8       2   1     4   600     0    pspcod,pspxc,lmax,lloc,mmax,r2well
  5.99000000  0.00000000  0.00000000    rchrg fchrg qchrg
     2     2     0     0     0    nproj
     1     1           extension_switch
   0                        -4.0209831594438D+00 -1.8526589434260D+00
     1  0.0000000000000D+00  1.6303569605469D-11 -2.8615970704138D-11
     2  1.0000000000000D-02  4.7649569846434D-02 -2.9324131780469D-02
     3  2.0000000000000D-02  9.5250543679583D-02 -5.8571427269775D-02
     4  3.0000000000000D-02  1.4275432541532D-01 -8.7665132787412D-02
     5  4.0000000000000D-02  1.9011231932761D-01 -1.1652866047219D-01
     6  5.0000000000000D-02  2.3727593147273D-01 -1.4508567267960D-01
     7  6.0000000000000D-02  2.8419657259626D-01 -1.7326016814405D-01
     8  7.0000000000000D-02  3.3082566299768D-01 -2.0097657046042D-01
     9  8.0000000000000D-02  3.7711463981137D-01 -2.2815981941087D-01
    10  9.0000000000000D-02  4.2301496714247D-01 -2.5473546562740D-01
    11  1.0000000000000D-01  4.6847814947225D-01 -2.8062976903900D-01
    12  1.1000000000000D-01  5.1345574872015D-01 -3.0576980150453D-01
    13  1.2000000000000D-01  5.5789940531889D-01 -3.3008355397865D-01
    14  1.3000000000000D-01  6.0176086362503D-01 -3.5350004850010D-01
    15  1.4000000000000D-01  6.4499200195052D-01 -3.7594945522744D-01
    16  1.5000000000000D-01  6.8754486746136D-01 -3.9736321468040D-01
    17  1.6000000000000D-01  7.2937171614751D-01 -4.1767416527346D-01
    18  1.7000000000000D-01  7.7042505802423D-01 -4.3681667615409D-01
    19  1.8000000000000D-01  8.1065770767947D-01 -4.5472678528140D-01
    20  1.9000000000000D-01  8.5002284023450D-01 -4.7134234260267D-01
    21  2.0000000000000D-01  8.8847405273701D-01 -4.8660315810563D-01
    22  2.1000000000000D-01  9.2596543095659D-01 -5.0045115444461D-01
    23  2.2000000000000D-01  9.6245162150328D-01 -5.1283052375909D-01
    24  2.3000000000000D-01  9.9788790914009D-01 -5.2368788822449D-01
    25  2.4000000000000D-01  1.0322302991114D+00 -5.3297246379850D-01
    26  2.5000000000000D-01  1.0654356042602D+00 -5.4063622655118D-01
    27  2.6000000000000D-01  1.0974615366601D+00 -5.4663408089618D-01
    28  2.7000000000000D-01  1.1282668034409D+00 -5.5092402897210D-01
    29  2.8000000000000D-01  1.1578112064421D+00 -5.5346734035971D-01
    30  2.9000000000000D-01  1.1860557452869D+00 -5.5422872126219D-01
    31  3.0000000000000D-01  1.2129627234276D+00 -5.5317648222216D-01
    32  3.1000000000000D-01  1.2384958566755D+00 -5.5028270340226D-01
    33  3.2000000000000D-01  1.2626203836955D+00 -5.4552339641520D-01
    34  3.3000000000000D-01  1.2853031779104D+00 -5.3887866165536D-01
    35  3.4000000000000D-01  1.3065128602340D+00 -5.3033284005751D-01
    36  3.5000000000000D-01  1.3262199120271D+00 -5.1987465818915D-01
    37  3.6000000000000D-01  1.3443967876473D+00 -5.0749736557204D-01
    38  3.7000000000000D-01  1.3610180259486D+00 -4.9319886312535D-01
    39  3.8000000000000D-01  1.3760603600723D+00 -4.7698182162833D-01
    40  3.9000000000000D-01  1.3895028248622D+00 -4.5885378911389D-01
    41  4.0000000000000D-01  1.4013268612335D+00 -4.3882728612661D-01
    42  4.1000000000000D-01  1.4115164168213D+00 -4.1691988780924D-01
    43  4.2000000000000D-01  1.4200580422433D+00 -3.9315429182007D-01
    44  4.3000000000000D-01  1.4269409823158D+00 -3.6755837113087D-01
    45  4.4000000000000D-01  1.4321572615767D+00 -3.4016521080941D-01
    46  4.5000000000000D-01  1.4357017634865D+00 -3.1101312795311D-01
    47  4.6000000000000D-01  1.4375723026987D+00 -2.8014567401000D-01
    48  4.7000000000000D-01  1.4377696898174D+00 -2.4761161879971D-01
    49  4.8000000000000D-01  1.4362977880876D+00 -2.1346491563027D-01
    50  4.9000000000000D-01  1.4331635614995D+00 -1.7776464699527D-01
    51  5.0000000000000D-01  1.4283771138226D+00 -1.4057495043068D-01
    52  5.1000000000000D-01  1.4219517181257D+00 -1.0196492420941D-01
    53  5.2000000000000D-01  1.4139038363845D+00 -6.2008512655472D-02
    54  5.3000000000000D-01  1.4042531288209D+00 -2.0784370966337D-02
    55  5.4000000000000D-01  1.3930224526710D+00  2.1624290458183D-02
    56  5.5000000000000D-01  1.3802378501259D+00  6.5129882070044D-02
    57  5.6000000000000D-01  1.3659285252470D+00  1.0964063138666D-01
    58  5.7000000000000D-01  1.3501268097070D+00  1.5506079902659D-01
    59  5.8000000000000D-01  1.3328681172696D+00  2.0129091411615D-01
    60  5.9000000000000D-01  1.3141908869730D+00  2.4822802850284D-01
    61  6.0000000000000D-01  1.2941365150442D+00  2.9576598910057D-01
    62  6.1000000000000D-01  1.2727492756264D+00  3.4379572758295D-01
    63  6.2000000000000D-01  1.2500762304611D+00  3.9220556653545D-01
    64  6.3000000000000D-01  1.2261671277249D+00  4.4088154107577D-01
    65  6.4000000000000D-01  1.2010742902757D+00  4.8970773485519D-01
    66  6.5000000000000D-01  1.1748524936213D+00  5.3856662926176D-01
    67  6.6000000000000D-01  1.1475588339762D+00  5.8733946456129D-01
    68  6.7000000000000D-01  1.1192525868250D+00  6.3590661163301D-01
    69  6.8000000000000D-01  1.0899950564624D+00  6.8414795288515D-01
    70  6.9000000000000D-01  1.0598494170269D+00  7.3194327087210D-01
    71  7.0000000000000D-01  1.0288805455897D+00  7.7917264307891D-01
    72  7.1000000000000D-01  9.9715484790577D-01  8.2571684129202D-01
    73  7.2000000000000D-01  9.6474007746968D-01  8.7145773393717D-01
    74  7.3000000000000D-01  9.3170514855621D-01  9.1627868973678D-01
    75  7.4000000000000D-01  8.9811994395801D-01  9.6006498101982D-01
    76  7.5000000000000D-01  8.6405511815967D-01  1.0027041850082D+00
    77  7.6000000000000D-01  8.2958189671208D-01  1.0440865814042D+00
    78  7.7000000000000D-01  7.9477187259113D-01  1.0841055446134D+00
    79  7.8000000000000D-01  7.5969680033971D-01  1.1226579289592D+00
    80  7.9000000000000D-01  7.2442838880384D-01  1.1596444452738D+00
    81  8.0000000000000D-01  6.8903809328016D-01  1.1949700272918D+00
    82  8.1000000000000D-01  6.5359690789439D-01  1.2285441863213D+00
    83  8.2000000000000D-01  6.1817515902827D-01  1.2602813527263D+00
    84  8.3000000000000D-01  5.8284230060585D-01  1.2901012028213D+00
    85  8.4000000000000D-01  5.4766671203896D-01  1.3179289698566D+00
    86  8.5000000000000D-01  5.1271549961654D-01  1.3436957378542D+00
    87  8.6000000000000D-01  4.7805430210275D-01  1.3673387171491D+00
    88  8.7000000000000D-01  4.4374710128545D-01  1.3888015005864D+00
    89  8.8000000000000D-01  4.0985603818886D-01  1.4080342994316D+00
    90  8.9000000000000D-01  3.7644123563322D-01  1.4249941581614D+00
    91  9.0000000000000D-01  3.4356062778930D-01  1.4396451474178D+00
    92  9.1000000000000D-01  3.1126979733754D-01  1.4519585345287D+00
    93  9.2000000000000D-01  2.7962182080030D-01  1.4619129311229D+00
    94  9.3000000000000D-01  2.4866712257206D-01  1.4694944174905D+00
    95  9.4000000000000D-01  2.1845333812526D-01  1.4746966434719D+00
    96  9.5000000000000D-01  1.8902518682118D-01  1.4775209057871D+00
    97  9.6000000000000D-01  1.6042435470422D-01  1.4779762018438D+00
    98  9.7000000000000D-01  1.3268938760568D-01  1.4760792601980D+00
    99  9.8000000000000D-01  1.0585559482854D-01  1.4718545479654D+00
   100  9.9000000000000D-01  7.9954963632275D-02  1.4653342556073D+00
   101  1.0000000000000D+00  5.5016084667854D-02  1.4565582601355D+00
   102  1.0100000000000D+00  3.1064088436327D-02  1.4455740662900D+00
   103  1.0200000000000D+00  8.1205934046975D-03  1.4324367171216D+00
   104  1.0300000000000D+00 -1.3796336371996D-02  1.4172087245913D+00
   105  1.0400000000000D+00 -3.4672219448300D-02  1.3999598756214D+00
   106  1.0500000000000D+00 -5.4496147443235D-02  1.3807660181984D+00
   107  1.0600000000000D+00 -7.3260705649004D-02  1.3597076497433D+00
   108  1.0700000000000D+00 -9.0961866764246D-02  1.3368691974019D+00
   109  1.0800000000000D+00 -1.0759887613896D-01  1.3123387340290D+00
   110  1.0900000000000D+00 -1.2317413072246D-01  1.2862075653732D+00
   111  1.1000000000000D+00 -1.3769305074652D-01  1.2585698409222D+00
   112  1.1100000000000D+00 -1.5116394557347D-01  1.2295221633945D+00
   113  1.1200000000000D+00 -1.6359787435798D-01  1.1991631986443D+00
   114  1.1300000000000D+00 -1.7500850227946D-01  1.1675932882877D+00
   115  1.1400000000000D+00 -1.8541195309433D-01  1.1349140666925D+00
   116  1.1500000000000D+00 -1.9482665874806D-01  1.1012280838692D+00
   117  1.1600000000000D+00 -2.0327320676263D-01  1.0666384356639D+00
   118  1.1700000000000D+00 -2.1077418609197D-01  1.0312484025394D+00
   119  1.1800000000000D+00 -2.1735403211288D-01  9.9516109812881D-01
   120  1.1900000000000D+00 -2.2303887138754D-01  9.5847912861937D-01
   121  1.2000000000000D+00 -2.2785636679771D-01  9.2130426391452D-01
   122  1.2100000000000D+00 -2.3183556361427D-01  8.8373712141283D-01
   123  1.2200000000000D+00 -2.3500673704905D-01  8.4587686319148D-01
   124  1.2300000000000D+00 -2.3740124177674D-01  8.0782090722501D-01
   125  1.2400000000000D+00 -2.3905136389172D-01  7.6966465322220D-01
   126  1.2500000000000D+00 -2.3999017574111D-01  7.3150122360160D-01
   127  1.2600000000000D+00 -2.4025139402710D-01  6.9342122001750D-01
   128  1.2700000000000D+00 -2.3986924154030D-01  6.5551249578280D-01
   129  1.2800000000000D+00 -2.3887831287156D-01  6.1785994450278D-01
   130  1.2900000000000D+00 -2.3731344440561D-01  5.8054530514057D-01
   131  1.3000000000000D+00 -2.3520958886483D-01  5.4364698366400D-01
   132  1.3100000000000D+00 -2.3260169466903D-01  5.0723989141780D-01
   133  1.3200000000000D+00 -2.2952459032833D-01  4.7139530026532D-01
   134  1.3300000000000D+00 -2.2601287405506D-01  4.3618071447934D-01
   135  1.3400000000000D+00 -2.2210080879082D-01  4.0165975938402D-01
   136  1.3500000000000D+00 -2.1782222277841D-01  3.6789208661177D-01
   137  1.3600000000000D+00 -2.1321041579900D-01  3.3493329582115D-01
   138  1.3700000000000D+00 -2.0829807120131D-01  3.0283487273385D-01
   139  1.3800000000000D+00 -2.0311717376788D-01  2.7164414318144D-01
   140  1.3900000000000D+00 -1.9769893349611D-01  2.4140424291955D-01
   141  1.4000000000000D+00 -1.9207371533124D-01  2.1215410288314D-01
   142  1.4100000000000D+00 -1.8627097483719D-01  1.8392844945464D-01
   143  1.4200000000000D+00 -1.8031919984355D-01  1.5675781942064D-01
   144  1.4300000000000D+00 -1.7424585800032D-01  1.3066858907980D-01
   145  1.4400000000000D+00 -1.6807735021818D-01  1.0568301706038D-01
   146  1.4500000000000D+00 -1.6183896993706D-01  8.1819300330275D-02
   147  1.4600000000000D+00 -1.5555486810771D-01  5.9091642784230D-02
   148  1.4700000000000D+00 -1.4924802384285D-01  3.7510335915231D-02
   149  1.4800000000000D+00 -1.4294022056528D-01  1.7081850853875D-02
   150  1.4900000000000D+00 -1.3665202757038D-01 -2.1910587843194D-03
   151  1.5000000000000D+00 -1.3040278683284D-01 -2.0309243954787D-02
   152  1.5100000000000D+00 -1.2421060490315D-01 -3.7277037813541D-02
   153  1.5200000000000D+00 -1.1809234974231D-01 -5.3102124607317D-02
   154  1.5300000000000D+00 -1.1206365227401D-01 -6.7795400575782D-02
   155  1.5400000000000D+00 -1.0613891251288D-01 -8.1370827549167D-02
   156  1.5500000000000D+00 -1.0033131000839D-01 -9.3845280022758D-02
   157  1.5600000000000D+00 -9.4652818445532D-02 -1.0523838641744D-01
   158  1.5700000000000D+00 -8.9114224137471D-02 -1.1557236529626D-01
   159  1.5800000000000D+00 -8.3725148215977D-02 -1.2487185727105D-01
   160  1.5900000000000D+00 -7.8494072263560D-02 -1.3316375335497D-01
   161  1.6000000000000D+00 -7.3428367163155D-02 -1.4047702048790D-01
   162  1.6100000000000D+00 -6.8534324914659D-02 -1.4684252499185D-01
   163  1.6200000000000D+00 -6.3817193178186D-02 -1.5229285463808D-01
   164  1.6300000000000D+00 -5.9281212292189D-02 -1.5686214010020D-01
   165  1.6400000000000D+00 -5.4929654524942D-02 -1.6058587639559D-01
   166  1.6500000000000D+00 -5.0764865300020D-02 -1.6350074511834D-01
   167  1.6600000000000D+00 -4.6788306166393D-02 -1.6564443795923D-01
   168  1.6700000000000D+00 -4.3000599241415D-02 -1.6705548234990D-01
   169  1.6800000000000D+00 -3.9401572920526D-02 -1.6777306960265D-01
   170  1.6900000000000D+00 -3.5990308567224D-02 -1.6783688641312D-01
   171  1.7000000000000D+00 -3.2765188008052D-02 -1.6728694996704D-01
   172  1.7100000000000D+00 -2.9723941532367D-02 -1.6616344753454D-01
   173  1.7200000000000D+00 -2.6863696255937D-02 -1.6450658067070D-01
   174  1.7300000000000D+00 -2.4181024539563D-02 -1.6235641489529D-01
   175  1.7400000000000D+00 -2.1671992354022D-02 -1.5975273487134D-01
   176  1.7500000000000D+00 -1.9332207284435D-02 -1.5673490590448D-01
   177  1.7600000000000D+00 -1.7156866089053D-02 -1.5334174172393D-01
   178  1.7700000000000D+00 -1.5140801524306D-02 -1.4961137926025D-01
   179  1.7800000000000D+00 -1.3278528358631D-02 -1.4558116038066D-01
   180  1.7900000000000D+00 -1.1564288329632D-02 -1.4128752111866D-01
   181  1.8000000000000D+00 -9.9920939505266D-03 -1.3676588843414D-01
   182  1.8100000000000D+00 -8.5557709939043D-03 -1.3205058477890D-01
   183  1.8200000000000D+00 -7.2489995111695D-03 -1.2717474066532D-01
   184  1.8300000000000D+00 -6.0653533248019D-03 -1.2217021516433D-01
   185  1.8400000000000D+00 -4.9983377694729D-03 -1.1706752477716D-01
   186  1.8500000000000D+00 -4.0414257636791D-03 -1.1189578018442D-01
   187  1.8600000000000D+00 -3.1880918763363D-03 -1.0668263162052D-01
   188  1.8700000000000D+00 -2.4318446293324D-03 -1.0145422194916D-01
   189  1.8800000000000D+00 -1.7662566137098D-03 -9.6235148392776D-02
   190  1.8900000000000D+00 -1.1849927244351D-03 -9.1048431856059D-02
   191  1.9000000000000D+00 -6.8183616846226D-04 -8.5915494542875D-02
   192  1.9100000000000D+00 -2.5071243680693D-04 -8.0856145152059D-02
   193  1.9200000000000D+00  1.1428889454916D-04 -7.5888571771169D-02
   194  1.9300000000000D+00  4.1889454060193D-04 -7.1029342270931D-02
   195  1.9400000000000D+00  6.6862993800580D-04 -6.6293411680955D-02
   196  1.9500000000000D+00  8.6880395293927D-04 -6.1694136854355D-02
   197  1.9600000000000D+00  1.0244955160277D-03 -5.7243297401918D-02
   198  1.9700000000000D+00  1.1405425196122D-03 -5.2951123413473D-02
   199  1.9800000000000D+00  1.2215326058329D-03 -4.8826328949575D-02
   200  1.9900000000000D+00  1.2717960197640D-03 -4.4876151430428D-02
   201  2.0000000000000D+00  1.2954003885413D-03 -4.1106396419608D-02
   202  2.0100000000000D+00  1.2961472991324D-03 -3.7521487322072D-02
   203  2.0200000000000D+00  1.2775707858361D-03 -3.4124519944475D-02
   204  2.0300000000000D+00  1.2429373929696D-03 -3.0917321121040D-02
   205  2.0400000000000D+00  1.1952479906679D-03 -2.7900511393149D-02
   206  2.0500000000000D+00  1.1372410555827D-03 -2.5073571087275D-02
   207  2.0600000000000D+00  1.0713974094163D-03 -2.2434909478584D-02
   208  2.0700000000000D+00  9.9994634592148D-04 -1.9981936647932D-02
   209  2.0800000000000D+00  9.2487292665246D-04 -1.7711137584532D-02
   210  2.0900000000000D+00  8.4792649378095D-04 -1.5618148092753D-02
   211  2.1000000000000D+00  7.7063016277099D-04 -1.3697832194499D-02
   212  2.1100000000000D+00  6.9429125104698D-04 -1.1944360499839D-02
   213  2.1200000000000D+00  6.2001252125719D-04 -1.0351289141411D-02
   214  2.1300000000000D+00  5.4870412231087D-04 -8.9116391212650D-03
   215  2.1400000000000D+00  4.8109610065651D-04 -7.6179751598922D-03
   216  2.1500000000000D+00  4.1775141370794D-04 -6.4624842755016D-03
   217  2.1600000000000D+00  3.5907929125018D-04 -5.4370532949164D-03
   218  2.1700000000000D+00  3.0534882550937D-04 -4.5333449013738D-03
   219  2.1800000000000D+00  2.5670279704936D-04 -3.7428724945301D-03
   220  2.1900000000000D+00  2.1317142146738D-04 -3.0570724501283D-03
   221  2.2000000000000D+00  1.7468612915357D-04 -2.4673744924791D-03
   222  2.2100000000000D+00  1.4109318889743D-04 -1.9652694416692D-03
   223  2.2200000000000D+00  1.1216697397427D-04 -1.5423736055984D-03
   224  2.2300000000000D+00  8.7623063699116D-05 -1.1904906896731D-03
   225  2.2400000000000D+00  6.7130762211626D-05 -9.0166966593935D-04
   226  2.2500000000000D+00  5.0325131249289D-05 -6.6825905272117D-04
   227  2.2600000000000D+00  3.6818616317018D-05 -4.8295794219815D-04
   228  2.2700000000000D+00  2.6211727008651D-05 -3.3886189415365D-04
   229  2.2800000000000D+00  1.8103238057485D-05 -2.2950540920381D-04
   230  2.2900000000000D+00  1.2099582960982D-05 -1.4889987362110D-04
   231  2.3000000000000D+00  7.8248275861629D-06 -9.1568074898170D-05
   232  2.3100000000000D+00  4.9229626801354D-06 -5.2567338262212D-05
   233  2.3200000000000D+00  3.0687113785600D-06 -2.7517677015895D-05
   234  2.3300000000000D+00  1.9656419782214D-06 -1.2646705964101D-05
   235  2.3400000000000D+00  1.3931396286976D-06 -4.7157235350688D-06
   236  2.3500000000000D+00  1.1661629564659D-06 -1.1136634878558D-06
   237  2.3600000000000D+00  1.1439501426786D-06  1.6412831670984D-07
   238  2.3700000000000D+00  1.1193733322523D-06  3.3669624333089D-07
   239  2.3800000000000D+00  9.4561369581350D-07  1.6099536527799D-07
   240  2.3900000000000D+00  5.7662523214542D-07  1.2439547365407D-09
   241  2.4000000000000D+00  1.7937951364549D-07 -2.6735204439517D-08
   242  2.4100000000000D+00 -6.9737896516736D-08  5.2767536686778D-11
   243  2.4200000000000D+00 -1.0834817874346D-07  6.7213669728174D-09
   244  2.4300000000000D+00 -4.0835250054298D-08  4.7375050791496D-09
   245  2.4400000000000D+00  1.6123778582132D-08  6.5445654713619D-09
   246  2.4500000000000D+00  2.3627843411019D-08  9.8124099814968D-09
   247  2.4600000000000D+00  8.0573906493450D-09  3.4089107897901D-09
   248  2.4700000000000D+00 -2.0430668327971D-09 -4.4707012547739D-10
   249  2.4800000000000D+00 -2.8326198414369D-09 -6.1984252674063D-10
   250  2.4900000000000D+00 -8.8604568380471D-10 -1.9388722320696D-10
   251  2.5000000000000D+00  0.0000000000000D+00  0.0000000000000D+00
   252  2.5100000000000D+00  0.0000000000000D+00  0.0000000000000D+00
   253  2.5200000000000D+00  0.0000000000000D+00  0.0000000000000D+00
   254  2.5300000000000D+00  0.0000000000000D+00  0.0000000000000D+00
   255  2.5400000000000D+00  0.0000000000000D+00  0.0000000000000D+00
   256  2.5500000000000D+00  0.0000000000000D+00  0.0000000000000D+00
   257  2.5600000000000D+00  0.0000000000000D+00  0.0000000000000D+00
   258  2.5700000000000D+00  0.0000000000000D+00  0.0000000000000D+00
   259  2.5800000000000D+00  0.0000000000000D+00  0.0000000000000D+00
   260  2.5900000000000D+00  0.0000000000000D+00  0.0000000000000D+00
   261  2.6000000000000D+00  0.0000000000000D+00  0.0000000000000D+00
   262  2.6100000000000D+00  0.0000000000000D+00  0.0000000000000D+00
   263  2.6200000000000D+00  0.0000000000000D+00  0.0000000000000D+00
   264  2.6300000000000D+00  0.0000000000000D+00  0.0000000000000D+00
   265  2.6400000000000D+00  0.0000000000000D+00  0.0000000000000D+00
   266  2.6500000000000D+00  0.0000000000000D+00  0.0000000000000D+00
   267  2.6600000000000D+00  0.0000000000000D+00  0.0000000000000D+00
   268  2.6700000000000D+00  0.0000000000000D+00  0.0000000000000D+00
   269  2.6800000000000D+00  0.0000000000000D+00  0.0000000000000D+00
   270  2.6900000000000D+00  0.0000000000000D+00  0.0000000000000D+00
   271  2.7000000000000D+00  0.0000000000000D+00  0.0000000000000D+00
   272  2.7100000000000D+00  0.0000000000000D+00  0.0000000000000D+00
   273  2.7200000000000D+00  0.0000000000000D+00  0.0000000000000D+00
   274  2.7300000000000D+00  0.0000000000000D+00  0.0000000000000D+00
   275  2.7400000000000D+00  0.0000000000000D+00  0.0000000000000D+00
   276  2.7500000000000D+00  0.0000000000000D+00  0.0000000000000D+00
   277  2.7600000000000D+00  0.0000000000000D+00  0.0000000000000D+00
   278  2.7700000000000D+00  0.0000000000000D+00  0.0000000000000D+00
   279  2.7800000000000D+00  0.0000000000000D+00  0.0000000000000D+00
   280  2.7900000000000D+00  0.0000000000000D+00  0.0000000000000D+00
   281  2.8000000000000D+00  0.0000000000000D+00  0.0000000000000D+00
   282  2.8100000000000D+00  0.0000000000000D+00  0.0000000000000D+00
   283  2.8200000000000D+00  0.0000000000000D+00  0.0000000000000D+00
   284  2.8300000000000D+00  0.0000000000000D+00  0.0000000000000D+00
   285  2.8400000000000D+00  0.0000000000000D+00  0.0000000000000D+00
   286  2.8500000000000D+00  0.0000000000000D+00  0.0000000000000D+00
   287  2.8600000000000D+00  0.0000000000000D+00  0.0000000000000D+00
   288  2.8700000000000D+00  0.0000000000000D+00  0.0000000000000D+00
   289  2.8800000000000D+00  0.0000000000000D+00  0.0000000000000D+00
   290  2.8900000000000D+00  0.0000000000000D+00  0.0000000000000D+00
   291  2.9000000000000D+00  0.0000000000000D+00  0.0000000000000D+00
   292  2.9100000000000D+00  0.0000000000000D+00  0.0000000000000D+00
   293  2.9200000000000D+00  0.0000000000000D+00  0.0000000000000D+00
   294  2.9300000000000D+00  0.0000000000000D+00  0.0000000000000D+00
   295  2.9400000000000D+00  0.0000000000000D+00  0.0000000000000D+00
   296  2.9500000000000D+00  0.0000000000000D+00  0.0000000000000D+00
   297  2.9600000000000D+00  0.0000000000000D+00  0.0000000000000D+00
   298  2.9700000000000D+00  0.0000000000000D+00  0.0000000000000D+00
   299  2.9800000000000D+00  0.0000000000000D+00  0.0000000000000D+00
   300  2.9900000000000D+00  0.0000000000000D+00  0.0000000000000D+00
   301  3.0000000000000D+00  0.0000000000000D+00  0.0000000000000D+00
   302  3.0100000000000D+00  0.0000000000000D+00  0.0000000000000D+00
   303  3.0200000000000D+00  0.0000000000000D+00  0.0000000000000D+00
   304  3.0300000000000D+00  0.0000000000000D+00  0.0000000000000D+00
   305  3.0400000000000D+00  0.0000000000000D+00  0.0000000000000D+00
   306  3.0500000000000D+00  0.0000000000000D+00  0.0000000000000D+00
   307  3.0600000000000D+00  0.0000000000000D+00  0.0000000000000D+00
   308  3.0700000000000D+00  0.0000000000000D+00  0.0000000000000D+00
   309  3.0800000000000D+00  0.0000000000000D+00  0.0000000000000D+00
   310  3.0900000000000D+00  0.0000000000000D+00  0.0000000000000D+00
   311  3.1000000000000D+00  0.0000000000000D+00  0.0000000000000D+00
   312  3.1100000000000D+00  0.0000000000000D+00  0.0000000000000D+00
   313  3.1200000000000D+00  0.0000000000000D+00  0.0000000000000D+00
   314  3.1300000000000D+00  0.0000000000000D+00  0.0000000000000D+00
   315  3.1400000000000D+00  0.0000000000000D+00  0.0000000000000D+00
   316  3.1500000000000D+00  0.0000000000000D+00  0.0000000000000D+00
   317  3.1600000000000D+00  0.0000000000000D+00  0.0000000000000D+00
   318  3.1700000000000D+00  0.0000000000000D+00  0.0000000000000D+00
   319  3.1800000000000D+00  0.0000000000000D+00  0.0000000000000D+00
   320  3.1900000000000D+00  0.0000000000000D+00  0.0000000000000D+00
   321  3.2000000000000D+00  0.0000000000000D+00  0.0000000000000D+00
   322  3.2100000000000D+00  0.0000000000000D+00  0.0000000000000D+00
   323  3.2200000000000D+00  0.0000000000000D+00  0.0000000000000D+00
   324  3.2300000000000D+00  0.0000000000000D+00  0.0000000000000D+00
   325  3.2400000000000D+00  0.0000000000000D+00  0.0000000000000D+00
   326  3.2500000000000D+00  0.0000000000000D+00  0.0000000000000D+00
   327  3.2600000000000D+00  0.0000000000000D+00  0.0000000000000D+00
   328  3.2700000000000D+00  0.0000000000000D+00  0.0000000000000D+00
   329  3.2800000000000D+00  0.0000000000000D+00  0.0000000000000D+00
   330  3.2900000000000D+00  0.0000000000000D+00  0.0000000000000D+00
   331  3.3000000000000D+00  0.0000000000000D+00  0.0000000000000D+00
   332  3.3100000000000D+00  0.0000000000000D+00  0.0000000000000D+00
   333  3.3200000000000D+00  0.0000000000000D+00  0.0000000000000D+00
   334  3.3300000000000D+00  0.0000000000000D+00  0.0000000000000D+00
   335  3.3400000000000D+00  0.0000000000000D+00  0.0000000000000D+00
   336  3.3500000000000D+00  0.0000000000000D+00  0.0000000000000D+00
   337  3.3600000000000D+00  0.0000000000000D+00  0.0000000000000D+00
   338  3.3700000000000D+00  0.0000000000000D+00  0.0000000000000D+00
   339  3.3800000000000D+00  0.0000000000000D+00  0.0000000000000D+00
   340  3.3900000000000D+00  0.0000000000000D+00  0.0000000000000D+00
   341  3.4000000000000D+00  0.0000000000000D+00  0.0000000000000D+00
   342  3.4100000000000D+00  0.0000000000000D+00  0.0000000000000D+00
   343  3.4200000000000D+00  0.0000000000000D+00  0.0000000000000D+00
   344  3.4300000000000D+00  0.0000000000000D+00  0.0000000000000D+00
   345  3.4400000000000D+00  0.0000000000000D+00  0.0000000000000D+00
   346  3.4500000000000D+00  0.0000000000000D+00  0.0000000000000D+00
   347  3.4600000000000D+00  0.0000000000000D+00  0.0000000000000D+00
   348  3.4700000000000D+00  0.0000000000000D+00  0.0000000000000D+00
   349  3.4800000000000D+00  0.0000000000000D+00  0.0000000000000D+00
   350  3.4900000000000D+00  0.0000000000000D+00  0.0000000000000D+00
   351  3.5000000000000D+00  0.0000000000000D+00  0.0000000000000D+00
   352  3.5100000000000D+00  0.0000000000000D+00  0.0000000000000D+00
   353  3.5200000000000D+00  0.0000000000000D+00  0.0000000000000D+00
   354  3.5300000000000D+00  0.0000000000000D+00  0.0000000000000D+00
   355  3.5400000000000D+00  0.0000000000000D+00  0.0000000000000D+00
   356  3.5500000000000D+00  0.0000000000000D+00  0.0000000000000D+00
   357  3.5600000000000D+00  0.0000000000000D+00  0.0000000000000D+00
   358  3.5700000000000D+00  0.0000000000000D+00  0.0000000000000D+00
   359  3.5800000000000D+00  0.0000000000000D+00  0.0000000000000D+00
   360  3.5900000000000D+00  0.0000000000000D+00  0.0000000000000D+00
   361  3.6000000000000D+00  0.0000000000000D+00  0.0000000000000D+00
   362  3.6100000000000D+00  0.0000000000000D+00  0.0000000000000D+00
   363  3.6200000000000D+00  0.0000000000000D+00  0.0000000000000D+00
   364  3.6300000000000D+00  0.0000000000000D+00  0.0000000000000D+00
   365  3.6400000000000D+00  0.0000000000000D+00  0.0000000000000D+00
   366  3.6500000000000D+00  0.0000000000000D+00  0.0000000000000D+00
   367  3.6600000000000D+00  0.0000000000000D+00  0.0000000000000D+00
   368  3.6700000000000D+00  0.0000000000000D+00  0.0000000000000D+00
   369  3.6800000000000D+00  0.0000000000000D+00  0.0000000000000D+00
   370  3.6900000000000D+00  0.0000000000000D+00  0.0000000000000D+00
   371  3.7000000000000D+00  0.0000000000000D+00  0.0000000000000D+00
   372  3.7100000000000D+00  0.0000000000000D+00  0.0000000000000D+00
   373  3.7200000000000D+00  0.0000000000000D+00  0.0000000000000D+00
   374  3.7300000000000D+00  0.0000000000000D+00  0.0000000000000D+00
   375  3.7400000000000D+00  0.0000000000000D+00  0.0000000000000D+00
   376  3.7500000000000D+00  0.0000000000000D+00  0.0000000000000D+00
   377  3.7600000000000D+00  0.0000000000000D+00  0.0000000000000D+00
   378  3.7700000000000D+00  0.0000000000000D+00  0.0000000000000D+00
   379  3.7800000000000D+00  0.0000000000000D+00  0.0000000000000D+00
   380  3.7900000000000D+00  0.0000000000000D+00  0.0000000000000D+00
   381  3.8000000000000D+00  0.0000000000000D+00  0.0000000000000D+00
   382  3.8100000000000D+00  0.0000000000000D+00  0.0000000000000D+00
   383  3.8200000000000D+00  0.0000000000000D+00  0.0000000000000D+00
   384  3.8300000000000D+00  0.0000000000000D+00  0.0000000000000D+00
   385  3.8400000000000D+00  0.0000000000000D+00  0.0000000000000D+00
   386  3.8500000000000D+00  0.0000000000000D+00  0.0000000000000D+00
   387  3.8600000000000D+00  0.0000000000000D+00  0.0000000000000D+00
   388  3.8700000000000D+00  0.0000000000000D+00  0.0000000000000D+00
   389  3.8800000000000D+00  0.0000000000000D+00  0.0000000000000D+00
   390  3.8900000000000D+00  0.0000000000000D+00  0.0000000000000D+00
   391  3.9000000000000D+00  0.0000000000000D+00  0.0000000000000D+00
   392  3.9100000000000D+00  0.0000000000000D+00  0.0000000000000D+00
   393  3.9200000000000D+00  0.0000000000000D+00  0.0000000000000D+00
   394  3.9300000000000D+00  0.0000000000000D+00  0.0000000000000D+00
   395  3.9400000000000D+00  0.0000000000000D+00  0.0000000000000D+00
   396  3.9500000000000D+00  0.0000000000000D+00  0.0000000000000D+00
   397  3.9600000000000D+00  0.0000000000000D+00  0.0000000000000D+00
   398  3.9700000000000D+00  0.0000000000000D+00  0.0000000000000D+00
   399  3.9800000000000D+00  0.0000000000000D+00  0.0000000000000D+00
   400  3.9900000000000D+00  0.0000000000000D+00  0.0000000000000D+00
   401  4.0000000000000D+00  0.0000000000000D+00  0.0000000000000D+00
   402  4.0100000000000D+00  0.0000000000000D+00  0.0000000000000D+00
   403  4.0200000000000D+00  0.0000000000000D+00  0.0000000000000D+00
   404  4.0300000000000D+00  0.0000000000000D+00  0.0000000000000D+00
   405  4.0400000000000D+00  0.0000000000000D+00  0.0000000000000D+00
   406  4.0500000000000D+00  0.0000000000000D+00  0.0000000000000D+00
   407  4.0600000000000D+00  0.0000000000000D+00  0.0000000000000D+00
   408  4.0700000000000D+00  0.0000000000000D+00  0.0000000000000D+00
   409  4.0800000000000D+00  0.0000000000000D+00  0.0000000000000D+00
   410  4.0900000000000D+00  0.0000000000000D+00  0.0000000000000D+00
   411  4.1000000000000D+00  0.0000000000000D+00  0.0000000000000D+00
   412  4.1100000000000D+00  0.0000000000000D+00  0.0000000000000D+00
   413  4.1200000000000D+00  0.0000000000000D+00  0.0000000000000D+00
   414  4.1300000000000D+00  0.0000000000000D+00  0.0000000000000D+00
   415  4.1400000000000D+00  0.0000000000000D+00  0.0000000000000D+00
   416  4.1500000000000D+00  0.0000000000000D+00  0.0000000000000D+00
   417  4.1600000000000D+00  0.0000000000000D+00  0.0000000000000D+00
   418  4.1700000000000D+00  0.0000000000000D+00  0.0000000000000D+00
   419  4.1800000000000D+00  0.0000000000000D+00  0.0000000000000D+00
   420  4.1900000000000D+00  0.0000000000000D+00  0.0000000000000D+00
   421  4.2000000000000D+00  0.0000000000000D+00  0.0000000000000D+00
   422  4.2100000000000D+00  0.0000000000000D+00  0.0000000000000D+00
   423  4.2200000000000D+00  0.0000000000000D+00  0.0000000000000D+00