Be    ONCVPSP-3.3.1  r_core=   2.37691   1.91763
      4.0000      4.0000      210904    zatom,zion,pspd
     8       2   1     4   600     0    pspcod,pspxc,lmax,lloc,mmax,r2well
  5.99000000  0.00000000  0.00000000    rchrg fchrg qchrg
     2     2     0     0    nproj
     3     1           extension_switch
     3     0     0    nprojso
   0                        -4.0210080406295D+00 -1.8525960192359D+00
     1  0.0000000000000D+00  1.6310286454768D-11 -2.8596347512178D-11
     2  1.0000000000000D-02  4.7650457330291D-02 -2.9322992941433D-02
     3  2.0000000000000D-02  9.5252315801814D-02 -5.8569151542058D-02
     4  3.0000000000000D-02  1.4275697649268D-01 -8.7661724066890D-02
     5  4.0000000000000D-02  1.9011584085452D-01 -1.1652412459061D-01
     6  5.0000000000000D-02  2.3728031214438D-01 -1.4508001739014D-01
     7  6.0000000000000D-02  2.8420179833933D-01 -1.7325340310211D-01
     8  7.0000000000000D-02  3.3083171700860D-01 -2.0096870719973D-01
     9  8.0000000000000D-02  3.7712150260206D-01 -2.2815087131495D-01
    10  9.0000000000000D-02  4.2302261659346D-01 -2.5472544789645D-01
    11  1.0000000000000D-01  4.6848656089299D-01 -2.8061869865235D-01
    12  1.1000000000000D-01  5.1346489491652D-01 -3.0575769717865D-01
    13  1.2000000000000D-01  5.5790925666756D-01 -3.3007043612099D-01
    14  1.3000000000000D-01  6.0177138815465D-01 -3.5348593915873D-01
    15  1.4000000000000D-01  6.4500316542953D-01 -3.7593437803674D-01
    16  1.5000000000000D-01  6.8755663349215D-01 -3.9734719480287D-01
    17  1.6000000000000D-01  7.2938404626678D-01 -4.1765722933790D-01
    18  1.7000000000000D-01  7.7043791180924D-01 -4.3679885219021D-01
    19  1.8000000000000D-01  8.1067104286001D-01 -4.5470810265111D-01
    20  1.9000000000000D-01  8.5003661281023D-01 -4.7132283192829D-01
    21  2.0000000000000D-01  8.8848821709992D-01 -4.8658285119509D-01
    22  2.1000000000000D-01  9.2597994001831D-01 -5.0043008421400D-01
    23  2.2000000000000D-01  9.6246642682682D-01 -5.1280872415261D-01
    24  2.3000000000000D-01  9.9790296107578D-01 -5.2366539413227D-01
    25  2.4000000000000D-01  1.0322455469366D+00 -5.3294931097223D-01
    26  2.5000000000000D-01  1.0654509963226D+00 -5.4061245151807D-01
    27  2.6000000000000D-01  1.0974770205239D+00 -5.4660972087135D-01
    28  2.7000000000000D-01  1.1282823260357D+00 -5.5089912176962D-01
    29  2.8000000000000D-01  1.1578267142141D+00 -5.5344192430273D-01
    30  2.9000000000000D-01  1.1860711843522D+00 -5.5420283509225D-01
    31  3.0000000000000D-01  1.2129780397265D+00 -5.5315016500804D-01
    32  3.1000000000000D-01  1.2385109961281D+00 -5.5025599444865D-01
    33  3.2000000000000D-01  1.2626352923577D+00 -5.4549633517138D-01
    34  3.3000000000000D-01  1.2853178021302D+00 -5.3885128762430D-01
    35  3.4000000000000D-01  1.3065271468076D+00 -5.3030519270553D-01
    36  3.5000000000000D-01  1.3262338083537D+00 -5.1984677685657D-01
    37  3.6000000000000D-01  1.3444102418828D+00 -5.0746928938493D-01
    38  3.7000000000000D-01  1.3610309871581D+00 -4.9317063090877D-01
    39  3.8000000000000D-01  1.3760727783794D+00 -4.7695347182130D-01
    40  3.9000000000000D-01  1.3895146515970D+00 -4.5882535968633D-01
    41  4.0000000000000D-01  1.4013380490759D+00 -4.3879881449859D-01
    42  4.1000000000000D-01  1.4115269199422D+00 -4.1689141077261D-01
    43  4.2000000000000D-01  1.4200678164407D+00 -3.9312584546299D-01
    44  4.3000000000000D-01  1.4269499851468D+00 -3.6752999076521D-01
    45  4.4000000000000D-01  1.4321654524847D+00 -3.4013693090141D-01
    46  4.5000000000000D-01  1.4357091039230D+00 -3.1098498205746D-01
    47  4.6000000000000D-01  1.4375787562390D+00 -2.8011769470754D-01
    48  4.7000000000000D-01  1.4377752222706D+00 -2.4758383763902D-01
    49  4.8000000000000D-01  1.4363023675997D+00 -2.1343736307313D-01
    50  4.9000000000000D-01  1.4331671586501D+00 -1.7773735236644D-01
    51  5.0000000000000D-01  1.4283797017135D+00 -1.4054794187185D-01
    52  5.1000000000000D-01  1.4219532724629D+00 -1.0193822863771D-01
    53  5.2000000000000D-01  1.4139043355515D+00 -6.1982155726490D-02
    54  5.3000000000000D-01  1.4042525539445D+00 -2.0758377041755D-02
    55  5.4000000000000D-01  1.3930207876778D+00  2.1649898338144D-02
    56  5.5000000000000D-01  1.3802350817915D+00  6.5155082209424D-02
    57  5.6000000000000D-01  1.3659246432350D+00  1.0966540345173D-01
    58  5.7000000000000D-01  1.3501218066000D+00  1.5508512405896D-01
    59  5.8000000000000D-01  1.3328619885905D+00  2.0131477454102D-01
    60  5.9000000000000D-01  1.3141836311974D+00  2.4825140813242D-01
    61  6.0000000000000D-01  1.2941281336034D+00  2.9578887313273D-01
    62  6.1000000000000D-01  1.2727397729010D+00  3.4381810259510D-01
    63  6.2000000000000D-01  1.2500656137653D+00  3.9222742047379D-01
    64  6.3000000000000D-01  1.2261554072814D+00  4.4090286324004D-01
    65  6.4000000000000D-01  1.2010614791819D+00  4.8972851587889D-01
    66  6.5000000000000D-01  1.1748386078055D+00  5.3858686108825D-01
    67  6.6000000000000D-01  1.1475438921455D+00  5.8735914041563D-01
    68  6.7000000000000D-01  1.1192366104041D+00  6.3592572598993D-01
    69  6.8000000000000D-01  1.0899780695239D+00  6.8416650143334D-01
    70  6.9000000000000D-01  1.0598314462129D+00  7.3196125047493D-01
    71  7.0000000000000D-01  1.0288616200258D+00  7.7919005173185D-01
    72  7.1000000000000D-01  9.9713499910697D-01  8.2573367807714D-01
    73  7.2000000000000D-01  9.6471933923863D-01  8.7147399897483D-01
    74  7.3000000000000D-01  9.3168355687477D-01  9.1629438413484D-01
    75  7.4000000000000D-01  8.9809753687187D-01  9.6008010682071D-01
    76  7.5000000000000D-01  8.6403193565666D-01  1.0027187451342D+00
    77  7.6000000000000D-01  8.2955798059472D-01  1.0441005796009D+00
    78  7.7000000000000D-01  7.9474726634371D-01  1.0841189853925D+00
    79  7.8000000000000D-01  7.5967154899053D-01  1.1226708175397D+00
    80  7.9000000000000D-01  7.2440253878303D-01  1.1596567875234D+00
    81  8.0000000000000D-01  6.8901169227367D-01  1.1949818296677D+00
    82  8.1000000000000D-01  6.5357000469460D-01  1.2285554558114D+00
    83  8.2000000000000D-01  6.1814780338187D-01  1.2602920967904D+00
    84  8.3000000000000D-01  5.8281454305943D-01  1.2901114293344D+00
    85  8.4000000000000D-01  5.4763860378305D-01  1.3179386870521D+00
    86  8.5000000000000D-01  5.1268709232848D-01  1.3437049542697D+00
    87  8.6000000000000D-01  4.7802564778907D-01  1.3673474415738D+00
    88  8.7000000000000D-01  4.4371825212434D-01  1.3888097420110D+00
    89  8.8000000000000D-01  4.0982704637322D-01  1.4080420670008D+00
    90  8.9000000000000D-01  3.7641215321496D-01  1.4250014611294D+00
    91  9.0000000000000D-01  3.4353150652536D-01  1.4396519951073D+00
    92  9.1000000000000D-01  3.1124068853815D-01  1.4519649362939D+00
    93  9.2000000000000D-01  2.7959277518014D-01  1.4619188963158D+00
    94  9.3000000000000D-01  2.4863819010467D-01  1.4694999554322D+00
    95  9.4000000000000D-01  2.1842456790132D-01  1.4747017634286D+00
    96  9.5000000000000D-01  1.8899662691107D-01  1.4775256169500D+00
    97  9.6000000000000D-01  1.6039605202529D-01  1.4779805133157D+00
    98  9.7000000000000D-01  1.3266138779473D-01  1.4760831809841D+00
    99  9.8000000000000D-01  1.0582794211982D-01  1.4718580869706D+00
   100  9.9000000000000D-01  7.9927700741425D-02  1.4653374216386D+00
   101  1.0000000000000D+00  5.4989252682109D-02  1.4565610619114D+00
   102  1.0100000000000D+00  3.1037726711275D-02  1.4455765124556D+00
   103  1.0200000000000D+00  8.0947394679573D-03  1.4324388162701D+00
   104  1.0300000000000D+00 -1.3821646910267D-02  1.4172104852928D+00
   105  1.0400000000000D+00 -3.4696952976975D-02  1.3999613064570D+00
   106  1.0500000000000D+00 -5.4520272414977D-02  1.3807671277764D+00
   107  1.0600000000000D+00 -7.3284192627844D-02  1.3597084466943D+00
   108  1.0700000000000D+00 -9.0984688462877D-02  1.3368696903690D+00
   109  1.0800000000000D+00 -1.0762100744985D-01  1.3123389316621D+00
   110  1.0900000000000D+00 -1.2319554874160D-01  1.2862074763238D+00
   111  1.1000000000000D+00 -1.3771373479009D-01  1.2585694738407D+00
   112  1.1100000000000D+00 -1.5118387718739D-01  1.2295215269269D+00
   113  1.1200000000000D+00 -1.6361703732048D-01  1.1991623014307D+00
   114  1.1300000000000D+00 -1.7502688259667D-01  1.1675921389607D+00
   115  1.1400000000000D+00 -1.8542953898907D-01  1.1349126738756D+00
   116  1.1500000000000D+00 -1.9484344064193D-01  1.1012264561754D+00
   117  1.1600000000000D+00 -2.0328917725157D-01  1.0666365816941D+00
   118  1.1700000000000D+00 -2.1078933991548D-01  1.0312463308805D+00
   119  1.1800000000000D+00 -2.1736836611709D-01  9.9515881735147D-01
   120  1.1900000000000D+00 -2.2305238448243D-01  9.5847664727548D-01
   121  1.2000000000000D+00 -2.2786905990874D-01  9.2130159053430D-01
   122  1.2100000000000D+00 -2.3184743962857D-01  8.8373426450161D-01
   123  1.2200000000000D+00 -2.3501780075670D-01  8.4587383122608D-01
   124  1.2300000000000D+00 -2.3741149980721D-01  8.0781770864993D-01
   125  1.2400000000000D+00 -2.3906082464600D-01  7.6966129644547D-01
   126  1.2500000000000D+00 -2.3999884931978D-01  7.3149771699046D-01
   127  1.2600000000000D+00 -2.4025929215469D-01  6.9341757189387D-01
   128  1.2700000000000D+00 -2.3987637748632D-01  6.5550871441864D-01
   129  1.2800000000000D+00 -2.3888470136859D-01  6.1785603811531D-01
   130  1.2900000000000D+00 -2.3731910156475D-01  5.8054128188742D-01
   131  1.3000000000000D+00 -2.3521453208898D-01  5.4364285163833D-01
   132  1.3100000000000D+00 -2.3260594256422D-01  5.0723565864334D-01
   133  1.3200000000000D+00 -2.2952816261369D-01  4.7139097469141D-01
   134  1.3300000000000D+00 -2.2601579147151D-01  4.3617630397595D-01
   135  1.3400000000000D+00 -2.2210309300912D-01  4.0165527173677D-01
   136  1.3500000000000D+00 -2.1782389630671D-01  3.6788752951690D-01
   137  1.3600000000000D+00 -2.1321150189037D-01  3.3492867688052D-01
   138  1.3700000000000D+00 -2.0829859376147D-01  3.0283019944991D-01
   139  1.3800000000000D+00 -2.0311715726355D-01  2.7163942295218D-01
   140  1.3900000000000D+00 -1.9769840286425D-01  2.4139948303338D-01
   141  1.4000000000000D+00 -1.9207269588951D-01  2.1214931051376D-01
   142  1.4100000000000D+00 -1.8626949219579D-01  1.8392363165587D-01
   143  1.4200000000000D+00 -1.8031727981897D-01  1.5675298312116D-01
   144  1.4300000000000D+00 -1.7424352653097D-01  1.3066374107786D-01
   145  1.4400000000000D+00 -1.6807463328231D-01  1.0567816401841D-01
   146  1.4500000000000D+00 -1.6183589347325D-01  8.1814448769480D-02
   147  1.4600000000000D+00 -1.5555145793789D-01  5.9086799079074D-02
   148  1.4700000000000D+00 -1.4924430559838D-01  3.7505506287877D-02
   149  1.4800000000000D+00 -1.4293621961600D-01  1.7077041368571D-02
   150  1.4900000000000D+00 -1.3664776895689D-01 -2.1958422268895D-03
   151  1.5000000000000D+00 -1.3039829520222D-01 -2.0313995623189D-02
   152  1.5100000000000D+00 -1.2420590444813D-01 -3.7281752151286D-02
   153  1.5200000000000D+00 -1.1808746414408D-01 -5.3106796238541D-02
   154  1.5300000000000D+00 -1.1205860464870D-01 -6.7800024310907D-02
   155  1.5400000000000D+00 -1.0613372536188D-01 -8.1375398390491D-02
   156  1.5500000000000D+00 -1.0032600517247D-01 -9.3849793169967D-02
   157  1.5600000000000D+00 -9.4647417062881D-02 -1.0524283727301D-01
   158  1.5700000000000D+00 -8.9108746605604D-02 -1.1557674947067D-01
   159  1.5800000000000D+00 -8.3719614157623D-02 -1.2487617058790D-01
   160  1.5900000000000D+00 -7.8488500496437D-02 -1.3316799185575D-01
   161  1.6000000000000D+00 -7.3422775673659D-02 -1.4048118043666D-01
   162  1.6100000000000D+00 -6.8528730835420D-02 -1.4684660287945D-01
   163  1.6200000000000D+00 -6.3811612769450D-02 -1.5229684718614D-01
   164  1.6300000000000D+00 -5.9275660926959D-02 -1.5686604426474D-01
   165  1.6400000000000D+00 -5.4924146677809D-02 -1.6058968937021D-01
   166  1.6500000000000D+00 -5.0759414539600D-02 -1.6350446433698D-01
   167  1.6600000000000D+00 -4.6782925151274D-02 -1.6564806109845D-01
   168  1.6700000000000D+00 -4.2995299719498D-02 -1.6705900733066D-01
   169  1.6800000000000D+00 -3.9396365731661D-02 -1.6777649459158D-01
   170  1.6900000000000D+00 -3.5985203648999D-02 -1.6784020982315D-01
   171  1.7000000000000D+00 -3.2760194404614D-02 -1.6729017045751D-01
   172  1.7100000000000D+00 -2.9719067406122D-02 -1.6616656401070D-01
   173  1.7200000000000D+00 -2.6858948901993D-02 -1.6450959228248D-01
   174  1.7300000000000D+00 -2.4176410402750D-02 -1.6235932103557D-01
   175  1.7400000000000D+00 -2.1667517048340D-02 -1.5975553517339D-01
   176  1.7500000000000D+00 -1.9327875614767D-02 -1.5673760023888D-01
   177  1.7600000000000D+00 -1.7152682074964D-02 -1.5334433019470D-01
   178  1.7700000000000D+00 -1.5136768425774D-02 -1.4961386220037D-01
   179  1.7800000000000D+00 -1.3274648703529D-02 -1.4558353834685D-01
   180  1.7900000000000D+00 -1.1560563942791D-02 -1.4128979488557D-01
   181  1.8000000000000D+00 -9.9885259842079D-03 -1.3676805898782D-01
   182  1.8100000000000D+00 -8.5523599595055D-03 -1.3205265330966D-01
   183  1.8200000000000D+00 -7.2457453119932D-03 -1.2717670855993D-01
   184  1.8300000000000D+00 -6.0622552897199D-03 -1.2217208399768D-01
   185  1.8400000000000D+00 -4.9953946873096D-03 -1.1706929630332D-01
   186  1.8500000000000D+00 -4.0386359181546D-03 -1.1189745632711D-01
   187  1.8600000000000D+00 -3.1854530814044D-03 -1.0668421446318D-01
   188  1.8700000000000D+00 -2.4293542647605D-03 -1.0145571372447D-01
   189  1.8800000000000D+00 -1.7639116607382D-03 -9.6236551471790D-02
   190  1.8900000000000D+00 -1.1827898013718D-03 -9.1049748736958D-02
   191  1.9000000000000D+00 -6.7977156606705D-04 -8.5916727839381D-02
   192  1.9100000000000D+00 -2.4878215332921D-04 -8.0857297581579D-02
   193  1.9200000000000D+00  1.1608911881219D-04 -7.5889646142707D-02
   194  1.9300000000000D+00  4.2056918935419D-04 -7.1030341472834D-02
   195  1.9400000000000D+00  6.7018368572466D-04 -6.6294338668539D-02
   196  1.9500000000000D+00  8.7024163248596D-04 -6.1694994637473D-02
   197  1.9600000000000D+00  1.0258220871971D-03 -5.7244089032531D-02
   198  1.9700000000000D+00  1.1417630387237D-03 -5.2951851973276D-02
   199  1.9800000000000D+00  1.2226521964493D-03 -4.8826997537745D-02
   200  1.9900000000000D+00  1.2728198446231D-03 -4.4876763151544D-02
   201  2.0000000000000D+00  1.2963336227728D-03 -4.1106954371810D-02
   202  2.0100000000000D+00  1.2969951048280D-03 -3.7521994585507D-02
   203  2.0200000000000D+00  1.2783382880323D-03 -3.4124979570092D-02
   204  2.0300000000000D+00  1.2436296570951D-03 -3.0917736119791D-02
   205  2.0400000000000D+00  1.1958700014973D-03 -2.7900884725635D-02
   206  2.0500000000000D+00  1.1377976977338D-03 -2.5073905653902D-02
   207  2.0600000000000D+00  1.0718934494197D-03 -2.2435208110268D-02
   208  2.0700000000000D+00  1.0003864158808D-03 -1.9982202097397D-02
   209  2.0800000000000D+00  9.2526150951476D-04 -1.7711372518246D-02
   210  2.0900000000000D+00  8.4826791021594D-04 -1.5618355083531D-02
   211  2.1000000000000D+00  7.7092855966408D-04 -1.3698013714825D-02
   212  2.1100000000000D+00  6.9455059159678D-04 -1.1944518915910D-02
   213  2.1200000000000D+00  6.2023657666178D-04 -1.0351426707947D-02
   214  2.1300000000000D+00  5.4889646502977D-04 -8.9117579771099D-03
   215  2.1400000000000D+00  4.8126009921095D-04 -7.6180773244004D-03
   216  2.1500000000000D+00  4.1789022899573D-04 -6.4625716457482D-03
   217  2.1600000000000D+00  3.5919587433459D-04 -5.4371276437210D-03
   218  2.1700000000000D+00  3.0544591683566D-04 -4.5334078761466D-03
   219  2.1800000000000D+00  2.5678292705113D-04 -3.7429256169382D-03
   220  2.1900000000000D+00  2.1323691249642D-04 -3.0571171165739D-03
   221  2.2000000000000D+00  1.7473909868495D-04 -2.4674119753798D-03
   222  2.2100000000000D+00  1.4113555394819D-04 -1.9653008915246D-03
   223  2.2200000000000D+00  1.1220045666339D-04 -1.5424000538187D-03
   224  2.2300000000000D+00  8.7649197891903D-05 -1.1905130521490D-03
   225  2.2400000000000D+00  6.7150901166881D-05 -9.0168874732070D-04
   226  2.2500000000000D+00  5.0340456196080D-05 -6.6827555137005D-04
   227  2.2600000000000D+00  3.6830145893715D-05 -4.8297245578733D-04
   228  2.2700000000000D+00  2.6220327469293D-05 -3.3887492585438D-04
   229  2.2800000000000D+00  1.8109634176498D-05 -2.2951737442916D-04
   230  2.2900000000000D+00  1.2104369551745D-05 -1.4891110727526D-04
   231  2.3000000000000D+00  7.8284840941867D-06 -9.1578853580964D-05
   232  2.3100000000000D+00  4.9258593357785D-06 -5.2577852367815D-05
   233  2.3200000000000D+00  3.0711223443203D-06 -2.7528040901883D-05
   234  2.3300000000000D+00  1.9677412999795D-06 -1.2656864853472D-05
   235  2.3400000000000D+00  1.3950852320736D-06 -4.7258767215711D-06
   236  2.3500000000000D+00  1.1680901394615D-06 -1.1241561639535D-06
   237  2.3600000000000D+00  1.1459799186130D-06  1.5282493799797D-07
   238  2.3700000000000D+00  1.1213879410637D-06  3.2536382311607D-07
   239  2.3800000000000D+00  9.4731005301671D-07  1.5141102277791D-07
   240  2.3900000000000D+00  5.7765116833534D-07 -4.5602608358555D-09
   241  2.4000000000000D+00  1.7969620637881D-07 -2.8527830744641D-08
   242  2.4100000000000D+00 -6.9861861110801D-08  7.5440500847863D-10
   243  2.4200000000000D+00 -1.0854010447676D-07  7.8076784112829D-09
   244  2.4300000000000D+00 -4.0907359378409D-08  5.1456220256200D-09
   245  2.4400000000000D+00  1.6153132028014D-08  6.3780643225367D-09
   246  2.4500000000000D+00  2.3670884908421D-08  9.5682098255786D-09
   247  2.4600000000000D+00  8.0720759305037D-09  3.3255764553092D-09
   248  2.4700000000000D+00 -2.0467400167576D-09 -4.2633198623257D-10
   249  2.4800000000000D+00 -2.8377125450140D-09 -5.9109003379407D-10
   250  2.4900000000000D+00 -8.8763868543429D-10 -1.8489342110854D-10
   251  2.5000000000000D+00  0.0000000000000D+00  0.0000000000000D+00
   252  2.5100000000000D+00  0.0000000000000D+00  0.0000000000000D+00
   253  2.5200000000000D+00  0.0000000000000D+00  0.0000000000000D+00
   254  2.5300000000000D+00  0.0000000000000D+00  0.0000000000000D+00
   255  2.5400000000000D+00  0.0000000000000D+00  0.0000000000000D+00
   256  2.5500000000000D+00  0.0000000000000D+00  0.0000000000000D+00
   257  2.5600000000000D+00  0.0000000000000D+00  0.0000000000000D+00
   258  2.5700000000000D+00  0.0000000000000D+00  0.0000000000000D+00
   259  2.5800000000000D+00  0.0000000000000D+00  0.0000000000000D+00
   260  2.5900000000000D+00  0.0000000000000D+00  0.0000000000000D+00
   261  2.6000000000000D+00  0.0000000000000D+00  0.0000000000000D+00
   262  2.6100000000000D+00  0.0000000000000D+00  0.0000000000000D+00
   263  2.6200000000000D+00  0.0000000000000D+00  0.0000000000000D+00
   264  2.6300000000000D+00  0.0000000000000D+00  0.0000000000000D+00
   265  2.6400000000000D+00  0.0000000000000D+00  0.0000000000000D+00
   266  2.6500000000000D+00  0.0000000000000D+00  0.0000000000000D+00
   267  2.6600000000000D+00  0.0000000000000D+00  0.0000000000000D+00
   268  2.6700000000000D+00  0.0000000000000D+00  0.0000000000000D+00
   269  2.6800000000000D+00  0.0000000000000D+00  0.0000000000000D+00
   270  2.6900000000000D+00  0.0000000000000D+00  0.0000000000000D+00
   271  2.7000000000000D+00  0.0000000000000D+00  0.0000000000000D+00
   272  2.7100000000000D+00  0.0000000000000D+00  0.0000000000000D+00
   273  2.7200000000000D+00  0.0000000000000D+00  0.0000000000000D+00
   274  2.7300000000000D+00  0.0000000000000D+00  0.0000000000000D+00
   275  2.7400000000000D+00  0.0000000000000D+00  0.0000000000000D+00
   276  2.7500000000000D+00  0.0000000000000D+00  0.0000000000000D+00
   277  2.7600000000000D+00  0.0000000000000D+00  0.0000000000000D+00
   278  2.7700000000000D+00  0.0000000000000D+00  0.0000000000000D+00
   279  2.7800000000000D+00  0.0000000000000D+00  0.0000000000000D+00
   280  2.7900000000000D+00  0.0000000000000D+00  0.0000000000000D+00
   281  2.8000000000000D+00  0.0000000000000D+00  0.0000000000000D+00
   282  2.8100000000000D+00  0.0000000000000D+00  0.0000000000000D+00
   283  2.8200000000000D+00  0.0000000000000D+00  0.0000000000000D+00
   284  2.8300000000000D+00  0.0000000000000D+00  0.0000000000000D+00
   285  2.8400000000000D+00  0.0000000000000D+00  0.0000000000000D+00
   286  2.8500000000000D+00  0.0000000000000D+00  0.0000000000000D+00
   287  2.8600000000000D+00  0.0000000000000D+00  0.0000000000000D+00
   288  2.8700000000000D+00  0.0000000000000D+00  0.0000000000000D+00
   289  2.8800000000000D+00  0.0000000000000D+00  0.0000000000000D+00
   290  2.8900000000000D+00  0.0000000000000D+00  0.0000000000000D+00
   291  2.9000000000000D+00  0.0000000000000D+00  0.0000000000000D+00
   292  2.9100000000000D+00  0.0000000000000D+00  0.0000000000000D+00
   293  2.9200000000000D+00  0.0000000000000D+00  0.0000000000000D+00
   294  2.9300000000000D+00  0.0000000000000D+00  0.0000000000000D+00
   295  2.9400000000000D+00  0.0000000000000D+00  0.0000000000000D+00
   296  2.9500000000000D+00  0.0000000000000D+00  0.0000000000000D+00
   297  2.9600000000000D+00  0.0000000000000D+00  0.0000000000000D+00
   298  2.9700000000000D+00  0.0000000000000D+00  0.0000000000000D+00
   299  2.9800000000000D+00  0.0000000000000D+00  0.0000000000000D+00
   300  2.9900000000000D+00  0.0000000000000D+00  0.0000000000000D+00
   301  3.0000000000000D+00  0.0000000000000D+00  0.0000000000000D+00
   302  3.0100000000000D+00  0.0000000000000D+00  0.0000000000000D+00
   303  3.0200000000000D+00  0.0000000000000D+00  0.0000000000000D+00
   304  3.0300000000000D+00  0.0000000000000D+00  0.0000000000000D+00
   305  3.0400000000000D+00  0.0000000000000D+00  0.0000000000000D+00
   306  3.0500000000000D+00  0.0000000000000D+00  0.0000000000000D+00
   307  3.0600000000000D+00  0.0000000000000D+00  0.0000000000000D+00
   308  3.0700000000000D+00  0.0000000000000D+00  0.0000000000000D+00
   309  3.0800000000000D+00  0.0000000000000D+00  0.0000000000000D+00
   310  3.0900000000000D+00  0.0000000000000D+00  0.0000000000000D+00
   311  3.1000000000000D+00  0.0000000000000D+00  0.0000000000000D+00
   312  3.1100000000000D+00  0.0000000000000D+00  0.0000000000000D+00
   313  3.1200000000000D+00  0.0000000000000D+00  0.0000000000000D+00
   314  3.1300000000000D+00  0.0000000000000D+00  0.0000000000000D+00
   315  3.1400000000000D+00  0.0000000000000D+00  0.0000000000000D+00
   316  3.1500000000000D+00  0.0000000000000D+00  0.0000000000000D+00
   317  3.1600000000000D+00  0.0000000000000D+00  0.0000000000000D+00
   318  3.1700000000000D+00  0.0000000000000D+00  0.0000000000000D+00
   319  3.1800000000000D+00  0.0000000000000D+00  0.0000000000000D+00
   320  3.1900000000000D+00  0.0000000000000D+00  0.0000000000000D+00
   321  3.2000000000000D+00  0.0000000000000D+00  0.0000000000000D+00
   322  3.2100000000000D+00  0.0000000000000D+00  0.0000000000000D+00
   323  3.2200000000000D+00  0.0000000000000D+00  0.0000000000000D+00
   324  3.2300000000000D+00  0.0000000000000D+00  0.0000000000000D+00
   325  3.2400000000000D+00  0.0000000000000D+00  0.0000000000000D+00
   326  3.2500000000000D+00  0.0000000000000D+00  0.0000000000000D+00
   327  3.2600000000000D+00  0.0000000000000D+00  0.0000000000000D+00
   328  3.2700000000000D+00  0.0000000000000D+00  0.0000000000000D+00
   329  3.2800000000000D+00  0.0000000000000D+00  0.0000000000000D+00
   330  3.2900000000000D+00  0.0000000000000D+00  0.0000000000000D+00
   331  3.3000000000000D+00  0.0000000000000D+00  0.0000000000000D+00
   332  3.3100000000000D+00  0.0000000000000D+00  0.0000000000000D+00
   333  3.3200000000000D+00  0.0000000000000D+00  0.0000000000000D+00
   334  3.3300000000000D+00  0.0000000000000D+00  0.0000000000000D+00
   335  3.3400000000000D+00  0.0000000000000D+00  0.0000000000000D+00
   336  3.3500000000000D+00  0.0000000000000D+00  0.0000000000000D+00
   337  3.3600000000000D+00  0.0000000000000D+00  0.0000000000000D+00
   338  3.3700000000000D+00  0.0000000000000D+00  0.0000000000000D+00
   339  3.3800000000000D+00  0.0000000000000D+00  0.0000000000000D+00
   340  3.3900000000000D+00  0.0000000000000D+00  0.0000000000000D+00
   341  3.4000000000000D+00  0.0000000000000D+00  0.0000000000000D+00
   342  3.4100000000000D+00  0.0000000000000D+00  0.0000000000000D+00
   343  3.4200000000000D+00  0.0000000000000D+00  0.0000000000000D+00
   344  3.4300000000000D+00  0.0000000000000D+00  0.0000000000000D+00
   345  3.4400000000000D+00  0.0000000000000D+00  0.0000000000000D+00
   346  3.4500000000000D+00  0.0000000000000D+00  0.0000000000000D+00
   347  3.4600000000000D+00  0.0000000000000D+00  0.0000000000000D+00
   348  3.4700000000000D+00  0.0000000000000D+00  0.0000000000000D+00
   349  3.4800000000000D+00  0.0000000000000D+00  0.0000000000000D+00
   350  3.4900000000000D+00  0.0000000000000D+00  0.0000000000000D+00
   351  3.5000000000000D+00  0.0000000000000D+00  0.0000000000000D+00
   352  3.5100000000000D+00  0.0000000000000D+00  0.0000000000000D+00
   353  3.5200000000000D+00  0.0000000000000D+00  0.0000000000000D+00
   354  3.5300000000000D+00  0.0000000000000D+00  0.0000000000000D+00
   355  3.5400000000000D+00  0.0000000000000D+00  0.0000000000000D+00
   356  3.5500000000000D+00  0.0000000000000D+00  0.0000000000000D+00
   357  3.5600000000000D+00  0.0000000000000D+00  0.0000000000000D+00
   358  3.5700000000000D+00  0.0000000000000D+00  0.0000000000000D+00
   359  3.5800000000000D+00  0.0000000000000D+00  0.0000000000000D+00
   360  3.5900000000000D+00  0.0000000000000D+00  0.0000000000000D+00
   361  3.6000000000000D+00  0.0000000000000D+00  0.0000000000000D+00
   362  3.6100000000000D+00  0.0000000000000D+00  0.0000000000000D+00
   363  3.6200000000000D+00  0.0000000000000D+00  0.0000000000000D+00
   364  3.6300000000000D+00  0.0000000000000D+00  0.0000000000000D+00
   365  3.6400000000000D+00  0.0000000000000D+00  0.0000000000000D+00
   366  3.6500000000000D+00  0.0000000000000D+00  0.0000000000000D+00
   367  3.6600000000000D+00  0.0000000000000D+00  0.0000000000000D+00
   368  3.6700000000000D+00  0.0000000000000D+00  0.0000000000000D+00
   369  3.6800000000000D+00  0.0000000000000D+00  0.0000000000000D+00
   370  3.6900000000000D+00  0.0000000000000D+00  0.0000000000000D+00
   371  3.7000000000000D+00  0.0000000000000D+00  0.0000000000000D+00
   372  3.7100000000000D+00  0.0000000000000D+00  0.0000000000000D+00
   373  3.7200000000000D+00  0.0000000000000D+00  0.0000000000000D+00
   374  3.7300000000000D+00  0.0000000000000D+00  0.0000000000000D+00
   375  3.7400000000000D+00  0.0000000000000D+00  0.0000000000000D+00
   376  3.7500000000000D+00  0.0000000000000D+00  0.0000000000000D+00
   377  3.7600000000000D+00  0.0000000000000D+00  0.0000000000000D+00
   378  3.7700000000000D+00  0.0000000000000D+00  0.0000000000000D+00
   379  3.7800000000000D+00  0.0000000000000D+00  0.0000000000000D+00
   380  3.7900000000000D+00  0.0000000000000D+00  0.0000000000000D+00
   381  3.8000000000000D+00  0.0000000000000D+00  0.0000000000000D+00
   382  3.8100000000000D+00  0.0000000000000D+00  0.0000000000000D+00
   383  3.8200000000000D+00  0.0000000000000D+00  0.0000000000000D+00
   384  3.8300000000000D+00  0.0000000000000D+00  0.0000000000000D+00
   385  3.8400000000000D+00  0.0000000000000D+00  0.0000000000000D+00
   386  3.8500000000000D+00  0.0000000000000D+00  0.0000000000000D+00
   387  3.8600000000000D+00  0.0000000000000D+00  0.0000000000000D+00
   388  3.8700000000000D+00  0.0000000000000D+00  0.0000000000000D+00
   389  3.8800000000000D+00  0.0000000000000D+00  0.0000000000000D+00
   390  3.8900000000000D+00  0.0000000000000D+00  0.0000000000000D+00
   391  3.9000000000000D+00  0.0000000000000D+00  0.0000000000000D+00
   392  3.9100000000000D+00  0.0000000000000D+00  0.0000000000000D+00
   393  3.9200000000000D+00  0.0000000000000D+00  0.0000000000000D+00
   394  3.9300000000000D+00  0.0000000000000D+00  0.0000000000000D+00
   395  3.9400000000000D+00  0.0000000000000D+00  0.0000000000000D+00
   396  3.9500000000000D+00  0.0000000000000D+00  0.0000000000000D+00
   397  3.9600000000000D+00  0.0000000000000D+00  0.0000000000000D+00
   398  3.9700000000000D+00  0.0000000000000D+00  0.0000000000000D+00
   399  3.9800000000000D+00  0.0000000000000D+00  0.0000000000000D+00
   400  3.9900000000000D+00  0.0000000000000D+00  0.0000000000000D+00
   401  4.0000000000000D+00  0.0000000000000D+00  0.0000000000000D+00
   402  4.0100000000000D+00  0.0000000000000D+00  0.0000000000000D+00
   403  4.0200000000000D+00  0.0000000000000D+00  0.0000000000000D+00
   404  4.0300000000000D+00  0.0000000000000D+00  0.0000000000000D+00
   405  4.0400000000000D+00  0.0000000000000D+00  0.0000000000000D+00
   406  4.0500000000000D+00  0.0000000000000D+00  0.0000000000000D+00
   407  4.0600000000000D+00  0.0000000000000D+00  0.0000000000000D+00
   408  4.0700000000000D+00  0.0000000000000D+00  0.0000000000000D+00
   409  4.0800000000000D+00  0.0000000000000D+00  0.0000000000000D+00
   410  4.0900000000000D+00  0.0000000000000D+00  0.0000000000000D+00
   411  4.1000000000000D+00  0.0000000000000D+00  0.0000000000000D+00
   412  4.1100000000000D+00  0.0000000000000D+00  0.0000000000000D+00
   413  4.1200000000000D+00  0.0000000000000D+00  0.0000000000000D+00
   414  4.1300000000000D+00  0.0000000000000D+00  0.0000000000000D+00
   415  4.1400000000000D+00  0.0000000000000D+00  0.0000000000000D+00
   416  4.1500000000000D+00  0.0000000000000D+00  0.0000000000000D+00
   417  4.1600000000000D+00  0.0000000000000D+00  0.0000000000000D+00
   418  4.1700000000000D+00  0.0000000000000D+00  0.0000000000000D+00
   419  4.1800000000000D+00  0.0000000000000D+00  0.0000000000000D+00
   420  4.1900000000000D+00  0.0000000000000D+00  0.0000000000000D+00
   421  4.2000000000000D+00  0.0000000000000D+00  0.0000000000000D+00
   422  4.2100000000000D+00  0.0000000000000D+00  0.0000000000000D+00