Br    ONCVPSP-3.3.1  r_core=   2.49793   2.49793   2.49793
     35.0000      7.0000      210904    zatom,zion,pspd
     8       2   2     4   600     0    pspcod,pspxc,lmax,lloc,mmax,r2well
  5.99000000  0.00000000  0.00000000    rchrg fchrg qchrg
     2     4     3     0    nproj
     3     1           extension_switch
     4     4     0    nprojso
   0                        -1.3106574252418D+00  2.2505078755448D+00
     1  0.0000000000000D+00 -2.7535723701178D-11 -9.1218144149252D-12
     2  1.0000000000000D-02 -2.5924944291166D-02  3.0633371083148D-02
     3  2.0000000000000D-02 -5.1849576457977D-02  6.1233340904242D-02
     4  3.0000000000000D-02 -7.7773372356497D-02  9.1766612162943D-02
     5  4.0000000000000D-02 -1.0369538516604D-01  1.2220009500221D-01
     6  5.0000000000000D-02 -1.2961403744983D-01  1.5250100953193D-01
     7  6.0000000000000D-02 -1.5552691727507D-01  1.8263698692136D-01
     8  7.0000000000000D-02 -1.8143057971300D-01  2.1257616859404D-01
     9  8.0000000000000D-02 -2.0732035501241D-01  2.4228730306803D-01
    10  9.0000000000000D-02 -2.3319016470519D-01  2.7173983999542D-01
    11  1.0000000000000D-01 -2.5903234686260D-01  3.0090402096889D-01
    12  1.1000000000000D-01 -2.8483749167322D-01  3.2975096667828D-01
    13  1.2000000000000D-01 -3.1059428846109D-01  3.5825276001792D-01
    14  1.3000000000000D-01 -3.3628938520322D-01  3.8638252476503D-01
    15  1.4000000000000D-01 -3.6190726154165D-01  4.1411449947049D-01
    16  1.5000000000000D-01 -3.8743011621528D-01  4.4142410622667D-01
    17  1.6000000000000D-01 -4.1283776976239D-01  4.6828801400173D-01
    18  1.7000000000000D-01 -4.3810758326551D-01  4.9468419625555D-01
    19  1.8000000000000D-01 -4.6321439382720D-01  5.2059198258066D-01
    20  1.9000000000000D-01 -4.8813046737826D-01  5.4599210413999D-01
    21  2.0000000000000D-01 -5.1282546932940D-01  5.7086673270316D-01
    22  2.1000000000000D-01 -5.3726645348420D-01  5.9519951311443D-01
    23  2.2000000000000D-01 -5.6141786953541D-01  6.1897558905667D-01
    24  2.3000000000000D-01 -5.8524158936885D-01  6.4218162200858D-01
    25  2.4000000000000D-01 -6.0869695229968D-01  6.6480580332511D-01
    26  2.5000000000000D-01 -6.3174082926562D-01  6.8683785940453D-01
    27  2.6000000000000D-01 -6.5432770590055D-01  7.0826904993920D-01
    28  2.7000000000000D-01 -6.7640978431074D-01  7.2909215928058D-01
    29  2.8000000000000D-01 -6.9793710327556D-01  7.4930148098261D-01
    30  2.9000000000000D-01 -7.1885767649425D-01  7.6889279562080D-01
    31  3.0000000000000D-01 -7.3911764840226D-01  7.8786334201738D-01
    32  3.1000000000000D-01 -7.5866146698386D-01  8.0621178203468D-01
    33  3.2000000000000D-01 -7.7743207291331D-01  8.2393815913082D-01
    34  3.3000000000000D-01 -7.9537110426587D-01  8.4104385090216D-01
    35  3.4000000000000D-01 -8.1241911595088D-01  8.5753151586653D-01
    36  3.5000000000000D-01 -8.2851581293545D-01  8.7340503476972D-01
    37  3.6000000000000D-01 -8.4360029624606D-01  8.8866944672459D-01
    38  3.7000000000000D-01 -8.5761132065988D-01  9.0333088051800D-01
    39  3.8000000000000D-01 -8.7048756292639D-01  9.1739648144446D-01
    40  3.9000000000000D-01 -8.8216789929406D-01  9.3087433404789D-01
    41  4.0000000000000D-01 -8.9259169105659D-01  9.4377338117344D-01
    42  4.1000000000000D-01 -9.0169907677917D-01  9.5610333974964D-01
    43  4.2000000000000D-01 -9.0943126981671D-01  9.6787461373796D-01
    44  4.3000000000000D-01 -9.1573085969473D-01  9.7909820470120D-01
    45  4.4000000000000D-01 -9.2054211588854D-01  9.8978562045447D-01
    46  4.5000000000000D-01 -9.2381129250826D-01  9.9994878227263D-01
    47  4.6000000000000D-01 -9.2548693237620D-01  1.0095999311357D+00
    48  4.7000000000000D-01 -9.2552016896974D-01  1.0187515334996D+00
    49  4.8000000000000D-01 -9.2386502469571D-01  1.0274161870817D+00
    50  4.9000000000000D-01 -9.2047870396402D-01  1.0356065271527D+00
    51  5.0000000000000D-01 -9.1532187953560D-01  1.0433351338240D+00
    52  5.1000000000000D-01 -9.0835897063680D-01  1.0506144408149D+00
    53  5.2000000000000D-01 -8.9955841135380D-01  1.0574566461786D+00
    54  5.3000000000000D-01 -8.8889290785275D-01  1.0638736254568D+00
    55  5.4000000000000D-01 -8.7633968300763D-01  1.0698768477216D+00
    56  5.5000000000000D-01 -8.6188070706320D-01  1.0754772949490D+00
    57  5.6000000000000D-01 -8.4550291301183D-01  1.0806853851538D+00
    58  5.7000000000000D-01 -8.2719839542126D-01  1.0855108996983D+00
    59  5.8000000000000D-01 -8.0696459151476D-01  1.0899629151645D+00
    60  5.9000000000000D-01 -7.8480444337694D-01  1.0940497401619D+00
    61  6.0000000000000D-01 -7.6072654023379D-01  1.0977788574140D+00
    62  6.1000000000000D-01 -7.3474523983953D-01  1.1011568714470D+00
    63  6.2000000000000D-01 -7.0688076808886D-01  1.1041894621714D+00
    64  6.3000000000000D-01 -6.7715929606669D-01  1.1068813446214D+00
    65  6.4000000000000D-01 -6.4561299384343D-01  1.1092362350870D+00
    66  6.5000000000000D-01 -6.1228006042500D-01  1.1112568238403D+00
    67  6.6000000000000D-01 -5.7720472937108D-01  1.1129447546270D+00
    68  6.7000000000000D-01 -5.4043724970195D-01  1.1143006110586D+00
    69  6.8000000000000D-01 -5.0203384182480D-01  1.1153239100088D+00
    70  6.9000000000000D-01 -4.6205662832184D-01  1.1160131020790D+00
    71  7.0000000000000D-01 -4.2057353955639D-01  1.1163655791673D+00
    72  7.1000000000000D-01 -3.7765819416770D-01  1.1163776891343D+00
    73  7.2000000000000D-01 -3.3338975463994D-01  1.1160447575264D+00
    74  7.3000000000000D-01 -2.8785275824654D-01  1.1153611162812D+00
    75  7.4000000000000D-01 -2.4113692378497D-01  1.1143201393024D+00
    76  7.5000000000000D-01 -1.9333693463075D-01  1.1129142847563D+00
    77  7.6000000000000D-01 -1.4455219875136D-01  1.1111351439103D+00
    78  7.7000000000000D-01 -9.4886586429792D-02  1.1089734962947D+00
    79  7.8000000000000D-01 -4.4448146555132D-02  1.1064193709401D+00
    80  7.9000000000000D-01  6.6511975591317D-03  1.1034621134097D+00
    81  8.0000000000000D-01  5.8295971768456D-02  1.1000904583126D+00
    82  8.1000000000000D-01  1.1036749294528D-01  1.0962926069576D+00
    83  8.2000000000000D-01  1.6274422783439D-01  1.0920563097777D+00
    84  8.3000000000000D-01  2.1530216758127D-01  1.0873689531295D+00
    85  8.4000000000000D-01  2.6791521651924D-01  1.0822176500457D+00
    86  8.5000000000000D-01  3.2045559372635D-01  1.0765893344999D+00
    87  8.6000000000000D-01  3.7279424579454D-01  1.0704708587171D+00
    88  8.7000000000000D-01  4.2480126919220D-01  1.0638490930505D+00
    89  8.8000000000000D-01  4.7634634054644D-01  1.0567110279252D+00
    90  8.9000000000000D-01  5.2729915312428D-01  1.0490438773360D+00
    91  9.0000000000000D-01  5.7752985775162D-01  1.0408351833780D+00
    92  9.1000000000000D-01  6.2690950637740D-01  1.0320729212754D+00
    93  9.2000000000000D-01  6.7531049646588D-01  1.0227456043723D+00
    94  9.3000000000000D-01  7.2260701438394D-01  1.0128423885408D+00
    95  9.4000000000000D-01  7.6867547594259D-01  1.0023531754655D+00
    96  9.5000000000000D-01  8.1339496225248D-01  9.9126871426033D-01
    97  9.6000000000000D-01  8.5664764906163D-01  9.7958070088161D-01
    98  9.7000000000000D-01  8.9831922776140D-01  9.6728187480566D-01
    99  9.8000000000000D-01  9.3829931627120D-01  9.5436611244996D-01
   100  9.9000000000000D-01  9.7648185804698D-01  9.4082851682837D-01
   101  1.0000000000000D+00  1.0127655075000D+00  9.2666550294580D-01
   102  1.0100000000000D+00  1.0470540001618D+00  9.1187487845452D-01
   103  1.0200000000000D+00  1.0792565059883D+00  8.9645591911399D-01
   104  1.0300000000000D+00  1.1092879642638D+00  8.8040943861814D-01
   105  1.0400000000000D+00  1.1370693986329D+00  8.6373785237776D-01
   106  1.0500000000000D+00  1.1625282108706D+00  8.4644523487141D-01
   107  1.0600000000000D+00  1.1855984520879D+00  8.2853737020813D-01
   108  1.0700000000000D+00  1.2062210701578D+00  8.1002179557340D-01
   109  1.0800000000000D+00  1.2243441322501D+00  7.9090783726351D-01
   110  1.0900000000000D+00  1.2399230214632D+00  7.7120663904619D-01
   111  1.1000000000000D+00  1.2529206066438D+00  7.5093118261868D-01
   112  1.1100000000000D+00  1.2633073846128D+00  7.3009629997446D-01
   113  1.1200000000000D+00  1.2710615941156D+00  7.0871867752365D-01
   114  1.1300000000000D+00  1.2761693009560D+00  6.8681685185555D-01
   115  1.1400000000000D+00  1.2786244538606D+00  6.6441119706068D-01
   116  1.1500000000000D+00  1.2784289107885D+00  6.4152390358232D-01
   117  1.1600000000000D+00  1.2755924354972D+00  6.1817894859882D-01
   118  1.1700000000000D+00  1.2701326643293D+00  5.9440205798501D-01
   119  1.1800000000000D+00  1.2620750432683D+00  5.7022065992889D-01
   120  1.1900000000000D+00  1.2514527355000D+00  5.4566383033674D-01
   121  1.2000000000000D+00  1.2383064998113D+00  5.2076223019095D-01
   122  1.2100000000000D+00  1.2226845402764D+00  4.9554803506058D-01
   123  1.2200000000000D+00  1.2046423278206D+00  4.7005485700762D-01
   124  1.2300000000000D+00  1.1842423943864D+00  4.4431765917382D-01
   125  1.2400000000000D+00  1.1615541005317D+00  4.1837266336405D-01
   126  1.2500000000000D+00  1.1366533773777D+00  3.9225725096884D-01
   127  1.2600000000000D+00  1.1096224440041D+00  3.6600985762328D-01
   128  1.2700000000000D+00  1.0805495014578D+00  3.3966986201853D-01
   129  1.2800000000000D+00  1.0495284045992D+00  3.1327746930021D-01
   130  1.2900000000000D+00  1.0166583132077D+00  2.8687358954532D-01
   131  1.3000000000000D+00  9.8204332379364D-01  2.6049971181523D-01
   132  1.3100000000000D+00  9.4579208361619D-01  2.3419777429881D-01
   133  1.3200000000000D+00  9.0801738858786D-01  2.0801003110902D-01
   134  1.3300000000000D+00  8.6883576672529D-01  1.8197891628942D-01
   135  1.3400000000000D+00  8.2836704888323D-01  1.5614690560943D-01
   136  1.3500000000000D+00  7.8673392862513D-01  1.3055637675447D-01
   137  1.3600000000000D+00  7.4406151303937D-01  1.0524946850591D-01
   138  1.3700000000000D+00  7.0047686641614D-01  8.0267939532478D-02
   139  1.3800000000000D+00  6.5610854870978D-01  5.5653027408672D-02
   140  1.3900000000000D+00  6.1108615070745D-01  3.1445308482549D-02
   141  1.4000000000000D+00  5.6553982788509D-01  7.6845592152349D-03
   142  1.4100000000000D+00  5.1959983487565D-01 -1.5590380399046D-02
   143  1.4200000000000D+00  4.7339606254179D-01 -3.8341740704564D-02
   144  1.4300000000000D+00  4.2705757952674D-01 -6.0532952976210D-02
   145  1.4400000000000D+00  3.8071218026520D-01 -8.2128776109479D-02
   146  1.4500000000000D+00  3.3448594127716D-01 -1.0309541886348D-01
   147  1.4600000000000D+00  2.8850278758008D-01 -1.2340065709882D-01
   148  1.4700000000000D+00  2.4288407109338D-01 -1.4301394544496D-01
   149  1.4800000000000D+00  1.9774816256541D-01 -1.6190652296249D-01
   150  1.4900000000000D+00  1.5321005897528D-01 -1.8005151220522D-01
   151  1.5000000000000D+00  1.0938100766729D-01 -1.9742401135235D-01
   152  1.5100000000000D+00  6.6368149013657D-02 -2.1400117887605D-01
   153  1.5200000000000D+00  2.4274178834411D-02 -2.2976231042474D-01
   154  1.5300000000000D+00 -1.6802968061527D-02 -2.4468890754772D-01
   155  1.5400000000000D+00 -5.6770411855595D-02 -2.5876473789410D-01
   156  1.5500000000000D+00 -9.5540598441760D-02 -2.7197588672300D-01
   157  1.5600000000000D+00 -1.3303154533311D-01 -2.8431079928817D-01
   158  1.5700000000000D+00 -1.6916706263692D-01 -2.9576031416648D-01
   159  1.5800000000000D+00 -2.0387694738409D-01 -3.0631768704135D-01
   160  1.5900000000000D+00 -2.3709715159259D-01 -3.1597860518139D-01
   161  1.6000000000000D+00 -2.6876992254791D-01 -3.2474119219668D-01
   162  1.6100000000000D+00 -2.9884391582048D-01 -3.3260600335810D-01
   163  1.6200000000000D+00 -3.2727427996317D-01 -3.3957601122330D-01
   164  1.6300000000000D+00 -3.5402271343531D-01 -3.4565658186094D-01
   165  1.6400000000000D+00 -3.7905749320090D-01 -3.5085544158971D-01
   166  1.6500000000000D+00 -4.0235347557228D-01 -3.5518263453057D-01
   167  1.6600000000000D+00 -4.2389206923014D-01 -3.5865047105159D-01
   168  1.6700000000000D+00 -4.4366118105073D-01 -3.6127346742235D-01
   169  1.6800000000000D+00 -4.6165513509337D-01 -3.6306827689740D-01
   170  1.6900000000000D+00 -4.7787456549894D-01 -3.6405361258453D-01
   171  1.7000000000000D+00 -4.9232628398249D-01 -3.6425016242457D-01
   172  1.7100000000000D+00 -5.0502312286717D-01 -3.6368049670169D-01
   173  1.7200000000000D+00 -5.1598375456035D-01 -3.6236896848046D-01
   174  1.7300000000000D+00 -5.2523248869622D-01 -3.6034160747593D-01
   175  1.7400000000000D+00 -5.3279904794645D-01 -3.5762600778471D-01
   176  1.7500000000000D+00 -5.3871832406773D-01 -3.5425121008837D-01
   177  1.7600000000000D+00 -5.4303011518691D-01 -3.5024757875921D-01
   178  1.7700000000000D+00 -5.4577884626898D-01 -3.4564667458722D-01
   179  1.7800000000000D+00 -5.4701327370894D-01 -3.4048112354816D-01
   180  1.7900000000000D+00 -5.4678617633536D-01 -3.3478448241709D-01
   181  1.8000000000000D+00 -5.4515403372448D-01 -3.2859110165301D-01
   182  1.8100000000000D+00 -5.4217669432305D-01 -3.2193598638700D-01
   183  1.8200000000000D+00 -5.3791703436335D-01 -3.1485465599984D-01
   184  1.8300000000000D+00 -5.3244061002050D-01 -3.0738300305097D-01
   185  1.8400000000000D+00 -5.2581530412454D-01 -2.9955715218775D-01
   186  1.8500000000000D+00 -5.1811096949726D-01 -2.9141331963432D-01
   187  1.8600000000000D+00 -5.0939907075507D-01 -2.8298767405431D-01
   188  1.8700000000000D+00 -4.9975232616332D-01 -2.7431619924209D-01
   189  1.8800000000000D+00 -4.8924435170536D-01 -2.6543455948547D-01
   190  1.8900000000000D+00 -4.7794930883240D-01 -2.5637796806948D-01
   191  1.9000000000000D+00 -4.6594155776206D-01 -2.4718105957119D-01
   192  1.9100000000000D+00 -4.5329531836154D-01 -2.3787776669439D-01
   193  1.9200000000000D+00 -4.4008433933796D-01 -2.2850120178629D-01
   194  1.9300000000000D+00 -4.2638157905025D-01 -2.1908354431581D-01
   195  1.9400000000000D+00 -4.1225889712796D-01 -2.0965593383709D-01
   196  1.9500000000000D+00 -3.9778676110634D-01 -2.0024837004950D-01
   197  1.9600000000000D+00 -3.8303396691943D-01 -1.9088961937533D-01
   198  1.9700000000000D+00 -3.6806737638171D-01 -1.8160712919928D-01
   199  1.9800000000000D+00 -3.5295167235383D-01 -1.7242694994948D-01
   200  1.9900000000000D+00 -3.3774913159016D-01 -1.6337366492406D-01
   201  2.0000000000000D+00 -3.2251941923121D-01 -1.5447032930858D-01
   202  2.0100000000000D+00 -3.0731940143771D-01 -1.4573841695476D-01
   203  2.0200000000000D+00 -2.9220298203368D-01 -1.3719777707067D-01
   204  2.0300000000000D+00 -2.7722095948574D-01 -1.2886659935229D-01
   205  2.0400000000000D+00 -2.6242090714985D-01 -1.2076138857810D-01
   206  2.0500000000000D+00 -2.4784707781625D-01 -1.1289694897276D-01
   207  2.0600000000000D+00 -2.3354032908445D-01 -1.0528637697467D-01
   208  2.0700000000000D+00 -2.1953807607345D-01 -9.7941064733327D-02
   209  2.0800000000000D+00 -2.0587426471447D-01 -9.0870711775530D-02
   210  2.0900000000000D+00 -1.9257937065703D-01 -8.4083346605230D-02
   211  2.1000000000000D+00 -1.7968042198913D-01 -7.7585357503633D-02
   212  2.1100000000000D+00 -1.6720104303410D-01 -7.1381531461566D-02
   213  2.1200000000000D+00 -1.5516152462307D-01 -6.5475103111215D-02
   214  2.1300000000000D+00 -1.4357891336266D-01 -5.9867810894206D-02
   215  2.1400000000000D+00 -1.3246712465305D-01 -5.4559962083808D-02
   216  2.1500000000000D+00 -1.2183707693159D-01 -4.9550505681386D-02
   217  2.1600000000000D+00 -1.1169684363770D-01 -4.4837111871242D-02
   218  2.1700000000000D+00 -1.0205183406712D-01 -4.0416261618430D-02
   219  2.1800000000000D+00 -9.2904963653401D-02 -3.6283333765485D-02
   220  2.1900000000000D+00 -8.4256869332250D-02 -3.2432706951902D-02
   221  2.2000000000000D+00 -7.6106239300429D-02 -2.8857897526154D-02
   222  2.2100000000000D+00 -6.8449726150237D-02 -2.5551569537167D-02
   223  2.2200000000000D+00 -6.1282482097018D-02 -2.2505736332002D-02
   224  2.2300000000000D+00 -5.4598528183863D-02 -1.9711912319461D-02
   225  2.2400000000000D+00 -4.8391237451478D-02 -1.7161300809124D-02
   226  2.2500000000000D+00 -4.2652591993028D-02 -1.4844599283640D-02
   227  2.2600000000000D+00 -3.7373098214355D-02 -1.2752007189514D-02
   228  2.2700000000000D+00 -3.2541536392118D-02 -1.0873188686626D-02
   229  2.2800000000000D+00 -2.8144951780081D-02 -9.1973116834063D-03
   230  2.2900000000000D+00 -2.4167651582983D-02 -7.7127761255740D-03
   231  2.3000000000000D+00 -2.0592137939867D-02 -6.4075442688118D-03
   232  2.3100000000000D+00 -1.7399255196824D-02 -5.2692265973018D-03
   233  2.3200000000000D+00 -1.4568711506714D-02 -4.2852845570456D-03
   234  2.3300000000000D+00 -1.2079015169377D-02 -3.4430458092826D-03
   235  2.3400000000000D+00 -9.9078247380294D-03 -2.7298495581112D-03
   236  2.3500000000000D+00 -8.0321971768100D-03 -2.1331579561130D-03
   237  2.3600000000000D+00 -6.4287935012633D-03 -1.6406523576286D-03
   238  2.3700000000000D+00 -5.0741110286854D-03 -1.2403364639431D-03
   239  2.3800000000000D+00 -3.9446962320434D-03 -9.2063127758224D-04
   240  2.3900000000000D+00 -3.0173466927465D-03 -6.7046465787436D-04
   241  2.4000000000000D+00 -2.2693054496726D-03 -4.7935680629005D-04
   242  2.4100000000000D+00 -1.6784372338908D-03 -3.3749751699107D-04
   243  2.4200000000000D+00 -1.2238157042623D-03 -2.3594720070010D-04
   244  2.4300000000000D+00 -8.8420795925203D-04 -1.6619170856083D-04
   245  2.4400000000000D+00 -6.3974095714968D-04 -1.2069198997166D-04
   246  2.4500000000000D+00 -4.7007626752226D-04 -9.2441789404751D-05
   247  2.4600000000000D+00 -3.6554423011309D-04 -7.7737015319432D-05
   248  2.4700000000000D+00 -3.1451221328550D-04 -7.3007317114246D-05
   249  2.4800000000000D+00 -3.0575136610484D-04 -7.5339468774794D-05
   250  2.4900000000000D+00 -2.9771778597287D-04 -7.5215132629149D-05
   251  2.5000000000000D+00 -2.5916123607791D-04 -6.5845491395201D-05
   252  2.5100000000000D+00 -1.6889750074274D-04 -4.3000204236637D-05
   253  2.5200000000000D+00 -6.7770004524255D-05 -1.7242259493023D-05
   254  2.5300000000000D+00  9.0891541124652D-06  2.3323576248148D-06
   255  2.5400000000000D+00  2.8963380587894D-05  7.4395079669823D-06
   256  2.5500000000000D+00  1.8653717752423D-05  4.7942334043865D-06
   257  2.5600000000000D+00 -1.4486766371986D-06 -3.7242269769174D-07
   258  2.5700000000000D+00 -6.2524558389309D-06 -1.6084619467216D-06
   259  2.5800000000000D+00 -4.7258451634486D-06 -1.2164235428877D-06
   260  2.5900000000000D+00  9.9334195228675D-08  2.5211412256170D-08
   261  2.6000000000000D+00  7.2636288436162D-07  1.8435377749892D-07
   262  2.6100000000000D+00  6.3227291975150D-07  1.6047337174848D-07
   263  2.6200000000000D+00  6.1243159768428D-10  1.5543756560748D-10
   264  2.6300000000000D+00  0.0000000000000D+00  0.0000000000000D+00
   265  2.6400000000000D+00  0.0000000000000D+00  0.0000000000000D+00
   266  2.6500000000000D+00  0.0000000000000D+00  0.0000000000000D+00
   267  2.6600000000000D+00  0.0000000000000D+00  0.0000000000000D+00
   268  2.6700000000000D+00  0.0000000000000D+00  0.0000000000000D+00
   269  2.6800000000000D+00  0.0000000000000D+00  0.0000000000000D+00
   270  2.6900000000000D+00  0.0000000000000D+00  0.0000000000000D+00
   271  2.7000000000000D+00  0.0000000000000D+00  0.0000000000000D+00
   272  2.7100000000000D+00  0.0000000000000D+00  0.0000000000000D+00
   273  2.7200000000000D+00  0.0000000000000D+00  0.0000000000000D+00
   274  2.7300000000000D+00  0.0000000000000D+00  0.0000000000000D+00
   275  2.7400000000000D+00  0.0000000000000D+00  0.0000000000000D+00
   276  2.7500000000000D+00  0.0000000000000D+00  0.0000000000000D+00
   277  2.7600000000000D+00  0.0000000000000D+00  0.0000000000000D+00
   278  2.7700000000000D+00  0.0000000000000D+00  0.0000000000000D+00
   279  2.7800000000000D+00  0.0000000000000D+00  0.0000000000000D+00
   280  2.7900000000000D+00  0.0000000000000D+00  0.0000000000000D+00
   281  2.8000000000000D+00  0.0000000000000D+00  0.0000000000000D+00
   282  2.8100000000000D+00  0.0000000000000D+00  0.0000000000000D+00
   283  2.8200000000000D+00  0.0000000000000D+00  0.0000000000000D+00
   284  2.8300000000000D+00  0.0000000000000D+00  0.0000000000000D+00
   285  2.8400000000000D+00  0.0000000000000D+00  0.0000000000000D+00
   286  2.8500000000000D+00  0.0000000000000D+00  0.0000000000000D+00
   287  2.8600000000000D+00  0.0000000000000D+00  0.0000000000000D+00
   288  2.8700000000000D+00  0.0000000000000D+00  0.0000000000000D+00
   289  2.8800000000000D+00  0.0000000000000D+00  0.0000000000000D+00
   290  2.8900000000000D+00  0.0000000000000D+00  0.0000000000000D+00
   291  2.9000000000000D+00  0.0000000000000D+00  0.0000000000000D+00
   292  2.9100000000000D+00  0.0000000000000D+00  0.0000000000000D+00
   293  2.9200000000000D+00  0.0000000000000D+00  0.0000000000000D+00
   294  2.9300000000000D+00  0.0000000000000D+00  0.0000000000000D+00
   295  2.9400000000000D+00  0.0000000000000D+00  0.0000000000000D+00
   296  2.9500000000000D+00  0.0000000000000D+00  0.0000000000000D+00
   297  2.9600000000000D+00  0.0000000000000D+00  0.0000000000000D+00
   298  2.9700000000000D+00  0.0000000000000D+00  0.0000000000000D+00
   299  2.9800000000000D+00  0.0000000000000D+00  0.0000000000000D+00
   300  2.9900000000000D+00  0.0000000000000D+00  0.0000000000000D+00
   301  3.0000000000000D+00  0.0000000000000D+00  0.0000000000000D+00
   302  3.0100000000000D+00  0.0000000000000D+00  0.0000000000000D+00
   303  3.0200000000000D+00  0.0000000000000D+00  0.0000000000000D+00
   304  3.0300000000000D+00  0.0000000000000D+00  0.0000000000000D+00
   305  3.0400000000000D+00  0.0000000000000D+00  0.0000000000000D+00
   306  3.0500000000000D+00  0.0000000000000D+00  0.0000000000000D+00
   307  3.0600000000000D+00  0.0000000000000D+00  0.0000000000000D+00
   308  3.0700000000000D+00  0.0000000000000D+00  0.0000000000000D+00
   309  3.0800000000000D+00  0.0000000000000D+00  0.0000000000000D+00
   310  3.0900000000000D+00  0.0000000000000D+00  0.0000000000000D+00
   311  3.1000000000000D+00  0.0000000000000D+00  0.0000000000000D+00
   312  3.1100000000000D+00  0.0000000000000D+00  0.0000000000000D+00
   313  3.1200000000000D+00  0.0000000000000D+00  0.0000000000000D+00
   314  3.1300000000000D+00  0.0000000000000D+00  0.0000000000000D+00
   315  3.1400000000000D+00  0.0000000000000D+00  0.0000000000000D+00
   316  3.1500000000000D+00  0.0000000000000D+00  0.0000000000000D+00
   317  3.1600000000000D+00  0.0000000000000D+00  0.0000000000000D+00
   318  3.1700000000000D+00  0.0000000000000D+00  0.0000000000000D+00
   319  3.1800000000000D+00  0.0000000000000D+00  0.0000000000000D+00
   320  3.1900000000000D+00  0.0000000000000D+00  0.0000000000000D+00
   321  3.2000000000000D+00  0.0000000000000D+00  0.0000000000000D+00
   322  3.2100000000000D+00  0.0000000000000D+00  0.0000000000000D+00
   323  3.2200000000000D+00  0.0000000000000D+00  0.0000000000000D+00
   324  3.2300000000000D+00  0.0000000000000D+00  0.0000000000000D+00
   325  3.2400000000000D+00  0.0000000000000D+00  0.0000000000000D+00
   326  3.2500000000000D+00  0.0000000000000D+00  0.0000000000000D+00
   327  3.2600000000000D+00  0.0000000000000D+00  0.0000000000000D+00
   328  3.2700000000000D+00  0.0000000000000D+00  0.0000000000000D+00
   329  3.2800000000000D+00  0.0000000000000D+00  0.0000000000000D+00
   330  3.2900000000000D+00  0.0000000000000D+00  0.0000000000000D+00
   331  3.3000000000000D+00  0.0000000000000D+00  0.0000000000000D+00
   332  3.3100000000000D+00  0.0000000000000D+00  0.0000000000000D+00
   333  3.3200000000000D+00  0.0000000000000D+00  0.0000000000000D+00
   334  3.3300000000000D+00  0.0000000000000D+00  0.0000000000000D+00
   335  3.3400000000000D+00  0.0000000000000D+00  0.0000000000000D+00
   336  3.3500000000000D+00  0.0000000000000D+00  0.0000000000000D+00
   337  3.3600000000000D+00  0.0000000000000D+00  0.0000000000000D+00
   338  3.3700000000000D+00  0.0000000000000D+00  0.0000000000000D+00
   339  3.3800000000000D+00  0.0000000000000D+00  0.0000000000000D+00
   340  3.3900000000000D+00  0.0000000000000D+00  0.0000000000000D+00
   341  3.4000000000000D+00  0.0000000000000D+00  0.0000000000000D+00
   342  3.4100000000000D+00  0.0000000000000D+00  0.0000000000000D+00
   343  3.4200000000000D+00  0.0000000000000D+00  0.0000000000000D+00
   344  3.4300000000000D+00  0.0000000000000D+00  0.0000000000000D+00
   345  3.4400000000000D+00  0.0000000000000D+00  0.0000000000000D+00
   346  3.4500000000000D+00  0.0000000000000D+00  0.0000000000000D+00
   347  3.4600000000000D+00  0.0000000000000D+00  0.0000000000000D+00
   348  3.4700000000000D+00  0.0000000000000D+00  0.0000000000000D+00
   349  3.4800000000000D+00  0.0000000000000D+00  0.0000000000000D+00
   350  3.4900000000000D+00  0.0000000000000D+00  0.0000000000000D+00
   351  3.5000000000000D+00  0.0000000000000D+00  0.0000000000000D+00
   352  3.5100000000000D+00  0.0000000000000D+00  0.0000000000000D+00
   353  3.5200000000000D+00  0.0000000000000D+00  0.0000000000000D+00
   354  3.5300000000000D+00  0.0000000000000D+00  0.0000000000000D+00
   355  3.5400000000000D+00  0.0000000000000D+00  0.0000000000000D+00
   356  3.5500000000000D+00  0.0000000000000D+00  0.0000000000000D+00
   357  3.5600000000000D+00  0.0000000000000D+00  0.0000000000000D+00
   358  3.5700000000000D+00  0.0000000000000D+00  0.0000000000000D+00
   359  3.5800000000000D+00  0.0000000000000D+00  0.0000000000000D+00
   360  3.5900000000000D+00  0.0000000000000D+00  0.0000000000000D+00
   361  3.6000000000000D+00  0.0000000000000D+00  0.0000000000000D+00
   362  3.6100000000000D+00  0.0000000000000D+00  0.0000000000000D+00
   363  3.6200000000000D+00  0.0000000000000D+00  0.0000000000000D+00
   364  3.6300000000000D+00  0.0000000000000D+00  0.0000000000000D+00
   365  3.6400000000000D+00  0.0000000000000D+00  0.0000000000000D+00
   366  3.6500000000000D+00  0.0000000000000D+00  0.0000000000000D+00
   367  3.6600000000000D+00  0.0000000000000D+00  0.0000000000000D+00
   368  3.6700000000000D+00  0.0000000000000D+00  0.0000000000000D+00
   369  3.6800000000000D+00  0.0000000000000D+00  0.0000000000000D+00
   370  3.6900000000000D+00  0.0000000000000D+00  0.0000000000000D+00
   371  3.7000000000000D+00  0.0000000000000D+00  0.0000000000000D+00
   372  3.7100000000000D+00  0.0000000000000D+00  0.0000000000000D+00
   373  3.7200000000000D+00  0.0000000000000D+00  0.0000000000000D+00
   374  3.7300000000000D+00  0.0000000000000D+00  0.0000000000000D+00
   375  3.7400000000000D+00  0.0000000000000D+00  0.0000000000000D+00
   376  3.7500000000000D+00  0.0000000000000D+00  0.0000000000000D+00
   377  3.7600000000000D+00  0.0000000000000D+00  0.0000000000000D+00
   378  3.7700000000000D+00  0.0000000000000D+00  0.0000000000000D+00
   379  3.7800000000000D+00  0.0000000000000D+00  0.0000000000000D+00
   380  3.7900000000000D+00  0.0000000000000D+00  0.0000000000000D+00
   381  3.8000000000000D+00  0.0000000000000D+00  0.0000000000000D+00
   382  3.8100000000000D+00  0.0000000000000D+00  0.0000000000000D+00
   383  3.8200000000000D+00  0.0000000000000D+00  0.0000000000000D+00
   384  3.8300000000000D+00  0.0000000000000D+00  0.0000000000000D+00
   385  3.8400000000000D+00  0.0000000000000D+00  0.0000000000000D+00
   386  3.8500000000000D+00  0.0000000000000D+00  0.0000000000000D+00
   387  3.8600000000000D+00  0.0000000000000D+00  0.0000000000000D+00
   388  3.8700000000000D+00  0.0000000000000D+00  0.0000000000000D+00
   389  3.8800000000000D+00  0.0000000000000D+00  0.0000000000000D+00
   390  3.8900000000000D+00  0.0000000000000D+00  0.0000000000000D+00
   391  3.9000000000000D+00  0.0000000000000D+00  0.0000000000000D+00
   392  3.9100000000000D+00  0.0000000000000D+00  0.0000000000000D+00
   393  3.9200000000000D+00  0.0000000000000D+00  0.0000000000000D+00
   394  3.9300000000000D+00  0.0000000000000D+00  0.0000000000000D+00
   395  3.9400000000000D+00  0.0000000000000D+00  0.0000000000000D+00
   396  3.9500000000000D+00  0.0000000000000D+00  0.0000000000000D+00
   397  3.9600000000000D+00  0.0000000000000D+00  0.0000000000000D+00
   398  3.9700000000000D+00  0.0000000000000D+00  0.0000000000000D+00
   399  3.9800000000000D+00  0.0000000000000D+00  0.0000000000000D+00
   400  3.9900000000000D+00  0.0000000000000D+00  0.0000000000000D+00
   401  4.0000000000000D+00  0.0000000000000D+00  0.0000000000000D+00
   402  4.0100000000000D+00  0.0000000000000D+00  0.0000000000000D+00
   403  4.0200000000000D+00  0.0000000000000D+00  0.0000000000000D+00
   404  4.0300000000000D+00  0.0000000000000D+00  0.0000000000000D+00
   405  4.0400000000000D+00  0.0000000000000D+00  0.0000000000000D+00
   406  4.0500000000000D+00  0.0000000000000D+00  0.0000000000000D+00
   407  4.0600000000000D+00  0.0000000000000D+00  0.0000000000000D+00
   408  4.0700000000000D+00  0.0000000000000D+00  0.0000000000000D+00
   409  4.0800000000000D+00  0.0000000000000D+00  0.0000000000000D+00
   410  4.0900000000000D+00  0.0000000000000D+00  0.0000000000000D+00
   411  4.1000000000000D+00  0.0000000000000D+00  0.0000000000000D+00
   412  4.1100000000000D+00  0.0000000000000D+00  0.0000000000000D+00
   413  4.1200000000000D+00  0.0000000000000D+00  0.0000000000000D+00
   414  4.1300000000000D+00  0.0000000000000D+00  0.0000000000000D+00
   415  4.1400000000000D+00  0.0000000000000D+00  0.0000000000000D+00
   416  4.1500000000000D+00  0.0000000000000D+00  0.0000000000000D+00
   417  4.1600000000000D+00  0.0000000000000D+00  0.0000000000000D+00
   418  4.1700000000000D+00  0.0000000000000D+00  0.0000000000000D+00
   419  4.1800000000000D+00  0.0000000000000D+00  0.0000000000000D+00
   420  4.1900000000000D+00  0.0000000000000D+00  0.0000000000000D+00
   421  4.2000000000000D+00  0.0000000000000D+00  0.0000000000000D+00
   422  4.2100000000000D+00  0.0000000000000D+00  0.0000000000000D+00