C     ONCVPSP-3.3.1  r_core=   1.42330   1.40643
      6.0000      4.0000      210904    zatom,zion,pspd
     8       2   1     4   600     0    pspcod,pspxc,lmax,lloc,mmax,r2well
  5.99000000  0.00000000  0.00000000    rchrg fchrg qchrg
     2     2     0     0    nproj
     3     1           extension_switch
     4     0     0    nprojso
   0                         6.6741902463467D-01  7.8451034296654D+00
     1  0.0000000000000D+00  4.4355630279824D-12 -5.1699555747575D-10
     2  1.0000000000000D-02 -3.5337483148206D-02  6.8821786076659D-02
     3  2.0000000000000D-02 -7.0546739463765D-02  1.3749081076415D-01
     4  3.0000000000000D-02 -1.0549967824955D-01  2.0585508872865D-01
     5  4.0000000000000D-02 -1.4006848252404D-01  2.7376417763965D-01
     6  5.0000000000000D-02 -1.7412574949276D-01  3.4106992703703D-01
     7  6.0000000000000D-02 -2.0754463536203D-01  4.0762720040965D-01
     8  7.0000000000000D-02 -2.4019900595099D-01  4.7329456217173D-01
     9  8.0000000000000D-02 -2.7196359456244D-01  5.3793492174072D-01
    10  9.0000000000000D-02 -3.0271416857588D-01  6.0141612755278D-01
    11  1.0000000000000D-01 -3.3232770622437D-01  6.6361150459210D-01
    12  1.1000000000000D-01 -3.6068258500907D-01  7.2440032984614D-01
    13  1.2000000000000D-01 -3.8765878318801D-01  7.8366824102055D-01
    14  1.3000000000000D-01 -4.1313809574646D-01  8.4130757484016D-01
    15  1.4000000000000D-01 -4.3700436621173D-01  8.9721763231341D-01
    16  1.5000000000000D-01 -4.5914373561305D-01  9.5130486943078D-01
    17  1.6000000000000D-01 -4.7944490980235D-01  1.0034830128878D+00
    18  1.7000000000000D-01 -4.9779944624379D-01  1.0536731015541D+00
    19  1.8000000000000D-01 -5.1410206124326D-01  1.1018034555320D+00
    20  1.9000000000000D-01 -5.2825095842232D-01  1.1478095757528D+00
    21  2.0000000000000D-01 -5.4014817904228D-01  1.1916339781128D+00
    22  2.1000000000000D-01 -5.4969997454903D-01  1.2332259671614D+00
    23  2.2000000000000D-01 -5.5681720143969D-01  1.2725413552798D+00
    24  2.3000000000000D-01 -5.6141573824302D-01  1.3095421341333D+00
    25  2.4000000000000D-01 -5.6341692406113D-01  1.3441961059221D+00
    26  2.5000000000000D-01 -5.6274801773606D-01  1.3764764825806D+00
    27  2.6000000000000D-01 -5.5934267628680D-01  1.4063614615750D+00
    28  2.7000000000000D-01 -5.5314145080928D-01  1.4338337873140D+00
    29  2.8000000000000D-01 -5.4409229754844D-01  1.4588803074063D+00
    30  2.9000000000000D-01 -5.3215110134143D-01  1.4814915330686D+00
    31  3.0000000000000D-01 -5.1728220809918D-01  1.5016612129045D+00
    32  3.1000000000000D-01 -4.9945896244611D-01  1.5193859290348D+00
    33  3.2000000000000D-01 -4.7866424608136D-01  1.5346647241686D+00
    34  3.3000000000000D-01 -4.5489101186890D-01  1.5474987676554D+00
    35  3.4000000000000D-01 -4.2814280811510D-01  1.5578910678756D+00
    36  3.5000000000000D-01 -3.9843428696242D-01  1.5658462374903D+00
    37  3.6000000000000D-01 -3.6579169032622D-01  1.5713703171261D+00
    38  3.7000000000000D-01 -3.3025330634063D-01  1.5744706619935D+00
    39  3.8000000000000D-01 -2.9186988886852D-01  1.5751558947755D+00
    40  3.9000000000000D-01 -2.5070503228521D-01  1.5734359268667D+00
    41  4.0000000000000D-01 -2.0683549347415D-01  1.5693220487310D+00
    42  4.1000000000000D-01 -1.6035145279083D-01  1.5628270887863D+00
    43  4.2000000000000D-01 -1.1135670566863D-01  1.5539656388383D+00
    44  4.3000000000000D-01 -5.9968776569501D-02  1.5427543427093D+00
    45  4.4000000000000D-01 -6.3189471343058D-03  1.5292122433409D+00
    46  4.5000000000000D-01  4.9447809328032D-02  1.5133611823388D+00
    47  4.6000000000000D-01  1.0717299444760D-01  1.4952262446827D+00
    48  4.7000000000000D-01  1.6668485935639D-01  1.4748362401675D+00
    49  4.8000000000000D-01  2.2779879333764D-01  1.4522242121055D+00
    50  4.9000000000000D-01  2.9031783180256D-01  1.4274279629112D+00
    51  5.0000000000000D-01  3.5403328778499D-01  1.4004905854426D+00
    52  5.1000000000000D-01  4.1872550993372D-01  1.3714609883880D+00
    53  5.2000000000000D-01  4.8416476861106D-01  1.3403944035978D+00
    54  5.3000000000000D-01  5.5011227018103D-01  1.3073528630635D+00
    55  5.4000000000000D-01  6.1632129790078D-01  1.2724056332617D+00
    56  5.5000000000000D-01  6.8253847601730D-01  1.2356295948083D+00
    57  5.6000000000000D-01  7.4850515174069D-01  1.1971095558172D+00
    58  5.7000000000000D-01  8.1395888772037D-01  1.1569384880260D+00
    59  5.8000000000000D-01  8.7863505551577D-01  1.1152176756293D+00
    60  5.9000000000000D-01  9.4226851834542D-01  1.0720567678560D+00
    61  6.0000000000000D-01  1.0045953891391D+00  1.0275737276099D+00
    62  6.1000000000000D-01  1.0653548476322D+00  9.8189466997013D-01
    63  6.2000000000000D-01  1.1242909979567D+00  9.3515358597979D-01
    64  6.3000000000000D-01  1.1811547459174D+00  8.8749194894521D-01
    65  6.4000000000000D-01  1.2357056729421D+00  8.3905820236386D-01
    66  6.5000000000000D-01  1.2877138815611D+00  7.9000713061375D-01
    67  6.6000000000000D-01  1.3369617852607D+00  7.4049911560870D-01
    68  6.7000000000000D-01  1.3832458136838D+00  6.9069928472928D-01
    69  6.8000000000000D-01  1.4263780024378D+00  6.4077655747321D-01
    70  6.9000000000000D-01  1.4661874352592D+00  5.9090260035949D-01
    71  7.0000000000000D-01  1.5025215049960D+00  5.4125070166575D-01
    72  7.1000000000000D-01  1.5352469588154D+00  4.9199457953081D-01
    73  7.2000000000000D-01  1.5642506922621D+00  4.4330713879641D-01
    74  7.3000000000000D-01  1.5894402562906D+00  3.9535919364406D-01
    75  7.4000000000000D-01  1.6107440411930D+00  3.4831817459488D-01
    76  7.5000000000000D-01  1.6281111014474D+00  3.0234683974732D-01
    77  7.6000000000000D-01  1.6415105859355D+00  2.5760201120480D-01
    78  7.7000000000000D-01  1.6509307387220D+00  2.1423335848247D-01
    79  7.8000000000000D-01  1.6563774366518D+00  1.7238225124780D-01
    80  7.9000000000000D-01  1.6578722313961D+00  1.3218070404440D-01
    81  8.0000000000000D-01  1.6554498633289D+00  9.3750435591517D-02
    82  8.1000000000000D-01  1.6491552205187D+00  5.7202065315694D-02
    83  8.2000000000000D-01  1.6390398030288D+00  2.2634470321090D-02
    84  8.3000000000000D-01  1.6251575327646D+00 -9.8656762608876D-03
    85  8.4000000000000D-01  1.6075701401498D+00 -4.0223897110415D-02
    86  8.5000000000000D-01  1.5863586010432D+00 -6.8377964026870D-02
    87  8.6000000000000D-01  1.5616257915654D+00 -9.4278465996731D-02
    88  8.7000000000000D-01  1.5334956580385D+00 -1.1788940862062D-01
    89  8.8000000000000D-01  1.5021125640183D+00 -1.3918865662744D-01
    90  8.9000000000000D-01  1.4676403747093D+00 -1.5816823592003D-01
    91  9.0000000000000D-01  1.4302613530265D+00 -1.7483448541722D-01
    92  9.1000000000000D-01  1.3901748778816D+00 -1.8920805539012D-01
    93  9.2000000000000D-01  1.3475959936888D+00 -2.0132375102258D-01
    94  9.3000000000000D-01  1.3027538036406D+00 -2.1123022191066D-01
    95  9.4000000000000D-01  1.2558897211817D+00 -2.1898950027859D-01
    96  9.5000000000000D-01  1.2072555958636D+00 -2.2467639272333D-01
    97  9.6000000000000D-01  1.1571117313613D+00 -2.2837773227893D-01
    98  9.7000000000000D-01  1.1057248148621D+00 -2.3019149948688D-01
    99  9.8000000000000D-01  1.0533657782712D+00 -2.3022582295900D-01
   100  9.9000000000000D-01  1.0003076126777D+00 -2.2859787152244D-01
   101  1.0000000000000D+00  9.4682315834041D-01 -2.2543265159301D-01
   102  1.0100000000000D+00  8.9318289296924D-01 -2.2086172467894D-01
   103  1.0200000000000D+00  8.3965274137093D-01 -2.1502186104474D-01
   104  1.0300000000000D+00  7.8649192955477D-01 -2.0805364645166D-01
   105  1.0400000000000D+00  7.3395090612434D-01 -2.0010005954995D-01
   106  1.0500000000000D+00  6.8226935329716D-01 -1.9130503790366D-01
   107  1.0600000000000D+00  6.3167430910554D-01 -1.8181205082572D-01
   108  1.0700000000000D+00  5.8237842126426D-01 -1.7176269709568D-01
   109  1.0800000000000D+00  5.3457835193914D-01 -1.6129534531775D-01
   110  1.0900000000000D+00  4.8845335101890D-01 -1.5054383404725D-01
   111  1.1000000000000D+00  4.4416401390304D-01 -1.3963624807968D-01
   112  1.1100000000000D+00  4.0185123774309D-01 -1.2869378620654D-01
   113  1.1200000000000D+00  3.6163538792478D-01 -1.1782973445871D-01
   114  1.1300000000000D+00  3.2361568427719D-01 -1.0714855739631D-01
   115  1.1400000000000D+00  2.8786981407928D-01 -9.6745118376969D-02
   116  1.1500000000000D+00  2.5445377659481D-01 -8.6704038112613D-02
   117  1.1600000000000D+00  2.2340196083501D-01 -7.7099198588906D-02
   118  1.1700000000000D+00  1.9472745577672D-01 -6.7993397516928D-02
   119  1.1800000000000D+00  1.6842258984528D-01 -5.9438156604129D-02
   120  1.1900000000000D+00  1.4445969360240D-01 -5.1473684638449D-02
   121  1.2000000000000D+00  1.2279207684764D-01 -4.4128994093579D-02
   122  1.2100000000000D+00  1.0335520875598D-01 -3.7422167727945D-02
   123  1.2200000000000D+00  8.6068088308338D-02 -3.1360770515758D-02
   124  1.2300000000000D+00  7.0834788414521D-02 -2.5942398800700D-02
   125  1.2400000000000D+00  5.7546155977343D-02 -2.1155357423505D-02
   126  1.2500000000000D+00  4.6081648677875D-02 -1.6979454252622D-02
   127  1.2600000000000D+00  3.6311286599614D-02 -1.3386898978879D-02
   128  1.2700000000000D+00  2.8097695871767D-02 -1.0343291949429D-02
   129  1.2800000000000D+00  2.1298220829296D-02 -7.8086881443256D-03
   130  1.2900000000000D+00  1.5767079470934D-02 -5.7387195352955D-03
   131  1.3000000000000D+00  1.1357537009860D-02 -4.0857586796283D-03
   132  1.3100000000000D+00  7.9240720160089D-03 -2.8001061501270D-03
   133  1.3200000000000D+00  5.3245091092565D-03 -1.8311833794494D-03
   134  1.3300000000000D+00  3.4220937291239D-03 -1.1287134350129D-03
   135  1.3400000000000D+00  2.0874834192824D-03 -6.4387147345441D-04
   136  1.3500000000000D+00  1.2006323304855D-03 -3.3038767688593D-04
   137  1.3600000000000D+00  6.5254737806761D-04 -1.4558687679007D-04
   138  1.3700000000000D+00  3.4689277999640D-04 -5.1347648449216D-05
   139  1.3800000000000D+00  2.0169226431020D-04 -1.5026173373287D-05
   140  1.3900000000000D+00  1.4915850252434D-04 -9.9116551446557D-06
   141  1.4000000000000D+00  1.3764438032232D-04 -1.6154865323538D-05
   142  1.4100000000000D+00  1.4525356089497D-04 -2.3133651127232D-05
   143  1.4200000000000D+00  1.4210978916191D-04 -2.4066863232205D-05
   144  1.4300000000000D+00  8.0718868783396D-05 -1.3647831748216D-05
   145  1.4400000000000D+00  2.2623985201688D-06 -3.7986348244016D-07
   146  1.4500000000000D+00 -1.2643625875859D-05  2.1682409387534D-06
   147  1.4600000000000D+00  1.5088889874064D-06 -2.5881715442421D-07
   148  1.4700000000000D+00  2.3029127256955D-06 -3.9548581686075D-07
   149  1.4800000000000D+00 -3.0079189540750D-07  5.0842842997919D-08
   150  1.4900000000000D+00 -1.7008681394759D-07  2.8749767894637D-08
   151  1.5000000000000D+00  0.0000000000000D+00  0.0000000000000D+00
   152  1.5100000000000D+00  0.0000000000000D+00  0.0000000000000D+00
   153  1.5200000000000D+00  0.0000000000000D+00  0.0000000000000D+00
   154  1.5300000000000D+00  0.0000000000000D+00  0.0000000000000D+00
   155  1.5400000000000D+00  0.0000000000000D+00  0.0000000000000D+00
   156  1.5500000000000D+00  0.0000000000000D+00  0.0000000000000D+00
   157  1.5600000000000D+00  0.0000000000000D+00  0.0000000000000D+00
   158  1.5700000000000D+00  0.0000000000000D+00  0.0000000000000D+00
   159  1.5800000000000D+00  0.0000000000000D+00  0.0000000000000D+00
   160  1.5900000000000D+00  0.0000000000000D+00  0.0000000000000D+00
   161  1.6000000000000D+00  0.0000000000000D+00  0.0000000000000D+00
   162  1.6100000000000D+00  0.0000000000000D+00  0.0000000000000D+00
   163  1.6200000000000D+00  0.0000000000000D+00  0.0000000000000D+00
   164  1.6300000000000D+00  0.0000000000000D+00  0.0000000000000D+00
   165  1.6400000000000D+00  0.0000000000000D+00  0.0000000000000D+00
   166  1.6500000000000D+00  0.0000000000000D+00  0.0000000000000D+00
   167  1.6600000000000D+00  0.0000000000000D+00  0.0000000000000D+00
   168  1.6700000000000D+00  0.0000000000000D+00  0.0000000000000D+00
   169  1.6800000000000D+00  0.0000000000000D+00  0.0000000000000D+00
   170  1.6900000000000D+00  0.0000000000000D+00  0.0000000000000D+00
   171  1.7000000000000D+00  0.0000000000000D+00  0.0000000000000D+00
   172  1.7100000000000D+00  0.0000000000000D+00  0.0000000000000D+00
   173  1.7200000000000D+00  0.0000000000000D+00  0.0000000000000D+00
   174  1.7300000000000D+00  0.0000000000000D+00  0.0000000000000D+00
   175  1.7400000000000D+00  0.0000000000000D+00  0.0000000000000D+00
   176  1.7500000000000D+00  0.0000000000000D+00  0.0000000000000D+00
   177  1.7600000000000D+00  0.0000000000000D+00  0.0000000000000D+00
   178  1.7700000000000D+00  0.0000000000000D+00  0.0000000000000D+00
   179  1.7800000000000D+00  0.0000000000000D+00  0.0000000000000D+00
   180  1.7900000000000D+00  0.0000000000000D+00  0.0000000000000D+00
   181  1.8000000000000D+00  0.0000000000000D+00  0.0000000000000D+00
   182  1.8100000000000D+00  0.0000000000000D+00  0.0000000000000D+00
   183  1.8200000000000D+00  0.0000000000000D+00  0.0000000000000D+00
   184  1.8300000000000D+00  0.0000000000000D+00  0.0000000000000D+00
   185  1.8400000000000D+00  0.0000000000000D+00  0.0000000000000D+00
   186  1.8500000000000D+00  0.0000000000000D+00  0.0000000000000D+00
   187  1.8600000000000D+00  0.0000000000000D+00  0.0000000000000D+00
   188  1.8700000000000D+00  0.0000000000000D+00  0.0000000000000D+00
   189  1.8800000000000D+00  0.0000000000000D+00  0.0000000000000D+00
   190  1.8900000000000D+00  0.0000000000000D+00  0.0000000000000D+00
   191  1.9000000000000D+00  0.0000000000000D+00  0.0000000000000D+00
   192  1.9100000000000D+00  0.0000000000000D+00  0.0000000000000D+00
   193  1.9200000000000D+00  0.0000000000000D+00  0.0000000000000D+00
   194  1.9300000000000D+00  0.0000000000000D+00  0.0000000000000D+00
   195  1.9400000000000D+00  0.0000000000000D+00  0.0000000000000D+00
   196  1.9500000000000D+00  0.0000000000000D+00  0.0000000000000D+00
   197  1.9600000000000D+00  0.0000000000000D+00  0.0000000000000D+00
   198  1.9700000000000D+00  0.0000000000000D+00  0.0000000000000D+00
   199  1.9800000000000D+00  0.0000000000000D+00  0.0000000000000D+00
   200  1.9900000000000D+00  0.0000000000000D+00  0.0000000000000D+00
   201  2.0000000000000D+00  0.0000000000000D+00  0.0000000000000D+00
   202  2.0100000000000D+00  0.0000000000000D+00  0.0000000000000D+00
   203  2.0200000000000D+00  0.0000000000000D+00  0.0000000000000D+00
   204  2.0300000000000D+00  0.0000000000000D+00  0.0000000000000D+00
   205  2.0400000000000D+00  0.0000000000000D+00  0.0000000000000D+00
   206  2.0500000000000D+00  0.0000000000000D+00  0.0000000000000D+00
   207  2.0600000000000D+00  0.0000000000000D+00  0.0000000000000D+00
   208  2.0700000000000D+00  0.0000000000000D+00  0.0000000000000D+00
   209  2.0800000000000D+00  0.0000000000000D+00  0.0000000000000D+00
   210  2.0900000000000D+00  0.0000000000000D+00  0.0000000000000D+00
   211  2.1000000000000D+00  0.0000000000000D+00  0.0000000000000D+00
   212  2.1100000000000D+00  0.0000000000000D+00  0.0000000000000D+00
   213  2.1200000000000D+00  0.0000000000000D+00  0.0000000000000D+00
   214  2.1300000000000D+00  0.0000000000000D+00  0.0000000000000D+00
   215  2.1400000000000D+00  0.0000000000000D+00  0.0000000000000D+00
   216  2.1500000000000D+00  0.0000000000000D+00  0.0000000000000D+00
   217  2.1600000000000D+00  0.0000000000000D+00  0.0000000000000D+00
   218  2.1700000000000D+00  0.0000000000000D+00  0.0000000000000D+00
   219  2.1800000000000D+00  0.0000000000000D+00  0.0000000000000D+00
   220  2.1900000000000D+00  0.0000000000000D+00  0.0000000000000D+00
   221  2.2000000000000D+00  0.0000000000000D+00  0.0000000000000D+00
   222  2.2100000000000D+00  0.0000000000000D+00  0.0000000000000D+00
   223  2.2200000000000D+00  0.0000000000000D+00  0.0000000000000D+00
   224  2.2300000000000D+00  0.0000000000000D+00  0.0000000000000D+00
   225  2.2400000000000D+00  0.0000000000000D+00  0.0000000000000D+00
   226  2.2500000000000D+00  0.0000000000000D+00  0.0000000000000D+00
   227  2.2600000000000D+00  0.0000000000000D+00  0.0000000000000D+00
   228  2.2700000000000D+00  0.0000000000000D+00  0.0000000000000D+00
   229  2.2800000000000D+00  0.0000000000000D+00  0.0000000000000D+00
   230  2.2900000000000D+00  0.0000000000000D+00  0.0000000000000D+00
   231  2.3000000000000D+00  0.0000000000000D+00  0.0000000000000D+00
   232  2.3100000000000D+00  0.0000000000000D+00  0.0000000000000D+00
   233  2.3200000000000D+00  0.0000000000000D+00  0.0000000000000D+00
   234  2.3300000000000D+00  0.0000000000000D+00  0.0000000000000D+00
   235  2.3400000000000D+00  0.0000000000000D+00  0.0000000000000D+00
   236  2.3500000000000D+00  0.0000000000000D+00  0.0000000000000D+00
   237  2.3600000000000D+00  0.0000000000000D+00  0.0000000000000D+00
   238  2.3700000000000D+00  0.0000000000000D+00  0.0000000000000D+00
   239  2.3800000000000D+00  0.0000000000000D+00  0.0000000000000D+00
   240  2.3900000000000D+00  0.0000000000000D+00  0.0000000000000D+00
   241  2.4000000000000D+00  0.0000000000000D+00  0.0000000000000D+00
   242  2.4100000000000D+00  0.0000000000000D+00  0.0000000000000D+00
   243  2.4200000000000D+00  0.0000000000000D+00  0.0000000000000D+00
   244  2.4300000000000D+00  0.0000000000000D+00  0.0000000000000D+00
   245  2.4400000000000D+00  0.0000000000000D+00  0.0000000000000D+00
   246  2.4500000000000D+00  0.0000000000000D+00  0.0000000000000D+00
   247  2.4600000000000D+00  0.0000000000000D+00  0.0000000000000D+00
   248  2.4700000000000D+00  0.0000000000000D+00  0.0000000000000D+00
   249  2.4800000000000D+00  0.0000000000000D+00  0.0000000000000D+00
   250  2.4900000000000D+00  0.0000000000000D+00  0.0000000000000D+00
   251  2.5000000000000D+00  0.0000000000000D+00  0.0000000000000D+00
   252  2.5100000000000D+00  0.0000000000000D+00  0.0000000000000D+00
   253  2.5200000000000D+00  0.0000000000000D+00  0.0000000000000D+00
   254  2.5300000000000D+00  0.0000000000000D+00  0.0000000000000D+00
   255  2.5400000000000D+00  0.0000000000000D+00  0.0000000000000D+00
   256  2.5500000000000D+00  0.0000000000000D+00  0.0000000000000D+00
   257  2.5600000000000D+00  0.0000000000000D+00  0.0000000000000D+00
   258  2.5700000000000D+00  0.0000000000000D+00  0.0000000000000D+00
   259  2.5800000000000D+00  0.0000000000000D+00  0.0000000000000D+00
   260  2.5900000000000D+00  0.0000000000000D+00  0.0000000000000D+00
   261  2.6000000000000D+00  0.0000000000000D+00  0.0000000000000D+00
   262  2.6100000000000D+00  0.0000000000000D+00  0.0000000000000D+00
   263  2.6200000000000D+00  0.0000000000000D+00  0.0000000000000D+00
   264  2.6300000000000D+00  0.0000000000000D+00  0.0000000000000D+00
   265  2.6400000000000D+00  0.0000000000000D+00  0.0000000000000D+00
   266  2.6500000000000D+00  0.0000000000000D+00  0.0000000000000D+00
   267  2.6600000000000D+00  0.0000000000000D+00  0.0000000000000D+00
   268  2.6700000000000D+00  0.0000000000000D+00  0.0000000000000D+00
   269  2.6800000000000D+00  0.0000000000000D+00  0.0000000000000D+00
   270  2.6900000000000D+00  0.0000000000000D+00  0.0000000000000D+00
   271  2.7000000000000D+00  0.0000000000000D+00  0.0000000000000D+00
   272  2.7100000000000D+00  0.0000000000000D+00  0.0000000000000D+00
   273  2.7200000000000D+00  0.0000000000000D+00  0.0000000000000D+00
   274  2.7300000000000D+00  0.0000000000000D+00  0.0000000000000D+00
   275  2.7400000000000D+00  0.0000000000000D+00  0.0000000000000D+00
   276  2.7500000000000D+00  0.0000000000000D+00  0.0000000000000D+00
   277  2.7600000000000D+00  0.0000000000000D+00  0.0000000000000D+00
   278  2.7700000000000D+00  0.0000000000000D+00  0.0000000000000D+00
   279  2.7800000000000D+00  0.0000000000000D+00  0.0000000000000D+00
   280  2.7900000000000D+00  0.0000000000000D+00  0.0000000000000D+00
   281  2.8000000000000D+00  0.0000000000000D+00  0.0000000000000D+00
   282  2.8100000000000D+00  0.0000000000000D+00  0.0000000000000D+00
   283  2.8200000000000D+00  0.0000000000000D+00  0.0000000000000D+00
   284  2.8300000000000D+00  0.0000000000000D+00  0.0000000000000D+00
   285  2.8400000000000D+00  0.0000000000000D+00  0.0000000000000D+00
   286  2.8500000000000D+00  0.0000000000000D+00  0.0000000000000D+00
   287  2.8600000000000D+00  0.0000000000000D+00  0.0000000000000D+00
   288  2.8700000000000D+00  0.0000000000000D+00  0.0000000000000D+00
   289  2.8800000000000D+00  0.0000000000000D+00  0.0000000000000D+00
   290  2.8900000000000D+00  0.0000000000000D+00  0.0000000000000D+00
   291  2.9000000000000D+00  0.0000000000000D+00  0.0000000000000D+00
   292  2.9100000000000D+00  0.0000000000000D+00  0.0000000000000D+00
   293  2.9200000000000D+00  0.0000000000000D+00  0.0000000000000D+00
   294  2.9300000000000D+00  0.0000000000000D+00  0.0000000000000D+00
   295  2.9400000000000D+00  0.0000000000000D+00  0.0000000000000D+00
   296  2.9500000000000D+00  0.0000000000000D+00  0.0000000000000D+00
   297  2.9600000000000D+00  0.0000000000000D+00  0.0000000000000D+00
   298  2.9700000000000D+00  0.0000000000000D+00  0.0000000000000D+00
   299  2.9800000000000D+00  0.0000000000000D+00  0.0000000000000D+00
   300  2.9900000000000D+00  0.0000000000000D+00  0.0000000000000D+00
   301  3.0000000000000D+00  0.0000000000000D+00  0.0000000000000D+00
   302  3.0100000000000D+00  0.0000000000000D+00  0.0000000000000D+00
   303  3.0200000000000D+00  0.0000000000000D+00  0.0000000000000D+00
   304  3.0300000000000D+00  0.0000000000000D+00  0.0000000000000D+00
   305  3.0400000000000D+00  0.0000000000000D+00  0.0000000000000D+00
   306  3.0500000000000D+00  0.0000000000000D+00  0.0000000000000D+00
   307  3.0600000000000D+00  0.0000000000000D+00  0.0000000000000D+00
   308  3.0700000000000D+00  0.0000000000000D+00  0.0000000000000D+00
   309  3.0800000000000D+00  0.0000000000000D+00  0.0000000000000D+00
   310  3.0900000000000D+00  0.0000000000000D+00  0.0000000000000D+00
   311  3.1000000000000D+00  0.0000000000000D+00  0.0000000000000D+00
   312  3.1100000000000D+00  0.0000000000000D+00  0.0000000000000D+00
   313  3.1200000000000D+00  0.0000000000000D+00  0.0000000000000D+00
   314  3.1300000000000D+00  0.0000000000000D+00  0.0000000000000D+00
   315  3.1400000000000D+00  0.0000000000000D+00  0.0000000000000D+00
   316  3.1500000000000D+00  0.0000000000000D+00  0.0000000000000D+00
   317  3.1600000000000D+00  0.0000000000000D+00  0.0000000000000D+00
   318  3.1700000000000D+00  0.0000000000000D+00  0.0000000000000D+00
   319  3.1800000000000D+00  0.0000000000000D+00  0.0000000000000D+00
   320  3.1900000000000D+00  0.0000000000000D+00  0.0000000000000D+00
   321  3.2000000000000D+00  0.0000000000000D+00  0.0000000000000D+00
   322  3.2100000000000D+00  0.0000000000000D+00  0.0000000000000D+00
   323  3.2200000000000D+00  0.0000000000000D+00  0.0000000000000D+00
   324  3.2300000000000D+00  0.0000000000000D+00  0.0000000000000D+00
   325  3.2400000000000D+00  0.0000000000000D+00  0.0000000000000D+00
   326  3.2500000000000D+00  0.0000000000000D+00  0.0000000000000D+00
   327  3.2600000000000D+00  0.0000000000000D+00  0.0000000000000D+00
   328  3.2700000000000D+00  0.0000000000000D+00  0.0000000000000D+00
   329  3.2800000000000D+00  0.0000000000000D+00  0.0000000000000D+00
   330  3.2900000000000D+00  0.0000000000000D+00  0.0000000000000D+00
   331  3.3000000000000D+00  0.0000000000000D+00  0.0000000000000D+00
   332  3.3100000000000D+00  0.0000000000000D+00  0.0000000000000D+00
   333  3.3200000000000D+00  0.0000000000000D+00  0.0000000000000D+00
   334  3.3300000000000D+00  0.0000000000000D+00  0.0000000000000D+00
   335  3.3400000000000D+00  0.0000000000000D+00  0.0000000000000D+00
   336  3.3500000000000D+00  0.0000000000000D+00  0.0000000000000D+00
   337  3.3600000000000D+00  0.0000000000000D+00  0.0000000000000D+00
   338  3.3700000000000D+00  0.0000000000000D+00  0.0000000000000D+00
   339  3.3800000000000D+00  0.0000000000000D+00  0.0000000000000D+00
   340  3.3900000000000D+00  0.0000000000000D+00  0.0000000000000D+00
   341  3.4000000000000D+00  0.0000000000000D+00  0.0000000000000D+00
   342  3.4100000000000D+00  0.0000000000000D+00  0.0000000000000D+00
   343  3.4200000000000D+00  0.0000000000000D+00  0.0000000000000D+00
   344  3.4300000000000D+00  0.0000000000000D+00  0.0000000000000D+00
   345  3.4400000000000D+00  0.0000000000000D+00  0.0000000000000D+00
   346  3.4500000000000D+00  0.0000000000000D+00  0.0000000000000D+00
   347  3.4600000000000D+00  0.0000000000000D+00  0.0000000000000D+00
   348  3.4700000000000D+00  0.0000000000000D+00  0.0000000000000D+00
   349  3.4800000000000D+00  0.0000000000000D+00  0.0000000000000D+00
   350  3.4900000000000D+00  0.0000000000000D+00  0.0000000000000D+00
   351  3.5000000000000D+00  0.0000000000000D+00  0.0000000000000D+00
   352  3.5100000000000D+00  0.0000000000000D+00  0.0000000000000D+00
   353  3.5200000000000D+00  0.0000000000000D+00  0.0000000000000D+00
   354  3.5300000000000D+00  0.0000000000000D+00  0.0000000000000D+00
   355  3.5400000000000D+00  0.0000000000000D+00  0.0000000000000D+00
   356  3.5500000000000D+00  0.0000000000000D+00  0.0000000000000D+00
   357  3.5600000000000D+00  0.0000000000000D+00  0.0000000000000D+00
   358  3.5700000000000D+00  0.0000000000000D+00  0.0000000000000D+00
   359  3.5800000000000D+00  0.0000000000000D+00  0.0000000000000D+00
   360  3.5900000000000D+00  0.0000000000000D+00  0.0000000000000D+00
   361  3.6000000000000D+00  0.0000000000000D+00  0.0000000000000D+00
   362  3.6100000000000D+00  0.0000000000000D+00  0.0000000000000D+00
   363  3.6200000000000D+00  0.0000000000000D+00  0.0000000000000D+00
   364  3.6300000000000D+00  0.0000000000000D+00  0.0000000000000D+00
   365  3.6400000000000D+00  0.0000000000000D+00  0.0000000000000D+00
   366  3.6500000000000D+00  0.0000000000000D+00  0.0000000000000D+00
   367  3.6600000000000D+00  0.0000000000000D+00  0.0000000000000D+00
   368  3.6700000000000D+00  0.0000000000000D+00  0.0000000000000D+00
   369  3.6800000000000D+00  0.0000000000000D+00  0.0000000000000D+00
   370  3.6900000000000D+00  0.0000000000000D+00  0.0000000000000D+00
   371  3.7000000000000D+00  0.0000000000000D+00  0.0000000000000D+00
   372  3.7100000000000D+00  0.0000000000000D+00  0.0000000000000D+00
   373  3.7200000000000D+00  0.0000000000000D+00  0.0000000000000D+00
   374  3.7300000000000D+00  0.0000000000000D+00  0.0000000000000D+00
   375  3.7400000000000D+00  0.0000000000000D+00  0.0000000000000D+00
   376  3.7500000000000D+00  0.0000000000000D+00  0.0000000000000D+00
   377  3.7600000000000D+00  0.0000000000000D+00  0.0000000000000D+00
   378  3.7700000000000D+00  0.0000000000000D+00  0.0000000000000D+00
   379  3.7800000000000D+00  0.0000000000000D+00  0.0000000000000D+00
   380  3.7900000000000D+00  0.0000000000000D+00  0.0000000000000D+00
   381  3.8000000000000D+00  0.0000000000000D+00  0.0000000000000D+00
   382  3.8100000000000D+00  0.0000000000000D+00  0.0000000000000D+00
   383  3.8200000000000D+00  0.0000000000000D+00  0.0000000000000D+00
   384  3.8300000000000D+00  0.0000000000000D+00  0.0000000000000D+00
   385  3.8400000000000D+00  0.0000000000000D+00  0.0000000000000D+00
   386  3.8500000000000D+00  0.0000000000000D+00  0.0000000000000D+00
   387  3.8600000000000D+00  0.0000000000000D+00  0.0000000000000D+00
   388  3.8700000000000D+00  0.0000000000000D+00  0.0000000000000D+00
   389  3.8800000000000D+00  0.0000000000000D+00  0.0000000000000D+00
   390  3.8900000000000D+00  0.0000000000000D+00  0.0000000000000D+00
   391  3.9000000000000D+00  0.0000000000000D+00  0.0000000000000D+00
   392  3.9100000000000D+00  0.0000000000000D+00  0.0000000000000D+00
   393  3.9200000000000D+00  0.0000000000000D+00  0.0000000000000D+00
   394  3.9300000000000D+00  0.0000000000000D+00  0.0000000000000D+00
   395  3.9400000000000D+00  0.0000000000000D+00  0.0000000000000D+00
   396  3.9500000000000D+00  0.0000000000000D+00  0.0000000000000D+00
   397  3.9600000000000D+00  0.0000000000000D+00  0.0000000000000D+00
   398  3.9700000000000D+00  0.0000000000000D+00  0.0000000000000D+00
   399  3.9800000000000D+00  0.0000000000000D+00  0.0000000000000D+00
   400  3.9900000000000D+00  0.0000000000000D+00  0.0000000000000D+00
   401  4.0000000000000D+00  0.0000000000000D+00  0.0000000000000D+00
   402  4.0100000000000D+00  0.0000000000000D+00  0.0000000000000D+00
   403  4.0200000000000D+00  0.0000000000000D+00  0.0000000000000D+00
   404  4.0300000000000D+00  0.0000000000000D+00  0.0000000000000D+00
   405  4.0400000000000D+00  0.0000000000000D+00  0.0000000000000D+00
   406  4.0500000000000D+00  0.0000000000000D+00  0.0000000000000D+00
   407  4.0600000000000D+00  0.0000000000000D+00  0.0000000000000D+00
   408  4.0700000000000D+00  0.0000000000000D+00  0.0000000000000D+00
   409  4.0800000000000D+00  0.0000000000000D+00  0.0000000000000D+00
   410  4.0900000000000D+00  0.0000000000000D+00  0.0000000000000D+00
   411  4.1000000000000D+00  0.0000000000000D+00  0.0000000000000D+00
   412  4.1100000000000D+00  0.0000000000000D+00  0.0000000000000D+00
   413  4.1200000000000D+00  0.0000000000000D+00  0.0000000000000D+00
   414  4.1300000000000D+00  0.0000000000000D+00  0.0000000000000D+00
   415  4.1400000000000D+00  0.0000000000000D+00  0.0000000000000D+00
   416  4.1500000000000D+00  0.0000000000000D+00  0.0000000000000D+00
   417  4.1600000000000D+00  0.0000000000000D+00  0.0000000000000D+00
   418  4.1700000000000D+00  0.0000000000000D+00  0.0000000000000D+00
   419  4.1800000000000D+00  0.0000000000000D+00  0.0000000000000D+00
   420  4.1900000000000D+00  0.0000000000000D+00  0.0000000000000D+00
   421  4.2000000000000D+00  0.0000000000000D+00  0.0000000000000D+00
   422  4.2100000000000D+00  0.0000000000000D+00  0.0000000000000D+00