C     ONCVPSP-3.3.1  r_core=   1.42330   1.40643
      6.0000      4.0000      210904    zatom,zion,pspd
     8       2   1     4   600     0    pspcod,pspxc,lmax,lloc,mmax,r2well
  5.99000000  0.00000000  0.00000000    rchrg fchrg qchrg
     2     2     0     0     0    nproj
     1     1           extension_switch
   0                         7.8452175725712D+00  6.6746247971675D-01
     1  0.0000000000000D+00 -5.1691106950358D-10  3.9437897392247D-12
     2  1.0000000000000D-02  6.8821264539757D-02 -3.5331726026846D-02
     3  2.0000000000000D-02  1.3748978085391D-01 -7.0535300199577D-02
     4  3.0000000000000D-02  2.0585357657094D-01 -1.0548270578878D-01
     5  4.0000000000000D-02  2.7376222192280D-01 -1.4004619777235D-01
     6  5.0000000000000D-02  3.4106757841880D-01 -1.7409844233581D-01
     7  6.0000000000000D-02  4.0762452073889D-01 -2.0751266075430D-01
     8  7.0000000000000D-02  4.7329162353516D-01 -2.4016277912423D-01
     9  8.0000000000000D-02  5.3793180534762D-01 -2.7192358541707D-01
    10  9.0000000000000D-02  6.0141292247263D-01 -3.0267089532921D-01
    11  1.0000000000000D-01  6.6360830636201D-01 -3.3228172839972D-01
    12  1.1000000000000D-01  7.2439723896697D-01 -3.6063449585835D-01
    13  1.2000000000000D-01  7.8366536136196D-01 -3.8760920164830D-01
    14  1.3000000000000D-01  8.4130501197628D-01 -4.1308765803708D-01
    15  1.4000000000000D-01  8.9721549181166D-01 -4.3695371718374D-01
    16  1.5000000000000D-01  9.5130325511727D-01 -4.5909351996609D-01
    17  1.6000000000000D-01  1.0034820251131D+00 -4.7939576328631D-01
    18  1.7000000000000D-01  1.0536728354831D+00 -4.9775198696286D-01
    19  1.8000000000000D-01  1.1018039994821D+00 -5.1405688117902D-01
    20  1.9000000000000D-01  1.1478110096025D+00 -5.2820861529021D-01
    21  2.0000000000000D-01  1.1916363718045D+00 -5.4010918859112D-01
    22  2.1000000000000D-01  1.2332293793189D+00 -5.4966480340844D-01
    23  2.2000000000000D-01  1.2725458319599D+00 -5.5678626061261D-01
    24  2.3000000000000D-01  1.3095477077311D+00 -5.6138937733288D-01
    25  2.4000000000000D-01  1.3442027942451D+00 -5.6339542631317D-01
    26  2.5000000000000D-01  1.3764842881063D+00 -5.6273159596222D-01
    27  2.6000000000000D-01  1.4063703709041D+00 -5.5933146973180D-01
    28  2.7000000000000D-01  1.4338437708279D+00 -5.5313552300305D-01
    29  2.8000000000000D-01  1.4588913191368D+00 -5.4409163517726D-01
    30  2.9000000000000D-01  1.4815035107821D+00 -5.3215561415667D-01
    31  3.0000000000000D-01  1.5016740784037D+00 -5.1729172986815D-01
    32  3.1000000000000D-01  1.5193995886752D+00 -4.9947325293636D-01
    33  3.2000000000000D-01  1.5346790695851D+00 -4.7868299405513D-01
    34  3.3000000000000D-01  1.5475136766930D+00 -4.5491383905132D-01
    35  3.4000000000000D-01  1.5579064057123D+00 -4.2816927408594D-01
    36  3.5000000000000D-01  1.5658618579415D+00 -3.9846389490908D-01
    37  3.6000000000000D-01  1.5713860641141D+00 -3.6582389358337D-01
    38  3.7000000000000D-01  1.5744863711652D+00 -3.3028751563123D-01
    39  3.8000000000000D-01  1.5751713952490D+00 -2.9190548015107D-01
    40  3.9000000000000D-01  1.5734510430850D+00 -2.5074135510363D-01
    41  4.0000000000000D-01  1.5693366024014D+00 -2.0687187969927D-01
    42  4.1000000000000D-01  1.5628409008793D+00 -1.6038722563719D-01
    43  4.2000000000000D-01  1.5539785316232D+00 -1.1139118886565D-01
    44  4.3000000000000D-01  1.5427661417996D+00 -6.0001303564151D-02
    45  4.4000000000000D-01  1.5292227797237D+00 -6.3488702010920D-03
    46  4.5000000000000D-01  1.5133702943635D+00  4.9421110192622D-02
    47  4.6000000000000D-01  1.4952337799820D+00  1.0715010296653D-01
    48  4.7000000000000D-01  1.4748420574873D+00  1.6666631486574D-01
    49  4.8000000000000D-01  1.4522281830192D+00  2.2778508324251D-01
    50  4.9000000000000D-01  1.4274299733977D+00  2.9030938469778D-01
    51  5.0000000000000D-01  1.4004905373055D+00  3.5403046733484D-01
    52  5.1000000000000D-01  1.3714588004990D+00  4.1872860959368D-01
    53  5.2000000000000D-01  1.3403900129479D+00  4.8417400726380D-01
    54  5.3000000000000D-01  1.3073462256076D+00  5.5012778874637D-01
    55  5.4000000000000D-01  1.2723967245460D+00  6.1634315696556D-01
    56  5.5000000000000D-01  1.2356184103719D+00  6.8256665451721D-01
    57  5.6000000000000D-01  1.1970961113631D+00  7.4853954671205D-01
    58  5.7000000000000D-01  1.1569228193579D+00  8.1399931512423D-01
    59  5.8000000000000D-01  1.1151998383565D+00  8.7868125212263D-01
    60  5.9000000000000D-01  1.0720368368690D+00  9.4232014465401D-01
    61  6.0000000000000D-01  1.0275517963337D+00  1.0046520332879D+00
    62  6.1000000000000D-01  9.8187084940507D-01  1.0654160302495D+00
    63  6.2000000000000D-01  9.3512800354216D-01  1.1243561778816D+00
    64  6.3000000000000D-01  8.8746474712287D-01  1.1812233267116D+00
    65  6.4000000000000D-01  8.3902953720408D-01  1.2357770101040D+00
    66  6.5000000000000D-01  7.8997717006322D-01  1.2877872903408D+00
    67  6.6000000000000D-01  7.4046803772702D-01  1.3370365489698D+00
    68  6.7000000000000D-01  6.9066727579924D-01  1.3833211923857D+00
    69  6.8000000000000D-01  6.4074381003227D-01  1.4264532418998D+00
    70  6.9000000000000D-01  5.9086931117805D-01  1.4662617760455D+00
    71  7.0000000000000D-01  5.4121706969813D-01  1.5025941915797D+00
    72  7.1000000000000D-01  4.9196080386547D-01  1.5353172485867D+00
    73  7.2000000000000D-01  4.4327341663164D-01  1.5643178643150D+00
    74  7.3000000000000D-01  3.9532571831504D-01  1.5895036198731D+00
    75  7.4000000000000D-01  3.4828513367724D-01  1.6108029437119D+00
    76  7.5000000000000D-01  3.0231441326128D-01  1.6281649359280D+00
    77  7.6000000000000D-01  2.5757036994247D-01  1.6415587978442D+00
    78  7.7000000000000D-01  2.1420266247933D-01  1.6509728320708D+00
    79  7.8000000000000D-01  1.7235264841739D-01  1.6564129793160D+00
    80  7.9000000000000D-01  1.3215232899301D-01  1.6579008595898D+00
    81  8.0000000000000D-01  9.3723408627532D-02  1.6554712851949D+00
    82  8.1000000000000D-01  5.7176491665424D-02  1.6491692188057D+00
    83  8.2000000000000D-01  2.2610439560051D-02  1.6390462368412D+00
    84  8.3000000000000D-01 -9.8880905543623D-03  1.6251563383872D+00
    85  8.4000000000000D-01 -4.0244637536892D-02  1.6075613308236D+00
    86  8.5000000000000D-01 -6.8396989422223D-02  1.5863422656172D+00
    87  8.6000000000000D-01 -9.4295751315361D-02  1.5616020921710D+00
    88  8.7000000000000D-01 -1.1790494463197D-01  1.5334648268769D+00
    89  8.8000000000000D-01 -1.3920244943676D-01  1.5020748993172D+00
    90  8.9000000000000D-01 -1.5818030632380D-01  1.4675962359213D+00
    91  9.0000000000000D-01 -1.7484486810609D-01  1.4302111553482D+00
    92  9.1000000000000D-01 -1.8921679801410D-01  1.3901190861824D+00
    93  9.2000000000000D-01 -2.0133091313448D-01  1.3475351159439D+00
    94  9.3000000000000D-01 -2.1123587380542D-01  1.3026883839690D+00
    95  9.4000000000000D-01 -2.1899372174681D-01  1.2558203325922D+00
    96  9.5000000000000D-01 -2.2467927173814D-01  1.2071828328159D+00
    97  9.6000000000000D-01 -2.2837936363576D-01  1.1570362022480D+00
    98  9.7000000000000D-01 -2.3019198341581D-01  1.1056471345169D+00
    99  9.8000000000000D-01 -2.3022526372913D-01  1.0532865606076D+00
   100  9.9000000000000D-01 -2.2859637605736D-01  1.0002274635566D+00
   101  1.0000000000000D+00 -2.2543032811573D-01  9.4674266875997D-01
   102  1.0100000000000D+00 -2.2085868140353D-01  8.9310263266493D-01
   103  1.0200000000000D+00 -2.1501820493099D-01  8.3957325290428D-01
   104  1.0300000000000D+00 -2.0804948203741D-01  7.8641372296149D-01
   105  1.0400000000000D+00 -2.0009548787422D-01  7.3387445418201D-01
   106  1.0500000000000D+00 -1.9130015553214D-01  6.8219508746277D-01
   107  1.0600000000000D+00 -1.8180694898789D-01  6.3160261616128D-01
   108  1.0700000000000D+00 -1.7175746094137D-01  5.8230964069906D-01
   109  1.0800000000000D+00 -1.6129005329840D-01  5.3451277408146D-01
   110  1.0900000000000D+00 -1.5053855742549D-01  4.8839121592448D-01
   111  1.1000000000000D+00 -1.3963105056848D-01  4.4410551098973D-01
   112  1.1100000000000D+00 -1.2868872373720D-01  4.0179650615371D-01
   113  1.1200000000000D+00 -1.1782485507520D-01  3.6158451758787D-01
   114  1.1300000000000D+00 -1.0714390127125D-01  3.2356871762565D-01
   115  1.1400000000000D+00 -9.6740717943006D-02  2.8782674837750D-01
   116  1.1500000000000D+00 -8.6699918301315D-02  2.5441456681630D-01
   117  1.1600000000000D+00 -7.7095377167801D-02  2.2336652302548D-01
   118  1.1700000000000D+00 -6.7989885514092D-02  1.9469567083133D-01
   119  1.1800000000000D+00 -5.9434958808681D-02  1.6839430762375D-01
   120  1.1900000000000D+00 -5.1470800164492D-02  1.4443473730208D-01
   121  1.2000000000000D+00 -4.4126416994525D-02  1.2277024755257D-01
   122  1.2100000000000D+00 -3.7419887647854D-02  1.0333629007909D-01
   123  1.2200000000000D+00 -3.1358773364118D-02  8.6051851044086D-02
   124  1.2300000000000D+00 -2.5940667437234D-02  7.0820995121509D-02
   125  1.2400000000000D+00 -2.1153872339962D-02  5.7534565413518D-02
   126  1.2500000000000D+00 -1.6978194239028D-02  4.6072020015203D-02
   127  1.2600000000000D+00 -1.3385841762484D-02  3.6303383350684D-02
   128  1.2700000000000D+00 -1.0342414795603D-02  2.8091289467550D-02
   129  1.2800000000000D+00 -7.8079684097175D-03  2.1293093794619D-02
   130  1.2900000000000D+00 -5.7381351648754D-03  1.5763028152622D-02
   131  1.3000000000000D+00 -4.0852886406434D-03  1.1354373821623D-02
   132  1.3100000000000D+00 -2.7997307974662D-03  7.9216271734384D-03
   133  1.3200000000000D+00 -1.8308847485221D-03  5.3226318383960D-03
   134  1.3300000000000D+00 -1.1284754598200D-03  3.4206529418341D-03
   135  1.3400000000000D+00 -6.4368012916587D-04  2.0863678588268D-03
   136  1.3500000000000D+00 -3.3023104787741D-04  1.1997502007052D-03
   137  1.3600000000000D+00 -1.4545515257323D-04  6.5182547858305D-04
   138  1.3700000000000D+00 -5.1233051563230D-05  3.4627517984921D-04
   139  1.3800000000000D+00 -1.4922662416010D-05  2.0113766405731D-04
   140  1.3900000000000D+00 -9.8154485255613D-06  1.4864203300693D-04
   141  1.4000000000000D+00 -1.6064555275394D-05  1.3715706898249D-04
   142  1.4100000000000D+00 -2.3040612244269D-05  1.4474879441401D-04
   143  1.4200000000000D+00 -2.3974173457747D-05  1.4160538062430D-04
   144  1.4300000000000D+00 -1.3594218131197D-05  8.0426793878769D-05
   145  1.4400000000000D+00 -3.7834569946627D-07  2.2541265384574D-06
   146  1.4500000000000D+00  2.1598606430439D-06 -1.2597951141815D-05
   147  1.4600000000000D+00 -2.5782041945991D-07  1.5034586692244D-06
   148  1.4700000000000D+00 -3.9396418235137D-07  2.2946222691038D-06
   149  1.4800000000000D+00  5.0644764539755D-08 -2.9971342846969D-07
   150  1.4900000000000D+00  2.8637761772214D-08 -1.6947698034436D-07
   151  1.5000000000000D+00  0.0000000000000D+00  0.0000000000000D+00
   152  1.5100000000000D+00  0.0000000000000D+00  0.0000000000000D+00
   153  1.5200000000000D+00  0.0000000000000D+00  0.0000000000000D+00
   154  1.5300000000000D+00  0.0000000000000D+00  0.0000000000000D+00
   155  1.5400000000000D+00  0.0000000000000D+00  0.0000000000000D+00
   156  1.5500000000000D+00  0.0000000000000D+00  0.0000000000000D+00
   157  1.5600000000000D+00  0.0000000000000D+00  0.0000000000000D+00
   158  1.5700000000000D+00  0.0000000000000D+00  0.0000000000000D+00
   159  1.5800000000000D+00  0.0000000000000D+00  0.0000000000000D+00
   160  1.5900000000000D+00  0.0000000000000D+00  0.0000000000000D+00
   161  1.6000000000000D+00  0.0000000000000D+00  0.0000000000000D+00
   162  1.6100000000000D+00  0.0000000000000D+00  0.0000000000000D+00
   163  1.6200000000000D+00  0.0000000000000D+00  0.0000000000000D+00
   164  1.6300000000000D+00  0.0000000000000D+00  0.0000000000000D+00
   165  1.6400000000000D+00  0.0000000000000D+00  0.0000000000000D+00
   166  1.6500000000000D+00  0.0000000000000D+00  0.0000000000000D+00
   167  1.6600000000000D+00  0.0000000000000D+00  0.0000000000000D+00
   168  1.6700000000000D+00  0.0000000000000D+00  0.0000000000000D+00
   169  1.6800000000000D+00  0.0000000000000D+00  0.0000000000000D+00
   170  1.6900000000000D+00  0.0000000000000D+00  0.0000000000000D+00
   171  1.7000000000000D+00  0.0000000000000D+00  0.0000000000000D+00
   172  1.7100000000000D+00  0.0000000000000D+00  0.0000000000000D+00
   173  1.7200000000000D+00  0.0000000000000D+00  0.0000000000000D+00
   174  1.7300000000000D+00  0.0000000000000D+00  0.0000000000000D+00
   175  1.7400000000000D+00  0.0000000000000D+00  0.0000000000000D+00
   176  1.7500000000000D+00  0.0000000000000D+00  0.0000000000000D+00
   177  1.7600000000000D+00  0.0000000000000D+00  0.0000000000000D+00
   178  1.7700000000000D+00  0.0000000000000D+00  0.0000000000000D+00
   179  1.7800000000000D+00  0.0000000000000D+00  0.0000000000000D+00
   180  1.7900000000000D+00  0.0000000000000D+00  0.0000000000000D+00
   181  1.8000000000000D+00  0.0000000000000D+00  0.0000000000000D+00
   182  1.8100000000000D+00  0.0000000000000D+00  0.0000000000000D+00
   183  1.8200000000000D+00  0.0000000000000D+00  0.0000000000000D+00
   184  1.8300000000000D+00  0.0000000000000D+00  0.0000000000000D+00
   185  1.8400000000000D+00  0.0000000000000D+00  0.0000000000000D+00
   186  1.8500000000000D+00  0.0000000000000D+00  0.0000000000000D+00
   187  1.8600000000000D+00  0.0000000000000D+00  0.0000000000000D+00
   188  1.8700000000000D+00  0.0000000000000D+00  0.0000000000000D+00
   189  1.8800000000000D+00  0.0000000000000D+00  0.0000000000000D+00
   190  1.8900000000000D+00  0.0000000000000D+00  0.0000000000000D+00
   191  1.9000000000000D+00  0.0000000000000D+00  0.0000000000000D+00
   192  1.9100000000000D+00  0.0000000000000D+00  0.0000000000000D+00
   193  1.9200000000000D+00  0.0000000000000D+00  0.0000000000000D+00
   194  1.9300000000000D+00  0.0000000000000D+00  0.0000000000000D+00
   195  1.9400000000000D+00  0.0000000000000D+00  0.0000000000000D+00
   196  1.9500000000000D+00  0.0000000000000D+00  0.0000000000000D+00
   197  1.9600000000000D+00  0.0000000000000D+00  0.0000000000000D+00
   198  1.9700000000000D+00  0.0000000000000D+00  0.0000000000000D+00
   199  1.9800000000000D+00  0.0000000000000D+00  0.0000000000000D+00
   200  1.9900000000000D+00  0.0000000000000D+00  0.0000000000000D+00
   201  2.0000000000000D+00  0.0000000000000D+00  0.0000000000000D+00
   202  2.0100000000000D+00  0.0000000000000D+00  0.0000000000000D+00
   203  2.0200000000000D+00  0.0000000000000D+00  0.0000000000000D+00
   204  2.0300000000000D+00  0.0000000000000D+00  0.0000000000000D+00
   205  2.0400000000000D+00  0.0000000000000D+00  0.0000000000000D+00
   206  2.0500000000000D+00  0.0000000000000D+00  0.0000000000000D+00
   207  2.0600000000000D+00  0.0000000000000D+00  0.0000000000000D+00
   208  2.0700000000000D+00  0.0000000000000D+00  0.0000000000000D+00
   209  2.0800000000000D+00  0.0000000000000D+00  0.0000000000000D+00
   210  2.0900000000000D+00  0.0000000000000D+00  0.0000000000000D+00
   211  2.1000000000000D+00  0.0000000000000D+00  0.0000000000000D+00
   212  2.1100000000000D+00  0.0000000000000D+00  0.0000000000000D+00
   213  2.1200000000000D+00  0.0000000000000D+00  0.0000000000000D+00
   214  2.1300000000000D+00  0.0000000000000D+00  0.0000000000000D+00
   215  2.1400000000000D+00  0.0000000000000D+00  0.0000000000000D+00
   216  2.1500000000000D+00  0.0000000000000D+00  0.0000000000000D+00
   217  2.1600000000000D+00  0.0000000000000D+00  0.0000000000000D+00
   218  2.1700000000000D+00  0.0000000000000D+00  0.0000000000000D+00
   219  2.1800000000000D+00  0.0000000000000D+00  0.0000000000000D+00
   220  2.1900000000000D+00  0.0000000000000D+00  0.0000000000000D+00
   221  2.2000000000000D+00  0.0000000000000D+00  0.0000000000000D+00
   222  2.2100000000000D+00  0.0000000000000D+00  0.0000000000000D+00
   223  2.2200000000000D+00  0.0000000000000D+00  0.0000000000000D+00
   224  2.2300000000000D+00  0.0000000000000D+00  0.0000000000000D+00
   225  2.2400000000000D+00  0.0000000000000D+00  0.0000000000000D+00
   226  2.2500000000000D+00  0.0000000000000D+00  0.0000000000000D+00
   227  2.2600000000000D+00  0.0000000000000D+00  0.0000000000000D+00
   228  2.2700000000000D+00  0.0000000000000D+00  0.0000000000000D+00
   229  2.2800000000000D+00  0.0000000000000D+00  0.0000000000000D+00
   230  2.2900000000000D+00  0.0000000000000D+00  0.0000000000000D+00
   231  2.3000000000000D+00  0.0000000000000D+00  0.0000000000000D+00
   232  2.3100000000000D+00  0.0000000000000D+00  0.0000000000000D+00
   233  2.3200000000000D+00  0.0000000000000D+00  0.0000000000000D+00
   234  2.3300000000000D+00  0.0000000000000D+00  0.0000000000000D+00
   235  2.3400000000000D+00  0.0000000000000D+00  0.0000000000000D+00
   236  2.3500000000000D+00  0.0000000000000D+00  0.0000000000000D+00
   237  2.3600000000000D+00  0.0000000000000D+00  0.0000000000000D+00
   238  2.3700000000000D+00  0.0000000000000D+00  0.0000000000000D+00
   239  2.3800000000000D+00  0.0000000000000D+00  0.0000000000000D+00
   240  2.3900000000000D+00  0.0000000000000D+00  0.0000000000000D+00
   241  2.4000000000000D+00  0.0000000000000D+00  0.0000000000000D+00
   242  2.4100000000000D+00  0.0000000000000D+00  0.0000000000000D+00
   243  2.4200000000000D+00  0.0000000000000D+00  0.0000000000000D+00
   244  2.4300000000000D+00  0.0000000000000D+00  0.0000000000000D+00
   245  2.4400000000000D+00  0.0000000000000D+00  0.0000000000000D+00
   246  2.4500000000000D+00  0.0000000000000D+00  0.0000000000000D+00
   247  2.4600000000000D+00  0.0000000000000D+00  0.0000000000000D+00
   248  2.4700000000000D+00  0.0000000000000D+00  0.0000000000000D+00
   249  2.4800000000000D+00  0.0000000000000D+00  0.0000000000000D+00
   250  2.4900000000000D+00  0.0000000000000D+00  0.0000000000000D+00
   251  2.5000000000000D+00  0.0000000000000D+00  0.0000000000000D+00
   252  2.5100000000000D+00  0.0000000000000D+00  0.0000000000000D+00
   253  2.5200000000000D+00  0.0000000000000D+00  0.0000000000000D+00
   254  2.5300000000000D+00  0.0000000000000D+00  0.0000000000000D+00
   255  2.5400000000000D+00  0.0000000000000D+00  0.0000000000000D+00
   256  2.5500000000000D+00  0.0000000000000D+00  0.0000000000000D+00
   257  2.5600000000000D+00  0.0000000000000D+00  0.0000000000000D+00
   258  2.5700000000000D+00  0.0000000000000D+00  0.0000000000000D+00
   259  2.5800000000000D+00  0.0000000000000D+00  0.0000000000000D+00
   260  2.5900000000000D+00  0.0000000000000D+00  0.0000000000000D+00
   261  2.6000000000000D+00  0.0000000000000D+00  0.0000000000000D+00
   262  2.6100000000000D+00  0.0000000000000D+00  0.0000000000000D+00
   263  2.6200000000000D+00  0.0000000000000D+00  0.0000000000000D+00
   264  2.6300000000000D+00  0.0000000000000D+00  0.0000000000000D+00
   265  2.6400000000000D+00  0.0000000000000D+00  0.0000000000000D+00
   266  2.6500000000000D+00  0.0000000000000D+00  0.0000000000000D+00
   267  2.6600000000000D+00  0.0000000000000D+00  0.0000000000000D+00
   268  2.6700000000000D+00  0.0000000000000D+00  0.0000000000000D+00
   269  2.6800000000000D+00  0.0000000000000D+00  0.0000000000000D+00
   270  2.6900000000000D+00  0.0000000000000D+00  0.0000000000000D+00
   271  2.7000000000000D+00  0.0000000000000D+00  0.0000000000000D+00
   272  2.7100000000000D+00  0.0000000000000D+00  0.0000000000000D+00
   273  2.7200000000000D+00  0.0000000000000D+00  0.0000000000000D+00
   274  2.7300000000000D+00  0.0000000000000D+00  0.0000000000000D+00
   275  2.7400000000000D+00  0.0000000000000D+00  0.0000000000000D+00
   276  2.7500000000000D+00  0.0000000000000D+00  0.0000000000000D+00
   277  2.7600000000000D+00  0.0000000000000D+00  0.0000000000000D+00
   278  2.7700000000000D+00  0.0000000000000D+00  0.0000000000000D+00
   279  2.7800000000000D+00  0.0000000000000D+00  0.0000000000000D+00
   280  2.7900000000000D+00  0.0000000000000D+00  0.0000000000000D+00
   281  2.8000000000000D+00  0.0000000000000D+00  0.0000000000000D+00
   282  2.8100000000000D+00  0.0000000000000D+00  0.0000000000000D+00
   283  2.8200000000000D+00  0.0000000000000D+00  0.0000000000000D+00
   284  2.8300000000000D+00  0.0000000000000D+00  0.0000000000000D+00
   285  2.8400000000000D+00  0.0000000000000D+00  0.0000000000000D+00
   286  2.8500000000000D+00  0.0000000000000D+00  0.0000000000000D+00
   287  2.8600000000000D+00  0.0000000000000D+00  0.0000000000000D+00
   288  2.8700000000000D+00  0.0000000000000D+00  0.0000000000000D+00
   289  2.8800000000000D+00  0.0000000000000D+00  0.0000000000000D+00
   290  2.8900000000000D+00  0.0000000000000D+00  0.0000000000000D+00
   291  2.9000000000000D+00  0.0000000000000D+00  0.0000000000000D+00
   292  2.9100000000000D+00  0.0000000000000D+00  0.0000000000000D+00
   293  2.9200000000000D+00  0.0000000000000D+00  0.0000000000000D+00
   294  2.9300000000000D+00  0.0000000000000D+00  0.0000000000000D+00
   295  2.9400000000000D+00  0.0000000000000D+00  0.0000000000000D+00
   296  2.9500000000000D+00  0.0000000000000D+00  0.0000000000000D+00
   297  2.9600000000000D+00  0.0000000000000D+00  0.0000000000000D+00
   298  2.9700000000000D+00  0.0000000000000D+00  0.0000000000000D+00
   299  2.9800000000000D+00  0.0000000000000D+00  0.0000000000000D+00
   300  2.9900000000000D+00  0.0000000000000D+00  0.0000000000000D+00
   301  3.0000000000000D+00  0.0000000000000D+00  0.0000000000000D+00
   302  3.0100000000000D+00  0.0000000000000D+00  0.0000000000000D+00
   303  3.0200000000000D+00  0.0000000000000D+00  0.0000000000000D+00
   304  3.0300000000000D+00  0.0000000000000D+00  0.0000000000000D+00
   305  3.0400000000000D+00  0.0000000000000D+00  0.0000000000000D+00
   306  3.0500000000000D+00  0.0000000000000D+00  0.0000000000000D+00
   307  3.0600000000000D+00  0.0000000000000D+00  0.0000000000000D+00
   308  3.0700000000000D+00  0.0000000000000D+00  0.0000000000000D+00
   309  3.0800000000000D+00  0.0000000000000D+00  0.0000000000000D+00
   310  3.0900000000000D+00  0.0000000000000D+00  0.0000000000000D+00
   311  3.1000000000000D+00  0.0000000000000D+00  0.0000000000000D+00
   312  3.1100000000000D+00  0.0000000000000D+00  0.0000000000000D+00
   313  3.1200000000000D+00  0.0000000000000D+00  0.0000000000000D+00
   314  3.1300000000000D+00  0.0000000000000D+00  0.0000000000000D+00
   315  3.1400000000000D+00  0.0000000000000D+00  0.0000000000000D+00
   316  3.1500000000000D+00  0.0000000000000D+00  0.0000000000000D+00
   317  3.1600000000000D+00  0.0000000000000D+00  0.0000000000000D+00
   318  3.1700000000000D+00  0.0000000000000D+00  0.0000000000000D+00
   319  3.1800000000000D+00  0.0000000000000D+00  0.0000000000000D+00
   320  3.1900000000000D+00  0.0000000000000D+00  0.0000000000000D+00
   321  3.2000000000000D+00  0.0000000000000D+00  0.0000000000000D+00
   322  3.2100000000000D+00  0.0000000000000D+00  0.0000000000000D+00
   323  3.2200000000000D+00  0.0000000000000D+00  0.0000000000000D+00
   324  3.2300000000000D+00  0.0000000000000D+00  0.0000000000000D+00
   325  3.2400000000000D+00  0.0000000000000D+00  0.0000000000000D+00
   326  3.2500000000000D+00  0.0000000000000D+00  0.0000000000000D+00
   327  3.2600000000000D+00  0.0000000000000D+00  0.0000000000000D+00
   328  3.2700000000000D+00  0.0000000000000D+00  0.0000000000000D+00
   329  3.2800000000000D+00  0.0000000000000D+00  0.0000000000000D+00
   330  3.2900000000000D+00  0.0000000000000D+00  0.0000000000000D+00
   331  3.3000000000000D+00  0.0000000000000D+00  0.0000000000000D+00
   332  3.3100000000000D+00  0.0000000000000D+00  0.0000000000000D+00
   333  3.3200000000000D+00  0.0000000000000D+00  0.0000000000000D+00
   334  3.3300000000000D+00  0.0000000000000D+00  0.0000000000000D+00
   335  3.3400000000000D+00  0.0000000000000D+00  0.0000000000000D+00
   336  3.3500000000000D+00  0.0000000000000D+00  0.0000000000000D+00
   337  3.3600000000000D+00  0.0000000000000D+00  0.0000000000000D+00
   338  3.3700000000000D+00  0.0000000000000D+00  0.0000000000000D+00
   339  3.3800000000000D+00  0.0000000000000D+00  0.0000000000000D+00
   340  3.3900000000000D+00  0.0000000000000D+00  0.0000000000000D+00
   341  3.4000000000000D+00  0.0000000000000D+00  0.0000000000000D+00
   342  3.4100000000000D+00  0.0000000000000D+00  0.0000000000000D+00
   343  3.4200000000000D+00  0.0000000000000D+00  0.0000000000000D+00
   344  3.4300000000000D+00  0.0000000000000D+00  0.0000000000000D+00
   345  3.4400000000000D+00  0.0000000000000D+00  0.0000000000000D+00
   346  3.4500000000000D+00  0.0000000000000D+00  0.0000000000000D+00
   347  3.4600000000000D+00  0.0000000000000D+00  0.0000000000000D+00
   348  3.4700000000000D+00  0.0000000000000D+00  0.0000000000000D+00
   349  3.4800000000000D+00  0.0000000000000D+00  0.0000000000000D+00
   350  3.4900000000000D+00  0.0000000000000D+00  0.0000000000000D+00
   351  3.5000000000000D+00  0.0000000000000D+00  0.0000000000000D+00
   352  3.5100000000000D+00  0.0000000000000D+00  0.0000000000000D+00
   353  3.5200000000000D+00  0.0000000000000D+00  0.0000000000000D+00
   354  3.5300000000000D+00  0.0000000000000D+00  0.0000000000000D+00
   355  3.5400000000000D+00  0.0000000000000D+00  0.0000000000000D+00
   356  3.5500000000000D+00  0.0000000000000D+00  0.0000000000000D+00
   357  3.5600000000000D+00  0.0000000000000D+00  0.0000000000000D+00
   358  3.5700000000000D+00  0.0000000000000D+00  0.0000000000000D+00
   359  3.5800000000000D+00  0.0000000000000D+00  0.0000000000000D+00
   360  3.5900000000000D+00  0.0000000000000D+00  0.0000000000000D+00
   361  3.6000000000000D+00  0.0000000000000D+00  0.0000000000000D+00
   362  3.6100000000000D+00  0.0000000000000D+00  0.0000000000000D+00
   363  3.6200000000000D+00  0.0000000000000D+00  0.0000000000000D+00
   364  3.6300000000000D+00  0.0000000000000D+00  0.0000000000000D+00
   365  3.6400000000000D+00  0.0000000000000D+00  0.0000000000000D+00
   366  3.6500000000000D+00  0.0000000000000D+00  0.0000000000000D+00
   367  3.6600000000000D+00  0.0000000000000D+00  0.0000000000000D+00
   368  3.6700000000000D+00  0.0000000000000D+00  0.0000000000000D+00
   369  3.6800000000000D+00  0.0000000000000D+00  0.0000000000000D+00
   370  3.6900000000000D+00  0.0000000000000D+00  0.0000000000000D+00
   371  3.7000000000000D+00  0.0000000000000D+00  0.0000000000000D+00
   372  3.7100000000000D+00  0.0000000000000D+00  0.0000000000000D+00
   373  3.7200000000000D+00  0.0000000000000D+00  0.0000000000000D+00
   374  3.7300000000000D+00  0.0000000000000D+00  0.0000000000000D+00
   375  3.7400000000000D+00  0.0000000000000D+00  0.0000000000000D+00
   376  3.7500000000000D+00  0.0000000000000D+00  0.0000000000000D+00
   377  3.7600000000000D+00  0.0000000000000D+00  0.0000000000000D+00
   378  3.7700000000000D+00  0.0000000000000D+00  0.0000000000000D+00
   379  3.7800000000000D+00  0.0000000000000D+00  0.0000000000000D+00
   380  3.7900000000000D+00  0.0000000000000D+00  0.0000000000000D+00
   381  3.8000000000000D+00  0.0000000000000D+00  0.0000000000000D+00
   382  3.8100000000000D+00  0.0000000000000D+00  0.0000000000000D+00
   383  3.8200000000000D+00  0.0000000000000D+00  0.0000000000000D+00
   384  3.8300000000000D+00  0.0000000000000D+00  0.0000000000000D+00
   385  3.8400000000000D+00  0.0000000000000D+00  0.0000000000000D+00
   386  3.8500000000000D+00  0.0000000000000D+00  0.0000000000000D+00
   387  3.8600000000000D+00  0.0000000000000D+00  0.0000000000000D+00
   388  3.8700000000000D+00  0.0000000000000D+00  0.0000000000000D+00
   389  3.8800000000000D+00  0.0000000000000D+00  0.0000000000000D+00
   390  3.8900000000000D+00  0.0000000000000D+00  0.0000000000000D+00
   391  3.9000000000000D+00  0.0000000000000D+00  0.0000000000000D+00
   392  3.9100000000000D+00  0.0000000000000D+00  0.0000000000000D+00
   393  3.9200000000000D+00  0.0000000000000D+00  0.0000000000000D+00
   394  3.9300000000000D+00  0.0000000000000D+00  0.0000000000000D+00
   395  3.9400000000000D+00  0.0000000000000D+00  0.0000000000000D+00
   396  3.9500000000000D+00  0.0000000000000D+00  0.0000000000000D+00
   397  3.9600000000000D+00  0.0000000000000D+00  0.0000000000000D+00
   398  3.9700000000000D+00  0.0000000000000D+00  0.0000000000000D+00
   399  3.9800000000000D+00  0.0000000000000D+00  0.0000000000000D+00
   400  3.9900000000000D+00  0.0000000000000D+00  0.0000000000000D+00
   401  4.0000000000000D+00  0.0000000000000D+00  0.0000000000000D+00
   402  4.0100000000000D+00  0.0000000000000D+00  0.0000000000000D+00
   403  4.0200000000000D+00  0.0000000000000D+00  0.0000000000000D+00
   404  4.0300000000000D+00  0.0000000000000D+00  0.0000000000000D+00
   405  4.0400000000000D+00  0.0000000000000D+00  0.0000000000000D+00
   406  4.0500000000000D+00  0.0000000000000D+00  0.0000000000000D+00
   407  4.0600000000000D+00  0.0000000000000D+00  0.0000000000000D+00
   408  4.0700000000000D+00  0.0000000000000D+00  0.0000000000000D+00
   409  4.0800000000000D+00  0.0000000000000D+00  0.0000000000000D+00
   410  4.0900000000000D+00  0.0000000000000D+00  0.0000000000000D+00
   411  4.1000000000000D+00  0.0000000000000D+00  0.0000000000000D+00
   412  4.1100000000000D+00  0.0000000000000D+00  0.0000000000000D+00
   413  4.1200000000000D+00  0.0000000000000D+00  0.0000000000000D+00
   414  4.1300000000000D+00  0.0000000000000D+00  0.0000000000000D+00
   415  4.1400000000000D+00  0.0000000000000D+00  0.0000000000000D+00
   416  4.1500000000000D+00  0.0000000000000D+00  0.0000000000000D+00
   417  4.1600000000000D+00  0.0000000000000D+00  0.0000000000000D+00
   418  4.1700000000000D+00  0.0000000000000D+00  0.0000000000000D+00
   419  4.1800000000000D+00  0.0000000000000D+00  0.0000000000000D+00
   420  4.1900000000000D+00  0.0000000000000D+00  0.0000000000000D+00
   421  4.2000000000000D+00  0.0000000000000D+00  0.0000000000000D+00
   422  4.2100000000000D+00  0.0000000000000D+00  0.0000000000000D+00
   423  4.2200000000000D+00  0.0000000000000D+00  0.0000000000000D+00