Cd    ONCVPSP-3.3.1  r_core=   2.33990   2.70000   3.04207
     48.0000     20.0000      210904    zatom,zion,pspd
     8       2   2     4   600     0    pspcod,pspxc,lmax,lloc,mmax,r2well
  5.99000000  0.00000000  0.00000000    rchrg fchrg qchrg
     2     3     3     0    nproj
     3     1           extension_switch
     4     3     0    nprojso
   0                        -7.1572454255161D-01  1.9296130033564D+00
     1  0.0000000000000D+00  5.2760296131993D-12 -1.8257617639961D-12
     2  1.0000000000000D-02  1.5694298187198D-02  5.6359587532482D-02
     3  2.0000000000000D-02  3.1401800665670D-02  1.1261392898939D-01
     4  3.0000000000000D-02  4.7135632859606D-02  1.6865798614771D-01
     5  4.0000000000000D-02  6.2908762783382D-02  2.2438713610290D-01
     6  5.0000000000000D-02  7.8733923146197D-02  2.7969737796164D-01
     7  6.0000000000000D-02  9.4623534424449D-02  3.3448553837639D-01
     8  7.0000000000000D-02  1.1058962921822D-01  3.8864947553739D-01
     9  8.0000000000000D-02  1.2664377820296D-01  4.4208828124029D-01
    10  9.0000000000000D-02  1.4279701798102D-01  4.9470248064924D-01
    11  1.0000000000000D-01  1.5905978112954D-01  5.4639422937847D-01
    12  1.1000000000000D-01  1.7544182873275D-01  5.9706750751853D-01
    13  1.2000000000000D-01  1.9195218567589D-01  6.4662831023686D-01
    14  1.3000000000000D-01  2.0859907896712D-01  6.9498483458697D-01
    15  1.4000000000000D-01  2.2538987934108D-01  7.4204766216471D-01
    16  1.5000000000000D-01  2.4233104638439D-01  7.8772993725584D-01
    17  1.6000000000000D-01  2.5942807740894D-01  8.3194754012438D-01
    18  1.7000000000000D-01  2.7668546028336D-01  8.7461925509784D-01
    19  1.8000000000000D-01  2.9410663041698D-01  9.1566693311176D-01
    20  1.9000000000000D-01  3.1169393207332D-01  9.5501564838387D-01
    21  2.0000000000000D-01  3.2944858417275D-01  9.9259384889548D-01
    22  2.1000000000000D-01  3.4737065072530D-01  1.0283335003665D+00
    23  2.2000000000000D-01  3.6545901601572D-01  1.0621702234197D+00
    24  2.3000000000000D-01  3.8371136464351D-01  1.0940434236379D+00
    25  2.4000000000000D-01  4.0212416650079D-01  1.1238964142316D+00
    26  2.5000000000000D-01  4.2069266675069D-01  1.1516765310395D+00
    27  2.6000000000000D-01  4.3941088084843D-01  1.1773352396024D+00
    28  2.7000000000000D-01  4.5827159462696D-01  1.2008282340575D+00
    29  2.8000000000000D-01  4.7726636944819D-01  1.2221155276164D+00
    30  2.9000000000000D-01  4.9638555240026D-01  1.2411615344000D+00
    31  3.0000000000000D-01  5.1561829150094D-01  1.2579351424218D+00
    32  3.1000000000000D-01  5.3495255584683D-01  1.2724097775213D+00
    33  3.2000000000000D-01  5.5437516062799D-01  1.2845634580665D+00
    34  3.3000000000000D-01  5.7387179690818D-01  1.2943788402601D+00
    35  3.4000000000000D-01  5.9342706605130D-01  1.3018432539008D+00
    36  3.5000000000000D-01  6.1302451865638D-01  1.3069487284664D+00
    37  3.6000000000000D-01  6.3264669784506D-01  1.3096920094054D+00
    38  3.7000000000000D-01  6.5227518672819D-01  1.3100745645403D+00
    39  3.8000000000000D-01  6.7189065986164D-01  1.3081025805054D+00
    40  3.9000000000000D-01  6.9147293848550D-01  1.3037869491619D+00
    41  4.0000000000000D-01  7.1100104932583D-01  1.2971432439509D+00
    42  4.1000000000000D-01  7.3045328672443D-01  1.2881916861688D+00
    43  4.2000000000000D-01  7.4980727784874D-01  1.2769571011676D+00
    44  4.3000000000000D-01  7.6904005072251D-01  1.2634688645058D+00
    45  4.4000000000000D-01  7.8812810480666D-01  1.2477608380968D+00
    46  4.5000000000000D-01  8.0704748385056D-01  1.2298712964253D+00
    47  4.6000000000000D-01  8.2577385072508D-01  1.2098428429230D+00
    48  4.7000000000000D-01  8.4428256394199D-01  1.1877223166195D+00
    49  4.8000000000000D-01  8.6254875555808D-01  1.1635606892075D+00
    50  4.9000000000000D-01  8.8054741015772D-01  1.1374129526846D+00
    51  5.0000000000000D-01  8.9825344460441D-01  1.1093379977582D+00
    52  5.1000000000000D-01  9.1564178824966D-01  1.0793984832221D+00
    53  5.2000000000000D-01  9.3268746328687D-01  1.0476606965424D+00
    54  5.3000000000000D-01  9.4936566493847D-01  1.0141944059061D+00
    55  5.4000000000000D-01  9.6565184116658D-01  9.7907270401832D-01
    56  5.5000000000000D-01  9.8152177160036D-01  9.4237184395172D-01
    57  5.6000000000000D-01  9.9695164537820D-01  9.0417106737724D-01
    58  5.7000000000000D-01  1.0119181376082D+00  8.6455242552915D-01
    59  5.8000000000000D-01  1.0263984841572D+00  8.2360059327894D-01
    60  5.9000000000000D-01  1.0403705544883D+00  7.8140267671544D-01
    61  6.0000000000000D-01  1.0538129222732D+00  7.3804801465030D-01
    62  6.1000000000000D-01  1.0667049335192D+00  6.9362797448894D-01
    63  6.2000000000000D-01  1.0790267719608D+00  6.4823574292752D-01
    64  6.3000000000000D-01  1.0907595214780D+00  6.0196611195587D-01
    65  6.4000000000000D-01  1.1018852253169D+00  5.5491526066520D-01
    66  6.5000000000000D-01  1.1123869419042D+00  5.0718053337664D-01
    67  6.6000000000000D-01  1.1222487970602D+00  4.5886021462352D-01
    68  6.7000000000000D-01  1.1314560324314D+00  4.1005330153528D-01
    69  6.8000000000000D-01  1.1399950499815D+00  3.6085927418538D-01
    70  6.9000000000000D-01  1.1478534523952D+00  3.1137786447756D-01
    71  7.0000000000000D-01  1.1550200792679D+00  2.6170882415676D-01
    72  7.1000000000000D-01  1.1614850389721D+00  2.1195169254020D-01
    73  7.2000000000000D-01  1.1672397361099D+00  1.6220556457229D-01
    74  7.3000000000000D-01  1.1722768944796D+00  1.1256885981356D-01
    75  7.4000000000000D-01  1.1765905755029D+00  6.3139092978210D-02
    76  7.5000000000000D-01  1.1801761920802D+00  1.4012646637902D-02
    77  7.6000000000000D-01  1.1830305178564D+00 -3.4715453289905D-02
    78  7.7000000000000D-01  1.1851516919035D+00 -8.2951758651584D-02
    79  7.8000000000000D-01  1.1865392188417D+00 -1.3060461615059D-01
    80  7.9000000000000D-01  1.1871939644388D+00 -1.7758437981499D-01
    81  8.0000000000000D-01  1.1871181467499D+00 -2.2380361823696D-01
    82  8.1000000000000D-01  1.1863153228719D+00 -2.6917731599123D-01
    83  8.2000000000000D-01  1.1847903714081D+00 -3.1362306865067D-01
    84  8.3000000000000D-01  1.1825494707541D+00 -3.5706127083055D-01
    85  8.4000000000000D-01  1.1796000733318D+00 -3.9941529670865D-01
    86  8.5000000000000D-01  1.1759508759134D+00 -4.4061167248586D-01
    87  8.6000000000000D-01  1.1716117861927D+00 -4.8058024027162D-01
    88  8.7000000000000D-01  1.1665938857750D+00 -5.1925431290033D-01
    89  8.8000000000000D-01  1.1609093897672D+00 -5.5657081920860D-01
    90  8.9000000000000D-01  1.1545716031659D+00 -5.9247043932872D-01
    91  9.0000000000000D-01  1.1475948742477D+00 -6.2689772958169D-01
    92  9.1000000000000D-01  1.1399945451791D+00 -6.5980123658211D-01
    93  9.2000000000000D-01  1.1317869000704D+00 -6.9113360019890D-01
    94  9.3000000000000D-01  1.1229891107063D+00 -7.2085164504822D-01
    95  9.4000000000000D-01  1.1136191801924D+00 -7.4891646022969D-01
    96  9.5000000000000D-01  1.1036958847624D+00 -7.7529346705260D-01
    97  9.6000000000000D-01  1.0932387139947D+00 -7.9995247453620D-01
    98  9.7000000000000D-01  1.0822678096906D+00 -8.2286772250640D-01
    99  9.8000000000000D-01  1.0708039036672D+00 -8.4401791215068D-01
   100  9.9000000000000D-01  1.0588682547213D+00 -8.6338622393325D-01
   101  1.0000000000000D+00  1.0464825850172D+00 -8.8096032281456D-01
   102  1.0100000000000D+00  1.0336690161509D+00 -8.9673235075903D-01
   103  1.0200000000000D+00  1.0204500051431D+00 -9.1069890655926D-01
   104  1.0300000000000D+00  1.0068482806041D+00 -9.2286101304620D-01
   105  1.0400000000000D+00  9.9288677931525D-01 -9.3322407179782D-01
   106  1.0500000000000D+00  9.7858858346043D-01 -9.4179780550076D-01
   107  1.0600000000000D+00  9.6397685873790D-01 -9.4859618816377D-01
   108  1.0700000000000D+00  9.4907479357327D-01 -9.5363736341918D-01
   109  1.0800000000000D+00  9.3390553964629D-01 -9.5694355119501D-01
   110  1.0900000000000D+00  9.1849215393463D-01 -9.5854094307750D-01
   111  1.1000000000000D+00  9.0285754246779D-01 -9.5845958672419D-01
   112  1.1100000000000D+00  8.8702440597254D-01 -9.5673325972713D-01
   113  1.1200000000000D+00  8.7101518758186D-01 -9.5339933335796D-01
   114  1.1300000000000D+00  8.5485202276438D-01 -9.4849862666927D-01
   115  1.1400000000000D+00  8.3855669162101D-01 -9.4207525145424D-01
   116  1.1500000000000D+00  8.2215057368000D-01 -9.3417644860336D-01
   117  1.1600000000000D+00  8.0565460531245D-01 -9.2485241641852D-01
   118  1.1700000000000D+00  7.8908923987163D-01 -9.1415613148354D-01
   119  1.1800000000000D+00  7.7247441064802D-01 -9.0214316270777D-01
   120  1.1900000000000D+00  7.5582949671817D-01 -8.8887147918408D-01
   121  1.2000000000000D+00  7.3917329175203D-01 -8.7440125252195D-01
   122  1.2100000000000D+00  7.2252397582671D-01 -8.5879465433746D-01
   123  1.2200000000000D+00  7.0589909028055D-01 -8.4211564959420D-01
   124  1.2300000000000D+00  6.8931551563429D-01 -8.2442978649782D-01
   125  1.2400000000000D+00  6.7278945258286D-01 -8.0580398366405D-01
   126  1.2500000000000D+00  6.5633640605202D-01 -7.8630631527856D-01
   127  1.2600000000000D+00  6.3997117230568D-01 -7.6600579497282D-01
   128  1.2700000000000D+00  6.2370782907048D-01 -7.4497215914240D-01
   129  1.2800000000000D+00  6.0755972863227D-01 -7.2327565042467D-01
   130  1.2900000000000D+00  5.9153949385523D-01 -7.0098680205348D-01
   131  1.3000000000000D+00  5.7565901705550D-01 -6.7817622379821D-01
   132  1.3100000000000D+00  5.5992946165046D-01 -6.5491439017057D-01
   133  1.3200000000000D+00  5.4436126650482D-01 -6.3127143158884D-01
   134  1.3300000000000D+00  5.2896415287461D-01 -6.0731692915621D-01
   135  1.3400000000000D+00  5.1374713384424D-01 -5.8311971367381D-01
   136  1.3500000000000D+00  4.9871852615452D-01 -5.5874766953701D-01
   137  1.3600000000000D+00  4.8388596429618D-01 -5.3426754407248D-01
   138  1.3700000000000D+00  4.6925641675036D-01 -5.0974476287836D-01
   139  1.3800000000000D+00  4.5483620424976D-01 -4.8524325172589D-01
   140  1.3900000000000D+00  4.4063101992375D-01 -4.6082526546368D-01
   141  1.4000000000000D+00  4.2664595119709D-01 -4.3655122443259D-01
   142  1.4100000000000D+00  4.1288550330071D-01 -4.1247955879388D-01
   143  1.4200000000000D+00  3.9935362425674D-01 -3.8866656111837D-01
   144  1.4300000000000D+00  3.8605373119615D-01 -3.6516624766160D-01
   145  1.4400000000000D+00  3.7298873786892D-01 -3.4203022851595D-01
   146  1.4500000000000D+00  3.6016108320603D-01 -3.1930758698998D-01
   147  1.4600000000000D+00  3.4757276079330D-01 -2.9704476837875D-01
   148  1.4700000000000D+00  3.3522534912468D-01 -2.7528547827296D-01
   149  1.4800000000000D+00  3.2312004249143D-01 -2.5407059062221D-01
   150  1.4900000000000D+00  3.1125768239131D-01 -2.3343806547335D-01
   151  1.5000000000000D+00  2.9963878931237D-01 -2.1342287660694D-01
   152  1.5100000000000D+00  2.8826359478754D-01 -1.9405694887550D-01
   153  1.5200000000000D+00  2.7713207358908D-01 -1.7536910532302D-01
   154  1.5300000000000D+00  2.6624397595686D-01 -1.5738502391582D-01
   155  1.5400000000000D+00  2.5559885975912D-01 -1.4012720373775D-01
   156  1.5500000000000D+00  2.4519612247035D-01 -1.2361494054022D-01
   157  1.5600000000000D+00  2.3503503290156D-01 -1.0786431127927D-01
   158  1.5700000000000D+00  2.2511476255627D-01 -9.2888167578519D-02
   159  1.5800000000000D+00  2.1543441658521D-01 -7.8696137570037D-02
   160  1.5900000000000D+00  2.0599306420809D-01 -6.5294636050200D-02
   161  1.6000000000000D+00  1.9678976860003D-01 -5.2686882315703D-02
   162  1.6100000000000D+00  1.8782361612676D-01 -4.0872925521734D-02
   163  1.6200000000000D+00  1.7909374493149D-01 -2.9849676935074D-02
   164  1.6300000000000D+00  1.7059937278516D-01 -1.9610948796760D-02
   165  1.6400000000000D+00  1.6233982498786D-01 -1.0147497594787D-02
   166  1.6500000000000D+00  1.5431455796515D-01 -1.4470800909034D-03
   167  1.6600000000000D+00  1.4652319194965D-01  6.5055064195624D-03
   168  1.6700000000000D+00  1.3896552009035D-01  1.3728329723731D-02
   169  1.6800000000000D+00  1.3164151878135D-01  2.0242233442025D-02
   170  1.6900000000000D+00  1.2455148103436D-01  2.6070995281744D-02
   171  1.7000000000000D+00  1.1769594439107D-01  3.1241059035514D-02
   172  1.7100000000000D+00  1.1107537666482D-01  3.5780792989935D-02
   173  1.7200000000000D+00  1.0468997485714D-01  3.9719926472208D-02
   174  1.7300000000000D+00  9.8539415913143D-02  4.3088823261369D-02
   175  1.7400000000000D+00  9.2622717019742D-02  4.5917989294501D-02
   176  1.7500000000000D+00  8.6938393006536D-02  4.8238169394278D-02
   177  1.7600000000000D+00  8.1484520668554D-02  5.0080257414139D-02
   178  1.7700000000000D+00  7.6258727370499D-02  5.1475083701551D-02
   179  1.7800000000000D+00  7.1258245713747D-02  5.2453332024358D-02
   180  1.7900000000000D+00  6.6479938643159D-02  5.3045410175995D-02
   181  1.8000000000000D+00  6.1920331240745D-02  5.3281342490345D-02
   182  1.8100000000000D+00  5.7575639181890D-02  5.3190665477000D-02
   183  1.8200000000000D+00  5.3441795528921D-02  5.2802329289156D-02
   184  1.8300000000000D+00  4.9514476025640D-02  5.2144605976955D-02
   185  1.8400000000000D+00  4.5789122930640D-02  5.1245003930769D-02
   186  1.8500000000000D+00  4.2260967573281D-02  5.0130189455472D-02
   187  1.8600000000000D+00  3.8925051653677D-02  4.8825914914705D-02
   188  1.8700000000000D+00  3.5776247456864D-02  4.7356954112217D-02
   189  1.8800000000000D+00  3.2809277020762D-02  4.5747044602015D-02
   190  1.8900000000000D+00  3.0018730373481D-02  4.4018837126683D-02
   191  1.9000000000000D+00  2.7399082938129D-02  4.2193852301173D-02
   192  1.9100000000000D+00  2.4944712122815D-02  4.0292444121494D-02
   193  1.9200000000000D+00  2.2649913288791D-02  3.8333770947762D-02
   194  1.9300000000000D+00  2.0508914994033D-02  3.6335772913389D-02
   195  1.9400000000000D+00  1.8515893783907D-02  3.4315156759051D-02
   196  1.9500000000000D+00  1.6664988382031D-02  3.2287386895298D-02
   197  1.9600000000000D+00  1.4950313495596D-02  3.0266683316444D-02
   198  1.9700000000000D+00  1.3365973193033D-02  2.8266025752805D-02
   199  1.9800000000000D+00  1.1906073895655D-02  2.6297163829631D-02
   200  1.9900000000000D+00  1.0564737116160D-02  2.4370633408369D-02
   201  2.0000000000000D+00  9.3361117814571D-03  2.2495778040040D-02
   202  2.0100000000000D+00  8.2143864194172D-03  2.0680776240322D-02
   203  2.0200000000000D+00  7.1938009770743D-03  1.8932673320433D-02
   204  2.0300000000000D+00  6.2686584627648D-03  1.7257418074474D-02
   205  2.0400000000000D+00  5.4333363532339D-03  1.5659903744003D-02
   206  2.0500000000000D+00  4.6822977204564D-03  1.4144012736688D-02
   207  2.0600000000000D+00  4.0101022228415D-03  1.2712665123462D-02
   208  2.0700000000000D+00  3.4114167616312D-03  1.1367870035286D-02
   209  2.0800000000000D+00  2.8810259767620D-03  1.0110779944031D-02
   210  2.0900000000000D+00  2.4138424526648D-03  8.9417472145757D-03
   211  2.1000000000000D+00  2.0049166398581D-03  7.8603825422120D-03
   212  2.1100000000000D+00  1.6494465399034D-03  6.8656148854890D-03
   213  2.1200000000000D+00  1.3427870176205D-03  5.9557525214476D-03
   214  2.1300000000000D+00  1.0804588310269D-03  5.1285446272017D-03
   215  2.1400000000000D+00  8.5815728129635D-04  4.3812431866604D-03
   216  2.1500000000000D+00  6.7176047245044D-04  3.7106647615706D-03
   217  2.1600000000000D+00  5.1733717457031D-04  3.1132514406954D-03
   218  2.1700000000000D+00  3.9115423748906D-04  2.5851312310356D-03
   219  2.1800000000000D+00  2.8968353130050D-04  2.1221766927776D-03
   220  2.1900000000000D+00  2.0960839134550D-04  1.7200619985076D-03
   221  2.2000000000000D+00  1.4782955215577D-04  1.3743182556387D-03
   222  2.2100000000000D+00  1.0147048670912D-04  1.0803857332012D-03
   223  2.2200000000000D+00  6.7882216212689D-05  8.3366413890979D-04
   224  2.2300000000000D+00  4.4647483593700D-05  6.2955950261580D-04
   225  2.2400000000000D+00  2.9584274374848D-05  4.6352752769558D-04
   226  2.2500000000000D+00  2.0748779274810D-05  3.3111441565261D-04
   227  2.2600000000000D+00  1.6448880970514D-05  2.2798967587160D-04
   228  2.2700000000000D+00  1.5233717565901D-05  1.4998202704318D-04
   229  2.2800000000000D+00  1.5812089295819D-05  9.3130583937853D-05
   230  2.2900000000000D+00  1.7059014719779D-05  5.3661556530960D-05
   231  2.3000000000000D+00  1.8469875252749D-05  2.8025615183439D-05
   232  2.3100000000000D+00  1.9971835623938D-05  1.2915720554182D-05
   233  2.3200000000000D+00  2.1889273377079D-05  5.4266539172080D-06
   234  2.3300000000000D+00  2.2502324110594D-05  2.5787126727720D-06
   235  2.3400000000000D+00  2.0269329648842D-05  1.8897290306967D-06
   236  2.3500000000000D+00  1.3359402050890D-05  1.2678144418816D-06
   237  2.3600000000000D+00  5.3573832109846D-06  5.7075793489451D-07
   238  2.3700000000000D+00 -6.9173955090103D-07 -5.1965449351654D-08
   239  2.3800000000000D+00 -2.1513768040391D-06 -1.6453644159379D-07
   240  2.3900000000000D+00 -1.1640371147844D-06 -9.1441982257015D-08
   241  2.4000000000000D+00  2.2396483970995D-07  9.9217805433963D-09
   242  2.4100000000000D+00  4.8539760856795D-07  2.0247880862346D-08
   243  2.4200000000000D+00  2.3530217763560D-07  9.3148203512100D-09
   244  2.4300000000000D+00 -3.2248171508845D-08 -3.0091872835835D-09
   245  2.4400000000000D+00 -5.7185391650085D-08 -5.3361646663587D-09
   246  2.4500000000000D+00 -2.4092620766400D-08 -2.2481649236629D-09
   247  2.4600000000000D+00  0.0000000000000D+00  0.0000000000000D+00
   248  2.4700000000000D+00  0.0000000000000D+00  0.0000000000000D+00
   249  2.4800000000000D+00  0.0000000000000D+00  0.0000000000000D+00
   250  2.4900000000000D+00  0.0000000000000D+00  0.0000000000000D+00
   251  2.5000000000000D+00  0.0000000000000D+00  0.0000000000000D+00
   252  2.5100000000000D+00  0.0000000000000D+00  0.0000000000000D+00
   253  2.5200000000000D+00  0.0000000000000D+00  0.0000000000000D+00
   254  2.5300000000000D+00  0.0000000000000D+00  0.0000000000000D+00
   255  2.5400000000000D+00  0.0000000000000D+00  0.0000000000000D+00
   256  2.5500000000000D+00  0.0000000000000D+00  0.0000000000000D+00
   257  2.5600000000000D+00  0.0000000000000D+00  0.0000000000000D+00
   258  2.5700000000000D+00  0.0000000000000D+00  0.0000000000000D+00
   259  2.5800000000000D+00  0.0000000000000D+00  0.0000000000000D+00
   260  2.5900000000000D+00  0.0000000000000D+00  0.0000000000000D+00
   261  2.6000000000000D+00  0.0000000000000D+00  0.0000000000000D+00
   262  2.6100000000000D+00  0.0000000000000D+00  0.0000000000000D+00
   263  2.6200000000000D+00  0.0000000000000D+00  0.0000000000000D+00
   264  2.6300000000000D+00  0.0000000000000D+00  0.0000000000000D+00
   265  2.6400000000000D+00  0.0000000000000D+00  0.0000000000000D+00
   266  2.6500000000000D+00  0.0000000000000D+00  0.0000000000000D+00
   267  2.6600000000000D+00  0.0000000000000D+00  0.0000000000000D+00
   268  2.6700000000000D+00  0.0000000000000D+00  0.0000000000000D+00
   269  2.6800000000000D+00  0.0000000000000D+00  0.0000000000000D+00
   270  2.6900000000000D+00  0.0000000000000D+00  0.0000000000000D+00
   271  2.7000000000000D+00  0.0000000000000D+00  0.0000000000000D+00
   272  2.7100000000000D+00  0.0000000000000D+00  0.0000000000000D+00
   273  2.7200000000000D+00  0.0000000000000D+00  0.0000000000000D+00
   274  2.7300000000000D+00  0.0000000000000D+00  0.0000000000000D+00
   275  2.7400000000000D+00  0.0000000000000D+00  0.0000000000000D+00
   276  2.7500000000000D+00  0.0000000000000D+00  0.0000000000000D+00
   277  2.7600000000000D+00  0.0000000000000D+00  0.0000000000000D+00
   278  2.7700000000000D+00  0.0000000000000D+00  0.0000000000000D+00
   279  2.7800000000000D+00  0.0000000000000D+00  0.0000000000000D+00
   280  2.7900000000000D+00  0.0000000000000D+00  0.0000000000000D+00
   281  2.8000000000000D+00  0.0000000000000D+00  0.0000000000000D+00
   282  2.8100000000000D+00  0.0000000000000D+00  0.0000000000000D+00
   283  2.8200000000000D+00  0.0000000000000D+00  0.0000000000000D+00
   284  2.8300000000000D+00  0.0000000000000D+00  0.0000000000000D+00
   285  2.8400000000000D+00  0.0000000000000D+00  0.0000000000000D+00
   286  2.8500000000000D+00  0.0000000000000D+00  0.0000000000000D+00
   287  2.8600000000000D+00  0.0000000000000D+00  0.0000000000000D+00
   288  2.8700000000000D+00  0.0000000000000D+00  0.0000000000000D+00
   289  2.8800000000000D+00  0.0000000000000D+00  0.0000000000000D+00
   290  2.8900000000000D+00  0.0000000000000D+00  0.0000000000000D+00
   291  2.9000000000000D+00  0.0000000000000D+00  0.0000000000000D+00
   292  2.9100000000000D+00  0.0000000000000D+00  0.0000000000000D+00
   293  2.9200000000000D+00  0.0000000000000D+00  0.0000000000000D+00
   294  2.9300000000000D+00  0.0000000000000D+00  0.0000000000000D+00
   295  2.9400000000000D+00  0.0000000000000D+00  0.0000000000000D+00
   296  2.9500000000000D+00  0.0000000000000D+00  0.0000000000000D+00
   297  2.9600000000000D+00  0.0000000000000D+00  0.0000000000000D+00
   298  2.9700000000000D+00  0.0000000000000D+00  0.0000000000000D+00
   299  2.9800000000000D+00  0.0000000000000D+00  0.0000000000000D+00
   300  2.9900000000000D+00  0.0000000000000D+00  0.0000000000000D+00
   301  3.0000000000000D+00  0.0000000000000D+00  0.0000000000000D+00
   302  3.0100000000000D+00  0.0000000000000D+00  0.0000000000000D+00
   303  3.0200000000000D+00  0.0000000000000D+00  0.0000000000000D+00
   304  3.0300000000000D+00  0.0000000000000D+00  0.0000000000000D+00
   305  3.0400000000000D+00  0.0000000000000D+00  0.0000000000000D+00
   306  3.0500000000000D+00  0.0000000000000D+00  0.0000000000000D+00
   307  3.0600000000000D+00  0.0000000000000D+00  0.0000000000000D+00
   308  3.0700000000000D+00  0.0000000000000D+00  0.0000000000000D+00
   309  3.0800000000000D+00  0.0000000000000D+00  0.0000000000000D+00
   310  3.0900000000000D+00  0.0000000000000D+00  0.0000000000000D+00
   311  3.1000000000000D+00  0.0000000000000D+00  0.0000000000000D+00
   312  3.1100000000000D+00  0.0000000000000D+00  0.0000000000000D+00
   313  3.1200000000000D+00  0.0000000000000D+00  0.0000000000000D+00
   314  3.1300000000000D+00  0.0000000000000D+00  0.0000000000000D+00
   315  3.1400000000000D+00  0.0000000000000D+00  0.0000000000000D+00
   316  3.1500000000000D+00  0.0000000000000D+00  0.0000000000000D+00
   317  3.1600000000000D+00  0.0000000000000D+00  0.0000000000000D+00
   318  3.1700000000000D+00  0.0000000000000D+00  0.0000000000000D+00
   319  3.1800000000000D+00  0.0000000000000D+00  0.0000000000000D+00
   320  3.1900000000000D+00  0.0000000000000D+00  0.0000000000000D+00
   321  3.2000000000000D+00  0.0000000000000D+00  0.0000000000000D+00
   322  3.2100000000000D+00  0.0000000000000D+00  0.0000000000000D+00
   323  3.2200000000000D+00  0.0000000000000D+00  0.0000000000000D+00
   324  3.2300000000000D+00  0.0000000000000D+00  0.0000000000000D+00
   325  3.2400000000000D+00  0.0000000000000D+00  0.0000000000000D+00
   326  3.2500000000000D+00  0.0000000000000D+00  0.0000000000000D+00
   327  3.2600000000000D+00  0.0000000000000D+00  0.0000000000000D+00
   328  3.2700000000000D+00  0.0000000000000D+00  0.0000000000000D+00
   329  3.2800000000000D+00  0.0000000000000D+00  0.0000000000000D+00
   330  3.2900000000000D+00  0.0000000000000D+00  0.0000000000000D+00
   331  3.3000000000000D+00  0.0000000000000D+00  0.0000000000000D+00
   332  3.3100000000000D+00  0.0000000000000D+00  0.0000000000000D+00
   333  3.3200000000000D+00  0.0000000000000D+00  0.0000000000000D+00
   334  3.3300000000000D+00  0.0000000000000D+00  0.0000000000000D+00
   335  3.3400000000000D+00  0.0000000000000D+00  0.0000000000000D+00
   336  3.3500000000000D+00  0.0000000000000D+00  0.0000000000000D+00
   337  3.3600000000000D+00  0.0000000000000D+00  0.0000000000000D+00
   338  3.3700000000000D+00  0.0000000000000D+00  0.0000000000000D+00
   339  3.3800000000000D+00  0.0000000000000D+00  0.0000000000000D+00
   340  3.3900000000000D+00  0.0000000000000D+00  0.0000000000000D+00
   341  3.4000000000000D+00  0.0000000000000D+00  0.0000000000000D+00
   342  3.4100000000000D+00  0.0000000000000D+00  0.0000000000000D+00
   343  3.4200000000000D+00  0.0000000000000D+00  0.0000000000000D+00
   344  3.4300000000000D+00  0.0000000000000D+00  0.0000000000000D+00
   345  3.4400000000000D+00  0.0000000000000D+00  0.0000000000000D+00
   346  3.4500000000000D+00  0.0000000000000D+00  0.0000000000000D+00
   347  3.4600000000000D+00  0.0000000000000D+00  0.0000000000000D+00
   348  3.4700000000000D+00  0.0000000000000D+00  0.0000000000000D+00
   349  3.4800000000000D+00  0.0000000000000D+00  0.0000000000000D+00
   350  3.4900000000000D+00  0.0000000000000D+00  0.0000000000000D+00
   351  3.5000000000000D+00  0.0000000000000D+00  0.0000000000000D+00
   352  3.5100000000000D+00  0.0000000000000D+00  0.0000000000000D+00
   353  3.5200000000000D+00  0.0000000000000D+00  0.0000000000000D+00
   354  3.5300000000000D+00  0.0000000000000D+00  0.0000000000000D+00
   355  3.5400000000000D+00  0.0000000000000D+00  0.0000000000000D+00
   356  3.5500000000000D+00  0.0000000000000D+00  0.0000000000000D+00
   357  3.5600000000000D+00  0.0000000000000D+00  0.0000000000000D+00
   358  3.5700000000000D+00  0.0000000000000D+00  0.0000000000000D+00
   359  3.5800000000000D+00  0.0000000000000D+00  0.0000000000000D+00
   360  3.5900000000000D+00  0.0000000000000D+00  0.0000000000000D+00
   361  3.6000000000000D+00  0.0000000000000D+00  0.0000000000000D+00
   362  3.6100000000000D+00  0.0000000000000D+00  0.0000000000000D+00
   363  3.6200000000000D+00  0.0000000000000D+00  0.0000000000000D+00
   364  3.6300000000000D+00  0.0000000000000D+00  0.0000000000000D+00
   365  3.6400000000000D+00  0.0000000000000D+00  0.0000000000000D+00
   366  3.6500000000000D+00  0.0000000000000D+00  0.0000000000000D+00
   367  3.6600000000000D+00  0.0000000000000D+00  0.0000000000000D+00
   368  3.6700000000000D+00  0.0000000000000D+00  0.0000000000000D+00
   369  3.6800000000000D+00  0.0000000000000D+00  0.0000000000000D+00
   370  3.6900000000000D+00  0.0000000000000D+00  0.0000000000000D+00
   371  3.7000000000000D+00  0.0000000000000D+00  0.0000000000000D+00
   372  3.7100000000000D+00  0.0000000000000D+00  0.0000000000000D+00
   373  3.7200000000000D+00  0.0000000000000D+00  0.0000000000000D+00
   374  3.7300000000000D+00  0.0000000000000D+00  0.0000000000000D+00
   375  3.7400000000000D+00  0.0000000000000D+00  0.0000000000000D+00
   376  3.7500000000000D+00  0.0000000000000D+00  0.0000000000000D+00
   377  3.7600000000000D+00  0.0000000000000D+00  0.0000000000000D+00
   378  3.7700000000000D+00  0.0000000000000D+00  0.0000000000000D+00
   379  3.7800000000000D+00  0.0000000000000D+00  0.0000000000000D+00
   380  3.7900000000000D+00  0.0000000000000D+00  0.0000000000000D+00
   381  3.8000000000000D+00  0.0000000000000D+00  0.0000000000000D+00
   382  3.8100000000000D+00  0.0000000000000D+00  0.0000000000000D+00
   383  3.8200000000000D+00  0.0000000000000D+00  0.0000000000000D+00
   384  3.8300000000000D+00  0.0000000000000D+00  0.0000000000000D+00
   385  3.8400000000000D+00  0.0000000000000D+00  0.0000000000000D+00
   386  3.8500000000000D+00  0.0000000000000D+00  0.0000000000000D+00
   387  3.8600000000000D+00  0.0000000000000D+00  0.0000000000000D+00
   388  3.8700000000000D+00  0.0000000000000D+00  0.0000000000000D+00
   389  3.8800000000000D+00  0.0000000000000D+00  0.0000000000000D+00
   390  3.8900000000000D+00  0.0000000000000D+00  0.0000000000000D+00
   391  3.9000000000000D+00  0.0000000000000D+00  0.0000000000000D+00
   392  3.9100000000000D+00  0.0000000000000D+00  0.0000000000000D+00
   393  3.9200000000000D+00  0.0000000000000D+00  0.0000000000000D+00
   394  3.9300000000000D+00  0.0000000000000D+00  0.0000000000000D+00
   395  3.9400000000000D+00  0.0000000000000D+00  0.0000000000000D+00
   396  3.9500000000000D+00  0.0000000000000D+00  0.0000000000000D+00
   397  3.9600000000000D+00  0.0000000000000D+00  0.0000000000000D+00
   398  3.9700000000000D+00  0.0000000000000D+00  0.0000000000000D+00
   399  3.9800000000000D+00  0.0000000000000D+00  0.0000000000000D+00
   400  3.9900000000000D+00  0.0000000000000D+00  0.0000000000000D+00
   401  4.0000000000000D+00  0.0000000000000D+00  0.0000000000000D+00
   402  4.0100000000000D+00  0.0000000000000D+00  0.0000000000000D+00
   403  4.0200000000000D+00  0.0000000000000D+00  0.0000000000000D+00
   404  4.0300000000000D+00  0.0000000000000D+00  0.0000000000000D+00
   405  4.0400000000000D+00  0.0000000000000D+00  0.0000000000000D+00
   406  4.0500000000000D+00  0.0000000000000D+00  0.0000000000000D+00
   407  4.0600000000000D+00  0.0000000000000D+00  0.0000000000000D+00
   408  4.0700000000000D+00  0.0000000000000D+00  0.0000000000000D+00
   409  4.0800000000000D+00  0.0000000000000D+00  0.0000000000000D+00
   410  4.0900000000000D+00  0.0000000000000D+00  0.0000000000000D+00
   411  4.1000000000000D+00  0.0000000000000D+00  0.0000000000000D+00
   412  4.1100000000000D+00  0.0000000000000D+00  0.0000000000000D+00
   413  4.1200000000000D+00  0.0000000000000D+00  0.0000000000000D+00
   414  4.1300000000000D+00  0.0000000000000D+00  0.0000000000000D+00
   415  4.1400000000000D+00  0.0000000000000D+00  0.0000000000000D+00
   416  4.1500000000000D+00  0.0000000000000D+00  0.0000000000000D+00
   417  4.1600000000000D+00  0.0000000000000D+00  0.0000000000000D+00
   418  4.1700000000000D+00  0.0000000000000D+00  0.0000000000000D+00
   419  4.1800000000000D+00  0.0000000000000D+00  0.0000000000000D+00
   420  4.1900000000000D+00  0.0000000000000D+00  0.0000000000000D+00
   421  4.2000000000000D+00  0.0000000000000D+00  0.0000000000000D+00
   422  4.2100000000000D+00  0.0000000000000D+00  0.0000000000000D+00