Cl    ONCVPSP-3.3.1  r_core=   3.22968   1.63633
     17.0000      7.0000      210904    zatom,zion,pspd
     8       2   1     4   600     0    pspcod,pspxc,lmax,lloc,mmax,r2well
  5.99000000  0.00000000  0.00000000    rchrg fchrg qchrg
     2     2     0     0     0    nproj
     1     1           extension_switch
   0                         6.6585162025684D+00 -4.5475108182222D+00
     1  0.0000000000000D+00 -1.8632484444225D-11  2.3218971190175D-10
     2  1.0000000000000D-02  5.8749856722354D-02 -7.5258943224947D-02
     3  2.0000000000000D-02  1.1738791437939D-01 -1.5013812930510D-01
     4  3.0000000000000D-02  1.7580270701212D-01 -2.2425977553280D-01
     5  4.0000000000000D-02  2.3388343368919D-01 -2.9725003727459D-01
     6  5.0000000000000D-02  2.9152028806289D-01 -3.6874095006709D-01
     7  6.0000000000000D-02  3.4860478438887D-01 -4.3837233954768D-01
     8  7.0000000000000D-02  4.0503007885288D-01 -5.0579368877129D-01
     9  8.0000000000000D-02  4.6069128506610D-01 -5.7066595269660D-01
    10  9.0000000000000D-02  5.1548578261419D-01 -6.3266330991331D-01
    11  1.0000000000000D-01  5.6931351757225D-01 -6.9147484202380D-01
    12  1.1000000000000D-01  6.2207729393013D-01 -7.4680613148790D-01
    13  1.2000000000000D-01  6.7368305490799D-01 -7.9838076918447D-01
    14  1.3000000000000D-01  7.2404015318211D-01 -8.4594176343699D-01
    15  1.4000000000000D-01  7.7306160908456D-01 -8.8925284278972D-01
    16  1.5000000000000D-01  8.2066435588724D-01 -9.2809964540280D-01
    17  1.6000000000000D-01  8.6676947133177D-01 -9.6229078855664D-01
    18  1.7000000000000D-01  9.1130239461976D-01 -9.9165881241439D-01
    19  1.8000000000000D-01  9.5419312813505D-01 -1.0160609928830D+00
    20  1.9000000000000D-01  9.9537642322818D-01 -1.0353800191347D+00
    21  2.0000000000000D-01  1.0347919494550D+00 -1.0495245320974D+00
    22  2.1000000000000D-01  1.0723844467245D+00 -1.0584295209933D+00
    23  2.2000000000000D-01  1.1081038598773D+00 -1.0620565757887D+00
    24  2.3000000000000D-01  1.1419054552804D+00 -1.0603939942237D+00
    25  2.4000000000000D-01  1.1737499190953D+00 -1.0534567428958D+00
    26  2.5000000000000D-01  1.2036034369419D+00 -1.0412862726916D+00
    27  2.6000000000000D-01  1.2314377547513D+00 -1.0239501896756D+00
    28  2.7000000000000D-01  1.2572302206718D+00 -1.0015417833584D+00
    29  2.8000000000000D-01  1.2809638079571D+00 -9.7417941507547D-01
    30  2.9000000000000D-01  1.3026271188405D+00 -9.4200576999867D-01
    31  3.0000000000000D-01  1.3222143694627D+00 -9.0518697708341D-01
    32  3.1000000000000D-01  1.3397253559891D+00 -8.6391160201169D-01
    33  3.2000000000000D-01  1.3551654021214D+00 -8.1838951892476D-01
    34  3.3000000000000D-01  1.3685452882670D+00 -7.6885066744498D-01
    35  3.4000000000000D-01  1.3798811626979D+00 -7.1554370215960D-01
    36  3.5000000000000D-01  1.3891944350869D+00 -6.5873454237692D-01
    37  3.6000000000000D-01  1.3965116528688D+00 -5.9870483056322D-01
    38  3.7000000000000D-01  1.4018643609288D+00 -5.3575030842446D-01
    39  3.8000000000000D-01  1.4052889451731D+00 -4.7017912010651D-01
    40  3.9000000000000D-01  1.4068264605844D+00 -4.0231005244835D-01
    41  4.0000000000000D-01  1.4065224444123D+00 -3.3247072263233D-01
    42  4.1000000000000D-01  1.4044267151904D+00 -2.6099572393122D-01
    43  4.2000000000000D-01  1.4005931583097D+00 -1.8822474055123D-01
    44  4.3000000000000D-01  1.3950794989131D+00 -1.1450064281183D-01
    45  4.4000000000000D-01  1.3879470629076D+00 -4.0167574085442D-02
    46  4.5000000000000D-01  1.3792605269145D+00  3.4430958959117D-02
    47  4.6000000000000D-01  1.3690876580039D+00  1.0895398120597D-01
    48  4.7000000000000D-01  1.3574990440749D+00  1.8306491743449D-01
    49  4.8000000000000D-01  1.3445678157587D+00  2.5643342262136D-01
    50  4.9000000000000D-01  1.3303693607313D+00  3.2873716279846D-01
    51  5.0000000000000D-01  1.3149810313252D+00  3.9966353525586D-01
    52  5.1000000000000D-01  1.2984818463345D+00  4.6891131713398D-01
    53  5.2000000000000D-01  1.2809521879006D+00  5.3619223176567D-01
    54  5.3000000000000D-01  1.2624734943604D+00  6.0123242250633D-01
    55  5.4000000000000D-01  1.2431279499258D+00  6.6377382422659D-01
    56  5.5000000000000D-01  1.2229981720488D+00  7.2357542313461D-01
    57  5.6000000000000D-01  1.2021668973045D+00  7.8041439614544D-01
    58  5.7000000000000D-01  1.1807166666036D+00  8.3408712161421D-01
    59  5.8000000000000D-01  1.1587295105170D+00  8.8441005390431D-01
    60  5.9000000000000D-01  1.1362866354637D+00  9.3122045495840D-01
    61  6.0000000000000D-01  1.1134681114815D+00  9.7437697678654D-01
    62  6.1000000000000D-01  1.0903525622622D+00  1.0137600895669D+00
    63  6.2000000000000D-01  1.0670168580904D+00  1.0492723508808D+00
    64  6.3000000000000D-01  1.0435358122888D+00  1.0808385124545D+00
    65  6.4000000000000D-01  1.0199818817201D+00  1.1084054616704D+00
    66  6.5000000000000D-01  9.9642487185569D-01  1.1319419960176D+00
    67  6.6000000000000D-01  9.7293164686926D-01  1.1514384295859D+00
    68  6.7000000000000D-01  9.4956584516223D-01  1.1669060316550D+00
    69  6.8000000000000D-01  9.2638760067934D-01  1.1783762983951D+00
    70  6.9000000000000D-01  9.0345327031785D-01  1.1859000596606D+00
    71  7.0000000000000D-01  8.8081516768140D-01  1.1895464238331D+00
    72  7.1000000000000D-01  8.5852130337593D-01  1.1894015646430D+00
    73  7.2000000000000D-01  8.3661513199143D-01  1.1855673548584D+00
    74  7.3000000000000D-01  8.1513530585926D-01  1.1781598526922D+00
    75  7.4000000000000D-01  7.9411543562278D-01  1.1673076477050D+00
    76  7.5000000000000D-01  7.7358385760560D-01  1.1531500739117D+00
    77  7.6000000000000D-01  7.5356340791159D-01  1.1358352986839D+00
    78  7.7000000000000D-01  7.3407120314057D-01  1.1155182969094D+00
    79  7.8000000000000D-01  7.1511842755532D-01  1.0923587206958D+00
    80  7.9000000000000D-01  6.9671012639705D-01  1.0665186756214D+00
    81  8.0000000000000D-01  6.7884500617004D-01  1.0381604162890D+00
    82  8.1000000000000D-01  6.6151523379719D-01  1.0074439673657D+00
    83  8.2000000000000D-01  6.4470661384961D-01  9.7452501191278D-01
    84  8.3000000000000D-01  6.2840169640879D-01  9.3955560234960D-01
    85  8.4000000000000D-01  6.1258277526665D-01  9.0268588226880D-01
    86  8.5000000000000D-01  5.9723216558727D-01  8.6406403054640D-01
    87  8.6000000000000D-01  5.8233228235267D-01  8.2383608317117D-01
    88  8.7000000000000D-01  5.6786571083952D-01  7.8214578025508D-01
    89  8.8000000000000D-01  5.5381527281156D-01  7.3913443804582D-01
    90  8.9000000000000D-01  5.4016408741802D-01  6.9494084281219D-01
    91  9.0000000000000D-01  5.2689562546285D-01  6.4970116251473D-01
    92  9.1000000000000D-01  5.1399375635765D-01  6.0354887237846D-01
    93  9.2000000000000D-01  5.0144278745689D-01  5.5661469071759D-01
    94  9.3000000000000D-01  4.8922749579956D-01  5.0902652173819D-01
    95  9.4000000000000D-01  4.7733315254767D-01  4.6090940251724D-01
    96  9.5000000000000D-01  4.6574554061307D-01  4.1238545187690D-01
    97  9.6000000000000D-01  4.5445096610262D-01  3.6357381940146D-01
    98  9.7000000000000D-01  4.4343626429462D-01  3.1459063335161D-01
    99  9.8000000000000D-01  4.3268880089516D-01  2.6554894669312D-01
   100  9.9000000000000D-01  4.2219646932030D-01  2.1655868086234D-01
   101  1.0000000000000D+00  4.1194768471703D-01  1.6772656723473D-01
   102  1.0100000000000D+00  4.0193137538692D-01  1.1915608652932D-01
   103  1.0200000000000D+00  3.9213697220789D-01  7.0947406606478D-02
   104  1.0300000000000D+00  3.8255439657925D-01  2.3197319262054D-02
   105  1.0400000000000D+00  3.7317404734115D-01 -2.4000823272546D-02
   106  1.0500000000000D+00  3.6398678704747D-01 -7.0557171353922D-02
   107  1.0600000000000D+00  3.5498392790097D-01 -1.1638543968109D-01
   108  1.0700000000000D+00  3.4615721760367D-01 -1.6140296698743D-01
   109  1.0800000000000D+00  3.3749882531108D-01 -2.0553077290716D-01
   110  1.0900000000000D+00  3.2900132783747D-01 -2.4869361129383D-01
   111  1.1000000000000D+00  3.2065769621493D-01 -2.9082001932362D-01
   112  1.1100000000000D+00  3.1246128267511D-01 -3.3184236177904D-01
   113  1.1200000000000D+00  3.0440580809551D-01 -3.7169686996820D-01
   114  1.1300000000000D+00  2.9648534992553D-01 -4.1032367481515D-01
   115  1.1400000000000D+00  2.8869433059326D-01 -4.4766683371620D-01
   116  1.1500000000000D+00  2.8102750637823D-01 -4.8367435083150D-01
   117  1.1600000000000D+00  2.7347995672618D-01 -5.1829819053292D-01
   118  1.1700000000000D+00  2.6604707397400D-01 -5.5149428380812D-01
   119  1.1800000000000D+00  2.5872453789320D-01 -5.8322256639439D-01
   120  1.1900000000000D+00  2.5150848675825D-01 -6.1344651890590D-01
   121  1.2000000000000D+00  2.4439483704026D-01 -6.4213482948934D-01
   122  1.2100000000000D+00  2.3737984750765D-01 -6.6925993709429D-01
   123  1.2200000000000D+00  2.3046459210518D-01 -6.9478680275411D-01
   124  1.2300000000000D+00  2.2364459191429D-01 -7.1869873079417D-01
   125  1.2400000000000D+00  2.1691203509713D-01 -7.4099178492141D-01
   126  1.2500000000000D+00  2.1026685395150D-01 -7.6164710435499D-01
   127  1.2600000000000D+00  2.0370794397008D-01 -7.8065268493293D-01
   128  1.2700000000000D+00  1.9723268277927D-01 -7.9800449100787D-01
   129  1.2800000000000D+00  1.9083940079984D-01 -8.1370021806250D-01
   130  1.2900000000000D+00  1.8452656000946D-01 -8.2774123823961D-01
   131  1.3000000000000D+00  1.7829279452357D-01 -8.4013239635663D-01
   132  1.3100000000000D+00  1.7213693815653D-01 -8.5088183282468D-01
   133  1.3200000000000D+00  1.6605800839198D-01 -8.6000090968899D-01
   134  1.3300000000000D+00  1.6005519823513D-01 -8.6750411211130D-01
   135  1.3400000000000D+00  1.5412786804159D-01 -8.7340894525867D-01
   136  1.3500000000000D+00  1.4827553732456D-01 -8.7773582690325D-01
   137  1.3600000000000D+00  1.4249787654053D-01 -8.8050797608075D-01
   138  1.3700000000000D+00  1.3679469885562D-01 -8.8175129813575D-01
   139  1.3800000000000D+00  1.3116595189673D-01 -8.8149426649430D-01
   140  1.3900000000000D+00  1.2561170949540D-01 -8.7976780150450D-01
   141  1.4000000000000D+00  1.2013216343003D-01 -8.7660514668501D-01
   142  1.4100000000000D+00  1.1472761517647D-01 -8.7204174272453D-01
   143  1.4200000000000D+00  1.0939846767691D-01 -8.6611509956638D-01
   144  1.4300000000000D+00  1.0414521713651D-01 -8.5886466692312D-01
   145  1.4400000000000D+00  9.8968444861083D-02 -8.5033170354360D-01
   146  1.4500000000000D+00  9.3868809146211D-02 -8.4055914557106D-01
   147  1.4600000000000D+00  8.8847037231460D-02 -8.2959147431089D-01
   148  1.4700000000000D+00  8.3903917332007D-02 -8.1747458372147D-01
   149  1.4800000000000D+00  7.9040290761010D-02 -8.0425564795492D-01
   150  1.4900000000000D+00  7.4257044155776D-02 -7.8998298922309D-01
   151  1.5000000000000D+00  6.9555101821236D-02 -7.7470594632154D-01
   152  1.5100000000000D+00  6.4935418203541D-02 -7.5847474406058D-01
   153  1.5200000000000D+00  6.0398970507122D-02 -7.4134036391164D-01
   154  1.5300000000000D+00  5.5946751467904D-02 -7.2335441612112D-01
   155  1.5400000000000D+00  5.1579762294776D-02 -7.0456901355004D-01
   156  1.5500000000000D+00  4.7299005792479D-02 -6.8503664750679D-01
   157  1.5600000000000D+00  4.3105479675661D-02 -6.6481006577154D-01
   158  1.5700000000000D+00  3.9000170088245D-02 -6.4394215309895D-01
   159  1.5800000000000D+00  3.4984045334709D-02 -6.2248581433389D-01
   160  1.5900000000000D+00  3.1058049838381D-02 -6.0049386044077D-01
   161  1.6000000000000D+00  2.7223098330689D-02 -5.7801889753450D-01
   162  1.6100000000000D+00  2.3480070285752D-02 -5.5511321919500D-01
   163  1.6200000000000D+00  1.9829804603202D-02 -5.3182870213905D-01
   164  1.6300000000000D+00  1.6273094551541D-02 -5.0821670549038D-01
   165  1.6400000000000D+00  1.2810682974401D-02 -4.8432797371628D-01
   166  1.6500000000000D+00  9.4432577696135D-03 -4.6021254342817D-01
   167  1.6600000000000D+00  6.1714476428981D-03 -4.3591965410766D-01
   168  1.6700000000000D+00  2.9958181437282D-03 -4.1149766291517D-01
   169  1.6800000000000D+00 -8.3132015592565D-05 -3.8699396363141D-01
   170  1.6900000000000D+00 -3.0649743521961D-03 -3.6245490985408D-01
   171  1.7000000000000D+00 -5.9493537163783D-03 -3.3792574248265D-01
   172  1.7100000000000D+00 -8.7359911029645D-03 -3.1345052158712D-01
   173  1.7200000000000D+00 -1.1424686172155D-02 -2.8907206266748D-01
   174  1.7300000000000D+00 -1.4015319476976D-02 -2.6483187738422D-01
   175  1.7400000000000D+00 -1.6507854401561D-02 -2.4077011872996D-01
   176  1.7500000000000D+00 -1.8902338807558D-02 -2.1692553071985D-01
   177  1.7600000000000D+00 -2.1198906395993D-02 -1.9333540252237D-01
   178  1.7700000000000D+00 -2.3397777781193D-02 -1.7003552711917D-01
   179  1.7800000000000D+00 -2.5499261287913D-02 -1.4706016435607D-01
   180  1.7900000000000D+00 -2.7503753466807D-02 -1.2444200849713D-01
   181  1.8000000000000D+00 -2.9411739343673D-02 -1.0221216007584D-01
   182  1.8100000000000D+00 -3.1223792395720D-02 -8.0400102186757D-02
   183  1.8200000000000D+00 -3.2940574274361D-02 -5.9033680944997D-02
   184  1.8300000000000D+00 -3.4562834266939D-02 -3.8139090273312D-02
   185  1.8400000000000D+00 -3.6091408517964D-02 -1.7740860723110D-02
   186  1.8500000000000D+00 -3.7527219005756D-02  2.1381475625345D-03
   187  1.8600000000000D+00 -3.8871272291582D-02  2.1476747985666D-02
   188  1.8700000000000D+00 -4.0124658043513D-02  4.0255426721819D-02
   189  1.8800000000000D+00 -4.1288547347149D-02  5.8456338202269D-02
   190  1.8900000000000D+00 -4.2364190812014D-02  7.6063296952618D-02
   191  1.9000000000000D+00 -4.3352916480781D-02  9.3061765863988D-02
   192  1.9100000000000D+00 -4.4256127555960D-02  1.0943884110482D-01
   193  1.9200000000000D+00 -4.5075299947850D-02  1.2518323367815D-01
   194  1.9300000000000D+00 -4.5811979661282D-02  1.4028524789982D-01
   195  1.9400000000000D+00 -4.6467780024576D-02  1.5473675679086D-01
   196  1.9500000000000D+00 -4.7044378776988D-02  1.6853117464134D-01
   197  1.9600000000000D+00 -4.7543515022635D-02  1.8166342681437D-01
   198  1.9700000000000D+00 -4.7966986062697D-02  1.9412991696370D-01
   199  1.9800000000000D+00 -4.8316644117347D-02  2.0592849182521D-01
   200  1.9900000000000D+00 -4.8594392947826D-02  2.1705840369472D-01
   201  2.0000000000000D+00 -4.8802184389706D-02  2.2752027079185D-01
   202  2.0100000000000D+00 -4.8942014810045D-02  2.3731603562166D-01
   203  2.0200000000000D+00 -4.9015921496756D-02  2.4644892151149D-01
   204  2.0300000000000D+00 -4.9025978993936D-02  2.5492338747282D-01
   205  2.0400000000000D+00 -4.8974295392969D-02  2.6274508153965D-01
   206  2.0500000000000D+00 -4.8863008587895D-02  2.6992079272730D-01
   207  2.0600000000000D+00 -4.8694282512087D-02  2.7645840180253D-01
   208  2.0700000000000D+00 -4.8470303356978D-02  2.8236683094911D-01
   209  2.0800000000000D+00 -4.8193275793366D-02  2.8765599255974D-01
   210  2.0900000000000D+00 -4.7865419198229D-02  2.9233673724295D-01
   211  2.1000000000000D+00 -4.7488963896896D-02  2.9642080119187D-01
   212  2.1100000000000D+00 -4.7066147438615D-02  2.9992075313958D-01
   213  2.1200000000000D+00 -4.6599210898977D-02  3.0284994088764D-01
   214  2.1300000000000D+00 -4.6090395236055D-02  3.0522243772789D-01
   215  2.1400000000000D+00 -4.5541937695960D-02  3.0705298875880D-01
   216  2.1500000000000D+00 -4.4956068276938D-02  3.0835695723618D-01
   217  2.1600000000000D+00 -4.4335006272838D-02  3.0915027122726D-01
   218  2.1700000000000D+00 -4.3680956880923D-02  3.0944937044140D-01
   219  2.1800000000000D+00 -4.2996107903951D-02  3.0927115361349D-01
   220  2.1900000000000D+00 -4.2282626541286D-02  3.0863292641845D-01
   221  2.2000000000000D+00 -4.1542656268051D-02  3.0755234994021D-01
   222  2.2100000000000D+00 -4.0778313833546D-02  3.0604739009956D-01
   223  2.2200000000000D+00 -3.9991686353094D-02  3.0413626776793D-01
   224  2.2300000000000D+00 -3.9184828519703D-02  3.0183740991774D-01
   225  2.2400000000000D+00 -3.8359759940089D-02  2.9916940189921D-01
   226  2.2500000000000D+00 -3.7518462576377D-02  2.9615094064425D-01
   227  2.2600000000000D+00 -3.6662878332594D-02  2.9280078932058D-01
   228  2.2700000000000D+00 -3.5794906761599D-02  2.8913773315955D-01
   229  2.2800000000000D+00 -3.4916402897310D-02  2.8518053654944D-01
   230  2.2900000000000D+00 -3.4029175240189D-02  2.8094790178465D-01
   231  2.3000000000000D+00 -3.3134983862092D-02  2.7645842906315D-01
   232  2.3100000000000D+00 -3.2235538655876D-02  2.7173057809445D-01
   233  2.3200000000000D+00 -3.1332497733103D-02  2.6678263139401D-01
   234  2.3300000000000D+00 -3.0427465944383D-02  2.6163265895093D-01
   235  2.3400000000000D+00 -2.9521993556777D-02  2.5629848476629D-01
   236  2.3500000000000D+00 -2.8617575070704D-02  2.5079765505381D-01
   237  2.3600000000000D+00 -2.7715648160898D-02  2.4514740791334D-01
   238  2.3700000000000D+00 -2.6817592781394D-02  2.3936464507212D-01
   239  2.3800000000000D+00 -2.5924730396250D-02  2.3346590518146D-01
   240  2.3900000000000D+00 -2.5038323341025D-02  2.2746733876578D-01
   241  2.4000000000000D+00 -2.4159574339257D-02  2.2138468521318D-01
   242  2.4100000000000D+00 -2.3289626137734D-02  2.1523325130281D-01
   243  2.4200000000000D+00 -2.2429561273059D-02  2.0902789148419D-01
   244  2.4300000000000D+00 -2.1580401979768D-02  2.0278299010286D-01
   245  2.4400000000000D+00 -2.0743110210711D-02  1.9651244514620D-01
   246  2.4500000000000D+00 -1.9918587783890D-02  1.9022965376818D-01
   247  2.4600000000000D+00 -1.9107676656269D-02  1.8394749964047D-01
   248  2.4700000000000D+00 -1.8311159301800D-02  1.7767834178230D-01
   249  2.4800000000000D+00 -1.7529759206832D-02  1.7143400513497D-01
   250  2.4900000000000D+00 -1.6764141477367D-02  1.6522577282737D-01
   251  2.5000000000000D+00 -1.6014913541136D-02  1.5906437985488D-01
   252  2.5100000000000D+00 -1.5282625954378D-02  1.5296000841244D-01
   253  2.5200000000000D+00 -1.4567773305243D-02  1.4692228477500D-01
   254  2.5300000000000D+00 -1.3870795201476D-02  1.4096027750395D-01
   255  2.5400000000000D+00 -1.3192077347444D-02  1.3508249717012D-01
   256  2.5500000000000D+00 -1.2531952702599D-02  1.2929689747526D-01
   257  2.5600000000000D+00 -1.1890702712785D-02  1.2361087759317D-01
   258  2.5700000000000D+00 -1.1268558614058D-02  1.1803128585475D-01
   259  2.5800000000000D+00 -1.0665702802591D-02  1.1256442467705D-01
   260  2.5900000000000D+00 -1.0082270265379D-02  1.0721605659023D-01
   261  2.6000000000000D+00 -9.5183500665486D-03  1.0199141141572D-01
   262  2.6100000000000D+00 -8.9739868838252D-03  9.6895194525078D-02
   263  2.6200000000000D+00 -8.4491825934082D-03  9.1931596062513D-02
   264  2.6300000000000D+00 -7.9438978950134D-03  8.7104301124376D-02
   265  2.6400000000000D+00 -7.4580539699565D-03  8.2416500840039D-02
   266  2.6500000000000D+00 -6.9915341751441D-03  7.7870904273542D-02
   267  2.6600000000000D+00 -6.5441857648159D-03  7.3469751105249D-02
   268  2.6700000000000D+00 -6.1158216264282D-03  6.9214825012371D-02
   269  2.6800000000000D+00 -5.7062220399472D-03  6.5107467720350D-02
   270  2.6900000000000D+00 -5.3151364569227D-03  6.1148593694488D-02
   271  2.7000000000000D+00 -4.9422852723444D-03  5.7338705295475D-02
   272  2.7100000000000D+00 -4.5873616088065D-03  5.3677908459486D-02
   273  2.7200000000000D+00 -4.2500331146347D-03  5.0165928909858D-02
   274  2.7300000000000D+00 -3.9299437345180D-03  4.6802128584096D-02
   275  2.7400000000000D+00 -3.6267154839999D-03  4.3585522461820D-02
   276  2.7500000000000D+00 -3.3399502247891D-03  4.0514795765109D-02
   277  2.7600000000000D+00 -3.0692314087725D-03  3.7588321247094D-02
   278  2.7700000000000D+00 -2.8141258066128D-03  3.4804176672274D-02
   279  2.7800000000000D+00 -2.5741852271991D-03  3.2160162525314D-02
   280  2.7900000000000D+00 -2.3489482097744D-03  2.9653819769505D-02
   281  2.8000000000000D+00 -2.1379416772223D-03  2.7282447529923D-02
   282  2.8100000000000D+00 -1.9406825708687D-03  2.5043120863457D-02
   283  2.8200000000000D+00 -1.7566794691480D-03  2.2932708631939D-02
   284  2.8300000000000D+00 -1.5854341400244D-03  2.0947890968882D-02
   285  2.8400000000000D+00 -1.4264430754166D-03  1.9085176790039D-02
   286  2.8500000000000D+00 -1.2791990024175D-03  1.7340921295646D-02
   287  2.8600000000000D+00 -1.1431923309179D-03  1.5711343019804D-02
   288  2.8700000000000D+00 -1.0179125668565D-03  1.4192540716114D-02
   289  2.8800000000000D+00 -9.0284969279118D-04  1.2780510087152D-02
   290  2.8900000000000D+00 -7.9749550615613D-04  1.1471160236832D-02
   291  2.9000000000000D+00 -7.0134489468498D-04  1.0260329596957D-02
   292  2.9100000000000D+00 -6.1389707766562D-04  9.1438016322392D-03
   293  2.9200000000000D+00 -5.3465681949353D-04  8.1173204063161D-03
   294  2.9300000000000D+00 -4.6313556373448D-04  7.1766053555086D-03
   295  2.9400000000000D+00 -3.9885253608378D-04  6.3173658462508D-03
   296  2.9500000000000D+00 -3.4133580522893D-04  5.5353153784061D-03
   297  2.9600000000000D+00 -2.9012329306177D-04  4.8261853021944D-03
   298  2.9700000000000D+00 -2.4476372585144D-04  4.1857379201729D-03
   299  2.9800000000000D+00 -2.0481754540583D-04  3.6097792107508D-03
   300  2.9900000000000D+00 -1.6985778594113D-04  3.0941712746583D-03
   301  3.0000000000000D+00 -1.3947087922200D-04  2.6348439033415D-03
   302  3.0100000000000D+00 -1.1325742465778D-04  2.2278058205042D-03
   303  3.0200000000000D+00 -9.0832914035415D-05  1.8691554363877D-03
   304  3.0300000000000D+00 -7.1828410970530D-05  1.5550910963381D-03
   305  3.0400000000000D+00 -5.5891174500145D-05  1.2819206034852D-03
   306  3.0500000000000D+00 -4.2685244124365D-05  1.0460703201151D-03
   307  3.0600000000000D+00 -3.1891983491347D-05  8.4409384003760D-04
   308  3.0700000000000D+00 -2.3210572811915D-05  6.7267990905043D-04
   309  3.0800000000000D+00 -1.6358459812007D-05  5.2865985062749D-04
   310  3.0900000000000D+00 -1.1071768612051D-05  4.0901444585363D-04
   311  3.1000000000000D+00 -7.1056673506822D-06  3.1088038722429D-04
   312  3.1100000000000D+00 -4.2346917770718D-06  2.3155592081526D-04
   313  3.1200000000000D+00 -2.2537355500745D-06  1.6850703218634D-04
   314  3.1300000000000D+00 -9.7689557609390D-07  1.1937024691253D-04
   315  3.1400000000000D+00 -2.3637304904772D-07  8.1955002801000D-05
   316  3.1500000000000D+00  1.1373126305772D-07  5.4252017746201D-05
   317  3.1600000000000D+00  2.0035867097792D-07  3.4433203191991D-05
   318  3.1700000000000D+00  1.2464653673262D-07  2.0860119581426D-05
   319  3.1800000000000D+00 -3.3959934390803D-08  1.2082051728344D-05
   320  3.1900000000000D+00 -2.1402809329989D-07  6.8337618843464D-06
   321  3.2000000000000D+00 -3.7554188870077D-07  4.0800921428896D-06
   322  3.2100000000000D+00 -4.8522013153453D-07  2.8633702196510D-06
   323  3.2200000000000D+00 -5.2640920698171D-07  2.4395974221116D-06
   324  3.2300000000000D+00 -4.9592542042076D-07  2.2610671959157D-06
   325  3.2400000000000D+00 -3.8840283102502D-07  1.8119426253516D-06
   326  3.2500000000000D+00 -2.4661379434249D-07  1.2106942524140D-06
   327  3.2600000000000D+00 -1.0213544675872D-07  5.3081117950623D-07
   328  3.2700000000000D+00  1.0804825295037D-08 -4.7067816799972D-08
   329  3.2800000000000D+00  5.3069725593248D-08 -2.3405495938121D-07
   330  3.2900000000000D+00  5.4163399985208D-08 -2.4211795979776D-07
   331  3.3000000000000D+00  2.7735089465256D-08 -1.2567369682343D-07
   332  3.3100000000000D+00 -2.9197704673927D-09  1.0085572781125D-08
   333  3.3200000000000D+00 -1.1309904218909D-08  3.8579135024356D-08
   334  3.3300000000000D+00 -1.2037271588501D-08  4.0614329549200D-08
   335  3.3400000000000D+00 -6.3281921031698D-09  2.1148135553505D-08
   336  3.3500000000000D+00  3.4196634778429D-10 -1.5594285074615D-09
   337  3.3600000000000D+00  1.2455397862968D-09 -5.6798871073532D-09
   338  3.3700000000000D+00  1.3578464865712D-09 -6.1920260096798D-09
   339  3.3800000000000D+00  7.4089423122253D-10 -3.3786119384793D-09
   340  3.3900000000000D+00  0.0000000000000D+00  0.0000000000000D+00
   341  3.4000000000000D+00  0.0000000000000D+00  0.0000000000000D+00
   342  3.4100000000000D+00  0.0000000000000D+00  0.0000000000000D+00
   343  3.4200000000000D+00  0.0000000000000D+00  0.0000000000000D+00
   344  3.4300000000000D+00  0.0000000000000D+00  0.0000000000000D+00
   345  3.4400000000000D+00  0.0000000000000D+00  0.0000000000000D+00
   346  3.4500000000000D+00  0.0000000000000D+00  0.0000000000000D+00
   347  3.4600000000000D+00  0.0000000000000D+00  0.0000000000000D+00
   348  3.4700000000000D+00  0.0000000000000D+00  0.0000000000000D+00
   349  3.4800000000000D+00  0.0000000000000D+00  0.0000000000000D+00
   350  3.4900000000000D+00  0.0000000000000D+00  0.0000000000000D+00
   351  3.5000000000000D+00  0.0000000000000D+00  0.0000000000000D+00
   352  3.5100000000000D+00  0.0000000000000D+00  0.0000000000000D+00
   353  3.5200000000000D+00  0.0000000000000D+00  0.0000000000000D+00
   354  3.5300000000000D+00  0.0000000000000D+00  0.0000000000000D+00
   355  3.5400000000000D+00  0.0000000000000D+00  0.0000000000000D+00
   356  3.5500000000000D+00  0.0000000000000D+00  0.0000000000000D+00
   357  3.5600000000000D+00  0.0000000000000D+00  0.0000000000000D+00
   358  3.5700000000000D+00  0.0000000000000D+00  0.0000000000000D+00
   359  3.5800000000000D+00  0.0000000000000D+00  0.0000000000000D+00
   360  3.5900000000000D+00  0.0000000000000D+00  0.0000000000000D+00
   361  3.6000000000000D+00  0.0000000000000D+00  0.0000000000000D+00
   362  3.6100000000000D+00  0.0000000000000D+00  0.0000000000000D+00
   363  3.6200000000000D+00  0.0000000000000D+00  0.0000000000000D+00
   364  3.6300000000000D+00  0.0000000000000D+00  0.0000000000000D+00
   365  3.6400000000000D+00  0.0000000000000D+00  0.0000000000000D+00
   366  3.6500000000000D+00  0.0000000000000D+00  0.0000000000000D+00
   367  3.6600000000000D+00  0.0000000000000D+00  0.0000000000000D+00
   368  3.6700000000000D+00  0.0000000000000D+00  0.0000000000000D+00
   369  3.6800000000000D+00  0.0000000000000D+00  0.0000000000000D+00
   370  3.6900000000000D+00  0.0000000000000D+00  0.0000000000000D+00
   371  3.7000000000000D+00  0.0000000000000D+00  0.0000000000000D+00
   372  3.7100000000000D+00  0.0000000000000D+00  0.0000000000000D+00
   373  3.7200000000000D+00  0.0000000000000D+00  0.0000000000000D+00
   374  3.7300000000000D+00  0.0000000000000D+00  0.0000000000000D+00
   375  3.7400000000000D+00  0.0000000000000D+00  0.0000000000000D+00
   376  3.7500000000000D+00  0.0000000000000D+00  0.0000000000000D+00
   377  3.7600000000000D+00  0.0000000000000D+00  0.0000000000000D+00
   378  3.7700000000000D+00  0.0000000000000D+00  0.0000000000000D+00
   379  3.7800000000000D+00  0.0000000000000D+00  0.0000000000000D+00
   380  3.7900000000000D+00  0.0000000000000D+00  0.0000000000000D+00
   381  3.8000000000000D+00  0.0000000000000D+00  0.0000000000000D+00
   382  3.8100000000000D+00  0.0000000000000D+00  0.0000000000000D+00
   383  3.8200000000000D+00  0.0000000000000D+00  0.0000000000000D+00
   384  3.8300000000000D+00  0.0000000000000D+00  0.0000000000000D+00
   385  3.8400000000000D+00  0.0000000000000D+00  0.0000000000000D+00
   386  3.8500000000000D+00  0.0000000000000D+00  0.0000000000000D+00
   387  3.8600000000000D+00  0.0000000000000D+00  0.0000000000000D+00
   388  3.8700000000000D+00  0.0000000000000D+00  0.0000000000000D+00
   389  3.8800000000000D+00  0.0000000000000D+00  0.0000000000000D+00
   390  3.8900000000000D+00  0.0000000000000D+00  0.0000000000000D+00
   391  3.9000000000000D+00  0.0000000000000D+00  0.0000000000000D+00
   392  3.9100000000000D+00  0.0000000000000D+00  0.0000000000000D+00
   393  3.9200000000000D+00  0.0000000000000D+00  0.0000000000000D+00
   394  3.9300000000000D+00  0.0000000000000D+00  0.0000000000000D+00
   395  3.9400000000000D+00  0.0000000000000D+00  0.0000000000000D+00
   396  3.9500000000000D+00  0.0000000000000D+00  0.0000000000000D+00
   397  3.9600000000000D+00  0.0000000000000D+00  0.0000000000000D+00
   398  3.9700000000000D+00  0.0000000000000D+00  0.0000000000000D+00
   399  3.9800000000000D+00  0.0000000000000D+00  0.0000000000000D+00
   400  3.9900000000000D+00  0.0000000000000D+00  0.0000000000000D+00
   401  4.0000000000000D+00  0.0000000000000D+00  0.0000000000000D+00
   402  4.0100000000000D+00  0.0000000000000D+00  0.0000000000000D+00
   403  4.0200000000000D+00  0.0000000000000D+00  0.0000000000000D+00
   404  4.0300000000000D+00  0.0000000000000D+00  0.0000000000000D+00
   405  4.0400000000000D+00  0.0000000000000D+00  0.0000000000000D+00
   406  4.0500000000000D+00  0.0000000000000D+00  0.0000000000000D+00
   407  4.0600000000000D+00  0.0000000000000D+00  0.0000000000000D+00
   408  4.0700000000000D+00  0.0000000000000D+00  0.0000000000000D+00
   409  4.0800000000000D+00  0.0000000000000D+00  0.0000000000000D+00
   410  4.0900000000000D+00  0.0000000000000D+00  0.0000000000000D+00
   411  4.1000000000000D+00  0.0000000000000D+00  0.0000000000000D+00
   412  4.1100000000000D+00  0.0000000000000D+00  0.0000000000000D+00
   413  4.1200000000000D+00  0.0000000000000D+00  0.0000000000000D+00
   414  4.1300000000000D+00  0.0000000000000D+00  0.0000000000000D+00
   415  4.1400000000000D+00  0.0000000000000D+00  0.0000000000000D+00
   416  4.1500000000000D+00  0.0000000000000D+00  0.0000000000000D+00
   417  4.1600000000000D+00  0.0000000000000D+00  0.0000000000000D+00
   418  4.1700000000000D+00  0.0000000000000D+00  0.0000000000000D+00
   419  4.1800000000000D+00  0.0000000000000D+00  0.0000000000000D+00
   420  4.1900000000000D+00  0.0000000000000D+00  0.0000000000000D+00
   421  4.2000000000000D+00  0.0000000000000D+00  0.0000000000000D+00
   422  4.2100000000000D+00  0.0000000000000D+00  0.0000000000000D+00
   423  4.2200000000000D+00  0.0000000000000D+00  0.0000000000000D+00