Cr    ONCVPSP-3.3.1  r_core=   2.20727   2.37104   2.37104
     24.0000     14.0000      210904    zatom,zion,pspd
     8       2   2     4   600     0    pspcod,pspxc,lmax,lloc,mmax,r2well
  5.99000000  0.00000000  0.00000000    rchrg fchrg qchrg
     2     2     2     0     0    nproj
     1     1           extension_switch
   0                        -1.6928838759107D+00  1.2957723030452D+00
     1  0.0000000000000D+00 -2.3079316235908D-12 -3.6827429994446D-11
     2  1.0000000000000D-02  2.8996404082093D-02 -5.0430494233718D-02
     3  2.0000000000000D-02  5.7974097665841D-02 -1.0077618946931D-01
     4  3.0000000000000D-02  8.6914393287816D-02 -1.5095230751510D-01
     5  4.0000000000000D-02  1.1579864946513D-01 -2.0087411283987D-01
     6  5.0000000000000D-02  1.4460829346304D-01 -2.5045693651297D-01
     7  6.0000000000000D-02  1.7332484379703D-01 -2.9961620324987D-01
     8  7.0000000000000D-02  2.0192993238348D-01 -3.4826746255513D-01
     9  8.0000000000000D-02  2.3040532625558D-01 -3.9632642491765D-01
    10  9.0000000000000D-02  2.5873294876372D-01 -4.4370900396771D-01
    11  1.0000000000000D-01  2.8689490018317D-01 -4.9033136545114D-01
    12  1.1000000000000D-01  3.1487347765570D-01 -5.3610998381417D-01
    13  1.2000000000000D-01  3.4265119439613D-01 -5.8096170712272D-01
    14  1.3000000000000D-01  3.7021079809967D-01 -6.2480383096325D-01
    15  1.4000000000000D-01  3.9753528849115D-01 -6.6755418188894D-01
    16  1.5000000000000D-01  4.2460793396277D-01 -7.0913121088552D-01
    17  1.6000000000000D-01  4.5141228725321D-01 -7.4945409723636D-01
    18  1.7000000000000D-01  4.7793220012687D-01 -7.8844286306710D-01
    19  1.8000000000000D-01  5.0415183701891D-01 -8.2601849874610D-01
    20  1.9000000000000D-01  5.3005568761832D-01 -8.6210309921085D-01
    21  2.0000000000000D-01  5.5562857836817D-01 -8.9662001118042D-01
    22  2.1000000000000D-01  5.8085568286943D-01 -9.2949399110321D-01
    23  2.2000000000000D-01  6.0572253118168D-01 -9.6065137357728D-01
    24  2.3000000000000D-01  6.3021501802139D-01 -9.9002024986755D-01
    25  2.4000000000000D-01  6.5431940986550D-01 -1.0175306560334D+00
    26  2.5000000000000D-01  6.7802235097521D-01 -1.0431147700691D+00
    27  2.6000000000000D-01  7.0131086836168D-01 -1.0667071173521D+00
    28  2.7000000000000D-01  7.2417237572247D-01 -1.0882447835886D+00
    29  2.8000000000000D-01  7.4659467638382D-01 -1.1076676343462D+00
    30  2.9000000000000D-01  7.6856596529043D-01 -1.1249185401642D+00
    31  3.0000000000000D-01  7.9007483009032D-01 -1.1399436061443D+00
    32  3.1000000000000D-01  8.1111025136825D-01 -1.1526924048366D+00
    33  3.2000000000000D-01  8.3166160208606D-01 -1.1631182111588D+00
    34  3.3000000000000D-01  8.5171864629379D-01 -1.1711782380154D+00
    35  3.4000000000000D-01  8.7127153717921D-01 -1.1768338712198D+00
    36  3.5000000000000D-01  8.9031081452797D-01 -1.1800509022689D+00
    37  3.6000000000000D-01  9.0882740166938D-01 -1.1807997574730D+00
    38  3.7000000000000D-01  9.2681260198615D-01 -1.1790557219085D+00
    39  3.8000000000000D-01  9.4425809506855D-01 -1.1747991566352D+00
    40  3.9000000000000D-01  9.6115593259505D-01 -1.1680157076009D+00
    41  4.0000000000000D-01  9.7749853402275D-01 -1.1586965046550D+00
    42  4.1000000000000D-01  9.9327868217130D-01 -1.1468383490939D+00
    43  4.2000000000000D-01  1.0084895187839D+00 -1.1324438881768D+00
    44  4.3000000000000D-01  1.0231245401482D+00 -1.1155217750804D+00
    45  4.4000000000000D-01  1.0371775928583D+00 -1.0960868127936D+00
    46  4.5000000000000D-01  1.0506428697974D+00 -1.0741600805043D+00
    47  4.6000000000000D-01  1.0635149064178D+00 -1.0497690410883D+00
    48  4.7000000000000D-01  1.0757885773914D+00 -1.0229476283769D+00
    49  4.8000000000000D-01  1.0874590937006D+00 -9.9373631296312D-01
    50  4.9000000000000D-01  1.0985220002349D+00 -9.6218214538980D-01
    51  5.0000000000000D-01  1.1089731739529D+00 -9.2833877566487D-01
    52  5.1000000000000D-01  1.1188088226652D+00 -8.9226644815297D-01
    53  5.2000000000000D-01  1.1280254844868D+00 -8.5403197100898D-01
    54  5.3000000000000D-01  1.1366200280013D+00 -8.1370865944080D-01
    55  5.4000000000000D-01  1.1445896531733D+00 -7.7137625221850D-01
    56  5.5000000000000D-01  1.1519318930367D+00 -7.2712080098242D-01
    57  5.6000000000000D-01  1.1586446161816D+00 -6.8103453204466D-01
    58  5.7000000000000D-01  1.1647260300513D+00 -6.3321568052357D-01
    59  5.8000000000000D-01  1.1701746850572D+00 -5.8376829680175D-01
    60  5.9000000000000D-01  1.1749894795073D+00 -5.3280202544997D-01
    61  6.0000000000000D-01  1.1791696653388D+00 -4.8043185691532D-01
    62  6.1000000000000D-01  1.1827148546351D+00 -4.2677785242742D-01
    63  6.2000000000000D-01  1.1856250269009D+00 -3.7196484273365D-01
    64  6.3000000000000D-01  1.1879005370590D+00 -3.1612210142949D-01
    65  6.4000000000000D-01  1.1895421241263D+00 -2.5938299380468D-01
    66  6.5000000000000D-01  1.1905509205173D+00 -2.0188460227718D-01
    67  6.6000000000000D-01  1.1909284619154D+00 -1.4376732963491D-01
    68  6.7000000000000D-01  1.1906766976468D+00 -8.5174481448563D-02
    69  6.8000000000000D-01  1.1897980014830D+00 -2.6251829156980D-02
    70  6.9000000000000D-01  1.1882951827904D+00  3.2852844541735D-02
    71  7.0000000000000D-01  1.1861714979426D+00  9.1990216236259D-02
    72  7.1000000000000D-01  1.1834306619022D+00  1.5100990641093D-01
    73  7.2000000000000D-01  1.1800768598735D+00  2.0976097613616D-01
    74  7.3000000000000D-01  1.1761147589258D+00  2.6809243376077D-01
    75  7.4000000000000D-01  1.1715495194803D+00  3.2585374943910D-01
    76  7.5000000000000D-01  1.1663868065497D+00  3.8289537524898D-01
    77  7.6000000000000D-01  1.1606328006201D+00  4.3906926859120D-01
    78  7.7000000000000D-01  1.1542942080596D+00  4.9422941650793D-01
    79  7.8000000000000D-01  1.1473782709374D+00  5.4823235851721D-01
    80  7.9000000000000D-01  1.1398927761383D+00  6.0093770553204D-01
    81  8.0000000000000D-01  1.1318460636553D+00  6.5220865241873D-01
    82  8.1000000000000D-01  1.1232470339462D+00  7.0191248174729D-01
    83  8.2000000000000D-01  1.1141051542393D+00  7.4992105629929D-01
    84  8.3000000000000D-01  1.1044304636793D+00  7.9611129792446D-01
    85  8.4000000000000D-01  1.0942335772043D+00  8.4036565037700D-01
    86  8.5000000000000D-01  1.0835256880513D+00  8.8257252381571D-01
    87  8.6000000000000D-01  1.0723185687911D+00  9.2262671871823D-01
    88  8.7000000000000D-01  1.0606245708000D+00  9.6042982704018D-01
    89  8.8000000000000D-01  1.0484566220816D+00  9.9589060854135D-01
    90  8.9000000000000D-01  1.0358282233588D+00  1.0289253403069D+00
    91  9.0000000000000D-01  1.0227534423633D+00  1.0594581376076D+00
    92  9.1000000000000D-01  1.0092469062606D+00  1.0874212443714D+00
    93  9.2000000000000D-01  9.9532379215267D-01  1.1127552916778D+00
    94  9.3000000000000D-01  9.8099981561532D-01  1.1354095228343D+00
    95  9.4000000000000D-01  9.6629121723248D-01  1.1553419837524D+00
    96  9.5000000000000D-01  9.5121474710249D-01  1.1725196775083D+00
    97  9.6000000000000D-01  9.3578764730111D-01  1.1869186821450D+00
    98  9.7000000000000D-01  9.2002763229706D-01  1.1985242309543D+00
    99  9.8000000000000D-01  9.0395286732712D-01  1.2073307546623D+00
   100  9.9000000000000D-01  8.8758194474884D-01  1.2133418851349D+00
   101  1.0000000000000D+00  8.7093385840087D-01  1.2165704204091D+00
   102  1.0100000000000D+00  8.5402797601165D-01  1.2170382510550D+00
   103  1.0200000000000D+00  8.3688400970947D-01  1.2147762480733D+00
   104  1.0300000000000D+00  8.1952198469772D-01  1.2098241127253D+00
   105  1.0400000000000D+00  8.0196220617043D-01  1.2022301888935D+00
   106  1.0500000000000D+00  7.8422522455449D-01  1.1920512387650D+00
   107  1.0600000000000D+00  7.6633179917521D-01  1.1793521828193D+00
   108  1.0700000000000D+00  7.4830286045226D-01  1.1642058052876D+00
   109  1.0800000000000D+00  7.3015947074314D-01  1.1466924264382D+00
   110  1.0900000000000D+00  7.1192278396057D-01  1.1268995432122D+00
   111  1.1000000000000D+00  6.9361400409913D-01  1.1049214399072D+00
   112  1.1100000000000D+00  6.7525434281410D-01  1.0808587707523D+00
   113  1.1200000000000D+00  6.5686497620379D-01  1.0548181163800D+00
   114  1.1300000000000D+00  6.3846700095307D-01  1.0269115163368D+00
   115  1.1400000000000D+00  6.2008139000202D-01  9.9725597990129D-01
   116  1.1500000000000D+00  6.0172894790831D-01  9.6597297758512D-01
   117  1.1600000000000D+00  5.8343026607686D-01  9.3318791580491D-01
   118  1.1700000000000D+00  5.6520567803395D-01  8.9902959730324D-01
   119  1.1800000000000D+00  5.4707521492474D-01  8.6362966996750D-01
   120  1.1900000000000D+00  5.2905856141535D-01  8.2712206674764D-01
   121  1.2000000000000D+00  5.1117501218136D-01  7.8964243943886D-01
   122  1.2100000000000D+00  4.9344342916404D-01  7.5132758911204D-01
   123  1.2200000000000D+00  4.7588219977370D-01  7.1231489598682D-01
   124  1.2300000000000D+00  4.5850919621926D-01  6.7274175155692D-01
   125  1.2400000000000D+00  4.4134173613770D-01  6.3274499575081D-01
   126  1.2500000000000D+00  4.2439654469225D-01  5.9246036186079D-01
   127  1.2600000000000D+00  4.0768971830783D-01  5.5202193198134D-01
   128  1.2700000000000D+00  3.9123669020020D-01  5.1156160558012D-01
   129  1.2800000000000D+00  3.7505219784854D-01  4.7120858373405D-01
   130  1.2900000000000D+00  3.5915025256191D-01  4.3108887158493D-01
   131  1.3000000000000D+00  3.4354411126949D-01  3.9132480132268D-01
   132  1.3100000000000D+00  3.2824625065844D-01  3.5203457791525D-01
   133  1.3200000000000D+00  3.1326834378412D-01  3.1333184982724D-01
   134  1.3300000000000D+00  2.9862123924730D-01  2.7532530657741D-01
   135  1.3400000000000D+00  2.8431494303332D-01  2.3811830497559D-01
   136  1.3500000000000D+00  2.7035860310245D-01  2.0180852581844D-01
   137  1.3600000000000D+00  2.5676049678517D-01  1.6648766232790D-01
   138  1.3700000000000D+00  2.4352802104874D-01  1.3224114178886D-01
   139  1.3800000000000D+00  2.3066768567685D-01  9.9147881508466D-02
   140  1.3900000000000D+00  2.1818510937428D-01  6.7280079781587D-02
   141  1.4000000000000D+00  2.0608501883774D-01  3.6703042977888D-02
   142  1.4100000000000D+00  1.9437125076653D-01  7.4750488849343D-03
   143  1.4200000000000D+00  1.8304675681095D-01 -2.0352753207430D-02
   144  1.4300000000000D+00  1.7211361143842D-01 -4.6736405452207D-02
   145  1.4400000000000D+00  1.6157302264704D-01 -7.1639167941510D-02
   146  1.4500000000000D+00  1.5142534551050D-01 -9.5031508465398D-02
   147  1.4600000000000D+00  1.4167009844592D-01 -1.1689105662673D-01
   148  1.4700000000000D+00  1.3230598214689D-01 -1.3720252265026D-01
   149  1.4800000000000D+00  1.2333090108140D-01 -1.5595758185784D-01
   150  1.4900000000000D+00  1.1474198743111D-01 -1.7315472615792D-01
   151  1.5000000000000D+00  1.0653562738590D-01 -1.8879908329638D-01
   152  1.5100000000000D+00  9.8707489619023D-02 -2.0290220602068D-01
   153  1.5200000000000D+00  9.1252555849013D-02 -2.1548183202097D-01
   154  1.5300000000000D+00  8.4165153297008D-02 -2.2656161707187D-01
   155  1.5400000000000D+00  7.7438988910304D-02 -2.3617084280329D-01
   156  1.5500000000000D+00  7.1067185168355D-02 -2.4434410140427D-01
   157  1.5600000000000D+00  6.5042317302977D-02 -2.5112095933961D-01
   158  1.5700000000000D+00  5.9356451756356D-02 -2.5654560225169D-01
   159  1.5800000000000D+00  5.4001185682872D-02 -2.6066646359475D-01
   160  1.5900000000000D+00  4.8967687317830D-02 -2.6353583915490D-01
   161  1.6000000000000D+00  4.4246737010512D-02 -2.6520949022253D-01
   162  1.6100000000000D+00  3.9828768734828D-02 -2.6574623769297D-01
   163  1.6200000000000D+00  3.5703911883397D-02 -2.6520754981825D-01
   164  1.6300000000000D+00  3.1862033142264D-02 -2.6365712612731D-01
   165  1.6400000000000D+00  2.8292778271391D-02 -2.6116047999989D-01
   166  1.6500000000000D+00  2.4985613574238D-02 -2.5778452265425D-01
   167  1.6600000000000D+00  2.1929866904123D-02 -2.5359715072431D-01
   168  1.6700000000000D+00  1.9114767982835D-02 -2.4866684035043D-01
   169  1.6800000000000D+00  1.6529487904650D-02 -2.4306224960650D-01
   170  1.6900000000000D+00  1.4163177597067D-02 -2.3685183229035D-01
   171  1.7000000000000D+00  1.2005005142912D-02 -2.3010346446567D-01
   172  1.7100000000000D+00  1.0044191730232D-02 -2.2288408688533D-01
   173  1.7200000000000D+00  8.2700461764553D-03 -2.1525936410582D-01
   174  1.7300000000000D+00  6.6719977822122D-03 -2.0729336360425D-01
   175  1.7400000000000D+00  5.2396275182382D-03 -1.9904825491488D-01
   176  1.7500000000000D+00  3.9626972778962D-03 -1.9058403243985D-01
   177  1.7600000000000D+00  2.8311772752024D-03 -1.8195826087904D-01
   178  1.7700000000000D+00  1.8352712814989D-03 -1.7322584750899D-01
   179  1.7800000000000D+00  9.6543987763443D-04 -1.6443883888561D-01
   180  1.7900000000000D+00  2.1242136688204D-04 -1.5564624690123D-01
   181  1.8000000000000D+00 -4.3274938833736D-04 -1.4689390053687D-01
   182  1.8100000000000D+00 -9.7872456472952D-04 -1.3822432833254D-01
   183  1.8200000000000D+00 -1.4338291282562D-03 -1.2967666760222D-01
   184  1.8300000000000D+00 -1.8060490231152D-03 -1.2128660443816D-01
   185  1.8400000000000D+00 -2.1030215673777D-03 -1.1308634122356D-01
   186  1.8500000000000D+00 -2.3320282099202D-03 -1.0510459384841D-01
   187  1.8600000000000D+00 -2.4999895193144D-03 -9.7366616790848D-02
   188  1.8700000000000D+00 -2.6134623837728D-03 -8.9894255774220D-02
   189  1.8800000000000D+00 -2.6786394333355D-03 -8.2706028160027D-02
   190  1.8900000000000D+00 -2.7013504644400D-03 -7.5817227947072D-02
   191  1.9000000000000D+00 -2.6870660280252D-03 -6.9240057686831D-02
   192  1.9100000000000D+00 -2.6409027852862D-03 -6.2983781656431D-02
   193  1.9200000000000D+00 -2.5676308727815D-03 -5.7054903765254D-02
   194  1.9300000000000D+00 -2.4716828561135D-03 -5.1457364168301D-02
   195  1.9400000000000D+00 -2.3571645644036D-03 -4.6192759581876D-02
   196  1.9500000000000D+00 -2.2278666704940D-03 -4.1260567067196D-02
   197  1.9600000000000D+00 -2.0872784581742D-03 -3.6658398738270D-02
   198  1.9700000000000D+00 -1.9386051358345D-03 -3.2382313111889D-02
   199  1.9800000000000D+00 -1.7847732628381D-03 -2.8426899214677D-02
   200  1.9900000000000D+00 -1.6284566462554D-03 -2.4785723732079D-02
   201  2.0000000000000D+00 -1.4721130719475D-03 -2.1451992501113D-02
   202  2.0100000000000D+00 -1.3179699653877D-03 -1.8418232863791D-02
   203  2.0200000000000D+00 -1.1680115063920D-03 -1.5675993294698D-02
   204  2.0300000000000D+00 -1.0239691309222D-03 -1.3215616742442D-02
   205  2.0400000000000D+00 -8.8731677906832D-04 -1.1026147658040D-02
   206  2.0500000000000D+00 -7.5923210265125D-04 -9.0945782635037D-03
   207  2.0600000000000D+00 -6.4063418600352D-04 -7.4065350639453D-03
   208  2.0700000000000D+00 -5.3220096979778D-04 -5.9465936587753D-03
   209  2.0800000000000D+00 -4.3438453658128D-04 -4.6985397205527D-03
   210  2.0900000000000D+00 -3.4741914032568D-04 -3.6454805530919D-03
   211  2.1000000000000D+00 -2.7133886440577D-04 -2.7701427937947D-03
   212  2.1100000000000D+00 -2.0598891785579D-04 -2.0550444693802D-03
   213  2.1200000000000D+00 -1.5103863969576D-04 -1.4826964479615D-03
   214  2.1300000000000D+00 -1.0599258749061D-04 -1.0357809000154D-03
   215  2.1400000000000D+00 -7.0187477826405D-05 -6.9735213485351D-04
   216  2.1500000000000D+00 -4.2869597191524D-05 -4.5077722456480D-04
   217  2.1600000000000D+00 -2.3142634374268D-05 -2.7968193659677D-04
   218  2.1700000000000D+00 -9.8989161490022D-06 -1.6938291893713D-04
   219  2.1800000000000D+00 -1.8528548306395D-06 -1.0670292475805D-04
   220  2.1900000000000D+00  2.3198431407869D-06 -8.0516482901957D-05
   221  2.2000000000000D+00  3.6974822894387D-06 -7.0212391307022D-05
   222  2.2100000000000D+00  3.2457564942909D-06 -5.7666976826990D-05
   223  2.2200000000000D+00  1.8409033020500D-06 -3.3241430823001D-05
   224  2.2300000000000D+00  4.1261330144492D-07 -7.8618343695374D-06
   225  2.2400000000000D+00 -3.2682657049628D-07  5.2787246640461D-06
   226  2.2500000000000D+00 -3.4472748858417D-07  5.5841461927295D-06
   227  2.2600000000000D+00 -2.0472044282853D-08  3.3360739734553D-07
   228  2.2700000000000D+00  9.1597928947045D-08 -1.3190245851908D-06
   229  2.2800000000000D+00  7.0577072518145D-08 -1.0061131975278D-06
   230  2.2900000000000D+00 -3.0354218057505D-09  5.4513017216853D-08
   231  2.3000000000000D+00 -9.9362657432926D-09  1.7844499387505D-07
   232  2.3100000000000D+00 -5.2319694251415D-09  9.3960726911318D-08
   233  2.3200000000000D+00  0.0000000000000D+00  0.0000000000000D+00
   234  2.3300000000000D+00  0.0000000000000D+00  0.0000000000000D+00
   235  2.3400000000000D+00  0.0000000000000D+00  0.0000000000000D+00
   236  2.3500000000000D+00  0.0000000000000D+00  0.0000000000000D+00
   237  2.3600000000000D+00  0.0000000000000D+00  0.0000000000000D+00
   238  2.3700000000000D+00  0.0000000000000D+00  0.0000000000000D+00
   239  2.3800000000000D+00  0.0000000000000D+00  0.0000000000000D+00
   240  2.3900000000000D+00  0.0000000000000D+00  0.0000000000000D+00
   241  2.4000000000000D+00  0.0000000000000D+00  0.0000000000000D+00
   242  2.4100000000000D+00  0.0000000000000D+00  0.0000000000000D+00
   243  2.4200000000000D+00  0.0000000000000D+00  0.0000000000000D+00
   244  2.4300000000000D+00  0.0000000000000D+00  0.0000000000000D+00
   245  2.4400000000000D+00  0.0000000000000D+00  0.0000000000000D+00
   246  2.4500000000000D+00  0.0000000000000D+00  0.0000000000000D+00
   247  2.4600000000000D+00  0.0000000000000D+00  0.0000000000000D+00
   248  2.4700000000000D+00  0.0000000000000D+00  0.0000000000000D+00
   249  2.4800000000000D+00  0.0000000000000D+00  0.0000000000000D+00
   250  2.4900000000000D+00  0.0000000000000D+00  0.0000000000000D+00
   251  2.5000000000000D+00  0.0000000000000D+00  0.0000000000000D+00
   252  2.5100000000000D+00  0.0000000000000D+00  0.0000000000000D+00
   253  2.5200000000000D+00  0.0000000000000D+00  0.0000000000000D+00
   254  2.5300000000000D+00  0.0000000000000D+00  0.0000000000000D+00
   255  2.5400000000000D+00  0.0000000000000D+00  0.0000000000000D+00
   256  2.5500000000000D+00  0.0000000000000D+00  0.0000000000000D+00
   257  2.5600000000000D+00  0.0000000000000D+00  0.0000000000000D+00
   258  2.5700000000000D+00  0.0000000000000D+00  0.0000000000000D+00
   259  2.5800000000000D+00  0.0000000000000D+00  0.0000000000000D+00
   260  2.5900000000000D+00  0.0000000000000D+00  0.0000000000000D+00
   261  2.6000000000000D+00  0.0000000000000D+00  0.0000000000000D+00
   262  2.6100000000000D+00  0.0000000000000D+00  0.0000000000000D+00
   263  2.6200000000000D+00  0.0000000000000D+00  0.0000000000000D+00
   264  2.6300000000000D+00  0.0000000000000D+00  0.0000000000000D+00
   265  2.6400000000000D+00  0.0000000000000D+00  0.0000000000000D+00
   266  2.6500000000000D+00  0.0000000000000D+00  0.0000000000000D+00
   267  2.6600000000000D+00  0.0000000000000D+00  0.0000000000000D+00
   268  2.6700000000000D+00  0.0000000000000D+00  0.0000000000000D+00
   269  2.6800000000000D+00  0.0000000000000D+00  0.0000000000000D+00
   270  2.6900000000000D+00  0.0000000000000D+00  0.0000000000000D+00
   271  2.7000000000000D+00  0.0000000000000D+00  0.0000000000000D+00
   272  2.7100000000000D+00  0.0000000000000D+00  0.0000000000000D+00
   273  2.7200000000000D+00  0.0000000000000D+00  0.0000000000000D+00
   274  2.7300000000000D+00  0.0000000000000D+00  0.0000000000000D+00
   275  2.7400000000000D+00  0.0000000000000D+00  0.0000000000000D+00
   276  2.7500000000000D+00  0.0000000000000D+00  0.0000000000000D+00
   277  2.7600000000000D+00  0.0000000000000D+00  0.0000000000000D+00
   278  2.7700000000000D+00  0.0000000000000D+00  0.0000000000000D+00
   279  2.7800000000000D+00  0.0000000000000D+00  0.0000000000000D+00
   280  2.7900000000000D+00  0.0000000000000D+00  0.0000000000000D+00
   281  2.8000000000000D+00  0.0000000000000D+00  0.0000000000000D+00
   282  2.8100000000000D+00  0.0000000000000D+00  0.0000000000000D+00
   283  2.8200000000000D+00  0.0000000000000D+00  0.0000000000000D+00
   284  2.8300000000000D+00  0.0000000000000D+00  0.0000000000000D+00
   285  2.8400000000000D+00  0.0000000000000D+00  0.0000000000000D+00
   286  2.8500000000000D+00  0.0000000000000D+00  0.0000000000000D+00
   287  2.8600000000000D+00  0.0000000000000D+00  0.0000000000000D+00
   288  2.8700000000000D+00  0.0000000000000D+00  0.0000000000000D+00
   289  2.8800000000000D+00  0.0000000000000D+00  0.0000000000000D+00
   290  2.8900000000000D+00  0.0000000000000D+00  0.0000000000000D+00
   291  2.9000000000000D+00  0.0000000000000D+00  0.0000000000000D+00
   292  2.9100000000000D+00  0.0000000000000D+00  0.0000000000000D+00
   293  2.9200000000000D+00  0.0000000000000D+00  0.0000000000000D+00
   294  2.9300000000000D+00  0.0000000000000D+00  0.0000000000000D+00
   295  2.9400000000000D+00  0.0000000000000D+00  0.0000000000000D+00
   296  2.9500000000000D+00  0.0000000000000D+00  0.0000000000000D+00
   297  2.9600000000000D+00  0.0000000000000D+00  0.0000000000000D+00
   298  2.9700000000000D+00  0.0000000000000D+00  0.0000000000000D+00
   299  2.9800000000000D+00  0.0000000000000D+00  0.0000000000000D+00
   300  2.9900000000000D+00  0.0000000000000D+00  0.0000000000000D+00
   301  3.0000000000000D+00  0.0000000000000D+00  0.0000000000000D+00
   302  3.0100000000000D+00  0.0000000000000D+00  0.0000000000000D+00
   303  3.0200000000000D+00  0.0000000000000D+00  0.0000000000000D+00
   304  3.0300000000000D+00  0.0000000000000D+00  0.0000000000000D+00
   305  3.0400000000000D+00  0.0000000000000D+00  0.0000000000000D+00
   306  3.0500000000000D+00  0.0000000000000D+00  0.0000000000000D+00
   307  3.0600000000000D+00  0.0000000000000D+00  0.0000000000000D+00
   308  3.0700000000000D+00  0.0000000000000D+00  0.0000000000000D+00
   309  3.0800000000000D+00  0.0000000000000D+00  0.0000000000000D+00
   310  3.0900000000000D+00  0.0000000000000D+00  0.0000000000000D+00
   311  3.1000000000000D+00  0.0000000000000D+00  0.0000000000000D+00
   312  3.1100000000000D+00  0.0000000000000D+00  0.0000000000000D+00
   313  3.1200000000000D+00  0.0000000000000D+00  0.0000000000000D+00
   314  3.1300000000000D+00  0.0000000000000D+00  0.0000000000000D+00
   315  3.1400000000000D+00  0.0000000000000D+00  0.0000000000000D+00
   316  3.1500000000000D+00  0.0000000000000D+00  0.0000000000000D+00
   317  3.1600000000000D+00  0.0000000000000D+00  0.0000000000000D+00
   318  3.1700000000000D+00  0.0000000000000D+00  0.0000000000000D+00
   319  3.1800000000000D+00  0.0000000000000D+00  0.0000000000000D+00
   320  3.1900000000000D+00  0.0000000000000D+00  0.0000000000000D+00
   321  3.2000000000000D+00  0.0000000000000D+00  0.0000000000000D+00
   322  3.2100000000000D+00  0.0000000000000D+00  0.0000000000000D+00
   323  3.2200000000000D+00  0.0000000000000D+00  0.0000000000000D+00
   324  3.2300000000000D+00  0.0000000000000D+00  0.0000000000000D+00
   325  3.2400000000000D+00  0.0000000000000D+00  0.0000000000000D+00
   326  3.2500000000000D+00  0.0000000000000D+00  0.0000000000000D+00
   327  3.2600000000000D+00  0.0000000000000D+00  0.0000000000000D+00
   328  3.2700000000000D+00  0.0000000000000D+00  0.0000000000000D+00
   329  3.2800000000000D+00  0.0000000000000D+00  0.0000000000000D+00
   330  3.2900000000000D+00  0.0000000000000D+00  0.0000000000000D+00
   331  3.3000000000000D+00  0.0000000000000D+00  0.0000000000000D+00
   332  3.3100000000000D+00  0.0000000000000D+00  0.0000000000000D+00
   333  3.3200000000000D+00  0.0000000000000D+00  0.0000000000000D+00
   334  3.3300000000000D+00  0.0000000000000D+00  0.0000000000000D+00
   335  3.3400000000000D+00  0.0000000000000D+00  0.0000000000000D+00
   336  3.3500000000000D+00  0.0000000000000D+00  0.0000000000000D+00
   337  3.3600000000000D+00  0.0000000000000D+00  0.0000000000000D+00
   338  3.3700000000000D+00  0.0000000000000D+00  0.0000000000000D+00
   339  3.3800000000000D+00  0.0000000000000D+00  0.0000000000000D+00
   340  3.3900000000000D+00  0.0000000000000D+00  0.0000000000000D+00
   341  3.4000000000000D+00  0.0000000000000D+00  0.0000000000000D+00
   342  3.4100000000000D+00  0.0000000000000D+00  0.0000000000000D+00
   343  3.4200000000000D+00  0.0000000000000D+00  0.0000000000000D+00
   344  3.4300000000000D+00  0.0000000000000D+00  0.0000000000000D+00
   345  3.4400000000000D+00  0.0000000000000D+00  0.0000000000000D+00
   346  3.4500000000000D+00  0.0000000000000D+00  0.0000000000000D+00
   347  3.4600000000000D+00  0.0000000000000D+00  0.0000000000000D+00
   348  3.4700000000000D+00  0.0000000000000D+00  0.0000000000000D+00
   349  3.4800000000000D+00  0.0000000000000D+00  0.0000000000000D+00
   350  3.4900000000000D+00  0.0000000000000D+00  0.0000000000000D+00
   351  3.5000000000000D+00  0.0000000000000D+00  0.0000000000000D+00
   352  3.5100000000000D+00  0.0000000000000D+00  0.0000000000000D+00
   353  3.5200000000000D+00  0.0000000000000D+00  0.0000000000000D+00
   354  3.5300000000000D+00  0.0000000000000D+00  0.0000000000000D+00
   355  3.5400000000000D+00  0.0000000000000D+00  0.0000000000000D+00
   356  3.5500000000000D+00  0.0000000000000D+00  0.0000000000000D+00
   357  3.5600000000000D+00  0.0000000000000D+00  0.0000000000000D+00
   358  3.5700000000000D+00  0.0000000000000D+00  0.0000000000000D+00
   359  3.5800000000000D+00  0.0000000000000D+00  0.0000000000000D+00
   360  3.5900000000000D+00  0.0000000000000D+00  0.0000000000000D+00
   361  3.6000000000000D+00  0.0000000000000D+00  0.0000000000000D+00
   362  3.6100000000000D+00  0.0000000000000D+00  0.0000000000000D+00
   363  3.6200000000000D+00  0.0000000000000D+00  0.0000000000000D+00
   364  3.6300000000000D+00  0.0000000000000D+00  0.0000000000000D+00
   365  3.6400000000000D+00  0.0000000000000D+00  0.0000000000000D+00
   366  3.6500000000000D+00  0.0000000000000D+00  0.0000000000000D+00
   367  3.6600000000000D+00  0.0000000000000D+00  0.0000000000000D+00
   368  3.6700000000000D+00  0.0000000000000D+00  0.0000000000000D+00
   369  3.6800000000000D+00  0.0000000000000D+00  0.0000000000000D+00
   370  3.6900000000000D+00  0.0000000000000D+00  0.0000000000000D+00
   371  3.7000000000000D+00  0.0000000000000D+00  0.0000000000000D+00
   372  3.7100000000000D+00  0.0000000000000D+00  0.0000000000000D+00
   373  3.7200000000000D+00  0.0000000000000D+00  0.0000000000000D+00
   374  3.7300000000000D+00  0.0000000000000D+00  0.0000000000000D+00
   375  3.7400000000000D+00  0.0000000000000D+00  0.0000000000000D+00
   376  3.7500000000000D+00  0.0000000000000D+00  0.0000000000000D+00
   377  3.7600000000000D+00  0.0000000000000D+00  0.0000000000000D+00
   378  3.7700000000000D+00  0.0000000000000D+00  0.0000000000000D+00
   379  3.7800000000000D+00  0.0000000000000D+00  0.0000000000000D+00
   380  3.7900000000000D+00  0.0000000000000D+00  0.0000000000000D+00
   381  3.8000000000000D+00  0.0000000000000D+00  0.0000000000000D+00
   382  3.8100000000000D+00  0.0000000000000D+00  0.0000000000000D+00
   383  3.8200000000000D+00  0.0000000000000D+00  0.0000000000000D+00
   384  3.8300000000000D+00  0.0000000000000D+00  0.0000000000000D+00
   385  3.8400000000000D+00  0.0000000000000D+00  0.0000000000000D+00
   386  3.8500000000000D+00  0.0000000000000D+00  0.0000000000000D+00
   387  3.8600000000000D+00  0.0000000000000D+00  0.0000000000000D+00
   388  3.8700000000000D+00  0.0000000000000D+00  0.0000000000000D+00
   389  3.8800000000000D+00  0.0000000000000D+00  0.0000000000000D+00
   390  3.8900000000000D+00  0.0000000000000D+00  0.0000000000000D+00
   391  3.9000000000000D+00  0.0000000000000D+00  0.0000000000000D+00
   392  3.9100000000000D+00  0.0000000000000D+00  0.0000000000000D+00
   393  3.9200000000000D+00  0.0000000000000D+00  0.0000000000000D+00
   394  3.9300000000000D+00  0.0000000000000D+00  0.0000000000000D+00
   395  3.9400000000000D+00  0.0000000000000D+00  0.0000000000000D+00
   396  3.9500000000000D+00  0.0000000000000D+00  0.0000000000000D+00
   397  3.9600000000000D+00  0.0000000000000D+00  0.0000000000000D+00
   398  3.9700000000000D+00  0.0000000000000D+00  0.0000000000000D+00
   399  3.9800000000000D+00  0.0000000000000D+00  0.0000000000000D+00
   400  3.9900000000000D+00  0.0000000000000D+00  0.0000000000000D+00
   401  4.0000000000000D+00  0.0000000000000D+00  0.0000000000000D+00
   402  4.0100000000000D+00  0.0000000000000D+00  0.0000000000000D+00
   403  4.0200000000000D+00  0.0000000000000D+00  0.0000000000000D+00
   404  4.0300000000000D+00  0.0000000000000D+00  0.0000000000000D+00
   405  4.0400000000000D+00  0.0000000000000D+00  0.0000000000000D+00
   406  4.0500000000000D+00  0.0000000000000D+00  0.0000000000000D+00
   407  4.0600000000000D+00  0.0000000000000D+00  0.0000000000000D+00
   408  4.0700000000000D+00  0.0000000000000D+00  0.0000000000000D+00
   409  4.0800000000000D+00  0.0000000000000D+00  0.0000000000000D+00
   410  4.0900000000000D+00  0.0000000000000D+00  0.0000000000000D+00
   411  4.1000000000000D+00  0.0000000000000D+00  0.0000000000000D+00
   412  4.1100000000000D+00  0.0000000000000D+00  0.0000000000000D+00
   413  4.1200000000000D+00  0.0000000000000D+00  0.0000000000000D+00
   414  4.1300000000000D+00  0.0000000000000D+00  0.0000000000000D+00
   415  4.1400000000000D+00  0.0000000000000D+00  0.0000000000000D+00
   416  4.1500000000000D+00  0.0000000000000D+00  0.0000000000000D+00
   417  4.1600000000000D+00  0.0000000000000D+00  0.0000000000000D+00
   418  4.1700000000000D+00  0.0000000000000D+00  0.0000000000000D+00
   419  4.1800000000000D+00  0.0000000000000D+00  0.0000000000000D+00
   420  4.1900000000000D+00  0.0000000000000D+00  0.0000000000000D+00
   421  4.2000000000000D+00  0.0000000000000D+00  0.0000000000000D+00
   422  4.2100000000000D+00  0.0000000000000D+00  0.0000000000000D+00