Cr    ONCVPSP-3.3.1  r_core=   2.20727   2.37104   2.37104
     24.0000     14.0000      210904    zatom,zion,pspd
     8       2   2     4   600     0    pspcod,pspxc,lmax,lloc,mmax,r2well
  5.99000000  0.00000000  0.00000000    rchrg fchrg qchrg
     2     2     2     0    nproj
     3     1           extension_switch
     3     3     0    nprojso
   0                        -1.6917880610161D+00  1.2944396423513D+00
     1  0.0000000000000D+00 -2.3031854201605D-12 -3.6794234326010D-11
     2  1.0000000000000D-02  2.8987447423039D-02 -5.0433331566026D-02
     3  2.0000000000000D-02  5.7956201918818D-02 -1.0078186346553D-01
     4  3.0000000000000D-02  8.6887593550493D-02 -1.5096081692066D-01
     5  4.0000000000000D-02  1.1576299827293D-01 -2.0088545597760D-01
     6  5.0000000000000D-02  1.4456386065635D-01 -2.5047111152619D-01
     7  6.0000000000000D-02  1.7327171634488D-01 -2.9963320842235D-01
     8  7.0000000000000D-02  2.0186821416456D-01 -3.4828729670437D-01
     9  8.0000000000000D-02  2.3033513779722D-01 -3.9634908785718D-01
    10  9.0000000000000D-02  2.5865442694003D-01 -4.4373449703313D-01
    11  1.0000000000000D-01  2.8680819787340D-01 -4.9035969208409D-01
    12  1.1000000000000D-01  3.1477876336418D-01 -5.3614115019757D-01
    13  1.2000000000000D-01  3.4254865183523D-01 -5.8099572285994D-01
    14  1.3000000000000D-01  3.7010062573739D-01 -6.2484070979344D-01
    15  1.4000000000000D-01  3.9741769906504D-01 -6.6759394242997D-01
    16  1.5000000000000D-01  4.2448315396201D-01 -7.0917387739567D-01
    17  1.6000000000000D-01  4.5128055637081D-01 -7.4949970038552D-01
    18  1.7000000000000D-01  4.7779377068403D-01 -7.8849144070771D-01
    19  1.8000000000000D-01  5.0400697336368D-01 -8.2607009667413D-01
    20  1.9000000000000D-01  5.2990466550069D-01 -8.6215777190660D-01
    21  2.0000000000000D-01  5.5547168429396D-01 -8.9667782251908D-01
    22  2.1000000000000D-01  5.8069321343522D-01 -9.2955501502510D-01
    23  2.2000000000000D-01  6.0555479239321D-01 -9.6071569470745D-01
    24  2.3000000000000D-01  6.3004232459777D-01 -9.9008796407523D-01
    25  2.4000000000000D-01  6.5414208453165D-01 -1.0176018709213D+00
    26  2.5000000000000D-01  6.7784072374496D-01 -1.0431896053832D+00
    27  2.6000000000000D-01  7.0112527581396D-01 -1.0667857053036D+00
    28  2.7000000000000D-01  7.2398316027290D-01 -1.0883272690788D+00
    29  2.8000000000000D-01  7.4640218555419D-01 -1.1077541750869D+00
    30  2.9000000000000D-01  7.6837055097825D-01 -1.1250093066861D+00
    31  3.0000000000000D-01  7.8987684784087D-01 -1.1400387816877D+00
    32  3.1000000000000D-01  8.1091005965112D-01 -1.1527921851176D+00
    33  3.2000000000000D-01  8.3145956157859D-01 -1.1632228040064D+00
    34  3.3000000000000D-01  8.5151511917322D-01 -1.1712878628763D+00
    35  3.4000000000000D-01  8.7106688642565D-01 -1.1769487585264D+00
    36  3.5000000000000D-01  8.9010540324000D-01 -1.1801712926697D+00
    37  3.6000000000000D-01  9.0862159239403D-01 -1.1809259009235D+00
    38  3.7000000000000D-01  9.2660675606497D-01 -1.1791878766234D+00
    39  3.8000000000000D-01  9.4405257200121D-01 -1.1749375879015D+00
    40  3.9000000000000D-01  9.6095108942192D-01 -1.1681606864560D+00
    41  4.0000000000000D-01  9.7729472472773D-01 -1.1588483064311D+00
    42  4.1000000000000D-01  9.9307625710603D-01 -1.1469972518343D+00
    43  4.2000000000000D-01  1.0082888241144D+00 -1.1326101709292D+00
    44  4.3000000000000D-01  1.0229259173245D+00 -1.1156957160736D+00
    45  4.4000000000000D-01  1.0369813781085D+00 -1.0962686875047D+00
    46  4.5000000000000D-01  1.0504493936459D+00 -1.0743501596263D+00
    47  4.6000000000000D-01  1.0633244932287D+00 -1.0499675884055D+00
    48  4.7000000000000D-01  1.0756015449370D+00 -1.0231548985611D+00
    49  4.8000000000000D-01  1.0872757527557D+00 -9.9395254929971D-01
    50  4.9000000000000D-01  1.0983426541964D+00 -9.6240757744783D-01
    51  5.0000000000000D-01  1.1087981184849D+00 -9.2857361692249D-01
    52  5.1000000000000D-01  1.1186383453693D+00 -8.9251089359296D-01
    53  5.2000000000000D-01  1.1278598645971D+00 -8.5428619469819D-01
    54  5.3000000000000D-01  1.1364595361043D+00 -8.1397281210839D-01
    55  5.4000000000000D-01  1.1444345509512D+00 -7.7165045884822D-01
    56  5.5000000000000D-01  1.1517824330343D+00 -7.2740515843457D-01
    57  5.6000000000000D-01  1.1585010415954D+00 -6.8132910672348D-01
    58  5.7000000000000D-01  1.1645885745408D+00 -6.3352050610625D-01
    59  5.8000000000000D-01  1.1700435725764D+00 -5.8408337204496D-01
    60  5.9000000000000D-01  1.1748649241565D+00 -5.3312731208998D-01
    61  6.0000000000000D-01  1.1790518712348D+00 -4.8076727767766D-01
    62  6.1000000000000D-01  1.1826040157999D+00 -4.2712328916169D-01
    63  6.2000000000000D-01  1.1855213271662D+00 -3.7232013468857D-01
    64  6.3000000000000D-01  1.1878041499872D+00 -3.1648704368324D-01
    65  6.4000000000000D-01  1.1894532129452D+00 -2.5975733586454D-01
    66  6.5000000000000D-01  1.1904696380686D+00 -2.0226804686217D-01
    67  6.6000000000000D-01  1.1908549506153D+00 -1.4415953165413D-01
    68  6.7000000000000D-01  1.1906110894578D+00 -8.5575047187192D-02
    69  6.8000000000000D-01  1.1897404178951D+00 -2.6660315680939D-02
    70  6.9000000000000D-01  1.1882457348122D+00  3.2436929752605D-02
    71  7.0000000000000D-01  1.1861302861000D+00  9.1567415417619D-02
    72  7.1000000000000D-01  1.1833977762434D+00  1.5058081139835D-01
    73  7.2000000000000D-01  1.1800523799812D+00  2.0932622799822D-01
    74  7.3000000000000D-01  1.1760987539343D+00  2.6765272217566D-01
    75  7.4000000000000D-01  1.1715420480963D+00  3.2540981181136D-01
    76  7.5000000000000D-01  1.1663879170781D+00  3.8244799556383D-01
    77  7.6000000000000D-01  1.1606425309924D+00  4.3861927600587D-01
    78  7.7000000000000D-01  1.1543125858649D+00  4.9377768368075D-01
    79  7.8000000000000D-01  1.1474053134563D+00  5.4777979967656D-01
    80  7.9000000000000D-01  1.1399284903779D+00  6.0048527428913D-01
    81  8.0000000000000D-01  1.1318904463870D+00  6.5175733932929D-01
    82  8.1000000000000D-01  1.1233000717440D+00  7.0146331162916D-01
    83  8.2000000000000D-01  1.1141668235207D+00  7.4947508531413D-01
    84  8.3000000000000D-01  1.1045007307473D+00  7.9566961043350D-01
    85  8.4000000000000D-01  1.0943123982914D+00  8.3992935558199D-01
    86  8.5000000000000D-01  1.0836130093658D+00  8.8214275219771D-01
    87  8.6000000000000D-01  1.0724143265657D+00  9.2220461828840D-01
    88  8.7000000000000D-01  1.0607286913433D+00  9.6001655941763D-01
    89  8.8000000000000D-01  1.0485690218336D+00  9.9548734487481D-01
    90  8.9000000000000D-01  1.0359488089496D+00  1.0285332570576D+00
    91  9.0000000000000D-01  1.0228821106777D+00  1.0590784122123D+00
    92  9.1000000000000D-01  1.0093835445073D+00  1.0870550508052D+00
    93  9.2000000000000D-01  9.9546827794069D-01  1.1124037959368D+00
    94  9.3000000000000D-01  9.8115201703718D-01  1.1350738783599D+00
    95  9.4000000000000D-01  9.6645099295579D-01  1.1550233268193D+00
    96  9.5000000000000D-01  9.5138194647067D-01  1.1722191225980D+00
    97  9.6000000000000D-01  9.3596211044427D-01  1.1866373173279D+00
    98  9.7000000000000D-01  9.2020919025406D-01  1.1982631133032D+00
    99  9.8000000000000D-01  9.0414134217974D-01  1.2070909057218D+00
   100  9.9000000000000D-01  8.8777714976918D-01  1.2131242864678D+00
   101  1.0000000000000D+00  8.7113559821281D-01  1.2163760092449D+00
   102  1.0100000000000D+00  8.5423604676752D-01  1.2168679160627D+00
   103  1.0200000000000D+00  8.3709819928272D-01  1.2146308252801D+00
   104  1.0300000000000D+00  8.1974207289247D-01  1.2097043816047D+00
   105  1.0400000000000D+00  8.0218796494887D-01  1.2021368686430D+00
   106  1.0500000000000D+00  7.8445641828272D-01  1.1919849847947D+00
   107  1.0600000000000D+00  7.6656818488832D-01  1.1793135834703D+00
   108  1.0700000000000D+00  7.4854418813915D-01  1.1641953787993D+00
   109  1.0800000000000D+00  7.3040548365172D-01  1.1467106181824D+00
   110  1.0900000000000D+00  7.1217321892364D-01  1.1269467232095D+00
   111  1.1000000000000D+00  6.9386859188122D-01  1.1049979006409D+00
   112  1.1100000000000D+00  6.7551280847957D-01  1.0809647252931D+00
   113  1.1200000000000D+00  6.5712703950609D-01  1.0549536968341D+00
   114  1.1300000000000D+00  6.3873237674524D-01  1.0270767726276D+00
   115  1.1400000000000D+00  6.2034978866804D-01  9.9745087889208D-01
   116  1.1500000000000D+00  6.0200007581516D-01  9.6619740255150D-01
   117  1.1600000000000D+00  5.8370382604662D-01  9.3344166626099D-01
   118  1.1700000000000D+00  5.6548136983543D-01  8.9931238918514D-01
   119  1.1800000000000D+00  5.4735273578379D-01  8.6394113617573D-01
   120  1.1900000000000D+00  5.2933760654297D-01  8.2746175804771D-01
   121  1.2000000000000D+00  5.1145527531860D-01  7.9000982571788D-01
   122  1.2100000000000D+00  4.9372460314229D-01  7.5172206098709D-01
   123  1.2200000000000D+00  4.7616397708932D-01  7.1273576675885D-01
   124  1.2300000000000D+00  4.5879126962082D-01  6.7318825950231D-01
   125  1.2400000000000D+00  4.4162379922431D-01  6.3321630674069D-01
   126  1.2500000000000D+00  4.2467829252134D-01  5.9295557229663D-01
   127  1.2600000000000D+00  4.0797084801035D-01  5.5254007203345D-01
   128  1.2700000000000D+00  3.9151690160146D-01  5.1210164271402D-01
   129  1.2800000000000D+00  3.7533119409253D-01  4.7176942650835D-01
   130  1.2900000000000D+00  3.5942774073695D-01  4.3166937370254D-01
   131  1.3000000000000D+00  3.4381980303302D-01  3.9192376591596D-01
   132  1.3100000000000D+00  3.2851986285867D-01  3.5265076204444D-01
   133  1.3200000000000D+00  3.1353959907606D-01  3.1396396917016D-01
   134  1.3300000000000D+00  2.9888986670096D-01  2.7597204028760D-01
   135  1.3400000000000D+00  2.8458067873147D-01  2.3877830068494D-01
   136  1.3500000000000D+00  2.7062119072557D-01  2.0248040475957D-01
   137  1.3600000000000D+00  2.5701968818110D-01  1.6717002455104D-01
   138  1.3700000000000D+00  2.4378357678461D-01  1.3293257144737D-01
   139  1.3800000000000D+00  2.3091937557087D-01  9.9846952186560D-02
   140  1.3900000000000D+00  2.1843271300487D-01  6.7985359838133D-02
   141  1.4000000000000D+00  2.0632832602788D-01  3.7413100879412D-02
   142  1.4100000000000D+00  1.9461006204085D-01  8.1884585015769D-03
   143  1.4200000000000D+00  1.8328088382351D-01 -1.9637407369264D-02
   144  1.4300000000000D+00  1.7234287736896D-01 -4.6020523106465D-02
   145  1.4400000000000D+00  1.6179726256385D-01 -7.0924127993484D-02
   146  1.4500000000000D+00  1.5164440669791D-01 -9.4318664121973D-02
   147  1.4600000000000D+00  1.4188384069474D-01 -1.1618173066951D-01
   148  1.4700000000000D+00  1.3251427800621D-01 -1.3649800289454D-01
   149  1.4800000000000D+00  1.2353363607032D-01 -1.5525911681916D-01
   150  1.4900000000000D+00  1.1493906020912D-01 -1.7246352094679D-01
   151  1.5000000000000D+00  1.0672694988084D-01 -1.8811629576038D-01
   152  1.5100000000000D+00  9.8892987111693D-02 -2.0222894315162D-01
   153  1.5200000000000D+00  9.1432167013847D-02 -2.1481914664350D-01
   154  1.5300000000000D+00  8.4338830198155D-02 -2.2591050482799D-01
   155  1.5400000000000D+00  7.7606696952948D-02 -2.3553223944559D-01
   156  1.5500000000000D+00  7.1228903005153D-02 -2.4371888040897D-01
   157  1.5600000000000D+00  6.5198036695764D-02 -2.5050992984861D-01
   158  1.5700000000000D+00  5.9506177393476D-02 -2.5594950735081D-01
   159  1.5800000000000D+00  5.4144934952731D-02 -2.6008597893337D-01
   160  1.5900000000000D+00  4.9105490039454D-02 -2.6297157191040D-01
   161  1.6000000000000D+00  4.4378635122150D-02 -2.6466197841077D-01
   162  1.6100000000000D+00  3.9954815941834D-02 -2.6521594982395D-01
   163  1.6200000000000D+00  3.5824173266820D-02 -2.6469488489436D-01
   164  1.6300000000000D+00  3.1976584729846D-02 -2.6316241397926D-01
   165  1.6400000000000D+00  2.8401706572787D-02 -2.6068398195367D-01
   166  1.6500000000000D+00  2.5089015082545D-02 -2.5732643252047D-01
   167  1.6600000000000D+00  2.2027847565918D-02 -2.5315759609947D-01
   168  1.6700000000000D+00  1.9207442639172D-02 -2.4824588421761D-01
   169  1.6800000000000D+00  1.6616979705534D-02 -2.4265989222178D-01
   170  1.6900000000000D+00  1.4245617392191D-02 -2.3646801333887D-01
   171  1.7000000000000D+00  1.2082530851445D-02 -2.2973806547060D-01
   172  1.7100000000000D+00  1.0116947692711D-02 -2.2253693385053D-01
   173  1.7200000000000D+00  8.3381824917994D-03 -2.1493023037291D-01
   174  1.7300000000000D+00  6.7356696331193D-03 -2.0698197290209D-01
   175  1.7400000000000D+00  5.2989944881310D-03 -1.9875428458018D-01
   176  1.7500000000000D+00  4.0179226628501D-03 -1.9030711678470D-01
   177  1.7600000000000D+00  2.8824273940744D-03 -1.8169799468251D-01
   178  1.7700000000000D+00  1.8827147878092D-03 -1.7298178960695D-01
   179  1.7800000000000D+00  1.0092470764004D-03 -1.6421051583513D-01
   180  1.7900000000000D+00  2.5276353999194D-04 -1.5543315669240D-01
   181  1.8000000000000D+00 -3.9570064507970D-04 -1.4669551632831D-01
   182  1.8100000000000D+00 -9.4479798937716D-04 -1.3804010218305D-01
   183  1.8200000000000D+00 -1.4028544222678D-03 -1.2950603417471D-01
   184  1.8300000000000D+00 -1.7778574593668D-03 -1.2112898464924D-01
   185  1.8400000000000D+00 -2.0774465737158D-03 -1.1294114581500D-01
   186  1.8500000000000D+00 -2.3089059252437D-03 -1.0497122685558D-01
   187  1.8600000000000D+00 -2.4791593194255D-03 -9.7244478884868D-02
   188  1.8700000000000D+00 -2.5947673743666D-03 -8.9782747455361D-02
   189  1.8800000000000D+00 -2.6619269075851D-03 -8.2604552780115D-02
   190  1.8900000000000D+00 -2.6864723229902D-03 -7.5725194541472D-02
   191  1.9000000000000D+00 -2.6738791591312D-03 -6.9156883595290D-02
   192  1.9100000000000D+00 -2.6292694033735D-03 -6.2908894916660D-02
   193  1.9200000000000D+00 -2.5574188135648D-03 -5.6987745261120D-02
   194  1.9300000000000D+00 -2.4627658269493D-03 -5.1397389519222D-02
   195  1.9400000000000D+00 -2.3494223482499D-03 -4.6139440755511D-02
   196  1.9500000000000D+00 -2.2211852837817D-03 -4.1213393719917D-02
   197  1.9600000000000D+00 -2.0815502603903D-03 -3.6616879255720D-02
   198  1.9700000000000D+00 -1.9337288862940D-03 -3.2345975291981D-02
   199  1.9800000000000D+00 -1.7806541465991D-03 -2.8395290863208D-02
   200  1.9900000000000D+00 -1.6250062368022D-03 -2.4758412760398D-02
   201  2.0000000000000D+00 -1.4692492098474D-03 -2.1428566275066D-02
   202  2.0100000000000D+00 -1.3156166477070D-03 -1.8398297956943D-02
   203  2.0200000000000D+00 -1.1660987865051D-03 -1.5659175631522D-02
   204  2.0300000000000D+00 -1.0224330216685D-03 -1.3201562044745D-02
   205  2.0400000000000D+00 -8.8609914420085D-04 -1.1014522026684D-02
   206  2.0500000000000D+00 -7.5828060154177D-04 -9.0850696764966D-03
   207  2.0600000000000D+00 -6.3990213569387D-04 -7.3988541053575D-03
   208  2.0700000000000D+00 -5.3164715988075D-04 -5.9404739113381D-03
   209  2.0800000000000D+00 -4.3397300407931D-04 -4.6937378891871D-03
   210  2.0900000000000D+00 -3.4711892083184D-04 -3.6417764979053D-03
   211  2.1000000000000D+00 -2.7112370248435D-04 -2.7673392529755D-03
   212  2.1100000000000D+00 -2.0583695047068D-04 -2.0529666190402D-03
   213  2.1200000000000D+00 -1.5093205117162D-04 -1.4811912647267D-03
   214  2.1300000000000D+00 -1.0591723764778D-04 -1.0347163456767D-03
   215  2.1400000000000D+00 -7.0132461972253D-05 -6.9661601428811D-04
   216  2.1500000000000D+00 -4.2827012812342D-05 -4.5027675966875D-04
   217  2.1600000000000D+00 -2.3107248818425D-05 -2.7934316367297D-04
   218  2.1700000000000D+00 -9.8671969836327D-06 -1.6914686859042D-04
   219  2.1800000000000D+00 -1.8221434592334D-06 -1.0652243425306D-04
   220  2.1900000000000D+00  2.3520060415066D-06 -8.0352997458103D-05
   221  2.2000000000000D+00  3.7295229437753D-06 -7.0056981348825D-05
   222  2.2100000000000D+00  3.2725395912720D-06 -5.7537249326870D-05
   223  2.2200000000000D+00  1.8562542153193D-06 -3.3166726674293D-05
   224  2.2300000000000D+00  4.1618660173590D-07 -7.8443079843686D-06
   225  2.2400000000000D+00 -3.2934603991995D-07  5.2666199907886D-06
   226  2.2500000000000D+00 -3.4738943925758D-07  5.5713465438131D-06
   227  2.2600000000000D+00 -2.0630737291266D-08  3.3284354125680D-07
   228  2.2700000000000D+00  9.2252363120904D-08 -1.3159273338009D-06
   229  2.2800000000000D+00  7.1077955509247D-08 -1.0037453273478D-06
   230  2.2900000000000D+00 -3.0606695778268D-09  5.4390704288171D-08
   231  2.3000000000000D+00 -1.0018912765298D-08  1.7804461005988D-07
   232  2.3100000000000D+00 -5.2754874532803D-09  9.3749903657050D-08
   233  2.3200000000000D+00  0.0000000000000D+00  0.0000000000000D+00
   234  2.3300000000000D+00  0.0000000000000D+00  0.0000000000000D+00
   235  2.3400000000000D+00  0.0000000000000D+00  0.0000000000000D+00
   236  2.3500000000000D+00  0.0000000000000D+00  0.0000000000000D+00
   237  2.3600000000000D+00  0.0000000000000D+00  0.0000000000000D+00
   238  2.3700000000000D+00  0.0000000000000D+00  0.0000000000000D+00
   239  2.3800000000000D+00  0.0000000000000D+00  0.0000000000000D+00
   240  2.3900000000000D+00  0.0000000000000D+00  0.0000000000000D+00
   241  2.4000000000000D+00  0.0000000000000D+00  0.0000000000000D+00
   242  2.4100000000000D+00  0.0000000000000D+00  0.0000000000000D+00
   243  2.4200000000000D+00  0.0000000000000D+00  0.0000000000000D+00
   244  2.4300000000000D+00  0.0000000000000D+00  0.0000000000000D+00
   245  2.4400000000000D+00  0.0000000000000D+00  0.0000000000000D+00
   246  2.4500000000000D+00  0.0000000000000D+00  0.0000000000000D+00
   247  2.4600000000000D+00  0.0000000000000D+00  0.0000000000000D+00
   248  2.4700000000000D+00  0.0000000000000D+00  0.0000000000000D+00
   249  2.4800000000000D+00  0.0000000000000D+00  0.0000000000000D+00
   250  2.4900000000000D+00  0.0000000000000D+00  0.0000000000000D+00
   251  2.5000000000000D+00  0.0000000000000D+00  0.0000000000000D+00
   252  2.5100000000000D+00  0.0000000000000D+00  0.0000000000000D+00
   253  2.5200000000000D+00  0.0000000000000D+00  0.0000000000000D+00
   254  2.5300000000000D+00  0.0000000000000D+00  0.0000000000000D+00
   255  2.5400000000000D+00  0.0000000000000D+00  0.0000000000000D+00
   256  2.5500000000000D+00  0.0000000000000D+00  0.0000000000000D+00
   257  2.5600000000000D+00  0.0000000000000D+00  0.0000000000000D+00
   258  2.5700000000000D+00  0.0000000000000D+00  0.0000000000000D+00
   259  2.5800000000000D+00  0.0000000000000D+00  0.0000000000000D+00
   260  2.5900000000000D+00  0.0000000000000D+00  0.0000000000000D+00
   261  2.6000000000000D+00  0.0000000000000D+00  0.0000000000000D+00
   262  2.6100000000000D+00  0.0000000000000D+00  0.0000000000000D+00
   263  2.6200000000000D+00  0.0000000000000D+00  0.0000000000000D+00
   264  2.6300000000000D+00  0.0000000000000D+00  0.0000000000000D+00
   265  2.6400000000000D+00  0.0000000000000D+00  0.0000000000000D+00
   266  2.6500000000000D+00  0.0000000000000D+00  0.0000000000000D+00
   267  2.6600000000000D+00  0.0000000000000D+00  0.0000000000000D+00
   268  2.6700000000000D+00  0.0000000000000D+00  0.0000000000000D+00
   269  2.6800000000000D+00  0.0000000000000D+00  0.0000000000000D+00
   270  2.6900000000000D+00  0.0000000000000D+00  0.0000000000000D+00
   271  2.7000000000000D+00  0.0000000000000D+00  0.0000000000000D+00
   272  2.7100000000000D+00  0.0000000000000D+00  0.0000000000000D+00
   273  2.7200000000000D+00  0.0000000000000D+00  0.0000000000000D+00
   274  2.7300000000000D+00  0.0000000000000D+00  0.0000000000000D+00
   275  2.7400000000000D+00  0.0000000000000D+00  0.0000000000000D+00
   276  2.7500000000000D+00  0.0000000000000D+00  0.0000000000000D+00
   277  2.7600000000000D+00  0.0000000000000D+00  0.0000000000000D+00
   278  2.7700000000000D+00  0.0000000000000D+00  0.0000000000000D+00
   279  2.7800000000000D+00  0.0000000000000D+00  0.0000000000000D+00
   280  2.7900000000000D+00  0.0000000000000D+00  0.0000000000000D+00
   281  2.8000000000000D+00  0.0000000000000D+00  0.0000000000000D+00
   282  2.8100000000000D+00  0.0000000000000D+00  0.0000000000000D+00
   283  2.8200000000000D+00  0.0000000000000D+00  0.0000000000000D+00
   284  2.8300000000000D+00  0.0000000000000D+00  0.0000000000000D+00
   285  2.8400000000000D+00  0.0000000000000D+00  0.0000000000000D+00
   286  2.8500000000000D+00  0.0000000000000D+00  0.0000000000000D+00
   287  2.8600000000000D+00  0.0000000000000D+00  0.0000000000000D+00
   288  2.8700000000000D+00  0.0000000000000D+00  0.0000000000000D+00
   289  2.8800000000000D+00  0.0000000000000D+00  0.0000000000000D+00
   290  2.8900000000000D+00  0.0000000000000D+00  0.0000000000000D+00
   291  2.9000000000000D+00  0.0000000000000D+00  0.0000000000000D+00
   292  2.9100000000000D+00  0.0000000000000D+00  0.0000000000000D+00
   293  2.9200000000000D+00  0.0000000000000D+00  0.0000000000000D+00
   294  2.9300000000000D+00  0.0000000000000D+00  0.0000000000000D+00
   295  2.9400000000000D+00  0.0000000000000D+00  0.0000000000000D+00
   296  2.9500000000000D+00  0.0000000000000D+00  0.0000000000000D+00
   297  2.9600000000000D+00  0.0000000000000D+00  0.0000000000000D+00
   298  2.9700000000000D+00  0.0000000000000D+00  0.0000000000000D+00
   299  2.9800000000000D+00  0.0000000000000D+00  0.0000000000000D+00
   300  2.9900000000000D+00  0.0000000000000D+00  0.0000000000000D+00
   301  3.0000000000000D+00  0.0000000000000D+00  0.0000000000000D+00
   302  3.0100000000000D+00  0.0000000000000D+00  0.0000000000000D+00
   303  3.0200000000000D+00  0.0000000000000D+00  0.0000000000000D+00
   304  3.0300000000000D+00  0.0000000000000D+00  0.0000000000000D+00
   305  3.0400000000000D+00  0.0000000000000D+00  0.0000000000000D+00
   306  3.0500000000000D+00  0.0000000000000D+00  0.0000000000000D+00
   307  3.0600000000000D+00  0.0000000000000D+00  0.0000000000000D+00
   308  3.0700000000000D+00  0.0000000000000D+00  0.0000000000000D+00
   309  3.0800000000000D+00  0.0000000000000D+00  0.0000000000000D+00
   310  3.0900000000000D+00  0.0000000000000D+00  0.0000000000000D+00
   311  3.1000000000000D+00  0.0000000000000D+00  0.0000000000000D+00
   312  3.1100000000000D+00  0.0000000000000D+00  0.0000000000000D+00
   313  3.1200000000000D+00  0.0000000000000D+00  0.0000000000000D+00
   314  3.1300000000000D+00  0.0000000000000D+00  0.0000000000000D+00
   315  3.1400000000000D+00  0.0000000000000D+00  0.0000000000000D+00
   316  3.1500000000000D+00  0.0000000000000D+00  0.0000000000000D+00
   317  3.1600000000000D+00  0.0000000000000D+00  0.0000000000000D+00
   318  3.1700000000000D+00  0.0000000000000D+00  0.0000000000000D+00
   319  3.1800000000000D+00  0.0000000000000D+00  0.0000000000000D+00
   320  3.1900000000000D+00  0.0000000000000D+00  0.0000000000000D+00
   321  3.2000000000000D+00  0.0000000000000D+00  0.0000000000000D+00
   322  3.2100000000000D+00  0.0000000000000D+00  0.0000000000000D+00
   323  3.2200000000000D+00  0.0000000000000D+00  0.0000000000000D+00
   324  3.2300000000000D+00  0.0000000000000D+00  0.0000000000000D+00
   325  3.2400000000000D+00  0.0000000000000D+00  0.0000000000000D+00
   326  3.2500000000000D+00  0.0000000000000D+00  0.0000000000000D+00
   327  3.2600000000000D+00  0.0000000000000D+00  0.0000000000000D+00
   328  3.2700000000000D+00  0.0000000000000D+00  0.0000000000000D+00
   329  3.2800000000000D+00  0.0000000000000D+00  0.0000000000000D+00
   330  3.2900000000000D+00  0.0000000000000D+00  0.0000000000000D+00
   331  3.3000000000000D+00  0.0000000000000D+00  0.0000000000000D+00
   332  3.3100000000000D+00  0.0000000000000D+00  0.0000000000000D+00
   333  3.3200000000000D+00  0.0000000000000D+00  0.0000000000000D+00
   334  3.3300000000000D+00  0.0000000000000D+00  0.0000000000000D+00
   335  3.3400000000000D+00  0.0000000000000D+00  0.0000000000000D+00
   336  3.3500000000000D+00  0.0000000000000D+00  0.0000000000000D+00
   337  3.3600000000000D+00  0.0000000000000D+00  0.0000000000000D+00
   338  3.3700000000000D+00  0.0000000000000D+00  0.0000000000000D+00
   339  3.3800000000000D+00  0.0000000000000D+00  0.0000000000000D+00
   340  3.3900000000000D+00  0.0000000000000D+00  0.0000000000000D+00
   341  3.4000000000000D+00  0.0000000000000D+00  0.0000000000000D+00
   342  3.4100000000000D+00  0.0000000000000D+00  0.0000000000000D+00
   343  3.4200000000000D+00  0.0000000000000D+00  0.0000000000000D+00
   344  3.4300000000000D+00  0.0000000000000D+00  0.0000000000000D+00
   345  3.4400000000000D+00  0.0000000000000D+00  0.0000000000000D+00
   346  3.4500000000000D+00  0.0000000000000D+00  0.0000000000000D+00
   347  3.4600000000000D+00  0.0000000000000D+00  0.0000000000000D+00
   348  3.4700000000000D+00  0.0000000000000D+00  0.0000000000000D+00
   349  3.4800000000000D+00  0.0000000000000D+00  0.0000000000000D+00
   350  3.4900000000000D+00  0.0000000000000D+00  0.0000000000000D+00
   351  3.5000000000000D+00  0.0000000000000D+00  0.0000000000000D+00
   352  3.5100000000000D+00  0.0000000000000D+00  0.0000000000000D+00
   353  3.5200000000000D+00  0.0000000000000D+00  0.0000000000000D+00
   354  3.5300000000000D+00  0.0000000000000D+00  0.0000000000000D+00
   355  3.5400000000000D+00  0.0000000000000D+00  0.0000000000000D+00
   356  3.5500000000000D+00  0.0000000000000D+00  0.0000000000000D+00
   357  3.5600000000000D+00  0.0000000000000D+00  0.0000000000000D+00
   358  3.5700000000000D+00  0.0000000000000D+00  0.0000000000000D+00
   359  3.5800000000000D+00  0.0000000000000D+00  0.0000000000000D+00
   360  3.5900000000000D+00  0.0000000000000D+00  0.0000000000000D+00
   361  3.6000000000000D+00  0.0000000000000D+00  0.0000000000000D+00
   362  3.6100000000000D+00  0.0000000000000D+00  0.0000000000000D+00
   363  3.6200000000000D+00  0.0000000000000D+00  0.0000000000000D+00
   364  3.6300000000000D+00  0.0000000000000D+00  0.0000000000000D+00
   365  3.6400000000000D+00  0.0000000000000D+00  0.0000000000000D+00
   366  3.6500000000000D+00  0.0000000000000D+00  0.0000000000000D+00
   367  3.6600000000000D+00  0.0000000000000D+00  0.0000000000000D+00
   368  3.6700000000000D+00  0.0000000000000D+00  0.0000000000000D+00
   369  3.6800000000000D+00  0.0000000000000D+00  0.0000000000000D+00
   370  3.6900000000000D+00  0.0000000000000D+00  0.0000000000000D+00
   371  3.7000000000000D+00  0.0000000000000D+00  0.0000000000000D+00
   372  3.7100000000000D+00  0.0000000000000D+00  0.0000000000000D+00
   373  3.7200000000000D+00  0.0000000000000D+00  0.0000000000000D+00
   374  3.7300000000000D+00  0.0000000000000D+00  0.0000000000000D+00
   375  3.7400000000000D+00  0.0000000000000D+00  0.0000000000000D+00
   376  3.7500000000000D+00  0.0000000000000D+00  0.0000000000000D+00
   377  3.7600000000000D+00  0.0000000000000D+00  0.0000000000000D+00
   378  3.7700000000000D+00  0.0000000000000D+00  0.0000000000000D+00
   379  3.7800000000000D+00  0.0000000000000D+00  0.0000000000000D+00
   380  3.7900000000000D+00  0.0000000000000D+00  0.0000000000000D+00
   381  3.8000000000000D+00  0.0000000000000D+00  0.0000000000000D+00
   382  3.8100000000000D+00  0.0000000000000D+00  0.0000000000000D+00
   383  3.8200000000000D+00  0.0000000000000D+00  0.0000000000000D+00
   384  3.8300000000000D+00  0.0000000000000D+00  0.0000000000000D+00
   385  3.8400000000000D+00  0.0000000000000D+00  0.0000000000000D+00
   386  3.8500000000000D+00  0.0000000000000D+00  0.0000000000000D+00
   387  3.8600000000000D+00  0.0000000000000D+00  0.0000000000000D+00
   388  3.8700000000000D+00  0.0000000000000D+00  0.0000000000000D+00
   389  3.8800000000000D+00  0.0000000000000D+00  0.0000000000000D+00
   390  3.8900000000000D+00  0.0000000000000D+00  0.0000000000000D+00
   391  3.9000000000000D+00  0.0000000000000D+00  0.0000000000000D+00
   392  3.9100000000000D+00  0.0000000000000D+00  0.0000000000000D+00
   393  3.9200000000000D+00  0.0000000000000D+00  0.0000000000000D+00
   394  3.9300000000000D+00  0.0000000000000D+00  0.0000000000000D+00
   395  3.9400000000000D+00  0.0000000000000D+00  0.0000000000000D+00
   396  3.9500000000000D+00  0.0000000000000D+00  0.0000000000000D+00
   397  3.9600000000000D+00  0.0000000000000D+00  0.0000000000000D+00
   398  3.9700000000000D+00  0.0000000000000D+00  0.0000000000000D+00
   399  3.9800000000000D+00  0.0000000000000D+00  0.0000000000000D+00
   400  3.9900000000000D+00  0.0000000000000D+00  0.0000000000000D+00
   401  4.0000000000000D+00  0.0000000000000D+00  0.0000000000000D+00
   402  4.0100000000000D+00  0.0000000000000D+00  0.0000000000000D+00
   403  4.0200000000000D+00  0.0000000000000D+00  0.0000000000000D+00
   404  4.0300000000000D+00  0.0000000000000D+00  0.0000000000000D+00
   405  4.0400000000000D+00  0.0000000000000D+00  0.0000000000000D+00
   406  4.0500000000000D+00  0.0000000000000D+00  0.0000000000000D+00
   407  4.0600000000000D+00  0.0000000000000D+00  0.0000000000000D+00
   408  4.0700000000000D+00  0.0000000000000D+00  0.0000000000000D+00
   409  4.0800000000000D+00  0.0000000000000D+00  0.0000000000000D+00
   410  4.0900000000000D+00  0.0000000000000D+00  0.0000000000000D+00
   411  4.1000000000000D+00  0.0000000000000D+00  0.0000000000000D+00
   412  4.1100000000000D+00  0.0000000000000D+00  0.0000000000000D+00
   413  4.1200000000000D+00  0.0000000000000D+00  0.0000000000000D+00
   414  4.1300000000000D+00  0.0000000000000D+00  0.0000000000000D+00
   415  4.1400000000000D+00  0.0000000000000D+00  0.0000000000000D+00
   416  4.1500000000000D+00  0.0000000000000D+00  0.0000000000000D+00
   417  4.1600000000000D+00  0.0000000000000D+00  0.0000000000000D+00
   418  4.1700000000000D+00  0.0000000000000D+00  0.0000000000000D+00
   419  4.1800000000000D+00  0.0000000000000D+00  0.0000000000000D+00
   420  4.1900000000000D+00  0.0000000000000D+00  0.0000000000000D+00
   421  4.2000000000000D+00  0.0000000000000D+00  0.0000000000000D+00
   422  4.2100000000000D+00  0.0000000000000D+00  0.0000000000000D+00