Cs    ONCVPSP-3.3.1  r_core=   2.56157   2.32843   2.19361
     55.0000      9.0000      210904    zatom,zion,pspd
     8       2   2     4   600     0    pspcod,pspxc,lmax,lloc,mmax,r2well
  5.99000000  0.00000000  0.00000000    rchrg fchrg qchrg
     2     4     4     0    nproj
     3     1           extension_switch
     4     4     0    nprojso
   0                         8.3777494826427D-01  6.3104570802209D+00
     1  0.0000000000000D+00 -1.1392189275261D-11  3.6841363293405D-12
     2  1.0000000000000D-02  4.2186785430181D-03  2.1115972084757D-02
     3  2.0000000000000D-02  8.3897699247730D-03  4.2242240009847D-02
     4  3.0000000000000D-02  1.2465923667235D-02  6.3389015557054D-02
     5  4.0000000000000D-02  1.6400261758432D-02  8.4566342698706D-02
     6  5.0000000000000D-02  2.0146612637308D-02  1.0578401446112D-01
     7  6.0000000000000D-02  2.3659742488790D-02  1.2705149070724D-01
     8  7.0000000000000D-02  2.6895582965760D-02  1.4837781714063D-01
     9  8.0000000000000D-02  2.9811454466062D-02  1.6977154582913D-01
    10  9.0000000000000D-02  3.2366284106797D-02  1.9124065754203D-01
    11  1.0000000000000D-01  3.4520817555157D-02  2.1279248618913D-01
    12  1.1000000000000D-01  3.6237823894711D-02  2.3443364564351D-01
    13  1.2000000000000D-01  3.7482292728449D-02  2.5616995922292D-01
    14  1.3000000000000D-01  3.8221622744920D-02  2.7800639209609D-01
    15  1.4000000000000D-01  3.8425801001420D-02  2.9994698687192D-01
    16  1.5000000000000D-01  3.8067572208286D-02  3.2199480261928D-01
    17  1.6000000000000D-01  3.7122597331077D-02  3.4415185755476D-01
    18  1.7000000000000D-01  3.5569600862267D-02  3.6641907562455D-01
    19  1.8000000000000D-01  3.3390506151537D-02  3.8879623719423D-01
    20  1.9000000000000D-01  3.0570558223127D-02  4.1128193404779D-01
    21  2.0000000000000D-01  2.7098433550477D-02  4.3387352888345D-01
    22  2.1000000000000D-01  2.2966336302006D-02  4.5656711947999D-01
    23  2.2000000000000D-01  1.8170080617418D-02  4.7935750769237D-01
    24  2.3000000000000D-01  1.2709158521395D-02  5.0223817342010D-01
    25  2.4000000000000D-01  6.5867931305037D-03  5.2520125367607D-01
    26  2.5000000000000D-01 -1.9002314023476D-04  5.4823752686708D-01
    27  2.6000000000000D-01 -7.6105056126351D-03  5.7133640238048D-01
    28  2.7000000000000D-01 -1.5660069810785D-02  5.9448591555410D-01
    29  2.8000000000000D-01 -2.4320339490603D-02  6.1767272808906D-01
    30  2.9000000000000D-01 -3.3569170312051D-02  6.4088213394713D-01
    31  3.0000000000000D-01 -4.3380689176523D-02  6.6409807075583D-01
    32  3.1000000000000D-01 -5.3725349195166D-02  6.8730313672663D-01
    33  3.2000000000000D-01 -6.4570000196729D-02  7.1047861307225D-01
    34  3.3000000000000D-01 -7.5877974626164D-02  7.3360449189109D-01
    35  3.4000000000000D-01 -8.7609188627548D-02  7.5665950946754D-01
    36  3.5000000000000D-01 -9.9720258047758D-02  7.7962118491843D-01
    37  3.6000000000000D-01 -1.1216462904007D-01  8.0246586409716D-01
    38  3.7000000000000D-01 -1.2489272289044D-01  8.2516876864849D-01
    39  3.8000000000000D-01 -1.3785209463324D-01  8.4770405008848D-01
    40  3.9000000000000D-01 -1.5098760496860D-01  8.7004484876622D-01
    41  4.0000000000000D-01 -1.6424160493949D-01  8.9216335754580D-01
    42  4.1000000000000D-01 -1.7755413277429D-01  9.1403089002991D-01
    43  4.2000000000000D-01 -1.9086312224986D-01  9.3561795312910D-01
    44  4.3000000000000D-01 -2.0410462188084D-01  9.5689432376451D-01
    45  4.4000000000000D-01 -2.1721302419386D-01  9.7782912947565D-01
    46  4.5000000000000D-01 -2.3012130430027D-01  9.9839093268964D-01
    47  4.6000000000000D-01 -2.4276126693832D-01  1.0185478183936D+00
    48  4.7000000000000D-01 -2.5506380111598D-01  1.0382674849378D+00
    49  4.8000000000000D-01 -2.6695914144769D-01  1.0575173376846D+00
    50  4.9000000000000D-01 -2.7837713524446D-01  1.0762645852047D+00
    51  5.0000000000000D-01 -2.8924751438552D-01  1.0944763377122D+00
    52  5.1000000000000D-01 -2.9950017097102D-01  1.1121197074192D+00
    53  5.2000000000000D-01 -3.0906543573177D-01  1.1291619104798D+00
    54  5.3000000000000D-01 -3.1787435815040D-01  1.1455703701872D+00
    55  5.4000000000000D-01 -3.2585898723117D-01  1.1613128210791D+00
    56  5.5000000000000D-01 -3.3295265184271D-01  1.1763574135999D+00
    57  5.6000000000000D-01 -3.3909023954820D-01  1.1906728189641D+00
    58  5.7000000000000D-01 -3.4420847283249D-01  1.2042283338622D+00
    59  5.8000000000000D-01 -3.4824618163446D-01  1.2169939846451D+00
    60  5.9000000000000D-01 -3.5114457109600D-01  1.2289406306250D+00
    61  6.0000000000000D-01 -3.5284748344643D-01  1.2400400661285D+00
    62  6.1000000000000D-01 -3.5330165295310D-01  1.2502651209397D+00
    63  6.2000000000000D-01 -3.5245695288458D-01  1.2595897587734D+00
    64  6.3000000000000D-01 -3.5026663345372D-01  1.2679891734232D+00
    65  6.4000000000000D-01 -3.4668754973238D-01  1.2754398822324D+00
    66  6.5000000000000D-01 -3.4168037855860D-01  1.2819198165455D+00
    67  6.6000000000000D-01 -3.3520982349052D-01  1.2874084088015D+00
    68  6.7000000000000D-01 -3.2724480689874D-01  1.2918866759437D+00
    69  6.8000000000000D-01 -3.1775864832994D-01  1.2953372988279D+00
    70  6.9000000000000D-01 -3.0672922832069D-01  1.2977446973239D+00
    71  7.0000000000000D-01 -2.9413913688935D-01  1.2990951008174D+00
    72  7.1000000000000D-01 -2.7997580598662D-01  1.2993766138341D+00
    73  7.2000000000000D-01 -2.6423162524232D-01  1.2985792765218D+00
    74  7.3000000000000D-01 -2.4690404040548D-01  1.2966951197444D+00
    75  7.4000000000000D-01 -2.2799563393752D-01  1.2937182145559D+00
    76  7.5000000000000D-01 -2.0751418728432D-01  1.2896447158438D+00
    77  7.6000000000000D-01 -1.8547272442115D-01  1.2844728999491D+00
    78  7.7000000000000D-01 -1.6188953633545D-01  1.2782031960894D+00
    79  7.8000000000000D-01 -1.3678818618461D-01  1.2708382114343D+00
    80  7.9000000000000D-01 -1.1019749494163D-01  1.2623827497008D+00
    81  8.0000000000000D-01 -8.2151507416596D-02  1.2528438231634D+00
    82  8.1000000000000D-01 -5.2689438620118D-02  1.2422306579896D+00
    83  8.2000000000000D-01 -2.1855600512653D-02  1.2305546928418D+00
    84  8.3000000000000D-01  1.0300690737378D-02  1.2178295707049D+00
    85  8.4000000000000D-01  4.3725226784664D-02  1.2040711239241D+00
    86  8.5000000000000D-01  7.8359038146514D-02  1.1892973524648D+00
    87  8.6000000000000D-01  1.1413854389156D-01  1.1735283954238D+00
    88  8.7000000000000D-01  1.5099571954064D-01  1.1567864958534D+00
    89  8.8000000000000D-01  1.8885828266658D-01  1.1390959589762D+00
    90  8.9000000000000D-01  2.2764989560457D-01  1.1204831038999D+00
    91  9.0000000000000D-01  2.6729038461180D-01  1.1009762089572D+00
    92  9.1000000000000D-01  3.0769597474405D-01  1.0806054508270D+00
    93  9.2000000000000D-01  3.4877953964869D-01  1.0594028376096D+00
    94  9.3000000000000D-01  3.9045086540798D-01  1.0374021360549D+00
    95  9.4000000000000D-01  4.3261692750443D-01  1.0146387931621D+00
    96  9.5000000000000D-01  4.7518217992094D-01  9.9114985239097D-01
    97  9.6000000000000D-01  5.1804885533338D-01  9.6697386474536D-01
    98  9.7000000000000D-01  5.6111727530295D-01  9.4215079500753D-01
    99  9.8000000000000D-01  6.0428616932788D-01  9.1672192342092D-01
   100  9.9000000000000D-01  6.4745300157277D-01  8.9072974313583D-01
   101  1.0000000000000D+00  6.9051430405628D-01  8.6421785374820D-01
   102  1.0100000000000D+00  7.3336601504551D-01  8.3723085127663D-01
   103  1.0200000000000D+00  7.7590382137809D-01  8.0981421493596D-01
   104  1.0300000000000D+00  8.1802350341141D-01  7.8201419107803D-01
   105  1.0400000000000D+00  8.5962128128200D-01  7.5387767468053D-01
   106  1.0500000000000D+00  9.0059416114663D-01  7.2545208877462D-01
   107  1.0600000000000D+00  9.4084028007217D-01  6.9678526220940D-01
   108  1.0700000000000D+00  9.8025924824097D-01  6.6792530615762D-01
   109  1.0800000000000D+00  1.0187524871464D+00  6.3892048977175D-01
   110  1.0900000000000D+00  1.0562235624619D+00  6.0981911540261D-01
   111  1.1000000000000D+00  1.0925785102879D+00  5.8066939379447D-01
   112  1.1100000000000D+00  1.1277261555013D+00  5.5151931967049D-01
   113  1.1200000000000D+00  1.1615784209638D+00  5.2241654812044D-01
   114  1.1300000000000D+00  1.1940506263779D+00  4.9340827219972D-01
   115  1.1400000000000D+00  1.2250617756160D+00  4.6454110214445D-01
   116  1.1500000000000D+00  1.2545348313985D+00  4.3586094660023D-01
   117  1.1600000000000D+00  1.2823969762442D+00  4.0741289625436D-01
   118  1.1700000000000D+00  1.3085798586682D+00  3.7924111025302D-01
   119  1.1800000000000D+00  1.3330198236585D+00  3.5138870577407D-01
   120  1.1900000000000D+00  1.3556581265344D+00  3.2389765111318D-01
   121  1.2000000000000D+00  1.3764411293598D+00  2.9680866262572D-01
   122  1.2100000000000D+00  1.3953204791236D+00  2.7016110585967D-01
   123  1.2200000000000D+00  1.4122532670151D+00  2.4399290118988D-01
   124  1.2300000000000D+00  1.4272021681820D+00  2.1834043424978D-01
   125  1.2400000000000D+00  1.4401355614214D+00  1.9323847144313D-01
   126  1.2500000000000D+00  1.4510276283513D+00  1.6872008079581D-01
   127  1.2600000000000D+00  1.4598584317091D+00  1.4481655838318D-01
   128  1.2700000000000D+00  1.4666139724751D+00  1.2155736055621D-01
   129  1.2800000000000D+00  1.4712862256078D+00  9.8970042167888D-02
   130  1.2900000000000D+00  1.4738731543117D+00  7.7080200966567D-02
   131  1.3000000000000D+00  1.4743787027801D+00  5.5911428316731D-02
   132  1.3100000000000D+00  1.4728127674592D+00  3.5485266381744D-02
   133  1.3200000000000D+00  1.4691911470243D+00  1.5821171861987D-02
   134  1.3300000000000D+00  1.4635354712406D+00 -3.0635136128494D-03
   135  1.3400000000000D+00  1.4558731090293D+00 -2.1153586378745D-02
   136  1.3500000000000D+00  1.4462370561790D+00 -3.8435996898847D-02
   137  1.3600000000000D+00  1.4346658030777D+00 -5.4899859149160D-02
   138  1.3700000000000D+00  1.4212031830835D+00 -7.0536453259791D-02
   139  1.3800000000000D+00  1.4058982021414D+00 -8.5339221443485D-02
   140  1.3900000000000D+00  1.3888048502647D+00 -9.9303757241234D-02
   141  1.4000000000000D+00  1.3699818957335D+00 -1.1242778819741D-01
   142  1.4100000000000D+00  1.3494926627320D+00 -1.2471115203029D-01
   143  1.4200000000000D+00  1.3274047933301D+00 -1.3615576642710D-01
   144  1.4300000000000D+00  1.3037899947594D+00 -1.4676559261599D-01
   145  1.4400000000000D+00  1.2787237728655D+00 -1.5654659283265D-01
   146  1.4500000000000D+00  1.2522851528547D+00 -1.6550668190342D-01
   147  1.4600000000000D+00  1.2245563882867D+00 -1.7365567309379D-01
   148  1.4700000000000D+00  1.1956226594531D+00 -1.8100521845324D-01
   149  1.4800000000000D+00  1.1655717622230D+00 -1.8756874387495D-01
   150  1.4900000000000D+00  1.1344937884746D+00 -1.9336137908554D-01
   151  1.5000000000000D+00  1.1024807992710D+00 -1.9839988284798D-01
   152  1.5100000000000D+00  1.0696264919101D+00 -2.0270256358894D-01
   153  1.5200000000000D+00  1.0360258620097D+00 -2.0628919576251D-01
   154  1.5300000000000D+00  1.0017748617714D+00 -2.0918093218973D-01
   155  1.5400000000000D+00  9.6697005557088D-01 -2.1140021267937D-01
   156  1.5500000000000D+00  9.3170827397149D-01 -2.1297066920355D-01
   157  1.5600000000000D+00  8.9608626733060D-01 -2.1391702792686D-01
   158  1.5700000000000D+00  8.6020035996069D-01 -2.1426500837769D-01
   159  1.5800000000000D+00  8.2414610608078D-01 -2.1404122006429D-01
   160  1.5900000000000D+00  7.8801794830256D-01 -2.1327305681707D-01
   161  1.6000000000000D+00  7.5190887998201D-01 -2.1198858917403D-01
   162  1.6100000000000D+00  7.1591011192309D-01 -2.1021645506534D-01
   163  1.6200000000000D+00  6.8011074481813D-01 -2.0798574913052D-01
   164  1.6300000000000D+00  6.4459744770718D-01 -2.0532591089353D-01
   165  1.6400000000000D+00  6.0945414377883D-01 -2.0226661213466D-01
   166  1.6500000000000D+00  5.7476170366789D-01 -1.9883764365760D-01
   167  1.6600000000000D+00  5.4059764744168D-01 -1.9506880178459D-01
   168  1.6700000000000D+00  5.0703585530961D-01 -1.9098977475084D-01
   169  1.6800000000000D+00  4.7414628811049D-01 -1.8663002931971D-01
   170  1.6900000000000D+00  4.4199471746583D-01 -1.8201869775779D-01
   171  1.7000000000000D+00  4.1064246653641D-01 -1.7718446548012D-01
   172  1.7100000000000D+00  3.8014616108021D-01 -1.7215545946316D-01
   173  1.7200000000000D+00  3.5055749167493D-01 -1.6695913773082D-01
   174  1.7300000000000D+00  3.2192298494970D-01 -1.6162217964043D-01
   175  1.7400000000000D+00  2.9428379003825D-01 -1.5617037833235D-01
   176  1.7500000000000D+00  2.6767547961200D-01 -1.5062853526168D-01
   177  1.7600000000000D+00  2.4212780982943D-01 -1.4502034616472D-01
   178  1.7700000000000D+00  2.1766472032350D-01 -1.3936833550415D-01
   179  1.7800000000000D+00  1.9430395125490D-01 -1.3369370929723D-01
   180  1.7900000000000D+00  1.7205647738982D-01 -1.2801618220304D-01
   181  1.8000000000000D+00  1.5092759057842D-01 -1.2235411918423D-01
   182  1.8100000000000D+00  1.3091749138568D-01 -1.1672457814322D-01
   183  1.8200000000000D+00  1.1202203641760D-01 -1.1114342285364D-01
   184  1.8300000000000D+00  9.4233987467776D-02 -1.0562553164171D-01
   185  1.8400000000000D+00  7.7543081356011D-02 -1.0018478292821D-01
   186  1.8500000000000D+00  6.1935893316310D-02 -9.4834009877745D-02
   187  1.8600000000000D+00  4.7396020598861D-02 -8.9585014566899D-02
   188  1.8700000000000D+00  3.3904311626496D-02 -8.4448590377241D-02
   189  1.8800000000000D+00  2.1438979792905D-02 -7.9434526216893D-02
   190  1.8900000000000D+00  9.9757927752525D-03 -7.4551626035647D-02
   191  1.9000000000000D+00 -5.1175838646771D-04 -6.9807726230536D-02
   192  1.9100000000000D+00 -1.0052279727530D-02 -6.5209716750167D-02
   193  1.9200000000000D+00 -1.8676290712323D-02 -6.0763564565590D-02
   194  1.9300000000000D+00 -2.6416037412077D-02 -5.6474339503463D-02
   195  1.9400000000000D+00 -3.3305303316761D-02 -5.2346242143162D-02
   196  1.9500000000000D+00 -3.9379218914490D-02 -4.8382633661154D-02
   197  1.9600000000000D+00 -4.4674070795944D-02 -4.4586067425096D-02
   198  1.9700000000000D+00 -4.9227111149665D-02 -4.0958322140294D-02
   199  1.9800000000000D+00 -5.3076368940270D-02 -3.7500436372244D-02
   200  1.9900000000000D+00 -5.6260462746885D-02 -3.4212744281872D-02
   201  2.0000000000000D+00 -5.8818417405516D-02 -3.1094912321500D-02
   202  2.0100000000000D+00 -6.0789483837751D-02 -2.8145976807783D-02
   203  2.0200000000000D+00 -6.2212963966665D-02 -2.5364382095421D-02
   204  2.0300000000000D+00 -6.3128041000195D-02 -2.2748019220330D-02
   205  2.0400000000000D+00 -6.3573615294835D-02 -2.0294264891047D-02
   206  2.0500000000000D+00 -6.3588147933833D-02 -1.8000020487117D-02
   207  2.0600000000000D+00 -6.3209510402878D-02 -1.5861751179669D-02
   208  2.0700000000000D+00 -6.2474843306731D-02 -1.3875524704544D-02
   209  2.0800000000000D+00 -6.1420422866689D-02 -1.2037049880784D-02
   210  2.0900000000000D+00 -6.0081536093953D-02 -1.0341714670394D-02
   211  2.1000000000000D+00 -5.8492366250959D-02 -8.7846234667017D-03
   212  2.1100000000000D+00 -5.6685886287484D-02 -7.3606338882571D-03
   213  2.1200000000000D+00 -5.4693763853734D-02 -6.0643924464169D-03
   214  2.1300000000000D+00 -5.2546275417882D-02 -4.8903694064787D-03
   215  2.1400000000000D+00 -5.0272230583439D-02 -3.8328925957968D-03
   216  2.1500000000000D+00 -4.7898908011224D-02 -2.8861798546523D-03
   217  2.1600000000000D+00 -4.5451999966600D-02 -2.0443705639716D-03
   218  2.1700000000000D+00 -4.2955569091207D-02 -1.3015555593598D-03
   219  2.1800000000000D+00 -4.0432014803894D-02 -6.5180581494205D-04
   220  2.1900000000000D+00 -3.7902049426330D-02 -8.9199812347801D-05
   221  2.2000000000000D+00 -3.5384686059202D-02  3.9215084438250D-04
   222  2.2100000000000D+00 -3.2897234580112D-02  7.9807697013858D-04
   223  2.2200000000000D+00 -3.0455308421123D-02  1.1343290678628D-03
   224  2.2300000000000D+00 -2.8072840877912D-02  1.4065561632087D-03
   225  2.2400000000000D+00 -2.5762108848045D-02  1.6202858600373D-03
   226  2.2500000000000D+00 -2.3533767232984D-02  1.7809063461987D-03
   227  2.2600000000000D+00 -2.1396890034738D-02  1.8936496172573D-03
   228  2.2700000000000D+00 -1.9359019188779D-02  1.9635762101690D-03
   229  2.2800000000000D+00 -1.7426221435853D-02  1.9955616052091D-03
   230  2.2900000000000D+00 -1.5603150574113D-02  1.9942837799562D-03
   231  2.3000000000000D+00 -1.3893116408580D-02  1.9642123226244D-03
   232  2.3100000000000D+00 -1.2298159128509D-02  1.9095989007362D-03
   233  2.3200000000000D+00 -1.0819127745456D-02  1.8344688079348D-03
   234  2.3300000000000D+00 -9.4557633850575D-03  1.7426139766908D-03
   235  2.3400000000000D+00 -8.2067856371178D-03  1.6375870259128D-03
   236  2.3500000000000D+00 -7.0699816356476D-03  1.5226963478845D-03
   237  2.3600000000000D+00 -6.0422973322769D-03  1.4010023514331D-03
   238  2.3700000000000D+00 -5.1199301934633D-03  1.2753145554480D-03
   239  2.3800000000000D+00 -4.2984226504100D-03  1.1481895691187D-03
   240  2.3900000000000D+00 -3.5727552498145D-03  1.0219298913651D-03
   241  2.4000000000000D+00 -2.9374398522295D-03  8.9858342721075D-04
   242  2.4100000000000D+00 -2.3866111480924D-03  7.7994363370999D-04
   243  2.4200000000000D+00 -1.9141158589791D-03  6.6755020502602D-04
   244  2.4300000000000D+00 -1.5136007383780D-03  5.6269034800182D-04
   245  2.4400000000000D+00 -1.1785962463320D-03  4.6640037109343D-04
   246  2.4500000000000D+00 -9.0259642125463D-04  3.7946760157585D-04
   247  2.4600000000000D+00 -6.7913645707505D-04  3.0243277650394D-04
   248  2.4700000000000D+00 -5.0186334038041D-04  2.3559240886723D-04
   249  2.4800000000000D+00 -3.6469079019376D-04  1.7902085244408D-04
   250  2.4900000000000D+00 -2.6153276727450D-04  1.3250113878289D-04
   251  2.5000000000000D+00 -1.8668474881199D-04  9.5599370785302D-05
   252  2.5100000000000D+00 -1.3414748251789D-04  6.7388529021316D-05
   253  2.5200000000000D+00 -1.0046309531936D-04  4.7511030917149D-05
   254  2.5300000000000D+00 -8.1792132869344D-05  3.5072459328169D-05
   255  2.5400000000000D+00 -7.6248904495013D-05  2.9637682713810D-05
   256  2.5500000000000D+00 -7.4359693872905D-05  2.7307627277336D-05
   257  2.5600000000000D+00 -6.8751237312190D-05  2.4809476590820D-05
   258  2.5700000000000D+00 -5.0600566481297D-05  1.8157099209514D-05
   259  2.5800000000000D+00 -2.6613353699626D-05  9.5464352604598D-06
   260  2.5900000000000D+00 -4.2291878176150D-06  1.5207692391998D-06
   261  2.6000000000000D+00  5.9784131117978D-06 -2.1098085469853D-06
   262  2.6100000000000D+00  6.4632349710655D-06 -2.2776117946123D-06
   263  2.6200000000000D+00  1.9191071503874D-06 -6.7566839426547D-07
   264  2.6300000000000D+00 -1.0950790115082D-06  3.8542971741178D-07
   265  2.6400000000000D+00 -1.5349476743042D-06  5.3962025640786D-07
   266  2.6500000000000D+00 -6.6486920106147D-07  2.3351025140988D-07
   267  2.6600000000000D+00  1.0322299415232D-07 -3.7233876498187D-08
   268  2.6700000000000D+00  1.9033524137701D-07 -6.8656397044895D-08
   269  2.6800000000000D+00  1.1150931614094D-07 -4.0222860610518D-08
   270  2.6900000000000D+00  0.0000000000000D+00  0.0000000000000D+00
   271  2.7000000000000D+00  0.0000000000000D+00  0.0000000000000D+00
   272  2.7100000000000D+00  0.0000000000000D+00  0.0000000000000D+00
   273  2.7200000000000D+00  0.0000000000000D+00  0.0000000000000D+00
   274  2.7300000000000D+00  0.0000000000000D+00  0.0000000000000D+00
   275  2.7400000000000D+00  0.0000000000000D+00  0.0000000000000D+00
   276  2.7500000000000D+00  0.0000000000000D+00  0.0000000000000D+00
   277  2.7600000000000D+00  0.0000000000000D+00  0.0000000000000D+00
   278  2.7700000000000D+00  0.0000000000000D+00  0.0000000000000D+00
   279  2.7800000000000D+00  0.0000000000000D+00  0.0000000000000D+00
   280  2.7900000000000D+00  0.0000000000000D+00  0.0000000000000D+00
   281  2.8000000000000D+00  0.0000000000000D+00  0.0000000000000D+00
   282  2.8100000000000D+00  0.0000000000000D+00  0.0000000000000D+00
   283  2.8200000000000D+00  0.0000000000000D+00  0.0000000000000D+00
   284  2.8300000000000D+00  0.0000000000000D+00  0.0000000000000D+00
   285  2.8400000000000D+00  0.0000000000000D+00  0.0000000000000D+00
   286  2.8500000000000D+00  0.0000000000000D+00  0.0000000000000D+00
   287  2.8600000000000D+00  0.0000000000000D+00  0.0000000000000D+00
   288  2.8700000000000D+00  0.0000000000000D+00  0.0000000000000D+00
   289  2.8800000000000D+00  0.0000000000000D+00  0.0000000000000D+00
   290  2.8900000000000D+00  0.0000000000000D+00  0.0000000000000D+00
   291  2.9000000000000D+00  0.0000000000000D+00  0.0000000000000D+00
   292  2.9100000000000D+00  0.0000000000000D+00  0.0000000000000D+00
   293  2.9200000000000D+00  0.0000000000000D+00  0.0000000000000D+00
   294  2.9300000000000D+00  0.0000000000000D+00  0.0000000000000D+00
   295  2.9400000000000D+00  0.0000000000000D+00  0.0000000000000D+00
   296  2.9500000000000D+00  0.0000000000000D+00  0.0000000000000D+00
   297  2.9600000000000D+00  0.0000000000000D+00  0.0000000000000D+00
   298  2.9700000000000D+00  0.0000000000000D+00  0.0000000000000D+00
   299  2.9800000000000D+00  0.0000000000000D+00  0.0000000000000D+00
   300  2.9900000000000D+00  0.0000000000000D+00  0.0000000000000D+00
   301  3.0000000000000D+00  0.0000000000000D+00  0.0000000000000D+00
   302  3.0100000000000D+00  0.0000000000000D+00  0.0000000000000D+00
   303  3.0200000000000D+00  0.0000000000000D+00  0.0000000000000D+00
   304  3.0300000000000D+00  0.0000000000000D+00  0.0000000000000D+00
   305  3.0400000000000D+00  0.0000000000000D+00  0.0000000000000D+00
   306  3.0500000000000D+00  0.0000000000000D+00  0.0000000000000D+00
   307  3.0600000000000D+00  0.0000000000000D+00  0.0000000000000D+00
   308  3.0700000000000D+00  0.0000000000000D+00  0.0000000000000D+00
   309  3.0800000000000D+00  0.0000000000000D+00  0.0000000000000D+00
   310  3.0900000000000D+00  0.0000000000000D+00  0.0000000000000D+00
   311  3.1000000000000D+00  0.0000000000000D+00  0.0000000000000D+00
   312  3.1100000000000D+00  0.0000000000000D+00  0.0000000000000D+00
   313  3.1200000000000D+00  0.0000000000000D+00  0.0000000000000D+00
   314  3.1300000000000D+00  0.0000000000000D+00  0.0000000000000D+00
   315  3.1400000000000D+00  0.0000000000000D+00  0.0000000000000D+00
   316  3.1500000000000D+00  0.0000000000000D+00  0.0000000000000D+00
   317  3.1600000000000D+00  0.0000000000000D+00  0.0000000000000D+00
   318  3.1700000000000D+00  0.0000000000000D+00  0.0000000000000D+00
   319  3.1800000000000D+00  0.0000000000000D+00  0.0000000000000D+00
   320  3.1900000000000D+00  0.0000000000000D+00  0.0000000000000D+00
   321  3.2000000000000D+00  0.0000000000000D+00  0.0000000000000D+00
   322  3.2100000000000D+00  0.0000000000000D+00  0.0000000000000D+00
   323  3.2200000000000D+00  0.0000000000000D+00  0.0000000000000D+00
   324  3.2300000000000D+00  0.0000000000000D+00  0.0000000000000D+00
   325  3.2400000000000D+00  0.0000000000000D+00  0.0000000000000D+00
   326  3.2500000000000D+00  0.0000000000000D+00  0.0000000000000D+00
   327  3.2600000000000D+00  0.0000000000000D+00  0.0000000000000D+00
   328  3.2700000000000D+00  0.0000000000000D+00  0.0000000000000D+00
   329  3.2800000000000D+00  0.0000000000000D+00  0.0000000000000D+00
   330  3.2900000000000D+00  0.0000000000000D+00  0.0000000000000D+00
   331  3.3000000000000D+00  0.0000000000000D+00  0.0000000000000D+00
   332  3.3100000000000D+00  0.0000000000000D+00  0.0000000000000D+00
   333  3.3200000000000D+00  0.0000000000000D+00  0.0000000000000D+00
   334  3.3300000000000D+00  0.0000000000000D+00  0.0000000000000D+00
   335  3.3400000000000D+00  0.0000000000000D+00  0.0000000000000D+00
   336  3.3500000000000D+00  0.0000000000000D+00  0.0000000000000D+00
   337  3.3600000000000D+00  0.0000000000000D+00  0.0000000000000D+00
   338  3.3700000000000D+00  0.0000000000000D+00  0.0000000000000D+00
   339  3.3800000000000D+00  0.0000000000000D+00  0.0000000000000D+00
   340  3.3900000000000D+00  0.0000000000000D+00  0.0000000000000D+00
   341  3.4000000000000D+00  0.0000000000000D+00  0.0000000000000D+00
   342  3.4100000000000D+00  0.0000000000000D+00  0.0000000000000D+00
   343  3.4200000000000D+00  0.0000000000000D+00  0.0000000000000D+00
   344  3.4300000000000D+00  0.0000000000000D+00  0.0000000000000D+00
   345  3.4400000000000D+00  0.0000000000000D+00  0.0000000000000D+00
   346  3.4500000000000D+00  0.0000000000000D+00  0.0000000000000D+00
   347  3.4600000000000D+00  0.0000000000000D+00  0.0000000000000D+00
   348  3.4700000000000D+00  0.0000000000000D+00  0.0000000000000D+00
   349  3.4800000000000D+00  0.0000000000000D+00  0.0000000000000D+00
   350  3.4900000000000D+00  0.0000000000000D+00  0.0000000000000D+00
   351  3.5000000000000D+00  0.0000000000000D+00  0.0000000000000D+00
   352  3.5100000000000D+00  0.0000000000000D+00  0.0000000000000D+00
   353  3.5200000000000D+00  0.0000000000000D+00  0.0000000000000D+00
   354  3.5300000000000D+00  0.0000000000000D+00  0.0000000000000D+00
   355  3.5400000000000D+00  0.0000000000000D+00  0.0000000000000D+00
   356  3.5500000000000D+00  0.0000000000000D+00  0.0000000000000D+00
   357  3.5600000000000D+00  0.0000000000000D+00  0.0000000000000D+00
   358  3.5700000000000D+00  0.0000000000000D+00  0.0000000000000D+00
   359  3.5800000000000D+00  0.0000000000000D+00  0.0000000000000D+00
   360  3.5900000000000D+00  0.0000000000000D+00  0.0000000000000D+00
   361  3.6000000000000D+00  0.0000000000000D+00  0.0000000000000D+00
   362  3.6100000000000D+00  0.0000000000000D+00  0.0000000000000D+00
   363  3.6200000000000D+00  0.0000000000000D+00  0.0000000000000D+00
   364  3.6300000000000D+00  0.0000000000000D+00  0.0000000000000D+00
   365  3.6400000000000D+00  0.0000000000000D+00  0.0000000000000D+00
   366  3.6500000000000D+00  0.0000000000000D+00  0.0000000000000D+00
   367  3.6600000000000D+00  0.0000000000000D+00  0.0000000000000D+00
   368  3.6700000000000D+00  0.0000000000000D+00  0.0000000000000D+00
   369  3.6800000000000D+00  0.0000000000000D+00  0.0000000000000D+00
   370  3.6900000000000D+00  0.0000000000000D+00  0.0000000000000D+00
   371  3.7000000000000D+00  0.0000000000000D+00  0.0000000000000D+00
   372  3.7100000000000D+00  0.0000000000000D+00  0.0000000000000D+00
   373  3.7200000000000D+00  0.0000000000000D+00  0.0000000000000D+00
   374  3.7300000000000D+00  0.0000000000000D+00  0.0000000000000D+00
   375  3.7400000000000D+00  0.0000000000000D+00  0.0000000000000D+00
   376  3.7500000000000D+00  0.0000000000000D+00  0.0000000000000D+00
   377  3.7600000000000D+00  0.0000000000000D+00  0.0000000000000D+00
   378  3.7700000000000D+00  0.0000000000000D+00  0.0000000000000D+00
   379  3.7800000000000D+00  0.0000000000000D+00  0.0000000000000D+00
   380  3.7900000000000D+00  0.0000000000000D+00  0.0000000000000D+00
   381  3.8000000000000D+00  0.0000000000000D+00  0.0000000000000D+00
   382  3.8100000000000D+00  0.0000000000000D+00  0.0000000000000D+00
   383  3.8200000000000D+00  0.0000000000000D+00  0.0000000000000D+00
   384  3.8300000000000D+00  0.0000000000000D+00  0.0000000000000D+00
   385  3.8400000000000D+00  0.0000000000000D+00  0.0000000000000D+00
   386  3.8500000000000D+00  0.0000000000000D+00  0.0000000000000D+00
   387  3.8600000000000D+00  0.0000000000000D+00  0.0000000000000D+00
   388  3.8700000000000D+00  0.0000000000000D+00  0.0000000000000D+00
   389  3.8800000000000D+00  0.0000000000000D+00  0.0000000000000D+00
   390  3.8900000000000D+00  0.0000000000000D+00  0.0000000000000D+00
   391  3.9000000000000D+00  0.0000000000000D+00  0.0000000000000D+00
   392  3.9100000000000D+00  0.0000000000000D+00  0.0000000000000D+00
   393  3.9200000000000D+00  0.0000000000000D+00  0.0000000000000D+00
   394  3.9300000000000D+00  0.0000000000000D+00  0.0000000000000D+00
   395  3.9400000000000D+00  0.0000000000000D+00  0.0000000000000D+00
   396  3.9500000000000D+00  0.0000000000000D+00  0.0000000000000D+00
   397  3.9600000000000D+00  0.0000000000000D+00  0.0000000000000D+00
   398  3.9700000000000D+00  0.0000000000000D+00  0.0000000000000D+00
   399  3.9800000000000D+00  0.0000000000000D+00  0.0000000000000D+00
   400  3.9900000000000D+00  0.0000000000000D+00  0.0000000000000D+00
   401  4.0000000000000D+00  0.0000000000000D+00  0.0000000000000D+00
   402  4.0100000000000D+00  0.0000000000000D+00  0.0000000000000D+00
   403  4.0200000000000D+00  0.0000000000000D+00  0.0000000000000D+00
   404  4.0300000000000D+00  0.0000000000000D+00  0.0000000000000D+00
   405  4.0400000000000D+00  0.0000000000000D+00  0.0000000000000D+00
   406  4.0500000000000D+00  0.0000000000000D+00  0.0000000000000D+00
   407  4.0600000000000D+00  0.0000000000000D+00  0.0000000000000D+00
   408  4.0700000000000D+00  0.0000000000000D+00  0.0000000000000D+00
   409  4.0800000000000D+00  0.0000000000000D+00  0.0000000000000D+00
   410  4.0900000000000D+00  0.0000000000000D+00  0.0000000000000D+00
   411  4.1000000000000D+00  0.0000000000000D+00  0.0000000000000D+00
   412  4.1100000000000D+00  0.0000000000000D+00  0.0000000000000D+00
   413  4.1200000000000D+00  0.0000000000000D+00  0.0000000000000D+00
   414  4.1300000000000D+00  0.0000000000000D+00  0.0000000000000D+00
   415  4.1400000000000D+00  0.0000000000000D+00  0.0000000000000D+00
   416  4.1500000000000D+00  0.0000000000000D+00  0.0000000000000D+00
   417  4.1600000000000D+00  0.0000000000000D+00  0.0000000000000D+00
   418  4.1700000000000D+00  0.0000000000000D+00  0.0000000000000D+00
   419  4.1800000000000D+00  0.0000000000000D+00  0.0000000000000D+00
   420  4.1900000000000D+00  0.0000000000000D+00  0.0000000000000D+00
   421  4.2000000000000D+00  0.0000000000000D+00  0.0000000000000D+00
   422  4.2100000000000D+00  0.0000000000000D+00  0.0000000000000D+00