Cu    ONCVPSP-3.3.1  r_core=   1.91598   1.87081   1.89326
     29.0000     19.0000      210904    zatom,zion,pspd
     8       2   2     4   600     0    pspcod,pspxc,lmax,lloc,mmax,r2well
  5.99000000  0.00000000  0.00000000    rchrg fchrg qchrg
     2     2     2     0    nproj
     3     1           extension_switch
     3     3     0    nprojso
   0                        -3.2656746980123D+00 -9.1510770296628D-02
     1  0.0000000000000D+00 -7.2337136280964D-12  2.3462295994925D-10
     2  1.0000000000000D-02  4.3670290220054D-02  3.1389320661369D-02
     3  2.0000000000000D-02  8.7290544565252D-02  6.2711773159578D-02
     4  3.0000000000000D-02  1.3081081892162D-01  9.3900219455757D-02
     5  4.0000000000000D-02  1.7418135239332D-01  1.2488698740457D-01
     6  5.0000000000000D-02  2.1735265815458D-01  1.5560361775338D-01
     7  6.0000000000000D-02  2.6027561339817D-01  1.8598062783689D-01
     8  7.0000000000000D-02  3.0290154808777D-01  2.1594729725512D-01
     9  8.0000000000000D-02  3.4518233222893D-01  2.4543148058770D-01
    10  9.0000000000000D-02  3.8707046138216D-01  2.7435945190887D-01
    11  1.0000000000000D-01  4.2851914015208D-01  3.0265578552555D-01
    12  1.1000000000000D-01  4.6948236339914D-01  3.3024327697128D-01
    13  1.2000000000000D-01  5.0991499493333D-01  3.5704290785267D-01
    14  1.3000000000000D-01  5.4977284346475D-01  3.8297385766813D-01
    15  1.4000000000000D-01  5.8901273560183D-01  4.0795356520389D-01
    16  1.5000000000000D-01  6.2759258570498D-01  4.3189784156604D-01
    17  1.6000000000000D-01  6.6547146242214D-01  4.5472103633225D-01
    18  1.7000000000000D-01  7.0260965175121D-01  4.7633625771065D-01
    19  1.8000000000000D-01  7.3896871649444D-01  4.9665564697998D-01
    20  1.9000000000000D-01  7.7451155198967D-01  5.1559070686010D-01
    21  2.0000000000000D-01  8.0920243802430D-01  5.3305268283306D-01
    22  2.1000000000000D-01  8.4300708685825D-01  5.4895299580469D-01
    23  2.2000000000000D-01  8.7589268730325D-01  5.6320372387444D-01
    24  2.3000000000000D-01  9.0782794482648D-01  5.7571813037114D-01
    25  2.4000000000000D-01  9.3878311766680D-01  5.8641123471917D-01
    26  2.5000000000000D-01  9.6873004897203D-01  5.9520042213228D-01
    27  2.6000000000000D-01  9.9764219498505D-01  6.0200608759273D-01
    28  2.7000000000000D-01  1.0254946493252D+00  6.0675230906970D-01
    29  2.8000000000000D-01  1.0522641634291D+00  6.0936754446624D-01
    30  2.9000000000000D-01  1.0779291632322D+00  6.0978534636484D-01
    31  3.0000000000000D-01  1.1024697621879D+00  6.0794508827027D-01
    32  3.1000000000000D-01  1.1258677707348D+00  6.0379269573116D-01
    33  3.2000000000000D-01  1.1481067023373D+00  5.9728137545991D-01
    34  3.3000000000000D-01  1.1691717762350D+00  5.8837233536960D-01
    35  3.4000000000000D-01  1.1890499170474D+00  5.7703548830653D-01
    36  3.5000000000000D-01  1.2077297513886D+00  5.6325013218277D-01
    37  3.6000000000000D-01  1.2252016016539D+00  5.4700559920394D-01
    38  3.7000000000000D-01  1.2414574771457D+00  5.2830186694518D-01
    39  3.8000000000000D-01  1.2564910627091D+00  5.0715012415444D-01
    40  3.9000000000000D-01  1.2702977050512D+00  4.8357328435427D-01
    41  4.0000000000000D-01  1.2828743969158D+00  4.5760644057332D-01
    42  4.1000000000000D-01  1.2942197592877D+00  4.2929725486269D-01
    43  4.2000000000000D-01  1.3043340217931D+00  3.9870627664057D-01
    44  4.3000000000000D-01  1.3132190014633D+00  3.6590718435743D-01
    45  4.4000000000000D-01  1.3208780800191D+00  3.3098694548088D-01
    46  4.5000000000000D-01  1.3273161798276D+00  2.9404589036000D-01
    47  4.6000000000000D-01  1.3325397386746D+00  2.5519769614058D-01
    48  4.7000000000000D-01  1.3365566834856D+00  2.1456927756048D-01
    49  4.8000000000000D-01  1.3393764031173D+00  1.7230058215072D-01
    50  4.9000000000000D-01  1.3410097203304D+00  1.2854428810365D-01
    51  5.0000000000000D-01  1.3414688630412D+00  8.3465403830253D-02
    52  5.1000000000000D-01  1.3407674349367D+00  3.7240769017002D-02
    53  5.2000000000000D-01  1.3389203855225D+00 -9.9415422041482D-03
    54  5.3000000000000D-01  1.3359439796622D+00 -5.7882914543988D-02
    55  5.4000000000000D-01  1.3318557666478D+00 -1.0637497905593D-01
    56  5.5000000000000D-01  1.3266745488293D+00 -1.5520049178467D-01
    57  5.6000000000000D-01  1.3204203498182D+00 -2.0413429969510D-01
    58  5.7000000000000D-01  1.3131143822607D+00 -2.5294438922472D-01
    59  5.8000000000000D-01  1.3047790151694D+00 -3.0139301203596D-01
    60  5.9000000000000D-01  1.2954377407834D+00 -3.4923788181156D-01
    61  6.0000000000000D-01  1.2851151409184D+00 -3.9623343523690D-01
    62  6.1000000000000D-01  1.2738368527541D+00 -4.4213214965904D-01
    63  6.2000000000000D-01  1.2616295339997D+00 -4.8668590930798D-01
    64  6.3000000000000D-01  1.2485208273637D+00 -5.2964741141326D-01
    65  6.4000000000000D-01  1.2345393242518D+00 -5.7077160306322D-01
    66  6.5000000000000D-01  1.2197145276066D+00 -6.0981713922635D-01
    67  6.6000000000000D-01  1.2040768137998D+00 -6.4654785200324D-01
    68  6.7000000000000D-01  1.1876573934819D+00 -6.8073422089548D-01
    69  6.8000000000000D-01  1.1704882712956D+00 -7.1215483367519D-01
    70  6.9000000000000D-01  1.1526022043575D+00 -7.4059782731568D-01
    71  7.0000000000000D-01  1.1340326594123D+00 -7.6586229840212D-01
    72  7.1000000000000D-01  1.1148137685714D+00 -7.8775967248293D-01
    73  7.2000000000000D-01  1.0949802835497D+00 -8.0611502194963D-01
    74  7.3000000000000D-01  1.0745675283215D+00 -8.2076832224150D-01
    75  7.4000000000000D-01  1.0536113501262D+00 -8.3157563646901D-01
    76  7.5000000000000D-01  1.0321480687644D+00 -8.3841021892195D-01
    77  7.6000000000000D-01  1.0102144241349D+00 -8.4116352838921D-01
    78  7.7000000000000D-01  9.8784752198020D-01 -8.3974614274950D-01
    79  7.8000000000000D-01  9.6508477781820D-01 -8.3408856690204D-01
    80  7.9000000000000D-01  9.4196385905733D-01 -8.2414192678552D-01
    81  8.0000000000000D-01  9.1852262530794D-01 -8.0987854297844D-01
    82  8.1000000000000D-01  8.9479906692098D-01 -7.9129237817949D-01
    83  8.2000000000000D-01  8.7083124180430D-01 -7.6839935372732D-01
    84  8.3000000000000D-01  8.4665721058653D-01 -7.4123753122661D-01
    85  8.4000000000000D-01  8.2231497021877D-01 -7.0986715629859D-01
    86  8.5000000000000D-01  7.9784238612468D-01 -6.7437056245817D-01
    87  8.6000000000000D-01  7.7327712303074D-01 -6.3485193413192D-01
    88  8.7000000000000D-01  7.4865657462865D-01 -5.9143692886116D-01
    89  8.8000000000000D-01  7.2401779224267D-01 -5.4427215977676D-01
    90  8.9000000000000D-01  6.9939741269442D-01 -4.9352454047629D-01
    91  9.0000000000000D-01  6.7483158557728D-01 -4.3938049547276D-01
    92  9.1000000000000D-01  6.5035590017071D-01 -3.8204504040933D-01
    93  9.2000000000000D-01  6.2600531224258D-01 -3.2174073723642D-01
    94  9.3000000000000D-01  6.0181407100365D-01 -2.5870653051937D-01
    95  9.4000000000000D-01  5.7781564649316D-01 -1.9319647197774D-01
    96  9.5000000000000D-01  5.5404265768765D-01 -1.2547834124365D-01
    97  9.6000000000000D-01  5.3052680163669D-01 -5.5832171658656D-02
    98  9.7000000000000D-01  5.0729878393865D-01  1.5451309301758D-02
    99  9.8000000000000D-01  4.8438825087704D-01  8.8072314679560D-02
   100  9.9000000000000D-01  4.6182372354325D-01  1.6172369684504D-01
   101  1.0000000000000D+00  4.3963253427463D-01  2.3609269899749D-01
   102  1.0100000000000D+00  4.1784076573735D-01  3.1086274741928D-01
   103  1.0200000000000D+00  3.9647319298158D-01  3.8571527218035D-01
   104  1.0300000000000D+00  3.7555322879231D-01  4.6033154370604D-01
   105  1.0400000000000D+00  3.5510287265221D-01  5.3439451243670D-01
   106  1.0500000000000D+00  3.3514266362296D-01  6.0759063872964D-01
   107  1.0600000000000D+00  3.1569163744092D-01  6.7961170015305D-01
   108  1.0700000000000D+00  2.9676728810663D-01  7.5015656345067D-01
   109  1.0800000000000D+00  2.7838553423219D-01  8.1893290866337D-01
   110  1.0900000000000D+00  2.6056069039032D-01  8.8565889321427D-01
   111  1.1000000000000D+00  2.4330544368697D-01  9.5006474419195D-01
   112  1.1100000000000D+00  2.2663083575825D-01  1.0118942675065D+00
   113  1.1200000000000D+00  2.1054625036230D-01  1.0709062632875D+00
   114  1.1300000000000D+00  1.9505940671289D-01  1.1268758374972D+00
   115  1.1400000000000D+00  1.8017635866730D-01  1.1795956006272D+00
   116  1.1500000000000D+00  1.6590149985933D-01  1.2288767449224D+00
   117  1.1600000000000D+00  1.5223757482471D-01  1.2745499928213D+00
   118  1.1700000000000D+00  1.3918569614012D-01  1.3164664100728D+00
   119  1.1800000000000D+00  1.2674536755899D-01  1.3544980781426D+00
   120  1.1900000000000D+00  1.1491451310047D-01  1.3885386213421D+00
   121  1.2000000000000D+00  1.0368951200097D-01  1.4185035856087D+00
   122  1.2100000000000D+00  9.3065239406678D-02  1.4443306669072D+00
   123  1.2200000000000D+00  8.3035112660628D-02  1.4659797880311D+00
   124  1.2300000000000D+00  7.3591142988992D-02  1.4834330242371D+00
   125  1.2400000000000D+00  6.4723992360543D-02  1.4966943792586D+00
   126  1.2500000000000D+00  5.6423035268529D-02  1.5057894141168D+00
   127  1.2600000000000D+00  4.8676425147999D-02  1.5107647324418D+00
   128  1.2700000000000D+00  4.1471165102113D-02  1.5116873275328D+00
   129  1.2800000000000D+00  3.4793182597762D-02  1.5086437969127D+00
   130  1.2900000000000D+00  2.8627407760189D-02  1.5017394312824D+00
   131  1.3000000000000D+00  2.2957854858463D-02  1.4910971863898D+00
   132  1.3100000000000D+00  1.7767706572798D-02  1.4768565464000D+00
   133  1.3200000000000D+00  1.3039400603812D-02  1.4591722886060D+00
   134  1.3300000000000D+00  8.7547181613482D-03  1.4382131605458D+00
   135  1.3400000000000D+00  4.8948738756677D-03  1.4141604803076D+00
   136  1.3500000000000D+00  1.4406066435697D-03  1.3872066722915D+00
   137  1.3600000000000D+00 -1.6277290731920D-03  1.3575537510095D+00
   138  1.3700000000000D+00 -4.3300719866118D-03  1.3254117653619D+00
   139  1.3800000000000D+00 -6.6865632533250D-03  1.2909972171074D+00
   140  1.3900000000000D+00 -8.7174567566380D-03  1.2545314665280D+00
   141  1.4000000000000D+00 -1.0443030898853D-02  1.2162391390871D+00
   142  1.4100000000000D+00 -1.1883502352704D-02  1.1763465462970D+00
   143  1.4200000000000D+00 -1.3058942256388D-02  1.1350801344022D+00
   144  1.4300000000000D+00 -1.3989195285003D-02  1.0926649740090D+00
   145  1.4400000000000D+00 -1.4693802008409D-02  1.0493233029631D+00
   146  1.4500000000000D+00 -1.5191924987545D-02  1.0052731360257D+00
   147  1.4600000000000D+00 -1.5502278908818D-02  9.6072695130458D-01
   148  1.4700000000000D+00 -1.5643065198912D-02  9.1589046678529D-01
   149  1.4800000000000D+00 -1.5631911361580D-02  8.7096151553894D-01
   150  1.4900000000000D+00 -1.5485815363415D-02  8.2612903009520D-01
   151  1.5000000000000D+00 -1.5221095340179D-02  7.8157214532489D-01
   152  1.5100000000000D+00 -1.4853344756504D-02  7.3745942518946D-01
   153  1.5200000000000D+00 -1.4397393346799D-02  6.9394822426730D-01
   154  1.5300000000000D+00 -1.3867273776166D-02  6.5118418400641D-01
   155  1.5400000000000D+00 -1.3276194348123D-02  6.0930087466350D-01
   156  1.5500000000000D+00 -1.2636517598816D-02  5.6841957998003D-01
   157  1.5600000000000D+00 -1.1959744974905D-02  5.2864923189572D-01
   158  1.5700000000000D+00 -1.1256507447370D-02  4.9008649263845D-01
   159  1.5800000000000D+00 -1.0536562058784D-02  4.5281598564718D-01
   160  1.5900000000000D+00 -9.8087942975762D-03  4.1691067386862D-01
   161  1.6000000000000D+00 -9.0812260953198D-03  3.8243238079241D-01
   162  1.6100000000000D+00 -8.3610293775689D-03  3.4943245392467D-01
   163  1.6200000000000D+00 -7.6545447839162D-03  3.1795256043949D-01
   164  1.6300000000000D+00 -6.9673055975623D-03  2.8802564021391D-01
   165  1.6400000000000D+00 -6.3040657343149D-03  2.5967683138975D-01
   166  1.6500000000000D+00 -5.6688341739229D-03  2.3292502268926D-01
   167  1.6600000000000D+00 -5.0649079630451D-03  2.0778312270805D-01
   168  1.6700000000000D+00 -4.4949165354649D-03  1.8426029627673D-01
   169  1.6800000000000D+00 -3.9608731647512D-03  1.6236559776735D-01
   170  1.6900000000000D+00 -3.4641985862087D-03  1.4210314396733D-01
   171  1.7000000000000D+00 -3.0057529738306D-03  1.2346885711185D-01
   172  1.7100000000000D+00 -2.5858671564446D-03  1.0644774549471D-01
   173  1.7200000000000D+00 -2.2043659401888D-03  9.1008545088694D-02
   174  1.7300000000000D+00 -1.8606227679694D-03  7.7106697450259D-02
   175  1.7400000000000D+00 -1.5536132873261D-03  6.4687128638179D-02
   176  1.7500000000000D+00 -1.2819620783611D-03  5.3684669012847D-02
   177  1.7600000000000D+00 -1.0439938634354D-03  4.4025814901300D-02
   178  1.7700000000000D+00 -8.3778295867743D-04  3.5630114965246D-02
   179  1.7800000000000D+00 -6.6120219169657D-04  2.8411589231776D-02
   180  1.7900000000000D+00 -5.1197039047884D-04  2.2280117053633D-02
   181  1.8000000000000D+00 -3.8769826433406D-04  1.7142771122708D-02
   182  1.8100000000000D+00 -2.8593201285759D-04  1.2905084973941D-02
   183  1.8200000000000D+00 -2.0419452782867D-04  9.4722498175715D-03
   184  1.8300000000000D+00 -1.4002369517593D-04  6.7502261773750D-03
   185  1.8400000000000D+00 -9.1007494406037D-05  4.6467614634593D-03
   186  1.8500000000000D+00 -5.4812602997803D-05  3.0723549662800D-03
   187  1.8600000000000D+00 -2.9210153190442D-05  1.9410904739820D-03
   188  1.8700000000000D+00 -1.2155561919738D-05  1.1705511143145D-03
   189  1.8800000000000D+00 -1.8041760840954D-06  6.8090531638058D-04
   190  1.8900000000000D+00  3.9129546179471D-06  4.0843126320354D-04
   191  1.9000000000000D+00  6.8518341053552D-06  2.9681781793059D-04
   192  1.9100000000000D+00  7.5708914983707D-06  2.5755726061268D-04
   193  1.9200000000000D+00  5.9023578513007D-06  1.9675597843688D-04
   194  1.9300000000000D+00  2.6092733367995D-06  8.8652347002256D-05
   195  1.9400000000000D+00 -1.5400799478189D-07 -4.9752041097383D-06
   196  1.9500000000000D+00 -7.3051483980130D-07 -2.3670594013043D-05
   197  1.9600000000000D+00 -1.7392201321444D-07 -5.6629912243750D-06
   198  1.9700000000000D+00  1.5783729711202D-07  4.7998053931581D-06
   199  1.9800000000000D+00  1.1015343951774D-07  3.3322236686554D-06
   200  1.9900000000000D+00 -1.1601901246567D-08 -3.8784898171016D-07
   201  2.0000000000000D+00 -1.8331327064783D-08 -6.1281219210310D-07
   202  2.0100000000000D+00  0.0000000000000D+00  0.0000000000000D+00
   203  2.0200000000000D+00  0.0000000000000D+00  0.0000000000000D+00
   204  2.0300000000000D+00  0.0000000000000D+00  0.0000000000000D+00
   205  2.0400000000000D+00  0.0000000000000D+00  0.0000000000000D+00
   206  2.0500000000000D+00  0.0000000000000D+00  0.0000000000000D+00
   207  2.0600000000000D+00  0.0000000000000D+00  0.0000000000000D+00
   208  2.0700000000000D+00  0.0000000000000D+00  0.0000000000000D+00
   209  2.0800000000000D+00  0.0000000000000D+00  0.0000000000000D+00
   210  2.0900000000000D+00  0.0000000000000D+00  0.0000000000000D+00
   211  2.1000000000000D+00  0.0000000000000D+00  0.0000000000000D+00
   212  2.1100000000000D+00  0.0000000000000D+00  0.0000000000000D+00
   213  2.1200000000000D+00  0.0000000000000D+00  0.0000000000000D+00
   214  2.1300000000000D+00  0.0000000000000D+00  0.0000000000000D+00
   215  2.1400000000000D+00  0.0000000000000D+00  0.0000000000000D+00
   216  2.1500000000000D+00  0.0000000000000D+00  0.0000000000000D+00
   217  2.1600000000000D+00  0.0000000000000D+00  0.0000000000000D+00
   218  2.1700000000000D+00  0.0000000000000D+00  0.0000000000000D+00
   219  2.1800000000000D+00  0.0000000000000D+00  0.0000000000000D+00
   220  2.1900000000000D+00  0.0000000000000D+00  0.0000000000000D+00
   221  2.2000000000000D+00  0.0000000000000D+00  0.0000000000000D+00
   222  2.2100000000000D+00  0.0000000000000D+00  0.0000000000000D+00
   223  2.2200000000000D+00  0.0000000000000D+00  0.0000000000000D+00
   224  2.2300000000000D+00  0.0000000000000D+00  0.0000000000000D+00
   225  2.2400000000000D+00  0.0000000000000D+00  0.0000000000000D+00
   226  2.2500000000000D+00  0.0000000000000D+00  0.0000000000000D+00
   227  2.2600000000000D+00  0.0000000000000D+00  0.0000000000000D+00
   228  2.2700000000000D+00  0.0000000000000D+00  0.0000000000000D+00
   229  2.2800000000000D+00  0.0000000000000D+00  0.0000000000000D+00
   230  2.2900000000000D+00  0.0000000000000D+00  0.0000000000000D+00
   231  2.3000000000000D+00  0.0000000000000D+00  0.0000000000000D+00
   232  2.3100000000000D+00  0.0000000000000D+00  0.0000000000000D+00
   233  2.3200000000000D+00  0.0000000000000D+00  0.0000000000000D+00
   234  2.3300000000000D+00  0.0000000000000D+00  0.0000000000000D+00
   235  2.3400000000000D+00  0.0000000000000D+00  0.0000000000000D+00
   236  2.3500000000000D+00  0.0000000000000D+00  0.0000000000000D+00
   237  2.3600000000000D+00  0.0000000000000D+00  0.0000000000000D+00
   238  2.3700000000000D+00  0.0000000000000D+00  0.0000000000000D+00
   239  2.3800000000000D+00  0.0000000000000D+00  0.0000000000000D+00
   240  2.3900000000000D+00  0.0000000000000D+00  0.0000000000000D+00
   241  2.4000000000000D+00  0.0000000000000D+00  0.0000000000000D+00
   242  2.4100000000000D+00  0.0000000000000D+00  0.0000000000000D+00
   243  2.4200000000000D+00  0.0000000000000D+00  0.0000000000000D+00
   244  2.4300000000000D+00  0.0000000000000D+00  0.0000000000000D+00
   245  2.4400000000000D+00  0.0000000000000D+00  0.0000000000000D+00
   246  2.4500000000000D+00  0.0000000000000D+00  0.0000000000000D+00
   247  2.4600000000000D+00  0.0000000000000D+00  0.0000000000000D+00
   248  2.4700000000000D+00  0.0000000000000D+00  0.0000000000000D+00
   249  2.4800000000000D+00  0.0000000000000D+00  0.0000000000000D+00
   250  2.4900000000000D+00  0.0000000000000D+00  0.0000000000000D+00
   251  2.5000000000000D+00  0.0000000000000D+00  0.0000000000000D+00
   252  2.5100000000000D+00  0.0000000000000D+00  0.0000000000000D+00
   253  2.5200000000000D+00  0.0000000000000D+00  0.0000000000000D+00
   254  2.5300000000000D+00  0.0000000000000D+00  0.0000000000000D+00
   255  2.5400000000000D+00  0.0000000000000D+00  0.0000000000000D+00
   256  2.5500000000000D+00  0.0000000000000D+00  0.0000000000000D+00
   257  2.5600000000000D+00  0.0000000000000D+00  0.0000000000000D+00
   258  2.5700000000000D+00  0.0000000000000D+00  0.0000000000000D+00
   259  2.5800000000000D+00  0.0000000000000D+00  0.0000000000000D+00
   260  2.5900000000000D+00  0.0000000000000D+00  0.0000000000000D+00
   261  2.6000000000000D+00  0.0000000000000D+00  0.0000000000000D+00
   262  2.6100000000000D+00  0.0000000000000D+00  0.0000000000000D+00
   263  2.6200000000000D+00  0.0000000000000D+00  0.0000000000000D+00
   264  2.6300000000000D+00  0.0000000000000D+00  0.0000000000000D+00
   265  2.6400000000000D+00  0.0000000000000D+00  0.0000000000000D+00
   266  2.6500000000000D+00  0.0000000000000D+00  0.0000000000000D+00
   267  2.6600000000000D+00  0.0000000000000D+00  0.0000000000000D+00
   268  2.6700000000000D+00  0.0000000000000D+00  0.0000000000000D+00
   269  2.6800000000000D+00  0.0000000000000D+00  0.0000000000000D+00
   270  2.6900000000000D+00  0.0000000000000D+00  0.0000000000000D+00
   271  2.7000000000000D+00  0.0000000000000D+00  0.0000000000000D+00
   272  2.7100000000000D+00  0.0000000000000D+00  0.0000000000000D+00
   273  2.7200000000000D+00  0.0000000000000D+00  0.0000000000000D+00
   274  2.7300000000000D+00  0.0000000000000D+00  0.0000000000000D+00
   275  2.7400000000000D+00  0.0000000000000D+00  0.0000000000000D+00
   276  2.7500000000000D+00  0.0000000000000D+00  0.0000000000000D+00
   277  2.7600000000000D+00  0.0000000000000D+00  0.0000000000000D+00
   278  2.7700000000000D+00  0.0000000000000D+00  0.0000000000000D+00
   279  2.7800000000000D+00  0.0000000000000D+00  0.0000000000000D+00
   280  2.7900000000000D+00  0.0000000000000D+00  0.0000000000000D+00
   281  2.8000000000000D+00  0.0000000000000D+00  0.0000000000000D+00
   282  2.8100000000000D+00  0.0000000000000D+00  0.0000000000000D+00
   283  2.8200000000000D+00  0.0000000000000D+00  0.0000000000000D+00
   284  2.8300000000000D+00  0.0000000000000D+00  0.0000000000000D+00
   285  2.8400000000000D+00  0.0000000000000D+00  0.0000000000000D+00
   286  2.8500000000000D+00  0.0000000000000D+00  0.0000000000000D+00
   287  2.8600000000000D+00  0.0000000000000D+00  0.0000000000000D+00
   288  2.8700000000000D+00  0.0000000000000D+00  0.0000000000000D+00
   289  2.8800000000000D+00  0.0000000000000D+00  0.0000000000000D+00
   290  2.8900000000000D+00  0.0000000000000D+00  0.0000000000000D+00
   291  2.9000000000000D+00  0.0000000000000D+00  0.0000000000000D+00
   292  2.9100000000000D+00  0.0000000000000D+00  0.0000000000000D+00
   293  2.9200000000000D+00  0.0000000000000D+00  0.0000000000000D+00
   294  2.9300000000000D+00  0.0000000000000D+00  0.0000000000000D+00
   295  2.9400000000000D+00  0.0000000000000D+00  0.0000000000000D+00
   296  2.9500000000000D+00  0.0000000000000D+00  0.0000000000000D+00
   297  2.9600000000000D+00  0.0000000000000D+00  0.0000000000000D+00
   298  2.9700000000000D+00  0.0000000000000D+00  0.0000000000000D+00
   299  2.9800000000000D+00  0.0000000000000D+00  0.0000000000000D+00
   300  2.9900000000000D+00  0.0000000000000D+00  0.0000000000000D+00
   301  3.0000000000000D+00  0.0000000000000D+00  0.0000000000000D+00
   302  3.0100000000000D+00  0.0000000000000D+00  0.0000000000000D+00
   303  3.0200000000000D+00  0.0000000000000D+00  0.0000000000000D+00
   304  3.0300000000000D+00  0.0000000000000D+00  0.0000000000000D+00
   305  3.0400000000000D+00  0.0000000000000D+00  0.0000000000000D+00
   306  3.0500000000000D+00  0.0000000000000D+00  0.0000000000000D+00
   307  3.0600000000000D+00  0.0000000000000D+00  0.0000000000000D+00
   308  3.0700000000000D+00  0.0000000000000D+00  0.0000000000000D+00
   309  3.0800000000000D+00  0.0000000000000D+00  0.0000000000000D+00
   310  3.0900000000000D+00  0.0000000000000D+00  0.0000000000000D+00
   311  3.1000000000000D+00  0.0000000000000D+00  0.0000000000000D+00
   312  3.1100000000000D+00  0.0000000000000D+00  0.0000000000000D+00
   313  3.1200000000000D+00  0.0000000000000D+00  0.0000000000000D+00
   314  3.1300000000000D+00  0.0000000000000D+00  0.0000000000000D+00
   315  3.1400000000000D+00  0.0000000000000D+00  0.0000000000000D+00
   316  3.1500000000000D+00  0.0000000000000D+00  0.0000000000000D+00
   317  3.1600000000000D+00  0.0000000000000D+00  0.0000000000000D+00
   318  3.1700000000000D+00  0.0000000000000D+00  0.0000000000000D+00
   319  3.1800000000000D+00  0.0000000000000D+00  0.0000000000000D+00
   320  3.1900000000000D+00  0.0000000000000D+00  0.0000000000000D+00
   321  3.2000000000000D+00  0.0000000000000D+00  0.0000000000000D+00
   322  3.2100000000000D+00  0.0000000000000D+00  0.0000000000000D+00
   323  3.2200000000000D+00  0.0000000000000D+00  0.0000000000000D+00
   324  3.2300000000000D+00  0.0000000000000D+00  0.0000000000000D+00
   325  3.2400000000000D+00  0.0000000000000D+00  0.0000000000000D+00
   326  3.2500000000000D+00  0.0000000000000D+00  0.0000000000000D+00
   327  3.2600000000000D+00  0.0000000000000D+00  0.0000000000000D+00
   328  3.2700000000000D+00  0.0000000000000D+00  0.0000000000000D+00
   329  3.2800000000000D+00  0.0000000000000D+00  0.0000000000000D+00
   330  3.2900000000000D+00  0.0000000000000D+00  0.0000000000000D+00
   331  3.3000000000000D+00  0.0000000000000D+00  0.0000000000000D+00
   332  3.3100000000000D+00  0.0000000000000D+00  0.0000000000000D+00
   333  3.3200000000000D+00  0.0000000000000D+00  0.0000000000000D+00
   334  3.3300000000000D+00  0.0000000000000D+00  0.0000000000000D+00
   335  3.3400000000000D+00  0.0000000000000D+00  0.0000000000000D+00
   336  3.3500000000000D+00  0.0000000000000D+00  0.0000000000000D+00
   337  3.3600000000000D+00  0.0000000000000D+00  0.0000000000000D+00
   338  3.3700000000000D+00  0.0000000000000D+00  0.0000000000000D+00
   339  3.3800000000000D+00  0.0000000000000D+00  0.0000000000000D+00
   340  3.3900000000000D+00  0.0000000000000D+00  0.0000000000000D+00
   341  3.4000000000000D+00  0.0000000000000D+00  0.0000000000000D+00
   342  3.4100000000000D+00  0.0000000000000D+00  0.0000000000000D+00
   343  3.4200000000000D+00  0.0000000000000D+00  0.0000000000000D+00
   344  3.4300000000000D+00  0.0000000000000D+00  0.0000000000000D+00
   345  3.4400000000000D+00  0.0000000000000D+00  0.0000000000000D+00
   346  3.4500000000000D+00  0.0000000000000D+00  0.0000000000000D+00
   347  3.4600000000000D+00  0.0000000000000D+00  0.0000000000000D+00
   348  3.4700000000000D+00  0.0000000000000D+00  0.0000000000000D+00
   349  3.4800000000000D+00  0.0000000000000D+00  0.0000000000000D+00
   350  3.4900000000000D+00  0.0000000000000D+00  0.0000000000000D+00
   351  3.5000000000000D+00  0.0000000000000D+00  0.0000000000000D+00
   352  3.5100000000000D+00  0.0000000000000D+00  0.0000000000000D+00
   353  3.5200000000000D+00  0.0000000000000D+00  0.0000000000000D+00
   354  3.5300000000000D+00  0.0000000000000D+00  0.0000000000000D+00
   355  3.5400000000000D+00  0.0000000000000D+00  0.0000000000000D+00
   356  3.5500000000000D+00  0.0000000000000D+00  0.0000000000000D+00
   357  3.5600000000000D+00  0.0000000000000D+00  0.0000000000000D+00
   358  3.5700000000000D+00  0.0000000000000D+00  0.0000000000000D+00
   359  3.5800000000000D+00  0.0000000000000D+00  0.0000000000000D+00
   360  3.5900000000000D+00  0.0000000000000D+00  0.0000000000000D+00
   361  3.6000000000000D+00  0.0000000000000D+00  0.0000000000000D+00
   362  3.6100000000000D+00  0.0000000000000D+00  0.0000000000000D+00
   363  3.6200000000000D+00  0.0000000000000D+00  0.0000000000000D+00
   364  3.6300000000000D+00  0.0000000000000D+00  0.0000000000000D+00
   365  3.6400000000000D+00  0.0000000000000D+00  0.0000000000000D+00
   366  3.6500000000000D+00  0.0000000000000D+00  0.0000000000000D+00
   367  3.6600000000000D+00  0.0000000000000D+00  0.0000000000000D+00
   368  3.6700000000000D+00  0.0000000000000D+00  0.0000000000000D+00
   369  3.6800000000000D+00  0.0000000000000D+00  0.0000000000000D+00
   370  3.6900000000000D+00  0.0000000000000D+00  0.0000000000000D+00
   371  3.7000000000000D+00  0.0000000000000D+00  0.0000000000000D+00
   372  3.7100000000000D+00  0.0000000000000D+00  0.0000000000000D+00
   373  3.7200000000000D+00  0.0000000000000D+00  0.0000000000000D+00
   374  3.7300000000000D+00  0.0000000000000D+00  0.0000000000000D+00
   375  3.7400000000000D+00  0.0000000000000D+00  0.0000000000000D+00
   376  3.7500000000000D+00  0.0000000000000D+00  0.0000000000000D+00
   377  3.7600000000000D+00  0.0000000000000D+00  0.0000000000000D+00
   378  3.7700000000000D+00  0.0000000000000D+00  0.0000000000000D+00
   379  3.7800000000000D+00  0.0000000000000D+00  0.0000000000000D+00
   380  3.7900000000000D+00  0.0000000000000D+00  0.0000000000000D+00
   381  3.8000000000000D+00  0.0000000000000D+00  0.0000000000000D+00
   382  3.8100000000000D+00  0.0000000000000D+00  0.0000000000000D+00
   383  3.8200000000000D+00  0.0000000000000D+00  0.0000000000000D+00
   384  3.8300000000000D+00  0.0000000000000D+00  0.0000000000000D+00
   385  3.8400000000000D+00  0.0000000000000D+00  0.0000000000000D+00
   386  3.8500000000000D+00  0.0000000000000D+00  0.0000000000000D+00
   387  3.8600000000000D+00  0.0000000000000D+00  0.0000000000000D+00
   388  3.8700000000000D+00  0.0000000000000D+00  0.0000000000000D+00
   389  3.8800000000000D+00  0.0000000000000D+00  0.0000000000000D+00
   390  3.8900000000000D+00  0.0000000000000D+00  0.0000000000000D+00
   391  3.9000000000000D+00  0.0000000000000D+00  0.0000000000000D+00
   392  3.9100000000000D+00  0.0000000000000D+00  0.0000000000000D+00
   393  3.9200000000000D+00  0.0000000000000D+00  0.0000000000000D+00
   394  3.9300000000000D+00  0.0000000000000D+00  0.0000000000000D+00
   395  3.9400000000000D+00  0.0000000000000D+00  0.0000000000000D+00
   396  3.9500000000000D+00  0.0000000000000D+00  0.0000000000000D+00
   397  3.9600000000000D+00  0.0000000000000D+00  0.0000000000000D+00
   398  3.9700000000000D+00  0.0000000000000D+00  0.0000000000000D+00
   399  3.9800000000000D+00  0.0000000000000D+00  0.0000000000000D+00
   400  3.9900000000000D+00  0.0000000000000D+00  0.0000000000000D+00
   401  4.0000000000000D+00  0.0000000000000D+00  0.0000000000000D+00
   402  4.0100000000000D+00  0.0000000000000D+00  0.0000000000000D+00
   403  4.0200000000000D+00  0.0000000000000D+00  0.0000000000000D+00
   404  4.0300000000000D+00  0.0000000000000D+00  0.0000000000000D+00
   405  4.0400000000000D+00  0.0000000000000D+00  0.0000000000000D+00
   406  4.0500000000000D+00  0.0000000000000D+00  0.0000000000000D+00
   407  4.0600000000000D+00  0.0000000000000D+00  0.0000000000000D+00
   408  4.0700000000000D+00  0.0000000000000D+00  0.0000000000000D+00
   409  4.0800000000000D+00  0.0000000000000D+00  0.0000000000000D+00
   410  4.0900000000000D+00  0.0000000000000D+00  0.0000000000000D+00
   411  4.1000000000000D+00  0.0000000000000D+00  0.0000000000000D+00
   412  4.1100000000000D+00  0.0000000000000D+00  0.0000000000000D+00
   413  4.1200000000000D+00  0.0000000000000D+00  0.0000000000000D+00
   414  4.1300000000000D+00  0.0000000000000D+00  0.0000000000000D+00
   415  4.1400000000000D+00  0.0000000000000D+00  0.0000000000000D+00
   416  4.1500000000000D+00  0.0000000000000D+00  0.0000000000000D+00
   417  4.1600000000000D+00  0.0000000000000D+00  0.0000000000000D+00
   418  4.1700000000000D+00  0.0000000000000D+00  0.0000000000000D+00
   419  4.1800000000000D+00  0.0000000000000D+00  0.0000000000000D+00
   420  4.1900000000000D+00  0.0000000000000D+00  0.0000000000000D+00
   421  4.2000000000000D+00  0.0000000000000D+00  0.0000000000000D+00
   422  4.2100000000000D+00  0.0000000000000D+00  0.0000000000000D+00