Cu    ONCVPSP-3.3.1  r_core=   1.91598   1.87081   1.89326
     29.0000     19.0000      210904    zatom,zion,pspd
     8       2   2     4   600     0    pspcod,pspxc,lmax,lloc,mmax,r2well
  5.99000000  0.00000000  0.00000000    rchrg fchrg qchrg
     2     2     2     0     0    nproj
     1     1           extension_switch
   0                        -3.2680043981856D+00 -9.0936008622950D-02
     1  0.0000000000000D+00 -7.2408745666053D-12  2.3349255862115D-10
     2  1.0000000000000D-02  4.3678414769310D-02  3.1103859447844D-02
     3  2.0000000000000D-02  8.7306772590613D-02  6.2141213604038D-02
     4  3.0000000000000D-02  1.3083510833475D-01  9.3045289619188D-02
     5  4.0000000000000D-02  1.7421364020643D-01  1.2374878514233D-01
     6  5.0000000000000D-02  2.1739286065342D-01  1.5418361754523D-01
     7  6.0000000000000D-02  2.6032362637158D-01  1.8428068975020D-01
     8  7.0000000000000D-02  3.0295724711301D-01  2.1396967791976D-01
     9  8.0000000000000D-02  3.4524557301147D-01  2.4317884603301D-01
    10  9.0000000000000D-02  3.8714108014870D-01  2.7183489208586D-01
    11  1.0000000000000D-01  4.2859695409533D-01  2.9986283031231D-01
    12  1.1000000000000D-01  4.6956717117242D-01  3.2718591343565D-01
    13  1.2000000000000D-01  5.1000657719328D-01  3.5372559852494D-01
    14  1.3000000000000D-01  5.4987096345997D-01  3.7940155955679D-01
    15  1.4000000000000D-01  5.8911713980522D-01  4.0413174927069D-01
    16  1.5000000000000D-01  6.2770300448739D-01  4.2783251236205D-01
    17  1.6000000000000D-01  6.6558761076483D-01  4.5041875148477D-01
    18  1.7000000000000D-01  7.0273122999449D-01  4.7180414694197D-01
    19  1.8000000000000D-01  7.3909541111972D-01  4.9190143033302D-01
    20  1.9000000000000D-01  7.7464303643219D-01  5.1062271180264D-01
    21  2.0000000000000D-01  8.0933837351351D-01  5.2787985991247D-01
    22  2.1000000000000D-01  8.4314712328309D-01  5.4358493252794D-01
    23  2.2000000000000D-01  8.7603646409924D-01  5.5765065649460D-01
    24  2.3000000000000D-01  9.0797509188162D-01  5.6999095326996D-01
    25  2.4000000000000D-01  9.3893325624336D-01  5.8052150708845D-01
    26  2.5000000000000D-01  9.6888279264120D-01  5.8916037167081D-01
    27  2.6000000000000D-01  9.9779715057151D-01  5.9582861095407D-01
    28  2.7000000000000D-01  1.0256514178587D+00  6.0045096881589D-01
    29  2.8000000000000D-01  1.0524223411002D+00  6.0295656230655D-01
    30  2.9000000000000D-01  1.0780883423494D+00  6.0327959248295D-01
    31  3.0000000000000D-01  1.1026295321333D+00  6.0136006657172D-01
    32  3.1000000000000D-01  1.1260277189160D+00  5.9714452487203D-01
    33  3.2000000000000D-01  1.1482664151326D+00  5.9058676554934D-01
    34  3.3000000000000D-01  1.1693308399301D+00  5.8164856027122D-01
    35  3.4000000000000D-01  1.1892079187604D+00  5.7030035349845D-01
    36  3.5000000000000D-01  1.2078862799823D+00  5.5652193817047D-01
    37  3.6000000000000D-01  1.2253562486325D+00  5.4030310051664D-01
    38  3.7000000000000D-01  1.2416098375341D+00  5.2164422678207D-01
    39  3.8000000000000D-01  1.2566407359139D+00  5.0055686478431D-01
    40  3.9000000000000D-01  1.2704442957003D+00  4.7706423340772D-01
    41  4.0000000000000D-01  1.2830175156770D+00  4.5120167340286D-01
    42  4.1000000000000D-01  1.2943590236629D+00  4.2301703318138D-01
    43  4.2000000000000D-01  1.3044690568891D+00  3.9257098368382D-01
    44  4.3000000000000D-01  1.3133494407364D+00  3.5993725684569D-01
    45  4.4000000000000D-01  1.3210035659934D+00  3.2520280269186D-01
    46  4.5000000000000D-01  1.3274363647864D+00  2.8846786064884D-01
    47  4.6000000000000D-01  1.3326542853236D+00  2.4984594127420D-01
    48  4.7000000000000D-01  1.3366652655881D+00  2.0946371525636D-01
    49  4.8000000000000D-01  1.3394787061002D+00  1.6746080723443D-01
    50  4.9000000000000D-01  1.3411054418614D+00  1.2398949271773D-01
    51  5.0000000000000D-01  1.3415577135765D+00  7.9214297145195D-02
    52  5.1000000000000D-01  1.3408491382390D+00  3.3311496908457D-02
    53  5.2000000000000D-01  1.3389946791498D+00 -1.3531477037426D-02
    54  5.3000000000000D-01  1.3360106154266D+00 -6.1116731539169D-02
    55  5.4000000000000D-01  1.3319145110447D+00 -1.0923669733628D-01
    56  5.5000000000000D-01  1.3267251834373D+00 -1.5767500581451D-01
    57  5.6000000000000D-01  1.3204626716693D+00 -2.0620745255640D-01
    58  5.7000000000000D-01  1.3131482041812D+00 -2.5460304303894D-01
    59  5.8000000000000D-01  1.3048041660915D+00 -3.0262511506451D-01
    60  5.9000000000000D-01  1.2954540660280D+00 -3.5003253178278D-01
    61  6.0000000000000D-01  1.2851225024483D+00 -3.9658093846343D-01
    62  6.1000000000000D-01  1.2738351293991D+00 -4.4202407553114D-01
    63  6.2000000000000D-01  1.2616186216521D+00 -4.8611513977028D-01
    64  6.3000000000000D-01  1.2485006391456D+00 -5.2860818506110D-01
    65  6.4000000000000D-01  1.2345097906534D+00 -5.6925955352211D-01
    66  6.5000000000000D-01  1.2196755965958D+00 -6.0782932751209D-01
    67  6.6000000000000D-01  1.2040284509028D+00 -6.4408279259311D-01
    68  6.7000000000000D-01  1.1875995818350D+00 -6.7779190127947D-01
    69  6.8000000000000D-01  1.1704210116683D+00 -7.0873672719362D-01
    70  6.9000000000000D-01  1.1525255151450D+00 -7.3670689913080D-01
    71  7.0000000000000D-01  1.1339465766000D+00 -7.6150300449306D-01
    72  7.1000000000000D-01  1.1147183456687D+00 -7.8293795159611D-01
    73  7.2000000000000D-01  1.0948755914939D+00 -8.0083828048065D-01
    74  7.3000000000000D-01  1.0744536553507D+00 -8.1504541206941D-01
    75  7.4000000000000D-01  1.0534884016223D+00 -8.2541682580703D-01
    76  7.5000000000000D-01  1.0320161670637D+00 -8.3182715629462D-01
    77  7.6000000000000D-01  1.0100737083078D+00 -8.3416919988821D-01
    78  7.7000000000000D-01  9.8769814757848D-01 -8.3235482276464D-01
    79  7.8000000000000D-01  9.6492691658963D-01 -8.2631576256513D-01
    80  7.9000000000000D-01  9.4179769862763D-01 -8.1600431640575D-01
    81  8.0000000000000D-01  9.1834836882930D-01 -8.0139390878613D-01
    82  8.1000000000000D-01  8.9461693268701D-01 -7.8247953373270D-01
    83  8.2000000000000D-01  8.7064146283115D-01 -7.5927806636923D-01
    84  8.3000000000000D-01  8.4646003415994D-01 -7.3182844001449D-01
    85  8.4000000000000D-01  8.2211065740688D-01 -7.0019168585379D-01
    86  8.5000000000000D-01  7.9763121125670D-01 -6.6445083321309D-01
    87  8.6000000000000D-01  7.7305937314148D-01 -6.2471066947242D-01
    88  8.7000000000000D-01  7.4843254886904D-01 -5.8109735968329D-01
    89  8.8000000000000D-01  7.2378780125671D-01 -5.3375792699219D-01
    90  8.9000000000000D-01  6.9916177796295D-01 -4.8285959601356D-01
    91  9.0000000000000D-01  6.7459063872918D-01 -4.2858900233035D-01
    92  9.1000000000000D-01  6.5010998226230D-01 -3.7115127232158D-01
    93  9.2000000000000D-01  6.2575477300622D-01 -3.1076897851446D-01
    94  9.3000000000000D-01  6.0155926806655D-01 -2.4768097662661D-01
    95  9.4000000000000D-01  5.7755694456775D-01 -1.8214113139326D-01
    96  9.5000000000000D-01  5.5378042773502D-01 -1.1441693915640D-01
    97  9.6000000000000D-01  5.3026142000478D-01 -4.4788056021652D-02
    98  9.7000000000000D-01  5.0703063147699D-01  2.6455258845096D-02
    99  9.8000000000000D-01  4.8411771203014D-01  9.9013774506359D-02
   100  9.9000000000000D-01  4.6155118542499D-01  1.7258098323392D-01
   101  1.0000000000000D+00  4.3935838572597D-01  2.4684484773992D-01
   102  1.0100000000000D+00  4.1756539637006D-01  3.2148958875164D-01
   103  1.0200000000000D+00  3.9619699221080D-01  3.9619750065970D-01
   104  1.0300000000000D+00  3.7527658486096D-01  4.7065078268756D-01
   105  1.0400000000000D+00  3.5482617165032D-01  5.4453337284841D-01
   106  1.0500000000000D+00  3.3486628850532D-01  6.1753277187868D-01
   107  1.0600000000000D+00  3.1541596704639D-01  6.8934184433862D-01
   108  1.0700000000000D+00  2.9649269618275D-01  7.5966058420062D-01
   109  1.0800000000000D+00  2.7811238846867D-01  8.2819783245423D-01
   110  1.0900000000000D+00  2.6028935146524D-01  8.9467293457819D-01
   111  1.1000000000000D+00  2.4303626432943D-01  9.5881732615727D-01
   112  1.1100000000000D+00  2.2636415983133D-01  1.0203760353629D+00
   113  1.1200000000000D+00  2.1028241197029D-01  1.0791090917097D+00
   114  1.1300000000000D+00  1.9479872933657D-01  1.1347928311041D+00
   115  1.1400000000000D+00  1.7991915433114D-01  1.1872210880940D+00
   116  1.1500000000000D+00  1.6564806833448D-01  1.2362062668066D+00
   117  1.1600000000000D+00  1.5198820287140D-01  1.2815802832978D+00
   118  1.1700000000000D+00  1.3894065679320D-01  1.3231953728140D+00
   119  1.1800000000000D+00  1.2650491946005D-01  1.3609247566129D+00
   120  1.1900000000000D+00  1.1467889987986D-01  1.3946631638079D+00
   121  1.2000000000000D+00  1.0345896171298D-01  1.4243272051970D+00
   122  1.2100000000000D+00  9.2839964020754D-02  1.4498555970706D+00
   123  1.2200000000000D+00  8.2815307611424D-02  1.4712092338022D+00
   124  1.2300000000000D+00  7.3376986787703D-02  1.4883711096775D+00
   125  1.2400000000000D+00  6.4515646269766D-02  1.5013460915235D+00
   126  1.2500000000000D+00  5.6220643042571D-02  1.5101605445715D+00
   127  1.2600000000000D+00  4.8480112840235D-02  1.5148618152790D+00
   128  1.2700000000000D+00  4.1281040940674D-02  1.5155175763439D+00
   129  1.2800000000000D+00  3.4609336930506D-02  1.5122150396738D+00
   130  1.2900000000000D+00  2.8449913069507D-02  1.5050600442150D+00
   131  1.3000000000000D+00  2.2786765846138D-02  1.4941760271533D+00
   132  1.3100000000000D+00  1.7603060314737D-02  1.4797028870671D+00
   133  1.3200000000000D+00  1.2881216774083D-02  1.4617957488645D+00
   134  1.3300000000000D+00  8.6029993245692D-03  1.4406236415549D+00
   135  1.3400000000000D+00  4.7496058463890D-03  1.4163680996246D+00
   136  1.3500000000000D+00  1.3017589109062D-03  1.3892217002654D+00
   137  1.3600000000000D+00 -1.7602028578046D-03  1.3593865490151D+00
   138  1.3700000000000D+00 -4.4562334610671D-03  1.3270727262295D+00
   139  1.3800000000000D+00 -6.8064887387929D-03  1.2924967080735D+00
   140  1.3900000000000D+00 -8.8312365970566D-03  1.2558797750073D+00
   141  1.4000000000000D+00 -1.0550768749585D-02  1.2174464215367D+00
   142  1.4100000000000D+00 -1.1985314422276D-02  1.1774227804127D+00
   143  1.4200000000000D+00 -1.3154956505570D-02  1.1360350748567D+00
   144  1.4300000000000D+00 -1.4079550587769D-02  1.0935081119068D+00
   145  1.4400000000000D+00 -1.4778647279564D-02  1.0500638291576D+00
   146  1.4500000000000D+00 -1.5271418282090D-02  1.0059199084066D+00
   147  1.4600000000000D+00 -1.5576586498266D-02  9.6128846613313D-01
   148  1.4700000000000D+00 -1.5712360630026D-02  9.1637483412180D-01
   149  1.4800000000000D+00 -1.5696374503086D-02  8.7137643877221D-01
   150  1.4900000000000D+00 -1.5545631446395D-02  8.2648178955477D-01
   151  1.5000000000000D+00 -1.5276453997932D-02  7.8186958592329D-01
   152  1.5100000000000D+00 -1.4904439069658D-02  7.3770794801659D-01
   153  1.5200000000000D+00 -1.4444418899563D-02  6.9415378202444D-01
   154  1.5300000000000D+00 -1.3910427729452D-02  6.5135228015076D-01
   155  1.5400000000000D+00 -1.3315674535346D-02  6.0943656609880D-01
   156  1.5500000000000D+00 -1.2672521649936D-02  5.6852748311810D-01
   157  1.5600000000000D+00 -1.1992469474272D-02  5.2873353188426D-01
   158  1.5700000000000D+00 -1.1286147130646D-02  4.9015095553971D-01
   159  1.5800000000000D+00 -1.0563309054072D-02  4.5286397333425D-01
   160  1.5900000000000D+00 -9.8328374156359D-03  4.1694516139269D-01
   161  1.6000000000000D+00 -9.1027501734362D-03  3.8245597596959D-01
   162  1.6100000000000D+00 -8.3802146814027D-03  3.4944741887485D-01
   163  1.6200000000000D+00 -7.6715664712269D-03  3.1796083481814D-01
   164  1.6300000000000D+00 -6.9823332481253D-03  2.8802886587507D-01
   165  1.6400000000000D+00 -6.3172629453153D-03  2.5967637813169D-01
   166  1.6500000000000D+00 -5.6803582370705D-03  2.3292201512555D-01
   167  1.6600000000000D+00 -5.0749095895977D-03  2.0777846715896D-01
   168  1.6700000000000D+00 -4.5035396794487D-03  1.8425470856322D-01
   169  1.6800000000000D+00 -3.9682549818756D-03  1.6235963255228D-01
   170  1.6900000000000D+00 -3.4704693033643D-03  1.4209721999379D-01
   171  1.7000000000000D+00 -3.0110357089436D-03  1.2346327907735D-01
   172  1.7100000000000D+00 -2.5902777085860D-03  1.0644272286140D-01
   173  1.7200000000000D+00 -2.2080124783529D-03  9.1004205957340D-02
   174  1.7300000000000D+00 -1.8636056375554D-03  7.7103102604394D-02
   175  1.7400000000000D+00 -1.5560249289876D-03  6.4684285536867D-02
   176  1.7500000000000D+00 -1.2838869926415D-03  5.3682544055522D-02
   177  1.7600000000000D+00 -1.0455086553058D-03  4.4024344741489D-02
   178  1.7700000000000D+00 -8.3895644951192D-04  3.5629216568165D-02
   179  1.7800000000000D+00 -6.6209559723092D-04  2.8411168655784D-02
   180  1.7900000000000D+00 -5.1263756141354D-04  2.2280076934731D-02
   181  1.8000000000000D+00 -3.8818598570885D-04  1.7143016841754D-02
   182  1.8100000000000D+00 -2.8628035785020D-04  1.2905529520395D-02
   183  1.8200000000000D+00 -2.0443726156495D-04  9.4728173738536D-03
   184  1.8300000000000D+00 -1.4018872370022D-04  6.7508544728898D-03
   185  1.8400000000000D+00 -9.1117353708786D-05  4.6474029629874D-03
   186  1.8500000000000D+00 -5.4884989967645D-05  3.0729771159929D-03
   187  1.8600000000000D+00 -2.9258490289244D-05  1.9416750584822D-03
   188  1.8700000000000D+00 -1.2189463476314D-05  1.1710901162447D-03
   189  1.8800000000000D+00 -1.8299106069513D-06  6.8139473973432D-04
   190  1.8900000000000D+00  3.8908829185154D-06  4.0889147798466D-04
   191  1.9000000000000D+00  6.8300594444016D-06  2.9729039366640D-04
   192  1.9100000000000D+00  7.5495688307375D-06  2.5802820813639D-04
   193  1.9200000000000D+00  5.8858598356272D-06  1.9712327761911D-04
   194  1.9300000000000D+00  2.6018959011578D-06  8.8816900184652D-05
   195  1.9400000000000D+00 -1.5358215210394D-07 -4.9846843518581D-06
   196  1.9500000000000D+00 -7.2848911702427D-07 -2.3715671134785D-05
   197  1.9600000000000D+00 -1.7343806148073D-07 -5.6737547353080D-06
   198  1.9700000000000D+00  1.5741502914650D-07  4.8092515336406D-06
   199  1.9800000000000D+00  1.0985943801655D-07  3.3388027122009D-06
   200  1.9900000000000D+00 -1.1569470510631D-08 -3.8857000760639D-07
   201  2.0000000000000D+00 -1.8280085598859D-08 -6.1395143309862D-07
   202  2.0100000000000D+00  0.0000000000000D+00  0.0000000000000D+00
   203  2.0200000000000D+00  0.0000000000000D+00  0.0000000000000D+00
   204  2.0300000000000D+00  0.0000000000000D+00  0.0000000000000D+00
   205  2.0400000000000D+00  0.0000000000000D+00  0.0000000000000D+00
   206  2.0500000000000D+00  0.0000000000000D+00  0.0000000000000D+00
   207  2.0600000000000D+00  0.0000000000000D+00  0.0000000000000D+00
   208  2.0700000000000D+00  0.0000000000000D+00  0.0000000000000D+00
   209  2.0800000000000D+00  0.0000000000000D+00  0.0000000000000D+00
   210  2.0900000000000D+00  0.0000000000000D+00  0.0000000000000D+00
   211  2.1000000000000D+00  0.0000000000000D+00  0.0000000000000D+00
   212  2.1100000000000D+00  0.0000000000000D+00  0.0000000000000D+00
   213  2.1200000000000D+00  0.0000000000000D+00  0.0000000000000D+00
   214  2.1300000000000D+00  0.0000000000000D+00  0.0000000000000D+00
   215  2.1400000000000D+00  0.0000000000000D+00  0.0000000000000D+00
   216  2.1500000000000D+00  0.0000000000000D+00  0.0000000000000D+00
   217  2.1600000000000D+00  0.0000000000000D+00  0.0000000000000D+00
   218  2.1700000000000D+00  0.0000000000000D+00  0.0000000000000D+00
   219  2.1800000000000D+00  0.0000000000000D+00  0.0000000000000D+00
   220  2.1900000000000D+00  0.0000000000000D+00  0.0000000000000D+00
   221  2.2000000000000D+00  0.0000000000000D+00  0.0000000000000D+00
   222  2.2100000000000D+00  0.0000000000000D+00  0.0000000000000D+00
   223  2.2200000000000D+00  0.0000000000000D+00  0.0000000000000D+00
   224  2.2300000000000D+00  0.0000000000000D+00  0.0000000000000D+00
   225  2.2400000000000D+00  0.0000000000000D+00  0.0000000000000D+00
   226  2.2500000000000D+00  0.0000000000000D+00  0.0000000000000D+00
   227  2.2600000000000D+00  0.0000000000000D+00  0.0000000000000D+00
   228  2.2700000000000D+00  0.0000000000000D+00  0.0000000000000D+00
   229  2.2800000000000D+00  0.0000000000000D+00  0.0000000000000D+00
   230  2.2900000000000D+00  0.0000000000000D+00  0.0000000000000D+00
   231  2.3000000000000D+00  0.0000000000000D+00  0.0000000000000D+00
   232  2.3100000000000D+00  0.0000000000000D+00  0.0000000000000D+00
   233  2.3200000000000D+00  0.0000000000000D+00  0.0000000000000D+00
   234  2.3300000000000D+00  0.0000000000000D+00  0.0000000000000D+00
   235  2.3400000000000D+00  0.0000000000000D+00  0.0000000000000D+00
   236  2.3500000000000D+00  0.0000000000000D+00  0.0000000000000D+00
   237  2.3600000000000D+00  0.0000000000000D+00  0.0000000000000D+00
   238  2.3700000000000D+00  0.0000000000000D+00  0.0000000000000D+00
   239  2.3800000000000D+00  0.0000000000000D+00  0.0000000000000D+00
   240  2.3900000000000D+00  0.0000000000000D+00  0.0000000000000D+00
   241  2.4000000000000D+00  0.0000000000000D+00  0.0000000000000D+00
   242  2.4100000000000D+00  0.0000000000000D+00  0.0000000000000D+00
   243  2.4200000000000D+00  0.0000000000000D+00  0.0000000000000D+00
   244  2.4300000000000D+00  0.0000000000000D+00  0.0000000000000D+00
   245  2.4400000000000D+00  0.0000000000000D+00  0.0000000000000D+00
   246  2.4500000000000D+00  0.0000000000000D+00  0.0000000000000D+00
   247  2.4600000000000D+00  0.0000000000000D+00  0.0000000000000D+00
   248  2.4700000000000D+00  0.0000000000000D+00  0.0000000000000D+00
   249  2.4800000000000D+00  0.0000000000000D+00  0.0000000000000D+00
   250  2.4900000000000D+00  0.0000000000000D+00  0.0000000000000D+00
   251  2.5000000000000D+00  0.0000000000000D+00  0.0000000000000D+00
   252  2.5100000000000D+00  0.0000000000000D+00  0.0000000000000D+00
   253  2.5200000000000D+00  0.0000000000000D+00  0.0000000000000D+00
   254  2.5300000000000D+00  0.0000000000000D+00  0.0000000000000D+00
   255  2.5400000000000D+00  0.0000000000000D+00  0.0000000000000D+00
   256  2.5500000000000D+00  0.0000000000000D+00  0.0000000000000D+00
   257  2.5600000000000D+00  0.0000000000000D+00  0.0000000000000D+00
   258  2.5700000000000D+00  0.0000000000000D+00  0.0000000000000D+00
   259  2.5800000000000D+00  0.0000000000000D+00  0.0000000000000D+00
   260  2.5900000000000D+00  0.0000000000000D+00  0.0000000000000D+00
   261  2.6000000000000D+00  0.0000000000000D+00  0.0000000000000D+00
   262  2.6100000000000D+00  0.0000000000000D+00  0.0000000000000D+00
   263  2.6200000000000D+00  0.0000000000000D+00  0.0000000000000D+00
   264  2.6300000000000D+00  0.0000000000000D+00  0.0000000000000D+00
   265  2.6400000000000D+00  0.0000000000000D+00  0.0000000000000D+00
   266  2.6500000000000D+00  0.0000000000000D+00  0.0000000000000D+00
   267  2.6600000000000D+00  0.0000000000000D+00  0.0000000000000D+00
   268  2.6700000000000D+00  0.0000000000000D+00  0.0000000000000D+00
   269  2.6800000000000D+00  0.0000000000000D+00  0.0000000000000D+00
   270  2.6900000000000D+00  0.0000000000000D+00  0.0000000000000D+00
   271  2.7000000000000D+00  0.0000000000000D+00  0.0000000000000D+00
   272  2.7100000000000D+00  0.0000000000000D+00  0.0000000000000D+00
   273  2.7200000000000D+00  0.0000000000000D+00  0.0000000000000D+00
   274  2.7300000000000D+00  0.0000000000000D+00  0.0000000000000D+00
   275  2.7400000000000D+00  0.0000000000000D+00  0.0000000000000D+00
   276  2.7500000000000D+00  0.0000000000000D+00  0.0000000000000D+00
   277  2.7600000000000D+00  0.0000000000000D+00  0.0000000000000D+00
   278  2.7700000000000D+00  0.0000000000000D+00  0.0000000000000D+00
   279  2.7800000000000D+00  0.0000000000000D+00  0.0000000000000D+00
   280  2.7900000000000D+00  0.0000000000000D+00  0.0000000000000D+00
   281  2.8000000000000D+00  0.0000000000000D+00  0.0000000000000D+00
   282  2.8100000000000D+00  0.0000000000000D+00  0.0000000000000D+00
   283  2.8200000000000D+00  0.0000000000000D+00  0.0000000000000D+00
   284  2.8300000000000D+00  0.0000000000000D+00  0.0000000000000D+00
   285  2.8400000000000D+00  0.0000000000000D+00  0.0000000000000D+00
   286  2.8500000000000D+00  0.0000000000000D+00  0.0000000000000D+00
   287  2.8600000000000D+00  0.0000000000000D+00  0.0000000000000D+00
   288  2.8700000000000D+00  0.0000000000000D+00  0.0000000000000D+00
   289  2.8800000000000D+00  0.0000000000000D+00  0.0000000000000D+00
   290  2.8900000000000D+00  0.0000000000000D+00  0.0000000000000D+00
   291  2.9000000000000D+00  0.0000000000000D+00  0.0000000000000D+00
   292  2.9100000000000D+00  0.0000000000000D+00  0.0000000000000D+00
   293  2.9200000000000D+00  0.0000000000000D+00  0.0000000000000D+00
   294  2.9300000000000D+00  0.0000000000000D+00  0.0000000000000D+00
   295  2.9400000000000D+00  0.0000000000000D+00  0.0000000000000D+00
   296  2.9500000000000D+00  0.0000000000000D+00  0.0000000000000D+00
   297  2.9600000000000D+00  0.0000000000000D+00  0.0000000000000D+00
   298  2.9700000000000D+00  0.0000000000000D+00  0.0000000000000D+00
   299  2.9800000000000D+00  0.0000000000000D+00  0.0000000000000D+00
   300  2.9900000000000D+00  0.0000000000000D+00  0.0000000000000D+00
   301  3.0000000000000D+00  0.0000000000000D+00  0.0000000000000D+00
   302  3.0100000000000D+00  0.0000000000000D+00  0.0000000000000D+00
   303  3.0200000000000D+00  0.0000000000000D+00  0.0000000000000D+00
   304  3.0300000000000D+00  0.0000000000000D+00  0.0000000000000D+00
   305  3.0400000000000D+00  0.0000000000000D+00  0.0000000000000D+00
   306  3.0500000000000D+00  0.0000000000000D+00  0.0000000000000D+00
   307  3.0600000000000D+00  0.0000000000000D+00  0.0000000000000D+00
   308  3.0700000000000D+00  0.0000000000000D+00  0.0000000000000D+00
   309  3.0800000000000D+00  0.0000000000000D+00  0.0000000000000D+00
   310  3.0900000000000D+00  0.0000000000000D+00  0.0000000000000D+00
   311  3.1000000000000D+00  0.0000000000000D+00  0.0000000000000D+00
   312  3.1100000000000D+00  0.0000000000000D+00  0.0000000000000D+00
   313  3.1200000000000D+00  0.0000000000000D+00  0.0000000000000D+00
   314  3.1300000000000D+00  0.0000000000000D+00  0.0000000000000D+00
   315  3.1400000000000D+00  0.0000000000000D+00  0.0000000000000D+00
   316  3.1500000000000D+00  0.0000000000000D+00  0.0000000000000D+00
   317  3.1600000000000D+00  0.0000000000000D+00  0.0000000000000D+00
   318  3.1700000000000D+00  0.0000000000000D+00  0.0000000000000D+00
   319  3.1800000000000D+00  0.0000000000000D+00  0.0000000000000D+00
   320  3.1900000000000D+00  0.0000000000000D+00  0.0000000000000D+00
   321  3.2000000000000D+00  0.0000000000000D+00  0.0000000000000D+00
   322  3.2100000000000D+00  0.0000000000000D+00  0.0000000000000D+00
   323  3.2200000000000D+00  0.0000000000000D+00  0.0000000000000D+00
   324  3.2300000000000D+00  0.0000000000000D+00  0.0000000000000D+00
   325  3.2400000000000D+00  0.0000000000000D+00  0.0000000000000D+00
   326  3.2500000000000D+00  0.0000000000000D+00  0.0000000000000D+00
   327  3.2600000000000D+00  0.0000000000000D+00  0.0000000000000D+00
   328  3.2700000000000D+00  0.0000000000000D+00  0.0000000000000D+00
   329  3.2800000000000D+00  0.0000000000000D+00  0.0000000000000D+00
   330  3.2900000000000D+00  0.0000000000000D+00  0.0000000000000D+00
   331  3.3000000000000D+00  0.0000000000000D+00  0.0000000000000D+00
   332  3.3100000000000D+00  0.0000000000000D+00  0.0000000000000D+00
   333  3.3200000000000D+00  0.0000000000000D+00  0.0000000000000D+00
   334  3.3300000000000D+00  0.0000000000000D+00  0.0000000000000D+00
   335  3.3400000000000D+00  0.0000000000000D+00  0.0000000000000D+00
   336  3.3500000000000D+00  0.0000000000000D+00  0.0000000000000D+00
   337  3.3600000000000D+00  0.0000000000000D+00  0.0000000000000D+00
   338  3.3700000000000D+00  0.0000000000000D+00  0.0000000000000D+00
   339  3.3800000000000D+00  0.0000000000000D+00  0.0000000000000D+00
   340  3.3900000000000D+00  0.0000000000000D+00  0.0000000000000D+00
   341  3.4000000000000D+00  0.0000000000000D+00  0.0000000000000D+00
   342  3.4100000000000D+00  0.0000000000000D+00  0.0000000000000D+00
   343  3.4200000000000D+00  0.0000000000000D+00  0.0000000000000D+00
   344  3.4300000000000D+00  0.0000000000000D+00  0.0000000000000D+00
   345  3.4400000000000D+00  0.0000000000000D+00  0.0000000000000D+00
   346  3.4500000000000D+00  0.0000000000000D+00  0.0000000000000D+00
   347  3.4600000000000D+00  0.0000000000000D+00  0.0000000000000D+00
   348  3.4700000000000D+00  0.0000000000000D+00  0.0000000000000D+00
   349  3.4800000000000D+00  0.0000000000000D+00  0.0000000000000D+00
   350  3.4900000000000D+00  0.0000000000000D+00  0.0000000000000D+00
   351  3.5000000000000D+00  0.0000000000000D+00  0.0000000000000D+00
   352  3.5100000000000D+00  0.0000000000000D+00  0.0000000000000D+00
   353  3.5200000000000D+00  0.0000000000000D+00  0.0000000000000D+00
   354  3.5300000000000D+00  0.0000000000000D+00  0.0000000000000D+00
   355  3.5400000000000D+00  0.0000000000000D+00  0.0000000000000D+00
   356  3.5500000000000D+00  0.0000000000000D+00  0.0000000000000D+00
   357  3.5600000000000D+00  0.0000000000000D+00  0.0000000000000D+00
   358  3.5700000000000D+00  0.0000000000000D+00  0.0000000000000D+00
   359  3.5800000000000D+00  0.0000000000000D+00  0.0000000000000D+00
   360  3.5900000000000D+00  0.0000000000000D+00  0.0000000000000D+00
   361  3.6000000000000D+00  0.0000000000000D+00  0.0000000000000D+00
   362  3.6100000000000D+00  0.0000000000000D+00  0.0000000000000D+00
   363  3.6200000000000D+00  0.0000000000000D+00  0.0000000000000D+00
   364  3.6300000000000D+00  0.0000000000000D+00  0.0000000000000D+00
   365  3.6400000000000D+00  0.0000000000000D+00  0.0000000000000D+00
   366  3.6500000000000D+00  0.0000000000000D+00  0.0000000000000D+00
   367  3.6600000000000D+00  0.0000000000000D+00  0.0000000000000D+00
   368  3.6700000000000D+00  0.0000000000000D+00  0.0000000000000D+00
   369  3.6800000000000D+00  0.0000000000000D+00  0.0000000000000D+00
   370  3.6900000000000D+00  0.0000000000000D+00  0.0000000000000D+00
   371  3.7000000000000D+00  0.0000000000000D+00  0.0000000000000D+00
   372  3.7100000000000D+00  0.0000000000000D+00  0.0000000000000D+00
   373  3.7200000000000D+00  0.0000000000000D+00  0.0000000000000D+00
   374  3.7300000000000D+00  0.0000000000000D+00  0.0000000000000D+00
   375  3.7400000000000D+00  0.0000000000000D+00  0.0000000000000D+00
   376  3.7500000000000D+00  0.0000000000000D+00  0.0000000000000D+00
   377  3.7600000000000D+00  0.0000000000000D+00  0.0000000000000D+00
   378  3.7700000000000D+00  0.0000000000000D+00  0.0000000000000D+00
   379  3.7800000000000D+00  0.0000000000000D+00  0.0000000000000D+00
   380  3.7900000000000D+00  0.0000000000000D+00  0.0000000000000D+00
   381  3.8000000000000D+00  0.0000000000000D+00  0.0000000000000D+00
   382  3.8100000000000D+00  0.0000000000000D+00  0.0000000000000D+00
   383  3.8200000000000D+00  0.0000000000000D+00  0.0000000000000D+00
   384  3.8300000000000D+00  0.0000000000000D+00  0.0000000000000D+00
   385  3.8400000000000D+00  0.0000000000000D+00  0.0000000000000D+00
   386  3.8500000000000D+00  0.0000000000000D+00  0.0000000000000D+00
   387  3.8600000000000D+00  0.0000000000000D+00  0.0000000000000D+00
   388  3.8700000000000D+00  0.0000000000000D+00  0.0000000000000D+00
   389  3.8800000000000D+00  0.0000000000000D+00  0.0000000000000D+00
   390  3.8900000000000D+00  0.0000000000000D+00  0.0000000000000D+00
   391  3.9000000000000D+00  0.0000000000000D+00  0.0000000000000D+00
   392  3.9100000000000D+00  0.0000000000000D+00  0.0000000000000D+00
   393  3.9200000000000D+00  0.0000000000000D+00  0.0000000000000D+00
   394  3.9300000000000D+00  0.0000000000000D+00  0.0000000000000D+00
   395  3.9400000000000D+00  0.0000000000000D+00  0.0000000000000D+00
   396  3.9500000000000D+00  0.0000000000000D+00  0.0000000000000D+00
   397  3.9600000000000D+00  0.0000000000000D+00  0.0000000000000D+00
   398  3.9700000000000D+00  0.0000000000000D+00  0.0000000000000D+00
   399  3.9800000000000D+00  0.0000000000000D+00  0.0000000000000D+00
   400  3.9900000000000D+00  0.0000000000000D+00  0.0000000000000D+00
   401  4.0000000000000D+00  0.0000000000000D+00  0.0000000000000D+00
   402  4.0100000000000D+00  0.0000000000000D+00  0.0000000000000D+00
   403  4.0200000000000D+00  0.0000000000000D+00  0.0000000000000D+00
   404  4.0300000000000D+00  0.0000000000000D+00  0.0000000000000D+00
   405  4.0400000000000D+00  0.0000000000000D+00  0.0000000000000D+00
   406  4.0500000000000D+00  0.0000000000000D+00  0.0000000000000D+00
   407  4.0600000000000D+00  0.0000000000000D+00  0.0000000000000D+00
   408  4.0700000000000D+00  0.0000000000000D+00  0.0000000000000D+00
   409  4.0800000000000D+00  0.0000000000000D+00  0.0000000000000D+00
   410  4.0900000000000D+00  0.0000000000000D+00  0.0000000000000D+00
   411  4.1000000000000D+00  0.0000000000000D+00  0.0000000000000D+00
   412  4.1100000000000D+00  0.0000000000000D+00  0.0000000000000D+00
   413  4.1200000000000D+00  0.0000000000000D+00  0.0000000000000D+00
   414  4.1300000000000D+00  0.0000000000000D+00  0.0000000000000D+00
   415  4.1400000000000D+00  0.0000000000000D+00  0.0000000000000D+00
   416  4.1500000000000D+00  0.0000000000000D+00  0.0000000000000D+00
   417  4.1600000000000D+00  0.0000000000000D+00  0.0000000000000D+00
   418  4.1700000000000D+00  0.0000000000000D+00  0.0000000000000D+00
   419  4.1800000000000D+00  0.0000000000000D+00  0.0000000000000D+00
   420  4.1900000000000D+00  0.0000000000000D+00  0.0000000000000D+00
   421  4.2000000000000D+00  0.0000000000000D+00  0.0000000000000D+00
   422  4.2100000000000D+00  0.0000000000000D+00  0.0000000000000D+00