Ga    ONCVPSP-3.3.1  r_core=   2.35819   2.44411   1.99550
     31.0000     13.0000      210904    zatom,zion,pspd
     8       2   2     4   600     0    pspcod,pspxc,lmax,lloc,mmax,r2well
  5.99000000  0.00000000  0.00000000    rchrg fchrg qchrg
     2     3     2     0    nproj
     3     1           extension_switch
     4     3     0    nprojso
   0                         3.4483612801001D-01  4.8075331086313D+00
     1  0.0000000000000D+00 -2.5514732687748D-11  2.9839186677094D-12
     2  1.0000000000000D-02  4.1857349011221D-03  2.5282278687892D-02
     3  2.0000000000000D-02  8.3133816393771D-03  5.0562563502001D-02
     4  3.0000000000000D-02  1.2325170318734D-02  7.5838813610160D-02
     5  4.0000000000000D-02  1.6163966121873D-02  1.0110889447007D-01
     6  5.0000000000000D-02  1.9773583218572D-02  1.2637053149001D-01
     7  6.0000000000000D-02  2.3099094334926D-02  1.5162126430647D-01
     8  7.0000000000000D-02  2.6087134566887D-02  1.7685840188076D-01
     9  8.0000000000000D-02  2.8686198047143D-02  2.0207897861374D-01
    10  9.0000000000000D-02  3.0846926105863D-02  2.2727971167434D-01
    11  1.0000000000000D-01  3.2522385603584D-02  2.5245695973259D-01
    12  1.1000000000000D-01  3.3668336157925D-02  2.7760668328350D-01
    13  1.2000000000000D-01  3.4243485034977D-02  3.0272440674165D-01
    14  1.3000000000000D-01  3.4209728530862D-02  3.2780518248044D-01
    15  1.4000000000000D-01  3.3532378728670D-02  3.5284355698252D-01
    16  1.5000000000000D-01  3.2180374580854D-02  3.7783353926046D-01
    17  1.6000000000000D-01  3.0126476336426D-02  4.0276857169832D-01
    18  1.7000000000000D-01  2.7347442406220D-02  4.2764150345595D-01
    19  1.8000000000000D-01  2.3824187837184D-02  4.5244456656854D-01
    20  1.9000000000000D-01  1.9541923648204D-02  4.7716935486405D-01
    21  2.0000000000000D-01  1.4490276364766D-02  5.0180680581088D-01
    22  2.1000000000000D-01  8.6633871776281D-03  5.2634718539721D-01
    23  2.2000000000000D-01  2.0599902408638D-03  5.5078007613269D-01
    24  2.3000000000000D-01 -5.3165302825712D-03  5.7509436825117D-01
    25  2.4000000000000D-01 -1.3458104725500D-02  5.9927825418185D-01
    26  2.5000000000000D-01 -2.2351964173486D-02  6.2331922634376D-01
    27  2.6000000000000D-01 -3.1980648579362D-02  6.4720407830658D-01
    28  2.7000000000000D-01 -4.2322036743797D-02  6.7091890934792D-01
    29  2.8000000000000D-01 -5.3349398073084D-02  6.9444913242493D-01
    30  2.9000000000000D-01 -6.5031465928372D-02  7.1777948556515D-01
    31  3.0000000000000D-01 -7.7332532284868D-02  7.4089404666885D-01
    32  3.1000000000000D-01 -9.0212563324388D-02  7.6377625170228D-01
    33  3.2000000000000D-01 -1.0362733549176D-01  7.8640891624863D-01
    34  3.3000000000000D-01 -1.1752859145421D-01  8.0877426037060D-01
    35  3.4000000000000D-01 -1.3186421531443D-01  8.3085393672623D-01
    36  3.5000000000000D-01 -1.4657842634191D-01  8.5262906186700D-01
    37  3.6000000000000D-01 -1.6161199040491D-01  8.7408025063540D-01
    38  3.7000000000000D-01 -1.7690244820615D-01  8.9518765356681D-01
    39  3.8000000000000D-01 -1.9238435935032D-01  9.1593099718944D-01
    40  3.9000000000000D-01 -2.0798956120102D-01  9.3628962710445D-01
    41  4.0000000000000D-01 -2.2364744141829D-01  9.5624255371769D-01
    42  4.1000000000000D-01 -2.3928522300691D-01  9.7576850048396D-01
    43  4.2000000000000D-01 -2.5482826064941D-01  9.9484595451482D-01
    44  4.3000000000000D-01 -2.7020034704747D-01  1.0134532193913D+00
    45  4.4000000000000D-01 -2.8532402794998D-01  1.0315684700139D+00
    46  4.5000000000000D-01 -3.0012092450743D-01  1.0491698093144D+00
    47  4.6000000000000D-01 -3.1451206155894D-01  1.0662353266453D+00
    48  4.7000000000000D-01 -3.2841820043169D-01  1.0827431576557D+00
    49  4.8000000000000D-01 -3.4176017481162D-01  1.0986715454570D+00
    50  4.9000000000000D-01 -3.5445922823064D-01  1.1139989028748D+00
    51  5.0000000000000D-01 -3.6643735170768D-01  1.1287038755775D+00
    52  5.1000000000000D-01 -3.7761762007971D-01  1.1427654058702D+00
    53  5.2000000000000D-01 -3.8792452556456D-01  1.1561627969363D+00
    54  5.3000000000000D-01 -3.9728430710894D-01  1.1688757773071D+00
    55  5.4000000000000D-01 -4.0562527409376D-01  1.1808845653378D+00
    56  5.5000000000000D-01 -4.1287812299321D-01  1.1921699334672D+00
    57  5.6000000000000D-01 -4.1897624561501D-01  1.2027132720353D+00
    58  5.7000000000000D-01 -4.2385602758666D-01  1.2124966524375D+00
    59  5.8000000000000D-01 -4.2745713579492D-01  1.2215028893903D+00
    60  5.9000000000000D-01 -4.2972279353501D-01  1.2297156020886D+00
    61  6.0000000000000D-01 -4.3060004217972D-01  1.2371192740354D+00
    62  6.1000000000000D-01 -4.3003998823867D-01  1.2436993113281D+00
    63  6.2000000000000D-01 -4.2799803474184D-01  1.2494420991905D+00
    64  6.3000000000000D-01 -4.2443409595121D-01  1.2543350565439D+00
    65  6.4000000000000D-01 -4.1931279447758D-01  1.2583666884150D+00
    66  6.5000000000000D-01 -4.1260363995725D-01  1.2615266359870D+00
    67  6.6000000000000D-01 -4.0428118852471D-01  1.2638057241045D+00
    68  6.7000000000000D-01 -3.9432518240198D-01  1.2651960060533D+00
    69  6.8000000000000D-01 -3.8272066901248D-01  1.2656908054410D+00
    70  6.9000000000000D-01 -3.6945809911785D-01  1.2652847550167D+00
    71  7.0000000000000D-01 -3.5453340356779D-01  1.2639738322753D+00
    72  7.1000000000000D-01 -3.3794804834699D-01  1.2617553917017D+00
    73  7.2000000000000D-01 -3.1970906769804D-01  1.2586281935237D+00
    74  7.3000000000000D-01 -2.9982907519530D-01  1.2545924288489D+00
    75  7.4000000000000D-01 -2.7832625274060D-01  1.2496497410769D+00
    76  7.5000000000000D-01 -2.5522431754789D-01  1.2438032434868D+00
    77  7.6000000000000D-01 -2.3055246727924D-01  1.2370575329143D+00
    78  7.7000000000000D-01 -2.0434530358954D-01  1.2294186994435D+00
    79  7.8000000000000D-01 -1.7664273442975D-01  1.2208943320534D+00
    80  7.9000000000000D-01 -1.4748985555059D-01  1.2114935201714D+00
    81  8.0000000000000D-01 -1.1693681173683D-01  1.2012268510983D+00
    82  8.1000000000000D-01 -8.5038638389264D-02  1.1901064032848D+00
    83  8.2000000000000D-01 -5.1855084154307D-02  1.1781457354517D+00
    84  8.3000000000000D-01 -1.7450415381049D-02  1.1653598715609D+00
    85  8.4000000000000D-01  1.8106796738350D-02  1.1517652816559D+00
    86  8.5000000000000D-01  5.4743905417175D-02  1.1373798586068D+00
    87  8.6000000000000D-01  9.2384432916759D-02  1.1222228908061D+00
    88  8.7000000000000D-01  1.3094832952578D-01  1.1063150308759D+00
    89  8.8000000000000D-01  1.7035224576114D-01  1.0896782604615D+00
    90  8.9000000000000D-01  2.1050981662345D-01  1.0723358511962D+00
    91  9.0000000000000D-01  2.5133195669380D-01  1.0543123219385D+00
    92  9.1000000000000D-01  2.9272716481703D-01  1.0356333923930D+00
    93  9.2000000000000D-01  3.3460183708262D-01  1.0163259332386D+00
    94  9.3000000000000D-01  3.7686058678492D-01  9.9641791290034D-01
    95  9.4000000000000D-01  4.1940657002220D-01  9.7593834111043D-01
    96  9.5000000000000D-01  4.6214181557751D-01  9.5491720941742D-01
    97  9.6000000000000D-01  5.0496755771411D-01  9.3338542880948D-01
    98  9.7000000000000D-01  5.4778457051510D-01  9.1137476463001D-01
    99  9.8000000000000D-01  5.9049350239858D-01  8.8891776897128D-01
   100  9.9000000000000D-01  6.3299520944947D-01  8.6604771074065D-01
   101  1.0000000000000D+00  6.7519108622375D-01  8.4279850360175D-01
   102  1.0100000000000D+00  7.1698339270184D-01  8.1920463199964D-01
   103  1.0200000000000D+00  7.5827557609575D-01  7.9530107548582D-01
   104  1.0300000000000D+00  7.9897258624680D-01  7.7112323156405D-01
   105  1.0400000000000D+00  8.3898118338902D-01  7.4670683728312D-01
   106  1.0500000000000D+00  8.7821023709836D-01  7.2208788980669D-01
   107  1.0600000000000D+00  9.1657101529584D-01  6.9730256619368D-01
   108  1.0700000000000D+00  9.5397746222662D-01  6.7238714262515D-01
   109  1.0800000000000D+00  9.9034646439843D-01  6.4737791331532D-01
   110  1.0900000000000D+00  1.0255981035170D+00  6.2231110934540D-01
   111  1.1000000000000D+00  1.0596558955338D+00  5.9722281765910D-01
   112  1.1100000000000D+00  1.0924470149833D+00  5.7214890045781D-01
   113  1.1200000000000D+00  1.1239025038664D+00  5.4712491523197D-01
   114  1.1300000000000D+00  1.1539574644039D+00  5.2218603566334D-01
   115  1.1400000000000D+00  1.1825512350701D+00  4.9736697362925D-01
   116  1.1500000000000D+00  1.2096275493949D+00  4.7270190253677D-01
   117  1.1600000000000D+00  1.2351346771083D+00  4.4822438220897D-01
   118  1.1700000000000D+00  1.2590255472699D+00  4.2396728554227D-01
   119  1.1800000000000D+00  1.2812578531258D+00  3.9996272714588D-01
   120  1.1900000000000D+00  1.3017941385136D+00  3.7624199416879D-01
   121  1.2000000000000D+00  1.3206018657256D+00  3.5283547951098D-01
   122  1.2100000000000D+00  1.3376534647955D+00  3.2977261761127D-01
   123  1.2200000000000D+00  1.3529263642985D+00  3.0708182299102D-01
   124  1.2300000000000D+00  1.3664030038166D+00  2.8479043172517D-01
   125  1.2400000000000D+00  1.3780708282734D+00  2.6292464600617D-01
   126  1.2500000000000D+00  1.3879222644614D+00  2.4150948195153D-01
   127  1.2600000000000D+00  1.3959546801474D+00  2.2056872079484D-01
   128  1.2700000000000D+00  1.4021703261826D+00  2.0012486359483D-01
   129  1.2800000000000D+00  1.4065762621445D+00  1.8019908958098D-01
   130  1.2900000000000D+00  1.4091842661081D+00  1.6081121823957D-01
   131  1.3000000000000D+00  1.4100107291567D+00  1.4197967524144D-01
   132  1.3100000000000D+00  1.4090765353441D+00  1.2372146229384D-01
   133  1.3200000000000D+00  1.4064069278709D+00  1.0605213098101D-01
   134  1.3300000000000D+00  1.4020313622333D+00  8.8985760662719D-02
   135  1.3400000000000D+00  1.3959833472085D+00  7.2534940470390D-02
   136  1.3500000000000D+00  1.3883002745488D+00  5.6710755428241D-02
   137  1.3600000000000D+00  1.3790232382604D+00  4.1522776736387D-02
   138  1.3700000000000D+00  1.3681968444320D+00  2.6979056205852D-02
   139  1.3800000000000D+00  1.3558690125378D+00  1.3086124848376D-02
   140  1.3900000000000D+00  1.3420907691904D+00 -1.5100438993099D-04
   141  1.4000000000000D+00  1.3269160353178D+00 -1.2728829798968D-02
   142  1.4100000000000D+00  1.3104014077399D+00 -2.4645349999203D-02
   143  1.4200000000000D+00  1.2926059361314D+00 -3.5900049029832D-02
   144  1.4300000000000D+00  1.2735908963212D+00 -4.6493877494224D-02
   145  1.4400000000000D+00  1.2534195609284D+00 -5.6429229825109D-02
   146  1.4500000000000D+00  1.2321569682168D+00 -6.5709917782741D-02
   147  1.4600000000000D+00  1.2098696901592D+00 -7.4341140254171D-02
   148  1.4700000000000D+00  1.1866256005484D+00 -8.2329449486226D-02
   149  1.4800000000000D+00  1.1624936440361D+00 -8.9682713856820D-02
   150  1.4900000000000D+00  1.1375436069703D+00 -9.6410077308804D-02
   151  1.5000000000000D+00  1.1118458907032D+00 -1.0252191559761D-01
   152  1.5100000000000D+00  1.0854712883024D+00 -1.0802978946805D-01
   153  1.5200000000000D+00  1.0584907651280D+00 -1.1294639494304D-01
   154  1.5300000000000D+00  1.0309752441699D+00 -1.1728551084907D-01
   155  1.5400000000000D+00  1.0029953965276D+00 -1.2106194376768D-01
   156  1.5500000000000D+00  9.7462143772216D-01 -1.2429147056264D-01
   157  1.5600000000000D+00  9.4592293026143D-01 -1.2699077866643D-01
   158  1.5700000000000D+00  9.1696859285010D-01 -1.2917740429933D-01
   159  1.5800000000000D+00  8.8782611674499D-01 -1.3086966880072D-01
   160  1.5900000000000D+00  8.5856198931980D-01 -1.3208661325983D-01
   161  1.6000000000000D+00  8.2924132542488D-01 -1.3284793162673D-01
   162  1.6100000000000D+00  7.9992770627838D-01 -1.3317390249374D-01
   163  1.6200000000000D+00  7.7068302654468D-01 -1.3308531973497D-01
   164  1.6300000000000D+00  7.4156734904050D-01 -1.3260342218624D-01
   165  1.6400000000000D+00  7.1263876773805D-01 -1.3174982256434D-01
   166  1.6500000000000D+00  6.8395327831351D-01 -1.3054643579267D-01
   167  1.6600000000000D+00  6.5556465679908D-01 -1.2901540694262D-01
   168  1.6700000000000D+00  6.2752434551625D-01 -1.2717903894009D-01
   169  1.6800000000000D+00  5.9988134668436D-01 -1.2505972025417D-01
   170  1.6900000000000D+00  5.7268212283323D-01 -1.2267985269678D-01
   171  1.7000000000000D+00  5.4597050426871D-01 -1.2006177955726D-01
   172  1.7100000000000D+00  5.1978760267140D-01 -1.1722771417492D-01
   173  1.7200000000000D+00  4.9417173095429D-01 -1.1419966918297D-01
   174  1.7300000000000D+00  4.6915832842048D-01 -1.1099938649281D-01
   175  1.7400000000000D+00  4.4477989123510D-01 -1.0764826826729D-01
   176  1.7500000000000D+00  4.2106590724282D-01 -1.0416730890723D-01
   177  1.7600000000000D+00  3.9804279502205D-01 -1.0057702832280D-01
   178  1.7700000000000D+00  3.7573384625940D-01 -9.6897406459799D-02
   179  1.7800000000000D+00  3.5415917116601D-01 -9.3147819375382D-02
   180  1.7900000000000D+00  3.3333564616694D-01 -8.9346976790672D-02
   181  1.8000000000000D+00  3.1327686335878D-01 -8.5512861407687D-02
   182  1.8100000000000D+00  2.9399308117675D-01 -8.1662669910999D-02
   183  1.8200000000000D+00  2.7549117057560D-01 -7.7812755288519D-02
   184  1.8300000000000D+00  2.5777458582518D-01 -7.3978574024215D-02
   185  1.8400000000000D+00  2.4084326650206D-01 -7.0174626779122D-02
   186  1.8500000000000D+00  2.2469367065763D-01 -6.6414418228904D-02
   187  1.8600000000000D+00  2.0931875907730D-01 -6.2710412132664D-02
   188  1.8700000000000D+00  1.9470766986789D-01 -5.9073950084477D-02
   189  1.8800000000000D+00  1.8084553911322D-01 -5.5515194134402D-02
   190  1.8900000000000D+00  1.6771459560023D-01 -5.2043225111560D-02
   191  1.9000000000000D+00  1.5529475868711D-01 -4.8666078193511D-02
   192  1.9100000000000D+00  1.4356434912503D-01 -4.5390824248203D-02
   193  1.9200000000000D+00  1.3250132557209D-01 -4.2223710729561D-02
   194  1.9300000000000D+00  1.2208331355936D-01 -3.9170163582144D-02
   195  1.9400000000000D+00  1.1228748661648D-01 -3.6234778360609D-02
   196  1.9500000000000D+00  1.0309065563255D-01 -3.3421338497798D-02
   197  1.9600000000000D+00  9.4469514013425D-02 -3.0732852383214D-02
   198  1.9700000000000D+00  8.6400665217763D-02 -2.8171569562905D-02
   199  1.9800000000000D+00  7.8860751211081D-02 -2.5739011245660D-02
   200  1.9900000000000D+00  7.1826537213060D-02 -2.3435998253664D-02
   201  2.0000000000000D+00  6.5274995930196D-02 -2.1262681704138D-02
   202  2.0100000000000D+00  5.9183385456489D-02 -1.9218575319031D-02
   203  2.0200000000000D+00  5.3529319983206D-02 -1.7302589274471D-02
   204  2.0300000000000D+00  4.8290832884655D-02 -1.5513065470076D-02
   205  2.0400000000000D+00  4.3446433664541D-02 -1.3847813987022D-02
   206  2.0500000000000D+00  3.8975156485994D-02 -1.2304150694828D-02
   207  2.0600000000000D+00  3.4856602800330D-02 -1.0878935757336D-02
   208  2.0700000000000D+00  3.1070976406502D-02 -9.5686129400615D-03
   209  2.0800000000000D+00  2.7599111795732D-02 -8.3692495488490D-03
   210  2.0900000000000D+00  2.4422496550605D-02 -7.2765768402528D-03
   211  2.1000000000000D+00  2.1523286519309D-02 -6.2860307424448D-03
   212  2.1100000000000D+00  1.8884315961286D-02 -5.3927927625062D-03
   213  2.1200000000000D+00  1.6489101410432D-02 -4.5918308734831D-03
   214  2.1300000000000D+00  1.4321840358393D-02 -3.8779402644222D-03
   215  2.1400000000000D+00  1.2367405375793D-02 -3.2457838268420D-03
   216  2.1500000000000D+00  1.0611333117628D-02 -2.6899321148641D-03
   217  2.1600000000000D+00  9.0398097662307D-03 -2.2049028096796D-03
   218  2.1700000000000D+00  7.6396525718728D-03 -1.7851993718376D-03
   219  2.1800000000000D+00  6.3982882031930D-03 -1.4253488064869D-03
   220  2.1900000000000D+00  5.3037284885087D-03 -1.1199385322664D-03
   221  2.2000000000000D+00  4.3445438416013D-03 -8.6365190692298D-04
   222  2.2100000000000D+00  3.5098348559747D-03 -6.5130264940359D-04
   223  2.2200000000000D+00  2.7892026411955D-03 -4.7786780373890D-04
   224  2.2300000000000D+00  2.1727184871510D-03 -3.3851908638521D-04
   225  2.2400000000000D+00  1.6508926198693D-03 -2.2865284203275D-04
   226  2.2500000000000D+00  1.2146436733741D-03 -1.4391800666567D-04
   227  2.2600000000000D+00  8.5526834254097D-04 -8.0242349837924D-05
   228  2.2700000000000D+00  5.6441146360910D-04 -3.3856927496615D-05
   229  2.2800000000000D+00  3.3379292568224D-04 -1.2647073811894D-06
   230  2.2900000000000D+00  1.5589344833265D-04  2.0583782128403D-05
   231  2.3000000000000D+00  2.3869331933239D-05  3.4285581939947D-05
   232  2.3100000000000D+00 -6.7275630910752D-05  4.1623552625610D-05
   233  2.3200000000000D+00 -1.2924961899312D-04  4.5725688997858D-05
   234  2.3300000000000D+00 -1.7238028824463D-04  4.9010084013633D-05
   235  2.3400000000000D+00 -2.1008051328036D-04  5.4461936882323D-05
   236  2.3500000000000D+00 -2.2331635172432D-04  5.6196976562390D-05
   237  2.3600000000000D+00 -1.9814048455312D-04  4.9603374199694D-05
   238  2.3700000000000D+00 -1.2544985935764D-04  3.1375582565793D-05
   239  2.3800000000000D+00 -4.3978777262197D-05  1.1016657466040D-05
   240  2.3900000000000D+00  1.1547447761965D-05 -2.8680666400378D-06
   241  2.4000000000000D+00  2.2256169478610D-05 -5.5251347230408D-06
   242  2.4100000000000D+00  9.8119272894422D-06 -2.4353535736604D-06
   243  2.4200000000000D+00 -2.9910006248872D-06  7.4020738017684D-07
   244  2.4300000000000D+00 -5.0060200375699D-06  1.2381220847631D-06
   245  2.4400000000000D+00 -1.9735196593927D-06  4.8785751049184D-07
   246  2.4500000000000D+00  3.8431103096546D-07 -9.6279096050379D-08
   247  2.4600000000000D+00  5.7663135088730D-07 -1.4445993152543D-07
   248  2.4700000000000D+00  2.0011916897758D-07 -5.0134633510547D-08
   249  2.4800000000000D+00  0.0000000000000D+00  0.0000000000000D+00
   250  2.4900000000000D+00  0.0000000000000D+00  0.0000000000000D+00
   251  2.5000000000000D+00  0.0000000000000D+00  0.0000000000000D+00
   252  2.5100000000000D+00  0.0000000000000D+00  0.0000000000000D+00
   253  2.5200000000000D+00  0.0000000000000D+00  0.0000000000000D+00
   254  2.5300000000000D+00  0.0000000000000D+00  0.0000000000000D+00
   255  2.5400000000000D+00  0.0000000000000D+00  0.0000000000000D+00
   256  2.5500000000000D+00  0.0000000000000D+00  0.0000000000000D+00
   257  2.5600000000000D+00  0.0000000000000D+00  0.0000000000000D+00
   258  2.5700000000000D+00  0.0000000000000D+00  0.0000000000000D+00
   259  2.5800000000000D+00  0.0000000000000D+00  0.0000000000000D+00
   260  2.5900000000000D+00  0.0000000000000D+00  0.0000000000000D+00
   261  2.6000000000000D+00  0.0000000000000D+00  0.0000000000000D+00
   262  2.6100000000000D+00  0.0000000000000D+00  0.0000000000000D+00
   263  2.6200000000000D+00  0.0000000000000D+00  0.0000000000000D+00
   264  2.6300000000000D+00  0.0000000000000D+00  0.0000000000000D+00
   265  2.6400000000000D+00  0.0000000000000D+00  0.0000000000000D+00
   266  2.6500000000000D+00  0.0000000000000D+00  0.0000000000000D+00
   267  2.6600000000000D+00  0.0000000000000D+00  0.0000000000000D+00
   268  2.6700000000000D+00  0.0000000000000D+00  0.0000000000000D+00
   269  2.6800000000000D+00  0.0000000000000D+00  0.0000000000000D+00
   270  2.6900000000000D+00  0.0000000000000D+00  0.0000000000000D+00
   271  2.7000000000000D+00  0.0000000000000D+00  0.0000000000000D+00
   272  2.7100000000000D+00  0.0000000000000D+00  0.0000000000000D+00
   273  2.7200000000000D+00  0.0000000000000D+00  0.0000000000000D+00
   274  2.7300000000000D+00  0.0000000000000D+00  0.0000000000000D+00
   275  2.7400000000000D+00  0.0000000000000D+00  0.0000000000000D+00
   276  2.7500000000000D+00  0.0000000000000D+00  0.0000000000000D+00
   277  2.7600000000000D+00  0.0000000000000D+00  0.0000000000000D+00
   278  2.7700000000000D+00  0.0000000000000D+00  0.0000000000000D+00
   279  2.7800000000000D+00  0.0000000000000D+00  0.0000000000000D+00
   280  2.7900000000000D+00  0.0000000000000D+00  0.0000000000000D+00
   281  2.8000000000000D+00  0.0000000000000D+00  0.0000000000000D+00
   282  2.8100000000000D+00  0.0000000000000D+00  0.0000000000000D+00
   283  2.8200000000000D+00  0.0000000000000D+00  0.0000000000000D+00
   284  2.8300000000000D+00  0.0000000000000D+00  0.0000000000000D+00
   285  2.8400000000000D+00  0.0000000000000D+00  0.0000000000000D+00
   286  2.8500000000000D+00  0.0000000000000D+00  0.0000000000000D+00
   287  2.8600000000000D+00  0.0000000000000D+00  0.0000000000000D+00
   288  2.8700000000000D+00  0.0000000000000D+00  0.0000000000000D+00
   289  2.8800000000000D+00  0.0000000000000D+00  0.0000000000000D+00
   290  2.8900000000000D+00  0.0000000000000D+00  0.0000000000000D+00
   291  2.9000000000000D+00  0.0000000000000D+00  0.0000000000000D+00
   292  2.9100000000000D+00  0.0000000000000D+00  0.0000000000000D+00
   293  2.9200000000000D+00  0.0000000000000D+00  0.0000000000000D+00
   294  2.9300000000000D+00  0.0000000000000D+00  0.0000000000000D+00
   295  2.9400000000000D+00  0.0000000000000D+00  0.0000000000000D+00
   296  2.9500000000000D+00  0.0000000000000D+00  0.0000000000000D+00
   297  2.9600000000000D+00  0.0000000000000D+00  0.0000000000000D+00
   298  2.9700000000000D+00  0.0000000000000D+00  0.0000000000000D+00
   299  2.9800000000000D+00  0.0000000000000D+00  0.0000000000000D+00
   300  2.9900000000000D+00  0.0000000000000D+00  0.0000000000000D+00
   301  3.0000000000000D+00  0.0000000000000D+00  0.0000000000000D+00
   302  3.0100000000000D+00  0.0000000000000D+00  0.0000000000000D+00
   303  3.0200000000000D+00  0.0000000000000D+00  0.0000000000000D+00
   304  3.0300000000000D+00  0.0000000000000D+00  0.0000000000000D+00
   305  3.0400000000000D+00  0.0000000000000D+00  0.0000000000000D+00
   306  3.0500000000000D+00  0.0000000000000D+00  0.0000000000000D+00
   307  3.0600000000000D+00  0.0000000000000D+00  0.0000000000000D+00
   308  3.0700000000000D+00  0.0000000000000D+00  0.0000000000000D+00
   309  3.0800000000000D+00  0.0000000000000D+00  0.0000000000000D+00
   310  3.0900000000000D+00  0.0000000000000D+00  0.0000000000000D+00
   311  3.1000000000000D+00  0.0000000000000D+00  0.0000000000000D+00
   312  3.1100000000000D+00  0.0000000000000D+00  0.0000000000000D+00
   313  3.1200000000000D+00  0.0000000000000D+00  0.0000000000000D+00
   314  3.1300000000000D+00  0.0000000000000D+00  0.0000000000000D+00
   315  3.1400000000000D+00  0.0000000000000D+00  0.0000000000000D+00
   316  3.1500000000000D+00  0.0000000000000D+00  0.0000000000000D+00
   317  3.1600000000000D+00  0.0000000000000D+00  0.0000000000000D+00
   318  3.1700000000000D+00  0.0000000000000D+00  0.0000000000000D+00
   319  3.1800000000000D+00  0.0000000000000D+00  0.0000000000000D+00
   320  3.1900000000000D+00  0.0000000000000D+00  0.0000000000000D+00
   321  3.2000000000000D+00  0.0000000000000D+00  0.0000000000000D+00
   322  3.2100000000000D+00  0.0000000000000D+00  0.0000000000000D+00
   323  3.2200000000000D+00  0.0000000000000D+00  0.0000000000000D+00
   324  3.2300000000000D+00  0.0000000000000D+00  0.0000000000000D+00
   325  3.2400000000000D+00  0.0000000000000D+00  0.0000000000000D+00
   326  3.2500000000000D+00  0.0000000000000D+00  0.0000000000000D+00
   327  3.2600000000000D+00  0.0000000000000D+00  0.0000000000000D+00
   328  3.2700000000000D+00  0.0000000000000D+00  0.0000000000000D+00
   329  3.2800000000000D+00  0.0000000000000D+00  0.0000000000000D+00
   330  3.2900000000000D+00  0.0000000000000D+00  0.0000000000000D+00
   331  3.3000000000000D+00  0.0000000000000D+00  0.0000000000000D+00
   332  3.3100000000000D+00  0.0000000000000D+00  0.0000000000000D+00
   333  3.3200000000000D+00  0.0000000000000D+00  0.0000000000000D+00
   334  3.3300000000000D+00  0.0000000000000D+00  0.0000000000000D+00
   335  3.3400000000000D+00  0.0000000000000D+00  0.0000000000000D+00
   336  3.3500000000000D+00  0.0000000000000D+00  0.0000000000000D+00
   337  3.3600000000000D+00  0.0000000000000D+00  0.0000000000000D+00
   338  3.3700000000000D+00  0.0000000000000D+00  0.0000000000000D+00
   339  3.3800000000000D+00  0.0000000000000D+00  0.0000000000000D+00
   340  3.3900000000000D+00  0.0000000000000D+00  0.0000000000000D+00
   341  3.4000000000000D+00  0.0000000000000D+00  0.0000000000000D+00
   342  3.4100000000000D+00  0.0000000000000D+00  0.0000000000000D+00
   343  3.4200000000000D+00  0.0000000000000D+00  0.0000000000000D+00
   344  3.4300000000000D+00  0.0000000000000D+00  0.0000000000000D+00
   345  3.4400000000000D+00  0.0000000000000D+00  0.0000000000000D+00
   346  3.4500000000000D+00  0.0000000000000D+00  0.0000000000000D+00
   347  3.4600000000000D+00  0.0000000000000D+00  0.0000000000000D+00
   348  3.4700000000000D+00  0.0000000000000D+00  0.0000000000000D+00
   349  3.4800000000000D+00  0.0000000000000D+00  0.0000000000000D+00
   350  3.4900000000000D+00  0.0000000000000D+00  0.0000000000000D+00
   351  3.5000000000000D+00  0.0000000000000D+00  0.0000000000000D+00
   352  3.5100000000000D+00  0.0000000000000D+00  0.0000000000000D+00
   353  3.5200000000000D+00  0.0000000000000D+00  0.0000000000000D+00
   354  3.5300000000000D+00  0.0000000000000D+00  0.0000000000000D+00
   355  3.5400000000000D+00  0.0000000000000D+00  0.0000000000000D+00
   356  3.5500000000000D+00  0.0000000000000D+00  0.0000000000000D+00
   357  3.5600000000000D+00  0.0000000000000D+00  0.0000000000000D+00
   358  3.5700000000000D+00  0.0000000000000D+00  0.0000000000000D+00
   359  3.5800000000000D+00  0.0000000000000D+00  0.0000000000000D+00
   360  3.5900000000000D+00  0.0000000000000D+00  0.0000000000000D+00
   361  3.6000000000000D+00  0.0000000000000D+00  0.0000000000000D+00
   362  3.6100000000000D+00  0.0000000000000D+00  0.0000000000000D+00
   363  3.6200000000000D+00  0.0000000000000D+00  0.0000000000000D+00
   364  3.6300000000000D+00  0.0000000000000D+00  0.0000000000000D+00
   365  3.6400000000000D+00  0.0000000000000D+00  0.0000000000000D+00
   366  3.6500000000000D+00  0.0000000000000D+00  0.0000000000000D+00
   367  3.6600000000000D+00  0.0000000000000D+00  0.0000000000000D+00
   368  3.6700000000000D+00  0.0000000000000D+00  0.0000000000000D+00
   369  3.6800000000000D+00  0.0000000000000D+00  0.0000000000000D+00
   370  3.6900000000000D+00  0.0000000000000D+00  0.0000000000000D+00
   371  3.7000000000000D+00  0.0000000000000D+00  0.0000000000000D+00
   372  3.7100000000000D+00  0.0000000000000D+00  0.0000000000000D+00
   373  3.7200000000000D+00  0.0000000000000D+00  0.0000000000000D+00
   374  3.7300000000000D+00  0.0000000000000D+00  0.0000000000000D+00
   375  3.7400000000000D+00  0.0000000000000D+00  0.0000000000000D+00
   376  3.7500000000000D+00  0.0000000000000D+00  0.0000000000000D+00
   377  3.7600000000000D+00  0.0000000000000D+00  0.0000000000000D+00
   378  3.7700000000000D+00  0.0000000000000D+00  0.0000000000000D+00
   379  3.7800000000000D+00  0.0000000000000D+00  0.0000000000000D+00
   380  3.7900000000000D+00  0.0000000000000D+00  0.0000000000000D+00
   381  3.8000000000000D+00  0.0000000000000D+00  0.0000000000000D+00
   382  3.8100000000000D+00  0.0000000000000D+00  0.0000000000000D+00
   383  3.8200000000000D+00  0.0000000000000D+00  0.0000000000000D+00
   384  3.8300000000000D+00  0.0000000000000D+00  0.0000000000000D+00
   385  3.8400000000000D+00  0.0000000000000D+00  0.0000000000000D+00
   386  3.8500000000000D+00  0.0000000000000D+00  0.0000000000000D+00
   387  3.8600000000000D+00  0.0000000000000D+00  0.0000000000000D+00
   388  3.8700000000000D+00  0.0000000000000D+00  0.0000000000000D+00
   389  3.8800000000000D+00  0.0000000000000D+00  0.0000000000000D+00
   390  3.8900000000000D+00  0.0000000000000D+00  0.0000000000000D+00
   391  3.9000000000000D+00  0.0000000000000D+00  0.0000000000000D+00
   392  3.9100000000000D+00  0.0000000000000D+00  0.0000000000000D+00
   393  3.9200000000000D+00  0.0000000000000D+00  0.0000000000000D+00
   394  3.9300000000000D+00  0.0000000000000D+00  0.0000000000000D+00
   395  3.9400000000000D+00  0.0000000000000D+00  0.0000000000000D+00
   396  3.9500000000000D+00  0.0000000000000D+00  0.0000000000000D+00
   397  3.9600000000000D+00  0.0000000000000D+00  0.0000000000000D+00
   398  3.9700000000000D+00  0.0000000000000D+00  0.0000000000000D+00
   399  3.9800000000000D+00  0.0000000000000D+00  0.0000000000000D+00
   400  3.9900000000000D+00  0.0000000000000D+00  0.0000000000000D+00
   401  4.0000000000000D+00  0.0000000000000D+00  0.0000000000000D+00
   402  4.0100000000000D+00  0.0000000000000D+00  0.0000000000000D+00
   403  4.0200000000000D+00  0.0000000000000D+00  0.0000000000000D+00
   404  4.0300000000000D+00  0.0000000000000D+00  0.0000000000000D+00
   405  4.0400000000000D+00  0.0000000000000D+00  0.0000000000000D+00
   406  4.0500000000000D+00  0.0000000000000D+00  0.0000000000000D+00
   407  4.0600000000000D+00  0.0000000000000D+00  0.0000000000000D+00
   408  4.0700000000000D+00  0.0000000000000D+00  0.0000000000000D+00
   409  4.0800000000000D+00  0.0000000000000D+00  0.0000000000000D+00
   410  4.0900000000000D+00  0.0000000000000D+00  0.0000000000000D+00
   411  4.1000000000000D+00  0.0000000000000D+00  0.0000000000000D+00
   412  4.1100000000000D+00  0.0000000000000D+00  0.0000000000000D+00
   413  4.1200000000000D+00  0.0000000000000D+00  0.0000000000000D+00
   414  4.1300000000000D+00  0.0000000000000D+00  0.0000000000000D+00
   415  4.1400000000000D+00  0.0000000000000D+00  0.0000000000000D+00
   416  4.1500000000000D+00  0.0000000000000D+00  0.0000000000000D+00
   417  4.1600000000000D+00  0.0000000000000D+00  0.0000000000000D+00
   418  4.1700000000000D+00  0.0000000000000D+00  0.0000000000000D+00
   419  4.1800000000000D+00  0.0000000000000D+00  0.0000000000000D+00
   420  4.1900000000000D+00  0.0000000000000D+00  0.0000000000000D+00
   421  4.2000000000000D+00  0.0000000000000D+00  0.0000000000000D+00
   422  4.2100000000000D+00  0.0000000000000D+00  0.0000000000000D+00