Ge    ONCVPSP-3.3.1  r_core=   2.66770   2.57393   2.66770
     32.0000     14.0000      210904    zatom,zion,pspd
     8       2   2     4   600     0    pspcod,pspxc,lmax,lloc,mmax,r2well
  5.99000000  0.00000000  0.00000000    rchrg fchrg qchrg
     2     3     2     0    nproj
     3     1           extension_switch
     3     3     0    nprojso
   0                         7.5059351383038D-01  8.4044900284480D+00
     1  0.0000000000000D+00  6.3821448126333D-12 -3.0939140138742D-12
     2  1.0000000000000D-02 -3.1313568384769D-02  4.8901757977780D-02
     3  2.0000000000000D-02 -6.2539988228376D-02  9.7738560262366D-02
     4  3.0000000000000D-02 -9.3592327777466D-02  1.4644557604650D-01
     5  4.0000000000000D-02 -1.2438408827655D-01  1.9495822399877D-01
     6  5.0000000000000D-02 -1.5482941902416D-01  2.4321229626213D-01
     7  6.0000000000000D-02 -1.8484333070219D-01  2.9114408156745D-01
     8  7.0000000000000D-02 -2.1434190641026D-01  3.3869048717059D-01
     9  8.0000000000000D-02 -2.4324250984335D-01  3.8578915932467D-01
    10  9.0000000000000D-02 -2.7146399005893D-01  4.3237860200320D-01
    11  1.0000000000000D-01 -2.9892688228921D-01  4.7839829359410D-01
    12  1.1000000000000D-01 -3.2555360426524D-01  5.2378880129005D-01
    13  1.2000000000000D-01 -3.5126864753200D-01  5.6849189290679D-01
    14  1.3000000000000D-01 -3.7599876324757D-01  6.1245064586752D-01
    15  1.4000000000000D-01 -3.9967314197485D-01  6.5560955309916D-01
    16  1.5000000000000D-01 -4.2222358699107D-01  6.9791462559433D-01
    17  1.6000000000000D-01 -4.4358468065825D-01  7.3931349140147D-01
    18  1.7000000000000D-01 -4.6369394341714D-01  7.7975549081531D-01
    19  1.8000000000000D-01 -4.8249198498799D-01  8.1919176754931D-01
    20  1.9000000000000D-01 -4.9992264738263D-01  8.5757535568286D-01
    21  2.0000000000000D-01 -5.1593313935594D-01  8.9486126218658D-01
    22  2.1000000000000D-01 -5.3047416194784D-01  9.3100654484104D-01
    23  2.2000000000000D-01 -5.4350002479263D-01  9.6597038537620D-01
    24  2.3000000000000D-01 -5.5496875289747D-01  9.9971415767124D-01
    25  2.4000000000000D-01 -5.6484218361907D-01  1.0322014908678D+00
    26  2.5000000000000D-01 -5.7308605359448D-01  1.0633983272627D+00
    27  2.6000000000000D-01 -5.7967007541044D-01  1.0932729748595D+00
    28  2.7000000000000D-01 -5.8456800382391D-01  1.1217961544737D+00
    29  2.8000000000000D-01 -5.8775769137601D-01  1.1489410412991D+00
    30  2.9000000000000D-01 -5.8922113327100D-01  1.1746833008573D+00
    31  3.0000000000000D-01 -5.8894450142201D-01  1.1990011192688D+00
    32  3.1000000000000D-01 -5.8691816759549D-01  1.2218752277975D+00
    33  3.2000000000000D-01 -5.8313671561698D-01  1.2432889216354D+00
    34  3.3000000000000D-01 -5.7759894263089D-01  1.2632280729093D+00
    35  3.4000000000000D-01 -5.7030784943837D-01  1.2816811379081D+00
    36  3.5000000000000D-01 -5.6127061996704D-01  1.2986391585414D+00
    37  3.6000000000000D-01 -5.5049858995720D-01  1.3140957580574D+00
    38  3.7000000000000D-01 -5.3800720497916D-01  1.3280471310626D+00
    39  3.8000000000000D-01 -5.2381596792604D-01  1.3404920278991D+00
    40  3.9000000000000D-01 -5.0794837615565D-01  1.3514317334515D+00
    41  4.0000000000000D-01 -4.9043184848415D-01  1.3608700404704D+00
    42  4.1000000000000D-01 -4.7129764226211D-01  1.3688132175096D+00
    43  4.2000000000000D-01 -4.5058076079135D-01  1.3752699715935D+00
    44  4.3000000000000D-01 -4.2831985136780D-01  1.3802514057401D+00
    45  4.4000000000000D-01 -4.0455709426112D-01  1.3837709714805D+00
    46  4.5000000000000D-01 -3.7933808296755D-01  1.3858444165267D+00
    47  4.6000000000000D-01 -3.5271169609571D-01  1.3864897277547D+00
    48  4.7000000000000D-01 -3.2472996126876D-01  1.3857270696767D+00
    49  4.8000000000000D-01 -2.9544791144745D-01  1.3835787185923D+00
    50  4.9000000000000D-01 -2.6492343409977D-01  1.3800689926170D+00
    51  5.0000000000000D-01 -2.3321711366186D-01  1.3752241777942D+00
    52  5.1000000000000D-01 -2.0039206775303D-01  1.3690724505120D+00
    53  5.2000000000000D-01 -1.6651377762414D-01  1.3616437964473D+00
    54  5.3000000000000D-01 -1.3164991333417D-01  1.3529699262754D+00
    55  5.4000000000000D-01 -9.5870154162869D-02  1.3430841883842D+00
    56  5.5000000000000D-01 -5.9246004780091D-02  1.3320214788430D+00
    57  5.6000000000000D-01 -2.1850607702604D-02  1.3198181488800D+00
    58  5.7000000000000D-01  1.6241447421636D-02  1.3065119101280D+00
    59  5.8000000000000D-01  5.4954317154651D-02  1.2921417379018D+00
    60  5.9000000000000D-01  9.4211099682071D-02  1.2767477727761D+00
    61  6.0000000000000D-01  1.3393403174251D-01  1.2603712207317D+00
    62  6.1000000000000D-01  1.7404468651341D-01  1.2430542521458D+00
    63  6.2000000000000D-01  2.1446417189378D-01  1.2248398998960D+00
    64  6.3000000000000D-01  2.5511332862514D-01  1.2057719568549D+00
    65  6.4000000000000D-01  2.9591292769505D-01  1.1858948730463D+00
    66  6.5000000000000D-01  3.3678386647176D-01  1.1652536527367D+00
    67  6.6000000000000D-01  3.7764736302528D-01  1.1438937517309D+00
    68  6.7000000000000D-01  4.1842514809746D-01  1.1218609751391D+00
    69  6.8000000000000D-01  4.5903965419360D-01  1.0992013758794D+00
    70  6.9000000000000D-01  4.9941420127901D-01  1.0759611541738D+00
    71  7.0000000000000D-01  5.3947317857681D-01  1.0521865582918D+00
    72  7.1000000000000D-01  5.7914222197730D-01  1.0279237867895D+00
    73  7.2000000000000D-01  6.1834838658518D-01  1.0032188924850D+00
    74  7.3000000000000D-01  6.5702031394775D-01  9.7811768840415D-01
    75  7.4000000000000D-01  6.9508839352633D-01  9.5266565592175D-01
    76  7.5000000000000D-01  7.3248491799209D-01  9.2690785531590D-01
    77  7.6000000000000D-01  7.6914423194973D-01  9.0088883894245D-01
    78  7.7000000000000D-01  8.0500287371372D-01  8.7465256722768D-01
    79  7.8000000000000D-01  8.3999970978603D-01  8.4824232766631D-01
    80  7.9000000000000D-01  8.7407606170812D-01  8.2170065700124D-01
    81  8.0000000000000D-01  9.0717582498591D-01  7.9506926674972D-01
    82  8.1000000000000D-01  9.3924557981228D-01  7.6838897222903D-01
    83  8.2000000000000D-01  9.7023469333901D-01  7.4169962522225D-01
    84  8.3000000000000D-01  1.0000954132776D+00  7.1504005041220D-01
    85  8.4000000000000D-01  1.0287829526371D+00  6.8844798569844D-01
    86  8.5000000000000D-01  1.0562555654353D+00  6.6196002649938D-01
    87  8.6000000000000D-01  1.0824746132496D+00  6.3561157412762D-01
    88  8.7000000000000D-01  1.1074046225028D+00  6.0943678831352D-01
    89  8.8000000000000D-01  1.1310133324096D+00  5.8346854393775D-01
    90  8.9000000000000D-01  1.1532717335376D+00  5.5773839202017D-01
    91  9.0000000000000D-01  1.1741540969698D+00  5.3227652499818D-01
    92  9.1000000000000D-01  1.1936379940815D+00  5.0711174631413D-01
    93  9.2000000000000D-01  1.2117043069757D+00  4.8227144431731D-01
    94  9.3000000000000D-01  1.2283372296526D+00  4.5778157047257D-01
    95  9.4000000000000D-01  1.2435242600125D+00  4.3366662185405D-01
    96  9.5000000000000D-01  1.2572561828246D+00  4.0994962788905D-01
    97  9.6000000000000D-01  1.2695270438191D+00  3.8665214130430D-01
    98  9.7000000000000D-01  1.2803341150881D+00  3.6379423321383D-01
    99  9.8000000000000D-01  1.2896778520059D+00  3.4139449227534D-01
   100  9.9000000000000D-01  1.2975618419068D+00  3.1947002782999D-01
   101  1.0000000000000D+00  1.3039927447797D+00  2.9803647692878D-01
   102  1.0100000000000D+00  1.3089802262656D+00  2.7710801513761D-01
   103  1.0200000000000D+00  1.3125368832624D+00  2.5669737100257D-01
   104  1.0300000000000D+00  1.3146781624663D+00  2.3681584404652D-01
   105  1.0400000000000D+00  1.3154222721961D+00  2.1747332615897D-01
   106  1.0500000000000D+00  1.3147900878650D+00  1.9867832623182D-01
   107  1.0600000000000D+00  1.3128050514848D+00  1.8043799788561D-01
   108  1.0700000000000D+00  1.3094930655962D+00  1.6275817012307D-01
   109  1.0800000000000D+00  1.3048823820411D+00  1.4564338073988D-01
   110  1.0900000000000D+00  1.2990034859986D+00  1.2909691231600D-01
   111  1.1000000000000D+00  1.2918889757204D+00  1.1312083060567D-01
   112  1.1100000000000D+00  1.2835734384099D+00  9.7716025139292D-02
   113  1.1200000000000D+00  1.2740933226959D+00  8.2882251846291D-02
   114  1.1300000000000D+00  1.2634868081605D+00  6.8618177504683D-02
   115  1.1400000000000D+00  1.2517936723803D+00  5.4921425820476D-02
   116  1.1500000000000D+00  1.2390551559472D+00  4.1788624938500D-02
   117  1.1600000000000D+00  1.2253138259330D+00  2.9215456185045D-02
   118  1.1700000000000D+00  1.2106134382630D+00  1.7196703842306D-02
   119  1.1800000000000D+00  1.1949987994588D+00  5.7263057554671D-03
   120  1.1900000000000D+00  1.1785156282089D+00 -5.2025954254848D-03
   121  1.2000000000000D+00  1.1612104172187D+00 -1.5597600565802D-02
   122  1.2100000000000D+00  1.1431302957855D+00 -2.5467002120950D-02
   123  1.2200000000000D+00  1.1243228935286D+00 -3.4819732155517D-02
   124  1.2300000000000D+00  1.1048362057079D+00 -4.3665310493639D-02
   125  1.2400000000000D+00  1.0847184605373D+00 -5.2013793180779D-02
   126  1.2500000000000D+00  1.0640179888926D+00 -5.9875721431466D-02
   127  1.2600000000000D+00  1.0427830968036D+00 -6.7262071234442D-02
   128  1.2700000000000D+00  1.0210619410967D+00 -7.4184203777574D-02
   129  1.2800000000000D+00  9.9890240853525D-01 -8.0653816845782D-02
   130  1.2900000000000D+00  9.7635199879892D-01 -8.6682897343227D-02
   131  1.3000000000000D+00  9.5345771161424D-01 -9.2283675078970D-02
   132  1.3100000000000D+00  9.3026593832046D-01 -9.7468577942992D-02
   133  1.3200000000000D+00  9.0682235815804D-01 -1.0225018860106D-01
   134  1.3300000000000D+00  8.8317183952376D-01 -1.0664120281843D-01
   135  1.3400000000000D+00  8.5935834640674D-01 -1.1065438950955D-01
   136  1.3500000000000D+00  8.3542485023872D-01 -1.1430255261946D-01
   137  1.3600000000000D+00  8.1141324731211D-01 -1.1759849490792D-01
   138  1.3700000000000D+00  7.8736428192687D-01 -1.2055498371095D-01
   139  1.3800000000000D+00  7.6331747541896D-01 -1.2318471875077D-01
   140  1.3900000000000D+00  7.3931106113969D-01 -1.2550030202928D-01
   141  1.4000000000000D+00  7.1538192550153D-01 -1.2751420986024D-01
   142  1.4100000000000D+00  6.9156555513405D-01 -1.2923876706446D-01
   143  1.4200000000000D+00  6.6789599016158D-01 -1.3068612333858D-01
   144  1.4300000000000D+00  6.4440578365900D-01 -1.3186823182716D-01
   145  1.4400000000000D+00  6.2112596720610D-01 -1.3279682986989D-01
   146  1.4500000000000D+00  5.9808602255080D-01 -1.3348342193406D-01
   147  1.4600000000000D+00  5.7531385929039D-01 -1.3393926469913D-01
   148  1.4700000000000D+00  5.5283579847236D-01 -1.3417535425763D-01
   149  1.4800000000000D+00  5.3067656204931D-01 -1.3420241540987D-01
   150  1.4900000000000D+00  5.0885926798254D-01 -1.3403089297154D-01
   151  1.5000000000000D+00  4.8740543092606D-01 -1.3367094507075D-01
   152  1.5100000000000D+00  4.6633496823870D-01 -1.3313243833379D-01
   153  1.5200000000000D+00  4.4566621118863D-01 -1.3242494490798D-01
   154  1.5300000000000D+00  4.2541592111187D-01 -1.3155774122705D-01
   155  1.5400000000000D+00  4.0559931029630D-01 -1.3053980842896D-01
   156  1.5500000000000D+00  3.8623006737554D-01 -1.2937983434077D-01
   157  1.5600000000000D+00  3.6732038692476D-01 -1.2808621690892D-01
   158  1.5700000000000D+00  3.4888100305499D-01 -1.2666706899361D-01
   159  1.5800000000000D+00  3.3092122664525D-01 -1.2513022438567D-01
   160  1.5900000000000D+00  3.1344898599815D-01 -1.2348324495957D-01
   161  1.6000000000000D+00  2.9647087054340D-01 -1.2173342881612D-01
   162  1.6100000000000D+00  2.7999217733878D-01 -1.1988781931423D-01
   163  1.6200000000000D+00  2.6401696000441D-01 -1.1795321485062D-01
   164  1.6300000000000D+00  2.4854807980264D-01 -1.1593617927292D-01
   165  1.6400000000000D+00  2.3358725851235D-01 -1.1384305279074D-01
   166  1.6500000000000D+00  2.1913513278743D-01 -1.1167996326278D-01
   167  1.6600000000000D+00  2.0519130965702D-01 -1.0945283772863D-01
   168  1.6700000000000D+00  1.9175442284929D-01 -1.0716741406192D-01
   169  1.6800000000000D+00  1.7882218960355D-01 -1.0482925261739D-01
   170  1.6900000000000D+00  1.6639146765547D-01 -1.0244374775146D-01
   171  1.7000000000000D+00  1.5445831206943D-01 -1.0001613909394D-01
   172  1.7100000000000D+00  1.4301803161183D-01 -9.7551522455746D-02
   173  1.7200000000000D+00  1.3206524435655D-01 -9.5054860259183D-02
   174  1.7300000000000D+00  1.2159393222382D-01 -9.2530991379643D-02
   175  1.7400000000000D+00  1.1159749417676D-01 -8.9984640301483D-02
   176  1.7500000000000D+00  1.0206879777305D-01 -8.7420425475650D-02
   177  1.7600000000000D+00  9.3000228854525D-02 -8.4842866809368D-02
   178  1.7700000000000D+00  8.4383739046376D-02 -8.2256392164040D-02
   179  1.7800000000000D+00  7.6210890942576D-02 -7.9665342834850D-02
   180  1.7900000000000D+00  6.8472900590960D-02 -7.7073977862383D-02
   181  1.8000000000000D+00  6.1160677292226D-02 -7.4486477211703D-02
   182  1.8100000000000D+00  5.4264860227488D-02 -7.1906943626038D-02
   183  1.8200000000000D+00  4.7775852111146D-02 -6.9339403270872D-02
   184  1.8300000000000D+00  4.1683849267240D-02 -6.6787804926047D-02
   185  1.8400000000000D+00  3.5978868474847D-02 -6.4256017905049D-02
   186  1.8500000000000D+00  3.0650769974629D-02 -6.1747828459734D-02
   187  1.8600000000000D+00  2.5689276976281D-02 -5.9266934843733D-02
   188  1.8700000000000D+00  2.1083991216701D-02 -5.6816940864900D-02
   189  1.8800000000000D+00  1.6824404759126D-02 -5.4401348032515D-02
   190  1.8900000000000D+00  1.2899907863931D-02 -5.2023546252337D-02
   191  1.9000000000000D+00  9.2997928671512D-03 -4.9686803066017D-02
   192  1.9100000000000D+00  6.0132542686027D-03 -4.7394251544205D-02
   193  1.9200000000000D+00  3.0293846418058D-03 -4.5148876696686D-02
   194  1.9300000000000D+00  3.3716696191024D-04 -4.2953500668119D-02
   195  1.9400000000000D+00 -2.0745372779801D-03 -4.0810766489003D-02
   196  1.9500000000000D+00 -4.2170034419606D-03 -3.8723120694872D-02
   197  1.9600000000000D+00 -6.1016630473085D-03 -3.6692794669513D-02
   198  1.9700000000000D+00 -7.7401265989104D-03 -3.4721784886192D-02
   199  1.9800000000000D+00 -9.1442099821448D-03 -3.2811832069785D-02
   200  1.9900000000000D+00 -1.0325968195552D-02 -3.0964397980416D-02
   201  2.0000000000000D+00 -1.1297709601760D-02 -2.9180649246611D-02
   202  2.0100000000000D+00 -1.2072084788035D-02 -2.7461415132354D-02
   203  2.0200000000000D+00 -1.2662022908432D-02 -2.5807199946645D-02
   204  2.0300000000000D+00 -1.3080822519524D-02 -2.4218140148797D-02
   205  2.0400000000000D+00 -1.3342295429354D-02 -2.2693943648664D-02
   206  2.0500000000000D+00 -1.3460927165687D-02 -2.1233825422301D-02
   207  2.0600000000000D+00 -1.3451341906673D-02 -1.9836685265473D-02
   208  2.0700000000000D+00 -1.3328083897964D-02 -1.8501172100787D-02
   209  2.0800000000000D+00 -1.3105348373670D-02 -1.7225779689991D-02
   210  2.0900000000000D+00 -1.2796599416979D-02 -1.6008981081798D-02
   211  2.1000000000000D+00 -1.2414253930570D-02 -1.4849341301204D-02
   212  2.1100000000000D+00 -1.1969903695598D-02 -1.3745442990911D-02
   213  2.1200000000000D+00 -1.1474442729480D-02 -1.2695849347825D-02
   214  2.1300000000000D+00 -1.0937960077984D-02 -1.1699144436595D-02
   215  2.1400000000000D+00 -1.0369768054005D-02 -1.0753928516071D-02
   216  2.1500000000000D+00 -9.7784397878753D-03 -9.8588105537759D-03
   217  2.1600000000000D+00 -9.1718131441550D-03 -9.0124125551243D-03
   218  2.1700000000000D+00 -8.5570154308608D-03 -8.2133670907239D-03
   219  2.1800000000000D+00 -7.9404856269896D-03 -7.4603160572735D-03
   220  2.1900000000000D+00 -7.3279980617328D-03 -6.7519092729857D-03
   221  2.2000000000000D+00 -6.7246874054760D-03 -6.0868029447234D-03
   222  2.2100000000000D+00 -6.1350746524916D-03 -5.4636581792988D-03
   223  2.2200000000000D+00 -5.5630941923950D-03 -4.8811394008682D-03
   224  2.2300000000000D+00 -5.0121215898390D-03 -4.3379128749124D-03
   225  2.2400000000000D+00 -4.4850019605024D-03 -3.8326453531441D-03
   226  2.2500000000000D+00 -3.9840790616341D-03 -3.3640027192570D-03
   227  2.2600000000000D+00 -3.5112244601720D-03 -2.9306489663127D-03
   228  2.2700000000000D+00 -3.0678671073490D-03 -2.5312452672582D-03
   229  2.2800000000000D+00 -2.6550230695094D-03 -2.1644492403844D-03
   230  2.2900000000000D+00 -2.2733249890885D-03 -1.8289146004637D-03
   231  2.3000000000000D+00 -1.9230517069360D-03 -1.5232909225994D-03
   232  2.3100000000000D+00 -1.6041574939953D-03 -1.2462237720236D-03
   233  2.3200000000000D+00 -1.3163008425787D-03 -9.9635518537748D-04
   234  2.3300000000000D+00 -1.0588731568676D-03 -7.7232429727826D-04
   235  2.3400000000000D+00 -8.3102657761844D-04 -5.7276845411551D-04
   236  2.3500000000000D+00 -6.3170130709415D-04 -3.9632459881023D-04
   237  2.3600000000000D+00 -4.5965255988521D-04 -2.4163083843608D-04
   238  2.3700000000000D+00 -3.1347630604404D-04 -1.0732854471476D-04
   239  2.3800000000000D+00 -1.9163454467275D-04  7.9353841166847D-06
   240  2.3900000000000D+00 -9.2479817297753D-05  1.0550599714391D-04
   241  2.4000000000000D+00 -1.4278504329677D-05  1.8671734066058D-04
   242  2.4100000000000D+00  4.4766471927990D-05  2.5288937620445D-04
   243  2.4200000000000D+00  8.6493932280208D-05  3.0532463512580D-04
   244  2.4300000000000D+00  1.1276390342377D-04  3.4530457160321D-04
   245  2.4400000000000D+00  1.2543777369677D-04  3.7408581992021D-04
   246  2.4500000000000D+00  1.2635956615918D-04  3.9289623856959D-04
   247  2.4600000000000D+00  1.1733832040145D-04  4.0293077848700D-04
   248  2.4700000000000D+00  1.0013124180899D-04  4.0534729757597D-04
   249  2.4800000000000D+00  7.6428001424574D-05  4.0126225622795D-04
   250  2.4900000000000D+00  4.7836067563485D-05  3.9174635536642D-04
   251  2.5000000000000D+00  1.5866854857219D-05  3.7782016724390D-04
   252  2.5100000000000D+00 -1.8077024002526D-05  3.6044977295438D-04
   253  2.5200000000000D+00 -5.2713547711472D-05  3.4054244900589D-04
   254  2.5300000000000D+00 -8.6892230368587D-05  3.1894239501643D-04
   255  2.5400000000000D+00 -1.1960406708688D-04  2.9642660771571D-04
   256  2.5500000000000D+00 -1.4999058698881D-04  2.7370089958191D-04
   257  2.5600000000000D+00 -1.7735205153540D-04  2.5139600613485D-04
   258  2.5700000000000D+00 -2.0115478221992D-04  2.3006397095625D-04
   259  2.5800000000000D+00 -2.2135250363598D-04  2.1032477211458D-04
   260  2.5900000000000D+00 -2.3740281673788D-04  1.9239178249298D-04
   261  2.6000000000000D+00 -2.4881124154572D-04  1.7632577524787D-04
   262  2.6100000000000D+00 -2.5397418962549D-04  1.6141885992053D-04
   263  2.6200000000000D+00 -2.5538529198481D-04  1.4884295403626D-04
   264  2.6300000000000D+00 -2.5826056233038D-04  1.4095202274370D-04
   265  2.6400000000000D+00 -2.6814511733996D-04  1.4013104425421D-04
   266  2.6500000000000D+00 -2.8130702880781D-04  1.4381498617905D-04
   267  2.6600000000000D+00 -2.7741963066787D-04  1.4072713741274D-04
   268  2.6700000000000D+00 -2.4075768104120D-04  1.2198276445788D-04
   269  2.6800000000000D+00 -1.6142004616121D-04  8.1775828835106D-05
   270  2.6900000000000D+00 -7.2892962293687D-05  3.6956169641080D-05
   271  2.7000000000000D+00  1.1667408541329D-06 -5.8938675153352D-07
   272  2.7100000000000D+00  2.5507483209181D-05 -1.2883139253319D-05
   273  2.7200000000000D+00  2.2368964642916D-05 -1.1297415147141D-05
   274  2.7300000000000D+00  4.3072340109811D-06 -2.1754029448909D-06
   275  2.7400000000000D+00 -4.6844849495411D-06  2.3611754741256D-06
   276  2.7500000000000D+00 -5.8779573912906D-06  2.9620368051003D-06
   277  2.7600000000000D+00 -2.4852688391295D-06  1.2521339165671D-06
   278  2.7700000000000D+00  3.7918621250087D-07 -1.9217051131616D-07
   279  2.7800000000000D+00  7.2256032870754D-07 -3.6619155245308D-07
   280  2.7900000000000D+00  4.7629280892217D-07 -2.4138386262283D-07
   281  2.8000000000000D+00  0.0000000000000D+00  0.0000000000000D+00
   282  2.8100000000000D+00  0.0000000000000D+00  0.0000000000000D+00
   283  2.8200000000000D+00  0.0000000000000D+00  0.0000000000000D+00
   284  2.8300000000000D+00  0.0000000000000D+00  0.0000000000000D+00
   285  2.8400000000000D+00  0.0000000000000D+00  0.0000000000000D+00
   286  2.8500000000000D+00  0.0000000000000D+00  0.0000000000000D+00
   287  2.8600000000000D+00  0.0000000000000D+00  0.0000000000000D+00
   288  2.8700000000000D+00  0.0000000000000D+00  0.0000000000000D+00
   289  2.8800000000000D+00  0.0000000000000D+00  0.0000000000000D+00
   290  2.8900000000000D+00  0.0000000000000D+00  0.0000000000000D+00
   291  2.9000000000000D+00  0.0000000000000D+00  0.0000000000000D+00
   292  2.9100000000000D+00  0.0000000000000D+00  0.0000000000000D+00
   293  2.9200000000000D+00  0.0000000000000D+00  0.0000000000000D+00
   294  2.9300000000000D+00  0.0000000000000D+00  0.0000000000000D+00
   295  2.9400000000000D+00  0.0000000000000D+00  0.0000000000000D+00
   296  2.9500000000000D+00  0.0000000000000D+00  0.0000000000000D+00
   297  2.9600000000000D+00  0.0000000000000D+00  0.0000000000000D+00
   298  2.9700000000000D+00  0.0000000000000D+00  0.0000000000000D+00
   299  2.9800000000000D+00  0.0000000000000D+00  0.0000000000000D+00
   300  2.9900000000000D+00  0.0000000000000D+00  0.0000000000000D+00
   301  3.0000000000000D+00  0.0000000000000D+00  0.0000000000000D+00
   302  3.0100000000000D+00  0.0000000000000D+00  0.0000000000000D+00
   303  3.0200000000000D+00  0.0000000000000D+00  0.0000000000000D+00
   304  3.0300000000000D+00  0.0000000000000D+00  0.0000000000000D+00
   305  3.0400000000000D+00  0.0000000000000D+00  0.0000000000000D+00
   306  3.0500000000000D+00  0.0000000000000D+00  0.0000000000000D+00
   307  3.0600000000000D+00  0.0000000000000D+00  0.0000000000000D+00
   308  3.0700000000000D+00  0.0000000000000D+00  0.0000000000000D+00
   309  3.0800000000000D+00  0.0000000000000D+00  0.0000000000000D+00
   310  3.0900000000000D+00  0.0000000000000D+00  0.0000000000000D+00
   311  3.1000000000000D+00  0.0000000000000D+00  0.0000000000000D+00
   312  3.1100000000000D+00  0.0000000000000D+00  0.0000000000000D+00
   313  3.1200000000000D+00  0.0000000000000D+00  0.0000000000000D+00
   314  3.1300000000000D+00  0.0000000000000D+00  0.0000000000000D+00
   315  3.1400000000000D+00  0.0000000000000D+00  0.0000000000000D+00
   316  3.1500000000000D+00  0.0000000000000D+00  0.0000000000000D+00
   317  3.1600000000000D+00  0.0000000000000D+00  0.0000000000000D+00
   318  3.1700000000000D+00  0.0000000000000D+00  0.0000000000000D+00
   319  3.1800000000000D+00  0.0000000000000D+00  0.0000000000000D+00
   320  3.1900000000000D+00  0.0000000000000D+00  0.0000000000000D+00
   321  3.2000000000000D+00  0.0000000000000D+00  0.0000000000000D+00
   322  3.2100000000000D+00  0.0000000000000D+00  0.0000000000000D+00
   323  3.2200000000000D+00  0.0000000000000D+00  0.0000000000000D+00
   324  3.2300000000000D+00  0.0000000000000D+00  0.0000000000000D+00
   325  3.2400000000000D+00  0.0000000000000D+00  0.0000000000000D+00
   326  3.2500000000000D+00  0.0000000000000D+00  0.0000000000000D+00
   327  3.2600000000000D+00  0.0000000000000D+00  0.0000000000000D+00
   328  3.2700000000000D+00  0.0000000000000D+00  0.0000000000000D+00
   329  3.2800000000000D+00  0.0000000000000D+00  0.0000000000000D+00
   330  3.2900000000000D+00  0.0000000000000D+00  0.0000000000000D+00
   331  3.3000000000000D+00  0.0000000000000D+00  0.0000000000000D+00
   332  3.3100000000000D+00  0.0000000000000D+00  0.0000000000000D+00
   333  3.3200000000000D+00  0.0000000000000D+00  0.0000000000000D+00
   334  3.3300000000000D+00  0.0000000000000D+00  0.0000000000000D+00
   335  3.3400000000000D+00  0.0000000000000D+00  0.0000000000000D+00
   336  3.3500000000000D+00  0.0000000000000D+00  0.0000000000000D+00
   337  3.3600000000000D+00  0.0000000000000D+00  0.0000000000000D+00
   338  3.3700000000000D+00  0.0000000000000D+00  0.0000000000000D+00
   339  3.3800000000000D+00  0.0000000000000D+00  0.0000000000000D+00
   340  3.3900000000000D+00  0.0000000000000D+00  0.0000000000000D+00
   341  3.4000000000000D+00  0.0000000000000D+00  0.0000000000000D+00
   342  3.4100000000000D+00  0.0000000000000D+00  0.0000000000000D+00
   343  3.4200000000000D+00  0.0000000000000D+00  0.0000000000000D+00
   344  3.4300000000000D+00  0.0000000000000D+00  0.0000000000000D+00
   345  3.4400000000000D+00  0.0000000000000D+00  0.0000000000000D+00
   346  3.4500000000000D+00  0.0000000000000D+00  0.0000000000000D+00
   347  3.4600000000000D+00  0.0000000000000D+00  0.0000000000000D+00
   348  3.4700000000000D+00  0.0000000000000D+00  0.0000000000000D+00
   349  3.4800000000000D+00  0.0000000000000D+00  0.0000000000000D+00
   350  3.4900000000000D+00  0.0000000000000D+00  0.0000000000000D+00
   351  3.5000000000000D+00  0.0000000000000D+00  0.0000000000000D+00
   352  3.5100000000000D+00  0.0000000000000D+00  0.0000000000000D+00
   353  3.5200000000000D+00  0.0000000000000D+00  0.0000000000000D+00
   354  3.5300000000000D+00  0.0000000000000D+00  0.0000000000000D+00
   355  3.5400000000000D+00  0.0000000000000D+00  0.0000000000000D+00
   356  3.5500000000000D+00  0.0000000000000D+00  0.0000000000000D+00
   357  3.5600000000000D+00  0.0000000000000D+00  0.0000000000000D+00
   358  3.5700000000000D+00  0.0000000000000D+00  0.0000000000000D+00
   359  3.5800000000000D+00  0.0000000000000D+00  0.0000000000000D+00
   360  3.5900000000000D+00  0.0000000000000D+00  0.0000000000000D+00
   361  3.6000000000000D+00  0.0000000000000D+00  0.0000000000000D+00
   362  3.6100000000000D+00  0.0000000000000D+00  0.0000000000000D+00
   363  3.6200000000000D+00  0.0000000000000D+00  0.0000000000000D+00
   364  3.6300000000000D+00  0.0000000000000D+00  0.0000000000000D+00
   365  3.6400000000000D+00  0.0000000000000D+00  0.0000000000000D+00
   366  3.6500000000000D+00  0.0000000000000D+00  0.0000000000000D+00
   367  3.6600000000000D+00  0.0000000000000D+00  0.0000000000000D+00
   368  3.6700000000000D+00  0.0000000000000D+00  0.0000000000000D+00
   369  3.6800000000000D+00  0.0000000000000D+00  0.0000000000000D+00
   370  3.6900000000000D+00  0.0000000000000D+00  0.0000000000000D+00
   371  3.7000000000000D+00  0.0000000000000D+00  0.0000000000000D+00
   372  3.7100000000000D+00  0.0000000000000D+00  0.0000000000000D+00
   373  3.7200000000000D+00  0.0000000000000D+00  0.0000000000000D+00
   374  3.7300000000000D+00  0.0000000000000D+00  0.0000000000000D+00
   375  3.7400000000000D+00  0.0000000000000D+00  0.0000000000000D+00
   376  3.7500000000000D+00  0.0000000000000D+00  0.0000000000000D+00
   377  3.7600000000000D+00  0.0000000000000D+00  0.0000000000000D+00
   378  3.7700000000000D+00  0.0000000000000D+00  0.0000000000000D+00
   379  3.7800000000000D+00  0.0000000000000D+00  0.0000000000000D+00
   380  3.7900000000000D+00  0.0000000000000D+00  0.0000000000000D+00
   381  3.8000000000000D+00  0.0000000000000D+00  0.0000000000000D+00
   382  3.8100000000000D+00  0.0000000000000D+00  0.0000000000000D+00
   383  3.8200000000000D+00  0.0000000000000D+00  0.0000000000000D+00
   384  3.8300000000000D+00  0.0000000000000D+00  0.0000000000000D+00
   385  3.8400000000000D+00  0.0000000000000D+00  0.0000000000000D+00
   386  3.8500000000000D+00  0.0000000000000D+00  0.0000000000000D+00
   387  3.8600000000000D+00  0.0000000000000D+00  0.0000000000000D+00
   388  3.8700000000000D+00  0.0000000000000D+00  0.0000000000000D+00
   389  3.8800000000000D+00  0.0000000000000D+00  0.0000000000000D+00
   390  3.8900000000000D+00  0.0000000000000D+00  0.0000000000000D+00
   391  3.9000000000000D+00  0.0000000000000D+00  0.0000000000000D+00
   392  3.9100000000000D+00  0.0000000000000D+00  0.0000000000000D+00
   393  3.9200000000000D+00  0.0000000000000D+00  0.0000000000000D+00
   394  3.9300000000000D+00  0.0000000000000D+00  0.0000000000000D+00
   395  3.9400000000000D+00  0.0000000000000D+00  0.0000000000000D+00
   396  3.9500000000000D+00  0.0000000000000D+00  0.0000000000000D+00
   397  3.9600000000000D+00  0.0000000000000D+00  0.0000000000000D+00
   398  3.9700000000000D+00  0.0000000000000D+00  0.0000000000000D+00
   399  3.9800000000000D+00  0.0000000000000D+00  0.0000000000000D+00
   400  3.9900000000000D+00  0.0000000000000D+00  0.0000000000000D+00
   401  4.0000000000000D+00  0.0000000000000D+00  0.0000000000000D+00
   402  4.0100000000000D+00  0.0000000000000D+00  0.0000000000000D+00
   403  4.0200000000000D+00  0.0000000000000D+00  0.0000000000000D+00
   404  4.0300000000000D+00  0.0000000000000D+00  0.0000000000000D+00
   405  4.0400000000000D+00  0.0000000000000D+00  0.0000000000000D+00
   406  4.0500000000000D+00  0.0000000000000D+00  0.0000000000000D+00
   407  4.0600000000000D+00  0.0000000000000D+00  0.0000000000000D+00
   408  4.0700000000000D+00  0.0000000000000D+00  0.0000000000000D+00
   409  4.0800000000000D+00  0.0000000000000D+00  0.0000000000000D+00
   410  4.0900000000000D+00  0.0000000000000D+00  0.0000000000000D+00
   411  4.1000000000000D+00  0.0000000000000D+00  0.0000000000000D+00
   412  4.1100000000000D+00  0.0000000000000D+00  0.0000000000000D+00
   413  4.1200000000000D+00  0.0000000000000D+00  0.0000000000000D+00
   414  4.1300000000000D+00  0.0000000000000D+00  0.0000000000000D+00
   415  4.1400000000000D+00  0.0000000000000D+00  0.0000000000000D+00
   416  4.1500000000000D+00  0.0000000000000D+00  0.0000000000000D+00
   417  4.1600000000000D+00  0.0000000000000D+00  0.0000000000000D+00
   418  4.1700000000000D+00  0.0000000000000D+00  0.0000000000000D+00
   419  4.1800000000000D+00  0.0000000000000D+00  0.0000000000000D+00
   420  4.1900000000000D+00  0.0000000000000D+00  0.0000000000000D+00
   421  4.2000000000000D+00  0.0000000000000D+00  0.0000000000000D+00
   422  4.2100000000000D+00  0.0000000000000D+00  0.0000000000000D+00