He    ONCVPSP-3.3.1  r_core=   2.01394
      2.0000      2.0000      210904    zatom,zion,pspd
     8       2   0     4   600     0    pspcod,pspxc,lmax,lloc,mmax,r2well
  5.99000000  0.00000000  0.00000000    rchrg fchrg qchrg
     2     0     0     0    nproj
     3     1           extension_switch
     0     0     0    nprojso
   0                        -1.7399843906012D+00 -6.2622512976950D-01
     1  0.0000000000000D+00  8.0728368434535D-11 -9.4027674535369D-11
     2  1.0000000000000D-02  5.3468716143623D-02 -1.1574769571036D-02
     3  2.0000000000000D-02  1.0689049572288D-01 -2.3111901363080D-02
     4  3.0000000000000D-02  1.6021817713550D-01 -3.4573568731320D-02
     5  4.0000000000000D-02  2.1340415138895D-01 -4.5921570164726D-02
     6  5.0000000000000D-02  2.6640014509882D-01 -5.7117148992572D-02
     7  6.0000000000000D-02  3.1915701146206D-01 -6.8120821591768D-02
     8  7.0000000000000D-02  3.7162453176827D-01 -7.8892216817778D-02
     9  8.0000000000000D-02  4.2375122993145D-01 -8.9389929287935D-02
    10  9.0000000000000D-02  4.7548420242489D-01 -9.9571389029630D-02
    11  1.0000000000000D-01  5.2676896588329D-01 -1.0939274986804D-01
    12  1.1000000000000D-01  5.7754932450023D-01 -1.1880879876964D-01
    13  1.2000000000000D-01  6.2776725919619D-01 -1.2777288817985D-01
    14  1.3000000000000D-01  6.7736284036351D-01 -1.3623689319708D-01
    15  1.4000000000000D-01  7.2627416581163D-01 -1.4415119521214D-01
    16  1.5000000000000D-01  7.7443732533876D-01 -1.5146469341373D-01
    17  1.6000000000000D-01  8.2178639314784D-01 -1.5812484531803D-01
    18  1.7000000000000D-01  8.6825344910465D-01 -1.6407773722605D-01
    19  1.8000000000000D-01  9.1376862960764D-01 -1.6926818524748D-01
    20  1.9000000000000D-01  9.5826020860274D-01 -1.7363986725614D-01
    21  2.0000000000000D-01  1.0016547090340D+00 -1.7713548586258D-01
    22  2.1000000000000D-01  1.0438770447747D+00 -1.7969696220446D-01
    23  2.2000000000000D-01  1.0848506928341D+00 -1.8126566006902D-01
    24  2.3000000000000D-01  1.1244978953862D+00 -1.8178263957419D-01
    25  2.4000000000000D-01  1.1627398909153D+00 -1.8118893934997D-01
    26  2.5000000000000D-01  1.1994971735313D+00 -1.7942588587988D-01
    27  2.6000000000000D-01  1.2346897792608D+00 -1.7643542838739D-01
    28  2.7000000000000D-01  1.2682375978888D+00 -1.7216049738461D-01
    29  2.8000000000000D-01  1.3000607086958D+00 -1.6654538474436D-01
    30  2.9000000000000D-01  1.3300797382178D+00 -1.5953614291169D-01
    31  3.0000000000000D-01  1.3582162379503D+00 -1.5108100064141D-01
    32  3.1000000000000D-01  1.3843930797238D+00 -1.4113079243409D-01
    33  3.2000000000000D-01  1.4085348662967D+00 -1.2963939864722D-01
    34  3.3000000000000D-01  1.4305683545517D+00 -1.1656419308259D-01
    35  3.4000000000000D-01  1.4504228885300D+00 -1.0186649469599D-01
    36  3.5000000000000D-01  1.4680308394133D+00 -8.5512019943801D-02
    37  3.6000000000000D-01  1.4833280494518D+00 -6.7471332173325D-02
    38  3.7000000000000D-01  1.4962542767483D+00 -4.7720284381305D-02
    39  3.8000000000000D-01  1.5067536377399D+00 -2.6240451608960D-02
    40  3.9000000000000D-01  1.5147750441730D+00 -3.0195492127287D-03
    41  4.0000000000000D-01  1.5202726313435D+00  2.1948166751697D-02
    42  4.1000000000000D-01  1.5232061743717D+00  4.8661520767768D-02
    43  4.2000000000000D-01  1.5235414893036D+00  7.7112064400060D-02
    44  4.3000000000000D-01  1.5212508158744D+00  1.0728375173817D-01
    45  4.4000000000000D-01  1.5163131788378D+00  1.3915264722979D-01
    46  4.5000000000000D-01  1.5087147248511D+00  1.7268666925220D-01
    47  4.6000000000000D-01  1.4984490320234D+00  2.0784537260605D-01
    48  4.7000000000000D-01  1.4855173893600D+00  2.4457977292453D-01
    49  4.8000000000000D-01  1.4699290434960D+00  2.8283221577511D-01
    50  4.9000000000000D-01  1.4517014102803D+00  3.2253629299172D-01
    51  5.0000000000000D-01  1.4308602489659D+00  3.6361680851436D-01
    52  5.1000000000000D-01  1.4074397969696D+00  4.0598979573155D-01
    53  5.2000000000000D-01  1.3814828633899D+00  4.4956258802150D-01
    54  5.3000000000000D-01  1.3530408797097D+00  4.9423394387220D-01
    55  5.4000000000000D-01  1.3221739063637D+00  5.3989422763113D-01
    56  5.5000000000000D-01  1.2889505941120D+00  5.8642564659372D-01
    57  5.6000000000000D-01  1.2534480994324D+00  6.3370254479029D-01
    58  5.7000000000000D-01  1.2157519534241D+00  6.8159175347435D-01
    59  5.8000000000000D-01  1.1759558839984D+00  7.2995299795551D-01
    60  5.9000000000000D-01  1.1341615914177D+00  7.7863936005961D-01
    61  6.0000000000000D-01  1.0904784775330D+00  8.2749779514060D-01
    62  6.1000000000000D-01  1.0450233293556D+00  8.7636970221438D-01
    63  6.2000000000000D-01  9.9791995788063D-01  9.2509154544105D-01
    64  6.3000000000000D-01  9.4929879335637D-01  9.7349552484557D-01
    65  6.4000000000000D-01  8.9929643846489D-01  1.0214102938475D+00
    66  6.5000000000000D-01  8.4805518113454D-01  1.0686617208656D+00
    67  6.6000000000000D-01  7.9572246895496D-01  1.1150736919762D+00
    68  6.7000000000000D-01  7.4245034739661D-01  1.1604689513447D+00
    69  6.8000000000000D-01  6.8839486425441D-01  1.2046699759036D+00
    70  6.9000000000000D-01  6.3371544293490D-01  1.2474998805443D+00
    71  7.0000000000000D-01  5.7857422738655D-01  1.2887833498981D+00
    72  7.1000000000000D-01  5.2313540163207D-01  1.3283475926330D+00
    73  7.2000000000000D-01  4.6756448700027D-01  1.3660233140643D+00
    74  7.3000000000000D-01  4.1202762026853D-01  1.4016457027927D+00
    75  7.4000000000000D-01  3.5669081601777D-01  1.4350554270213D+00
    76  7.5000000000000D-01  3.0171921656684D-01  1.4660996361896D+00
    77  7.6000000000000D-01  2.4727633289326D-01  1.4946329635702D+00
    78  7.7000000000000D-01  1.9352327996069D-01  1.5205185255298D+00
    79  7.8000000000000D-01  1.4061800986138D-01  1.5436289132393D+00
    80  7.9000000000000D-01  8.8714546143224D-02  1.5638471727405D+00
    81  8.0000000000000D-01  3.7962222626565D-02  1.5810677694317D+00
    82  8.1000000000000D-01 -1.1495070073753D-02  1.5951975332261D+00
    83  8.2000000000000D-01 -5.9519627220219D-02  1.6061565808560D+00
    84  8.3000000000000D-01 -1.0598065885589D-01  1.6138792120491D+00
    85  8.4000000000000D-01 -1.5075500213763D-01  1.6183147765851D+00
    86  8.5000000000000D-01 -1.9372781448062D-01  1.6194285095454D+00
    87  8.6000000000000D-01 -2.3479324509781D-01  1.6172023324021D+00
    88  8.7000000000000D-01 -2.7385508289144D-01  1.6116356190722D+00
    89  8.8000000000000D-01 -3.1082737886097D-01  1.6027459247984D+00
    90  8.9000000000000D-01 -3.4563503158464D-01  1.5905696140742D+00
    91  9.0000000000000D-01 -3.7821438679741D-01  1.5751627515095D+00
    92  9.1000000000000D-01 -4.0851340603849D-01  1.5565990466277D+00
    93  9.2000000000000D-01 -4.3649123629491D-01  1.5349648532862D+00
    94  9.3000000000000D-01 -4.6211782458799D-01  1.5103563935721D+00
    95  9.4000000000000D-01 -4.8537379512868D-01  1.4828796712161D+00
    96  9.5000000000000D-01 -5.0625024779720D-01  1.4526500081468D+00
    97  9.6000000000000D-01 -5.2474852072362D-01  1.4197915981012D+00
    98  9.7000000000000D-01 -5.4087991227462D-01  1.3844370124746D+00
    99  9.8000000000000D-01 -5.5466536386497D-01  1.3467266601840D+00
   100  9.9000000000000D-01 -5.6613510567030D-01  1.3068082056362D+00
   101  1.0000000000000D+00 -5.7532826734687D-01  1.2648359478626D+00
   102  1.0100000000000D+00 -5.8229245603773D-01  1.2209701641377D+00
   103  1.0200000000000D+00 -5.8708330410346D-01  1.1753764216298D+00
   104  1.0300000000000D+00 -5.8976398916039D-01  1.1282248608434D+00
   105  1.0400000000000D+00 -5.9040472914074D-01  1.0796894548031D+00
   106  1.0500000000000D+00 -5.8908225519820D-01  1.0299472480815D+00
   107  1.0600000000000D+00 -5.8587926538947D-01  9.7917757992858D-01
   108  1.0700000000000D+00 -5.8088386213600D-01  9.2756129585435D-01
   109  1.0800000000000D+00 -5.7418897653708D-01  8.7527995210987D-01
   110  1.0900000000000D+00 -5.6589178264951D-01  8.2251501755891D-01
   111  1.1000000000000D+00 -5.5609310487724D-01  7.6944707746479D-01
   112  1.1100000000000D+00 -5.4489682162488D-01  7.1625504371141D-01
   113  1.1200000000000D+00 -5.3240926835846D-01  6.6311537594608D-01
   114  1.1300000000000D+00 -5.1873864318364D-01  6.1020131805986D-01
   115  1.1400000000000D+00 -5.0399441801801D-01  5.5768215435321D-01
   116  1.1500000000000D+00 -4.8828675836047D-01  5.0572248959773D-01
   117  1.1600000000000D+00 -4.7172595458459D-01  4.5448155706840D-01
   118  1.1700000000000D+00 -4.5442186756569D-01  4.0411255841607D-01
   119  1.1800000000000D+00 -4.3648339138593D-01  3.5476203913647D-01
   120  1.1900000000000D+00 -4.1801793567498D-01  3.0656930306643D-01
   121  1.2000000000000D+00 -3.9913093002540D-01  2.5966586914477D-01
   122  1.2100000000000D+00 -3.7992535276458D-01  2.1417497341321D-01
   123  1.2200000000000D+00 -3.6050128621569D-01  1.7021111896739D-01
   124  1.2300000000000D+00 -3.4095550034640D-01  1.2787967619258D-01
   125  1.2400000000000D+00 -3.2138106651309D-01  8.7276535300908D-02
   126  1.2500000000000D+00 -3.0186700292812D-01  4.8487813050393D-02
   127  1.2600000000000D+00 -2.8249795309310D-01  1.1589614896413D-02
   128  1.2700000000000D+00 -2.6335389827693D-01 -2.3352146438640D-02
   129  1.2800000000000D+00 -2.4450990506166D-01 -5.6281875085679D-02
   130  1.2900000000000D+00 -2.2603590850906D-01 -8.7154358709925D-02
   131  1.3000000000000D+00 -2.0799653134510D-01 -1.1593477786822D-01
   132  1.3100000000000D+00 -1.9045093956368D-01 -1.4259865815717D-01
   133  1.3200000000000D+00 -1.7345273425426D-01 -1.6713176621983D-01
   134  1.3300000000000D+00 -1.5704987943617D-01 -1.8952995070509D-01
   135  1.3400000000000D+00 -1.4128466561370D-01 -2.0979892939182D-01
   136  1.3500000000000D+00 -1.2619370815601D-01 -2.2795402464302D-01
   137  1.3600000000000D+00 -1.1180797975835D-01 -2.4401984911050D-01
   138  1.3700000000000D+00 -9.8152875959836D-02 -2.5802994405902D-01
   139  1.3800000000000D+00 -8.5248312249987D-02 -2.7002637334085D-01
   140  1.3900000000000D+00 -7.3108851583442D-02 -2.8005927562285D-01
   141  1.4000000000000D+00 -6.1743860508016D-02 -2.8818637839473D-01
   142  1.4100000000000D+00 -5.1157692157189D-02 -2.9447247719021D-01
   143  1.4200000000000D+00 -4.1349894359229D-02 -2.9898888348672D-01
   144  1.4300000000000D+00 -3.2315440578626D-02 -3.0181284547305D-01
   145  1.4400000000000D+00 -2.4044981793024D-02 -3.0302694534904D-01
   146  1.4500000000000D+00 -1.6525116894778D-02 -3.0271847752120D-01
   147  1.4600000000000D+00 -9.7386793653722D-03 -3.0097881178294D-01
   148  1.4700000000000D+00 -3.6650378588954D-03 -2.9790274580755D-01
   149  1.4800000000000D+00  1.7195917965270D-03 -2.9358785123708D-01
   150  1.4900000000000D+00  6.4418255688063D-03 -2.8813381774363D-01
   151  1.5000000000000D+00  1.0530783684299D-02 -2.8164179928690D-01
   152  1.5100000000000D+00  1.4017758999163D-02 -2.7421376684590D-01
   153  1.5200000000000D+00  1.6935883791314D-02 -2.6595187186314D-01
   154  1.5300000000000D+00  1.9319797226617D-02 -2.5695782416669D-01
   155  1.5400000000000D+00  2.1205316115698D-02 -2.4733228885566D-01
   156  1.5500000000000D+00  2.2629110794075D-02 -2.3717430495556D-01
   157  1.5600000000000D+00  2.3628388933482D-02 -2.2658073070864D-01
   158  1.5700000000000D+00  2.4240588597713D-02 -2.1564571723497D-01
   159  1.5800000000000D+00  2.4503083370152D-02 -2.0446021542295D-01
   160  1.5900000000000D+00  2.4452900538790D-02 -1.9311151716016D-01
   161  1.6000000000000D+00  2.4126454832358D-02 -1.8168283505432D-01
   162  1.6100000000000D+00  2.3559298596321D-02 -1.7025292159851D-01
   163  1.6200000000000D+00  2.2785890327807D-02 -1.5889573078311D-01
   164  1.6300000000000D+00  2.1839382447920D-02 -1.4768012310888D-01
   165  1.6400000000000D+00  2.0751429550262D-02 -1.3666961569232D-01
   166  1.6500000000000D+00  1.9552018005720D-02 -1.2592217842779D-01
   167  1.6600000000000D+00  1.8269317454241D-02 -1.1549007656640D-01
   168  1.6700000000000D+00  1.6929555022485D-02 -1.0541976059692D-01
   169  1.6800000000000D+00  1.5556912137806D-02 -9.5751802572358D-02
   170  1.6900000000000D+00  1.4173444642093D-02 -8.6520879509278D-02
   171  1.7000000000000D+00  1.2799025533105D-02 -7.7755802022843D-02
   172  1.7100000000000D+00  1.1451310765497D-02 -6.9479588317783D-02
   173  1.7200000000000D+00  1.0145727069975D-02 -6.1709581046630D-02
   174  1.7300000000000D+00  8.8954817909168D-03 -5.4457606364530D-02
   175  1.7400000000000D+00  7.7115935387581D-03 -4.7730172418566D-02
   176  1.7500000000000D+00  6.6029430677784D-03 -4.1528705542428D-02
   177  1.7600000000000D+00  5.5763432188973D-03 -3.5849821482275D-02
   178  1.7700000000000D+00  4.6366266338663D-03 -3.0685628691339D-02
   179  1.7800000000000D+00  3.7867502774992D-03 -2.6024061357958D-02
   180  1.7900000000000D+00  3.0279147540105D-03 -2.1849237991257D-02
   181  1.8000000000000D+00  2.3596976894858D-03 -1.8141843591785D-02
   182  1.8100000000000D+00  1.7801985933510D-03 -1.4879530350501D-02
   183  1.8200000000000D+00  1.2861945614751D-03 -1.2037334940823D-02
   184  1.8300000000000D+00  8.7330403015397D-04 -9.5881072132665D-03
   185  1.8400000000000D+00  5.3615765754260D-04 -7.5029476550978D-03
   186  1.8500000000000D+00  2.6857393571055D-04 -5.7516493997047D-03
   187  1.8600000000000D+00  6.3737833400949D-05 -4.3031406162215D-03
   188  1.8700000000000D+00 -8.5619083399561D-05 -3.1259247007784D-03
   189  1.8800000000000D+00 -1.8703952293494D-04 -2.1885128287415D-03
   190  1.8900000000000D+00 -2.4816333632037D-04 -1.4598471212505D-03
   191  1.9000000000000D+00 -2.7655480971010D-04 -9.0970943091675D-04
   192  1.9100000000000D+00 -2.7953586303063D-04 -5.0911277410518D-04
   193  1.9200000000000D+00 -2.6402615112206D-04 -2.3067355957060D-04
   194  1.9300000000000D+00 -2.3639344922076D-04 -4.8957671773487D-05
   195  1.9400000000000D+00 -2.0231243953580D-04  5.9195547218403D-05
   196  1.9500000000000D+00 -1.6671616737829D-04  1.1452015851366D-04
   197  1.9600000000000D+00 -1.3337394820271D-04  1.3452659921201D-04
   198  1.9700000000000D+00 -1.0466667717033D-04  1.3305963288119D-04
   199  1.9800000000000D+00 -8.2787114532817D-05  1.2234752688428D-04
   200  1.9900000000000D+00 -7.0300378540620D-05  1.1394479136440D-04
   201  2.0000000000000D+00 -6.8865486094751D-05  1.1638261150755D-04
   202  2.0100000000000D+00 -6.5454861804105D-05  1.1157283895722D-04
   203  2.0200000000000D+00 -4.7612212734565D-05  8.1042519780680D-05
   204  2.0300000000000D+00 -1.9759430519180D-05  3.3534695390280D-05
   205  2.0400000000000D+00  2.2427065611653D-06 -3.8201617521342D-06
   206  2.0500000000000D+00  6.3356321851086D-06 -1.0782270964825D-05
   207  2.0600000000000D+00  1.6582160047066D-06 -2.8195522101679D-06
   208  2.0700000000000D+00 -1.2709372626268D-06  2.1797186872862D-06
   209  2.0800000000000D+00 -1.0748320059132D-06  1.8440340948306D-06
   210  2.0900000000000D+00  6.6380525255981D-08 -1.1310879572919D-07
   211  2.1000000000000D+00  1.7321595268712D-07 -2.9515053901687D-07
   212  2.1100000000000D+00  4.7886952676508D-08 -8.1596756390426D-08
   213  2.1200000000000D+00  0.0000000000000D+00  0.0000000000000D+00
   214  2.1300000000000D+00  0.0000000000000D+00  0.0000000000000D+00
   215  2.1400000000000D+00  0.0000000000000D+00  0.0000000000000D+00
   216  2.1500000000000D+00  0.0000000000000D+00  0.0000000000000D+00
   217  2.1600000000000D+00  0.0000000000000D+00  0.0000000000000D+00
   218  2.1700000000000D+00  0.0000000000000D+00  0.0000000000000D+00
   219  2.1800000000000D+00  0.0000000000000D+00  0.0000000000000D+00
   220  2.1900000000000D+00  0.0000000000000D+00  0.0000000000000D+00
   221  2.2000000000000D+00  0.0000000000000D+00  0.0000000000000D+00
   222  2.2100000000000D+00  0.0000000000000D+00  0.0000000000000D+00
   223  2.2200000000000D+00  0.0000000000000D+00  0.0000000000000D+00
   224  2.2300000000000D+00  0.0000000000000D+00  0.0000000000000D+00
   225  2.2400000000000D+00  0.0000000000000D+00  0.0000000000000D+00
   226  2.2500000000000D+00  0.0000000000000D+00  0.0000000000000D+00
   227  2.2600000000000D+00  0.0000000000000D+00  0.0000000000000D+00
   228  2.2700000000000D+00  0.0000000000000D+00  0.0000000000000D+00
   229  2.2800000000000D+00  0.0000000000000D+00  0.0000000000000D+00
   230  2.2900000000000D+00  0.0000000000000D+00  0.0000000000000D+00
   231  2.3000000000000D+00  0.0000000000000D+00  0.0000000000000D+00
   232  2.3100000000000D+00  0.0000000000000D+00  0.0000000000000D+00
   233  2.3200000000000D+00  0.0000000000000D+00  0.0000000000000D+00
   234  2.3300000000000D+00  0.0000000000000D+00  0.0000000000000D+00
   235  2.3400000000000D+00  0.0000000000000D+00  0.0000000000000D+00
   236  2.3500000000000D+00  0.0000000000000D+00  0.0000000000000D+00
   237  2.3600000000000D+00  0.0000000000000D+00  0.0000000000000D+00
   238  2.3700000000000D+00  0.0000000000000D+00  0.0000000000000D+00
   239  2.3800000000000D+00  0.0000000000000D+00  0.0000000000000D+00
   240  2.3900000000000D+00  0.0000000000000D+00  0.0000000000000D+00
   241  2.4000000000000D+00  0.0000000000000D+00  0.0000000000000D+00
   242  2.4100000000000D+00  0.0000000000000D+00  0.0000000000000D+00
   243  2.4200000000000D+00  0.0000000000000D+00  0.0000000000000D+00
   244  2.4300000000000D+00  0.0000000000000D+00  0.0000000000000D+00
   245  2.4400000000000D+00  0.0000000000000D+00  0.0000000000000D+00
   246  2.4500000000000D+00  0.0000000000000D+00  0.0000000000000D+00
   247  2.4600000000000D+00  0.0000000000000D+00  0.0000000000000D+00
   248  2.4700000000000D+00  0.0000000000000D+00  0.0000000000000D+00
   249  2.4800000000000D+00  0.0000000000000D+00  0.0000000000000D+00
   250  2.4900000000000D+00  0.0000000000000D+00  0.0000000000000D+00
   251  2.5000000000000D+00  0.0000000000000D+00  0.0000000000000D+00
   252  2.5100000000000D+00  0.0000000000000D+00  0.0000000000000D+00
   253  2.5200000000000D+00  0.0000000000000D+00  0.0000000000000D+00
   254  2.5300000000000D+00  0.0000000000000D+00  0.0000000000000D+00
   255  2.5400000000000D+00  0.0000000000000D+00  0.0000000000000D+00
   256  2.5500000000000D+00  0.0000000000000D+00  0.0000000000000D+00
   257  2.5600000000000D+00  0.0000000000000D+00  0.0000000000000D+00
   258  2.5700000000000D+00  0.0000000000000D+00  0.0000000000000D+00
   259  2.5800000000000D+00  0.0000000000000D+00  0.0000000000000D+00
   260  2.5900000000000D+00  0.0000000000000D+00  0.0000000000000D+00
   261  2.6000000000000D+00  0.0000000000000D+00  0.0000000000000D+00
   262  2.6100000000000D+00  0.0000000000000D+00  0.0000000000000D+00
   263  2.6200000000000D+00  0.0000000000000D+00  0.0000000000000D+00
   264  2.6300000000000D+00  0.0000000000000D+00  0.0000000000000D+00
   265  2.6400000000000D+00  0.0000000000000D+00  0.0000000000000D+00
   266  2.6500000000000D+00  0.0000000000000D+00  0.0000000000000D+00
   267  2.6600000000000D+00  0.0000000000000D+00  0.0000000000000D+00
   268  2.6700000000000D+00  0.0000000000000D+00  0.0000000000000D+00
   269  2.6800000000000D+00  0.0000000000000D+00  0.0000000000000D+00
   270  2.6900000000000D+00  0.0000000000000D+00  0.0000000000000D+00
   271  2.7000000000000D+00  0.0000000000000D+00  0.0000000000000D+00
   272  2.7100000000000D+00  0.0000000000000D+00  0.0000000000000D+00
   273  2.7200000000000D+00  0.0000000000000D+00  0.0000000000000D+00
   274  2.7300000000000D+00  0.0000000000000D+00  0.0000000000000D+00
   275  2.7400000000000D+00  0.0000000000000D+00  0.0000000000000D+00
   276  2.7500000000000D+00  0.0000000000000D+00  0.0000000000000D+00
   277  2.7600000000000D+00  0.0000000000000D+00  0.0000000000000D+00
   278  2.7700000000000D+00  0.0000000000000D+00  0.0000000000000D+00
   279  2.7800000000000D+00  0.0000000000000D+00  0.0000000000000D+00
   280  2.7900000000000D+00  0.0000000000000D+00  0.0000000000000D+00
   281  2.8000000000000D+00  0.0000000000000D+00  0.0000000000000D+00
   282  2.8100000000000D+00  0.0000000000000D+00  0.0000000000000D+00
   283  2.8200000000000D+00  0.0000000000000D+00  0.0000000000000D+00
   284  2.8300000000000D+00  0.0000000000000D+00  0.0000000000000D+00
   285  2.8400000000000D+00  0.0000000000000D+00  0.0000000000000D+00
   286  2.8500000000000D+00  0.0000000000000D+00  0.0000000000000D+00
   287  2.8600000000000D+00  0.0000000000000D+00  0.0000000000000D+00
   288  2.8700000000000D+00  0.0000000000000D+00  0.0000000000000D+00
   289  2.8800000000000D+00  0.0000000000000D+00  0.0000000000000D+00
   290  2.8900000000000D+00  0.0000000000000D+00  0.0000000000000D+00
   291  2.9000000000000D+00  0.0000000000000D+00  0.0000000000000D+00
   292  2.9100000000000D+00  0.0000000000000D+00  0.0000000000000D+00
   293  2.9200000000000D+00  0.0000000000000D+00  0.0000000000000D+00
   294  2.9300000000000D+00  0.0000000000000D+00  0.0000000000000D+00
   295  2.9400000000000D+00  0.0000000000000D+00  0.0000000000000D+00
   296  2.9500000000000D+00  0.0000000000000D+00  0.0000000000000D+00
   297  2.9600000000000D+00  0.0000000000000D+00  0.0000000000000D+00
   298  2.9700000000000D+00  0.0000000000000D+00  0.0000000000000D+00
   299  2.9800000000000D+00  0.0000000000000D+00  0.0000000000000D+00
   300  2.9900000000000D+00  0.0000000000000D+00  0.0000000000000D+00
   301  3.0000000000000D+00  0.0000000000000D+00  0.0000000000000D+00
   302  3.0100000000000D+00  0.0000000000000D+00  0.0000000000000D+00
   303  3.0200000000000D+00  0.0000000000000D+00  0.0000000000000D+00
   304  3.0300000000000D+00  0.0000000000000D+00  0.0000000000000D+00
   305  3.0400000000000D+00  0.0000000000000D+00  0.0000000000000D+00
   306  3.0500000000000D+00  0.0000000000000D+00  0.0000000000000D+00
   307  3.0600000000000D+00  0.0000000000000D+00  0.0000000000000D+00
   308  3.0700000000000D+00  0.0000000000000D+00  0.0000000000000D+00
   309  3.0800000000000D+00  0.0000000000000D+00  0.0000000000000D+00
   310  3.0900000000000D+00  0.0000000000000D+00  0.0000000000000D+00
   311  3.1000000000000D+00  0.0000000000000D+00  0.0000000000000D+00
   312  3.1100000000000D+00  0.0000000000000D+00  0.0000000000000D+00
   313  3.1200000000000D+00  0.0000000000000D+00  0.0000000000000D+00
   314  3.1300000000000D+00  0.0000000000000D+00  0.0000000000000D+00
   315  3.1400000000000D+00  0.0000000000000D+00  0.0000000000000D+00
   316  3.1500000000000D+00  0.0000000000000D+00  0.0000000000000D+00
   317  3.1600000000000D+00  0.0000000000000D+00  0.0000000000000D+00
   318  3.1700000000000D+00  0.0000000000000D+00  0.0000000000000D+00
   319  3.1800000000000D+00  0.0000000000000D+00  0.0000000000000D+00
   320  3.1900000000000D+00  0.0000000000000D+00  0.0000000000000D+00
   321  3.2000000000000D+00  0.0000000000000D+00  0.0000000000000D+00
   322  3.2100000000000D+00  0.0000000000000D+00  0.0000000000000D+00
   323  3.2200000000000D+00  0.0000000000000D+00  0.0000000000000D+00
   324  3.2300000000000D+00  0.0000000000000D+00  0.0000000000000D+00
   325  3.2400000000000D+00  0.0000000000000D+00  0.0000000000000D+00
   326  3.2500000000000D+00  0.0000000000000D+00  0.0000000000000D+00
   327  3.2600000000000D+00  0.0000000000000D+00  0.0000000000000D+00
   328  3.2700000000000D+00  0.0000000000000D+00  0.0000000000000D+00
   329  3.2800000000000D+00  0.0000000000000D+00  0.0000000000000D+00
   330  3.2900000000000D+00  0.0000000000000D+00  0.0000000000000D+00
   331  3.3000000000000D+00  0.0000000000000D+00  0.0000000000000D+00
   332  3.3100000000000D+00  0.0000000000000D+00  0.0000000000000D+00
   333  3.3200000000000D+00  0.0000000000000D+00  0.0000000000000D+00
   334  3.3300000000000D+00  0.0000000000000D+00  0.0000000000000D+00
   335  3.3400000000000D+00  0.0000000000000D+00  0.0000000000000D+00
   336  3.3500000000000D+00  0.0000000000000D+00  0.0000000000000D+00
   337  3.3600000000000D+00  0.0000000000000D+00  0.0000000000000D+00
   338  3.3700000000000D+00  0.0000000000000D+00  0.0000000000000D+00
   339  3.3800000000000D+00  0.0000000000000D+00  0.0000000000000D+00
   340  3.3900000000000D+00  0.0000000000000D+00  0.0000000000000D+00
   341  3.4000000000000D+00  0.0000000000000D+00  0.0000000000000D+00
   342  3.4100000000000D+00  0.0000000000000D+00  0.0000000000000D+00
   343  3.4200000000000D+00  0.0000000000000D+00  0.0000000000000D+00
   344  3.4300000000000D+00  0.0000000000000D+00  0.0000000000000D+00
   345  3.4400000000000D+00  0.0000000000000D+00  0.0000000000000D+00
   346  3.4500000000000D+00  0.0000000000000D+00  0.0000000000000D+00
   347  3.4600000000000D+00  0.0000000000000D+00  0.0000000000000D+00
   348  3.4700000000000D+00  0.0000000000000D+00  0.0000000000000D+00
   349  3.4800000000000D+00  0.0000000000000D+00  0.0000000000000D+00
   350  3.4900000000000D+00  0.0000000000000D+00  0.0000000000000D+00
   351  3.5000000000000D+00  0.0000000000000D+00  0.0000000000000D+00
   352  3.5100000000000D+00  0.0000000000000D+00  0.0000000000000D+00
   353  3.5200000000000D+00  0.0000000000000D+00  0.0000000000000D+00
   354  3.5300000000000D+00  0.0000000000000D+00  0.0000000000000D+00
   355  3.5400000000000D+00  0.0000000000000D+00  0.0000000000000D+00
   356  3.5500000000000D+00  0.0000000000000D+00  0.0000000000000D+00
   357  3.5600000000000D+00  0.0000000000000D+00  0.0000000000000D+00
   358  3.5700000000000D+00  0.0000000000000D+00  0.0000000000000D+00
   359  3.5800000000000D+00  0.0000000000000D+00  0.0000000000000D+00
   360  3.5900000000000D+00  0.0000000000000D+00  0.0000000000000D+00
   361  3.6000000000000D+00  0.0000000000000D+00  0.0000000000000D+00
   362  3.6100000000000D+00  0.0000000000000D+00  0.0000000000000D+00
   363  3.6200000000000D+00  0.0000000000000D+00  0.0000000000000D+00
   364  3.6300000000000D+00  0.0000000000000D+00  0.0000000000000D+00
   365  3.6400000000000D+00  0.0000000000000D+00  0.0000000000000D+00
   366  3.6500000000000D+00  0.0000000000000D+00  0.0000000000000D+00
   367  3.6600000000000D+00  0.0000000000000D+00  0.0000000000000D+00
   368  3.6700000000000D+00  0.0000000000000D+00  0.0000000000000D+00
   369  3.6800000000000D+00  0.0000000000000D+00  0.0000000000000D+00
   370  3.6900000000000D+00  0.0000000000000D+00  0.0000000000000D+00
   371  3.7000000000000D+00  0.0000000000000D+00  0.0000000000000D+00
   372  3.7100000000000D+00  0.0000000000000D+00  0.0000000000000D+00
   373  3.7200000000000D+00  0.0000000000000D+00  0.0000000000000D+00
   374  3.7300000000000D+00  0.0000000000000D+00  0.0000000000000D+00
   375  3.7400000000000D+00  0.0000000000000D+00  0.0000000000000D+00
   376  3.7500000000000D+00  0.0000000000000D+00  0.0000000000000D+00
   377  3.7600000000000D+00  0.0000000000000D+00  0.0000000000000D+00
   378  3.7700000000000D+00  0.0000000000000D+00  0.0000000000000D+00
   379  3.7800000000000D+00  0.0000000000000D+00  0.0000000000000D+00
   380  3.7900000000000D+00  0.0000000000000D+00  0.0000000000000D+00
   381  3.8000000000000D+00  0.0000000000000D+00  0.0000000000000D+00
   382  3.8100000000000D+00  0.0000000000000D+00  0.0000000000000D+00
   383  3.8200000000000D+00  0.0000000000000D+00  0.0000000000000D+00
   384  3.8300000000000D+00  0.0000000000000D+00  0.0000000000000D+00
   385  3.8400000000000D+00  0.0000000000000D+00  0.0000000000000D+00
   386  3.8500000000000D+00  0.0000000000000D+00  0.0000000000000D+00
   387  3.8600000000000D+00  0.0000000000000D+00  0.0000000000000D+00
   388  3.8700000000000D+00  0.0000000000000D+00  0.0000000000000D+00
   389  3.8800000000000D+00  0.0000000000000D+00  0.0000000000000D+00
   390  3.8900000000000D+00  0.0000000000000D+00  0.0000000000000D+00
   391  3.9000000000000D+00  0.0000000000000D+00  0.0000000000000D+00
   392  3.9100000000000D+00  0.0000000000000D+00  0.0000000000000D+00
   393  3.9200000000000D+00  0.0000000000000D+00  0.0000000000000D+00
   394  3.9300000000000D+00  0.0000000000000D+00  0.0000000000000D+00
   395  3.9400000000000D+00  0.0000000000000D+00  0.0000000000000D+00
   396  3.9500000000000D+00  0.0000000000000D+00  0.0000000000000D+00
   397  3.9600000000000D+00  0.0000000000000D+00  0.0000000000000D+00
   398  3.9700000000000D+00  0.0000000000000D+00  0.0000000000000D+00
   399  3.9800000000000D+00  0.0000000000000D+00  0.0000000000000D+00
   400  3.9900000000000D+00  0.0000000000000D+00  0.0000000000000D+00
   401  4.0000000000000D+00  0.0000000000000D+00  0.0000000000000D+00
   402  4.0100000000000D+00  0.0000000000000D+00  0.0000000000000D+00
   403  4.0200000000000D+00  0.0000000000000D+00  0.0000000000000D+00
   404  4.0300000000000D+00  0.0000000000000D+00  0.0000000000000D+00
   405  4.0400000000000D+00  0.0000000000000D+00  0.0000000000000D+00
   406  4.0500000000000D+00  0.0000000000000D+00  0.0000000000000D+00
   407  4.0600000000000D+00  0.0000000000000D+00  0.0000000000000D+00
   408  4.0700000000000D+00  0.0000000000000D+00  0.0000000000000D+00
   409  4.0800000000000D+00  0.0000000000000D+00  0.0000000000000D+00
   410  4.0900000000000D+00  0.0000000000000D+00  0.0000000000000D+00
   411  4.1000000000000D+00  0.0000000000000D+00  0.0000000000000D+00
   412  4.1100000000000D+00  0.0000000000000D+00  0.0000000000000D+00
   413  4.1200000000000D+00  0.0000000000000D+00  0.0000000000000D+00
   414  4.1300000000000D+00  0.0000000000000D+00  0.0000000000000D+00
   415  4.1400000000000D+00  0.0000000000000D+00  0.0000000000000D+00
   416  4.1500000000000D+00  0.0000000000000D+00  0.0000000000000D+00
   417  4.1600000000000D+00  0.0000000000000D+00  0.0000000000000D+00
   418  4.1700000000000D+00  0.0000000000000D+00  0.0000000000000D+00
   419  4.1800000000000D+00  0.0000000000000D+00  0.0000000000000D+00
   420  4.1900000000000D+00  0.0000000000000D+00  0.0000000000000D+00
   421  4.2000000000000D+00  0.0000000000000D+00  0.0000000000000D+00
   422  4.2100000000000D+00  0.0000000000000D+00  0.0000000000000D+00