He    ONCVPSP-3.3.1  r_core=   2.01394
      2.0000      2.0000      210904    zatom,zion,pspd
     8       2   0     4   600     0    pspcod,pspxc,lmax,lloc,mmax,r2well
  5.99000000  0.00000000  0.00000000    rchrg fchrg qchrg
     2     0     0     0     0    nproj
     1     1           extension_switch
   0                        -1.7399843909576D+00 -6.2621822998839D-01
     1  0.0000000000000D+00  8.0728479456837D-11 -9.4035487729904D-11
     2  1.0000000000000D-02  5.3468719422494D-02 -1.1574559395442D-02
     3  2.0000000000000D-02  1.0689050235027D-01 -2.3111482425377D-02
     4  3.0000000000000D-02  1.6021818725014D-01 -3.4572943849738D-02
     5  4.0000000000000D-02  2.1340416519754D-01 -4.5920743544805D-02
     6  5.0000000000000D-02  2.6640016287438D-01 -5.7116126201145D-02
     7  6.0000000000000D-02  3.1915703354176D-01 -6.8119609522510D-02
     8  7.0000000000000D-02  3.7162455855069D-01 -7.8890823648533D-02
     9  8.0000000000000D-02  4.2375126187342D-01 -8.9388364430071D-02
    10  9.0000000000000D-02  4.7548424003787D-01 -9.9569663069732D-02
    11  1.0000000000000D-01  5.2676900972927D-01 -1.0939087450228D-01
    12  1.1000000000000D-01  5.7754937518728D-01 -1.1880678673120D-01
    13  1.2000000000000D-01  6.2776731737363D-01 -1.2777075315993D-01
    14  1.3000000000000D-01  6.7736290671683D-01 -1.3623464975978D-01
    15  1.4000000000000D-01  7.2627424105705D-01 -1.4414885870395D-01
    16  1.5000000000000D-01  7.7443741021766D-01 -1.5146227986795D-01
    17  1.6000000000000D-01  8.2178648842096D-01 -1.5812237135492D-01
    18  1.7000000000000D-01  8.6825355554620D-01 -1.6407521994909D-01
    19  1.8000000000000D-01  9.1376874799937D-01 -1.6926564213655D-01
    20  1.9000000000000D-01  9.5826033972792D-01 -1.7363731605817D-01
    21  2.0000000000000D-01  1.0016548536715D+00 -1.7713294448030D-01
    22  2.1000000000000D-01  1.0438772036931D+00 -1.7969444858411D-01
    23  2.2000000000000D-01  1.0848508667862D+00 -1.8126319208742D-01
    24  2.3000000000000D-01  1.1244980851031D+00 -1.8178023492613D-01
    25  2.4000000000000D-01  1.1627400971015D+00 -1.8118661543642D-01
    26  2.5000000000000D-01  1.1994973968595D+00 -1.7942365969783D-01
    27  2.6000000000000D-01  1.2346900203675D+00 -1.7643331642189D-01
    28  2.7000000000000D-01  1.2682378573696D+00 -1.7215851550383D-01
    29  2.8000000000000D-01  1.3000609871019D+00 -1.6654354809808D-01
    30  2.9000000000000D-01  1.3300800360524D+00 -1.5953446583415D-01
    31  3.0000000000000D-01  1.3582165556656D+00 -1.5107949655887D-01
    32  3.1000000000000D-01  1.3843934177185D+00 -1.4112947377783D-01
    33  3.2000000000000D-01  1.4085352249145D+00 -1.2963827677247D-01
    34  3.3000000000000D-01  1.4305687340793D+00 -1.1656327819395D-01
    35  3.4000000000000D-01  1.4504232891965D+00 -1.0186579577975D-01
    36  3.5000000000000D-01  1.4680312613899D+00 -8.5511544707683D-02
    37  3.6000000000000D-01  1.4833284928522D+00 -6.7471086993993D-02
    38  3.7000000000000D-01  1.4962547416293D+00 -4.7720274259989D-02
    39  3.8000000000000D-01  1.5067541241029D+00 -2.6240680135539D-02
    40  3.9000000000000D-01  1.5147755519658D+00 -3.0200185384513D-03
    41  4.0000000000000D-01  1.5202731604628D+00  2.1947455932563D-02
    42  4.1000000000000D-01  1.5232067246661D+00  4.8660569227262D-02
    43  4.2000000000000D-01  1.5235420605767D+00  7.7110874376781D-02
    44  4.3000000000000D-01  1.5212514078891D+00  1.0728232692827D-01
    45  4.4000000000000D-01  1.5163137913200D+00  1.3915099276896D-01
    46  4.5000000000000D-01  1.5087153574947D+00  1.7268479168843D-01
    47  4.6000000000000D-01  1.4984496844950D+00  2.0784327986360D-01
    48  4.7000000000000D-01  1.4855180613043D+00  2.4457747425903D-01
    49  4.8000000000000D-01  1.4699297345410D+00  2.8282972172025D-01
    50  4.9000000000000D-01  1.4517021200430D+00  3.2253361529765D-01
    51  5.0000000000000D-01  1.4308609770583D+00  3.6361396007827D-01
    52  5.1000000000000D-01  1.4074405430040D+00  4.0598679052074D-01
    53  5.2000000000000D-01  1.3814836269852D+00  4.4955944098946D-01
    54  5.3000000000000D-01  1.3530416604968D+00  4.9423067086819D-01
    55  5.4000000000000D-01  1.3221747039918D+00  5.3989084530370D-01
    56  5.5000000000000D-01  1.2889514082535D+00  5.8642217228886D-01
    57  5.6000000000000D-01  1.2534489297887D+00  6.3369899644484D-01
    58  5.7000000000000D-01  1.2157527997307D+00  6.8158814950519D-01
    59  5.8000000000000D-01  1.1759567460296D+00  7.2994935714536D-01
    60  5.9000000000000D-01  1.1341624689913D+00  7.7863570144012D-01
    61  6.0000000000000D-01  1.0904793705142D+00  8.2749413787339D-01
    62  6.1000000000000D-01  1.0450242376608D+00  8.7636606547093D-01
    63  6.2000000000000D-01  9.9792088148066D-01  9.2508794828211D-01
    64  6.3000000000000D-01  9.4929973227915D-01  9.7349198610092D-01
    65  6.4000000000000D-01  8.9929739279766D-01  1.0214068319970D+00
    66  6.5000000000000D-01  8.4805615102546D-01  1.0686583539217D+00
    67  6.6000000000000D-01  7.9572345461416D-01  1.1150704373705D+00
    68  6.7000000000000D-01  7.4245134909663D-01  1.1604658258162D+00
    69  6.8000000000000D-01  6.8839588233006D-01  1.2046669953935D+00
    70  6.9000000000000D-01  6.3371647778242D-01  1.2474970600941D+00
    71  7.0000000000000D-01  5.7857527946222D-01  1.2887807035553D+00
    72  7.1000000000000D-01  5.2313647145017D-01  1.3283451333623D+00
    73  7.2000000000000D-01  4.6756557513042D-01  1.3660210536677D+00
    74  7.3000000000000D-01  4.1202872733240D-01  1.4016436518361D+00
    75  7.4000000000000D-01  3.5669194268517D-01  1.4350535947723D+00
    76  7.5000000000000D-01  3.0172036355133D-01  1.4660980305629D+00
    77  7.6000000000000D-01  2.4727750094704D-01  1.4946315910850D+00
    78  7.7000000000000D-01  1.9352446986907D-01  1.5205173912774D+00
    79  7.8000000000000D-01  1.4061922243668D-01  1.5436280208622D+00
    80  7.9000000000000D-01  8.8715782218168D-02  1.5638465244241D+00
    81  8.0000000000000D-01  3.7963483047250D-02  1.5810673659086D+00
    82  8.1000000000000D-01 -1.1493784455357D-02  1.5951973737935D+00
    83  8.2000000000000D-01 -5.9518315554158D-02  1.6061566634066D+00
    84  8.3000000000000D-01 -1.0597932030249D-01  1.6138795331168D+00
    85  8.4000000000000D-01 -1.5075363587611D-01  1.6183153314044D+00
    86  8.5000000000000D-01 -1.9372641971803D-01  1.6194292921263D+00
    87  8.6000000000000D-01 -2.3479182107823D-01  1.6172033356200D+00
    88  8.7000000000000D-01 -2.7385362890548D-01  1.6116368347729D+00
    89  8.8000000000000D-01 -3.1082589425549D-01  1.6027473439198D+00
    90  8.9000000000000D-01 -3.4563351577275D-01  1.5905712267826D+00
    91  9.0000000000000D-01 -3.7821283926853D-01  1.5751645473551D+00
    92  9.1000000000000D-01 -4.0851182636964D-01  1.5566010146849D+00
    93  9.2000000000000D-01 -4.3648962416357D-01  1.5349669822418D+00
    94  9.3000000000000D-01 -4.6211617978481D-01  1.5103586717846D+00
    95  9.4000000000000D-01 -4.8537211756889D-01  1.4828820867793D+00
    96  9.5000000000000D-01 -5.0624853753066D-01  1.4526525489532D+00
    97  9.6000000000000D-01 -5.2474677794355D-01  1.4197942519039D+00
    98  9.7000000000000D-01 -5.4087813732498D-01  1.3844397669498D+00
    99  9.8000000000000D-01 -5.5466355724645D-01  1.3467295029923D+00
   100  9.9000000000000D-01 -5.6613326804492D-01  1.3068111244827D+00
   101  1.0000000000000D+00 -5.7532639954116D-01  1.2648389305552D+00
   102  1.0100000000000D+00 -5.8229055904461D-01  1.2209731986438D+00
   103  1.0200000000000D+00 -5.8708137908271D-01  1.1753794961310D+00
   104  1.0300000000000D+00 -5.8976203743778D-01  1.1282279637876D+00
   105  1.0400000000000D+00 -5.9040275220589D-01  1.0796925749534D+00
   106  1.0500000000000D+00 -5.8908025470114D-01  1.0299503745631D+00
   107  1.0600000000000D+00 -5.8587724313601D-01  9.7918070227191D-01
   108  1.0700000000000D+00 -5.8088182008195D-01  9.2756440403508D-01
   109  1.0800000000000D+00 -5.7418691678133D-01  8.7528303658519D-01
   110  1.0900000000000D+00 -5.6588970742606D-01  8.2251806930025D-01
   111  1.1000000000000D+00 -5.5609101654629D-01  7.6945008798673D-01
   112  1.1100000000000D+00 -5.4489472266301D-01  7.1625800509666D-01
   113  1.1200000000000D+00 -5.3240716134795D-01  6.6311828086645D-01
   114  1.1300000000000D+00 -5.1873653080109D-01  6.1020415979324D-01
   115  1.1400000000000D+00 -5.0399230302227D-01  5.5768492679645D-01
   116  1.1500000000000D+00 -4.8828464358002D-01  5.0572518727548D-01
   117  1.1600000000000D+00 -4.7172384290439D-01  4.5448417513801D-01
   118  1.1700000000000D+00 -4.5441976191369D-01  4.0411509266841D-01
   119  1.1800000000000D+00 -4.3648129471919D-01  3.5476448599295D-01
   120  1.1900000000000D+00 -4.1801585096570D-01  3.0657165957226D-01
   121  1.2000000000000D+00 -3.9912886024668D-01  2.5966813295854D-01
   122  1.2100000000000D+00 -3.7992330087627D-01  2.1417714279300D-01
   123  1.2200000000000D+00 -3.6049925515021D-01  1.7021319275362D-01
   124  1.2300000000000D+00 -3.4095349299475D-01  1.2788165378766D-01
   125  1.2400000000000D+00 -3.2137908571106D-01  8.7278416646041D-02
   126  1.2500000000000D+00 -3.0186505144285D-01  4.8489598599683D-02
   127  1.2600000000000D+00 -2.8249603360998D-01  1.1591305588520D-02
   128  1.2700000000000D+00 -2.6335201338699D-01 -2.3350549211010D-02
   129  1.2800000000000D+00 -2.4450805724953D-01 -5.6280369508213D-02
   130  1.2900000000000D+00 -2.2603410014150D-01 -8.7152942580792D-02
   131  1.3000000000000D+00 -2.0799476466022D-01 -1.1593344863352D-01
   132  1.3100000000000D+00 -1.9044921666091D-01 -1.4259741294747D-01
   133  1.3200000000000D+00 -1.7345105708506D-01 -1.6713060188752D-01
   134  1.3300000000000D+00 -1.5704824979562D-01 -1.8952886386220D-01
   135  1.3400000000000D+00 -1.4128308513297D-01 -2.0979791644813D-01
   136  1.3500000000000D+00 -1.2619217829574D-01 -2.2795308184404D-01
   137  1.3600000000000D+00 -1.1180650180298D-01 -2.4401897257522D-01
   138  1.3700000000000D+00 -9.8151451012891D-02 -2.5802912981693D-01
   139  1.3800000000000D+00 -8.5246941230392D-02 -2.7002561736824D-01
   140  1.3900000000000D+00 -7.3107535222834D-02 -2.8005857387794D-01
   141  1.4000000000000D+00 -6.1742599349070D-02 -2.8818572685148D-01
   142  1.4100000000000D+00 -5.1156486552969D-02 -2.9447187187056D-01
   143  1.4200000000000D+00 -4.1348744473541D-02 -2.9898832049113D-01
   144  1.4300000000000D+00 -3.2314346387386D-02 -3.0181232100902D-01
   145  1.4400000000000D+00 -2.4043943086606D-02 -3.0302645575759D-01
   146  1.4500000000000D+00 -1.6524133281326D-02 -3.0271801930109D-01
   147  1.4600000000000D+00 -9.7377502750490D-03 -3.0097838161247D-01
   148  1.4700000000000D+00 -3.6641625490334D-03 -2.9790234056392D-01
   149  1.4800000000000D+00  1.7204142354082D-03 -2.9358746801315D-01
   150  1.4900000000000D+00  6.4425962061626D-03 -2.8813345386207D-01
   151  1.5000000000000D+00  1.0531503741950D-02 -2.8164145231162D-01
   152  1.5100000000000D+00  1.4018429842963D-02 -2.7421343459089D-01
   153  1.5200000000000D+00  1.6936506922149D-02 -2.6595155239852D-01
   154  1.5300000000000D+00  1.9320374270805D-02 -2.5695751582217D-01
   155  1.5400000000000D+00  2.1205848814829D-02 -2.4733199022134D-01
   156  1.5500000000000D+00  2.2629600994384D-02 -2.3717401488024D-01
   157  1.5600000000000D+00  2.3628838574803D-02 -2.2658044829562D-01
   158  1.5700000000000D+00  2.4240999702094D-02 -2.1564544183555D-01
   159  1.5800000000000D+00  2.4503458030190D-02 -2.0445994662765D-01
   160  1.5900000000000D+00  2.4453240905772D-02 -1.9311125478795D-01
   161  1.6000000000000D+00  2.4126763104267D-02 -1.8168257913978D-01
   162  1.6100000000000D+00  2.3559577005792D-02 -1.7025267237739D-01
   163  1.6200000000000D+00  2.2786141130091D-02 -1.5889548867622D-01
   164  1.6300000000000D+00  2.1839607908942D-02 -1.4767988870460D-01
   165  1.6400000000000D+00  2.0751631934832D-02 -1.3666938972796D-01
   166  1.6500000000000D+00  1.9552199565976D-02 -1.2592196176999D-01
   167  1.6600000000000D+00  1.8269480418389D-02 -1.1548987019075D-01
   168  1.6700000000000D+00  1.6929701583893D-02 -1.0541956556705D-01
   169  1.6800000000000D+00  1.5557044444520D-02 -9.5751620018732D-02
   170  1.6900000000000D+00  1.4173564786838D-02 -8.6520710607856D-02
   171  1.7000000000000D+00  1.2799135543822D-02 -7.7755647973906D-02
   172  1.7100000000000D+00  1.1451412596474D-02 -6.9479450325075D-02
   173  1.7200000000000D+00  1.0145822593613D-02 -6.1709460297060D-02
   174  1.7300000000000D+00  8.8955727901794D-03 -5.4457504008617D-02
   175  1.7400000000000D+00  7.7116817003521D-03 -4.7730089551837D-02
   176  1.7500000000000D+00  6.6030299760886D-03 -4.1528643187944D-02
   177  1.7600000000000D+00  5.5764303507129D-03 -3.5849780574455D-02
   178  1.7700000000000D+00  4.6367153539222D-03 -3.0685610061253D-02
   179  1.7800000000000D+00  3.7868418348577D-03 -2.6024065720214D-02
   180  1.7900000000000D+00  3.0280102792965D-03 -2.1849265932636D-02
   181  1.8000000000000D+00  2.3597981929840D-03 -1.8141895561719D-02
   182  1.8100000000000D+00  1.7803049639725D-03 -1.4879606653485D-02
   183  1.8200000000000D+00  1.2863075665929D-03 -1.2037435730868D-02
   184  1.8300000000000D+00  8.7342431630231D-04 -9.5882324904157D-03
   185  1.8400000000000D+00  5.3628575196983D-04 -7.5030972640746D-03
   186  1.8500000000000D+00  2.6871024877390D-04 -5.7518230307022D-03
   187  1.8600000000000D+00  6.3882661775336D-05 -4.3033378078348D-03
   188  1.8700000000000D+00 -8.5465552721433D-05 -3.1261448450655D-03
   189  1.8800000000000D+00 -1.8687720787984D-04 -2.1887551783743D-03
   190  1.8900000000000D+00 -2.4799225424107D-04 -1.4601107987058D-03
   191  1.9000000000000D+00 -2.7637507120217D-04 -9.0999343963278D-04
   192  1.9100000000000D+00 -2.7934766510341D-04 -5.0941601151163D-04
   193  1.9200000000000D+00 -2.6382976976735D-04 -2.3099483189456D-04
   194  1.9300000000000D+00 -2.3618923143304D-04 -4.9295710481356D-05
   195  1.9400000000000D+00 -2.0210079483127D-04  5.8842067458060D-05
   196  1.9500000000000D+00 -1.6649715001444D-04  1.1415190293588D-04
   197  1.9600000000000D+00 -1.3314843397414D-04  1.3414557611131D-04
   198  1.9700000000000D+00 -1.0443771039807D-04  1.3267148482771D-04
   199  1.9800000000000D+00 -8.2555797962510D-05  1.2195451572649D-04
   200  1.9900000000000D+00 -7.0059338802641D-05  1.1353464979795D-04
   201  2.0000000000000D+00 -6.8598594465937D-05  1.1592806878956D-04
   202  2.0100000000000D+00 -6.5189930120795D-05  1.1112144774130D-04
   203  2.0200000000000D+00 -4.7417381044996D-05  8.0710509594963D-05
   204  2.0300000000000D+00 -1.9678370092800D-05  3.3396551424071D-05
   205  2.0400000000000D+00  2.2334156592188D-06 -3.8043278355119D-06
   206  2.0500000000000D+00  6.3093331139847D-06 -1.0737450029637D-05
   207  2.0600000000000D+00  1.6513249004081D-06 -2.8078076719834D-06
   208  2.0700000000000D+00 -1.2656575768995D-06  2.1707209541013D-06
   209  2.0800000000000D+00 -1.0703619957277D-06  1.8364161621184D-06
   210  2.0900000000000D+00  6.6110454735598D-08 -1.1264860853300D-07
   211  2.1000000000000D+00  1.7251122005205D-07 -2.9394970845255D-07
   212  2.1100000000000D+00  4.7692123633215D-08 -8.1264777057612D-08
   213  2.1200000000000D+00  0.0000000000000D+00  0.0000000000000D+00
   214  2.1300000000000D+00  0.0000000000000D+00  0.0000000000000D+00
   215  2.1400000000000D+00  0.0000000000000D+00  0.0000000000000D+00
   216  2.1500000000000D+00  0.0000000000000D+00  0.0000000000000D+00
   217  2.1600000000000D+00  0.0000000000000D+00  0.0000000000000D+00
   218  2.1700000000000D+00  0.0000000000000D+00  0.0000000000000D+00
   219  2.1800000000000D+00  0.0000000000000D+00  0.0000000000000D+00
   220  2.1900000000000D+00  0.0000000000000D+00  0.0000000000000D+00
   221  2.2000000000000D+00  0.0000000000000D+00  0.0000000000000D+00
   222  2.2100000000000D+00  0.0000000000000D+00  0.0000000000000D+00
   223  2.2200000000000D+00  0.0000000000000D+00  0.0000000000000D+00
   224  2.2300000000000D+00  0.0000000000000D+00  0.0000000000000D+00
   225  2.2400000000000D+00  0.0000000000000D+00  0.0000000000000D+00
   226  2.2500000000000D+00  0.0000000000000D+00  0.0000000000000D+00
   227  2.2600000000000D+00  0.0000000000000D+00  0.0000000000000D+00
   228  2.2700000000000D+00  0.0000000000000D+00  0.0000000000000D+00
   229  2.2800000000000D+00  0.0000000000000D+00  0.0000000000000D+00
   230  2.2900000000000D+00  0.0000000000000D+00  0.0000000000000D+00
   231  2.3000000000000D+00  0.0000000000000D+00  0.0000000000000D+00
   232  2.3100000000000D+00  0.0000000000000D+00  0.0000000000000D+00
   233  2.3200000000000D+00  0.0000000000000D+00  0.0000000000000D+00
   234  2.3300000000000D+00  0.0000000000000D+00  0.0000000000000D+00
   235  2.3400000000000D+00  0.0000000000000D+00  0.0000000000000D+00
   236  2.3500000000000D+00  0.0000000000000D+00  0.0000000000000D+00
   237  2.3600000000000D+00  0.0000000000000D+00  0.0000000000000D+00
   238  2.3700000000000D+00  0.0000000000000D+00  0.0000000000000D+00
   239  2.3800000000000D+00  0.0000000000000D+00  0.0000000000000D+00
   240  2.3900000000000D+00  0.0000000000000D+00  0.0000000000000D+00
   241  2.4000000000000D+00  0.0000000000000D+00  0.0000000000000D+00
   242  2.4100000000000D+00  0.0000000000000D+00  0.0000000000000D+00
   243  2.4200000000000D+00  0.0000000000000D+00  0.0000000000000D+00
   244  2.4300000000000D+00  0.0000000000000D+00  0.0000000000000D+00
   245  2.4400000000000D+00  0.0000000000000D+00  0.0000000000000D+00
   246  2.4500000000000D+00  0.0000000000000D+00  0.0000000000000D+00
   247  2.4600000000000D+00  0.0000000000000D+00  0.0000000000000D+00
   248  2.4700000000000D+00  0.0000000000000D+00  0.0000000000000D+00
   249  2.4800000000000D+00  0.0000000000000D+00  0.0000000000000D+00
   250  2.4900000000000D+00  0.0000000000000D+00  0.0000000000000D+00
   251  2.5000000000000D+00  0.0000000000000D+00  0.0000000000000D+00
   252  2.5100000000000D+00  0.0000000000000D+00  0.0000000000000D+00
   253  2.5200000000000D+00  0.0000000000000D+00  0.0000000000000D+00
   254  2.5300000000000D+00  0.0000000000000D+00  0.0000000000000D+00
   255  2.5400000000000D+00  0.0000000000000D+00  0.0000000000000D+00
   256  2.5500000000000D+00  0.0000000000000D+00  0.0000000000000D+00
   257  2.5600000000000D+00  0.0000000000000D+00  0.0000000000000D+00
   258  2.5700000000000D+00  0.0000000000000D+00  0.0000000000000D+00
   259  2.5800000000000D+00  0.0000000000000D+00  0.0000000000000D+00
   260  2.5900000000000D+00  0.0000000000000D+00  0.0000000000000D+00
   261  2.6000000000000D+00  0.0000000000000D+00  0.0000000000000D+00
   262  2.6100000000000D+00  0.0000000000000D+00  0.0000000000000D+00
   263  2.6200000000000D+00  0.0000000000000D+00  0.0000000000000D+00
   264  2.6300000000000D+00  0.0000000000000D+00  0.0000000000000D+00
   265  2.6400000000000D+00  0.0000000000000D+00  0.0000000000000D+00
   266  2.6500000000000D+00  0.0000000000000D+00  0.0000000000000D+00
   267  2.6600000000000D+00  0.0000000000000D+00  0.0000000000000D+00
   268  2.6700000000000D+00  0.0000000000000D+00  0.0000000000000D+00
   269  2.6800000000000D+00  0.0000000000000D+00  0.0000000000000D+00
   270  2.6900000000000D+00  0.0000000000000D+00  0.0000000000000D+00
   271  2.7000000000000D+00  0.0000000000000D+00  0.0000000000000D+00
   272  2.7100000000000D+00  0.0000000000000D+00  0.0000000000000D+00
   273  2.7200000000000D+00  0.0000000000000D+00  0.0000000000000D+00
   274  2.7300000000000D+00  0.0000000000000D+00  0.0000000000000D+00
   275  2.7400000000000D+00  0.0000000000000D+00  0.0000000000000D+00
   276  2.7500000000000D+00  0.0000000000000D+00  0.0000000000000D+00
   277  2.7600000000000D+00  0.0000000000000D+00  0.0000000000000D+00
   278  2.7700000000000D+00  0.0000000000000D+00  0.0000000000000D+00
   279  2.7800000000000D+00  0.0000000000000D+00  0.0000000000000D+00
   280  2.7900000000000D+00  0.0000000000000D+00  0.0000000000000D+00
   281  2.8000000000000D+00  0.0000000000000D+00  0.0000000000000D+00
   282  2.8100000000000D+00  0.0000000000000D+00  0.0000000000000D+00
   283  2.8200000000000D+00  0.0000000000000D+00  0.0000000000000D+00
   284  2.8300000000000D+00  0.0000000000000D+00  0.0000000000000D+00
   285  2.8400000000000D+00  0.0000000000000D+00  0.0000000000000D+00
   286  2.8500000000000D+00  0.0000000000000D+00  0.0000000000000D+00
   287  2.8600000000000D+00  0.0000000000000D+00  0.0000000000000D+00
   288  2.8700000000000D+00  0.0000000000000D+00  0.0000000000000D+00
   289  2.8800000000000D+00  0.0000000000000D+00  0.0000000000000D+00
   290  2.8900000000000D+00  0.0000000000000D+00  0.0000000000000D+00
   291  2.9000000000000D+00  0.0000000000000D+00  0.0000000000000D+00
   292  2.9100000000000D+00  0.0000000000000D+00  0.0000000000000D+00
   293  2.9200000000000D+00  0.0000000000000D+00  0.0000000000000D+00
   294  2.9300000000000D+00  0.0000000000000D+00  0.0000000000000D+00
   295  2.9400000000000D+00  0.0000000000000D+00  0.0000000000000D+00
   296  2.9500000000000D+00  0.0000000000000D+00  0.0000000000000D+00
   297  2.9600000000000D+00  0.0000000000000D+00  0.0000000000000D+00
   298  2.9700000000000D+00  0.0000000000000D+00  0.0000000000000D+00
   299  2.9800000000000D+00  0.0000000000000D+00  0.0000000000000D+00
   300  2.9900000000000D+00  0.0000000000000D+00  0.0000000000000D+00
   301  3.0000000000000D+00  0.0000000000000D+00  0.0000000000000D+00
   302  3.0100000000000D+00  0.0000000000000D+00  0.0000000000000D+00
   303  3.0200000000000D+00  0.0000000000000D+00  0.0000000000000D+00
   304  3.0300000000000D+00  0.0000000000000D+00  0.0000000000000D+00
   305  3.0400000000000D+00  0.0000000000000D+00  0.0000000000000D+00
   306  3.0500000000000D+00  0.0000000000000D+00  0.0000000000000D+00
   307  3.0600000000000D+00  0.0000000000000D+00  0.0000000000000D+00
   308  3.0700000000000D+00  0.0000000000000D+00  0.0000000000000D+00
   309  3.0800000000000D+00  0.0000000000000D+00  0.0000000000000D+00
   310  3.0900000000000D+00  0.0000000000000D+00  0.0000000000000D+00
   311  3.1000000000000D+00  0.0000000000000D+00  0.0000000000000D+00
   312  3.1100000000000D+00  0.0000000000000D+00  0.0000000000000D+00
   313  3.1200000000000D+00  0.0000000000000D+00  0.0000000000000D+00
   314  3.1300000000000D+00  0.0000000000000D+00  0.0000000000000D+00
   315  3.1400000000000D+00  0.0000000000000D+00  0.0000000000000D+00
   316  3.1500000000000D+00  0.0000000000000D+00  0.0000000000000D+00
   317  3.1600000000000D+00  0.0000000000000D+00  0.0000000000000D+00
   318  3.1700000000000D+00  0.0000000000000D+00  0.0000000000000D+00
   319  3.1800000000000D+00  0.0000000000000D+00  0.0000000000000D+00
   320  3.1900000000000D+00  0.0000000000000D+00  0.0000000000000D+00
   321  3.2000000000000D+00  0.0000000000000D+00  0.0000000000000D+00
   322  3.2100000000000D+00  0.0000000000000D+00  0.0000000000000D+00
   323  3.2200000000000D+00  0.0000000000000D+00  0.0000000000000D+00
   324  3.2300000000000D+00  0.0000000000000D+00  0.0000000000000D+00
   325  3.2400000000000D+00  0.0000000000000D+00  0.0000000000000D+00
   326  3.2500000000000D+00  0.0000000000000D+00  0.0000000000000D+00
   327  3.2600000000000D+00  0.0000000000000D+00  0.0000000000000D+00
   328  3.2700000000000D+00  0.0000000000000D+00  0.0000000000000D+00
   329  3.2800000000000D+00  0.0000000000000D+00  0.0000000000000D+00
   330  3.2900000000000D+00  0.0000000000000D+00  0.0000000000000D+00
   331  3.3000000000000D+00  0.0000000000000D+00  0.0000000000000D+00
   332  3.3100000000000D+00  0.0000000000000D+00  0.0000000000000D+00
   333  3.3200000000000D+00  0.0000000000000D+00  0.0000000000000D+00
   334  3.3300000000000D+00  0.0000000000000D+00  0.0000000000000D+00
   335  3.3400000000000D+00  0.0000000000000D+00  0.0000000000000D+00
   336  3.3500000000000D+00  0.0000000000000D+00  0.0000000000000D+00
   337  3.3600000000000D+00  0.0000000000000D+00  0.0000000000000D+00
   338  3.3700000000000D+00  0.0000000000000D+00  0.0000000000000D+00
   339  3.3800000000000D+00  0.0000000000000D+00  0.0000000000000D+00
   340  3.3900000000000D+00  0.0000000000000D+00  0.0000000000000D+00
   341  3.4000000000000D+00  0.0000000000000D+00  0.0000000000000D+00
   342  3.4100000000000D+00  0.0000000000000D+00  0.0000000000000D+00
   343  3.4200000000000D+00  0.0000000000000D+00  0.0000000000000D+00
   344  3.4300000000000D+00  0.0000000000000D+00  0.0000000000000D+00
   345  3.4400000000000D+00  0.0000000000000D+00  0.0000000000000D+00
   346  3.4500000000000D+00  0.0000000000000D+00  0.0000000000000D+00
   347  3.4600000000000D+00  0.0000000000000D+00  0.0000000000000D+00
   348  3.4700000000000D+00  0.0000000000000D+00  0.0000000000000D+00
   349  3.4800000000000D+00  0.0000000000000D+00  0.0000000000000D+00
   350  3.4900000000000D+00  0.0000000000000D+00  0.0000000000000D+00
   351  3.5000000000000D+00  0.0000000000000D+00  0.0000000000000D+00
   352  3.5100000000000D+00  0.0000000000000D+00  0.0000000000000D+00
   353  3.5200000000000D+00  0.0000000000000D+00  0.0000000000000D+00
   354  3.5300000000000D+00  0.0000000000000D+00  0.0000000000000D+00
   355  3.5400000000000D+00  0.0000000000000D+00  0.0000000000000D+00
   356  3.5500000000000D+00  0.0000000000000D+00  0.0000000000000D+00
   357  3.5600000000000D+00  0.0000000000000D+00  0.0000000000000D+00
   358  3.5700000000000D+00  0.0000000000000D+00  0.0000000000000D+00
   359  3.5800000000000D+00  0.0000000000000D+00  0.0000000000000D+00
   360  3.5900000000000D+00  0.0000000000000D+00  0.0000000000000D+00
   361  3.6000000000000D+00  0.0000000000000D+00  0.0000000000000D+00
   362  3.6100000000000D+00  0.0000000000000D+00  0.0000000000000D+00
   363  3.6200000000000D+00  0.0000000000000D+00  0.0000000000000D+00
   364  3.6300000000000D+00  0.0000000000000D+00  0.0000000000000D+00
   365  3.6400000000000D+00  0.0000000000000D+00  0.0000000000000D+00
   366  3.6500000000000D+00  0.0000000000000D+00  0.0000000000000D+00
   367  3.6600000000000D+00  0.0000000000000D+00  0.0000000000000D+00
   368  3.6700000000000D+00  0.0000000000000D+00  0.0000000000000D+00
   369  3.6800000000000D+00  0.0000000000000D+00  0.0000000000000D+00
   370  3.6900000000000D+00  0.0000000000000D+00  0.0000000000000D+00
   371  3.7000000000000D+00  0.0000000000000D+00  0.0000000000000D+00
   372  3.7100000000000D+00  0.0000000000000D+00  0.0000000000000D+00
   373  3.7200000000000D+00  0.0000000000000D+00  0.0000000000000D+00
   374  3.7300000000000D+00  0.0000000000000D+00  0.0000000000000D+00
   375  3.7400000000000D+00  0.0000000000000D+00  0.0000000000000D+00
   376  3.7500000000000D+00  0.0000000000000D+00  0.0000000000000D+00
   377  3.7600000000000D+00  0.0000000000000D+00  0.0000000000000D+00
   378  3.7700000000000D+00  0.0000000000000D+00  0.0000000000000D+00
   379  3.7800000000000D+00  0.0000000000000D+00  0.0000000000000D+00
   380  3.7900000000000D+00  0.0000000000000D+00  0.0000000000000D+00
   381  3.8000000000000D+00  0.0000000000000D+00  0.0000000000000D+00
   382  3.8100000000000D+00  0.0000000000000D+00  0.0000000000000D+00
   383  3.8200000000000D+00  0.0000000000000D+00  0.0000000000000D+00
   384  3.8300000000000D+00  0.0000000000000D+00  0.0000000000000D+00
   385  3.8400000000000D+00  0.0000000000000D+00  0.0000000000000D+00
   386  3.8500000000000D+00  0.0000000000000D+00  0.0000000000000D+00
   387  3.8600000000000D+00  0.0000000000000D+00  0.0000000000000D+00
   388  3.8700000000000D+00  0.0000000000000D+00  0.0000000000000D+00
   389  3.8800000000000D+00  0.0000000000000D+00  0.0000000000000D+00
   390  3.8900000000000D+00  0.0000000000000D+00  0.0000000000000D+00
   391  3.9000000000000D+00  0.0000000000000D+00  0.0000000000000D+00
   392  3.9100000000000D+00  0.0000000000000D+00  0.0000000000000D+00
   393  3.9200000000000D+00  0.0000000000000D+00  0.0000000000000D+00
   394  3.9300000000000D+00  0.0000000000000D+00  0.0000000000000D+00
   395  3.9400000000000D+00  0.0000000000000D+00  0.0000000000000D+00
   396  3.9500000000000D+00  0.0000000000000D+00  0.0000000000000D+00
   397  3.9600000000000D+00  0.0000000000000D+00  0.0000000000000D+00
   398  3.9700000000000D+00  0.0000000000000D+00  0.0000000000000D+00
   399  3.9800000000000D+00  0.0000000000000D+00  0.0000000000000D+00
   400  3.9900000000000D+00  0.0000000000000D+00  0.0000000000000D+00
   401  4.0000000000000D+00  0.0000000000000D+00  0.0000000000000D+00
   402  4.0100000000000D+00  0.0000000000000D+00  0.0000000000000D+00
   403  4.0200000000000D+00  0.0000000000000D+00  0.0000000000000D+00
   404  4.0300000000000D+00  0.0000000000000D+00  0.0000000000000D+00
   405  4.0400000000000D+00  0.0000000000000D+00  0.0000000000000D+00
   406  4.0500000000000D+00  0.0000000000000D+00  0.0000000000000D+00
   407  4.0600000000000D+00  0.0000000000000D+00  0.0000000000000D+00
   408  4.0700000000000D+00  0.0000000000000D+00  0.0000000000000D+00
   409  4.0800000000000D+00  0.0000000000000D+00  0.0000000000000D+00
   410  4.0900000000000D+00  0.0000000000000D+00  0.0000000000000D+00
   411  4.1000000000000D+00  0.0000000000000D+00  0.0000000000000D+00
   412  4.1100000000000D+00  0.0000000000000D+00  0.0000000000000D+00
   413  4.1200000000000D+00  0.0000000000000D+00  0.0000000000000D+00
   414  4.1300000000000D+00  0.0000000000000D+00  0.0000000000000D+00
   415  4.1400000000000D+00  0.0000000000000D+00  0.0000000000000D+00
   416  4.1500000000000D+00  0.0000000000000D+00  0.0000000000000D+00
   417  4.1600000000000D+00  0.0000000000000D+00  0.0000000000000D+00
   418  4.1700000000000D+00  0.0000000000000D+00  0.0000000000000D+00
   419  4.1800000000000D+00  0.0000000000000D+00  0.0000000000000D+00
   420  4.1900000000000D+00  0.0000000000000D+00  0.0000000000000D+00
   421  4.2000000000000D+00  0.0000000000000D+00  0.0000000000000D+00
   422  4.2100000000000D+00  0.0000000000000D+00  0.0000000000000D+00
   423  4.2200000000000D+00  0.0000000000000D+00  0.0000000000000D+00