Hf    ONCVPSP-3.3.1  r_core=   1.93355   2.12716   2.05238   3.04240
     72.0000     26.0000      210904    zatom,zion,pspd
     8       2   3     4   600     0    pspcod,pspxc,lmax,lloc,mmax,r2well
  5.99000000  0.00000000  0.00000000    rchrg fchrg qchrg
     2     4     3     2    nproj
     3     1           extension_switch
     4     4     3    nprojso
   0                        -1.7917522704847D-01  1.0069239553368D+01
     1  0.0000000000000D+00  2.2242541142248D-11 -7.5056627579784D-12
     2  1.0000000000000D-02 -4.9740591495450D-03  6.7841964720379D-02
     3  2.0000000000000D-02 -9.9280500443808D-03  1.3555074101166D-01
     4  3.0000000000000D-02 -1.4841927283309D-02  2.0299348110502D-01
     5  4.0000000000000D-02 -1.9695690848935D-02  2.7003801762818D-01
     6  5.0000000000000D-02 -2.4469407997212D-02  3.3655320149529D-01
     7  6.0000000000000D-02 -2.9143234200142D-02  4.0240923703216D-01
     8  7.0000000000000D-02 -3.3697432852364D-02  4.6747801342383D-01
     9  8.0000000000000D-02 -3.8112393474616D-02  5.3163343157932D-01
    10  9.0000000000000D-02 -4.2368648174264D-02  5.9475172551747D-01
    11  1.0000000000000D-01 -4.6446886154969D-02  6.5671177738952D-01
    12  1.1000000000000D-01 -5.0327966103912D-02  7.1739542526718D-01
    13  1.2000000000000D-01 -5.3992926324894D-02  7.7668776284029D-01
    14  1.3000000000000D-01 -5.7422992529200D-02  8.3447743018557D-01
    15  1.4000000000000D-01 -6.0599583242340D-02  8.9065689478734D-01
    16  1.5000000000000D-01 -6.3504312832921D-02  9.4512272201246D-01
    17  1.6000000000000D-01 -6.6118992220395D-02  9.9777583426548D-01
    18  1.7000000000000D-01 -6.8425627368921D-02  1.0485217580755D+00
    19  1.8000000000000D-01 -7.0406415726061D-02  1.0972708583943D+00
    20  1.9000000000000D-01 -7.2043740815831D-02  1.1439385594149D+00
    21  2.0000000000000D-01 -7.3320165245182D-02  1.1884455512534D+00
    22  2.1000000000000D-01 -7.4218422431098D-02  1.2307179818679D+00
    23  2.2000000000000D-01 -7.4721407400805D-02  1.2706876336306D+00
    24  2.3000000000000D-01 -7.4812167060173D-02  1.3082920840011D+00
    25  2.4000000000000D-01 -7.4473890363583D-02  1.3434748497965D+00
    26  2.5000000000000D-01 -7.3689898853146D-02  1.3761855145921D+00
    27  2.6000000000000D-01 -7.2443638064336D-02  1.4063798388339D+00
    28  2.7000000000000D-01 -7.0718670318639D-02  1.4340198522917D+00
    29  2.8000000000000D-01 -6.8498669442342D-02  1.4590739285298D+00
    30  2.9000000000000D-01 -6.5767417961406D-02  1.4815168411233D+00
    31  3.0000000000000D-01 -6.2508807327940D-02  1.5013298014020D+00
    32  3.1000000000000D-01 -5.8706841730967D-02  1.5185004775579D+00
    33  3.2000000000000D-01 -5.4345646035545D-02  1.5330229950080D+00
    34  3.3000000000000D-01 -4.9409478377030D-02  1.5448979179627D+00
    35  3.4000000000000D-01 -4.3882747913355D-02  1.5541322122082D+00
    36  3.5000000000000D-01 -3.7750038206828D-02  1.5607391891706D+00
    37  3.6000000000000D-01 -3.0996136667894D-02  1.5647384313933D+00
    38  3.7000000000000D-01 -2.3606070447305D-02  1.5661556996154D+00
    39  3.8000000000000D-01 -1.5565149110351D-02  1.5650228217066D+00
    40  3.9000000000000D-01 -6.8590143673097D-03  1.5613775637729D+00
    41  4.0000000000000D-01  2.5263029316170D-03  1.5552634838094D+00
    42  4.1000000000000D-01  1.2604318399410D-02  1.5467297683420D+00
    43  4.2000000000000D-01  2.3388022253266D-02  1.5358310525562D+00
    44  4.3000000000000D-01  3.4889800013322D-02  1.5226272244763D+00
    45  4.4000000000000D-01  4.7121345864636D-02  1.5071832138169D+00
    46  4.5000000000000D-01  6.0093568875498D-02  1.4895687661839D+00
    47  4.6000000000000D-01  7.3816492355181D-02  1.4698582033637D+00
    48  4.7000000000000D-01  8.8299146726340D-02  1.4481301704911D+00
    49  4.8000000000000D-01  1.0354945637951D-01  1.4244673709385D+00
    50  4.9000000000000D-01  1.1957412106859D-01  1.3989562898213D+00
    51  5.0000000000000D-01  1.3637849249839D-01  1.3716869070597D+00
    52  5.1000000000000D-01  1.5396644684176D-01  1.3427524009819D+00
    53  5.2000000000000D-01  1.7234025401203D-01  1.3122488434953D+00
    54  5.3000000000000D-01  1.9150044459564D-01  1.2802748878878D+00
    55  5.4000000000000D-01  2.1144567542804D-01  1.2469314503555D+00
    56  5.5000000000000D-01  2.3217259486576D-01  1.2123213863830D+00
    57  5.6000000000000D-01  2.5367570887223D-01  1.1765491631267D+00
    58  5.7000000000000D-01  2.7594724909079D-01  1.1397205289704D+00
    59  5.8000000000000D-01  2.9897704412712D-01  1.1019421814417D+00
    60  5.9000000000000D-01  3.2275239530177D-01  1.0633214346838D+00
    61  6.0000000000000D-01  3.4725795816385D-01  1.0239658876880D+00
    62  6.1000000000000D-01  3.7247563107461D-01  9.8398309448757D-01
    63  6.2000000000000D-01  3.9838445217933D-01  9.4348023751405D-01
    64  6.3000000000000D-01  4.2496050608250D-01  9.0256380530265D-01
    65  6.4000000000000D-01  4.5217684152601D-01  8.6133927572127D-01
    66  6.5000000000000D-01  4.8000340134509D-01  8.1991080587551D-01
    67  6.6000000000000D-01  5.0840696593722D-01  7.7838092981633D-01
    68  6.7000000000000D-01  5.3735111142958D-01  7.3685026514626D-01
    69  6.8000000000000D-01  5.6679618366794D-01  6.9541722958309D-01
    70  6.9000000000000D-01  5.9669928907625D-01  6.5417776849921D-01
    71  7.0000000000000D-01  6.2701430335024D-01  6.1322509440800D-01
    72  7.1000000000000D-01  6.5769189885155D-01  5.7264943931791D-01
    73  7.2000000000000D-01  6.8867959146245D-01  5.3253782081934D-01
    74  7.3000000000000D-01  7.1992180754209D-01  4.9297382270938D-01
    75  7.4000000000000D-01  7.5135997150090D-01  4.5403739089630D-01
    76  7.5000000000000D-01  7.8293261437183D-01  4.1580464525744D-01
    77  7.6000000000000D-01  8.1457550361632D-01  3.7834770805372D-01
    78  7.7000000000000D-01  8.4622179425136D-01  3.4173454942996D-01
    79  7.8000000000000D-01  8.7780220123004D-01  3.0602885045355D-01
    80  7.9000000000000D-01  9.0924519284699D-01  2.7128988406500D-01
    81  8.0000000000000D-01  9.4047720477688D-01  2.3757241423321D-01
    82  8.1000000000000D-01  9.7142287418887D-01  2.0492661352600D-01
    83  8.2000000000000D-01  1.0020052932132D+00  1.7339799922279D-01
    84  8.3000000000000D-01  1.0321462808703D+00  1.4302738801286D-01
    85  8.4000000000000D-01  1.0617666724080D+00  1.1385086923796D-01
    86  8.5000000000000D-01  1.0907866248318D+00  8.5899796554494D-02
    87  8.6000000000000D-01  1.1191259372569D+00  5.9200797807423D-02
    88  8.7000000000000D-01  1.1467043845590D+00  3.3775802825937D-02
    89  8.8000000000000D-01  1.1734420626575D+00  9.6420887708829D-03
    90  8.9000000000000D-01  1.1992597436308D+00 -1.3187657414271D-02
    91  9.0000000000000D-01  1.2240792387367D+00 -3.4705259972908D-02
    92  9.1000000000000D-01  1.2478237672971D+00 -5.4906959321478D-02
    93  9.2000000000000D-01  1.2704183293046D+00 -7.3793301718451D-02
    94  9.3000000000000D-01  1.2917900795189D+00 -9.1369014347381D-02
    95  9.4000000000000D-01  1.3118687007468D+00 -1.0764286660692D-01
    96  9.5000000000000D-01  1.3305867739397D+00 -1.2262751845764D-01
    97  9.6000000000000D-01  1.3478801426993D+00 -1.3633935672785D-01
    98  9.7000000000000D-01  1.3636882697553D+00 -1.4879832032748D-01
    99  9.8000000000000D-01  1.3779545829687D+00 -1.6002771536137D-01
   100  9.9000000000000D-01  1.3906268084225D+00 -1.7005402116918D-01
   101  1.0000000000000D+00  1.4016572881905D+00 -1.7890668835017D-01
   102  1.0100000000000D+00  1.4110032804126D+00 -1.8661792985491D-01
   103  1.0200000000000D+00  1.4186272393762D+00 -1.9322250624568D-01
   104  1.0300000000000D+00  1.4244970733765D+00 -1.9875750623902D-01
   105  1.0400000000000D+00  1.4285863782333D+00 -2.0326212365066D-01
   106  1.0500000000000D+00  1.4308746444542D+00 -2.0677743186309D-01
   107  1.0600000000000D+00  1.4313474361759D+00 -2.0934615692922D-01
   108  1.0700000000000D+00  1.4299965401489D+00 -2.1101245041587D-01
   109  1.0800000000000D+00  1.4268200832173D+00 -2.1182166307003D-01
   110  1.0900000000000D+00  1.4218226169128D+00 -2.1182012036894D-01
   111  1.1000000000000D+00  1.4150151679828D+00 -2.1105490098450D-01
   112  1.1100000000000D+00  1.4064152538857D+00 -2.0957361915627D-01
   113  1.1200000000000D+00  1.3960468624768D+00 -2.0742421193307D-01
   114  1.1300000000000D+00  1.3839403953826D+00 -2.0465473218987D-01
   115  1.1400000000000D+00  1.3701325747607D+00 -2.0131314828311D-01
   116  1.1500000000000D+00  1.3546663134260D+00 -1.9744715114635D-01
   117  1.1600000000000D+00  1.3375905485030D+00 -1.9310396958671D-01
   118  1.1700000000000D+00  1.3189600391082D+00 -1.8833019445999D-01
   119  1.1800000000000D+00  1.2988351287719D+00 -1.8317161234961D-01
   120  1.1900000000000D+00  1.2772814735662D+00 -1.7767304930621D-01
   121  1.2000000000000D+00  1.2543697371480D+00 -1.7187822514194D-01
   122  1.2100000000000D+00  1.2301752542240D+00 -1.6582961868713D-01
   123  1.2200000000000D+00  1.2047776641877D+00 -1.5956834434332D-01
   124  1.2300000000000D+00  1.1782605168014D+00 -1.5313404023223D-01
   125  1.2400000000000D+00  1.1507108522003D+00 -1.4656476811145D-01
   126  1.2500000000000D+00  1.1222187576327D+00 -1.3989692517652D-01
   127  1.2600000000000D+00  1.0928769034870D+00 -1.3316516782433D-01
   128  1.2700000000000D+00  1.0627800614723D+00 -1.2640234733908D-01
   129  1.2800000000000D+00  1.0320246079669D+00 -1.1963945739388D-01
   130  1.2900000000000D+00  1.0007080156142D+00 -1.1290559323823D-01
   131  1.3000000000000D+00  9.6892833651154D-01 -1.0622792232641D-01
   132  1.3100000000000D+00  9.3678368042928D-01 -9.9631666075325D-02
   133  1.3200000000000D+00  9.0437169151019D-01 -9.3140092443288D-02
   134  1.3300000000000D+00  8.7178902712291D-01 -8.6774518889693D-02
   135  1.3400000000000D+00  8.3913084249549D-01 -8.0554325238870D-02
   136  1.3500000000000D+00  8.0649028482326D-01 -7.4496975990538D-02
   137  1.3600000000000D+00  7.7395800058910D-01 -6.8618051459726D-02
   138  1.3700000000000D+00  7.4162165973560D-01 -6.2931287178474D-02
   139  1.3800000000000D+00  7.0956550044814D-01 -5.7448620935884D-02
   140  1.3900000000000D+00  6.7786989802042D-01 -5.2180246757623D-02
   141  1.4000000000000D+00  6.4661096143487D-01 -4.7134675174956D-02
   142  1.4100000000000D+00  6.1586016105363D-01 -4.2318799044424D-02
   143  1.4200000000000D+00  5.8568399053052D-01 -3.7737964206046D-02
   144  1.4300000000000D+00  5.5614366643505D-01 -3.3396044243210D-02
   145  1.4400000000000D+00  5.2729486806522D-01 -2.9295518601672D-02
   146  1.4500000000000D+00  4.9918752063404D-01 -2.5437553331241D-02
   147  1.4600000000000D+00  4.7186562415489D-01 -2.1822083705919D-02
   148  1.4700000000000D+00  4.4536713019388D-01 -1.8447898025292D-02
   149  1.4800000000000D+00  4.1972386911249D-01 -1.5312721832282D-02
   150  1.4900000000000D+00  3.9496152861197D-01 -1.2413301947895D-02
   151  1.5000000000000D+00  3.7109968633857D-01 -9.7454895402604D-03
   152  1.5100000000000D+00  3.4815189652671D-01 -7.3043217100231D-03
   153  1.5200000000000D+00  3.2612583255786D-01 -5.0841008930866D-03
   154  1.5300000000000D+00  3.0502348554278D-01 -3.0784715543737D-03
   155  1.5400000000000D+00  2.8484141919395D-01 -1.2804936599814D-03
   156  1.5500000000000D+00  2.6557108155397D-01  3.1728765708215D-04
   157  1.5600000000000D+00  2.4719917207107D-01  1.7227765080550D-03
   158  1.5700000000000D+00  2.2970806507578D-01  2.9442654011335D-03
   159  1.5800000000000D+00  2.1307628645292D-01  3.9903791422004D-03
   160  1.5900000000000D+00  1.9727904477205D-01  4.8700241989674D-03
   161  1.6000000000000D+00  1.8228881262895D-01  5.5923433501441D-03
   162  1.6100000000000D+00  1.6807595876015D-01  6.1666762407967D-03
   163  1.6200000000000D+00  1.5460942656347D-01  6.6025256214126D-03
   164  1.6300000000000D+00  1.4185745841841D-01  6.9095297081412D-03
   165  1.6400000000000D+00  1.2978836150536D-01  7.0974404311549D-03
   166  1.6500000000000D+00  1.1837131345709D-01  7.1761078248228D-03
   167  1.6600000000000D+00  1.0757721749841D-01  7.1554712119459D-03
   168  1.6700000000000D+00  9.7379527513527D-02  7.0455522963501D-03
   169  1.6800000000000D+00  8.7755283137211D-02  6.8564658735048D-03
   170  1.6900000000000D+00  7.8685754138615D-02  6.5984084262475D-03
   171  1.7000000000000D+00  7.0157173900989D-02  6.2816577647121D-03
   172  1.7100000000000D+00  6.2163499946640D-02  5.9167075612692D-03
   173  1.7200000000000D+00  5.4706063569712D-02  5.5142028122121D-03
   174  1.7300000000000D+00  4.7789112322184D-02  5.0846191462247D-03
   175  1.7400000000000D+00  4.1416885191991D-02  4.6380332623241D-03
   176  1.7500000000000D+00  3.5589608607411D-02  4.1838083082914D-03
   177  1.7600000000000D+00  3.0300483446416D-02  3.7303497094013D-03
   178  1.7700000000000D+00  2.5538054006796D-02  3.2852076499618D-03
   179  1.7800000000000D+00  2.1287245351955D-02  2.8550947860155D-03
   180  1.7900000000000D+00  1.7528935655316D-02  2.4458211774286D-03
   181  1.8000000000000D+00  1.4240784883081D-02  2.0623103515083D-03
   182  1.8100000000000D+00  1.1397538316458D-02  1.7085869991703D-03
   183  1.8200000000000D+00  8.9714751206905D-03  1.3877777677578D-03
   184  1.8300000000000D+00  6.9328078035965D-03  1.1021127880035D-03
   185  1.8400000000000D+00  5.2500635979273D-03  8.5292975435873D-04
   186  1.8500000000000D+00  3.8904389229993D-03  6.4067972057066D-04
   187  1.8600000000000D+00  2.8201297893365D-03  4.6493476127534D-04
   188  1.8700000000000D+00  2.0051049144554D-03  3.2442110460686D-04
   189  1.8800000000000D+00  1.4098335720397D-03  2.1694979323364D-04
   190  1.8900000000000D+00  9.9587878309654D-04  1.3928587238079D-04
   191  1.9000000000000D+00  7.2764958168141D-04  8.7506171351018D-05
   192  1.9100000000000D+00  5.8920573280609D-04  5.8391219054380D-05
   193  1.9200000000000D+00  5.6472030076884D-04  4.8153997999087D-05
   194  1.9300000000000D+00  5.3169709045523D-04  4.3094648104094D-05
   195  1.9400000000000D+00  3.7310595640146D-04  3.0061558375375D-05
   196  1.9500000000000D+00  1.3677006152340D-04  1.1057945282589D-05
   197  1.9600000000000D+00 -2.9711747803398D-05 -2.3591481177295D-06
   198  1.9700000000000D+00 -4.8009018309135D-05 -3.8091182515598D-06
   199  1.9800000000000D+00 -1.2867817288065D-06 -1.0210087449803D-07
   200  1.9900000000000D+00  1.1589986577797D-05  9.0928736646692D-07
   201  2.0000000000000D+00  5.3446390482442D-06  4.1864368105312D-07
   202  2.0100000000000D+00 -1.0824944148880D-06 -8.7519567834459D-08
   203  2.0200000000000D+00 -1.1833915333144D-06 -9.5677090015611D-08
   204  2.0300000000000D+00  0.0000000000000D+00  0.0000000000000D+00
   205  2.0400000000000D+00  0.0000000000000D+00  0.0000000000000D+00
   206  2.0500000000000D+00  0.0000000000000D+00  0.0000000000000D+00
   207  2.0600000000000D+00  0.0000000000000D+00  0.0000000000000D+00
   208  2.0700000000000D+00  0.0000000000000D+00  0.0000000000000D+00
   209  2.0800000000000D+00  0.0000000000000D+00  0.0000000000000D+00
   210  2.0900000000000D+00  0.0000000000000D+00  0.0000000000000D+00
   211  2.1000000000000D+00  0.0000000000000D+00  0.0000000000000D+00
   212  2.1100000000000D+00  0.0000000000000D+00  0.0000000000000D+00
   213  2.1200000000000D+00  0.0000000000000D+00  0.0000000000000D+00
   214  2.1300000000000D+00  0.0000000000000D+00  0.0000000000000D+00
   215  2.1400000000000D+00  0.0000000000000D+00  0.0000000000000D+00
   216  2.1500000000000D+00  0.0000000000000D+00  0.0000000000000D+00
   217  2.1600000000000D+00  0.0000000000000D+00  0.0000000000000D+00
   218  2.1700000000000D+00  0.0000000000000D+00  0.0000000000000D+00
   219  2.1800000000000D+00  0.0000000000000D+00  0.0000000000000D+00
   220  2.1900000000000D+00  0.0000000000000D+00  0.0000000000000D+00
   221  2.2000000000000D+00  0.0000000000000D+00  0.0000000000000D+00
   222  2.2100000000000D+00  0.0000000000000D+00  0.0000000000000D+00
   223  2.2200000000000D+00  0.0000000000000D+00  0.0000000000000D+00
   224  2.2300000000000D+00  0.0000000000000D+00  0.0000000000000D+00
   225  2.2400000000000D+00  0.0000000000000D+00  0.0000000000000D+00
   226  2.2500000000000D+00  0.0000000000000D+00  0.0000000000000D+00
   227  2.2600000000000D+00  0.0000000000000D+00  0.0000000000000D+00
   228  2.2700000000000D+00  0.0000000000000D+00  0.0000000000000D+00
   229  2.2800000000000D+00  0.0000000000000D+00  0.0000000000000D+00
   230  2.2900000000000D+00  0.0000000000000D+00  0.0000000000000D+00
   231  2.3000000000000D+00  0.0000000000000D+00  0.0000000000000D+00
   232  2.3100000000000D+00  0.0000000000000D+00  0.0000000000000D+00
   233  2.3200000000000D+00  0.0000000000000D+00  0.0000000000000D+00
   234  2.3300000000000D+00  0.0000000000000D+00  0.0000000000000D+00
   235  2.3400000000000D+00  0.0000000000000D+00  0.0000000000000D+00
   236  2.3500000000000D+00  0.0000000000000D+00  0.0000000000000D+00
   237  2.3600000000000D+00  0.0000000000000D+00  0.0000000000000D+00
   238  2.3700000000000D+00  0.0000000000000D+00  0.0000000000000D+00
   239  2.3800000000000D+00  0.0000000000000D+00  0.0000000000000D+00
   240  2.3900000000000D+00  0.0000000000000D+00  0.0000000000000D+00
   241  2.4000000000000D+00  0.0000000000000D+00  0.0000000000000D+00
   242  2.4100000000000D+00  0.0000000000000D+00  0.0000000000000D+00
   243  2.4200000000000D+00  0.0000000000000D+00  0.0000000000000D+00
   244  2.4300000000000D+00  0.0000000000000D+00  0.0000000000000D+00
   245  2.4400000000000D+00  0.0000000000000D+00  0.0000000000000D+00
   246  2.4500000000000D+00  0.0000000000000D+00  0.0000000000000D+00
   247  2.4600000000000D+00  0.0000000000000D+00  0.0000000000000D+00
   248  2.4700000000000D+00  0.0000000000000D+00  0.0000000000000D+00
   249  2.4800000000000D+00  0.0000000000000D+00  0.0000000000000D+00
   250  2.4900000000000D+00  0.0000000000000D+00  0.0000000000000D+00
   251  2.5000000000000D+00  0.0000000000000D+00  0.0000000000000D+00
   252  2.5100000000000D+00  0.0000000000000D+00  0.0000000000000D+00
   253  2.5200000000000D+00  0.0000000000000D+00  0.0000000000000D+00
   254  2.5300000000000D+00  0.0000000000000D+00  0.0000000000000D+00
   255  2.5400000000000D+00  0.0000000000000D+00  0.0000000000000D+00
   256  2.5500000000000D+00  0.0000000000000D+00  0.0000000000000D+00
   257  2.5600000000000D+00  0.0000000000000D+00  0.0000000000000D+00
   258  2.5700000000000D+00  0.0000000000000D+00  0.0000000000000D+00
   259  2.5800000000000D+00  0.0000000000000D+00  0.0000000000000D+00
   260  2.5900000000000D+00  0.0000000000000D+00  0.0000000000000D+00
   261  2.6000000000000D+00  0.0000000000000D+00  0.0000000000000D+00
   262  2.6100000000000D+00  0.0000000000000D+00  0.0000000000000D+00
   263  2.6200000000000D+00  0.0000000000000D+00  0.0000000000000D+00
   264  2.6300000000000D+00  0.0000000000000D+00  0.0000000000000D+00
   265  2.6400000000000D+00  0.0000000000000D+00  0.0000000000000D+00
   266  2.6500000000000D+00  0.0000000000000D+00  0.0000000000000D+00
   267  2.6600000000000D+00  0.0000000000000D+00  0.0000000000000D+00
   268  2.6700000000000D+00  0.0000000000000D+00  0.0000000000000D+00
   269  2.6800000000000D+00  0.0000000000000D+00  0.0000000000000D+00
   270  2.6900000000000D+00  0.0000000000000D+00  0.0000000000000D+00
   271  2.7000000000000D+00  0.0000000000000D+00  0.0000000000000D+00
   272  2.7100000000000D+00  0.0000000000000D+00  0.0000000000000D+00
   273  2.7200000000000D+00  0.0000000000000D+00  0.0000000000000D+00
   274  2.7300000000000D+00  0.0000000000000D+00  0.0000000000000D+00
   275  2.7400000000000D+00  0.0000000000000D+00  0.0000000000000D+00
   276  2.7500000000000D+00  0.0000000000000D+00  0.0000000000000D+00
   277  2.7600000000000D+00  0.0000000000000D+00  0.0000000000000D+00
   278  2.7700000000000D+00  0.0000000000000D+00  0.0000000000000D+00
   279  2.7800000000000D+00  0.0000000000000D+00  0.0000000000000D+00
   280  2.7900000000000D+00  0.0000000000000D+00  0.0000000000000D+00
   281  2.8000000000000D+00  0.0000000000000D+00  0.0000000000000D+00
   282  2.8100000000000D+00  0.0000000000000D+00  0.0000000000000D+00
   283  2.8200000000000D+00  0.0000000000000D+00  0.0000000000000D+00
   284  2.8300000000000D+00  0.0000000000000D+00  0.0000000000000D+00
   285  2.8400000000000D+00  0.0000000000000D+00  0.0000000000000D+00
   286  2.8500000000000D+00  0.0000000000000D+00  0.0000000000000D+00
   287  2.8600000000000D+00  0.0000000000000D+00  0.0000000000000D+00
   288  2.8700000000000D+00  0.0000000000000D+00  0.0000000000000D+00
   289  2.8800000000000D+00  0.0000000000000D+00  0.0000000000000D+00
   290  2.8900000000000D+00  0.0000000000000D+00  0.0000000000000D+00
   291  2.9000000000000D+00  0.0000000000000D+00  0.0000000000000D+00
   292  2.9100000000000D+00  0.0000000000000D+00  0.0000000000000D+00
   293  2.9200000000000D+00  0.0000000000000D+00  0.0000000000000D+00
   294  2.9300000000000D+00  0.0000000000000D+00  0.0000000000000D+00
   295  2.9400000000000D+00  0.0000000000000D+00  0.0000000000000D+00
   296  2.9500000000000D+00  0.0000000000000D+00  0.0000000000000D+00
   297  2.9600000000000D+00  0.0000000000000D+00  0.0000000000000D+00
   298  2.9700000000000D+00  0.0000000000000D+00  0.0000000000000D+00
   299  2.9800000000000D+00  0.0000000000000D+00  0.0000000000000D+00
   300  2.9900000000000D+00  0.0000000000000D+00  0.0000000000000D+00
   301  3.0000000000000D+00  0.0000000000000D+00  0.0000000000000D+00
   302  3.0100000000000D+00  0.0000000000000D+00  0.0000000000000D+00
   303  3.0200000000000D+00  0.0000000000000D+00  0.0000000000000D+00
   304  3.0300000000000D+00  0.0000000000000D+00  0.0000000000000D+00
   305  3.0400000000000D+00  0.0000000000000D+00  0.0000000000000D+00
   306  3.0500000000000D+00  0.0000000000000D+00  0.0000000000000D+00
   307  3.0600000000000D+00  0.0000000000000D+00  0.0000000000000D+00
   308  3.0700000000000D+00  0.0000000000000D+00  0.0000000000000D+00
   309  3.0800000000000D+00  0.0000000000000D+00  0.0000000000000D+00
   310  3.0900000000000D+00  0.0000000000000D+00  0.0000000000000D+00
   311  3.1000000000000D+00  0.0000000000000D+00  0.0000000000000D+00
   312  3.1100000000000D+00  0.0000000000000D+00  0.0000000000000D+00
   313  3.1200000000000D+00  0.0000000000000D+00  0.0000000000000D+00
   314  3.1300000000000D+00  0.0000000000000D+00  0.0000000000000D+00
   315  3.1400000000000D+00  0.0000000000000D+00  0.0000000000000D+00
   316  3.1500000000000D+00  0.0000000000000D+00  0.0000000000000D+00
   317  3.1600000000000D+00  0.0000000000000D+00  0.0000000000000D+00
   318  3.1700000000000D+00  0.0000000000000D+00  0.0000000000000D+00
   319  3.1800000000000D+00  0.0000000000000D+00  0.0000000000000D+00
   320  3.1900000000000D+00  0.0000000000000D+00  0.0000000000000D+00
   321  3.2000000000000D+00  0.0000000000000D+00  0.0000000000000D+00
   322  3.2100000000000D+00  0.0000000000000D+00  0.0000000000000D+00
   323  3.2200000000000D+00  0.0000000000000D+00  0.0000000000000D+00
   324  3.2300000000000D+00  0.0000000000000D+00  0.0000000000000D+00
   325  3.2400000000000D+00  0.0000000000000D+00  0.0000000000000D+00
   326  3.2500000000000D+00  0.0000000000000D+00  0.0000000000000D+00
   327  3.2600000000000D+00  0.0000000000000D+00  0.0000000000000D+00
   328  3.2700000000000D+00  0.0000000000000D+00  0.0000000000000D+00
   329  3.2800000000000D+00  0.0000000000000D+00  0.0000000000000D+00
   330  3.2900000000000D+00  0.0000000000000D+00  0.0000000000000D+00
   331  3.3000000000000D+00  0.0000000000000D+00  0.0000000000000D+00
   332  3.3100000000000D+00  0.0000000000000D+00  0.0000000000000D+00
   333  3.3200000000000D+00  0.0000000000000D+00  0.0000000000000D+00
   334  3.3300000000000D+00  0.0000000000000D+00  0.0000000000000D+00
   335  3.3400000000000D+00  0.0000000000000D+00  0.0000000000000D+00
   336  3.3500000000000D+00  0.0000000000000D+00  0.0000000000000D+00
   337  3.3600000000000D+00  0.0000000000000D+00  0.0000000000000D+00
   338  3.3700000000000D+00  0.0000000000000D+00  0.0000000000000D+00
   339  3.3800000000000D+00  0.0000000000000D+00  0.0000000000000D+00
   340  3.3900000000000D+00  0.0000000000000D+00  0.0000000000000D+00
   341  3.4000000000000D+00  0.0000000000000D+00  0.0000000000000D+00
   342  3.4100000000000D+00  0.0000000000000D+00  0.0000000000000D+00
   343  3.4200000000000D+00  0.0000000000000D+00  0.0000000000000D+00
   344  3.4300000000000D+00  0.0000000000000D+00  0.0000000000000D+00
   345  3.4400000000000D+00  0.0000000000000D+00  0.0000000000000D+00
   346  3.4500000000000D+00  0.0000000000000D+00  0.0000000000000D+00
   347  3.4600000000000D+00  0.0000000000000D+00  0.0000000000000D+00
   348  3.4700000000000D+00  0.0000000000000D+00  0.0000000000000D+00
   349  3.4800000000000D+00  0.0000000000000D+00  0.0000000000000D+00
   350  3.4900000000000D+00  0.0000000000000D+00  0.0000000000000D+00
   351  3.5000000000000D+00  0.0000000000000D+00  0.0000000000000D+00
   352  3.5100000000000D+00  0.0000000000000D+00  0.0000000000000D+00
   353  3.5200000000000D+00  0.0000000000000D+00  0.0000000000000D+00
   354  3.5300000000000D+00  0.0000000000000D+00  0.0000000000000D+00
   355  3.5400000000000D+00  0.0000000000000D+00  0.0000000000000D+00
   356  3.5500000000000D+00  0.0000000000000D+00  0.0000000000000D+00
   357  3.5600000000000D+00  0.0000000000000D+00  0.0000000000000D+00
   358  3.5700000000000D+00  0.0000000000000D+00  0.0000000000000D+00
   359  3.5800000000000D+00  0.0000000000000D+00  0.0000000000000D+00
   360  3.5900000000000D+00  0.0000000000000D+00  0.0000000000000D+00
   361  3.6000000000000D+00  0.0000000000000D+00  0.0000000000000D+00
   362  3.6100000000000D+00  0.0000000000000D+00  0.0000000000000D+00
   363  3.6200000000000D+00  0.0000000000000D+00  0.0000000000000D+00
   364  3.6300000000000D+00  0.0000000000000D+00  0.0000000000000D+00
   365  3.6400000000000D+00  0.0000000000000D+00  0.0000000000000D+00
   366  3.6500000000000D+00  0.0000000000000D+00  0.0000000000000D+00
   367  3.6600000000000D+00  0.0000000000000D+00  0.0000000000000D+00
   368  3.6700000000000D+00  0.0000000000000D+00  0.0000000000000D+00
   369  3.6800000000000D+00  0.0000000000000D+00  0.0000000000000D+00
   370  3.6900000000000D+00  0.0000000000000D+00  0.0000000000000D+00
   371  3.7000000000000D+00  0.0000000000000D+00  0.0000000000000D+00
   372  3.7100000000000D+00  0.0000000000000D+00  0.0000000000000D+00
   373  3.7200000000000D+00  0.0000000000000D+00  0.0000000000000D+00
   374  3.7300000000000D+00  0.0000000000000D+00  0.0000000000000D+00
   375  3.7400000000000D+00  0.0000000000000D+00  0.0000000000000D+00
   376  3.7500000000000D+00  0.0000000000000D+00  0.0000000000000D+00
   377  3.7600000000000D+00  0.0000000000000D+00  0.0000000000000D+00
   378  3.7700000000000D+00  0.0000000000000D+00  0.0000000000000D+00
   379  3.7800000000000D+00  0.0000000000000D+00  0.0000000000000D+00
   380  3.7900000000000D+00  0.0000000000000D+00  0.0000000000000D+00
   381  3.8000000000000D+00  0.0000000000000D+00  0.0000000000000D+00
   382  3.8100000000000D+00  0.0000000000000D+00  0.0000000000000D+00
   383  3.8200000000000D+00  0.0000000000000D+00  0.0000000000000D+00
   384  3.8300000000000D+00  0.0000000000000D+00  0.0000000000000D+00
   385  3.8400000000000D+00  0.0000000000000D+00  0.0000000000000D+00
   386  3.8500000000000D+00  0.0000000000000D+00  0.0000000000000D+00
   387  3.8600000000000D+00  0.0000000000000D+00  0.0000000000000D+00
   388  3.8700000000000D+00  0.0000000000000D+00  0.0000000000000D+00
   389  3.8800000000000D+00  0.0000000000000D+00  0.0000000000000D+00
   390  3.8900000000000D+00  0.0000000000000D+00  0.0000000000000D+00
   391  3.9000000000000D+00  0.0000000000000D+00  0.0000000000000D+00
   392  3.9100000000000D+00  0.0000000000000D+00  0.0000000000000D+00
   393  3.9200000000000D+00  0.0000000000000D+00  0.0000000000000D+00
   394  3.9300000000000D+00  0.0000000000000D+00  0.0000000000000D+00
   395  3.9400000000000D+00  0.0000000000000D+00  0.0000000000000D+00
   396  3.9500000000000D+00  0.0000000000000D+00  0.0000000000000D+00
   397  3.9600000000000D+00  0.0000000000000D+00  0.0000000000000D+00
   398  3.9700000000000D+00  0.0000000000000D+00  0.0000000000000D+00
   399  3.9800000000000D+00  0.0000000000000D+00  0.0000000000000D+00
   400  3.9900000000000D+00  0.0000000000000D+00  0.0000000000000D+00
   401  4.0000000000000D+00  0.0000000000000D+00  0.0000000000000D+00
   402  4.0100000000000D+00  0.0000000000000D+00  0.0000000000000D+00
   403  4.0200000000000D+00  0.0000000000000D+00  0.0000000000000D+00
   404  4.0300000000000D+00  0.0000000000000D+00  0.0000000000000D+00
   405  4.0400000000000D+00  0.0000000000000D+00  0.0000000000000D+00
   406  4.0500000000000D+00  0.0000000000000D+00  0.0000000000000D+00
   407  4.0600000000000D+00  0.0000000000000D+00  0.0000000000000D+00
   408  4.0700000000000D+00  0.0000000000000D+00  0.0000000000000D+00
   409  4.0800000000000D+00  0.0000000000000D+00  0.0000000000000D+00
   410  4.0900000000000D+00  0.0000000000000D+00  0.0000000000000D+00
   411  4.1000000000000D+00  0.0000000000000D+00  0.0000000000000D+00
   412  4.1100000000000D+00  0.0000000000000D+00  0.0000000000000D+00
   413  4.1200000000000D+00  0.0000000000000D+00  0.0000000000000D+00
   414  4.1300000000000D+00  0.0000000000000D+00  0.0000000000000D+00
   415  4.1400000000000D+00  0.0000000000000D+00  0.0000000000000D+00
   416  4.1500000000000D+00  0.0000000000000D+00  0.0000000000000D+00
   417  4.1600000000000D+00  0.0000000000000D+00  0.0000000000000D+00
   418  4.1700000000000D+00  0.0000000000000D+00  0.0000000000000D+00
   419  4.1800000000000D+00  0.0000000000000D+00  0.0000000000000D+00
   420  4.1900000000000D+00  0.0000000000000D+00  0.0000000000000D+00
   421  4.2000000000000D+00  0.0000000000000D+00  0.0000000000000D+00
   422  4.2100000000000D+00  0.0000000000000D+00  0.0000000000000D+00