Hg    ONCVPSP-3.3.1  r_core=   2.34483   2.34483   2.18287   3.27466
     80.0000     20.0000      210904    zatom,zion,pspd
     8       2   3     4   600     0    pspcod,pspxc,lmax,lloc,mmax,r2well
  5.99000000  0.00000000  0.00000000    rchrg fchrg qchrg
     2     4     4     3    nproj
     3     1           extension_switch
     4     4     4    nprojso
   0                         6.4117648041147D-01  4.5602467215221D+00
     1  0.0000000000000D+00 -2.1896241764185D-11  1.1423639811881D-12
     2  1.0000000000000D-02  5.7403920616441D-03  5.9097799621386D-02
     3  2.0000000000000D-02  1.1485846480133D-02  1.1809454118611D-01
     4  3.0000000000000D-02  1.7241518944477D-02  1.7688934798373D-01
     5  4.0000000000000D-02  2.3012750919742D-02  2.3538170575192D-01
     6  5.0000000000000D-02  2.8805160319965D-02  2.9347164328952D-01
     7  6.0000000000000D-02  3.4624729538424D-02  3.5105991233548D-01
     8  7.0000000000000D-02  4.0477889980209D-02  4.0804816646766D-01
     9  8.0000000000000D-02  4.6371602263882D-02  4.6433913877430D-01
    10  9.0000000000000D-02  5.2313431286274D-02  5.1983681804961D-01
    11  1.0000000000000D-01  5.8311615376755D-02  5.7444662326311D-01
    12  1.1000000000000D-01  6.4375128804535D-02  6.2807557605083D-01
    13  1.2000000000000D-01  7.0513736944674D-02  6.8063247097437D-01
    14  1.3000000000000D-01  7.6738043454934D-02  7.3202804329140D-01
    15  1.4000000000000D-01  8.3059528866581D-02  7.8217513397965D-01
    16  1.5000000000000D-01  8.9490580046931D-02  8.3098885175336D-01
    17  1.6000000000000D-01  9.6044510050253D-02  8.7838673180957D-01
    18  1.7000000000000D-01  1.0273556793551D-01  9.2428889103901D-01
    19  1.8000000000000D-01  1.0957893819458D-01  9.6861817943438D-01
    20  1.9000000000000D-01  1.1659072950237D-01  1.0113003274268D+00
    21  2.0000000000000D-01  1.2378795257058D-01  1.0522640888797D+00
    22  2.1000000000000D-01  1.3118848695893D-01  1.0914413794672D+00
    23  2.2000000000000D-01  1.3881103677143D-01  1.1287674101638D+00
    24  2.3000000000000D-01  1.4667507524046D-01  1.1641808155715D+00
    25  2.4000000000000D-01  1.5480077827682D-01  1.1976237768087D+00
    26  2.5000000000000D-01  1.6320894714033D-01  1.2290421386869D+00
    27  2.6000000000000D-01  1.7192092046130D-01  1.2583855209027D+00
    28  2.7000000000000D-01  1.8095847591899D-01  1.2856074229711D+00
    29  2.8000000000000D-01  1.9034372195731D-01  1.3106653226317D+00
    30  2.9000000000000D-01  2.0009897999172D-01  1.3335207674600D+00
    31  3.0000000000000D-01  2.1024665763217D-01  1.3541394594219D+00
    32  3.1000000000000D-01  2.2080911351648D-01  1.3724913321102D+00
    33  3.2000000000000D-01  2.3180851441495D-01  1.3885506204140D+00
    34  3.3000000000000D-01  2.4326668533032D-01  1.4022959223705D+00
    35  3.4000000000000D-01  2.5520495337768D-01  1.4137102529648D+00
    36  3.5000000000000D-01  2.6764398628469D-01  1.4227810896437D+00
    37  3.6000000000000D-01  2.8060362640502D-01  1.4295004093266D+00
    38  3.7000000000000D-01  2.9410272118521D-01  1.4338647167027D+00
    39  3.8000000000000D-01  3.0815895106796D-01  1.4358750636179D+00
    40  3.9000000000000D-01  3.2278865585256D-01  1.4355370593679D+00
    41  4.0000000000000D-01  3.3800666056539D-01  1.4328608717292D+00
    42  4.1000000000000D-01  3.5382610191964D-01  1.4278612185737D+00
    43  4.2000000000000D-01  3.7025825646465D-01  1.4205573499320D+00
    44  4.3000000000000D-01  3.8731237153929D-01  1.4109730203868D+00
    45  4.4000000000000D-01  4.0499550015247D-01  1.3991364516991D+00
    46  4.5000000000000D-01  4.2331234091580D-01  1.3850802855891D+00
    47  4.6000000000000D-01  4.4226508414887D-01  1.3688415266166D+00
    48  4.7000000000000D-01  4.6185326526666D-01  1.3504614751280D+00
    49  4.8000000000000D-01  4.8207362654109D-01  1.3299856502624D+00
    50  4.9000000000000D-01  5.0291998830433D-01  1.3074637030318D+00
    51  5.0000000000000D-01  5.2438313063138D-01  1.2829493195214D+00
    52  5.1000000000000D-01  5.4645068650165D-01  1.2565001142763D+00
    53  5.2000000000000D-01  5.6910704739677D-01  1.2281775139764D+00
    54  5.3000000000000D-01  5.9233328224131D-01  1.1980466315231D+00
    55  5.4000000000000D-01  6.1610707053875D-01  1.1661761306955D+00
    56  5.5000000000000D-01  6.4040265049263D-01  1.1326380815626D+00
    57  5.6000000000000D-01  6.6519078283686D-01  1.0975078068657D+00
    58  5.7000000000000D-01  6.9043873102699D-01  1.0608637196206D+00
    59  5.8000000000000D-01  7.1611025836720D-01  1.0227871522164D+00
    60  5.9000000000000D-01  7.4216564256670D-01  9.8336217732022D-01
    61  6.0000000000000D-01  7.6856170813352D-01  9.4267542092876D-01
    62  6.1000000000000D-01  7.9525187692470D-01  9.0081586793710D-01
    63  6.2000000000000D-01  8.2218623707912D-01  8.5787466062727D-01
    64  6.3000000000000D-01  8.4931163046408D-01  8.1394489050813D-01
    65  6.4000000000000D-01  8.7657175866910D-01  7.6912138396832D-01
    66  6.5000000000000D-01  9.0390730748070D-01  7.2350048223248D-01
    67  6.6000000000000D-01  9.3125608967157D-01  6.7717981613924D-01
    68  6.7000000000000D-01  9.5855320583563D-01  6.3025807628597D-01
    69  6.8000000000000D-01  9.8573122289895D-01  5.8283477911123D-01
    70  6.9000000000000D-01  1.0127203698348D+00  5.3501002951015D-01
    71  7.0000000000000D-01  1.0394487500112D+00  4.8688428060062D-01
    72  7.1000000000000D-01  1.0658425694997D+00  4.3855809127960D-01
    73  7.2000000000000D-01  1.0918263805768D+00  3.9013188222808D-01
    74  7.3000000000000D-01  1.1173233395573D+00  3.4170569104075D-01
    75  7.4000000000000D-01  1.1422554780035D+00  2.9337892717166D-01
    76  7.5000000000000D-01  1.1665439862711D+00  2.4525012740074D-01
    77  7.6000000000000D-01  1.1901095082655D+00  1.9741671253643D-01
    78  7.7000000000000D-01  1.2128724462075D+00  1.4997474607856D-01
    79  7.8000000000000D-01  1.2347532741292D+00  1.0301869557121D-01
    80  7.9000000000000D-01  1.2556728587580D+00  5.6641197379024D-02
    81  8.0000000000000D-01  1.2755527863820D+00  1.0932825620488D-02
    82  8.1000000000000D-01  1.2943156942357D+00 -3.4018134009915D-02
    83  8.2000000000000D-01  1.3118856048984D+00 -7.8125904804103D-02
    84  8.3000000000000D-01  1.3281882621537D+00 -1.2130743326850D-01
    85  8.4000000000000D-01  1.3431514667293D+00 -1.6348259630982D-01
    86  8.5000000000000D-01  1.3567054103069D+00 -2.0457440068422D-01
    87  8.6000000000000D-01  1.3687830061779D+00 -2.4450917403208D-01
    88  8.7000000000000D-01  1.3793202149095D+00 -2.8321674684027D-01
    89  8.8000000000000D-01  1.3882563633860D+00 -3.2063062469634D-01
    90  8.9000000000000D-01  1.3955344555984D+00 -3.5668815022400D-01
    91  9.0000000000000D-01  1.4011014735697D+00 -3.9133065411794D-01
    92  9.1000000000000D-01  1.4049086668316D+00 -4.2450359472631D-01
    93  9.2000000000000D-01  1.4069118288973D+00 -4.5615668566297D-01
    94  9.3000000000000D-01  1.4070715592215D+00 -4.8624401096757D-01
    95  9.4000000000000D-01  1.4053535091851D+00 -5.1472412736999D-01
    96  9.5000000000000D-01  1.4017286107009D+00 -5.4156015325610D-01
    97  9.6000000000000D-01  1.3961732861043D+00 -5.6671984397516D-01
    98  9.7000000000000D-01  1.3886696380631D+00 -5.9017565317354D-01
    99  9.8000000000000D-01  1.3792056183229D+00 -6.1190477988609D-01
   100  9.9000000000000D-01  1.3677751741934D+00 -6.3188920116585D-01
   101  1.0000000000000D+00  1.3543783717681D+00 -6.5011569007989D-01
   102  1.0100000000000D+00  1.3390214949766D+00 -6.6657581895302D-01
   103  1.0200000000000D+00  1.3217171196695D+00 -6.8126594779096D-01
   104  1.0300000000000D+00  1.3024841620458D+00 -6.9418719786793D-01
   105  1.0400000000000D+00  1.2813479008452D+00 -7.0534541051635D-01
   106  1.0500000000000D+00  1.2583399728526D+00 -7.1475109121171D-01
   107  1.0600000000000D+00  1.2334983413674D+00 -7.2241933909496D-01
   108  1.0700000000000D+00  1.2068672374289D+00 -7.2836976213274D-01
   109  1.0800000000000D+00  1.1784970737054D+00 -7.3262637816637D-01
   110  1.0900000000000D+00  1.1484443310801D+00 -7.3521750215196D-01
   111  1.1000000000000D+00  1.1167714181014D+00 -7.3617561994963D-01
   112  1.1100000000000D+00  1.0835465035699D+00 -7.3553724906005D-01
   113  1.1200000000000D+00  1.0488433226863D+00 -7.3334278676728D-01
   114  1.1300000000000D+00  1.0127409572859D+00 -7.2963634618461D-01
   115  1.1400000000000D+00  9.7532359082371D-01 -7.2446558075153D-01
   116  1.1500000000000D+00  9.3668023886482D-01 -7.1788149776396D-01
   117  1.1600000000000D+00  8.9690445597768D-01 -7.0993826156959D-01
   118  1.1700000000000D+00  8.5609402001883D-01 -7.0069298709264D-01
   119  1.1800000000000D+00  8.1435059491851D-01 -6.9020552439173D-01
   120  1.1900000000000D+00  7.7177937313687D-01 -6.7853823497506D-01
   121  1.2000000000000D+00  7.2848869910502D-01 -6.6575576064248D-01
   122  1.2100000000000D+00  6.8458967501891D-01 -6.5192478563894D-01
   123  1.2200000000000D+00  6.4019575043049D-01 -6.3711379292544D-01
   124  1.2300000000000D+00  5.9542229716207D-01 -6.2139281539671D-01
   125  1.2400000000000D+00  5.5038617113851D-01 -6.0483318288927D-01
   126  1.2500000000000D+00  5.0520526277004D-01 -5.8750726583030D-01
   127  1.2600000000000D+00  4.5999803756657D-01 -5.6948821638908D-01
   128  1.2700000000000D+00  4.1488306872050D-01 -5.5084970799655D-01
   129  1.2800000000000D+00  3.6997856339619D-01 -5.3166567409171D-01
   130  1.2900000000000D+00  3.2540188449790D-01 -5.1201004696089D-01
   131  1.3000000000000D+00  2.8126906969936D-01 -4.9195649751614D-01
   132  1.3100000000000D+00  2.3769434949824D-01 -4.7157817684813D-01
   133  1.3200000000000D+00  1.9478966608353D-01 -4.5094746039062D-01
   134  1.3300000000000D+00  1.5266419474403D-01 -4.3013569548305D-01
   135  1.3400000000000D+00  1.1142386954147D-01 -4.0921295311944D-01
   136  1.3500000000000D+00  7.1170914958870D-02 -3.8824778465130D-01
   137  1.3600000000000D+00  3.2003385101320D-02 -3.6730698413490D-01
   138  1.3700000000000D+00 -5.9852879012059D-03 -3.4645535705455D-01
   139  1.3800000000000D+00 -4.2706734795323D-02 -3.2575549605934D-01
   140  1.3900000000000D+00 -7.8078078015419D-02 -3.0526756430434D-01
   141  1.4000000000000D+00 -1.1202234689218D-01 -2.8504908704316D-01
   142  1.4100000000000D+00 -1.4446887813740D-01 -2.6515475191764D-01
   143  1.4200000000000D+00 -1.7535370028283D-01 -2.4563621849574D-01
   144  1.4300000000000D+00 -2.0461990097752D-01 -2.2654193748951D-01
   145  1.4400000000000D+00 -2.3221797628073D-01 -2.0791697997900D-01
   146  1.4500000000000D+00 -2.5810616077581D-01 -1.8980287711184D-01
   147  1.4600000000000D+00 -2.8225073804742D-01 -1.7223747041141D-01
   148  1.4700000000000D+00 -3.0462633055045D-01 -1.5525477306773D-01
   149  1.4800000000000D+00 -3.2521616847127D-01 -1.3888484231743D-01
   150  1.4900000000000D+00 -3.4401233714321D-01 -1.2315366304188D-01
   151  1.5000000000000D+00 -3.6101601070198D-01 -1.0808304032327D-01
   152  1.5100000000000D+00 -3.7623763337329D-01 -9.3690512144270D-02
   153  1.5200000000000D+00 -3.8969714317222D-01 -7.9989254744832D-02
   154  1.5300000000000D+00 -4.0142381480080D-01 -6.6988105580923D-02
   155  1.5400000000000D+00 -4.1145734066675D-01 -5.4691222215176D-02
   156  1.5500000000000D+00 -4.1984723161940D-01 -4.3098247895418D-02
   157  1.5600000000000D+00 -4.2664979946143D-01 -3.2205185470553D-02
   158  1.5700000000000D+00 -4.3192621835913D-01 -2.2004989419926D-02
   159  1.5800000000000D+00 -4.3573692431379D-01 -1.2489303832201D-02
   160  1.5900000000000D+00 -4.3814045133938D-01 -3.6488733159599D-03
   161  1.6000000000000D+00 -4.3921210551888D-01  4.5320947440714D-03
   162  1.6100000000000D+00 -4.3902512040526D-01  1.2070081321671D-02
   163  1.6200000000000D+00 -4.3758589650645D-01  1.8962353411864D-02
   164  1.6300000000000D+00 -4.3490545835043D-01  2.5208761965800D-02
   165  1.6400000000000D+00 -4.3111907996350D-01  3.0848231770277D-02
   166  1.6500000000000D+00 -4.2636665085810D-01  3.5922185756537D-02
   167  1.6600000000000D+00 -4.2069015290353D-01  4.0443225408489D-02
   168  1.6700000000000D+00 -4.1412223972340D-01  4.4422049659137D-02
   169  1.6800000000000D+00 -4.0673462428780D-01  4.7882109918374D-02
   170  1.6900000000000D+00 -3.9859947209024D-01  5.0847795691023D-02
   171  1.7000000000000D+00 -3.8977985922432D-01  5.3341471523363D-02
   172  1.7100000000000D+00 -3.8033941683646D-01  5.5386350594266D-02
   173  1.7200000000000D+00 -3.7034187580576D-01  5.7006298106929D-02
   174  1.7300000000000D+00 -3.5984977595188D-01  5.8225381189655D-02
   175  1.7400000000000D+00 -3.4892454578594D-01  5.9067837707742D-02
   176  1.7500000000000D+00 -3.3762634919578D-01  5.9557975830761D-02
   177  1.7600000000000D+00 -3.2601393586454D-01  5.9720076427267D-02
   178  1.7700000000000D+00 -3.1414449690468D-01  5.9578298912592D-02
   179  1.7800000000000D+00 -3.0207352551723D-01  5.9156590422996D-02
   180  1.7900000000000D+00 -2.8985468457136D-01  5.8478599063680D-02
   181  1.8000000000000D+00 -2.7753968085225D-01  5.7567591078884D-02
   182  1.8100000000000D+00 -2.6517814768842D-01  5.6446372609894D-02
   183  1.8200000000000D+00 -2.5281753572060D-01  5.5137215904008D-02
   184  1.8300000000000D+00 -2.4050301319258D-01  5.3661790495766D-02
   185  1.8400000000000D+00 -2.2827737576023D-01  5.2041099324922D-02
   186  1.8500000000000D+00 -2.1618096657148D-01  5.0295420055730D-02
   187  1.8600000000000D+00 -2.0425160714458D-01  4.8444251775874D-02
   188  1.8700000000000D+00 -1.9252453885310D-01  4.6506266965089D-02
   189  1.8800000000000D+00 -1.8103237637230D-01  4.4499269235346D-02
   190  1.8900000000000D+00 -1.6980507169337D-01  4.2440156265812D-02
   191  1.9000000000000D+00 -1.5886989093765D-01  4.0344888770579D-02
   192  1.9100000000000D+00 -1.4825140175750D-01  3.8228464610805D-02
   193  1.9200000000000D+00 -1.3797147351735D-01  3.6104898866704D-02
   194  1.9300000000000D+00 -1.2804928844875D-01  3.3987209145319D-02
   195  1.9400000000000D+00 -1.1850136474866D-01  3.1887406463261D-02
   196  1.9500000000000D+00 -1.0934159115202D-01  2.9816491495665D-02
   197  1.9600000000000D+00 -1.0058127213369D-01  2.7784455838395D-02
   198  1.9700000000000D+00 -9.2229184859310D-02  2.5800288675411D-02
   199  1.9800000000000D+00 -8.4291645408669D-02  2.3871987886525D-02
   200  1.9900000000000D+00 -7.6772586226728D-02  2.2006576295470D-02
   201  2.0000000000000D+00 -6.9673642191663D-02  2.0210122050012D-02
   202  2.0100000000000D+00 -6.2994246122335D-02  1.8487763404871D-02
   203  2.0200000000000D+00 -5.6731732762189D-02  1.6843737516129D-02
   204  2.0300000000000D+00 -5.0881450028186D-02  1.5281412764722D-02
   205  2.0400000000000D+00 -4.5436878139208D-02  1.3803324794339D-02
   206  2.0500000000000D+00 -4.0389754337100D-02  1.2411215395940D-02
   207  2.0600000000000D+00 -3.5730203846325D-02  1.1106074425682D-02
   208  2.0700000000000D+00 -3.1446875451736D-02  9.8881841374703D-03
   209  2.0800000000000D+00 -2.7527081087041D-02  8.7571656669452D-03
   210  2.0900000000000D+00 -2.3956938936916D-02  7.7120274375258D-03
   211  2.1000000000000D+00 -2.0721518728663D-02  6.7512149964375D-03
   212  2.1100000000000D+00 -1.7804988740091D-02  5.8726620315648D-03
   213  2.1200000000000D+00 -1.5190763565102D-02  5.0738422212935D-03
   214  2.1300000000000D+00 -1.2861651777457D-02  4.3518215524355D-03
   215  2.1400000000000D+00 -1.0800002484994D-02  3.7033106883101D-03
   216  2.1500000000000D+00 -8.9878505979275D-03  3.1247173395944D-03
   217  2.1600000000000D+00 -7.4070588817853D-03  2.6121978335869D-03
   218  2.1700000000000D+00 -6.0394570596658D-03  2.1617080046053D-03
   219  2.1800000000000D+00 -4.8669769156184D-03  1.7690529785818D-03
   220  2.1900000000000D+00 -3.8717816703782D-03  1.4299351536631D-03
   221  2.2000000000000D+00 -3.0363910121042D-03  1.1400009322561D-03
   222  2.2100000000000D+00 -2.3437987301765D-03  8.9488498232377D-04
   223  2.2200000000000D+00 -1.7775835634673D-03  6.9025226856779D-04
   224  2.2300000000000D+00 -1.3220137751990D-03  5.2183804929755D-04
   225  2.2400000000000D+00 -9.6214145843824D-04  3.8548425853035D-04
   226  2.2500000000000D+00 -6.8389016182949D-04  2.7717367923178D-04
   227  2.2600000000000D+00 -4.7413293972449D-04  1.9306076385098D-04
   228  2.2700000000000D+00 -3.2081718972372D-04  1.2949898857210D-04
   229  2.2800000000000D+00 -2.1281187367361D-04  8.3064279049431D-05
   230  2.2900000000000D+00 -1.4012582939643D-04  5.0573789323568D-05
   231  2.3000000000000D+00 -9.3630773942497D-05  2.9069426511573D-05
   232  2.3100000000000D+00 -6.6942193926691D-05  1.5994424323699D-05
   233  2.3200000000000D+00 -5.4562083866946D-05  9.0734733800726D-06
   234  2.3300000000000D+00 -5.0858095995227D-05  6.1976361433029D-06
   235  2.3400000000000D+00 -4.7334195610454D-05  5.1033276862155D-06
   236  2.3500000000000D+00 -3.7004789004070D-05  3.9562198467972D-06
   237  2.3600000000000D+00 -2.0260966314362D-05  2.2055770399023D-06
   238  2.3700000000000D+00 -3.9327148131031D-06  4.4018064615242D-07
   239  2.3800000000000D+00  3.8888356108458D-06 -4.0156841594572D-07
   240  2.3900000000000D+00  4.0290281852832D-06 -4.1795487865504D-07
   241  2.4000000000000D+00  5.7459525457659D-07 -5.9934708463243D-08
   242  2.4100000000000D+00 -8.8993224976103D-07  8.4531060456123D-08
   243  2.4200000000000D+00 -8.6425682452792D-07  8.1584743869513D-08
   244  2.4300000000000D+00 -2.5724594241542D-08  2.4157906724525D-09
   245  2.4400000000000D+00  1.1347350738912D-07 -1.2162943796501D-08
   246  2.4500000000000D+00  1.0190224404579D-07 -1.0922648780178D-08
   247  2.4600000000000D+00  0.0000000000000D+00  0.0000000000000D+00
   248  2.4700000000000D+00  0.0000000000000D+00  0.0000000000000D+00
   249  2.4800000000000D+00  0.0000000000000D+00  0.0000000000000D+00
   250  2.4900000000000D+00  0.0000000000000D+00  0.0000000000000D+00
   251  2.5000000000000D+00  0.0000000000000D+00  0.0000000000000D+00
   252  2.5100000000000D+00  0.0000000000000D+00  0.0000000000000D+00
   253  2.5200000000000D+00  0.0000000000000D+00  0.0000000000000D+00
   254  2.5300000000000D+00  0.0000000000000D+00  0.0000000000000D+00
   255  2.5400000000000D+00  0.0000000000000D+00  0.0000000000000D+00
   256  2.5500000000000D+00  0.0000000000000D+00  0.0000000000000D+00
   257  2.5600000000000D+00  0.0000000000000D+00  0.0000000000000D+00
   258  2.5700000000000D+00  0.0000000000000D+00  0.0000000000000D+00
   259  2.5800000000000D+00  0.0000000000000D+00  0.0000000000000D+00
   260  2.5900000000000D+00  0.0000000000000D+00  0.0000000000000D+00
   261  2.6000000000000D+00  0.0000000000000D+00  0.0000000000000D+00
   262  2.6100000000000D+00  0.0000000000000D+00  0.0000000000000D+00
   263  2.6200000000000D+00  0.0000000000000D+00  0.0000000000000D+00
   264  2.6300000000000D+00  0.0000000000000D+00  0.0000000000000D+00
   265  2.6400000000000D+00  0.0000000000000D+00  0.0000000000000D+00
   266  2.6500000000000D+00  0.0000000000000D+00  0.0000000000000D+00
   267  2.6600000000000D+00  0.0000000000000D+00  0.0000000000000D+00
   268  2.6700000000000D+00  0.0000000000000D+00  0.0000000000000D+00
   269  2.6800000000000D+00  0.0000000000000D+00  0.0000000000000D+00
   270  2.6900000000000D+00  0.0000000000000D+00  0.0000000000000D+00
   271  2.7000000000000D+00  0.0000000000000D+00  0.0000000000000D+00
   272  2.7100000000000D+00  0.0000000000000D+00  0.0000000000000D+00
   273  2.7200000000000D+00  0.0000000000000D+00  0.0000000000000D+00
   274  2.7300000000000D+00  0.0000000000000D+00  0.0000000000000D+00
   275  2.7400000000000D+00  0.0000000000000D+00  0.0000000000000D+00
   276  2.7500000000000D+00  0.0000000000000D+00  0.0000000000000D+00
   277  2.7600000000000D+00  0.0000000000000D+00  0.0000000000000D+00
   278  2.7700000000000D+00  0.0000000000000D+00  0.0000000000000D+00
   279  2.7800000000000D+00  0.0000000000000D+00  0.0000000000000D+00
   280  2.7900000000000D+00  0.0000000000000D+00  0.0000000000000D+00
   281  2.8000000000000D+00  0.0000000000000D+00  0.0000000000000D+00
   282  2.8100000000000D+00  0.0000000000000D+00  0.0000000000000D+00
   283  2.8200000000000D+00  0.0000000000000D+00  0.0000000000000D+00
   284  2.8300000000000D+00  0.0000000000000D+00  0.0000000000000D+00
   285  2.8400000000000D+00  0.0000000000000D+00  0.0000000000000D+00
   286  2.8500000000000D+00  0.0000000000000D+00  0.0000000000000D+00
   287  2.8600000000000D+00  0.0000000000000D+00  0.0000000000000D+00
   288  2.8700000000000D+00  0.0000000000000D+00  0.0000000000000D+00
   289  2.8800000000000D+00  0.0000000000000D+00  0.0000000000000D+00
   290  2.8900000000000D+00  0.0000000000000D+00  0.0000000000000D+00
   291  2.9000000000000D+00  0.0000000000000D+00  0.0000000000000D+00
   292  2.9100000000000D+00  0.0000000000000D+00  0.0000000000000D+00
   293  2.9200000000000D+00  0.0000000000000D+00  0.0000000000000D+00
   294  2.9300000000000D+00  0.0000000000000D+00  0.0000000000000D+00
   295  2.9400000000000D+00  0.0000000000000D+00  0.0000000000000D+00
   296  2.9500000000000D+00  0.0000000000000D+00  0.0000000000000D+00
   297  2.9600000000000D+00  0.0000000000000D+00  0.0000000000000D+00
   298  2.9700000000000D+00  0.0000000000000D+00  0.0000000000000D+00
   299  2.9800000000000D+00  0.0000000000000D+00  0.0000000000000D+00
   300  2.9900000000000D+00  0.0000000000000D+00  0.0000000000000D+00
   301  3.0000000000000D+00  0.0000000000000D+00  0.0000000000000D+00
   302  3.0100000000000D+00  0.0000000000000D+00  0.0000000000000D+00
   303  3.0200000000000D+00  0.0000000000000D+00  0.0000000000000D+00
   304  3.0300000000000D+00  0.0000000000000D+00  0.0000000000000D+00
   305  3.0400000000000D+00  0.0000000000000D+00  0.0000000000000D+00
   306  3.0500000000000D+00  0.0000000000000D+00  0.0000000000000D+00
   307  3.0600000000000D+00  0.0000000000000D+00  0.0000000000000D+00
   308  3.0700000000000D+00  0.0000000000000D+00  0.0000000000000D+00
   309  3.0800000000000D+00  0.0000000000000D+00  0.0000000000000D+00
   310  3.0900000000000D+00  0.0000000000000D+00  0.0000000000000D+00
   311  3.1000000000000D+00  0.0000000000000D+00  0.0000000000000D+00
   312  3.1100000000000D+00  0.0000000000000D+00  0.0000000000000D+00
   313  3.1200000000000D+00  0.0000000000000D+00  0.0000000000000D+00
   314  3.1300000000000D+00  0.0000000000000D+00  0.0000000000000D+00
   315  3.1400000000000D+00  0.0000000000000D+00  0.0000000000000D+00
   316  3.1500000000000D+00  0.0000000000000D+00  0.0000000000000D+00
   317  3.1600000000000D+00  0.0000000000000D+00  0.0000000000000D+00
   318  3.1700000000000D+00  0.0000000000000D+00  0.0000000000000D+00
   319  3.1800000000000D+00  0.0000000000000D+00  0.0000000000000D+00
   320  3.1900000000000D+00  0.0000000000000D+00  0.0000000000000D+00
   321  3.2000000000000D+00  0.0000000000000D+00  0.0000000000000D+00
   322  3.2100000000000D+00  0.0000000000000D+00  0.0000000000000D+00
   323  3.2200000000000D+00  0.0000000000000D+00  0.0000000000000D+00
   324  3.2300000000000D+00  0.0000000000000D+00  0.0000000000000D+00
   325  3.2400000000000D+00  0.0000000000000D+00  0.0000000000000D+00
   326  3.2500000000000D+00  0.0000000000000D+00  0.0000000000000D+00
   327  3.2600000000000D+00  0.0000000000000D+00  0.0000000000000D+00
   328  3.2700000000000D+00  0.0000000000000D+00  0.0000000000000D+00
   329  3.2800000000000D+00  0.0000000000000D+00  0.0000000000000D+00
   330  3.2900000000000D+00  0.0000000000000D+00  0.0000000000000D+00
   331  3.3000000000000D+00  0.0000000000000D+00  0.0000000000000D+00
   332  3.3100000000000D+00  0.0000000000000D+00  0.0000000000000D+00
   333  3.3200000000000D+00  0.0000000000000D+00  0.0000000000000D+00
   334  3.3300000000000D+00  0.0000000000000D+00  0.0000000000000D+00
   335  3.3400000000000D+00  0.0000000000000D+00  0.0000000000000D+00
   336  3.3500000000000D+00  0.0000000000000D+00  0.0000000000000D+00
   337  3.3600000000000D+00  0.0000000000000D+00  0.0000000000000D+00
   338  3.3700000000000D+00  0.0000000000000D+00  0.0000000000000D+00
   339  3.3800000000000D+00  0.0000000000000D+00  0.0000000000000D+00
   340  3.3900000000000D+00  0.0000000000000D+00  0.0000000000000D+00
   341  3.4000000000000D+00  0.0000000000000D+00  0.0000000000000D+00
   342  3.4100000000000D+00  0.0000000000000D+00  0.0000000000000D+00
   343  3.4200000000000D+00  0.0000000000000D+00  0.0000000000000D+00
   344  3.4300000000000D+00  0.0000000000000D+00  0.0000000000000D+00
   345  3.4400000000000D+00  0.0000000000000D+00  0.0000000000000D+00
   346  3.4500000000000D+00  0.0000000000000D+00  0.0000000000000D+00
   347  3.4600000000000D+00  0.0000000000000D+00  0.0000000000000D+00
   348  3.4700000000000D+00  0.0000000000000D+00  0.0000000000000D+00
   349  3.4800000000000D+00  0.0000000000000D+00  0.0000000000000D+00
   350  3.4900000000000D+00  0.0000000000000D+00  0.0000000000000D+00
   351  3.5000000000000D+00  0.0000000000000D+00  0.0000000000000D+00
   352  3.5100000000000D+00  0.0000000000000D+00  0.0000000000000D+00
   353  3.5200000000000D+00  0.0000000000000D+00  0.0000000000000D+00
   354  3.5300000000000D+00  0.0000000000000D+00  0.0000000000000D+00
   355  3.5400000000000D+00  0.0000000000000D+00  0.0000000000000D+00
   356  3.5500000000000D+00  0.0000000000000D+00  0.0000000000000D+00
   357  3.5600000000000D+00  0.0000000000000D+00  0.0000000000000D+00
   358  3.5700000000000D+00  0.0000000000000D+00  0.0000000000000D+00
   359  3.5800000000000D+00  0.0000000000000D+00  0.0000000000000D+00
   360  3.5900000000000D+00  0.0000000000000D+00  0.0000000000000D+00
   361  3.6000000000000D+00  0.0000000000000D+00  0.0000000000000D+00
   362  3.6100000000000D+00  0.0000000000000D+00  0.0000000000000D+00
   363  3.6200000000000D+00  0.0000000000000D+00  0.0000000000000D+00
   364  3.6300000000000D+00  0.0000000000000D+00  0.0000000000000D+00
   365  3.6400000000000D+00  0.0000000000000D+00  0.0000000000000D+00
   366  3.6500000000000D+00  0.0000000000000D+00  0.0000000000000D+00
   367  3.6600000000000D+00  0.0000000000000D+00  0.0000000000000D+00
   368  3.6700000000000D+00  0.0000000000000D+00  0.0000000000000D+00
   369  3.6800000000000D+00  0.0000000000000D+00  0.0000000000000D+00
   370  3.6900000000000D+00  0.0000000000000D+00  0.0000000000000D+00
   371  3.7000000000000D+00  0.0000000000000D+00  0.0000000000000D+00
   372  3.7100000000000D+00  0.0000000000000D+00  0.0000000000000D+00
   373  3.7200000000000D+00  0.0000000000000D+00  0.0000000000000D+00
   374  3.7300000000000D+00  0.0000000000000D+00  0.0000000000000D+00
   375  3.7400000000000D+00  0.0000000000000D+00  0.0000000000000D+00
   376  3.7500000000000D+00  0.0000000000000D+00  0.0000000000000D+00
   377  3.7600000000000D+00  0.0000000000000D+00  0.0000000000000D+00
   378  3.7700000000000D+00  0.0000000000000D+00  0.0000000000000D+00
   379  3.7800000000000D+00  0.0000000000000D+00  0.0000000000000D+00
   380  3.7900000000000D+00  0.0000000000000D+00  0.0000000000000D+00
   381  3.8000000000000D+00  0.0000000000000D+00  0.0000000000000D+00
   382  3.8100000000000D+00  0.0000000000000D+00  0.0000000000000D+00
   383  3.8200000000000D+00  0.0000000000000D+00  0.0000000000000D+00
   384  3.8300000000000D+00  0.0000000000000D+00  0.0000000000000D+00
   385  3.8400000000000D+00  0.0000000000000D+00  0.0000000000000D+00
   386  3.8500000000000D+00  0.0000000000000D+00  0.0000000000000D+00
   387  3.8600000000000D+00  0.0000000000000D+00  0.0000000000000D+00
   388  3.8700000000000D+00  0.0000000000000D+00  0.0000000000000D+00
   389  3.8800000000000D+00  0.0000000000000D+00  0.0000000000000D+00
   390  3.8900000000000D+00  0.0000000000000D+00  0.0000000000000D+00
   391  3.9000000000000D+00  0.0000000000000D+00  0.0000000000000D+00
   392  3.9100000000000D+00  0.0000000000000D+00  0.0000000000000D+00
   393  3.9200000000000D+00  0.0000000000000D+00  0.0000000000000D+00
   394  3.9300000000000D+00  0.0000000000000D+00  0.0000000000000D+00
   395  3.9400000000000D+00  0.0000000000000D+00  0.0000000000000D+00
   396  3.9500000000000D+00  0.0000000000000D+00  0.0000000000000D+00
   397  3.9600000000000D+00  0.0000000000000D+00  0.0000000000000D+00
   398  3.9700000000000D+00  0.0000000000000D+00  0.0000000000000D+00
   399  3.9800000000000D+00  0.0000000000000D+00  0.0000000000000D+00
   400  3.9900000000000D+00  0.0000000000000D+00  0.0000000000000D+00
   401  4.0000000000000D+00  0.0000000000000D+00  0.0000000000000D+00
   402  4.0100000000000D+00  0.0000000000000D+00  0.0000000000000D+00
   403  4.0200000000000D+00  0.0000000000000D+00  0.0000000000000D+00
   404  4.0300000000000D+00  0.0000000000000D+00  0.0000000000000D+00
   405  4.0400000000000D+00  0.0000000000000D+00  0.0000000000000D+00
   406  4.0500000000000D+00  0.0000000000000D+00  0.0000000000000D+00
   407  4.0600000000000D+00  0.0000000000000D+00  0.0000000000000D+00
   408  4.0700000000000D+00  0.0000000000000D+00  0.0000000000000D+00
   409  4.0800000000000D+00  0.0000000000000D+00  0.0000000000000D+00
   410  4.0900000000000D+00  0.0000000000000D+00  0.0000000000000D+00
   411  4.1000000000000D+00  0.0000000000000D+00  0.0000000000000D+00
   412  4.1100000000000D+00  0.0000000000000D+00  0.0000000000000D+00
   413  4.1200000000000D+00  0.0000000000000D+00  0.0000000000000D+00
   414  4.1300000000000D+00  0.0000000000000D+00  0.0000000000000D+00
   415  4.1400000000000D+00  0.0000000000000D+00  0.0000000000000D+00
   416  4.1500000000000D+00  0.0000000000000D+00  0.0000000000000D+00
   417  4.1600000000000D+00  0.0000000000000D+00  0.0000000000000D+00
   418  4.1700000000000D+00  0.0000000000000D+00  0.0000000000000D+00
   419  4.1800000000000D+00  0.0000000000000D+00  0.0000000000000D+00
   420  4.1900000000000D+00  0.0000000000000D+00  0.0000000000000D+00
   421  4.2000000000000D+00  0.0000000000000D+00  0.0000000000000D+00
   422  4.2100000000000D+00  0.0000000000000D+00  0.0000000000000D+00