Hg    ONCVPSP-3.3.1  r_core=   2.34483   2.34483   2.18287   3.27466
     80.0000     20.0000      210904    zatom,zion,pspd
     8       2   3     4   600     0    pspcod,pspxc,lmax,lloc,mmax,r2well
  5.99000000  0.00000000  0.00000000    rchrg fchrg qchrg
     2     2     2     2     0    nproj
     1     1           extension_switch
   0                         4.5537380744980D+00  6.3384788073467D-01
     1  0.0000000000000D+00  1.1514122988387D-12 -2.2437225688510D-11
     2  1.0000000000000D-02  5.9152233259491D-02  6.0664779224480D-03
     3  2.0000000000000D-02  1.1820303647281D-01  1.2136973166498D-02
     4  3.0000000000000D-02  1.7705116198148D-01  1.8215600945798D-02
     5  4.0000000000000D-02  2.3559572665584D-01  2.4306671347096D-02
     6  5.0000000000000D-02  2.9373639354268D-01  3.0414784494962D-02
     7  6.0000000000000D-02  3.5137355277192D-01  3.6544923006169D-02
     8  7.0000000000000D-02  4.0840850147414D-01  4.2702540856573D-02
     9  8.0000000000000D-02  4.6474362245919D-01  4.8893647805750D-02
    10  9.0000000000000D-02  5.2028256140540D-01  5.5124888552355D-02
    11  1.0000000000000D-01  5.7493040230671D-01  6.1403615826164D-02
    12  1.1000000000000D-01  6.2859384092356D-01  6.7737956660794D-02
    13  1.2000000000000D-01  6.8118135598124D-01  7.4136871134000D-02
    14  1.3000000000000D-01  7.3260337785763D-01  8.0610202909933D-02
    15  1.4000000000000D-01  7.8277245449951D-01  8.7168720969654D-02
    16  1.5000000000000D-01  8.3160341430500D-01  9.3824151972272D-02
    17  1.6000000000000D-01  8.7901352570706D-01  1.0058920274876D-01
    18  1.7000000000000D-01  9.2492265319087D-01  1.0747757249398D-01
    19  1.8000000000000D-01  9.6925340947610D-01  1.1450395428867D-01
    20  1.9000000000000D-01  1.0119313035926D+00  1.2168402565275D-01
    21  2.0000000000000D-01  1.0528848845773D+00  1.2903442790260D-01
    22  2.1000000000000D-01  1.0920458805169D+00  1.3657273415884D-01
    23  2.2000000000000D-01  1.1293493326629D+00  1.4431740592670D-01
    24  2.3000000000000D-01  1.1647337243406D+00  1.5228773824711D-01
    25  2.4000000000000D-01  1.1981411043785D+00  1.6050379349456D-01
    26  2.5000000000000D-01  1.2295172047793D+00  1.6898632397502D-01
    27  2.6000000000000D-01  1.2588115523596D+00  1.7775668355528D-01
    28  2.7000000000000D-01  1.2859775740846D+00  1.8683672863171D-01
    29  2.8000000000000D-01  1.3109726958247D+00  1.9624870882326D-01
    30  2.9000000000000D-01  1.3337584342683D+00  2.0601514784764D-01
    31  3.0000000000000D-01  1.3543004817249D+00  2.1615871511315D-01
    32  3.1000000000000D-01  1.3725687835588D+00  2.2670208862900D-01
    33  3.2000000000000D-01  1.3885376080006D+00  2.3766780990522D-01
    34  3.3000000000000D-01  1.4021856080887D+00  2.4907813157813D-01
    35  3.4000000000000D-01  1.4134958755008D+00  2.6095485855873D-01
    36  3.5000000000000D-01  1.4224559860458D+00  2.7331918355924D-01
    37  3.6000000000000D-01  1.4290580365951D+00  2.8619151790607D-01
    38  3.7000000000000D-01  1.4332986732432D+00  2.9959131859652D-01
    39  3.8000000000000D-01  1.4351791105013D+00  3.1353691260028D-01
    40  3.9000000000000D-01  1.4347051413393D+00  3.2804531944535D-01
    41  4.0000000000000D-01  1.4318871379078D+00  3.4313207316136D-01
    42  4.1000000000000D-01  1.4267400427867D+00  3.5881104468038D-01
    43  4.2000000000000D-01  1.4192833506250D+00  3.7509426581691D-01
    44  4.3000000000000D-01  1.4095410800541D+00  3.9199175596378D-01
    45  4.4000000000000D-01  1.3975417357763D+00  4.0951135264963D-01
    46  4.5000000000000D-01  1.3833182607538D+00  4.2765854710611D-01
    47  4.6000000000000D-01  1.3669079784402D+00  4.4643632598830D-01
    48  4.7000000000000D-01  1.3483525250261D+00  4.6584502038172D-01
    49  4.8000000000000D-01  1.3276977716895D+00  4.8588216321083D-01
    50  4.9000000000000D-01  1.3049937368692D+00  5.0654235614066D-01
    51  5.0000000000000D-01  1.2802944886068D+00  5.2781714703153D-01
    52  5.1000000000000D-01  1.2536580370276D+00  5.4969491896991D-01
    53  5.2000000000000D-01  1.2251462170602D+00  5.7216079185458D-01
    54  5.3000000000000D-01  1.1948245615251D+00  5.9519653746694D-01
    55  5.4000000000000D-01  1.1627621647470D+00  6.1878050889825D-01
    56  5.5000000000000D-01  1.1290315368833D+00  6.4288758514442D-01
    57  5.6000000000000D-01  1.0937084491832D+00  6.6748913161157D-01
    58  5.7000000000000D-01  1.0568717704302D+00  6.9255297720206D-01
    59  5.8000000000000D-01  1.0186032948475D+00  7.1804340857329D-01
    60  5.9000000000000D-01  9.7898756177843D-01  7.4392118207862D-01
    61  6.0000000000000D-01  9.3811166748485D-01  7.7014355381303D-01
    62  6.1000000000000D-01  8.9606506943853D-01  7.9666432809577D-01
    63  6.2000000000000D-01  8.5293938351002D-01  8.2343392462779D-01
    64  6.3000000000000D-01  8.0882817449037D-01  8.5039946446538D-01
    65  6.4000000000000D-01  7.6382674041083D-01  8.7750487485195D-01
    66  6.5000000000000D-01  7.1803189115442D-01  9.0469101284871D-01
    67  6.6000000000000D-01  6.7154172188130D-01  9.3189580760274D-01
    68  6.7000000000000D-01  6.2445538181708D-01  9.5905442098746D-01
    69  6.8000000000000D-01  5.7687283897851D-01  9.8609942624727D-01
    70  6.9000000000000D-01  5.2889464143610D-01  1.0129610041744D+00
    71  7.0000000000000D-01  4.8062167573530D-01  1.0395671562447D+00
    72  7.1000000000000D-01  4.3215492311985D-01  1.0658439340371D+00
    73  7.2000000000000D-01  3.8359521421985D-01  1.0917156841632D+00
    74  7.3000000000000D-01  3.3504298288482D-01  1.1171053078390D+00
    75  7.4000000000000D-01  2.8659801985737D-01  1.1419345341331D+00
    76  7.5000000000000D-01  2.3835922699629D-01  1.1661242058429D+00
    77  7.6000000000000D-01  1.9042437276880D-01  1.1895945768602D+00
    78  7.7000000000000D-01  1.4288984974008D-01  1.2122656198090D+00
    79  7.8000000000000D-01  9.5850434794189D-02  1.2340573426656D+00
    80  7.9000000000000D-01  4.9399052823612D-02  1.2548901129974D+00
    81  8.0000000000000D-01  3.6265446253623D-03  1.2746849883993D+00
    82  8.1000000000000D-01 -4.1378560260752D-02  1.2933640516456D+00
    83  8.2000000000000D-01 -8.5530265041182D-02  1.3108507490294D+00
    84  8.3000000000000D-01 -1.2874532076244D-01  1.3270702303170D+00
    85  8.4000000000000D-01 -1.7094343429797D-01  1.3419496887137D+00
    86  8.5000000000000D-01 -2.1204746853042D-01  1.3554186992079D+00
    87  8.6000000000000D-01 -2.5198363404813D-01  1.3674095536450D+00
    88  8.7000000000000D-01 -2.9068167169470D-01  1.3778575908708D+00
    89  8.8000000000000D-01 -3.2807502533306D-01  1.3867015202855D+00
    90  8.9000000000000D-01 -3.6410100421088D-01  1.3938837371542D+00
    91  9.0000000000000D-01 -3.9870093434248D-01  1.3993506280385D+00
    92  9.1000000000000D-01 -4.3182029835379D-01  1.4030528647356D+00
    93  9.2000000000000D-01 -4.6340886327018D-01  1.4049456851489D+00
    94  9.3000000000000D-01 -4.9342079576350D-01  1.4049891595518D+00
    95  9.4000000000000D-01 -5.2181476441345D-01  1.4031484407593D+00
    96  9.5000000000000D-01 -5.4855402857919D-01  1.3993939967800D+00
    97  9.6000000000000D-01 -5.7360651352027D-01  1.3937018245870D+00
    98  9.7000000000000D-01 -5.9694487145142D-01  1.3860536437200D+00
    99  9.8000000000000D-01 -6.1854652826195D-01  1.3764370685132D+00
   100  9.9000000000000D-01 -6.3839371568064D-01  1.3648457578316D+00
   101  1.0000000000000D+00 -6.5647348871422D-01  1.3512795412900D+00
   102  1.0100000000000D+00 -6.7277772824194D-01  1.3357445210345D+00
   103  1.0200000000000D+00 -6.8730312869878D-01  1.3182531482684D+00
   104  1.0300000000000D+00 -7.0005117083364D-01  1.2988242738162D+00
   105  1.0400000000000D+00 -7.1102807958189D-01  1.2774831721352D+00
   106  1.0500000000000D+00 -7.2024476714735D-01  1.2542615383063D+00
   107  1.0600000000000D+00 -7.2771676143822D-01  1.2291974576470D+00
   108  1.0700000000000D+00 -7.3346412006018D-01  1.2023353477282D+00
   109  1.0800000000000D+00 -7.3751133012019D-01  1.1737258726926D+00
   110  1.0900000000000D+00 -7.3988719414692D-01  1.1434258299033D+00
   111  1.1000000000000D+00 -7.4062470248903D-01  1.1114980090848D+00
   112  1.1100000000000D+00 -7.3976089259340D-01  1.0780110242268D+00
   113  1.1200000000000D+00 -7.3733669562641D-01  1.0430391186728D+00
   114  1.1300000000000D+00 -7.3339677093915D-01  1.0066619439217D+00
   115  1.1400000000000D+00 -7.2798932892933D-01  9.6896431280812D-01
   116  1.1500000000000D+00 -7.2116594288649D-01  9.3003592782159D-01
   117  1.1600000000000D+00 -7.1298135045773D-01  8.8997108546727D-01
   118  1.1700000000000D+00 -7.0349324540288D-01  8.4886835766621D-01
   119  1.1800000000000D+00 -6.9276206034838D-01  8.0683025131352D-01
   120  1.1900000000000D+00 -6.8085074126926D-01  7.6396284717542D-01
   121  1.2000000000000D+00 -6.6782451447438D-01  7.2037541945252D-01
   122  1.2100000000000D+00 -6.5375064688490D-01  6.7618003739165D-01
   123  1.2200000000000D+00 -6.3869820041777D-01  6.3149115040602D-01
   124  1.2300000000000D+00 -6.2273778130909D-01  5.8642515824668D-01
   125  1.2400000000000D+00 -6.0594128522661D-01  5.4109996783812D-01
   126  1.2500000000000D+00 -5.8838163902746D-01  4.9563453842989D-01
   127  1.2600000000000D+00 -5.7013254002856D-01  4.5014841676497D-01
   128  1.2700000000000D+00 -5.5126819366054D-01  4.0476126402309D-01
   129  1.2800000000000D+00 -5.3186305036952D-01  3.5959237629879D-01
   130  1.2900000000000D+00 -5.1199154263806D-01  3.1476020040793D-01
   131  1.3000000000000D+00 -4.9172782297661D-01  2.7038184682890D-01
   132  1.3100000000000D+00 -4.7114550372578D-01  2.2657260156456D-01
   133  1.3200000000000D+00 -4.5031739951163D-01  1.8344543873612D-01
   134  1.3300000000000D+00 -4.2931527314459D-01  1.4111053566055D-01
   135  1.3400000000000D+00 -4.0820958575506D-01  9.9674792158239D-02
   136  1.3500000000000D+00 -3.8706925193721D-01  5.9241355824486D-02
   137  1.3600000000000D+00 -3.6596140059512D-01  1.9909154864817D-02
   138  1.3700000000000D+00 -3.4495114222674D-01 -1.8227559834038D-02
   139  1.3800000000000D+00 -3.2410134328600D-01 -5.5079661881765D-02
   140  1.3900000000000D+00 -3.0347240821718D-01 -9.0563584395829D-02
   141  1.4000000000000D+00 -2.8312206981112D-01 -1.2460174131244D-01
   142  1.4100000000000D+00 -2.6310518833094D-01 -1.5712293385829D-01
   143  1.4200000000000D+00 -2.4347355996068D-01 -1.8806274084099D-01
   144  1.4300000000000D+00 -2.2427573500998D-01 -2.1736389164537D-01
   145  1.4400000000000D+00 -2.0555684620168D-01 -2.4497662105800D-01
   146  1.4500000000000D+00 -1.8735844751367D-01 -2.7085900472683D-01
   147  1.4600000000000D+00 -1.6971836370709D-01 -2.9497727478866D-01
   148  1.4700000000000D+00 -1.5267055091652D-01 -3.1730611467658D-01
   149  1.4800000000000D+00 -1.3624496840707D-01 -3.3782893269886D-01
   150  1.4900000000000D+00 -1.2046746162744D-01 -3.5653811394164D-01
   151  1.5000000000000D+00 -1.0535965425316D-01 -3.7343525834786D-01
   152  1.5100000000000D+00 -9.0938860615312D-02 -3.8853136551944D-01
   153  1.5200000000000D+00 -7.7217990505595D-02 -4.0184706309286D-01
   154  1.5300000000000D+00 -6.4205573599670D-02 -4.1341244634023D-01
   155  1.5400000000000D+00 -5.1905413066123D-02 -4.2326818266246D-01
   156  1.5500000000000D+00 -4.0316754895856D-02 -4.3146490002169D-01
   157  1.5600000000000D+00 -2.9435178681129D-02 -4.3806010486832D-01
   158  1.5700000000000D+00 -1.9253200506058D-02 -4.4311620339647D-01
   159  1.5800000000000D+00 -9.7620409791998D-03 -4.4669478535267D-01
   160  1.5900000000000D+00 -9.5204209811662D-04 -4.4885543979511D-01
   161  1.6000000000000D+00  7.1930672854898D-03 -4.4967481659755D-01
   162  1.6100000000000D+00  1.4690223903163D-02 -4.4922739464622D-01
   163  1.6200000000000D+00  2.1536798245767D-02 -4.4751941368111D-01
   164  1.6300000000000D+00  2.7732754797433D-02 -4.4456177692063D-01
   165  1.6400000000000D+00  3.3317735769685D-02 -4.4049205382372D-01
   166  1.6500000000000D+00  3.8333903680966D-02 -4.3545251292700D-01
   167  1.6600000000000D+00  4.2794134668869D-02 -4.2948563638347D-01
   168  1.6700000000000D+00  4.6709346214463D-02 -4.2262436012385D-01
   169  1.6800000000000D+00  5.0103364538804D-02 -4.1494133393589D-01
   170  1.6900000000000D+00  5.3000943317386D-02 -4.0650963097883D-01
   171  1.7000000000000D+00  5.5424766586037D-02 -3.9739306207862D-01
   172  1.7100000000000D+00  5.7398361284209D-02 -3.8765598424279D-01
   173  1.7200000000000D+00  5.8945897881560D-02 -3.7736283623342D-01
   174  1.7300000000000D+00  6.0091736212200D-02 -3.6657683135534D-01
   175  1.7400000000000D+00  6.0860394780709D-02 -3.5536004047555D-01
   176  1.7500000000000D+00  6.1276450029080D-02 -3.4377323841417D-01
   177  1.7600000000000D+00  6.1364438462220D-02 -3.3187575405690D-01
   178  1.7700000000000D+00  6.1148762279412D-02 -3.1972532574515D-01
   179  1.7800000000000D+00  6.0653598355360D-02 -3.0737796166614D-01
   180  1.7900000000000D+00  5.9902811320537D-02 -2.9488780715249D-01
   181  1.8000000000000D+00  5.8919870596710D-02 -2.8230701866943D-01
   182  1.8100000000000D+00  5.7727772057801D-02 -2.6968564622257D-01
   183  1.8200000000000D+00  5.6348964175279D-02 -2.5707152394099D-01
   184  1.8300000000000D+00  5.4805279172451D-02 -2.4451017023412D-01
   185  1.8400000000000D+00  5.3117869151567D-02 -2.3204469752160D-01
   186  1.8500000000000D+00  5.1307147459574D-02 -2.1971573230001D-01
   187  1.8600000000000D+00  4.9392735471382D-02 -2.0756134608160D-01
   188  1.8700000000000D+00  4.7393414679288D-02 -1.9561699701328D-01
   189  1.8800000000000D+00  4.5327084593324D-02 -1.8391548354866D-01
   190  1.8900000000000D+00  4.3210725871037D-02 -1.7248690876452D-01
   191  1.9000000000000D+00  4.1060369519917D-02 -1.6135865758309D-01
   192  1.9100000000000D+00  3.8891071277303D-02 -1.5055538466114D-01
   193  1.9200000000000D+00  3.6716891988183D-02 -1.4009901516865D-01
   194  1.9300000000000D+00  3.4550883251222D-02 -1.3000875663009D-01
   195  1.9400000000000D+00  3.2405078673863D-02 -1.2030112281136D-01
   196  1.9500000000000D+00  3.0290490525684D-02 -1.1098996917967D-01
   197  1.9600000000000D+00  2.8217111434031D-02 -1.0208653908229D-01
   198  1.9700000000000D+00  2.6193921515750D-02 -9.3599521780010D-02
   199  1.9800000000000D+00  2.4228899973294D-02 -8.5535119829020D-02
   200  1.9900000000000D+00  2.2329041858883D-02 -7.7897127793472D-02
   201  2.0000000000000D+00  2.0500378991399D-02 -7.0687019646268D-02
   202  2.0100000000000D+00  1.8748005297656D-02 -6.3904045693159D-02
   203  2.0200000000000D+00  1.7076106183618D-02 -5.7545338046585D-02
   204  2.0300000000000D+00  1.5487991449461D-02 -5.1606023424074D-02
   205  2.0400000000000D+00  1.3986131933956D-02 -4.6079343895849D-02
   206  2.0500000000000D+00  1.2572199014779D-02 -4.0956783266575D-02
   207  2.0600000000000D+00  1.1247107151326D-02 -3.6228199748212D-02
   208  2.0700000000000D+00  1.0011058847264D-02 -3.1881963283828D-02
   209  2.0800000000000D+00  8.8635917671449D-03 -2.7905096909117D-02
   210  2.0900000000000D+00  7.8036277751643D-03 -2.4283421650551D-02
   211  2.1000000000000D+00  6.8295234014236D-03 -2.1001703619489D-02
   212  2.1100000000000D+00  5.9391214828085D-03 -1.8043802826335D-02
   213  2.1200000000000D+00  5.1298036293270D-03 -1.5392822744048D-02
   214  2.1300000000000D+00  4.3985431475560D-03 -1.3031259752766D-02
   215  2.1400000000000D+00  3.7419579995485D-03 -1.0941151447181D-02
   216  2.1500000000000D+00  3.1563637508468D-03 -9.1042236276351D-03
   217  2.1600000000000D+00  2.6378256953235D-03 -7.5020340249435D-03
   218  2.1700000000000D+00  2.1822102819667D-03 -6.1161130263378D-03
   219  2.1800000000000D+00  1.7852354131124D-03 -4.9281003429105D-03
   220  2.1900000000000D+00  1.4425189098940D-03 -3.9198758704953D-03
   221  2.2000000000000D+00  1.1496257062569D-03 -3.0736861427803D-03
   222  2.2100000000000D+00  9.0211253862214D-04 -2.3722632900174D-03
   223  2.2200000000000D+00  6.9557037460325D-04 -1.7989371222496D-03
   224  2.2300000000000D+00  5.2566477874842D-04 -1.3377408556837D-03
   225  2.2400000000000D+00  3.8817262148931D-04 -9.7350644012612D-04
   226  2.2500000000000D+00  2.7901654986480D-04 -6.9195311959523D-04
   227  2.2600000000000D+00  1.9429606675044D-04 -4.7976629691261D-04
   228  2.2700000000000D+00  1.3031541031382D-04 -3.2472451528504D-04
   229  2.2800000000000D+00  8.3606022489851D-05 -2.1554184907513D-04
   230  2.2900000000000D+00  5.0946409902191D-05 -1.4209104776748D-04
   231  2.3000000000000D+00  2.9344452487040D-05 -9.5119564465185D-05
   232  2.3100000000000D+00  1.6222165706198D-05 -6.8174259751712D-05
   233  2.3200000000000D+00  9.2872966309587D-06 -5.5699024211181D-05
   234  2.3300000000000D+00  6.4139052601296D-06 -5.1990738921455D-05
   235  2.3400000000000D+00  5.3099174428465D-06 -4.8408373316937D-05
   236  2.3500000000000D+00  4.1181852945726D-06 -3.7844638356400D-05
   237  2.3600000000000D+00  2.2940770471351D-06 -2.0719085968930D-05
   238  2.3700000000000D+00  4.5728270552535D-07 -4.0211871572433D-06
   239  2.3800000000000D+00 -4.1874522151764D-07  3.9774221450999D-06
   240  2.3900000000000D+00 -4.3574846230446D-07  4.1207133466227D-06
   241  2.4000000000000D+00 -6.2471266844899D-08  5.8765629568441D-07
   242  2.4100000000000D+00  8.8502816629292D-08 -9.1048118396172D-07
   243  2.4200000000000D+00  8.5445741415540D-08 -8.8422909859547D-07
   244  2.4300000000000D+00  2.5308081540807D-09 -2.6319470172707D-08
   245  2.4400000000000D+00 -1.2658924619709D-08  1.1604947426755D-07
   246  2.4500000000000D+00 -1.1368052822509D-08  1.0421553118690D-07
   247  2.4600000000000D+00  0.0000000000000D+00  0.0000000000000D+00
   248  2.4700000000000D+00  0.0000000000000D+00  0.0000000000000D+00
   249  2.4800000000000D+00  0.0000000000000D+00  0.0000000000000D+00
   250  2.4900000000000D+00  0.0000000000000D+00  0.0000000000000D+00
   251  2.5000000000000D+00  0.0000000000000D+00  0.0000000000000D+00
   252  2.5100000000000D+00  0.0000000000000D+00  0.0000000000000D+00
   253  2.5200000000000D+00  0.0000000000000D+00  0.0000000000000D+00
   254  2.5300000000000D+00  0.0000000000000D+00  0.0000000000000D+00
   255  2.5400000000000D+00  0.0000000000000D+00  0.0000000000000D+00
   256  2.5500000000000D+00  0.0000000000000D+00  0.0000000000000D+00
   257  2.5600000000000D+00  0.0000000000000D+00  0.0000000000000D+00
   258  2.5700000000000D+00  0.0000000000000D+00  0.0000000000000D+00
   259  2.5800000000000D+00  0.0000000000000D+00  0.0000000000000D+00
   260  2.5900000000000D+00  0.0000000000000D+00  0.0000000000000D+00
   261  2.6000000000000D+00  0.0000000000000D+00  0.0000000000000D+00
   262  2.6100000000000D+00  0.0000000000000D+00  0.0000000000000D+00
   263  2.6200000000000D+00  0.0000000000000D+00  0.0000000000000D+00
   264  2.6300000000000D+00  0.0000000000000D+00  0.0000000000000D+00
   265  2.6400000000000D+00  0.0000000000000D+00  0.0000000000000D+00
   266  2.6500000000000D+00  0.0000000000000D+00  0.0000000000000D+00
   267  2.6600000000000D+00  0.0000000000000D+00  0.0000000000000D+00
   268  2.6700000000000D+00  0.0000000000000D+00  0.0000000000000D+00
   269  2.6800000000000D+00  0.0000000000000D+00  0.0000000000000D+00
   270  2.6900000000000D+00  0.0000000000000D+00  0.0000000000000D+00
   271  2.7000000000000D+00  0.0000000000000D+00  0.0000000000000D+00
   272  2.7100000000000D+00  0.0000000000000D+00  0.0000000000000D+00
   273  2.7200000000000D+00  0.0000000000000D+00  0.0000000000000D+00
   274  2.7300000000000D+00  0.0000000000000D+00  0.0000000000000D+00
   275  2.7400000000000D+00  0.0000000000000D+00  0.0000000000000D+00
   276  2.7500000000000D+00  0.0000000000000D+00  0.0000000000000D+00
   277  2.7600000000000D+00  0.0000000000000D+00  0.0000000000000D+00
   278  2.7700000000000D+00  0.0000000000000D+00  0.0000000000000D+00
   279  2.7800000000000D+00  0.0000000000000D+00  0.0000000000000D+00
   280  2.7900000000000D+00  0.0000000000000D+00  0.0000000000000D+00
   281  2.8000000000000D+00  0.0000000000000D+00  0.0000000000000D+00
   282  2.8100000000000D+00  0.0000000000000D+00  0.0000000000000D+00
   283  2.8200000000000D+00  0.0000000000000D+00  0.0000000000000D+00
   284  2.8300000000000D+00  0.0000000000000D+00  0.0000000000000D+00
   285  2.8400000000000D+00  0.0000000000000D+00  0.0000000000000D+00
   286  2.8500000000000D+00  0.0000000000000D+00  0.0000000000000D+00
   287  2.8600000000000D+00  0.0000000000000D+00  0.0000000000000D+00
   288  2.8700000000000D+00  0.0000000000000D+00  0.0000000000000D+00
   289  2.8800000000000D+00  0.0000000000000D+00  0.0000000000000D+00
   290  2.8900000000000D+00  0.0000000000000D+00  0.0000000000000D+00
   291  2.9000000000000D+00  0.0000000000000D+00  0.0000000000000D+00
   292  2.9100000000000D+00  0.0000000000000D+00  0.0000000000000D+00
   293  2.9200000000000D+00  0.0000000000000D+00  0.0000000000000D+00
   294  2.9300000000000D+00  0.0000000000000D+00  0.0000000000000D+00
   295  2.9400000000000D+00  0.0000000000000D+00  0.0000000000000D+00
   296  2.9500000000000D+00  0.0000000000000D+00  0.0000000000000D+00
   297  2.9600000000000D+00  0.0000000000000D+00  0.0000000000000D+00
   298  2.9700000000000D+00  0.0000000000000D+00  0.0000000000000D+00
   299  2.9800000000000D+00  0.0000000000000D+00  0.0000000000000D+00
   300  2.9900000000000D+00  0.0000000000000D+00  0.0000000000000D+00
   301  3.0000000000000D+00  0.0000000000000D+00  0.0000000000000D+00
   302  3.0100000000000D+00  0.0000000000000D+00  0.0000000000000D+00
   303  3.0200000000000D+00  0.0000000000000D+00  0.0000000000000D+00
   304  3.0300000000000D+00  0.0000000000000D+00  0.0000000000000D+00
   305  3.0400000000000D+00  0.0000000000000D+00  0.0000000000000D+00
   306  3.0500000000000D+00  0.0000000000000D+00  0.0000000000000D+00
   307  3.0600000000000D+00  0.0000000000000D+00  0.0000000000000D+00
   308  3.0700000000000D+00  0.0000000000000D+00  0.0000000000000D+00
   309  3.0800000000000D+00  0.0000000000000D+00  0.0000000000000D+00
   310  3.0900000000000D+00  0.0000000000000D+00  0.0000000000000D+00
   311  3.1000000000000D+00  0.0000000000000D+00  0.0000000000000D+00
   312  3.1100000000000D+00  0.0000000000000D+00  0.0000000000000D+00
   313  3.1200000000000D+00  0.0000000000000D+00  0.0000000000000D+00
   314  3.1300000000000D+00  0.0000000000000D+00  0.0000000000000D+00
   315  3.1400000000000D+00  0.0000000000000D+00  0.0000000000000D+00
   316  3.1500000000000D+00  0.0000000000000D+00  0.0000000000000D+00
   317  3.1600000000000D+00  0.0000000000000D+00  0.0000000000000D+00
   318  3.1700000000000D+00  0.0000000000000D+00  0.0000000000000D+00
   319  3.1800000000000D+00  0.0000000000000D+00  0.0000000000000D+00
   320  3.1900000000000D+00  0.0000000000000D+00  0.0000000000000D+00
   321  3.2000000000000D+00  0.0000000000000D+00  0.0000000000000D+00
   322  3.2100000000000D+00  0.0000000000000D+00  0.0000000000000D+00
   323  3.2200000000000D+00  0.0000000000000D+00  0.0000000000000D+00
   324  3.2300000000000D+00  0.0000000000000D+00  0.0000000000000D+00
   325  3.2400000000000D+00  0.0000000000000D+00  0.0000000000000D+00
   326  3.2500000000000D+00  0.0000000000000D+00  0.0000000000000D+00
   327  3.2600000000000D+00  0.0000000000000D+00  0.0000000000000D+00
   328  3.2700000000000D+00  0.0000000000000D+00  0.0000000000000D+00
   329  3.2800000000000D+00  0.0000000000000D+00  0.0000000000000D+00
   330  3.2900000000000D+00  0.0000000000000D+00  0.0000000000000D+00
   331  3.3000000000000D+00  0.0000000000000D+00  0.0000000000000D+00
   332  3.3100000000000D+00  0.0000000000000D+00  0.0000000000000D+00
   333  3.3200000000000D+00  0.0000000000000D+00  0.0000000000000D+00
   334  3.3300000000000D+00  0.0000000000000D+00  0.0000000000000D+00
   335  3.3400000000000D+00  0.0000000000000D+00  0.0000000000000D+00
   336  3.3500000000000D+00  0.0000000000000D+00  0.0000000000000D+00
   337  3.3600000000000D+00  0.0000000000000D+00  0.0000000000000D+00
   338  3.3700000000000D+00  0.0000000000000D+00  0.0000000000000D+00
   339  3.3800000000000D+00  0.0000000000000D+00  0.0000000000000D+00
   340  3.3900000000000D+00  0.0000000000000D+00  0.0000000000000D+00
   341  3.4000000000000D+00  0.0000000000000D+00  0.0000000000000D+00
   342  3.4100000000000D+00  0.0000000000000D+00  0.0000000000000D+00
   343  3.4200000000000D+00  0.0000000000000D+00  0.0000000000000D+00
   344  3.4300000000000D+00  0.0000000000000D+00  0.0000000000000D+00
   345  3.4400000000000D+00  0.0000000000000D+00  0.0000000000000D+00
   346  3.4500000000000D+00  0.0000000000000D+00  0.0000000000000D+00
   347  3.4600000000000D+00  0.0000000000000D+00  0.0000000000000D+00
   348  3.4700000000000D+00  0.0000000000000D+00  0.0000000000000D+00
   349  3.4800000000000D+00  0.0000000000000D+00  0.0000000000000D+00
   350  3.4900000000000D+00  0.0000000000000D+00  0.0000000000000D+00
   351  3.5000000000000D+00  0.0000000000000D+00  0.0000000000000D+00
   352  3.5100000000000D+00  0.0000000000000D+00  0.0000000000000D+00
   353  3.5200000000000D+00  0.0000000000000D+00  0.0000000000000D+00
   354  3.5300000000000D+00  0.0000000000000D+00  0.0000000000000D+00
   355  3.5400000000000D+00  0.0000000000000D+00  0.0000000000000D+00
   356  3.5500000000000D+00  0.0000000000000D+00  0.0000000000000D+00
   357  3.5600000000000D+00  0.0000000000000D+00  0.0000000000000D+00
   358  3.5700000000000D+00  0.0000000000000D+00  0.0000000000000D+00
   359  3.5800000000000D+00  0.0000000000000D+00  0.0000000000000D+00
   360  3.5900000000000D+00  0.0000000000000D+00  0.0000000000000D+00
   361  3.6000000000000D+00  0.0000000000000D+00  0.0000000000000D+00
   362  3.6100000000000D+00  0.0000000000000D+00  0.0000000000000D+00
   363  3.6200000000000D+00  0.0000000000000D+00  0.0000000000000D+00
   364  3.6300000000000D+00  0.0000000000000D+00  0.0000000000000D+00
   365  3.6400000000000D+00  0.0000000000000D+00  0.0000000000000D+00
   366  3.6500000000000D+00  0.0000000000000D+00  0.0000000000000D+00
   367  3.6600000000000D+00  0.0000000000000D+00  0.0000000000000D+00
   368  3.6700000000000D+00  0.0000000000000D+00  0.0000000000000D+00
   369  3.6800000000000D+00  0.0000000000000D+00  0.0000000000000D+00
   370  3.6900000000000D+00  0.0000000000000D+00  0.0000000000000D+00
   371  3.7000000000000D+00  0.0000000000000D+00  0.0000000000000D+00
   372  3.7100000000000D+00  0.0000000000000D+00  0.0000000000000D+00
   373  3.7200000000000D+00  0.0000000000000D+00  0.0000000000000D+00
   374  3.7300000000000D+00  0.0000000000000D+00  0.0000000000000D+00
   375  3.7400000000000D+00  0.0000000000000D+00  0.0000000000000D+00
   376  3.7500000000000D+00  0.0000000000000D+00  0.0000000000000D+00
   377  3.7600000000000D+00  0.0000000000000D+00  0.0000000000000D+00
   378  3.7700000000000D+00  0.0000000000000D+00  0.0000000000000D+00
   379  3.7800000000000D+00  0.0000000000000D+00  0.0000000000000D+00
   380  3.7900000000000D+00  0.0000000000000D+00  0.0000000000000D+00
   381  3.8000000000000D+00  0.0000000000000D+00  0.0000000000000D+00
   382  3.8100000000000D+00  0.0000000000000D+00  0.0000000000000D+00
   383  3.8200000000000D+00  0.0000000000000D+00  0.0000000000000D+00
   384  3.8300000000000D+00  0.0000000000000D+00  0.0000000000000D+00
   385  3.8400000000000D+00  0.0000000000000D+00  0.0000000000000D+00
   386  3.8500000000000D+00  0.0000000000000D+00  0.0000000000000D+00
   387  3.8600000000000D+00  0.0000000000000D+00  0.0000000000000D+00
   388  3.8700000000000D+00  0.0000000000000D+00  0.0000000000000D+00
   389  3.8800000000000D+00  0.0000000000000D+00  0.0000000000000D+00
   390  3.8900000000000D+00  0.0000000000000D+00  0.0000000000000D+00
   391  3.9000000000000D+00  0.0000000000000D+00  0.0000000000000D+00
   392  3.9100000000000D+00  0.0000000000000D+00  0.0000000000000D+00
   393  3.9200000000000D+00  0.0000000000000D+00  0.0000000000000D+00
   394  3.9300000000000D+00  0.0000000000000D+00  0.0000000000000D+00
   395  3.9400000000000D+00  0.0000000000000D+00  0.0000000000000D+00
   396  3.9500000000000D+00  0.0000000000000D+00  0.0000000000000D+00
   397  3.9600000000000D+00  0.0000000000000D+00  0.0000000000000D+00
   398  3.9700000000000D+00  0.0000000000000D+00  0.0000000000000D+00
   399  3.9800000000000D+00  0.0000000000000D+00  0.0000000000000D+00
   400  3.9900000000000D+00  0.0000000000000D+00  0.0000000000000D+00
   401  4.0000000000000D+00  0.0000000000000D+00  0.0000000000000D+00
   402  4.0100000000000D+00  0.0000000000000D+00  0.0000000000000D+00
   403  4.0200000000000D+00  0.0000000000000D+00  0.0000000000000D+00
   404  4.0300000000000D+00  0.0000000000000D+00  0.0000000000000D+00
   405  4.0400000000000D+00  0.0000000000000D+00  0.0000000000000D+00
   406  4.0500000000000D+00  0.0000000000000D+00  0.0000000000000D+00
   407  4.0600000000000D+00  0.0000000000000D+00  0.0000000000000D+00
   408  4.0700000000000D+00  0.0000000000000D+00  0.0000000000000D+00
   409  4.0800000000000D+00  0.0000000000000D+00  0.0000000000000D+00
   410  4.0900000000000D+00  0.0000000000000D+00  0.0000000000000D+00
   411  4.1000000000000D+00  0.0000000000000D+00  0.0000000000000D+00
   412  4.1100000000000D+00  0.0000000000000D+00  0.0000000000000D+00
   413  4.1200000000000D+00  0.0000000000000D+00  0.0000000000000D+00
   414  4.1300000000000D+00  0.0000000000000D+00  0.0000000000000D+00
   415  4.1400000000000D+00  0.0000000000000D+00  0.0000000000000D+00
   416  4.1500000000000D+00  0.0000000000000D+00  0.0000000000000D+00
   417  4.1600000000000D+00  0.0000000000000D+00  0.0000000000000D+00
   418  4.1700000000000D+00  0.0000000000000D+00  0.0000000000000D+00
   419  4.1800000000000D+00  0.0000000000000D+00  0.0000000000000D+00
   420  4.1900000000000D+00  0.0000000000000D+00  0.0000000000000D+00
   421  4.2000000000000D+00  0.0000000000000D+00  0.0000000000000D+00
   422  4.2100000000000D+00  0.0000000000000D+00  0.0000000000000D+00