In    ONCVPSP-3.3.1  r_core=   3.39782   3.43859   2.67664
     49.0000     13.0000      210904    zatom,zion,pspd
     8       2   2     4   600     0    pspcod,pspxc,lmax,lloc,mmax,r2well
  5.99000000  0.00000000  0.00000000    rchrg fchrg qchrg
     2     4     2     0    nproj
     3     1           extension_switch
     4     3     0    nprojso
   0                         4.5548524747585D-01  4.8087606378391D+00
     1  0.0000000000000D+00  1.4506174039752D-12 -9.4882435242027D-14
     2  1.0000000000000D-02 -2.7567716500815D-03  1.4693624180743D-02
     3  2.0000000000000D-02 -5.5197753021050D-03  2.9391705103977D-02
     4  3.0000000000000D-02 -8.2952242214700D-03  4.4098679398939D-02
     5  4.0000000000000D-02 -1.1089294186185D-02  5.8818943499199D-02
     6  5.0000000000000D-02 -1.3908104707784D-02  7.3556833621972D-02
     7  6.0000000000000D-02 -1.6757700210812D-02  8.8316605840059D-02
     8  7.0000000000000D-02 -1.9644031158794D-02  1.0310241627741D-01
     9  8.0000000000000D-02 -2.2572935116049D-02  1.1791830145942D-01
    10  9.0000000000000D-02 -2.5550117736550D-02  1.3276815884903D-01
    11  1.0000000000000D-01 -2.8581133673135D-02  1.4765572760017D-01
    12  1.1000000000000D-01 -3.1671367402853D-02  1.6258456955979D-01
    13  1.2000000000000D-01 -3.4826013967027D-02  1.7755805055018D-01
    14  1.3000000000000D-01 -3.8050059627606D-02  1.9257932196336D-01
    15  1.4000000000000D-01 -4.1348262444774D-02  2.0765130269951D-01
    16  1.5000000000000D-01 -4.4725132784279D-02  2.2277666148145D-01
    17  1.6000000000000D-01 -4.8184913766771D-02  2.3795779957748D-01
    18  1.7000000000000D-01 -5.1731561675409D-02  2.5319683396504D-01
    19  1.8000000000000D-01 -5.5368726342120D-02  2.6849558096764D-01
    20  1.9000000000000D-01 -5.9099731537149D-02  2.8385554039777D-01
    21  2.0000000000000D-01 -6.2927555391045D-02  2.9927788023849D-01
    22  2.1000000000000D-01 -6.6854810882503D-02  3.1476342189655D-01
    23  2.2000000000000D-01 -7.0883726430141D-02  3.3031262605978D-01
    24  2.3000000000000D-01 -7.5016126630761D-02  3.4592557919157D-01
    25  2.4000000000000D-01 -7.9253413191084D-02  3.6160198069508D-01
    26  2.5000000000000D-01 -8.3596546104521D-02  3.7734113077988D-01
    27  2.6000000000000D-01 -8.8046025128721D-02  3.9314191906318D-01
    28  2.7000000000000D-01 -9.2601871624027D-02  4.0900281393788D-01
    29  2.8000000000000D-01 -9.7263610816948D-02  4.2492185273923D-01
    30  2.9000000000000D-01 -1.0203025455667D-01  4.4089663274134D-01
    31  3.0000000000000D-01 -1.0690028463626D-01  4.5692430301432D-01
    32  3.1000000000000D-01 -1.1187163675370D-01  4.7300155717256D-01
    33  3.2000000000000D-01 -1.1694168519092D-01  4.8912462704329D-01
    34  3.3000000000000D-01 -1.2210722829178D-01  5.0528927728458D-01
    35  3.4000000000000D-01 -1.2736447482258D-01  5.2149080098029D-01
    36  3.5000000000000D-01 -1.3270903130054D-01  5.3772401623905D-01
    37  3.6000000000000D-01 -1.3813589037759D-01  5.5398326382293D-01
    38  3.7000000000000D-01 -1.4363942036775D-01  5.7026240583022D-01
    39  3.8000000000000D-01 -1.4921335600772D-01  5.8655482545561D-01
    40  3.9000000000000D-01 -1.5485079054009D-01  6.0285342784935D-01
    41  4.0000000000000D-01 -1.6054416920876D-01  6.1915064209551D-01
    42  4.1000000000000D-01 -1.6628528425556D-01  6.3543842432770D-01
    43  4.2000000000000D-01 -1.7206527150567D-01  6.5170826199881D-01
    44  4.3000000000000D-01 -1.7787460862807D-01  6.6795117931930D-01
    45  4.4000000000000D-01 -1.8370311515469D-01  6.8415774387661D-01
    46  4.5000000000000D-01 -1.8953995433957D-01  7.0031807444588D-01
    47  4.6000000000000D-01 -1.9537363693582D-01  7.1642185000002D-01
    48  4.7000000000000D-01 -2.0119202696421D-01  7.3245831992467D-01
    49  4.8000000000000D-01 -2.0698234954329D-01  7.4841631544100D-01
    50  4.9000000000000D-01 -2.1273120084557D-01  7.6428426223663D-01
    51  5.0000000000000D-01 -2.1842456023905D-01  7.8005019430245D-01
    52  5.1000000000000D-01 -2.2404780466756D-01  7.9570176896971D-01
    53  5.2000000000000D-01 -2.2958572531665D-01  8.1122628313953D-01
    54  5.3000000000000D-01 -2.3502254660497D-01  8.2661069069320D-01
    55  5.4000000000000D-01 -2.4034194753386D-01  8.4184162106918D-01
    56  5.5000000000000D-01 -2.4552708541952D-01  8.5690539898904D-01
    57  5.6000000000000D-01 -2.5056062202436D-01  8.7178806531161D-01
    58  5.7000000000000D-01 -2.5542475209527D-01  8.8647539899126D-01
    59  5.8000000000000D-01 -2.6010123430744D-01  9.0095294011283D-01
    60  5.9000000000000D-01 -2.6457142460308D-01  9.1520601397236D-01
    61  6.0000000000000D-01 -2.6881631190484D-01  9.2921975616957D-01
    62  6.1000000000000D-01 -2.7281655617366D-01  9.4297913867434D-01
    63  6.2000000000000D-01 -2.7655252877062D-01  9.5646899682619D-01
    64  6.3000000000000D-01 -2.8000435507235D-01  9.6967405722252D-01
    65  6.4000000000000D-01 -2.8315195927879D-01  9.8257896644772D-01
    66  6.5000000000000D-01 -2.8597511134159D-01  9.9516832059204D-01
    67  6.6000000000000D-01 -2.8845347593116D-01  1.0074266955061D+00
    68  6.7000000000000D-01 -2.9056666334945D-01  1.0193386777331D+00
    69  6.8000000000000D-01 -2.9229428228506D-01  1.0308888960584D+00
    70  6.9000000000000D-01 -2.9361599429717D-01  1.0420620536126D+00
    71  7.0000000000000D-01 -2.9451156990395D-01  1.0528429604613D+00
    72  7.1000000000000D-01 -2.9496094614152D-01  1.0632165666122D+00
    73  7.2000000000000D-01 -2.9494428544939D-01  1.0731679953668D+00
    74  7.3000000000000D-01 -2.9444203572871D-01  1.0826825769434D+00
    75  7.4000000000000D-01 -2.9343499141081D-01  1.0917458822919D+00
    76  7.5000000000000D-01 -2.9190435536406D-01  1.1003437570233D+00
    77  7.6000000000000D-01 -2.8983180145949D-01  1.1084623553706D+00
    78  7.7000000000000D-01 -2.8719953760695D-01  1.1160881740989D+00
    79  7.8000000000000D-01 -2.8399036906669D-01  1.1232080862796D+00
    80  7.9000000000000D-01 -2.8018776183440D-01  1.1298093748408D+00
    81  8.0000000000000D-01 -2.7577590589135D-01  1.1358797658086D+00
    82  8.1000000000000D-01 -2.7073977810615D-01  1.1414074611485D+00
    83  8.2000000000000D-01 -2.6506520456942D-01  1.1463811711183D+00
    84  8.3000000000000D-01 -2.5873892213895D-01  1.1507901460427D+00
    85  8.4000000000000D-01 -2.5174863896947D-01  1.1546242074188D+00
    86  8.5000000000000D-01 -2.4408309379876D-01  1.1578737782626D+00
    87  8.6000000000000D-01 -2.3573211375994D-01  1.1605299126069D+00
    88  8.7000000000000D-01 -2.2668667048955D-01  1.1625843240606D+00
    89  8.8000000000000D-01 -2.1693893430029D-01  1.1640294133411D+00
    90  8.9000000000000D-01 -2.0648232618923D-01  1.1648582946926D+00
    91  9.0000000000000D-01 -1.9531156745354D-01  1.1650648211045D+00
    92  9.1000000000000D-01 -1.8342272668884D-01  1.1646436082448D+00
    93  9.2000000000000D-01 -1.7081326394933D-01  1.1635900570271D+00
    94  9.3000000000000D-01 -1.5748207185336D-01  1.1619003747310D+00
    95  9.4000000000000D-01 -1.4342951342373D-01  1.1595715945984D+00
    96  9.5000000000000D-01 -1.2865745645915D-01  1.1566015938306D+00
    97  9.6000000000000D-01 -1.1316930424039D-01  1.1529891099167D+00
    98  9.7000000000000D-01 -9.6970022383523D-02  1.1487337552220D+00
    99  9.8000000000000D-01 -8.0066161662124D-02  1.1438360297766D+00
   100  9.9000000000000D-01 -6.2465876630616D-02  1.1382973321992D+00
   101  1.0000000000000D+00 -4.4178939892263D-02  1.1321199687036D+00
   102  1.0100000000000D+00 -2.5216751867617D-02  1.1253071601346D+00
   103  1.0200000000000D+00 -5.5923459320514D-03  1.1178630469868D+00
   104  1.0300000000000D+00  1.4679611195099D-02  1.1097926923638D+00
   105  1.0400000000000D+00  3.5582823912523D-02  1.1011020828427D+00
   106  1.0500000000000D+00  5.7099377137566D-02  1.0917981272101D+00
   107  1.0600000000000D+00  7.9209750717454D-02  1.0818886530459D+00
   108  1.0700000000000D+00  1.0189283890543D-01  1.0713824011332D+00
   109  1.0800000000000D+00  1.2512597493973D-01  1.0602890176814D+00
   110  1.0900000000000D+00  1.4888496074474D-01  1.0486190443532D+00
   111  1.1000000000000D+00  1.7314410175597D-01  1.0363839060950D+00
   112  1.1100000000000D+00  1.9787624685225D-01  1.0235958967733D+00
   113  1.1200000000000D+00  2.2305283335751D-01  1.0102681626293D+00
   114  1.1300000000000D+00  2.4864393705722D-01  9.9641468356828D-01
   115  1.1400000000000D+00  2.7461832715221D-01  9.8205025230803D-01
   116  1.1500000000000D+00  3.0094352605762D-01  9.6719045141606D-01
   117  1.1600000000000D+00  3.2758587392861D-01  9.5185162827290D-01
   118  1.1700000000000D+00  3.5451059777786D-01  9.3605086800545D-01
   119  1.1800000000000D+00  3.8168188502931D-01  9.1980596444023D-01
   120  1.1900000000000D+00  4.0906296133457D-01  9.0313538913273D-01
   121  1.2000000000000D+00  4.3661617245413D-01  8.8605825853685D-01
   122  1.2100000000000D+00  4.6430306998716D-01  8.6859429938455D-01
   123  1.2200000000000D+00  4.9208450072113D-01  8.5076381234963D-01
   124  1.2300000000000D+00  5.1992069934373D-01  8.3258763407959D-01
   125  1.2400000000000D+00  5.4777138424465D-01  8.1408709768354D-01
   126  1.2500000000000D+00  5.7559585612140D-01  7.9528399176936D-01
   127  1.2600000000000D+00  6.0335309908151D-01  7.7620051812984D-01
   128  1.2700000000000D+00  6.3100188391342D-01  7.5685924818448D-01
   129  1.2800000000000D+00  6.5850087319087D-01  7.3728307828595D-01
   130  1.2900000000000D+00  6.8580872785634D-01  7.1749518400656D-01
   131  1.3000000000000D+00  7.1288421490837D-01  6.9751897352709D-01
   132  1.3100000000000D+00  7.3968631581622D-01  6.7737804025061D-01
   133  1.3200000000000D+00  7.6617433526543D-01  6.5709611477082D-01
   134  1.3300000000000D+00  7.9230800982155D-01  6.3669701632970D-01
   135  1.3400000000000D+00  8.1804761610351D-01  6.1620460389815D-01
   136  1.3500000000000D+00  8.4335407803406D-01  5.9564272702120D-01
   137  1.3600000000000D+00  8.6818907273053D-01  5.7503517657145D-01
   138  1.3700000000000D+00  8.9251513460197D-01  5.5440563555279D-01
   139  1.3800000000000D+00  9.1629575719508D-01  5.3377763010552D-01
   140  1.3900000000000D+00  9.3949549234313D-01  5.1317448085989D-01
   141  1.4000000000000D+00  9.6208004615930D-01  4.9261925478928D-01
   142  1.4100000000000D+00  9.8401637141732D-01  4.7213471771535D-01
   143  1.4200000000000D+00  1.0052727558613D+00  4.5174328761650D-01
   144  1.4300000000000D+00  1.0258189059857D+00  4.3146698889343D-01
   145  1.4400000000000D+00  1.0456260258351D+00  4.1132740774247D-01
   146  1.4500000000000D+00  1.0646668903597D+00  3.9134564879130D-01
   147  1.4600000000000D+00  1.0829159129001D+00  3.7154229314327D-01
   148  1.4700000000000D+00  1.1003492063335D+00  3.5193735798555D-01
   149  1.4800000000000D+00  1.1169446374736D+00  3.3255025790293D-01
   150  1.4900000000000D+00  1.1326818742841D+00  3.1339976804576D-01
   151  1.5000000000000D+00  1.1475424254903D+00  2.9450398929560D-01
   152  1.5100000000000D+00  1.1615096722097D+00  2.7588031556133D-01
   153  1.5200000000000D+00  1.1745688911616D+00  2.5754540335540D-01
   154  1.5300000000000D+00  1.1867072691581D+00  2.3951514376162D-01
   155  1.5400000000000D+00  1.1979139084180D+00  2.2180463694887D-01
   156  1.5500000000000D+00  1.2081798224620D+00  2.0442816932616D-01
   157  1.5600000000000D+00  1.2174979221733D+00  1.8739919348268D-01
   158  1.5700000000000D+00  1.2258629917848D+00  1.7073031100665D-01
   159  1.5800000000000D+00  1.2332716544633D+00  1.5443325830255D-01
   160  1.5900000000000D+00  1.2397223272355D+00  1.3851889550498D-01
   161  1.6000000000000D+00  1.2452151650340D+00  1.2299719857842D-01
   162  1.6100000000000D+00  1.2497519935823D+00  1.0787725470843D-01
   163  1.6200000000000D+00  1.2533362310155D+00  9.3167261038790D-02
   164  1.6300000000000D+00  1.2559727979297D+00  7.8874526868756D-02
   165  1.6400000000000D+00  1.2576680158807D+00  6.5005479327834D-02
   166  1.6500000000000D+00  1.2584294940000D+00  5.1565672650483D-02
   167  1.6600000000000D+00  1.2582660038762D+00  3.8559801030201D-02
   168  1.6700000000000D+00  1.2571873423471D+00  2.5991715182339D-02
   169  1.6800000000000D+00  1.2552041824757D+00  1.3864442557904D-02
   170  1.6900000000000D+00  1.2523279085747D+00  2.1802113574170D-03
   171  1.7000000000000D+00  1.2485704612463D+00 -9.0595218543919D-03
   172  1.7100000000000D+00  1.2439440927113D+00 -1.9854039870069D-02
   173  1.7200000000000D+00  1.2384613220827D+00 -3.0203332680965D-02
   174  1.7300000000000D+00  1.2321345965687D+00 -4.0108053222930D-02
   175  1.7400000000000D+00  1.2249757753827D+00 -4.9569478410224D-02
   176  1.7500000000000D+00  1.2169966138862D+00 -5.8589463339808D-02
   177  1.7600000000000D+00  1.2082091483246D+00 -6.7170387988225D-02
   178  1.7700000000000D+00  1.1986261238726D+00 -7.5315137870842D-02
   179  1.7800000000000D+00  1.1882617545915D+00 -8.3027088209372D-02
   180  1.7900000000000D+00  1.1771317347042D+00 -9.0310089262858D-02
   181  1.8000000000000D+00  1.1652529793649D+00 -9.7168458926892D-02
   182  1.8100000000000D+00  1.1526436099061D+00 -1.0360697079046D-01
   183  1.8200000000000D+00  1.1393229552195D+00 -1.0963083929512D-01
   184  1.8300000000000D+00  1.1253114740570D+00 -1.1524570662881D-01
   185  1.8400000000000D+00  1.1106307162626D+00 -1.2045762808828D-01
   186  1.8500000000000D+00  1.0953032663428D+00 -1.2527305701361D-01
   187  1.8600000000000D+00  1.0793526883200D+00 -1.2969882908065D-01
   188  1.8700000000000D+00  1.0628034688679D+00 -1.3374214605127D-01
   189  1.8800000000000D+00  1.0456809588139D+00 -1.3741055900258D-01
   190  1.8900000000000D+00  1.0280113132300D+00 -1.4071195109607D-01
   191  1.9000000000000D+00  1.0098214302213D+00 -1.4365451991399D-01
   192  1.9100000000000D+00  9.9113888860343D-01 -1.4624675941597D-01
   193  1.9200000000000D+00  9.7199188461908D-01 -1.4849744155459D-01
   194  1.9300000000000D+00  9.5240916785400D-01 -1.5041559759398D-01
   195  1.9400000000000D+00  9.3241997652144D-01 -1.5201049917680D-01
   196  1.9500000000000D+00  9.1205397227917D-01 -1.5329163918266D-01
   197  1.9600000000000D+00  8.9134117472153D-01 -1.5426871241881D-01
   198  1.9700000000000D+00  8.7031189575101D-01 -1.5495159619499D-01
   199  1.9800000000000D+00  8.4899667392855D-01 -1.5535033081310D-01
   200  1.9900000000000D+00  8.2742620902584D-01 -1.5547510002882D-01
   201  2.0000000000000D+00  8.0563129688758D-01 -1.5533621151685D-01
   202  2.0100000000000D+00  7.8364276476807D-01 -1.5494407738424D-01
   203  2.0200000000000D+00  7.6149140734416D-01 -1.5430919478487D-01
   204  2.0300000000000D+00  7.3920792342849D-01 -1.5344212664662D-01
   205  2.0400000000000D+00  7.1682285371272D-01 -1.5235348259483D-01
   206  2.0500000000000D+00  6.9436651948768D-01 -1.5105390006481D-01
   207  2.0600000000000D+00  6.7186896261676D-01 -1.4955402567481D-01
   208  2.0700000000000D+00  6.4935988686592D-01 -1.4786449688922D-01
   209  2.0800000000000D+00  6.2686860060727D-01 -1.4599592398122D-01
   210  2.0900000000000D+00  6.0442396125988D-01 -1.4395887238766D-01
   211  2.1000000000000D+00  5.8205432128639D-01 -1.4176384541695D-01
   212  2.1100000000000D+00  5.5978747611267D-01 -1.3942126740407D-01
   213  2.1200000000000D+00  5.3765061397006D-01 -1.3694146731716D-01
   214  2.1300000000000D+00  5.1567026765394D-01 -1.3433466281881D-01
   215  2.1400000000000D+00  4.9387226860296D-01 -1.3161094488561D-01
   216  2.1500000000000D+00  4.7228170298796D-01 -1.2878026291413D-01
   217  2.1600000000000D+00  4.5092287021819D-01 -1.2585241041801D-01
   218  2.1700000000000D+00  4.2981924384322D-01 -1.2283701131532D-01
   219  2.1800000000000D+00  4.0899343469935D-01 -1.1974350677302D-01
   220  2.1900000000000D+00  3.8846715684401D-01 -1.1658114274764D-01
   221  2.2000000000000D+00  3.6826119580748D-01 -1.1335895810944D-01
   222  2.2100000000000D+00  3.4839537952238D-01 -1.1008577344409D-01
   223  2.2200000000000D+00  3.2888855201853D-01 -1.0677018055804D-01
   224  2.2300000000000D+00  3.0975854952350D-01 -1.0342053260146D-01
   225  2.2400000000000D+00  2.9102217955431D-01 -1.0004493496021D-01
   226  2.2500000000000D+00  2.7269520260104D-01 -9.6651236820275D-02
   227  2.2600000000000D+00  2.5479231642537D-01 -9.3247023414743D-02
   228  2.2700000000000D+00  2.3732714339149D-01 -8.9839609062971D-02
   229  2.2800000000000D+00  2.2031222024713D-01 -8.6436030858517D-02
   230  2.2900000000000D+00  2.0375899074524D-01 -8.3043043109212D-02
   231  2.3000000000000D+00  1.8767780109606D-01 -7.9667112531054D-02
   232  2.3100000000000D+00  1.7207789781130D-01 -7.6314414087679D-02
   233  2.3200000000000D+00  1.5696742849243D-01 -7.2990827621583D-02
   234  2.3300000000000D+00  1.4235344517331D-01 -6.9701935181015D-02
   235  2.3400000000000D+00  1.2824190999621D-01 -6.6453018989057D-02
   236  2.3500000000000D+00  1.1463770380861D-01 -6.3249060212391D-02
   237  2.3600000000000D+00  1.0154463697092D-01 -6.0094738348840D-02
   238  2.3700000000000D+00  8.8965462534059D-02 -5.6994431279294D-02
   239  2.3800000000000D+00  7.6901892019123D-02 -5.3952216050431D-02
   240  2.3900000000000D+00  6.5354613210974D-02 -5.0971870236504D-02
   241  2.4000000000000D+00  5.4323310211615D-02 -4.8056873950544D-02
   242  2.4100000000000D+00  4.3806685746321D-02 -4.5210412508541D-02
   243  2.4200000000000D+00  3.3802485262870D-02 -4.2435379626217D-02
   244  2.4300000000000D+00  2.4307523096799D-02 -3.9734381229052D-02
   245  2.4400000000000D+00  1.5317710521225D-02 -3.7109739831311D-02
   246  2.4500000000000D+00  6.8280853451554D-03 -3.4563499394384D-02
   247  2.4600000000000D+00 -1.1671566963651D-03 -3.2097430741447D-02
   248  2.4700000000000D+00 -8.6746290384033D-03 -2.9713037455090D-02
   249  2.4800000000000D+00 -1.5701720099776D-02 -2.7411562194668D-02
   250  2.4900000000000D+00 -2.2256557650178D-02 -2.5193993494164D-02
   251  2.5000000000000D+00 -2.8347972026751D-02 -2.3061072957702D-02
   252  2.5100000000000D+00 -3.3985458351192D-02 -2.1013302809760D-02
   253  2.5200000000000D+00 -3.9179137701939D-02 -1.9050953834558D-02
   254  2.5300000000000D+00 -4.3939717486743D-02 -1.7174073629764D-02
   255  2.5400000000000D+00 -4.8278451109715D-02 -1.5382495145895D-02
   256  2.5500000000000D+00 -5.2207097031501D-02 -1.3675845512491D-02
   257  2.5600000000000D+00 -5.5737877369623D-02 -1.2053555097260D-02
   258  2.5700000000000D+00 -5.8883436091103D-02 -1.0514866779604D-02
   259  2.5800000000000D+00 -6.1656797047432D-02 -9.0588454032310D-03
   260  2.5900000000000D+00 -6.4071321885241D-02 -7.6843873809932D-03
   261  2.6000000000000D+00 -6.6140667844071D-02 -6.3902304421374D-03
   262  2.6100000000000D+00 -6.7878745825407D-02 -5.1749634529566D-03
   263  2.6200000000000D+00 -6.9299678681725D-02 -4.0370363066574D-03
   264  2.6300000000000D+00 -7.0417759678875D-02 -2.9747698844231D-03
   265  2.6400000000000D+00 -7.1247411600444D-02 -1.9863659950753D-03
   266  2.6500000000000D+00 -7.1803146443858D-02 -1.0699172943818D-03
   267  2.6600000000000D+00 -7.2099525564072D-02 -2.2341720604645D-04
   268  2.6700000000000D+00 -7.2151120728693D-02  5.5523025241747D-04
   269  2.6800000000000D+00 -7.1972476186288D-02  1.2682007655458D-03
   270  2.6900000000000D+00 -7.1578071443177D-02  1.9177400814995D-03
   271  2.7000000000000D+00 -7.0982285076699D-02  2.5061545108606D-03
   272  2.7100000000000D+00 -7.0199360053407D-02  3.0358016654524D-03
   273  2.7200000000000D+00 -6.9243370003518D-02  3.5090813281083D-03
   274  2.7300000000000D+00 -6.8128186478081D-02  3.9284264613985D-03
   275  2.7400000000000D+00 -6.6867448302517D-02  4.2962945987009D-03
   276  2.7500000000000D+00 -6.5474532005550D-02  4.6151594039771D-03
   277  2.7600000000000D+00 -6.3962523275001D-02  4.8875023911626D-03
   278  2.7700000000000D+00 -6.2344190817090D-02  5.1158051090981D-03
   279  2.7800000000000D+00 -6.0631961489563D-02  5.3025415493207D-03
   280  2.7900000000000D+00 -5.8837896709037D-02  5.4501707791378D-03
   281  2.8000000000000D+00 -5.6973670976597D-02  5.5611299919372D-03
   282  2.8100000000000D+00 -5.5050552267294D-02  5.6378279223514D-03
   283  2.8200000000000D+00 -5.3079383828245D-02  5.6826385284612D-03
   284  2.8300000000000D+00 -5.1070567550760D-02  5.6978949813317D-03
   285  2.8400000000000D+00 -4.9034049946154D-02  5.6858841986375D-03
   286  2.8500000000000D+00 -4.6979309502774D-02  5.6488416506602D-03
   287  2.8600000000000D+00 -4.4915345218854D-02  5.5889463933689D-03
   288  2.8700000000000D+00 -4.2850668109685D-02  5.5083167446751D-03
   289  2.8800000000000D+00 -4.0793294022241D-02  5.4090062264353D-03
   290  2.8900000000000D+00 -3.8750737938073D-02  5.2929998161225D-03
   291  2.9000000000000D+00 -3.6730010314328D-02  5.1622106398020D-03
   292  2.9100000000000D+00 -3.4737615554996D-02  5.0184771318273D-03
   293  2.9200000000000D+00 -3.2779551959929D-02  4.8635605143244D-03
   294  2.9300000000000D+00 -3.0861312654772D-02  4.6991424817462D-03
   295  2.9400000000000D+00 -2.8987889556757D-02  4.5268235788768D-03
   296  2.9500000000000D+00 -2.7163778215790D-02  4.3481217679528D-03
   297  2.9600000000000D+00 -2.5392984018038D-02  4.1644713015907D-03
   298  2.9700000000000D+00 -2.3679030260204D-02  3.9772220284328D-03
   299  2.9800000000000D+00 -2.2024967902515D-02  3.7876390897304D-03
   300  2.9900000000000D+00 -2.0433386566184D-02  3.5969029079456D-03
   301  3.0000000000000D+00 -1.8906426233984D-02  3.4061093363781D-03
   302  3.0100000000000D+00 -1.7445791411652D-02  3.2162704073225D-03
   303  3.0200000000000D+00 -1.6052765834052D-02  3.0283152127426D-03
   304  3.0300000000000D+00 -1.4728228267703D-02  2.8430910551694D-03
   305  3.0400000000000D+00 -1.3472669442892D-02  2.6613648843880D-03
   306  3.0500000000000D+00 -1.2286210281852D-02  2.4838250680285D-03
   307  3.0600000000000D+00 -1.1168620794069D-02  2.3110833418663D-03
   308  3.0700000000000D+00 -1.0119339564582D-02  2.1436769172407D-03
   309  3.0800000000000D+00 -9.1374943992119D-03  1.9820709134595D-03
   310  3.0900000000000D+00 -8.2219234367506D-03  1.8266609293146D-03
   311  3.1000000000000D+00 -7.3711968066811D-03  1.6777757832689D-03
   312  3.1100000000000D+00 -6.5836386950495D-03  1.5356803797638D-03
   313  3.1200000000000D+00 -5.8573499380280D-03  1.4005787752246D-03
   314  3.1300000000000D+00 -5.1902307826428D-03  1.2726173174009D-03
   315  3.1400000000000D+00 -4.5800039310851D-03  1.1518878991946D-03
   316  3.1500000000000D+00 -4.0242376622082D-03  1.0384312912213D-03
   317  3.1600000000000D+00 -3.5203688739750D-03  9.3224052930306D-04
   318  3.1700000000000D+00 -3.0657260632491D-03  8.3326434054601D-04
   319  3.1800000000000D+00 -2.6575524721431D-03  7.4141065477393D-04
   320  3.1900000000000D+00 -2.2930285468611D-03  6.5655004965399D-04
   321  3.2000000000000D+00 -1.9692941542538D-03  5.7851920316020D-04
   322  3.2100000000000D+00 -1.6834702988997D-03  5.0712430267371D-04
   323  3.2200000000000D+00 -1.4326811294791D-03  4.4214456332863D-04
   324  3.2300000000000D+00 -1.2140741241701D-03  3.8333544943085D-04
   325  3.2400000000000D+00 -1.0248402703280D-03  3.3043194524849D-04
   326  3.2500000000000D+00 -8.6223324057655D-04  2.8315168118815D-04
   327  3.2600000000000D+00 -7.2358891990297D-04  2.4119818524900D-04
   328  3.2700000000000D+00 -6.0634209287887D-04  2.0426362076585D-04
   329  3.2800000000000D+00 -5.0808364053889D-04  1.7204138632918D-04
   330  3.2900000000000D+00 -4.2663227645916D-04  1.4424234752998D-04
   331  3.3000000000000D+00 -3.5950613776372D-04  1.2046564506308D-04
   332  3.3100000000000D+00 -3.0462696055984D-04  1.0036847191448D-04
   333  3.3200000000000D+00 -2.5980910210582D-04  8.3531297990081D-05
   334  3.3300000000000D+00 -2.2287434485601D-04  6.9487352374927D-05
   335  3.3400000000000D+00 -1.9447109220165D-04  5.8482786816147D-05
   336  3.3500000000000D+00 -1.7398620786396D-04  5.0374239602703D-05
   337  3.3600000000000D+00 -1.6155664717091D-04  4.5186002657765D-05
   338  3.3700000000000D+00 -1.5720370213370D-04  4.2873794280167D-05
   339  3.3800000000000D+00 -1.5304386807633D-04  4.1148092197409D-05
   340  3.3900000000000D+00 -1.4471013468730D-04  3.8684520941561D-05
   341  3.4000000000000D+00 -1.2713926380400D-04  3.3954289014581D-05
   342  3.4100000000000D+00 -9.5361363471131D-05  2.5453877633561D-05
   343  3.4200000000000D+00 -5.9427111496005D-05  1.5870382455311D-05
   344  3.4300000000000D+00 -2.4718577374336D-05  6.6079872999872D-06
   345  3.4400000000000D+00  2.2408694232741D-06 -5.9541366763770D-07
   346  3.4500000000000D+00  1.2252089542599D-05 -3.2544435648498D-06
   347  3.4600000000000D+00  1.3163729635511D-05 -3.4959535280285D-06
   348  3.4700000000000D+00  7.8335011572218D-06 -2.0801746445714D-06
   349  3.4800000000000D+00 -4.3931873103877D-08  1.1646678959756D-08
   350  3.4900000000000D+00 -2.3988326452532D-06  6.3574104277304D-07
   351  3.5000000000000D+00 -3.0869330156055D-06  8.1786976142778D-07
   352  3.5100000000000D+00 -2.1950568369032D-06  5.8142622724859D-07
   353  3.5200000000000D+00 -3.3348256128924D-07  8.8313372441546D-08
   354  3.5300000000000D+00  2.4337414223639D-07 -6.5018596395544D-08
   355  3.5400000000000D+00  3.7447927580703D-07 -1.0004397619425D-07
   356  3.5500000000000D+00  3.1096627871460D-07 -8.3076167347024D-08
   357  3.5600000000000D+00  1.0079664090855D-07 -2.6928317252758D-08
   358  3.5700000000000D+00  0.0000000000000D+00  0.0000000000000D+00
   359  3.5800000000000D+00  0.0000000000000D+00  0.0000000000000D+00
   360  3.5900000000000D+00  0.0000000000000D+00  0.0000000000000D+00
   361  3.6000000000000D+00  0.0000000000000D+00  0.0000000000000D+00
   362  3.6100000000000D+00  0.0000000000000D+00  0.0000000000000D+00
   363  3.6200000000000D+00  0.0000000000000D+00  0.0000000000000D+00
   364  3.6300000000000D+00  0.0000000000000D+00  0.0000000000000D+00
   365  3.6400000000000D+00  0.0000000000000D+00  0.0000000000000D+00
   366  3.6500000000000D+00  0.0000000000000D+00  0.0000000000000D+00
   367  3.6600000000000D+00  0.0000000000000D+00  0.0000000000000D+00
   368  3.6700000000000D+00  0.0000000000000D+00  0.0000000000000D+00
   369  3.6800000000000D+00  0.0000000000000D+00  0.0000000000000D+00
   370  3.6900000000000D+00  0.0000000000000D+00  0.0000000000000D+00
   371  3.7000000000000D+00  0.0000000000000D+00  0.0000000000000D+00
   372  3.7100000000000D+00  0.0000000000000D+00  0.0000000000000D+00
   373  3.7200000000000D+00  0.0000000000000D+00  0.0000000000000D+00
   374  3.7300000000000D+00  0.0000000000000D+00  0.0000000000000D+00
   375  3.7400000000000D+00  0.0000000000000D+00  0.0000000000000D+00
   376  3.7500000000000D+00  0.0000000000000D+00  0.0000000000000D+00
   377  3.7600000000000D+00  0.0000000000000D+00  0.0000000000000D+00
   378  3.7700000000000D+00  0.0000000000000D+00  0.0000000000000D+00
   379  3.7800000000000D+00  0.0000000000000D+00  0.0000000000000D+00
   380  3.7900000000000D+00  0.0000000000000D+00  0.0000000000000D+00
   381  3.8000000000000D+00  0.0000000000000D+00  0.0000000000000D+00
   382  3.8100000000000D+00  0.0000000000000D+00  0.0000000000000D+00
   383  3.8200000000000D+00  0.0000000000000D+00  0.0000000000000D+00
   384  3.8300000000000D+00  0.0000000000000D+00  0.0000000000000D+00
   385  3.8400000000000D+00  0.0000000000000D+00  0.0000000000000D+00
   386  3.8500000000000D+00  0.0000000000000D+00  0.0000000000000D+00
   387  3.8600000000000D+00  0.0000000000000D+00  0.0000000000000D+00
   388  3.8700000000000D+00  0.0000000000000D+00  0.0000000000000D+00
   389  3.8800000000000D+00  0.0000000000000D+00  0.0000000000000D+00
   390  3.8900000000000D+00  0.0000000000000D+00  0.0000000000000D+00
   391  3.9000000000000D+00  0.0000000000000D+00  0.0000000000000D+00
   392  3.9100000000000D+00  0.0000000000000D+00  0.0000000000000D+00
   393  3.9200000000000D+00  0.0000000000000D+00  0.0000000000000D+00
   394  3.9300000000000D+00  0.0000000000000D+00  0.0000000000000D+00
   395  3.9400000000000D+00  0.0000000000000D+00  0.0000000000000D+00
   396  3.9500000000000D+00  0.0000000000000D+00  0.0000000000000D+00
   397  3.9600000000000D+00  0.0000000000000D+00  0.0000000000000D+00
   398  3.9700000000000D+00  0.0000000000000D+00  0.0000000000000D+00
   399  3.9800000000000D+00  0.0000000000000D+00  0.0000000000000D+00
   400  3.9900000000000D+00  0.0000000000000D+00  0.0000000000000D+00
   401  4.0000000000000D+00  0.0000000000000D+00  0.0000000000000D+00
   402  4.0100000000000D+00  0.0000000000000D+00  0.0000000000000D+00
   403  4.0200000000000D+00  0.0000000000000D+00  0.0000000000000D+00
   404  4.0300000000000D+00  0.0000000000000D+00  0.0000000000000D+00
   405  4.0400000000000D+00  0.0000000000000D+00  0.0000000000000D+00
   406  4.0500000000000D+00  0.0000000000000D+00  0.0000000000000D+00
   407  4.0600000000000D+00  0.0000000000000D+00  0.0000000000000D+00
   408  4.0700000000000D+00  0.0000000000000D+00  0.0000000000000D+00
   409  4.0800000000000D+00  0.0000000000000D+00  0.0000000000000D+00
   410  4.0900000000000D+00  0.0000000000000D+00  0.0000000000000D+00
   411  4.1000000000000D+00  0.0000000000000D+00  0.0000000000000D+00
   412  4.1100000000000D+00  0.0000000000000D+00  0.0000000000000D+00
   413  4.1200000000000D+00  0.0000000000000D+00  0.0000000000000D+00
   414  4.1300000000000D+00  0.0000000000000D+00  0.0000000000000D+00
   415  4.1400000000000D+00  0.0000000000000D+00  0.0000000000000D+00
   416  4.1500000000000D+00  0.0000000000000D+00  0.0000000000000D+00
   417  4.1600000000000D+00  0.0000000000000D+00  0.0000000000000D+00
   418  4.1700000000000D+00  0.0000000000000D+00  0.0000000000000D+00
   419  4.1800000000000D+00  0.0000000000000D+00  0.0000000000000D+00
   420  4.1900000000000D+00  0.0000000000000D+00  0.0000000000000D+00
   421  4.2000000000000D+00  0.0000000000000D+00  0.0000000000000D+00
   422  4.2100000000000D+00  0.0000000000000D+00  0.0000000000000D+00