Ir    ONCVPSP-3.3.1  r_core=   2.29513   2.11127   2.29513   2.91352
     77.0000     17.0000      210904    zatom,zion,pspd
     8       2   3     4   600     0    pspcod,pspxc,lmax,lloc,mmax,r2well
  5.99000000  0.00000000  0.00000000    rchrg fchrg qchrg
     2     2     2     2     0    nproj
     1     1           extension_switch
   0                         6.8693416671660D+00  1.3653441496514D+00
     1  0.0000000000000D+00  7.8299033923201D-12 -2.3660226555755D-11
     2  1.0000000000000D-02  5.6617803249924D-02 -9.5584564630965D-03
     3  2.0000000000000D-02  1.1315278056165D-01 -1.9079486179270D-02
     4  3.0000000000000D-02  1.6952221796932D-01 -2.8525649410079D-02
     5  4.0000000000000D-02  2.2564362551880D-01 -3.7859481169925D-02
     6  5.0000000000000D-02  2.8143484943938D-01 -4.7043480436152D-02
     7  6.0000000000000D-02  3.3681418450868D-01 -5.6040101542787D-02
     8  7.0000000000000D-02  3.9170048666622D-01 -6.4811748457934D-02
     9  8.0000000000000D-02  4.4601328592282D-01 -7.3320772621216D-02
    10  9.0000000000000D-02  4.9967289960365D-01 -8.1529474988365D-02
    11  1.0000000000000D-01  5.5260054595114D-01 -8.9400112895368D-02
    12  1.1000000000000D-01  6.0471845810091D-01 -9.6894912314670D-02
    13  1.2000000000000D-01  6.5594999842902D-01 -1.0397608603108D-01
    14  1.3000000000000D-01  7.0621977325301D-01 -1.1060585821546D-01
    15  1.4000000000000D-01  7.5545374785118D-01 -1.1674649582040D-01
    16  1.5000000000000D-01  8.0357936174646D-01 -1.2236034716445D-01
    17  1.6000000000000D-01  8.5052564418076D-01 -1.2740988800950D-01
    18  1.7000000000000D-01  8.9622332968574D-01 -1.3185777537197D-01
    19  1.8000000000000D-01  9.4060497363390D-01 -1.3566690924027D-01
    20  1.9000000000000D-01  9.8360506763247D-01 -1.3880050230173D-01
    21  2.0000000000000D-01  1.0251601545998D+00 -1.4122215771029D-01
    22  2.1000000000000D-01  1.0652089433419D+00 -1.4289595485332D-01
    23  2.2000000000000D-01  1.1036924224236D+00 -1.4378654300172D-01
    24  2.3000000000000D-01  1.1405539731072D+00 -1.4385924265338D-01
    25  2.4000000000000D-01  1.1757394811089D+00 -1.4308015430557D-01
    26  2.5000000000000D-01  1.2091974469023D+00 -1.4141627431814D-01
    27  2.6000000000000D-01  1.2408790942776D+00 -1.3883561745697D-01
    28  2.7000000000000D-01  1.2707384768447D+00 -1.3530734563586D-01
    29  2.8000000000000D-01  1.2987325821510D+00 -1.3080190230636D-01
    30  2.9000000000000D-01  1.3248214330672D+00 -1.2529115187865D-01
    31  3.0000000000000D-01  1.3489681860777D+00 -1.1874852349321D-01
    32  3.1000000000000D-01  1.3711392260991D+00 -1.1114915840351D-01
    33  3.2000000000000D-01  1.3913042574381D+00 -1.0247006017398D-01
    34  3.3000000000000D-01  1.4094363904889D+00 -9.2690246846003D-02
    35  3.4000000000000D-01  1.4255122237635D+00 -8.1790904178460D-02
    36  3.5000000000000D-01  1.4395119208407D+00 -6.9755539027306D-02
    37  3.6000000000000D-01  1.4514192818169D+00 -5.6570131893017D-02
    38  3.7000000000000D-01  1.4612218088415D+00 -4.2223287634350D-02
    39  3.8000000000000D-01  1.4689107653193D+00 -2.6706383322700D-02
    40  3.9000000000000D-01  1.4744812283676D+00 -1.0013712193516D-02
    41  4.0000000000000D-01  1.4779321341224D+00  7.8573773602724D-03
    42  4.1000000000000D-01  1.4792663154970D+00  2.6906348812289D-02
    43  4.2000000000000D-01  1.4784905320092D+00  4.7129351601846D-02
    44  4.3000000000000D-01  1.4756154913066D+00  6.8519103356673D-02
    45  4.4000000000000D-01  1.4706558620405D+00  9.1064781271728D-02
    46  4.5000000000000D-01  1.4636302777546D+00  1.1475192365396D-01
    47  4.6000000000000D-01  1.4545613314822D+00  1.3956234261283D-01
    48  4.7000000000000D-01  1.4434755607688D+00  1.6547404884010D-01
    49  4.8000000000000D-01  1.4304034228647D+00  1.9246118937888D-01
    50  4.9000000000000D-01  1.4153792598660D+00  2.2049399923253D-01
    51  5.0000000000000D-01  1.3984412536098D+00  2.4953876760742D-01
    52  5.1000000000000D-01  1.3796313701715D+00  2.7955781952195D-01
    53  5.2000000000000D-01  1.3589952938424D+00  3.1050951344589D-01
    54  5.3000000000000D-01  1.3365823505092D+00  3.4234825556113D-01
    55  5.4000000000000D-01  1.3124454203968D+00  3.7502453115617D-01
    56  5.5000000000000D-01  1.2866408401758D+00  4.0848495358388D-01
    57  5.6000000000000D-01  1.2592282944838D+00  4.4267233112441D-01
    58  5.7000000000000D-01  1.2302706969490D+00  4.7752575200440D-01
    59  5.8000000000000D-01  1.1998340608553D+00  5.1298068772871D-01
    60  5.9000000000000D-01  1.1679873596298D+00  5.4896911478415D-01
    61  6.0000000000000D-01  1.1348023773830D+00  5.8541965467494D-01
    62  6.1000000000000D-01  1.1003535497780D+00  6.2225773214850D-01
    63  6.2000000000000D-01  1.0647177955500D+00  6.5940575136817D-01
    64  6.3000000000000D-01  1.0279743390458D+00  6.9678328968603D-01
    65  6.4000000000000D-01  9.9020452419817D-01  7.3430730856717D-01
    66  6.5000000000000D-01  9.5149162039246D-01  7.7189238111373D-01
    67  6.6000000000000D-01  9.1192062073018D-01  8.0945093553658D-01
    68  6.7000000000000D-01  8.7157803323308D-01  8.4689351382397D-01
    69  6.8000000000000D-01  8.3055166557396D-01  8.8412904475888D-01
    70  6.9000000000000D-01  7.8893040395845D-01  9.2106513034453D-01
    71  7.0000000000000D-01  7.4680398681844D-01  9.5760834460655D-01
    72  7.1000000000000D-01  7.0426277401261D-01  9.9366454365535D-01
    73  7.2000000000000D-01  6.6139751226078D-01  1.0291391858110D+00
    74  7.3000000000000D-01  6.1829909756786D-01  1.0639376605169D+00
    75  7.4000000000000D-01  5.7505833541941D-01  1.0979656246987D+00
    76  7.5000000000000D-01  5.3176569955310D-01  1.1311293451615D+00
    77  7.6000000000000D-01  4.8851109013035D-01  1.1633360455596D+00
    78  7.7000000000000D-01  4.4538359214811D-01  1.1944942564254D+00
    79  7.8000000000000D-01  4.0247123494346D-01  1.2245141666979D+00
    80  7.9000000000000D-01  3.5986075365196D-01  1.2533079751591D+00
    81  8.0000000000000D-01  3.1763735348620D-01  1.2807902401568D+00
    82  8.1000000000000D-01  2.7588447770134D-01  1.3068782259756D+00
    83  8.2000000000000D-01  2.3468358011200D-01  1.3314922442051D+00
    84  8.3000000000000D-01  1.9411390301758D-01  1.3545559884525D+00
    85  8.4000000000000D-01  1.5425226138245D-01  1.3759968607553D+00
    86  8.5000000000000D-01  1.1517283410246D-01  1.3957462880612D+00
    87  8.6000000000000D-01  7.6946963170247D-02  1.4137400271687D+00
    88  8.7000000000000D-01  3.9642961529355D-02  1.4299184565536D+00
    89  8.8000000000000D-01  3.3259303805301D-03  1.4442268535454D+00
    90  8.9000000000000D-01 -3.1942413326825D-02  1.4566156553694D+00
    91  9.0000000000000D-01 -6.6103898518667D-02  1.4670407026246D+00
    92  9.1000000000000D-01 -9.9104050073910D-02  1.4754634638336D+00
    93  9.2000000000000D-01 -1.3089222673426D-01  1.4818512397726D+00
    94  9.3000000000000D-01 -1.6142174626863D-01  1.4861773463692D+00
    95  9.4000000000000D-01 -1.9064999736122D-01  1.4884212750414D+00
    96  9.5000000000000D-01 -2.1853853774151D-01  1.4885688294434D+00
    97  9.6000000000000D-01 -2.4505317812630D-01  1.4866122376828D+00
    98  9.7000000000000D-01 -2.7016405159838D-01  1.4825502391774D+00
    99  9.8000000000000D-01 -2.9384566810148D-01  1.4763881454263D+00
   100  9.9000000000000D-01 -3.1607695378943D-01  1.4681378740838D+00
   101  1.0000000000000D+00 -3.3684127502681D-01  1.4578179558419D+00
   102  1.0100000000000D+00 -3.5612644689793D-01  1.4454535137428D+00
   103  1.0200000000000D+00 -3.7392472614233D-01  1.4310762146672D+00
   104  1.0300000000000D+00 -3.9023278849601D-01  1.4147241928638D+00
   105  1.0400000000000D+00 -4.0505169048159D-01  1.3964419455167D+00
   106  1.0500000000000D+00 -4.1838681574665D-01  1.3762802004557D+00
   107  1.0600000000000D+00 -4.3024780611744D-01  1.3542957562583D+00
   108  1.0700000000000D+00 -4.4064847759095D-01  1.3305512950980D+00
   109  1.0800000000000D+00 -4.4960672154861D-01  1.3051151688241D+00
   110  1.0900000000000D+00 -4.5714439153611D-01  1.2780611588745D+00
   111  1.1000000000000D+00 -4.6328717600159D-01  1.2494682107297D+00
   112  1.1100000000000D+00 -4.6806445744945D-01  1.2194201437418D+00
   113  1.1200000000000D+00 -4.7150915851170D-01  1.1880053372671D+00
   114  1.1300000000000D+00 -4.7365757549296D-01  1.1553163941449D+00
   115  1.1400000000000D+00 -4.7454919998671D-01  1.1214497826442D+00
   116  1.1500000000000D+00 -4.7422652920890D-01  1.0865054581054D+00
   117  1.1600000000000D+00 -4.7273486573487D-01  1.0505864655840D+00
   118  1.1700000000000D+00 -4.7012210736390D-01  1.0137985248822D+00
   119  1.1800000000000D+00 -4.6643852786244D-01  9.7624959940820D-01
   120  1.1900000000000D+00 -4.6173654937684D-01  9.3804945038846D-01
   121  1.2000000000000D+00 -4.5607050732741D-01  8.9930917799640D-01
   122  1.2100000000000D+00 -4.4949640861768D-01  8.6014075100934D-01
   123  1.2200000000000D+00 -4.4207168400903D-01  8.2065652663757D-01
   124  1.2300000000000D+00 -4.3385493553142D-01  7.8096876221029D-01
   125  1.2400000000000D+00 -4.2490567980253D-01  7.4118912040639D-01
   126  1.2500000000000D+00 -4.1528408813686D-01  7.0142816973595D-01
   127  1.2600000000000D+00 -4.0505072432984D-01  6.6179488198344D-01
   128  1.2700000000000D+00 -3.9426628099041D-01  6.2239612829878D-01
   129  1.2800000000000D+00 -3.8299131529982D-01  5.8333617562973D-01
   130  1.2900000000000D+00 -3.7128598505683D-01  5.4471618515101D-01
   131  1.3000000000000D+00 -3.5920978584410D-01  5.0663371428949D-01
   132  1.3100000000000D+00 -3.4682129015841D-01  4.6918222396237D-01
   133  1.3200000000000D+00 -3.3417788929976D-01  4.3245059254156D-01
   134  1.3300000000000D+00 -3.2133553877949D-01  3.9652263798336D-01
   135  1.3400000000000D+00 -3.0834850803222D-01  3.6147664961474D-01
   136  1.3500000000000D+00 -2.9526913510841D-01  3.2738493083694D-01
   137  1.3600000000000D+00 -2.8214758703196D-01  2.9431335402398D-01
   138  1.3700000000000D+00 -2.6903162649391D-01  2.6232092886418D-01
   139  1.3800000000000D+00 -2.5596638424668D-01  2.3145938077300D-01
   140  1.3900000000000D+00 -2.4299414581515D-01  2.0177277008697D-01
   141  1.4000000000000D+00 -2.3015412076148D-01  1.7329703516207D-01
   142  1.4100000000000D+00 -2.1748231240976D-01  1.4605988441859D-01
   143  1.4200000000000D+00 -2.0501117388254D-01  1.2007990352865D-01
   144  1.4300000000000D+00 -1.9276950563698D-01  9.5366512306301D-02
   145  1.4400000000000D+00 -1.8078296754423D-01  7.1922215398849D-02
   146  1.4500000000000D+00 -1.6907453882587D-01  4.9744466896405D-02
   147  1.4600000000000D+00 -1.5766518068471D-01  2.8828136159830D-02
   148  1.4700000000000D+00 -1.4657383313139D-01  9.1654666237328D-03
   149  1.4800000000000D+00 -1.3581733922261D-01 -9.2542926292491D-03
   150  1.4900000000000D+00 -1.2541054453847D-01 -2.6444566274437D-02
   151  1.5000000000000D+00 -1.1536631591126D-01 -4.2421461596149D-02
   152  1.5100000000000D+00 -1.0569559279675D-01 -5.7203658915640D-02
   153  1.5200000000000D+00 -9.6407435446046D-02 -7.0812322509723D-02
   154  1.5300000000000D+00 -8.7509078112833D-02 -8.3270999491432D-02
   155  1.5400000000000D+00 -7.9005910792436D-02 -9.4605756272782D-02
   156  1.5500000000000D+00 -7.0902110462100D-02 -1.0484320429879D-01
   157  1.5600000000000D+00 -6.3199715159042D-02 -1.1401360155726D-01
   158  1.5700000000000D+00 -5.5896606541114D-02 -1.2215753585298D-01
   159  1.5800000000000D+00 -4.8994445393530D-02 -1.2930010752200D-01
   160  1.5900000000000D+00 -4.2502007345377D-02 -1.3544012699292D-01
   161  1.6000000000000D+00 -3.6415925690122D-02 -1.4061330404095D-01
   162  1.6100000000000D+00 -3.0717889242568D-02 -1.4490149833691D-01
   163  1.6200000000000D+00 -2.5397209214538D-02 -1.4835865717110D-01
   164  1.6300000000000D+00 -2.0452103109160D-02 -1.5100671817204D-01
   165  1.6400000000000D+00 -1.5876194634558D-02 -1.5288019923944D-01
   166  1.6500000000000D+00 -1.1658944378458D-02 -1.5402490673462D-01
   167  1.6600000000000D+00 -7.7899959175473D-03 -1.5448372229298D-01
   168  1.6700000000000D+00 -4.2586987788037D-03 -1.5429829177587D-01
   169  1.6800000000000D+00 -1.0535226191014D-03 -1.5351107319872D-01
   170  1.6900000000000D+00  1.8376940680721D-03 -1.5216463327489D-01
   171  1.7000000000000D+00  4.4276185361279D-03 -1.5030135057090D-01
   172  1.7100000000000D+00  6.7293579083056D-03 -1.4796331411342D-01
   173  1.7200000000000D+00  8.7563803000828D-03 -1.4519217837847D-01
   174  1.7300000000000D+00  1.0522437897877D-02 -1.4202902351787D-01
   175  1.7400000000000D+00  1.2041492115980D-02 -1.3851422103537D-01
   176  1.7500000000000D+00  1.3327641185555D-02 -1.3468730571108D-01
   177  1.7600000000000D+00  1.4395050309874D-02 -1.3058685404206D-01
   178  1.7700000000000D+00  1.5257884684513D-02 -1.2625036986384D-01
   179  1.7800000000000D+00  1.5930245522707D-02 -1.2171417743247D-01
   180  1.7900000000000D+00  1.6426109283688D-02 -1.1701332238560D-01
   181  1.8000000000000D+00  1.6759270298075D-02 -1.1218148099368D-01
   182  1.8100000000000D+00  1.6943286835257D-02 -1.0725087774885D-01
   183  1.8200000000000D+00  1.6991430910840D-02 -1.0225221195379D-01
   184  1.8300000000000D+00  1.6916641670873D-02 -9.7214592855686D-02
   185  1.8400000000000D+00  1.6731482806089D-02 -9.2165484360022D-02
   186  1.8500000000000D+00  1.6448103581890D-02 -8.7130658267110D-02
   187  1.8600000000000D+00  1.6078204090899D-02 -8.2134157432103D-02
   188  1.8700000000000D+00  1.5633004159232D-02 -7.7198267423798D-02
   189  1.8800000000000D+00  1.5123216461340D-02 -7.2343497953519D-02
   190  1.8900000000000D+00  1.4559023374578D-02 -6.7588572894004D-02
   191  1.9000000000000D+00  1.3950057854912D-02 -6.2950429500618D-02
   192  1.9100000000000D+00  1.3305388127488D-02 -5.8444226285525D-02
   193  1.9200000000000D+00  1.2633506093613D-02 -5.4083359250100D-02
   194  1.9300000000000D+00  1.1942319578995D-02 -4.9879486712098D-02
   195  1.9400000000000D+00  1.1239147924927D-02 -4.5842561489393D-02
   196  1.9500000000000D+00  1.0530721325958D-02 -4.1980871329202D-02
   197  1.9600000000000D+00  9.8231832175496D-03 -3.8301085887056D-02
   198  1.9700000000000D+00  9.1220960447733D-03 -3.4808310960549D-02
   199  1.9800000000000D+00  8.4324499217263D-03 -3.1506148776843D-02
   200  1.9900000000000D+00  7.7586741376614D-03 -2.8396764161526D-02
   201  2.0000000000000D+00  7.1046513890190D-03 -2.5480956240762D-02
   202  2.0100000000000D+00  6.4737343092419D-03 -2.2758234633306D-02
   203  2.0200000000000D+00  5.8687644126335D-03 -2.0226900301703D-02
   204  2.0300000000000D+00  5.2920929249774D-03 -1.7884129825753D-02
   205  2.0400000000000D+00  4.7456035022262D-03 -1.5726062986208D-02
   206  2.0500000000000D+00  4.2307365168260D-03 -1.3747892889262D-02
   207  2.0600000000000D+00  3.7485146804877D-03 -1.1943958035728D-02
   208  2.0700000000000D+00  3.2995698130729D-03 -1.0307835785581D-02
   209  2.0800000000000D+00  2.8841705187257D-03 -8.8324367055739D-03
   210  2.0900000000000D+00  2.5022504786327D-03 -7.5100989467543D-03
   211  2.1000000000000D+00  2.1534372269577D-03 -6.3326823983003D-03
   212  2.1100000000000D+00  1.8370811331057D-03 -5.2916618840073D-03
   213  2.1200000000000D+00  1.5522842744153D-03 -4.3782185686416D-03
   214  2.1300000000000D+00  1.2979292765563D-03 -3.5833298591380D-03
   215  2.1400000000000D+00  1.0727074638301D-03 -2.8978560315899D-03
   216  2.1500000000000D+00  8.7514652837971D-04 -2.3126242056310D-03
   217  2.1600000000000D+00  7.0363737819328D-04 -1.8185087844095D-03
   218  2.1700000000000D+00  5.5645971662175D-04 -1.4065071997279D-03
   219  2.1800000000000D+00  4.3180681446460D-04 -1.0678122232330D-03
   220  2.1900000000000D+00  3.2780853542290D-04 -7.9387838753883D-04
   221  2.2000000000000D+00  2.4255298490857D-04 -5.7648352397996D-04
   222  2.2100000000000D+00  1.7410674354728D-04 -4.0778534068527D-04
   223  2.2200000000000D+00  1.2053204968486D-04 -2.8039441362678D-04
   224  2.2300000000000D+00  7.9905818681572D-05 -1.8734164722033D-04
   225  2.2400000000000D+00  5.0332814619505D-05 -1.2215259238122D-04
   226  2.2500000000000D+00  2.9901557219911D-05 -7.8641151303500D-05
   227  2.2600000000000D+00  1.6907155304702D-05 -5.2197277843603D-05
   228  2.2700000000000D+00  9.6936895499057D-06 -3.8645387133985D-05
   229  2.2800000000000D+00  6.6122559798041D-06 -3.3899832470935D-05
   230  2.2900000000000D+00  5.4141007158778D-06 -3.1044733355656D-05
   231  2.3000000000000D+00  4.1881539896653D-06 -2.4343311814178D-05
   232  2.3100000000000D+00  2.2968066944928D-06 -1.3229328199243D-05
   233  2.3200000000000D+00  4.1841440332165D-07 -2.3640372901404D-06
   234  2.3300000000000D+00 -4.3083483700175D-07  2.6044017630350D-06
   235  2.3400000000000D+00 -4.1526541322726D-07  2.5075628956206D-06
   236  2.3500000000000D+00 -2.3857523492297D-08  1.4373233651820D-07
   237  2.3600000000000D+00  9.5400070411417D-08 -6.0753729787852D-07
   238  2.3700000000000D+00  7.8929971209270D-08 -5.0514361810866D-07
   239  2.3800000000000D+00 -2.2946501908583D-09  1.3263194401716D-08
   240  2.3900000000000D+00 -1.3692311542279D-08  7.9142254674636D-08
   241  2.4000000000000D+00 -9.6629319538583D-09  5.5852236434626D-08
   242  2.4100000000000D+00  0.0000000000000D+00  0.0000000000000D+00
   243  2.4200000000000D+00  0.0000000000000D+00  0.0000000000000D+00
   244  2.4300000000000D+00  0.0000000000000D+00  0.0000000000000D+00
   245  2.4400000000000D+00  0.0000000000000D+00  0.0000000000000D+00
   246  2.4500000000000D+00  0.0000000000000D+00  0.0000000000000D+00
   247  2.4600000000000D+00  0.0000000000000D+00  0.0000000000000D+00
   248  2.4700000000000D+00  0.0000000000000D+00  0.0000000000000D+00
   249  2.4800000000000D+00  0.0000000000000D+00  0.0000000000000D+00
   250  2.4900000000000D+00  0.0000000000000D+00  0.0000000000000D+00
   251  2.5000000000000D+00  0.0000000000000D+00  0.0000000000000D+00
   252  2.5100000000000D+00  0.0000000000000D+00  0.0000000000000D+00
   253  2.5200000000000D+00  0.0000000000000D+00  0.0000000000000D+00
   254  2.5300000000000D+00  0.0000000000000D+00  0.0000000000000D+00
   255  2.5400000000000D+00  0.0000000000000D+00  0.0000000000000D+00
   256  2.5500000000000D+00  0.0000000000000D+00  0.0000000000000D+00
   257  2.5600000000000D+00  0.0000000000000D+00  0.0000000000000D+00
   258  2.5700000000000D+00  0.0000000000000D+00  0.0000000000000D+00
   259  2.5800000000000D+00  0.0000000000000D+00  0.0000000000000D+00
   260  2.5900000000000D+00  0.0000000000000D+00  0.0000000000000D+00
   261  2.6000000000000D+00  0.0000000000000D+00  0.0000000000000D+00
   262  2.6100000000000D+00  0.0000000000000D+00  0.0000000000000D+00
   263  2.6200000000000D+00  0.0000000000000D+00  0.0000000000000D+00
   264  2.6300000000000D+00  0.0000000000000D+00  0.0000000000000D+00
   265  2.6400000000000D+00  0.0000000000000D+00  0.0000000000000D+00
   266  2.6500000000000D+00  0.0000000000000D+00  0.0000000000000D+00
   267  2.6600000000000D+00  0.0000000000000D+00  0.0000000000000D+00
   268  2.6700000000000D+00  0.0000000000000D+00  0.0000000000000D+00
   269  2.6800000000000D+00  0.0000000000000D+00  0.0000000000000D+00
   270  2.6900000000000D+00  0.0000000000000D+00  0.0000000000000D+00
   271  2.7000000000000D+00  0.0000000000000D+00  0.0000000000000D+00
   272  2.7100000000000D+00  0.0000000000000D+00  0.0000000000000D+00
   273  2.7200000000000D+00  0.0000000000000D+00  0.0000000000000D+00
   274  2.7300000000000D+00  0.0000000000000D+00  0.0000000000000D+00
   275  2.7400000000000D+00  0.0000000000000D+00  0.0000000000000D+00
   276  2.7500000000000D+00  0.0000000000000D+00  0.0000000000000D+00
   277  2.7600000000000D+00  0.0000000000000D+00  0.0000000000000D+00
   278  2.7700000000000D+00  0.0000000000000D+00  0.0000000000000D+00
   279  2.7800000000000D+00  0.0000000000000D+00  0.0000000000000D+00
   280  2.7900000000000D+00  0.0000000000000D+00  0.0000000000000D+00
   281  2.8000000000000D+00  0.0000000000000D+00  0.0000000000000D+00
   282  2.8100000000000D+00  0.0000000000000D+00  0.0000000000000D+00
   283  2.8200000000000D+00  0.0000000000000D+00  0.0000000000000D+00
   284  2.8300000000000D+00  0.0000000000000D+00  0.0000000000000D+00
   285  2.8400000000000D+00  0.0000000000000D+00  0.0000000000000D+00
   286  2.8500000000000D+00  0.0000000000000D+00  0.0000000000000D+00
   287  2.8600000000000D+00  0.0000000000000D+00  0.0000000000000D+00
   288  2.8700000000000D+00  0.0000000000000D+00  0.0000000000000D+00
   289  2.8800000000000D+00  0.0000000000000D+00  0.0000000000000D+00
   290  2.8900000000000D+00  0.0000000000000D+00  0.0000000000000D+00
   291  2.9000000000000D+00  0.0000000000000D+00  0.0000000000000D+00
   292  2.9100000000000D+00  0.0000000000000D+00  0.0000000000000D+00
   293  2.9200000000000D+00  0.0000000000000D+00  0.0000000000000D+00
   294  2.9300000000000D+00  0.0000000000000D+00  0.0000000000000D+00
   295  2.9400000000000D+00  0.0000000000000D+00  0.0000000000000D+00
   296  2.9500000000000D+00  0.0000000000000D+00  0.0000000000000D+00
   297  2.9600000000000D+00  0.0000000000000D+00  0.0000000000000D+00
   298  2.9700000000000D+00  0.0000000000000D+00  0.0000000000000D+00
   299  2.9800000000000D+00  0.0000000000000D+00  0.0000000000000D+00
   300  2.9900000000000D+00  0.0000000000000D+00  0.0000000000000D+00
   301  3.0000000000000D+00  0.0000000000000D+00  0.0000000000000D+00
   302  3.0100000000000D+00  0.0000000000000D+00  0.0000000000000D+00
   303  3.0200000000000D+00  0.0000000000000D+00  0.0000000000000D+00
   304  3.0300000000000D+00  0.0000000000000D+00  0.0000000000000D+00
   305  3.0400000000000D+00  0.0000000000000D+00  0.0000000000000D+00
   306  3.0500000000000D+00  0.0000000000000D+00  0.0000000000000D+00
   307  3.0600000000000D+00  0.0000000000000D+00  0.0000000000000D+00
   308  3.0700000000000D+00  0.0000000000000D+00  0.0000000000000D+00
   309  3.0800000000000D+00  0.0000000000000D+00  0.0000000000000D+00
   310  3.0900000000000D+00  0.0000000000000D+00  0.0000000000000D+00
   311  3.1000000000000D+00  0.0000000000000D+00  0.0000000000000D+00
   312  3.1100000000000D+00  0.0000000000000D+00  0.0000000000000D+00
   313  3.1200000000000D+00  0.0000000000000D+00  0.0000000000000D+00
   314  3.1300000000000D+00  0.0000000000000D+00  0.0000000000000D+00
   315  3.1400000000000D+00  0.0000000000000D+00  0.0000000000000D+00
   316  3.1500000000000D+00  0.0000000000000D+00  0.0000000000000D+00
   317  3.1600000000000D+00  0.0000000000000D+00  0.0000000000000D+00
   318  3.1700000000000D+00  0.0000000000000D+00  0.0000000000000D+00
   319  3.1800000000000D+00  0.0000000000000D+00  0.0000000000000D+00
   320  3.1900000000000D+00  0.0000000000000D+00  0.0000000000000D+00
   321  3.2000000000000D+00  0.0000000000000D+00  0.0000000000000D+00
   322  3.2100000000000D+00  0.0000000000000D+00  0.0000000000000D+00
   323  3.2200000000000D+00  0.0000000000000D+00  0.0000000000000D+00
   324  3.2300000000000D+00  0.0000000000000D+00  0.0000000000000D+00
   325  3.2400000000000D+00  0.0000000000000D+00  0.0000000000000D+00
   326  3.2500000000000D+00  0.0000000000000D+00  0.0000000000000D+00
   327  3.2600000000000D+00  0.0000000000000D+00  0.0000000000000D+00
   328  3.2700000000000D+00  0.0000000000000D+00  0.0000000000000D+00
   329  3.2800000000000D+00  0.0000000000000D+00  0.0000000000000D+00
   330  3.2900000000000D+00  0.0000000000000D+00  0.0000000000000D+00
   331  3.3000000000000D+00  0.0000000000000D+00  0.0000000000000D+00
   332  3.3100000000000D+00  0.0000000000000D+00  0.0000000000000D+00
   333  3.3200000000000D+00  0.0000000000000D+00  0.0000000000000D+00
   334  3.3300000000000D+00  0.0000000000000D+00  0.0000000000000D+00
   335  3.3400000000000D+00  0.0000000000000D+00  0.0000000000000D+00
   336  3.3500000000000D+00  0.0000000000000D+00  0.0000000000000D+00
   337  3.3600000000000D+00  0.0000000000000D+00  0.0000000000000D+00
   338  3.3700000000000D+00  0.0000000000000D+00  0.0000000000000D+00
   339  3.3800000000000D+00  0.0000000000000D+00  0.0000000000000D+00
   340  3.3900000000000D+00  0.0000000000000D+00  0.0000000000000D+00
   341  3.4000000000000D+00  0.0000000000000D+00  0.0000000000000D+00
   342  3.4100000000000D+00  0.0000000000000D+00  0.0000000000000D+00
   343  3.4200000000000D+00  0.0000000000000D+00  0.0000000000000D+00
   344  3.4300000000000D+00  0.0000000000000D+00  0.0000000000000D+00
   345  3.4400000000000D+00  0.0000000000000D+00  0.0000000000000D+00
   346  3.4500000000000D+00  0.0000000000000D+00  0.0000000000000D+00
   347  3.4600000000000D+00  0.0000000000000D+00  0.0000000000000D+00
   348  3.4700000000000D+00  0.0000000000000D+00  0.0000000000000D+00
   349  3.4800000000000D+00  0.0000000000000D+00  0.0000000000000D+00
   350  3.4900000000000D+00  0.0000000000000D+00  0.0000000000000D+00
   351  3.5000000000000D+00  0.0000000000000D+00  0.0000000000000D+00
   352  3.5100000000000D+00  0.0000000000000D+00  0.0000000000000D+00
   353  3.5200000000000D+00  0.0000000000000D+00  0.0000000000000D+00
   354  3.5300000000000D+00  0.0000000000000D+00  0.0000000000000D+00
   355  3.5400000000000D+00  0.0000000000000D+00  0.0000000000000D+00
   356  3.5500000000000D+00  0.0000000000000D+00  0.0000000000000D+00
   357  3.5600000000000D+00  0.0000000000000D+00  0.0000000000000D+00
   358  3.5700000000000D+00  0.0000000000000D+00  0.0000000000000D+00
   359  3.5800000000000D+00  0.0000000000000D+00  0.0000000000000D+00
   360  3.5900000000000D+00  0.0000000000000D+00  0.0000000000000D+00
   361  3.6000000000000D+00  0.0000000000000D+00  0.0000000000000D+00
   362  3.6100000000000D+00  0.0000000000000D+00  0.0000000000000D+00
   363  3.6200000000000D+00  0.0000000000000D+00  0.0000000000000D+00
   364  3.6300000000000D+00  0.0000000000000D+00  0.0000000000000D+00
   365  3.6400000000000D+00  0.0000000000000D+00  0.0000000000000D+00
   366  3.6500000000000D+00  0.0000000000000D+00  0.0000000000000D+00
   367  3.6600000000000D+00  0.0000000000000D+00  0.0000000000000D+00
   368  3.6700000000000D+00  0.0000000000000D+00  0.0000000000000D+00
   369  3.6800000000000D+00  0.0000000000000D+00  0.0000000000000D+00
   370  3.6900000000000D+00  0.0000000000000D+00  0.0000000000000D+00
   371  3.7000000000000D+00  0.0000000000000D+00  0.0000000000000D+00
   372  3.7100000000000D+00  0.0000000000000D+00  0.0000000000000D+00
   373  3.7200000000000D+00  0.0000000000000D+00  0.0000000000000D+00
   374  3.7300000000000D+00  0.0000000000000D+00  0.0000000000000D+00
   375  3.7400000000000D+00  0.0000000000000D+00  0.0000000000000D+00
   376  3.7500000000000D+00  0.0000000000000D+00  0.0000000000000D+00
   377  3.7600000000000D+00  0.0000000000000D+00  0.0000000000000D+00
   378  3.7700000000000D+00  0.0000000000000D+00  0.0000000000000D+00
   379  3.7800000000000D+00  0.0000000000000D+00  0.0000000000000D+00
   380  3.7900000000000D+00  0.0000000000000D+00  0.0000000000000D+00
   381  3.8000000000000D+00  0.0000000000000D+00  0.0000000000000D+00
   382  3.8100000000000D+00  0.0000000000000D+00  0.0000000000000D+00
   383  3.8200000000000D+00  0.0000000000000D+00  0.0000000000000D+00
   384  3.8300000000000D+00  0.0000000000000D+00  0.0000000000000D+00
   385  3.8400000000000D+00  0.0000000000000D+00  0.0000000000000D+00
   386  3.8500000000000D+00  0.0000000000000D+00  0.0000000000000D+00
   387  3.8600000000000D+00  0.0000000000000D+00  0.0000000000000D+00
   388  3.8700000000000D+00  0.0000000000000D+00  0.0000000000000D+00
   389  3.8800000000000D+00  0.0000000000000D+00  0.0000000000000D+00
   390  3.8900000000000D+00  0.0000000000000D+00  0.0000000000000D+00
   391  3.9000000000000D+00  0.0000000000000D+00  0.0000000000000D+00
   392  3.9100000000000D+00  0.0000000000000D+00  0.0000000000000D+00
   393  3.9200000000000D+00  0.0000000000000D+00  0.0000000000000D+00
   394  3.9300000000000D+00  0.0000000000000D+00  0.0000000000000D+00
   395  3.9400000000000D+00  0.0000000000000D+00  0.0000000000000D+00
   396  3.9500000000000D+00  0.0000000000000D+00  0.0000000000000D+00
   397  3.9600000000000D+00  0.0000000000000D+00  0.0000000000000D+00
   398  3.9700000000000D+00  0.0000000000000D+00  0.0000000000000D+00
   399  3.9800000000000D+00  0.0000000000000D+00  0.0000000000000D+00
   400  3.9900000000000D+00  0.0000000000000D+00  0.0000000000000D+00
   401  4.0000000000000D+00  0.0000000000000D+00  0.0000000000000D+00
   402  4.0100000000000D+00  0.0000000000000D+00  0.0000000000000D+00
   403  4.0200000000000D+00  0.0000000000000D+00  0.0000000000000D+00
   404  4.0300000000000D+00  0.0000000000000D+00  0.0000000000000D+00
   405  4.0400000000000D+00  0.0000000000000D+00  0.0000000000000D+00
   406  4.0500000000000D+00  0.0000000000000D+00  0.0000000000000D+00
   407  4.0600000000000D+00  0.0000000000000D+00  0.0000000000000D+00
   408  4.0700000000000D+00  0.0000000000000D+00  0.0000000000000D+00
   409  4.0800000000000D+00  0.0000000000000D+00  0.0000000000000D+00
   410  4.0900000000000D+00  0.0000000000000D+00  0.0000000000000D+00
   411  4.1000000000000D+00  0.0000000000000D+00  0.0000000000000D+00
   412  4.1100000000000D+00  0.0000000000000D+00  0.0000000000000D+00
   413  4.1200000000000D+00  0.0000000000000D+00  0.0000000000000D+00
   414  4.1300000000000D+00  0.0000000000000D+00  0.0000000000000D+00
   415  4.1400000000000D+00  0.0000000000000D+00  0.0000000000000D+00
   416  4.1500000000000D+00  0.0000000000000D+00  0.0000000000000D+00
   417  4.1600000000000D+00  0.0000000000000D+00  0.0000000000000D+00
   418  4.1700000000000D+00  0.0000000000000D+00  0.0000000000000D+00
   419  4.1800000000000D+00  0.0000000000000D+00  0.0000000000000D+00
   420  4.1900000000000D+00  0.0000000000000D+00  0.0000000000000D+00
   421  4.2000000000000D+00  0.0000000000000D+00  0.0000000000000D+00
   422  4.2100000000000D+00  0.0000000000000D+00  0.0000000000000D+00