Ir    ONCVPSP-3.3.1  r_core=   2.29513   2.11127   2.29513   2.91352
     77.0000     17.0000      210904    zatom,zion,pspd
     8       2   3     4   600     0    pspcod,pspxc,lmax,lloc,mmax,r2well
  5.99000000  0.00000000  0.00000000    rchrg fchrg qchrg
     2     4     4     4    nproj
     3     1           extension_switch
     4     4     4    nprojso
   0                         1.3673975154460D+00  6.8844951450188D+00
     1  0.0000000000000D+00 -2.3676102745007D-11  7.8969608630075D-12
     2  1.0000000000000D-02 -9.6188696866830D-03  5.6534868389390D-02
     3  2.0000000000000D-02 -1.9200344293919D-02  1.1298727325339D-01
     4  3.0000000000000D-02 -2.8707015220199D-02  1.6927486170981D-01
     5  4.0000000000000D-02 -3.8101447558803D-02  2.2531550223505D-01
     6  5.0000000000000D-02 -4.7346168786444D-02  2.8102739552204D-01
     7  6.0000000000000D-02 -5.6403659644605D-02  3.3632918554678D-01
     8  7.0000000000000D-02 -6.5236347916509D-02  3.9114007090384D-01
     9  8.0000000000000D-02 -7.3806605779014D-02  4.4537991646300D-01
    10  9.0000000000000D-02 -8.2076751379321D-02  4.9896936538964D-01
    11  1.0000000000000D-01 -9.0009055251654D-02  5.5182995155980D-01
    12  1.1000000000000D-01 -9.7565752148995D-02  6.0388421238759D-01
    13  1.2000000000000D-01 -1.0470905882001D-01  6.5505580206778D-01
    14  1.3000000000000D-01 -1.1140119821164D-01  7.0526960521995D-01
    15  1.4000000000000D-01 -1.1760443052382D-01  7.5445185090312D-01
    16  1.5000000000000D-01 -1.2328109148480D-01  8.0253022695047D-01
    17  1.6000000000000D-01 -1.2839363815388D-01  8.4943399455413D-01
    18  1.7000000000000D-01 -1.3290470249355D-01  8.9509410300894D-01
    19  1.8000000000000D-01 -1.3677715288544D-01  9.3944330450231D-01
    20  1.9000000000000D-01 -1.3997416369438D-01  9.8241626881536D-01
    21  2.0000000000000D-01 -1.4245929291318D-01  1.0239496977778D+00
    22  2.1000000000000D-01 -1.4419656784730D-01  1.0639824392960D+00
    23  2.2000000000000D-01 -1.4515057872449D-01  1.1024556007511D+00
    24  2.3000000000000D-01 -1.4528658003997D-01  1.1393126615414D+00
    25  2.4000000000000D-01 -1.4457059937292D-01  1.1744995845205D+00
    26  2.5000000000000D-01 -1.4296955333653D-01  1.2079649260624D+00
    27  2.6000000000000D-01 -1.4045137025062D-01  1.2396599444607D+00
    28  2.7000000000000D-01 -1.3698511905505D-01  1.2695387063533D+00
    29  2.8000000000000D-01 -1.3254114391256D-01  1.2975581908415D+00
    30  2.9000000000000D-01 -1.2709120388363D-01  1.3236783909568D+00
    31  3.0000000000000D-01 -1.2060861699205D-01  1.3478624121118D+00
    32  3.1000000000000D-01 -1.1306840794024D-01  1.3700765671578D+00
    33  3.2000000000000D-01 -1.0444745867720D-01  1.3902904676587D+00
    34  3.3000000000000D-01 -9.4724660970548D-02  1.4084771109801D+00
    35  3.4000000000000D-01 -8.3881070086898D-02  1.4246129627856D+00
    36  3.5000000000000D-01 -7.1900058643697D-02  1.4386780345224D+00
    37  3.6000000000000D-01 -5.8767469658927D-02  1.4506559554795D+00
    38  3.7000000000000D-01 -4.4471767794999D-02  1.4605340389957D+00
    39  3.8000000000000D-01 -2.9004187768722D-02  1.4683033423997D+00
    40  3.9000000000000D-01 -1.2358878881231D-02  1.4739587202643D+00
    41  4.0000000000000D-01  5.4669553896899D-03  1.4774988705680D+00
    42  4.1000000000000D-01  2.4472923797317D-02  1.4789263733623D+00
    43  4.2000000000000D-01  4.4655320794007D-02  1.4782477215565D+00
    44  4.3000000000000D-01  6.6007008111136D-02  1.4754733434488D+00
    45  4.4000000000000D-01  8.8517305486341D-02  1.4706176166451D+00
    46  4.5000000000000D-01  1.1217189155105D-01  1.4636988730326D+00
    47  4.6000000000000D-01  1.3695271586120D-01  1.4547393944934D+00
    48  4.7000000000000D-01  1.6283792301771D-01  1.4437653990730D+00
    49  4.8000000000000D-01  1.8980178978005D-01  1.4308070173428D+00
    50  4.9000000000000D-01  2.1781467602625D-01  1.4158982587301D+00
    51  5.0000000000000D-01  2.4684299035695D-01  1.3990769676181D+00
    52  5.1000000000000D-01  2.7684917107856D-01  1.3803847690566D+00
    53  5.2000000000000D-01  3.0779168323285D-01  1.3598670039597D+00
    54  5.3000000000000D-01  3.3962503226696D-01  1.3375726537054D+00
    55  5.4000000000000D-01  3.7229979485908D-01  1.3135542540942D+00
    56  5.5000000000000D-01  4.0576266733201D-01  1.2878677986650D+00
    57  5.6000000000000D-01  4.3995653199951D-01  1.2605726314096D+00
    58  5.7000000000000D-01  4.7482054169869D-01  1.2317313289738D+00
    59  5.8000000000000D-01  5.1029022266750D-01  1.2014095724763D+00
    60  5.9000000000000D-01  5.4629759582905D-01  1.1696760091244D+00
    61  6.0000000000000D-01  5.8277131644448D-01  1.1366021038527D+00
    62  6.1000000000000D-01  6.1963683199516D-01  1.1022619812543D+00
    63  6.2000000000000D-01  6.5681655805257D-01  1.0667322581262D+00
    64  6.3000000000000D-01  6.9423007179087D-01  1.0300918669921D+00
    65  6.4000000000000D-01  7.3179432269462D-01  9.9242187101402D-01
    66  6.5000000000000D-01  7.6942385991163D-01  9.5380527074913D-01
    67  6.6000000000000D-01  8.0703107559972D-01  9.1432680325110D-01
    68  6.7000000000000D-01  8.4452646351755D-01  8.7407273405814D-01
    69  6.8000000000000D-01  8.8181889201220D-01  8.3313064265104D-01
    70  6.9000000000000D-01  9.1881589046293D-01  7.9158920200303D-01
    71  7.0000000000000D-01  9.5542394815046D-01  7.4953795288056D-01
    72  7.1000000000000D-01  9.9154882443503D-01  7.0706707358810D-01
    73  7.2000000000000D-01  1.0270958690452D+00  6.6426714588270D-01
    74  7.3000000000000D-01  1.0619703512038D+00  6.2122891781269D-01
    75  7.4000000000000D-01  1.0960777962467D+00  5.7804306426138D-01
    76  7.5000000000000D-01  1.1293243283257D+00  5.3479994599975D-01
    77  7.6000000000000D-01  1.1616170177314D+00  4.9158936807163D-01
    78  7.7000000000000D-01  1.1928642313177D+00  4.4850033835150D-01
    79  7.8000000000000D-01  1.2229759844701D+00  4.0562082712743D-01
    80  7.9000000000000D-01  1.2518642930237D+00  3.6303752857083D-01
    81  8.0000000000000D-01  1.2794435235066D+00  3.2083562495976D-01
    82  8.1000000000000D-01  1.3056307400697D+00  2.7909855452376D-01
    83  8.2000000000000D-01  1.3303460464488D+00  2.3790778377566D-01
    84  8.3000000000000D-01  1.3535129213063D+00  1.9734258518878D-01
    85  8.4000000000000D-01  1.3750585453017D+00  1.5747982106780D-01
    86  8.5000000000000D-01  1.3949141182596D+00  1.1839373444627D-01
    87  8.6000000000000D-01  1.4130151648238D+00  8.0155747825765D-02
    88  8.7000000000000D-01  1.4293018270195D+00  4.2834270548622D-02
    89  8.8000000000000D-01  1.4437191421876D+00  6.4945155702599D-03
    90  8.9000000000000D-01  1.4562173047999D+00 -2.8801673633271D-02
    91  9.0000000000000D-01  1.4667519107255D+00 -6.2995985320364D-02
    92  9.1000000000000D-01  1.4752841825802D+00 -9.6033790236658D-02
    93  9.2000000000000D-01  1.4817811748638D+00 -1.2786428024110D-01
    94  9.3000000000000D-01  1.4862159576705D+00 -1.5844059422444D-01
    95  9.4000000000000D-01  1.4885677778410D+00 -1.8771993078569D-01
    96  9.5000000000000D-01  1.4888221965214D+00 -2.1566364718167D-01
    97  9.6000000000000D-01  1.4869712021876D+00 -2.4223734411595D-01
    98  9.7000000000000D-01  1.4830132983015D+00 -2.6741093598829D-01
    99  9.8000000000000D-01  1.4769535648704D+00 -2.9115870628062D-01
   100  9.9000000000000D-01  1.4688036932960D+00 -3.1345934781381D-01
   101  1.0000000000000D+00  1.4585819940123D+00 -3.3429598766877D-01
   102  1.0100000000000D+00  1.4463133765361D+00 -3.5365619662506D-01
   103  1.0200000000000D+00  1.4320293016677D+00 -3.7153198303148D-01
   104  1.0300000000000D+00  1.4157677057087D+00 -3.8791977108433D-01
   105  1.0400000000000D+00  1.3975728966873D+00 -4.0282036355273D-01
   106  1.0500000000000D+00  1.3774954226973D+00 -4.1623888904688D-01
   107  1.0600000000000D+00  1.3555919125925D+00 -4.2818473399286D-01
   108  1.0700000000000D+00  1.3319248893938D+00 -4.3867145953367D-01
   109  1.0800000000000D+00  1.3065625568878D+00 -4.4771670363632D-01
   110  1.0900000000000D+00  1.2795785600194D+00 -4.5534206874646D-01
   111  1.1000000000000D+00  1.2510517197828D+00 -4.6157299537965D-01
   112  1.1100000000000D+00  1.2210657434431D+00 -4.6643862210356D-01
   113  1.1200000000000D+00  1.1897089110181D+00 -4.6997163241024D-01
   114  1.1300000000000D+00  1.1570737390572D+00 -4.7220808903209D-01
   115  1.1400000000000D+00  1.1232566228424D+00 -4.7318725629644D-01
   116  1.1500000000000D+00  1.0883574582341D+00 -4.7295141116259D-01
   117  1.1600000000000D+00  1.0524792444702D+00 -4.7154564362533D-01
   118  1.1700000000000D+00  1.0157276693020D+00 -4.6901764720714D-01
   119  1.1800000000000D+00  9.7821067790860D-01 -4.6541750028831D-01
   120  1.1900000000000D+00  9.4003802711202D-01 -4.6079743906446D-01
   121  1.2000000000000D+00  9.0132082645886D-01 -4.5521162294181D-01
   122  1.2100000000000D+00  8.6217106777942D-01 -4.4871589320276D-01
   123  1.2200000000000D+00  8.2270114486869D-01 -4.4136752579137D-01
   124  1.2300000000000D+00  7.8302336497465D-01 -4.3322497908826D-01
   125  1.2400000000000D+00  7.4324945378247D-01 -4.2434763754710D-01
   126  1.2500000000000D+00  7.0349005560152D-01 -4.1479555207353D-01
   127  1.2600000000000D+00  6.6385423046723D-01 -4.0462917803167D-01
   128  1.2700000000000D+00  6.2444894984523D-01 -3.9390911175163D-01
   129  1.2800000000000D+00  5.8537859263279D-01 -3.8269582641589D-01
   130  1.2900000000000D+00  5.4674444311423D-01 -3.7104940818540D-01
   131  1.3000000000000D+00  5.0864419247193D-01 -3.5902929340055D-01
   132  1.3100000000000D+00  4.7117144547111D-01 -3.4669400770064D-01
   133  1.3200000000000D+00  4.3441523383408D-01 -3.3410090785766D-01
   134  1.3300000000000D+00  3.9845953774492D-01 -3.2130592708590D-01
   135  1.3400000000000D+00  3.6338281697821D-01 -3.0836332461312D-01
   136  1.3500000000000D+00  3.2925755291491D-01 -2.9532544019192D-01
   137  1.3600000000000D+00  2.9614980272524D-01 -2.8224245423690D-01
   138  1.3700000000000D+00  2.6411876696925D-01 -2.6916215426062D-01
   139  1.3800000000000D+00  2.3321636725142D-01 -2.5612970697799D-01
   140  1.3900000000000D+00  2.0348686460509D-01 -2.4318744467381D-01
   141  1.4000000000000D+00  1.7496640187051D-01 -2.3037463416414D-01
   142  1.4100000000000D+00  1.4768289464026D-01 -2.1772734593510D-01
   143  1.4200000000000D+00  1.2165513821251D-01 -2.0527811017726D-01
   144  1.4300000000000D+00  9.6892763333527D-02 -1.9305581366263D-01
   145  1.4400000000000D+00  7.3398482954380D-02 -1.8108620933821D-01
   146  1.4500000000000D+00  5.1169953874329D-02 -1.6939237419563D-01
   147  1.4600000000000D+00  3.0202239259297D-02 -1.5799536944792D-01
   148  1.4700000000000D+00  1.0487767386206D-02 -1.4691423695392D-01
   149  1.4800000000000D+00 -7.9840362661436D-03 -1.3616592336565D-01
   150  1.4900000000000D+00 -2.5226428880721D-02 -1.2576537895289D-01
   151  1.5000000000000D+00 -4.1255359094657D-02 -1.1572557598226D-01
   152  1.5100000000000D+00 -5.6089357478414D-02 -1.0605755966990D-01
   153  1.5200000000000D+00 -6.9749447449146D-02 -9.6770495974679D-02
   154  1.5300000000000D+00 -8.2259044215473D-02 -8.7871724414993D-02
   155  1.5400000000000D+00 -9.3644098127131D-02 -7.9366737441392D-02
   156  1.5500000000000D+00 -1.0393106716138D-01 -7.1259826860979D-02
   157  1.5600000000000D+00 -1.1315011040814D-01 -6.3553130758454D-02
   158  1.5700000000000D+00 -1.2134199545408D-01 -5.6244550046975D-02
   159  1.5800000000000D+00 -1.2853146063066D-01 -4.9335923917031D-02
   160  1.5900000000000D+00 -1.3471604645223D-01 -4.2836472707608D-02
   161  1.6000000000000D+00 -1.3993163149213D-01 -3.6742850144230D-02
   162  1.6100000000000D+00 -1.4426197064296D-01 -3.1036256800695D-02
   163  1.6200000000000D+00 -1.4776134388511D-01 -2.5705978738593D-02
   164  1.6300000000000D+00 -1.5045037535114D-01 -2.0750695297061D-02
   165  1.6400000000000D+00 -1.5236309631192D-01 -1.6164244745721D-02
   166  1.6500000000000D+00 -1.5354558380814D-01 -1.1936075414483D-02
   167  1.6600000000000D+00 -1.5404076546367D-01 -8.0558841146830D-03
   168  1.6700000000000D+00 -1.5389020649559D-01 -4.5131098353968D-03
   169  1.6800000000000D+00 -1.5313634431701D-01 -1.2962920277608D-03
   170  1.6900000000000D+00 -1.5182174116274D-01  1.6066677336694D-03
   171  1.7000000000000D+00 -1.4998877185721D-01  4.2083758658430D-03
   172  1.7100000000000D+00 -1.4767952716686D-01  6.5218824398537D-03
   173  1.7200000000000D+00 -1.4493566849353D-01  8.5606023208730D-03
   174  1.7300000000000D+00 -1.4179828781307D-01  1.0338238253076D-02
   175  1.7400000000000D+00 -1.3830777306178D-01  1.1868706008815D-02
   176  1.7500000000000D+00 -1.3450367976751D-01  1.3166061955495D-02
   177  1.7600000000000D+00 -1.3042460919641D-01  1.4244433175739D-02
   178  1.7700000000000D+00 -1.2610809368146D-01  1.5117950440299D-02
   179  1.7800000000000D+00 -1.2159048941282D-01  1.5800684174409D-02
   180  1.7900000000000D+00 -1.1690687710917D-01  1.6306583616030D-02
   181  1.8000000000000D+00 -1.1209097098193D-01  1.6649419360684D-02
   182  1.8100000000000D+00 -1.0717503604057D-01  1.6842729338531D-02
   183  1.8200000000000D+00 -1.0218981440215D-01  1.6899768522336D-02
   184  1.8300000000000D+00 -9.7164460150529D-02  1.6833462203792D-02
   185  1.8400000000000D+00 -9.2126483781146D-02  1.6656363292016D-02
   186  1.8500000000000D+00 -8.7101705173951D-02  1.6380613220644D-02
   187  1.8600000000000D+00 -8.2114216496878D-02  1.6017907071044D-02
   188  1.8700000000000D+00 -7.7186353614418D-02  1.5579462343329D-02
   189  1.8800000000000D+00 -7.2338677274200D-02  1.5075991930875D-02
   190  1.8900000000000D+00 -6.7589962891380D-02  1.4517680830064D-02
   191  1.9000000000000D+00 -6.2957199543342D-02  1.3914166867214D-02
   192  1.9100000000000D+00 -5.8455597624861D-02  1.3274525236748D-02
   193  1.9200000000000D+00 -5.4098604870902D-02  1.2607256753360D-02
   194  1.9300000000000D+00 -4.9897930985939D-02  1.1920279944354D-02
   195  1.9400000000000D+00 -4.5863579640410D-02  1.1220926483920D-02
   196  1.9500000000000D+00 -4.2003888714615D-02  1.0515940370503D-02
   197  1.9600000000000D+00 -3.8325577101508D-02  9.8114801536541D-03
   198  1.9700000000000D+00 -3.4833798781629D-02  9.1131245449408D-03
   199  1.9800000000000D+00 -3.1532202961094D-02  8.4258809201491D-03
   200  1.9900000000000D+00 -2.8423000099389D-02  7.7541966690961D-03
   201  2.0000000000000D+00 -2.5507033478960D-02  7.1019732727867D-03
   202  2.0100000000000D+00 -2.2783855275800D-02  6.4725826809850D-03
   203  2.0200000000000D+00 -2.0251807298116D-02  5.8688861065481D-03
   204  2.0300000000000D+00 -1.7908105155905D-02  5.2932547091375D-03
   205  2.0400000000000D+00 -1.5748925752905D-02  4.7475921717770D-03
   206  2.0500000000000D+00 -1.3769497328892D-02  4.2333588490630D-03
   207  2.0600000000000D+00 -1.1964191455683D-02  3.7515972560864D-03
   208  2.0700000000000D+00 -1.0326616437366D-02  3.3029587084797D-03
   209  2.0800000000000D+00 -8.8497116024246D-03  2.8877308743960D-03
   210  2.0900000000000D+00 -7.5258416352427D-03  2.5058659493051D-03
   211  2.1000000000000D+00 -6.3468906920098D-03  2.1570093193018D-03
   212  2.1100000000000D+00 -5.3043555675008D-03  1.8405284367681D-03
   213  2.1200000000000D+00 -4.3894370799550D-03  1.5555415931806D-03
   214  2.1300000000000D+00 -3.5931299579415D-03  1.3009466653347D-03
   215  2.1400000000000D+00 -2.9063094607110D-03  1.0754491789275D-03
   216  2.1500000000000D+00 -2.3198153526240D-03  8.7758989738342D-04
   217  2.1600000000000D+00 -1.8245323496978D-03  7.0577159636360D-04
   218  2.1700000000000D+00 -1.4114658776718D-03  5.5828457739487D-04
   219  2.1800000000000D+00 -1.0718144017265D-03  4.3333138038892D-04
   220  2.1900000000000D+00 -7.9703587164861D-04  3.2904975744255D-04
   221  2.2000000000000D+00 -5.7890928861502D-04  2.4353427697298D-04
   222  2.2100000000000D+00 -4.0959131693532D-04  1.7485651940932D-04
   223  2.2200000000000D+00 -2.8168927797088D-04  1.2108220346535D-04
   224  2.2300000000000D+00 -1.8822876637414D-04  8.0290268289121D-05
   225  2.2400000000000D+00 -1.2272795898062D-04  5.0585988206951D-05
   226  2.2500000000000D+00 -7.8990602492157D-05  3.0056521562455D-05
   227  2.2600000000000D+00 -5.2396316010735D-05  1.6994763163812D-05
   228  2.2700000000000D+00 -3.8757174025717D-05  9.7410403678882D-06
   229  2.2800000000000D+00 -3.3972761314615D-05  6.6410187816504D-06
   230  2.2900000000000D+00 -3.1102570311285D-05  5.4357031295344D-06
   231  2.3000000000000D+00 -2.4387644620574D-05  4.2044456328161D-06
   232  2.3100000000000D+00 -1.3253549982695D-05  2.3056714728003D-06
   233  2.3200000000000D+00 -2.3684556165430D-06  4.2003754781665D-07
   234  2.3300000000000D+00  2.6088487801066D-06 -4.3241108594044D-07
   235  2.3400000000000D+00  2.5118360378581D-06 -4.1677500861556D-07
   236  2.3500000000000D+00  1.4397731050019D-07 -2.3943898391476D-08
   237  2.3600000000000D+00 -6.0852572024932D-07  9.5747511244073D-08
   238  2.3700000000000D+00 -5.0596020406281D-07  7.9216157384152D-08
   239  2.3800000000000D+00  1.3287614678334D-08 -2.3036956815838D-09
   240  2.3900000000000D+00  7.9287971889716D-08 -1.3746286513087D-08
   241  2.4000000000000D+00  5.5955071922226D-08 -9.7010231460227D-09
   242  2.4100000000000D+00  0.0000000000000D+00  0.0000000000000D+00
   243  2.4200000000000D+00  0.0000000000000D+00  0.0000000000000D+00
   244  2.4300000000000D+00  0.0000000000000D+00  0.0000000000000D+00
   245  2.4400000000000D+00  0.0000000000000D+00  0.0000000000000D+00
   246  2.4500000000000D+00  0.0000000000000D+00  0.0000000000000D+00
   247  2.4600000000000D+00  0.0000000000000D+00  0.0000000000000D+00
   248  2.4700000000000D+00  0.0000000000000D+00  0.0000000000000D+00
   249  2.4800000000000D+00  0.0000000000000D+00  0.0000000000000D+00
   250  2.4900000000000D+00  0.0000000000000D+00  0.0000000000000D+00
   251  2.5000000000000D+00  0.0000000000000D+00  0.0000000000000D+00
   252  2.5100000000000D+00  0.0000000000000D+00  0.0000000000000D+00
   253  2.5200000000000D+00  0.0000000000000D+00  0.0000000000000D+00
   254  2.5300000000000D+00  0.0000000000000D+00  0.0000000000000D+00
   255  2.5400000000000D+00  0.0000000000000D+00  0.0000000000000D+00
   256  2.5500000000000D+00  0.0000000000000D+00  0.0000000000000D+00
   257  2.5600000000000D+00  0.0000000000000D+00  0.0000000000000D+00
   258  2.5700000000000D+00  0.0000000000000D+00  0.0000000000000D+00
   259  2.5800000000000D+00  0.0000000000000D+00  0.0000000000000D+00
   260  2.5900000000000D+00  0.0000000000000D+00  0.0000000000000D+00
   261  2.6000000000000D+00  0.0000000000000D+00  0.0000000000000D+00
   262  2.6100000000000D+00  0.0000000000000D+00  0.0000000000000D+00
   263  2.6200000000000D+00  0.0000000000000D+00  0.0000000000000D+00
   264  2.6300000000000D+00  0.0000000000000D+00  0.0000000000000D+00
   265  2.6400000000000D+00  0.0000000000000D+00  0.0000000000000D+00
   266  2.6500000000000D+00  0.0000000000000D+00  0.0000000000000D+00
   267  2.6600000000000D+00  0.0000000000000D+00  0.0000000000000D+00
   268  2.6700000000000D+00  0.0000000000000D+00  0.0000000000000D+00
   269  2.6800000000000D+00  0.0000000000000D+00  0.0000000000000D+00
   270  2.6900000000000D+00  0.0000000000000D+00  0.0000000000000D+00
   271  2.7000000000000D+00  0.0000000000000D+00  0.0000000000000D+00
   272  2.7100000000000D+00  0.0000000000000D+00  0.0000000000000D+00
   273  2.7200000000000D+00  0.0000000000000D+00  0.0000000000000D+00
   274  2.7300000000000D+00  0.0000000000000D+00  0.0000000000000D+00
   275  2.7400000000000D+00  0.0000000000000D+00  0.0000000000000D+00
   276  2.7500000000000D+00  0.0000000000000D+00  0.0000000000000D+00
   277  2.7600000000000D+00  0.0000000000000D+00  0.0000000000000D+00
   278  2.7700000000000D+00  0.0000000000000D+00  0.0000000000000D+00
   279  2.7800000000000D+00  0.0000000000000D+00  0.0000000000000D+00
   280  2.7900000000000D+00  0.0000000000000D+00  0.0000000000000D+00
   281  2.8000000000000D+00  0.0000000000000D+00  0.0000000000000D+00
   282  2.8100000000000D+00  0.0000000000000D+00  0.0000000000000D+00
   283  2.8200000000000D+00  0.0000000000000D+00  0.0000000000000D+00
   284  2.8300000000000D+00  0.0000000000000D+00  0.0000000000000D+00
   285  2.8400000000000D+00  0.0000000000000D+00  0.0000000000000D+00
   286  2.8500000000000D+00  0.0000000000000D+00  0.0000000000000D+00
   287  2.8600000000000D+00  0.0000000000000D+00  0.0000000000000D+00
   288  2.8700000000000D+00  0.0000000000000D+00  0.0000000000000D+00
   289  2.8800000000000D+00  0.0000000000000D+00  0.0000000000000D+00
   290  2.8900000000000D+00  0.0000000000000D+00  0.0000000000000D+00
   291  2.9000000000000D+00  0.0000000000000D+00  0.0000000000000D+00
   292  2.9100000000000D+00  0.0000000000000D+00  0.0000000000000D+00
   293  2.9200000000000D+00  0.0000000000000D+00  0.0000000000000D+00
   294  2.9300000000000D+00  0.0000000000000D+00  0.0000000000000D+00
   295  2.9400000000000D+00  0.0000000000000D+00  0.0000000000000D+00
   296  2.9500000000000D+00  0.0000000000000D+00  0.0000000000000D+00
   297  2.9600000000000D+00  0.0000000000000D+00  0.0000000000000D+00
   298  2.9700000000000D+00  0.0000000000000D+00  0.0000000000000D+00
   299  2.9800000000000D+00  0.0000000000000D+00  0.0000000000000D+00
   300  2.9900000000000D+00  0.0000000000000D+00  0.0000000000000D+00
   301  3.0000000000000D+00  0.0000000000000D+00  0.0000000000000D+00
   302  3.0100000000000D+00  0.0000000000000D+00  0.0000000000000D+00
   303  3.0200000000000D+00  0.0000000000000D+00  0.0000000000000D+00
   304  3.0300000000000D+00  0.0000000000000D+00  0.0000000000000D+00
   305  3.0400000000000D+00  0.0000000000000D+00  0.0000000000000D+00
   306  3.0500000000000D+00  0.0000000000000D+00  0.0000000000000D+00
   307  3.0600000000000D+00  0.0000000000000D+00  0.0000000000000D+00
   308  3.0700000000000D+00  0.0000000000000D+00  0.0000000000000D+00
   309  3.0800000000000D+00  0.0000000000000D+00  0.0000000000000D+00
   310  3.0900000000000D+00  0.0000000000000D+00  0.0000000000000D+00
   311  3.1000000000000D+00  0.0000000000000D+00  0.0000000000000D+00
   312  3.1100000000000D+00  0.0000000000000D+00  0.0000000000000D+00
   313  3.1200000000000D+00  0.0000000000000D+00  0.0000000000000D+00
   314  3.1300000000000D+00  0.0000000000000D+00  0.0000000000000D+00
   315  3.1400000000000D+00  0.0000000000000D+00  0.0000000000000D+00
   316  3.1500000000000D+00  0.0000000000000D+00  0.0000000000000D+00
   317  3.1600000000000D+00  0.0000000000000D+00  0.0000000000000D+00
   318  3.1700000000000D+00  0.0000000000000D+00  0.0000000000000D+00
   319  3.1800000000000D+00  0.0000000000000D+00  0.0000000000000D+00
   320  3.1900000000000D+00  0.0000000000000D+00  0.0000000000000D+00
   321  3.2000000000000D+00  0.0000000000000D+00  0.0000000000000D+00
   322  3.2100000000000D+00  0.0000000000000D+00  0.0000000000000D+00
   323  3.2200000000000D+00  0.0000000000000D+00  0.0000000000000D+00
   324  3.2300000000000D+00  0.0000000000000D+00  0.0000000000000D+00
   325  3.2400000000000D+00  0.0000000000000D+00  0.0000000000000D+00
   326  3.2500000000000D+00  0.0000000000000D+00  0.0000000000000D+00
   327  3.2600000000000D+00  0.0000000000000D+00  0.0000000000000D+00
   328  3.2700000000000D+00  0.0000000000000D+00  0.0000000000000D+00
   329  3.2800000000000D+00  0.0000000000000D+00  0.0000000000000D+00
   330  3.2900000000000D+00  0.0000000000000D+00  0.0000000000000D+00
   331  3.3000000000000D+00  0.0000000000000D+00  0.0000000000000D+00
   332  3.3100000000000D+00  0.0000000000000D+00  0.0000000000000D+00
   333  3.3200000000000D+00  0.0000000000000D+00  0.0000000000000D+00
   334  3.3300000000000D+00  0.0000000000000D+00  0.0000000000000D+00
   335  3.3400000000000D+00  0.0000000000000D+00  0.0000000000000D+00
   336  3.3500000000000D+00  0.0000000000000D+00  0.0000000000000D+00
   337  3.3600000000000D+00  0.0000000000000D+00  0.0000000000000D+00
   338  3.3700000000000D+00  0.0000000000000D+00  0.0000000000000D+00
   339  3.3800000000000D+00  0.0000000000000D+00  0.0000000000000D+00
   340  3.3900000000000D+00  0.0000000000000D+00  0.0000000000000D+00
   341  3.4000000000000D+00  0.0000000000000D+00  0.0000000000000D+00
   342  3.4100000000000D+00  0.0000000000000D+00  0.0000000000000D+00
   343  3.4200000000000D+00  0.0000000000000D+00  0.0000000000000D+00
   344  3.4300000000000D+00  0.0000000000000D+00  0.0000000000000D+00
   345  3.4400000000000D+00  0.0000000000000D+00  0.0000000000000D+00
   346  3.4500000000000D+00  0.0000000000000D+00  0.0000000000000D+00
   347  3.4600000000000D+00  0.0000000000000D+00  0.0000000000000D+00
   348  3.4700000000000D+00  0.0000000000000D+00  0.0000000000000D+00
   349  3.4800000000000D+00  0.0000000000000D+00  0.0000000000000D+00
   350  3.4900000000000D+00  0.0000000000000D+00  0.0000000000000D+00
   351  3.5000000000000D+00  0.0000000000000D+00  0.0000000000000D+00
   352  3.5100000000000D+00  0.0000000000000D+00  0.0000000000000D+00
   353  3.5200000000000D+00  0.0000000000000D+00  0.0000000000000D+00
   354  3.5300000000000D+00  0.0000000000000D+00  0.0000000000000D+00
   355  3.5400000000000D+00  0.0000000000000D+00  0.0000000000000D+00
   356  3.5500000000000D+00  0.0000000000000D+00  0.0000000000000D+00
   357  3.5600000000000D+00  0.0000000000000D+00  0.0000000000000D+00
   358  3.5700000000000D+00  0.0000000000000D+00  0.0000000000000D+00
   359  3.5800000000000D+00  0.0000000000000D+00  0.0000000000000D+00
   360  3.5900000000000D+00  0.0000000000000D+00  0.0000000000000D+00
   361  3.6000000000000D+00  0.0000000000000D+00  0.0000000000000D+00
   362  3.6100000000000D+00  0.0000000000000D+00  0.0000000000000D+00
   363  3.6200000000000D+00  0.0000000000000D+00  0.0000000000000D+00
   364  3.6300000000000D+00  0.0000000000000D+00  0.0000000000000D+00
   365  3.6400000000000D+00  0.0000000000000D+00  0.0000000000000D+00
   366  3.6500000000000D+00  0.0000000000000D+00  0.0000000000000D+00
   367  3.6600000000000D+00  0.0000000000000D+00  0.0000000000000D+00
   368  3.6700000000000D+00  0.0000000000000D+00  0.0000000000000D+00
   369  3.6800000000000D+00  0.0000000000000D+00  0.0000000000000D+00
   370  3.6900000000000D+00  0.0000000000000D+00  0.0000000000000D+00
   371  3.7000000000000D+00  0.0000000000000D+00  0.0000000000000D+00
   372  3.7100000000000D+00  0.0000000000000D+00  0.0000000000000D+00
   373  3.7200000000000D+00  0.0000000000000D+00  0.0000000000000D+00
   374  3.7300000000000D+00  0.0000000000000D+00  0.0000000000000D+00
   375  3.7400000000000D+00  0.0000000000000D+00  0.0000000000000D+00
   376  3.7500000000000D+00  0.0000000000000D+00  0.0000000000000D+00
   377  3.7600000000000D+00  0.0000000000000D+00  0.0000000000000D+00
   378  3.7700000000000D+00  0.0000000000000D+00  0.0000000000000D+00
   379  3.7800000000000D+00  0.0000000000000D+00  0.0000000000000D+00
   380  3.7900000000000D+00  0.0000000000000D+00  0.0000000000000D+00
   381  3.8000000000000D+00  0.0000000000000D+00  0.0000000000000D+00
   382  3.8100000000000D+00  0.0000000000000D+00  0.0000000000000D+00
   383  3.8200000000000D+00  0.0000000000000D+00  0.0000000000000D+00
   384  3.8300000000000D+00  0.0000000000000D+00  0.0000000000000D+00
   385  3.8400000000000D+00  0.0000000000000D+00  0.0000000000000D+00
   386  3.8500000000000D+00  0.0000000000000D+00  0.0000000000000D+00
   387  3.8600000000000D+00  0.0000000000000D+00  0.0000000000000D+00
   388  3.8700000000000D+00  0.0000000000000D+00  0.0000000000000D+00
   389  3.8800000000000D+00  0.0000000000000D+00  0.0000000000000D+00
   390  3.8900000000000D+00  0.0000000000000D+00  0.0000000000000D+00
   391  3.9000000000000D+00  0.0000000000000D+00  0.0000000000000D+00
   392  3.9100000000000D+00  0.0000000000000D+00  0.0000000000000D+00
   393  3.9200000000000D+00  0.0000000000000D+00  0.0000000000000D+00
   394  3.9300000000000D+00  0.0000000000000D+00  0.0000000000000D+00
   395  3.9400000000000D+00  0.0000000000000D+00  0.0000000000000D+00
   396  3.9500000000000D+00  0.0000000000000D+00  0.0000000000000D+00
   397  3.9600000000000D+00  0.0000000000000D+00  0.0000000000000D+00
   398  3.9700000000000D+00  0.0000000000000D+00  0.0000000000000D+00
   399  3.9800000000000D+00  0.0000000000000D+00  0.0000000000000D+00
   400  3.9900000000000D+00  0.0000000000000D+00  0.0000000000000D+00
   401  4.0000000000000D+00  0.0000000000000D+00  0.0000000000000D+00
   402  4.0100000000000D+00  0.0000000000000D+00  0.0000000000000D+00
   403  4.0200000000000D+00  0.0000000000000D+00  0.0000000000000D+00
   404  4.0300000000000D+00  0.0000000000000D+00  0.0000000000000D+00
   405  4.0400000000000D+00  0.0000000000000D+00  0.0000000000000D+00
   406  4.0500000000000D+00  0.0000000000000D+00  0.0000000000000D+00
   407  4.0600000000000D+00  0.0000000000000D+00  0.0000000000000D+00
   408  4.0700000000000D+00  0.0000000000000D+00  0.0000000000000D+00
   409  4.0800000000000D+00  0.0000000000000D+00  0.0000000000000D+00
   410  4.0900000000000D+00  0.0000000000000D+00  0.0000000000000D+00
   411  4.1000000000000D+00  0.0000000000000D+00  0.0000000000000D+00
   412  4.1100000000000D+00  0.0000000000000D+00  0.0000000000000D+00
   413  4.1200000000000D+00  0.0000000000000D+00  0.0000000000000D+00
   414  4.1300000000000D+00  0.0000000000000D+00  0.0000000000000D+00
   415  4.1400000000000D+00  0.0000000000000D+00  0.0000000000000D+00
   416  4.1500000000000D+00  0.0000000000000D+00  0.0000000000000D+00
   417  4.1600000000000D+00  0.0000000000000D+00  0.0000000000000D+00
   418  4.1700000000000D+00  0.0000000000000D+00  0.0000000000000D+00
   419  4.1800000000000D+00  0.0000000000000D+00  0.0000000000000D+00
   420  4.1900000000000D+00  0.0000000000000D+00  0.0000000000000D+00
   421  4.2000000000000D+00  0.0000000000000D+00  0.0000000000000D+00
   422  4.2100000000000D+00  0.0000000000000D+00  0.0000000000000D+00