Kr    ONCVPSP-3.3.1  r_core=   2.83591   2.86994   2.86994
     36.0000      8.0000      210904    zatom,zion,pspd
     8       2   2     4   600     0    pspcod,pspxc,lmax,lloc,mmax,r2well
  5.99000000  0.00000000  0.00000000    rchrg fchrg qchrg
     2     2     2     0     0    nproj
     1     1           extension_switch
   0                         2.0868937049133D+00 -8.9622606525832D-02
     1  0.0000000000000D+00 -8.9928064994638D-14  1.6115442313946D-12
     2  1.0000000000000D-02  3.8904050166290D-02  1.6232751770136D-02
     3  2.0000000000000D-02  7.7771267918626D-02  3.2443355434782D-02
     4  3.0000000000000D-02  1.1656486246124D-01  4.8609688178511D-02
     5  4.0000000000000D-02  1.5524812618890D-01  6.4709677800602D-02
     6  5.0000000000000D-02  1.9378447616750D-01  8.0721328108456D-02
     7  6.0000000000000D-02  2.3213749547731D-01  9.6622744413132D-02
     8  7.0000000000000D-02  2.7027097437289D-01  1.1239215915918D-01
     9  8.0000000000000D-02  3.0814895121433D-01  1.2800795771936D-01
    10  9.0000000000000D-02  3.4573575312409D-01  1.4344870438273D-01
    11  1.0000000000000D-01  3.8299603632434D-01  1.5869316856250D-01
    12  1.1000000000000D-01  4.1989482610937D-01  1.7372035124693D-01
    13  1.2000000000000D-01  4.5639755640836D-01  1.8850951171389D-01
    14  1.3000000000000D-01  4.9247010889353D-01  2.0304019452598D-01
    15  1.4000000000000D-01  5.2807885158945D-01  2.1729225681961D-01
    16  1.5000000000000D-01  5.6319067693914D-01  2.3124589589726D-01
    17  1.6000000000000D-01  5.9777303928319D-01  2.4488167712799D-01
    18  1.7000000000000D-01  6.3179399170839D-01  2.5818056215657D-01
    19  1.8000000000000D-01  6.6522222222278D-01  2.7112393741706D-01
    20  1.9000000000000D-01  6.9802708921436D-01  2.8369364294147D-01
    21  2.0000000000000D-01  7.3017865615141D-01  2.9587200144902D-01
    22  2.1000000000000D-01  7.6164772548254D-01  3.0764184769645D-01
    23  2.2000000000000D-01  7.9240587169537D-01  3.1898655806401D-01
    24  2.3000000000000D-01  8.2242547349339D-01  3.2989008034661D-01
    25  2.4000000000000D-01  8.5167974505077D-01  3.4033696371384D-01
    26  2.5000000000000D-01  8.8014276630616D-01  3.5031238879698D-01
    27  2.6000000000000D-01  9.0778951225677D-01  3.5980219785558D-01
    28  2.7000000000000D-01  9.3459588121492D-01  3.6879292497053D-01
    29  2.8000000000000D-01  9.6053872199027D-01  3.7727182620514D-01
    30  2.9000000000000D-01  9.8559585996148D-01  3.8522690967008D-01
    31  3.0000000000000D-01  1.0097461220023D+00  3.9264696542325D-01
    32  3.1000000000000D-01  1.0329693602278D+00  3.9952159512975D-01
    33  3.2000000000000D-01  1.0552464745276D+00  4.0584124140298D-01
    34  3.3000000000000D-01  1.0765594338543D+00  4.1159721674260D-01
    35  3.4000000000000D-01  1.0968912962357D+00  4.1678173198089D-01
    36  3.5000000000000D-01  1.1162262274818D+00  4.2138792414467D-01
    37  3.6000000000000D-01  1.1345495185576D+00  4.2540988363636D-01
    38  3.7000000000000D-01  1.1518476015948D+00  4.2884268063383D-01
    39  3.8000000000000D-01  1.1681080645168D+00  4.3168239060568D-01
    40  3.9000000000000D-01  1.1833196642523D+00  4.3392611883598D-01
    41  4.0000000000000D-01  1.1974723385158D+00  4.3557202384972D-01
    42  4.1000000000000D-01  1.2105572161321D+00  4.3661933962857D-01
    43  4.2000000000000D-01  1.2225666258873D+00  4.3706839650489D-01
    44  4.3000000000000D-01  1.2334941038863D+00  4.3692064062105D-01
    45  4.4000000000000D-01  1.2433343994021D+00  4.3617865184035D-01
    46  4.5000000000000D-01  1.2520834792026D+00  4.3484615999602D-01
    47  4.6000000000000D-01  1.2597385303415D+00  4.3292805936517D-01
    48  4.7000000000000D-01  1.2662979614029D+00  4.3043042125550D-01
    49  4.8000000000000D-01  1.2717614021921D+00  4.2736050459422D-01
    50  4.9000000000000D-01  1.2761297018647D+00  4.2372676441076D-01
    51  5.0000000000000D-01  1.2794049254901D+00  4.1953885810733D-01
    52  5.1000000000000D-01  1.2815903490474D+00  4.1480764941472D-01
    53  5.2000000000000D-01  1.2826904528518D+00  4.0954520993440D-01
    54  5.3000000000000D-01  1.2827109134161D+00  4.0376481817237D-01
    55  5.4000000000000D-01  1.2816585937491D+00  3.9748095597476D-01
    56  5.5000000000000D-01  1.2795415320988D+00  3.9070930228102D-01
    57  5.6000000000000D-01  1.2763689291481D+00  3.8346672411592D-01
    58  5.7000000000000D-01  1.2721511336757D+00  3.7577126474828D-01
    59  5.8000000000000D-01  1.2668996266941D+00  3.6764212895125D-01
    60  5.9000000000000D-01  1.2606270040809D+00  3.5909966530618D-01
    61  6.0000000000000D-01  1.2533469577233D+00  3.5016534550011D-01
    62  6.1000000000000D-01  1.2450742551935D+00  3.4086174057506D-01
    63  6.2000000000000D-01  1.2358247179808D+00  3.3121249409615D-01
    64  6.3000000000000D-01  1.2256151983048D+00  3.2124229221461D-01
    65  6.4000000000000D-01  1.2144635545373D+00  3.1097683061101D-01
    66  6.5000000000000D-01  1.2023886252641D+00  3.0044277831417D-01
    67  6.6000000000000D-01  1.1894102020182D+00  2.8966773840099D-01
    68  6.7000000000000D-01  1.1755490007216D+00  2.7868020559293D-01
    69  6.8000000000000D-01  1.1608266318703D+00  2.6750952077545D-01
    70  6.9000000000000D-01  1.1452655695051D+00  2.5618582247746D-01
    71  7.0000000000000D-01  1.1288891190082D+00  2.4473999535876D-01
    72  7.1000000000000D-01  1.1117213837712D+00  2.3320361576453D-01
    73  7.2000000000000D-01  1.0937872307798D+00  2.2160889441708D-01
    74  7.3000000000000D-01  1.0751122551657D+00  2.0998861632611D-01
    75  7.4000000000000D-01  1.0557227437741D+00  1.9837607801010D-01
    76  7.5000000000000D-01  1.0356456378015D+00  1.8680502213233D-01
    77  7.6000000000000D-01  1.0149084945575D+00  1.7530956966615D-01
    78  7.7000000000000D-01  9.9353944840725D-01  1.6392414971503D-01
    79  7.8000000000000D-01  9.7156717095376D-01  1.5268342712353D-01
    80  7.9000000000000D-01  9.4902083051853D-01  1.4162222802587D-01
    81  8.0000000000000D-01  9.2593005098386D-01  1.3077546348880D-01
    82  8.1000000000000D-01  9.0232487005898D-01  1.2017805141561D-01
    83  8.2000000000000D-01  8.7823569703503D-01  1.0986483688750D-01
    84  8.3000000000000D-01  8.5369327009460D-01  9.9870511127493D-02
    85  8.4000000000000D-01  8.2872861324313D-01  9.0229529281115D-02
    86  8.5000000000000D-01  8.0337299293006D-01  8.0976027215927D-02
    87  8.6000000000000D-01  7.7765787442908D-01  7.2143737549769D-02
    88  8.7000000000000D-01  7.5161487804728D-01  6.3765905124837D-02
    89  8.8000000000000D-01  7.2527573523382D-01  5.5875202150917D-02
    90  8.9000000000000D-01  6.9867224465930D-01  4.8503643247300D-02
    91  9.0000000000000D-01  6.7183622833748D-01  4.1682500617871D-02
    92  9.1000000000000D-01  6.4479948786116D-01  3.5442219598530D-02
    93  9.2000000000000D-01  6.1759376082413D-01  2.9812334819830D-02
    94  9.3000000000000D-01  5.9025067750148D-01  2.4821387230709D-02
    95  9.4000000000000D-01  5.6280171785973D-01  2.0496842231579D-02
    96  9.5000000000000D-01  5.3527816896864D-01  1.6865009166387D-02
    97  9.6000000000000D-01  5.0771108288556D-01  1.3950962423950D-02
    98  9.7000000000000D-01  4.8013123508293D-01  1.1778464398647D-02
    99  9.8000000000000D-01  4.5256908348858D-01  1.0369890559533D-02
   100  9.9000000000000D-01  4.2505472820764D-01  9.7461568751046D-03
   101  1.0000000000000D+00  3.9761787199385D-01  9.9266498379797D-03
   102  1.0100000000000D+00  3.7028778153676D-01  1.0929159330424D-02
   103  1.0200000000000D+00  3.4309324963009D-01  1.2769814566887D-02
   104  1.0300000000000D+00  3.1606255828481D-01  1.5463023344492D-02
   105  1.0400000000000D+00  2.8922344284910D-01  1.9021414826148D-02
   106  1.0500000000000D+00  2.6260305719525D-01  2.3455786073693D-02
   107  1.0600000000000D+00  2.3622794003207D-01  2.8775052540921D-02
   108  1.0700000000000D+00  2.1012398239876D-01  3.4986202727328D-02
   109  1.0800000000000D+00  1.8431639639447D-01  4.2094257183734D-02
   110  1.0900000000000D+00  1.5882968519524D-01  5.0102232050963D-02
   111  1.1000000000000D+00  1.3368761440737D-01  5.9011107300725D-02
   112  1.1100000000000D+00  1.0891318480421D-01  6.8819799837621D-02
   113  1.1200000000000D+00  8.4528606490116D-02  7.9525141607124D-02
   114  1.1300000000000D+00  6.0555274532927D-02  9.1121862841741D-02
   115  1.1400000000000D+00  3.7013746103070D-02  1.0360258056309D-01
   116  1.1500000000000D+00  1.3923719154753D-02  1.1695779244446D-01
   117  1.1600000000000D+00 -8.6959873184495D-03  1.3117587612291D-01
   118  1.1700000000000D+00 -3.0827451424718D-02  1.4624309403339D-01
   119  1.1800000000000D+00 -5.2453664886235D-02  1.6214360382101D-01
   120  1.1900000000000D+00 -7.3558547899381D-02  1.7885947437550D-01
   121  1.2000000000000D+00 -9.4126962324189D-02  1.9637070750988D-01
   122  1.2100000000000D+00 -1.1414472318740D-01  2.1465526528977D-01
   123  1.2200000000000D+00 -1.3359860848679D-01  2.3368910300343D-01
   124  1.2300000000000D+00 -1.5247636728743D-01  2.5344620774772D-01
   125  1.2400000000000D+00 -1.7076672610530D-01  2.7389864258076D-01
   126  1.2500000000000D+00 -1.8845939357688D-01  2.9501659617676D-01
   127  1.2600000000000D+00 -2.0554506341492D-01  3.1676843791014D-01
   128  1.2700000000000D+00 -2.2201541565722D-01  3.3912077826289D-01
   129  1.2800000000000D+00 -2.3786311621781D-01  3.6203853443715D-01
   130  1.2900000000000D+00 -2.5308181475037D-01  3.8548500105121D-01
   131  1.3000000000000D+00 -2.6766614084236D-01  4.0942192575671D-01
   132  1.3100000000000D+00 -2.8161169855904D-01  4.3380958960982D-01
   133  1.3200000000000D+00 -2.9491505935761D-01  4.5860689202420D-01
   134  1.3300000000000D+00 -3.0757375340066D-01  4.8377144009113D-01
   135  1.3400000000000D+00 -3.1958625929727D-01  5.0925964205664D-01
   136  1.3500000000000D+00 -3.3095199230250D-01  5.3502680473184D-01
   137  1.3600000000000D+00 -3.4167129101461D-01  5.6102723457626D-01
   138  1.3700000000000D+00 -3.5174540260563D-01  5.8721434220832D-01
   139  1.3800000000000D+00 -3.6117646662776D-01  6.1354075006729D-01
   140  1.3900000000000D+00 -3.6996749744278D-01  6.3995840293149D-01
   141  1.4000000000000D+00 -3.7812236531666D-01  6.6641868101754D-01
   142  1.4100000000000D+00 -3.8564577623450D-01  6.9287251533211D-01
   143  1.4200000000000D+00 -3.9254325048526D-01  7.1927050497221D-01
   144  1.4300000000000D+00 -3.9882110007063D-01  7.4556303604845D-01
   145  1.4400000000000D+00 -4.0448640499858D-01  7.7170040188695D-01
   146  1.4500000000000D+00 -4.0954698851493D-01  7.9763292418709D-01
   147  1.4600000000000D+00 -4.1401139133973D-01  8.2331107477167D-01
   148  1.4700000000000D+00 -4.1788884496701D-01  8.4868559759179D-01
   149  1.4800000000000D+00 -4.2118924409375D-01  8.7370763062505D-01
   150  1.4900000000000D+00 -4.2392311824468D-01  8.9832882731438D-01
   151  1.5000000000000D+00 -4.2610160265716D-01  9.2250147718634D-01
   152  1.5100000000000D+00 -4.2773640849800D-01  9.4617862529649D-01
   153  1.5200000000000D+00 -4.2883979247725D-01  9.6931419013698D-01
   154  1.5300000000000D+00 -4.2942452593214D-01  9.9186307966122D-01
   155  1.5400000000000D+00 -4.2950386344891D-01  1.0137813050675D+00
   156  1.5500000000000D+00 -4.2909151109496D-01  1.0350260919967D+00
   157  1.5600000000000D+00 -4.2820159433090D-01  1.0555559888122D+00
   158  1.5700000000000D+00 -4.2684862567484D-01  1.0753309716071D+00
   159  1.5800000000000D+00 -4.2504747218751D-01  1.0943125456516D+00
   160  1.5900000000000D+00 -4.2281332285213D-01  1.1124638429071D+00
   161  1.6000000000000D+00 -4.2016165591362D-01  1.1297497153831D+00
   162  1.6100000000000D+00 -4.1710820625383D-01  1.1461368239369D+00
   163  1.6200000000000D+00 -4.1366893286152D-01  1.1615937223649D+00
   164  1.6300000000000D+00 -4.0985998647606D-01  1.1760909363698D+00
   165  1.6400000000000D+00 -4.0569767745774D-01  1.1896010373115D+00
   166  1.6500000000000D+00 -4.0119844396404D-01  1.2020987103377D+00
   167  1.6600000000000D+00 -3.9637882047942D-01  1.2135608168446D+00
   168  1.6700000000000D+00 -3.9125540677711D-01  1.2239664508898D+00
   169  1.6800000000000D+00 -3.8584483735470D-01  1.2332969895512D+00
   170  1.6900000000000D+00 -3.8016375142070D-01  1.2415361368808D+00
   171  1.7000000000000D+00 -3.7422876346689D-01  1.2486699615014D+00
   172  1.7100000000000D+00 -3.6805643450305D-01  1.2546869275104D+00
   173  1.7200000000000D+00 -3.6166324397971D-01  1.2595779188129D+00
   174  1.7300000000000D+00 -3.5506556247659D-01  1.2633362565485D+00
   175  1.7400000000000D+00 -3.4827962516982D-01  1.2659577098286D+00
   176  1.7500000000000D+00 -3.4132150616004D-01  1.2674404994265D+00
   177  1.7600000000000D+00 -3.3420709365735D-01  1.2677852947621D+00
   178  1.7700000000000D+00 -3.2695206611349D-01  1.2669952037729D+00
   179  1.7800000000000D+00 -3.1957186927587D-01  1.2650757561630D+00
   180  1.7900000000000D+00 -3.1208169426366D-01  1.2620348795666D+00
   181  1.8000000000000D+00 -3.0449645662287D-01  1.2578828692301D+00
   182  1.8100000000000D+00 -2.9683077645884D-01  1.2526323507830D+00
   183  1.8200000000000D+00 -2.8909895960105D-01  1.2462982366967D+00
   184  1.8300000000000D+00 -2.8131497988110D-01  1.2388976761461D+00
   185  1.8400000000000D+00 -2.7349246249021D-01  1.2304499987739D+00
   186  1.8500000000000D+00 -2.6564466846735D-01  1.2209766522932D+00
   187  1.8600000000000D+00 -2.5778448030754D-01  1.2105011342592D+00
   188  1.8700000000000D+00 -2.4992438869980D-01  1.1990489182250D+00
   189  1.8800000000000D+00 -2.4207648041916D-01  1.1866473743913D+00
   190  1.8900000000000D+00 -2.3425242733047D-01  1.1733256852733D+00
   191  1.9000000000000D+00 -2.2646347657020D-01  1.1591147562665D+00
   192  1.9100000000000D+00 -2.1872044181292D-01  1.1440471218975D+00
   193  1.9200000000000D+00 -2.1103369571537D-01  1.1281568475336D+00
   194  1.9300000000000D+00 -2.0341316343224D-01  1.1114794273600D+00
   195  1.9400000000000D+00 -1.9586831726521D-01  1.0940516786038D+00
   196  1.9500000000000D+00 -1.8840817238603D-01  1.0759116325467D+00
   197  1.9600000000000D+00 -1.8104128362386D-01  1.0570984226597D+00
   198  1.9700000000000D+00 -1.7377574332412D-01  1.0376521701143D+00
   199  1.9800000000000D+00 -1.6661918019335D-01  1.0176138672763D+00
   200  1.9900000000000D+00 -1.5957875919130D-01  9.9702525929614D-01
   201  2.0000000000000D+00 -1.5266118235182D-01  9.7592872443724D-01
   202  2.0100000000000D+00 -1.4587269057668D-01  9.5436715338319D-01
   203  2.0200000000000D+00 -1.3921906632883D-01  9.3238382798871D-01
   204  2.0300000000000D+00 -1.3270563719684D-01  9.1002229988293D-01
   205  2.0400000000000D+00 -1.2633728032564D-01  8.8732626932875D-01
   206  2.0500000000000D+00 -1.2011842762169D-01  8.6433946468495D-01
   207  2.0600000000000D+00 -1.1405307175983D-01  8.4110552302638D-01
   208  2.0700000000000D+00 -1.0814477289891D-01  8.1766787212471D-01
   209  2.0800000000000D+00 -1.0239666609426D-01  7.9406961433734D-01
   210  2.0900000000000D+00 -9.6811469366834D-02  7.7035341281975D-01
   211  2.1000000000000D+00 -9.1391492366037D-02  7.4656138013726D-01
   212  2.1100000000000D+00 -8.6138645613253D-02  7.2273497023335D-01
   213  2.1200000000000D+00 -8.1054450260080D-02  6.9891487344560D-01
   214  2.1300000000000D+00 -7.6140048328830D-02  6.7514091540421D-01
   215  2.1400000000000D+00 -7.1396213389870D-02  6.5145196013218D-01
   216  2.1500000000000D+00 -6.6823361638806D-02  6.2788581706783D-01
   217  2.1600000000000D+00 -6.2421563313157D-02  6.0447915344853D-01
   218  2.1700000000000D+00 -5.8190554430319D-02  5.8126741115367D-01
   219  2.1800000000000D+00 -5.4129748787372D-02  5.5828472898427D-01
   220  2.1900000000000D+00 -5.0238250173945D-02  5.3556387079619D-01
   221  2.2000000000000D+00 -4.6514864798800D-02  5.1313615868349D-01
   222  2.2100000000000D+00 -4.2958113823309D-02  4.9103141297047D-01
   223  2.2200000000000D+00 -3.9566246020274D-02  4.6927789795229D-01
   224  2.2300000000000D+00 -3.6337250511093D-02  4.4790227377866D-01
   225  2.2400000000000D+00 -3.3268869489019D-02  4.2692955564068D-01
   226  2.2500000000000D+00 -3.0358610989232D-02  4.0638307869022D-01
   227  2.2600000000000D+00 -2.7603761584535D-02  3.8628447026855D-01
   228  2.2700000000000D+00 -2.5001398993381D-02  3.6665362918658D-01
   229  2.2800000000000D+00 -2.2548404650715D-02  3.4750871088969D-01
   230  2.2900000000000D+00 -2.0241476055849D-02  3.2886612084357D-01
   231  2.3000000000000D+00 -1.8077139006863D-02  3.1074051414970D-01
   232  2.3100000000000D+00 -1.6051759672820D-02  2.9314480173004D-01
   233  2.3200000000000D+00 -1.4161556368282D-02  2.7609016451881D-01
   234  2.3300000000000D+00 -1.2402611175612D-02  2.5958607337903D-01
   235  2.3400000000000D+00 -1.0770881283074D-02  2.4364031609689D-01
   236  2.3500000000000D+00 -9.2622100004050D-03  2.2825903156368D-01
   237  2.3600000000000D+00 -7.8723375770840D-03  2.1344674929895D-01
   238  2.3700000000000D+00 -6.5969116362561D-03  1.9920643618371D-01
   239  2.3800000000000D+00 -5.4314972855429D-03  1.8553954934262D-01
   240  2.3900000000000D+00 -4.3715869949005D-03  1.7244609387548D-01
   241  2.4000000000000D+00 -3.4126099935420D-03  1.5992468776844D-01
   242  2.4100000000000D+00 -2.5499408228550D-03  1.4797263689336D-01
   243  2.4200000000000D+00 -1.7789106171724D-03  1.3658598590935D-01
   244  2.4300000000000D+00 -1.0948116109526D-03  1.2575963464961D-01
   245  2.4400000000000D+00 -4.9290430113580D-04  1.1548743032176D-01
   246  2.4500000000000D+00  3.1559900002121D-05  1.0576211992029D-01
   247  2.4600000000000D+00  4.8334844329474D-04  9.6575595644136D-02
   248  2.4700000000000D+00  8.6723933077064D-04  8.7918980195607D-02
   249  2.4800000000000D+00  1.1880378897725D-03  7.9782956430376D-02
   250  2.4900000000000D+00  1.4505143779460D-03  7.2157329644617D-02
   251  2.5000000000000D+00  1.6593877933616D-03  6.5031035517884D-02
   252  2.5100000000000D+00  1.8192978284458D-03  5.8392022388679D-02
   253  2.5200000000000D+00  1.9347811631881D-03  5.2227240346986D-02
   254  2.5300000000000D+00  2.0102378059602D-03  4.6522496907513D-02
   255  2.5400000000000D+00  2.0498879241409D-03  4.1262234083968D-02
   256  2.5500000000000D+00  2.0577980740363D-03  3.6429957233938D-02
   257  2.5600000000000D+00  2.0378679909024D-03  3.2008295278718D-02
   258  2.5700000000000D+00  1.9938373670632D-03  2.7979253498016D-02
   259  2.5800000000000D+00  1.9292641994613D-03  2.4324163324861D-02
   260  2.5900000000000D+00  1.8475246623156D-03  2.1023851490491D-02
   261  2.6000000000000D+00  1.7518105494545D-03  1.8058777346457D-02
   262  2.6100000000000D+00  1.6451228735166D-03  1.5409125269979D-02
   263  2.6200000000000D+00  1.5302687818370D-03  1.3054924558550D-02
   264  2.6300000000000D+00  1.4098582599731D-03  1.0976161461008D-02
   265  2.6400000000000D+00  1.2863012456556D-03  9.1528876191256D-03
   266  2.6500000000000D+00  1.1618051150299D-03  7.5653261755098D-03
   267  2.6600000000000D+00  1.0383725573598D-03  6.1939758382239D-03
   268  2.6700000000000D+00  9.1779975080987D-04  5.0197092755779D-03
   269  2.6800000000000D+00  8.0167487551690D-04  4.0238685829123D-03
   270  2.6900000000000D+00  6.9137697370028D-04  3.1883577377957D-03
   271  2.7000000000000D+00  5.8807502312218D-04  2.4957283787458D-03
   272  2.7100000000000D+00  4.9272729551391D-04  1.9292613868310D-03
   273  2.7200000000000D+00  4.0608101977983D-04  1.4730447174434D-03
   274  2.7300000000000D+00  3.2867221273293D-04  1.1120443016336D-03
   275  2.7400000000000D+00  2.6083692201551D-04  8.3228956946085D-04
   276  2.7500000000000D+00  2.0268791542172D-04  6.2068022704319D-04
   277  2.7600000000000D+00  1.5409349881218D-04  4.6480778674138D-04
   278  2.7700000000000D+00  1.1470525963856D-04  3.5350341795863D-04
   279  2.7800000000000D+00  8.3750966260350D-05  2.7569990079352D-04
   280  2.7900000000000D+00  6.1141469016776D-05  2.2639687082526D-04
   281  2.8000000000000D+00  4.6100082744693D-05  1.9924771240200D-04
   282  2.8100000000000D+00  3.8449830292687D-05  1.9254962673549D-04
   283  2.8200000000000D+00  3.4898451235794D-05  1.9169841182085D-04
   284  2.8300000000000D+00  3.2179588662265D-05  1.8345054393817D-04
   285  2.8400000000000D+00  2.6858995904400D-05  1.5443199368329D-04
   286  2.8500000000000D+00  1.7865816499902D-05  1.0301981461319D-04
   287  2.8600000000000D+00  8.2030197227807D-06  4.7180177185620D-05
   288  2.8700000000000D+00 -2.5184135313973D-08 -1.4835786064415D-07
   289  2.8800000000000D+00 -2.8052014664096D-06 -1.6565174427871D-05
   290  2.8900000000000D+00 -2.7343357201962D-06 -1.6170608734800D-05
   291  2.9000000000000D+00 -9.5612309952901D-07 -5.6594524838169D-06
   292  2.9100000000000D+00  3.8701914029021D-07  2.2999927128496D-06
   293  2.9200000000000D+00  6.7689078421264D-07  4.0293309856921D-06
   294  2.9300000000000D+00  4.6126655527349D-07  2.7496695129622D-06
   295  2.9400000000000D+00 -6.9577919643340D-09 -3.9842977324015D-08
   296  2.9500000000000D+00 -7.3559191857245D-08 -4.2122806030486D-07
   297  2.9600000000000D+00 -7.9608934873249D-08 -4.5587120212892D-07
   298  2.9700000000000D+00 -3.1236857407214D-08 -1.7887418993394D-07
   299  2.9800000000000D+00  0.0000000000000D+00  0.0000000000000D+00
   300  2.9900000000000D+00  0.0000000000000D+00  0.0000000000000D+00
   301  3.0000000000000D+00  0.0000000000000D+00  0.0000000000000D+00
   302  3.0100000000000D+00  0.0000000000000D+00  0.0000000000000D+00
   303  3.0200000000000D+00  0.0000000000000D+00  0.0000000000000D+00
   304  3.0300000000000D+00  0.0000000000000D+00  0.0000000000000D+00
   305  3.0400000000000D+00  0.0000000000000D+00  0.0000000000000D+00
   306  3.0500000000000D+00  0.0000000000000D+00  0.0000000000000D+00
   307  3.0600000000000D+00  0.0000000000000D+00  0.0000000000000D+00
   308  3.0700000000000D+00  0.0000000000000D+00  0.0000000000000D+00
   309  3.0800000000000D+00  0.0000000000000D+00  0.0000000000000D+00
   310  3.0900000000000D+00  0.0000000000000D+00  0.0000000000000D+00
   311  3.1000000000000D+00  0.0000000000000D+00  0.0000000000000D+00
   312  3.1100000000000D+00  0.0000000000000D+00  0.0000000000000D+00
   313  3.1200000000000D+00  0.0000000000000D+00  0.0000000000000D+00
   314  3.1300000000000D+00  0.0000000000000D+00  0.0000000000000D+00
   315  3.1400000000000D+00  0.0000000000000D+00  0.0000000000000D+00
   316  3.1500000000000D+00  0.0000000000000D+00  0.0000000000000D+00
   317  3.1600000000000D+00  0.0000000000000D+00  0.0000000000000D+00
   318  3.1700000000000D+00  0.0000000000000D+00  0.0000000000000D+00
   319  3.1800000000000D+00  0.0000000000000D+00  0.0000000000000D+00
   320  3.1900000000000D+00  0.0000000000000D+00  0.0000000000000D+00
   321  3.2000000000000D+00  0.0000000000000D+00  0.0000000000000D+00
   322  3.2100000000000D+00  0.0000000000000D+00  0.0000000000000D+00
   323  3.2200000000000D+00  0.0000000000000D+00  0.0000000000000D+00
   324  3.2300000000000D+00  0.0000000000000D+00  0.0000000000000D+00
   325  3.2400000000000D+00  0.0000000000000D+00  0.0000000000000D+00
   326  3.2500000000000D+00  0.0000000000000D+00  0.0000000000000D+00
   327  3.2600000000000D+00  0.0000000000000D+00  0.0000000000000D+00
   328  3.2700000000000D+00  0.0000000000000D+00  0.0000000000000D+00
   329  3.2800000000000D+00  0.0000000000000D+00  0.0000000000000D+00
   330  3.2900000000000D+00  0.0000000000000D+00  0.0000000000000D+00
   331  3.3000000000000D+00  0.0000000000000D+00  0.0000000000000D+00
   332  3.3100000000000D+00  0.0000000000000D+00  0.0000000000000D+00
   333  3.3200000000000D+00  0.0000000000000D+00  0.0000000000000D+00
   334  3.3300000000000D+00  0.0000000000000D+00  0.0000000000000D+00
   335  3.3400000000000D+00  0.0000000000000D+00  0.0000000000000D+00
   336  3.3500000000000D+00  0.0000000000000D+00  0.0000000000000D+00
   337  3.3600000000000D+00  0.0000000000000D+00  0.0000000000000D+00
   338  3.3700000000000D+00  0.0000000000000D+00  0.0000000000000D+00
   339  3.3800000000000D+00  0.0000000000000D+00  0.0000000000000D+00
   340  3.3900000000000D+00  0.0000000000000D+00  0.0000000000000D+00
   341  3.4000000000000D+00  0.0000000000000D+00  0.0000000000000D+00
   342  3.4100000000000D+00  0.0000000000000D+00  0.0000000000000D+00
   343  3.4200000000000D+00  0.0000000000000D+00  0.0000000000000D+00
   344  3.4300000000000D+00  0.0000000000000D+00  0.0000000000000D+00
   345  3.4400000000000D+00  0.0000000000000D+00  0.0000000000000D+00
   346  3.4500000000000D+00  0.0000000000000D+00  0.0000000000000D+00
   347  3.4600000000000D+00  0.0000000000000D+00  0.0000000000000D+00
   348  3.4700000000000D+00  0.0000000000000D+00  0.0000000000000D+00
   349  3.4800000000000D+00  0.0000000000000D+00  0.0000000000000D+00
   350  3.4900000000000D+00  0.0000000000000D+00  0.0000000000000D+00
   351  3.5000000000000D+00  0.0000000000000D+00  0.0000000000000D+00
   352  3.5100000000000D+00  0.0000000000000D+00  0.0000000000000D+00
   353  3.5200000000000D+00  0.0000000000000D+00  0.0000000000000D+00
   354  3.5300000000000D+00  0.0000000000000D+00  0.0000000000000D+00
   355  3.5400000000000D+00  0.0000000000000D+00  0.0000000000000D+00
   356  3.5500000000000D+00  0.0000000000000D+00  0.0000000000000D+00
   357  3.5600000000000D+00  0.0000000000000D+00  0.0000000000000D+00
   358  3.5700000000000D+00  0.0000000000000D+00  0.0000000000000D+00
   359  3.5800000000000D+00  0.0000000000000D+00  0.0000000000000D+00
   360  3.5900000000000D+00  0.0000000000000D+00  0.0000000000000D+00
   361  3.6000000000000D+00  0.0000000000000D+00  0.0000000000000D+00
   362  3.6100000000000D+00  0.0000000000000D+00  0.0000000000000D+00
   363  3.6200000000000D+00  0.0000000000000D+00  0.0000000000000D+00
   364  3.6300000000000D+00  0.0000000000000D+00  0.0000000000000D+00
   365  3.6400000000000D+00  0.0000000000000D+00  0.0000000000000D+00
   366  3.6500000000000D+00  0.0000000000000D+00  0.0000000000000D+00
   367  3.6600000000000D+00  0.0000000000000D+00  0.0000000000000D+00
   368  3.6700000000000D+00  0.0000000000000D+00  0.0000000000000D+00
   369  3.6800000000000D+00  0.0000000000000D+00  0.0000000000000D+00
   370  3.6900000000000D+00  0.0000000000000D+00  0.0000000000000D+00
   371  3.7000000000000D+00  0.0000000000000D+00  0.0000000000000D+00
   372  3.7100000000000D+00  0.0000000000000D+00  0.0000000000000D+00
   373  3.7200000000000D+00  0.0000000000000D+00  0.0000000000000D+00
   374  3.7300000000000D+00  0.0000000000000D+00  0.0000000000000D+00
   375  3.7400000000000D+00  0.0000000000000D+00  0.0000000000000D+00
   376  3.7500000000000D+00  0.0000000000000D+00  0.0000000000000D+00
   377  3.7600000000000D+00  0.0000000000000D+00  0.0000000000000D+00
   378  3.7700000000000D+00  0.0000000000000D+00  0.0000000000000D+00
   379  3.7800000000000D+00  0.0000000000000D+00  0.0000000000000D+00
   380  3.7900000000000D+00  0.0000000000000D+00  0.0000000000000D+00
   381  3.8000000000000D+00  0.0000000000000D+00  0.0000000000000D+00
   382  3.8100000000000D+00  0.0000000000000D+00  0.0000000000000D+00
   383  3.8200000000000D+00  0.0000000000000D+00  0.0000000000000D+00
   384  3.8300000000000D+00  0.0000000000000D+00  0.0000000000000D+00
   385  3.8400000000000D+00  0.0000000000000D+00  0.0000000000000D+00
   386  3.8500000000000D+00  0.0000000000000D+00  0.0000000000000D+00
   387  3.8600000000000D+00  0.0000000000000D+00  0.0000000000000D+00
   388  3.8700000000000D+00  0.0000000000000D+00  0.0000000000000D+00
   389  3.8800000000000D+00  0.0000000000000D+00  0.0000000000000D+00
   390  3.8900000000000D+00  0.0000000000000D+00  0.0000000000000D+00
   391  3.9000000000000D+00  0.0000000000000D+00  0.0000000000000D+00
   392  3.9100000000000D+00  0.0000000000000D+00  0.0000000000000D+00
   393  3.9200000000000D+00  0.0000000000000D+00  0.0000000000000D+00
   394  3.9300000000000D+00  0.0000000000000D+00  0.0000000000000D+00
   395  3.9400000000000D+00  0.0000000000000D+00  0.0000000000000D+00
   396  3.9500000000000D+00  0.0000000000000D+00  0.0000000000000D+00
   397  3.9600000000000D+00  0.0000000000000D+00  0.0000000000000D+00
   398  3.9700000000000D+00  0.0000000000000D+00  0.0000000000000D+00
   399  3.9800000000000D+00  0.0000000000000D+00  0.0000000000000D+00
   400  3.9900000000000D+00  0.0000000000000D+00  0.0000000000000D+00
   401  4.0000000000000D+00  0.0000000000000D+00  0.0000000000000D+00
   402  4.0100000000000D+00  0.0000000000000D+00  0.0000000000000D+00
   403  4.0200000000000D+00  0.0000000000000D+00  0.0000000000000D+00
   404  4.0300000000000D+00  0.0000000000000D+00  0.0000000000000D+00
   405  4.0400000000000D+00  0.0000000000000D+00  0.0000000000000D+00
   406  4.0500000000000D+00  0.0000000000000D+00  0.0000000000000D+00
   407  4.0600000000000D+00  0.0000000000000D+00  0.0000000000000D+00
   408  4.0700000000000D+00  0.0000000000000D+00  0.0000000000000D+00
   409  4.0800000000000D+00  0.0000000000000D+00  0.0000000000000D+00
   410  4.0900000000000D+00  0.0000000000000D+00  0.0000000000000D+00
   411  4.1000000000000D+00  0.0000000000000D+00  0.0000000000000D+00
   412  4.1100000000000D+00  0.0000000000000D+00  0.0000000000000D+00
   413  4.1200000000000D+00  0.0000000000000D+00  0.0000000000000D+00
   414  4.1300000000000D+00  0.0000000000000D+00  0.0000000000000D+00
   415  4.1400000000000D+00  0.0000000000000D+00  0.0000000000000D+00
   416  4.1500000000000D+00  0.0000000000000D+00  0.0000000000000D+00
   417  4.1600000000000D+00  0.0000000000000D+00  0.0000000000000D+00
   418  4.1700000000000D+00  0.0000000000000D+00  0.0000000000000D+00
   419  4.1800000000000D+00  0.0000000000000D+00  0.0000000000000D+00
   420  4.1900000000000D+00  0.0000000000000D+00  0.0000000000000D+00
   421  4.2000000000000D+00  0.0000000000000D+00  0.0000000000000D+00
   422  4.2100000000000D+00  0.0000000000000D+00  0.0000000000000D+00