La    ONCVPSP-3.3.1  r_core=   2.92093   2.92093   2.92093   2.47169
     57.0000     11.0000      210904    zatom,zion,pspd
     8       2   3     4   600     0    pspcod,pspxc,lmax,lloc,mmax,r2well
  5.99000000  0.00000000  0.00000000    rchrg fchrg qchrg
     2     4     3     2    nproj
     3     1           extension_switch
     4     4     4    nprojso
   0                         5.6930396291166D-01  3.8461149437016D+00
     1  0.0000000000000D+00 -3.4783339403210D-12  1.3848089341906D-12
     2  1.0000000000000D-02 -1.1099631913399D-03  3.0069999635683D-02
     3  2.0000000000000D-02 -2.2261839501500D-03  6.0125812423555D-02
     4  3.0000000000000D-02 -3.3548561027733D-03  9.0153236799279D-02
     5  4.0000000000000D-02 -4.5020462565372D-03  1.2013804186484D-01
     6  5.0000000000000D-02 -5.6736308474520D-03  1.5006595296978D-01
     7  6.0000000000000D-02 -6.8752339741008D-03  1.7992263758915D-01
     8  7.0000000000000D-02 -8.1121662756642D-03  2.0969369159545D-01
     9  8.0000000000000D-02 -9.3893651085474D-03  2.3936462602040D-01
    10  9.0000000000000D-02 -1.0711336271694D-02  2.6892085440077D-01
    11  1.0000000000000D-01 -1.2082097525483D-02  2.9834768080022D-01
    12  1.1000000000000D-01 -1.3505124143081D-02  3.2763028859692D-01
    13  1.2000000000000D-01 -1.4983296726251D-02  3.5675373012388D-01
    14  1.3000000000000D-01 -1.6518851510020D-02  3.8570291724584D-01
    15  1.4000000000000D-01 -1.8113333372181D-02  4.1446261295340D-01
    16  1.5000000000000D-01 -1.9767551754507D-02  4.4301742405123D-01
    17  1.6000000000000D-01 -2.1481539692610D-02  4.7135179501342D-01
    18  1.7000000000000D-01 -2.3254516140932D-02  4.9945000307476D-01
    19  1.8000000000000D-01 -2.5084851768080D-02  5.2729615462233D-01
    20  1.9000000000000D-01 -2.6970038385951D-02  5.5487418294709D-01
    21  2.0000000000000D-01 -2.8906662163603D-02  5.8216784741010D-01
    22  2.1000000000000D-01 -3.0890380763970D-02  6.0916073407300D-01
    23  2.2000000000000D-01 -3.2915904527968D-02  6.3583625783701D-01
    24  2.3000000000000D-01 -3.4976981816638D-02  6.6217766612900D-01
    25  2.4000000000000D-01 -3.7066388607597D-02  6.8816804416770D-01
    26  2.5000000000000D-01 -3.9175922427327D-02  7.1379032183706D-01
    27  2.6000000000000D-01 -4.1296400685689D-02  7.3902728218789D-01
    28  2.7000000000000D-01 -4.3417663463790D-02  7.6386157158280D-01
    29  2.8000000000000D-01 -4.5528580790562D-02  7.8827571149311D-01
    30  2.9000000000000D-01 -4.7617064427646D-02  8.1225211195031D-01
    31  3.0000000000000D-01 -4.9670084166288D-02  8.3577308664813D-01
    32  3.1000000000000D-01 -5.1673688623740D-02  8.5882086968505D-01
    33  3.2000000000000D-01 -5.3613030510611D-02  8.8137763393055D-01
    34  3.3000000000000D-01 -5.5472396324589D-02  9.0342551099201D-01
    35  3.4000000000000D-01 -5.7235240409722D-02  9.2494661275299D-01
    36  3.5000000000000D-01 -5.8884223304698D-02  9.4592305444695D-01
    37  3.6000000000000D-01 -6.0401254287568D-02  9.6633697922457D-01
    38  3.7000000000000D-01 -6.1767538009015D-02  9.8617058416630D-01
    39  3.8000000000000D-01 -6.2963625090754D-02  1.0054061476861D+00
    40  3.9000000000000D-01 -6.3969466550733D-02  1.0240260582656D+00
    41  4.0000000000000D-01 -6.4764471902205D-02  1.0420128444540D+00
    42  4.1000000000000D-01 -6.5327570759416D-02  1.0593492060595D+00
    43  4.2000000000000D-01 -6.5637277768970D-02  1.0760180464585D+00
    44  4.3000000000000D-01 -6.5671760672603D-02  1.0920025059371D+00
    45  4.4000000000000D-01 -6.5408911294495D-02  1.1072859959794D+00
    46  4.5000000000000D-01 -6.4826419233990D-02  1.1218522344096D+00
    47  4.6000000000000D-01 -6.3901848033280D-02  1.1356852812918D+00
    48  4.7000000000000D-01 -6.2612713578704D-02  1.1487695754851D+00
    49  4.8000000000000D-01 -6.0936564484370D-02  1.1610899717514D+00
    50  4.9000000000000D-01 -5.8851064197396D-02  1.1726317783045D+00
    51  5.0000000000000D-01 -5.6334074555671D-02  1.1833807946912D+00
    52  5.1000000000000D-01 -5.3363740521294D-02  1.1933233498871D+00
    53  5.2000000000000D-01 -4.9918575806062D-02  1.2024463404913D+00
    54  5.3000000000000D-01 -4.5977549099510D-02  1.2107372688986D+00
    55  5.4000000000000D-01 -4.1520170604983D-02  1.2181842813284D+00
    56  5.5000000000000D-01 -3.6526578585094D-02  1.2247762055865D+00
    57  5.6000000000000D-01 -3.0977625614967D-02  1.2305025884340D+00
    58  5.7000000000000D-01 -2.4854964239493D-02  1.2353537324407D+00
    59  5.8000000000000D-01 -1.8141131729651D-02  1.2393207321933D+00
    60  5.9000000000000D-01 -1.0819633632874D-02  1.2423955097367D+00
    61  6.0000000000000D-01 -2.8750258135428D-03  1.2445708491194D+00
    62  6.1000000000000D-01  5.7070053188290D-03  1.2458404299213D+00
    63  6.2000000000000D-01  1.4939564692620D-02  1.2461988596384D+00
    64  6.3000000000000D-01  2.4834472863829D-02  1.2456417048048D+00
    65  6.4000000000000D-01  3.5402193002532D-02  1.2441655207305D+00
    66  6.5000000000000D-01  4.6651760860378D-02  1.2417678797397D+00
    67  6.6000000000000D-01  5.8590717996321D-02  1.2384473977936D+00
    68  6.7000000000000D-01  7.1225048529732D-02  1.2342037593892D+00
    69  6.8000000000000D-01  8.4559119681249D-02  1.2290377406238D+00
    70  6.9000000000000D-01  9.8595626351545D-02  1.2229512303247D+00
    71  7.0000000000000D-01  1.1333553997764D-01  1.2159472491443D+00
    72  7.1000000000000D-01  1.2877806189443D-01  1.2080299665263D+00
    73  7.2000000000000D-01  1.4492058141663D-01  1.1992047154542D+00
    74  7.3000000000000D-01  1.6175863884297D-01  1.1894780049003D+00
    75  7.4000000000000D-01  1.7928589356989D-01  1.1788575298953D+00
    76  7.5000000000000D-01  1.9749409748772D-01  1.1673521791489D+00
    77  7.6000000000000D-01  2.1637307381581D-01  1.1549720401558D+00
    78  7.7000000000000D-01  2.3591070151742D-01  1.1417284017287D+00
    79  7.8000000000000D-01  2.5609290541780D-01  1.1276337539071D+00
    80  7.9000000000000D-01  2.7690365213169D-01  1.1127017851976D+00
    81  8.0000000000000D-01  2.9832495188809D-01  1.0969473771094D+00
    82  8.1000000000000D-01  3.2033686632195D-01  1.0803865959545D+00
    83  8.2000000000000D-01  3.4291752228352D-01  1.0630366818929D+00
    84  8.3000000000000D-01  3.6604313169659D-01  1.0449160352078D+00
    85  8.4000000000000D-01  3.8968801747795D-01  1.0260441998060D+00
    86  8.5000000000000D-01  4.1382464550996D-01  1.0064418439458D+00
    87  8.6000000000000D-01  4.3842366263892D-01  9.8613073820326D-01
    88  8.7000000000000D-01  4.6345394065168D-01  9.6513373069597D-01
    89  8.8000000000000D-01  4.8888262616289D-01  9.4347471959125D-01
    90  8.9000000000000D-01  5.1467519632578D-01  9.2117862293469D-01
    91  9.0000000000000D-01  5.4079552025919D-01  8.9827134584260D-01
    92  9.1000000000000D-01  5.6720592606424D-01  8.7477974511029D-01
    93  9.2000000000000D-01  5.9386727328456D-01  8.5073159129633D-01
    94  9.3000000000000D-01  6.2073903064510D-01  8.2615552835057D-01
    95  9.4000000000000D-01  6.4777935888584D-01  8.0108103086187D-01
    96  9.5000000000000D-01  6.7494519848865D-01  7.7553835900895D-01
    97  9.6000000000000D-01  7.0219236207779D-01  7.4955851130528D-01
    98  9.7000000000000D-01  7.2947563125765D-01  7.2317317523628D-01
    99  9.8000000000000D-01  7.5674885763486D-01  6.9641467589392D-01
   100  9.9000000000000D-01  7.8396506775605D-01  6.6931592272070D-01
   101  1.0000000000000D+00  8.1107657167802D-01  6.4191035448156D-01
   102  1.0100000000000D+00  8.3803507487258D-01  6.1423188258794D-01
   103  1.0200000000000D+00  8.6479179315526D-01  5.8631483290468D-01
   104  1.0300000000000D+00  8.9129757031491D-01  5.5819388617532D-01
   105  1.0400000000000D+00  9.1750299810999D-01  5.2990401720663D-01
   106  1.0500000000000D+00  9.4335853828669D-01  5.0148043295803D-01
   107  1.0600000000000D+00  9.6881464626527D-01  4.7295850968553D-01
   108  1.0700000000000D+00  9.9382189613263D-01  4.4437372929390D-01
   109  1.0800000000000D+00  1.0183311065724D+00  4.1576161505392D-01
   110  1.0900000000000D+00  1.0422934673582D+00  3.8715766684456D-01
   111  1.1000000000000D+00  1.0656606660307D+00  3.5859729608249D-01
   112  1.1100000000000D+00  1.0883850143763D+00  3.3011576050307D-01
   113  1.1200000000000D+00  1.1104195743230D+00  3.0174809895868D-01
   114  1.1300000000000D+00  1.1317182828683D+00  2.7352906640074D-01
   115  1.1400000000000D+00  1.1522360756544D+00  2.4549306921291D-01
   116  1.1500000000000D+00  1.1719290088083D+00  2.1767410106220D-01
   117  1.1600000000000D+00  1.1907543786658D+00  1.9010567943459D-01
   118  1.1700000000000D+00  1.2086708390059D+00  1.6282078302028D-01
   119  1.1800000000000D+00  1.2256385154237D+00  1.3585179011275D-01
   120  1.1900000000000D+00  1.2416191164807D+00  1.0923041818284D-01
   121  1.2000000000000D+00  1.2565760412781D+00  8.2987664786386D-02
   122  1.2100000000000D+00  1.2704744831060D+00  5.7153749962419D-02
   123  1.2200000000000D+00  1.2832815288346D+00  3.1758060273116D-02
   124  1.2300000000000D+00  1.2949662537276D+00  6.8290946332862D-03
   125  1.2400000000000D+00  1.3054998113643D+00 -1.7605587926382D-02
   126  1.2500000000000D+00  1.3148555183746D+00 -4.1519418423843D-02
   127  1.2600000000000D+00  1.3230089337114D+00 -6.4886865886541D-02
   128  1.2700000000000D+00  1.3299379321909D+00 -8.7683482980697D-02
   129  1.2800000000000D+00  1.3356227720532D+00 -1.0988594918732D-01
   130  1.2900000000000D+00  1.3400461563202D+00 -1.3147211141416D-01
   131  1.3000000000000D+00  1.3431932877355D+00 -1.5242102193491D-01
   132  1.3100000000000D+00  1.3450519170918D+00 -1.7271297355493D-01
   133  1.3200000000000D+00  1.3456123847889D+00 -1.9232953191716D-01
   134  1.3300000000000D+00  1.3448676554601D+00 -2.1125356485987D-01
   135  1.3400000000000D+00  1.3428133455399D+00 -2.2946926875181D-01
   136  1.3500000000000D+00  1.3394477436867D+00 -2.4696219174518D-01
   137  1.3600000000000D+00  1.3347718239468D+00 -2.6371925387781D-01
   138  1.3700000000000D+00  1.3287892516249D+00 -2.7972876398486D-01
   139  1.3800000000000D+00  1.3215063818241D+00 -2.9498043338137D-01
   140  1.3900000000000D+00  1.3129322506157D+00 -3.0946538627504D-01
   141  1.4000000000000D+00  1.3030785588911D+00 -3.2317616690507D-01
   142  1.4100000000000D+00  1.2919596488937D+00 -3.3610674338206D-01
   143  1.4200000000000D+00  1.2795924735020D+00 -3.4825250823264D-01
   144  1.4300000000000D+00  1.2659965583652D+00 -3.5961027566515D-01
   145  1.4400000000000D+00  1.2511939569457D+00 -3.7017827555395D-01
   146  1.4500000000000D+00  1.2352091986605D+00 -3.7995614419525D-01
   147  1.4600000000000D+00  1.2180692302128D+00 -3.8894491184800D-01
   148  1.4700000000000D+00  1.1998033503216D+00 -3.9714698711898D-01
   149  1.4800000000000D+00  1.1804431380407D+00 -4.0456613824741D-01
   150  1.4900000000000D+00  1.1600223748462D+00 -4.1120747133700D-01
   151  1.5000000000000D+00  1.1385769607964D+00 -4.1707740563792D-01
   152  1.5100000000000D+00  1.1161448249272D+00 -4.2218364592014D-01
   153  1.5200000000000D+00  1.0927658302475D+00 -4.2653515206743D-01
   154  1.5300000000000D+00  1.0684816735501D+00 -4.3014210595598D-01
   155  1.5400000000000D+00  1.0433357803937D+00 -4.3301587574351D-01
   156  1.5500000000000D+00  1.0173731955551D+00 -4.3516897767099D-01
   157  1.5600000000000D+00  9.9064046928834D-01 -4.3661503549335D-01
   158  1.5700000000000D+00  9.6318553976177D-01 -4.3736873767631D-01
   159  1.5800000000000D+00  9.3505761199583D-01 -4.3744579246840D-01
   160  1.5900000000000D+00  9.0630703372762D-01 -4.3686288101348D-01
   161  1.6000000000000D+00  8.7698516852376D-01 -4.3563760861049D-01
   162  1.6100000000000D+00  8.4714426659436D-01 -4.3378845430338D-01
   163  1.6200000000000D+00  8.1683733364756D-01 -4.3133471891410D-01
   164  1.6300000000000D+00  7.8611799823582D-01 -4.2829647170587D-01
   165  1.6400000000000D+00  7.5504037796462D-01 -4.2469449580442D-01
   166  1.6500000000000D+00  7.2365894499540D-01 -4.2055023255900D-01
   167  1.6600000000000D+00  6.9202839124262D-01 -4.1588572498649D-01
   168  1.6700000000000D+00  6.6020349367344D-01 -4.1072356047347D-01
   169  1.6800000000000D+00  6.2823898013019D-01 -4.0508681289118D-01
   170  1.6900000000000D+00  5.9618939605649D-01 -3.9899898429061D-01
   171  1.7000000000000D+00  5.6410897256267D-01 -3.9248394634135D-01
   172  1.7100000000000D+00  5.3205149617395D-01 -3.8556588167116D-01
   173  1.7200000000000D+00  5.0007018071407D-01 -3.7826922527834D-01
   174  1.7300000000000D+00  4.6821754161376D-01 -3.7061860615794D-01
   175  1.7400000000000D+00  4.3654527312381D-01 -3.6263878932492D-01
   176  1.7500000000000D+00  4.0510412864188D-01 -3.5435461835117D-01
   177  1.7600000000000D+00  3.7394380468097D-01 -3.4579095861650D-01
   178  1.7700000000000D+00  3.4311282857151D-01 -3.3697264135378D-01
   179  1.7800000000000D+00  3.1265845050545D-01 -3.2792440871644D-01
   180  1.7900000000000D+00  2.8262653985383D-01 -3.1867085989580D-01
   181  1.8000000000000D+00  2.5306148646506D-01 -3.0923639855206D-01
   182  1.8100000000000D+00  2.2400610673313D-01 -2.9964518153688D-01
   183  1.8200000000000D+00  1.9550155515724D-01 -2.8992106918146D-01
   184  1.8300000000000D+00  1.6758724115229D-01 -2.8008757711328D-01
   185  1.8400000000000D+00  1.4030075172331D-01 -2.7016782984491D-01
   186  1.8500000000000D+00  1.1367777984207D-01 -2.6018451612010D-01
   187  1.8600000000000D+00  8.7752058918035D-02 -2.5015984618996D-01
   188  1.8700000000000D+00  6.2555303391834D-02 -2.4011551106655D-01
   189  1.8800000000000D+00  3.8117155502822D-02 -2.3007264381114D-01
   190  1.8900000000000D+00  1.4465138564866D-02 -2.2005178301085D-01
   191  1.9000000000000D+00 -8.3753836452881D-03 -2.1007283834269D-01
   192  1.9100000000000D+00 -3.0381240693829D-02 -2.0015505850888D-01
   193  1.9200000000000D+00 -5.1531483269231D-02 -1.9031700130121D-01
   194  1.9300000000000D+00 -7.1807404119980D-02 -1.8057650612763D-01
   195  1.9400000000000D+00 -9.1192552909570D-02 -1.7095066876075D-01
   196  1.9500000000000D+00 -1.0967274454230D-01 -1.6145581851137D-01
   197  1.9600000000000D+00 -1.2723606124626D-01 -1.5210749775769D-01
   198  1.9700000000000D+00 -1.4387284864928D-01 -1.4292044378027D-01
   199  1.9800000000000D+00 -1.5957570550086D-01 -1.3390857307371D-01
   200  1.9900000000000D+00 -1.7433946795970D-01 -1.2508496781958D-01
   201  2.0000000000000D+00 -1.8816118768447D-01 -1.1646186485899D-01
   202  2.0100000000000D+00 -2.0104010478495D-01 -1.0805064678772D-01
   203  2.0200000000000D+00 -2.1297761526307D-01 -9.9861835365069D-02
   204  2.0300000000000D+00 -2.2397723335244D-01 -9.1905087113302D-02
   205  2.0400000000000D+00 -2.3404454923587D-01 -8.4189190954722D-02
   206  2.0500000000000D+00 -2.4318718184390D-01 -7.6722068059225D-02
   207  2.0600000000000D+00 -2.5141472773225D-01 -6.9510773521612D-02
   208  2.0700000000000D+00 -2.5873870567322D-01 -6.2561500083497D-02
   209  2.0800000000000D+00 -2.6517249768517D-01 -5.5879583627184D-02
   210  2.0900000000000D+00 -2.7073128674571D-01 -4.9469510387572D-02
   211  2.1000000000000D+00 -2.7543199128301D-01 -4.3334925904994D-02
   212  2.1100000000000D+00 -2.7929319720162D-01 -3.7478645403639D-02
   213  2.1200000000000D+00 -2.8233508737241D-01 -3.1902665726125D-02
   214  2.1300000000000D+00 -2.8457936921970D-01 -2.6608178550351D-02
   215  2.1400000000000D+00 -2.8604920069169D-01 -2.1595584825583D-02
   216  2.1500000000000D+00 -2.8676911491525D-01 -1.6864510376009D-02
   217  2.1600000000000D+00 -2.8676494398119D-01 -1.2413822440792D-02
   218  2.1700000000000D+00 -2.8606374222390D-01 -8.2416471367655D-03
   219  2.1800000000000D+00 -2.8469370932169D-01 -4.3453876681106D-03
   220  2.1900000000000D+00 -2.8268411356111D-01 -7.2174317147633D-04
   221  2.2000000000000D+00 -2.8006521582746D-01  2.6332719206646D-03
   222  2.2100000000000D+00 -2.7686819430687D-01  5.7243081011348D-03
   223  2.2200000000000D+00 -2.7312507064172D-01  8.5566607545478D-03
   224  2.2300000000000D+00 -2.6886864385326D-01  1.1136252056345D-02
   225  2.2400000000000D+00 -2.6413239476416D-01  1.3469602127313D-02
   226  2.2500000000000D+00 -2.5895046816550D-01  1.5563826113121D-02
   227  2.2600000000000D+00 -2.5335756408295D-01  1.7426599156198D-02
   228  2.2700000000000D+00 -2.4738881281264D-01  1.9066115006409D-02
   229  2.2800000000000D+00 -2.4107979155336D-01  2.0491094200988D-02
   230  2.2900000000000D+00 -2.3446672691746D-01  2.1710852112035D-02
   231  2.3000000000000D+00 -2.2758616188304D-01  2.2735185468581D-02
   232  2.3100000000000D+00 -2.2047452160137D-01  2.3574221607708D-02
   233  2.3200000000000D+00 -2.1316782341228D-01  2.4238322630057D-02
   234  2.3300000000000D+00 -2.0570137057008D-01  2.4737968712093D-02
   235  2.3400000000000D+00 -1.9810946946534D-01  2.5083653981974D-02
   236  2.3500000000000D+00 -1.9042478470375D-01  2.5285656366631D-02
   237  2.3600000000000D+00 -1.8267868987267D-01  2.5354147131830D-02
   238  2.3700000000000D+00 -1.7490116981276D-01  2.5299145022658D-02
   239  2.3800000000000D+00 -1.6712087821803D-01  2.5130522846840D-02
   240  2.3900000000000D+00 -1.5936495051675D-01  2.4857933323818D-02
   241  2.4000000000000D+00 -1.5165902947126D-01  2.4490804819320D-02
   242  2.4100000000000D+00 -1.4402723938909D-01  2.4038319870977D-02
   243  2.4200000000000D+00 -1.3649215268587D-01  2.3509390931380D-02
   244  2.4300000000000D+00 -1.2907477719021D-01  2.2912642884442D-02
   245  2.4400000000000D+00 -1.2179454609764D-01  2.2256396287534D-02
   246  2.4500000000000D+00 -1.1466931377950D-01  2.1548652440922D-02
   247  2.4600000000000D+00 -1.0771535615611D-01  2.0797079869373D-02
   248  2.4700000000000D+00 -1.0094737787913D-01  2.0009003008578D-02
   249  2.4800000000000D+00 -9.4378524779137D-02  1.9191392594828D-02
   250  2.4900000000000D+00 -8.8020400612404D-02  1.8350857445710D-02
   251  2.5000000000000D+00 -8.1883090357777D-02  1.7493638443071D-02
   252  2.5100000000000D+00 -7.5975188118994D-02  1.6625604067753D-02
   253  2.5200000000000D+00 -7.0303828935546D-02  1.5752247260499D-02
   254  2.5300000000000D+00 -6.4874726558875D-02  1.4878684372432D-02
   255  2.5400000000000D+00 -5.9692215142777D-02  1.4009655501890D-02
   256  2.5500000000000D+00 -5.4759294337804D-02  1.3149526051941D-02
   257  2.5600000000000D+00 -5.0077679465270D-02  1.2302290160193D-02
   258  2.5700000000000D+00 -4.5647854903545D-02  1.1471575343604D-02
   259  2.5800000000000D+00 -4.1469130278334D-02  1.0660648223202D-02
   260  2.5900000000000D+00 -3.7539700599099D-02  9.8724218140817D-03
   261  2.6000000000000D+00 -3.3856708892936D-02  9.1094638537923D-03
   262  2.6100000000000D+00 -3.0416310968566D-02  8.3740060412452D-03
   263  2.6200000000000D+00 -2.7213742834784D-02  7.6679544706956D-03
   264  2.6300000000000D+00 -2.4243389856605D-02  6.9929009134023D-03
   265  2.6400000000000D+00 -2.1498857314195D-02  6.3501348183303D-03
   266  2.6500000000000D+00 -1.8973042299795D-02  5.7406561153863D-03
   267  2.6600000000000D+00 -1.6658206480682D-02  5.1651886413272D-03
   268  2.6700000000000D+00 -1.4546049499068D-02  4.6241940761132D-03
   269  2.6800000000000D+00 -1.2627782548346D-02  4.1178863230529D-03
   270  2.6900000000000D+00 -1.0894201731162D-02  3.6462462208726D-03
   271  2.7000000000000D+00 -9.3357612562344D-03  3.2090365428082D-03
   272  2.7100000000000D+00 -7.9426460199023D-03  2.8058171829660D-03
   273  2.7200000000000D+00 -6.7048425536130D-03  2.4359602799563D-03
   274  2.7300000000000D+00 -5.6122089790846D-03  2.0986653895305D-03
   275  2.7400000000000D+00 -4.6545441439222D-03  1.7929747605933D-03
   276  2.7500000000000D+00 -3.8216531979000D-03  1.5177879947739D-03
   277  2.7600000000000D+00 -3.1034117343017D-03  1.2718766186346D-03
   278  2.7700000000000D+00 -2.4898285982128D-03  1.0538986110794D-03
   279  2.7800000000000D+00 -1.9711040475404D-03  8.6241196548845D-04
   280  2.7900000000000D+00 -1.5376855500871D-03  6.9588790361689D-04
   281  2.8000000000000D+00 -1.1803214376932D-03  5.5272380658247D-04
   282  2.8100000000000D+00 -8.9011029473527D-04  4.3125525587606D-04
   283  2.8200000000000D+00 -6.5855838582130D-04  3.2976881709084D-04
   284  2.8300000000000D+00 -4.7763091585621D-04  2.4651388388628D-04
   285  2.8400000000000D+00 -3.3963941780517D-04  1.7969242498778D-04
   286  2.8500000000000D+00 -2.3748438767337D-04  1.2749563141227D-04
   287  2.8600000000000D+00 -1.6420690929053D-04  8.7936742690399D-05
   288  2.8700000000000D+00 -1.1451019345051D-04  5.9435414740445D-05
   289  2.8800000000000D+00 -8.3462035768369D-05  4.0319735363477D-05
   290  2.8900000000000D+00 -6.7061535767971D-05  2.9101323380710D-05
   291  2.9000000000000D+00 -6.0689924737074D-05  2.3807625299255D-05
   292  2.9100000000000D+00 -5.7402135673014D-05  2.1256089380416D-05
   293  2.9200000000000D+00 -5.2554590891909D-05  1.9150679018667D-05
   294  2.9300000000000D+00 -3.9913941812522D-05  1.4459128145801D-05
   295  2.9400000000000D+00 -2.3857395179456D-05  8.6509760410094D-06
   296  2.9500000000000D+00 -7.9587549883411D-06  2.8987784477205D-06
   297  2.9600000000000D+00  2.6312360163304D-06 -9.3140714804989D-07
   298  2.9700000000000D+00  5.4536815964135D-06 -1.9273121022029D-06
   299  2.9800000000000D+00  4.0696813993290D-06 -1.4369068436035D-06
   300  2.9900000000000D+00  5.5060217789382D-07 -1.9431916089042D-07
   301  3.0000000000000D+00 -9.0701896180356D-07  3.1732303984521D-07
   302  3.0100000000000D+00 -1.1667890357290D-06  4.0750091546030D-07
   303  3.0200000000000D+00 -6.4697344382851D-07  2.2562008874392D-07
   304  3.0300000000000D+00  3.9149585134247D-08 -1.4265458845133D-08
   305  3.0400000000000D+00  1.3625270288271D-07 -4.9648222806100D-08
   306  3.0500000000000D+00  1.3196417280886D-07 -4.8085553647159D-08
   307  3.0600000000000D+00  4.3333623303553D-08 -1.5790052888876D-08
   308  3.0700000000000D+00  0.0000000000000D+00  0.0000000000000D+00
   309  3.0800000000000D+00  0.0000000000000D+00  0.0000000000000D+00
   310  3.0900000000000D+00  0.0000000000000D+00  0.0000000000000D+00
   311  3.1000000000000D+00  0.0000000000000D+00  0.0000000000000D+00
   312  3.1100000000000D+00  0.0000000000000D+00  0.0000000000000D+00
   313  3.1200000000000D+00  0.0000000000000D+00  0.0000000000000D+00
   314  3.1300000000000D+00  0.0000000000000D+00  0.0000000000000D+00
   315  3.1400000000000D+00  0.0000000000000D+00  0.0000000000000D+00
   316  3.1500000000000D+00  0.0000000000000D+00  0.0000000000000D+00
   317  3.1600000000000D+00  0.0000000000000D+00  0.0000000000000D+00
   318  3.1700000000000D+00  0.0000000000000D+00  0.0000000000000D+00
   319  3.1800000000000D+00  0.0000000000000D+00  0.0000000000000D+00
   320  3.1900000000000D+00  0.0000000000000D+00  0.0000000000000D+00
   321  3.2000000000000D+00  0.0000000000000D+00  0.0000000000000D+00
   322  3.2100000000000D+00  0.0000000000000D+00  0.0000000000000D+00
   323  3.2200000000000D+00  0.0000000000000D+00  0.0000000000000D+00
   324  3.2300000000000D+00  0.0000000000000D+00  0.0000000000000D+00
   325  3.2400000000000D+00  0.0000000000000D+00  0.0000000000000D+00
   326  3.2500000000000D+00  0.0000000000000D+00  0.0000000000000D+00
   327  3.2600000000000D+00  0.0000000000000D+00  0.0000000000000D+00
   328  3.2700000000000D+00  0.0000000000000D+00  0.0000000000000D+00
   329  3.2800000000000D+00  0.0000000000000D+00  0.0000000000000D+00
   330  3.2900000000000D+00  0.0000000000000D+00  0.0000000000000D+00
   331  3.3000000000000D+00  0.0000000000000D+00  0.0000000000000D+00
   332  3.3100000000000D+00  0.0000000000000D+00  0.0000000000000D+00
   333  3.3200000000000D+00  0.0000000000000D+00  0.0000000000000D+00
   334  3.3300000000000D+00  0.0000000000000D+00  0.0000000000000D+00
   335  3.3400000000000D+00  0.0000000000000D+00  0.0000000000000D+00
   336  3.3500000000000D+00  0.0000000000000D+00  0.0000000000000D+00
   337  3.3600000000000D+00  0.0000000000000D+00  0.0000000000000D+00
   338  3.3700000000000D+00  0.0000000000000D+00  0.0000000000000D+00
   339  3.3800000000000D+00  0.0000000000000D+00  0.0000000000000D+00
   340  3.3900000000000D+00  0.0000000000000D+00  0.0000000000000D+00
   341  3.4000000000000D+00  0.0000000000000D+00  0.0000000000000D+00
   342  3.4100000000000D+00  0.0000000000000D+00  0.0000000000000D+00
   343  3.4200000000000D+00  0.0000000000000D+00  0.0000000000000D+00
   344  3.4300000000000D+00  0.0000000000000D+00  0.0000000000000D+00
   345  3.4400000000000D+00  0.0000000000000D+00  0.0000000000000D+00
   346  3.4500000000000D+00  0.0000000000000D+00  0.0000000000000D+00
   347  3.4600000000000D+00  0.0000000000000D+00  0.0000000000000D+00
   348  3.4700000000000D+00  0.0000000000000D+00  0.0000000000000D+00
   349  3.4800000000000D+00  0.0000000000000D+00  0.0000000000000D+00
   350  3.4900000000000D+00  0.0000000000000D+00  0.0000000000000D+00
   351  3.5000000000000D+00  0.0000000000000D+00  0.0000000000000D+00
   352  3.5100000000000D+00  0.0000000000000D+00  0.0000000000000D+00
   353  3.5200000000000D+00  0.0000000000000D+00  0.0000000000000D+00
   354  3.5300000000000D+00  0.0000000000000D+00  0.0000000000000D+00
   355  3.5400000000000D+00  0.0000000000000D+00  0.0000000000000D+00
   356  3.5500000000000D+00  0.0000000000000D+00  0.0000000000000D+00
   357  3.5600000000000D+00  0.0000000000000D+00  0.0000000000000D+00
   358  3.5700000000000D+00  0.0000000000000D+00  0.0000000000000D+00
   359  3.5800000000000D+00  0.0000000000000D+00  0.0000000000000D+00
   360  3.5900000000000D+00  0.0000000000000D+00  0.0000000000000D+00
   361  3.6000000000000D+00  0.0000000000000D+00  0.0000000000000D+00
   362  3.6100000000000D+00  0.0000000000000D+00  0.0000000000000D+00
   363  3.6200000000000D+00  0.0000000000000D+00  0.0000000000000D+00
   364  3.6300000000000D+00  0.0000000000000D+00  0.0000000000000D+00
   365  3.6400000000000D+00  0.0000000000000D+00  0.0000000000000D+00
   366  3.6500000000000D+00  0.0000000000000D+00  0.0000000000000D+00
   367  3.6600000000000D+00  0.0000000000000D+00  0.0000000000000D+00
   368  3.6700000000000D+00  0.0000000000000D+00  0.0000000000000D+00
   369  3.6800000000000D+00  0.0000000000000D+00  0.0000000000000D+00
   370  3.6900000000000D+00  0.0000000000000D+00  0.0000000000000D+00
   371  3.7000000000000D+00  0.0000000000000D+00  0.0000000000000D+00
   372  3.7100000000000D+00  0.0000000000000D+00  0.0000000000000D+00
   373  3.7200000000000D+00  0.0000000000000D+00  0.0000000000000D+00
   374  3.7300000000000D+00  0.0000000000000D+00  0.0000000000000D+00
   375  3.7400000000000D+00  0.0000000000000D+00  0.0000000000000D+00
   376  3.7500000000000D+00  0.0000000000000D+00  0.0000000000000D+00
   377  3.7600000000000D+00  0.0000000000000D+00  0.0000000000000D+00
   378  3.7700000000000D+00  0.0000000000000D+00  0.0000000000000D+00
   379  3.7800000000000D+00  0.0000000000000D+00  0.0000000000000D+00
   380  3.7900000000000D+00  0.0000000000000D+00  0.0000000000000D+00
   381  3.8000000000000D+00  0.0000000000000D+00  0.0000000000000D+00
   382  3.8100000000000D+00  0.0000000000000D+00  0.0000000000000D+00
   383  3.8200000000000D+00  0.0000000000000D+00  0.0000000000000D+00
   384  3.8300000000000D+00  0.0000000000000D+00  0.0000000000000D+00
   385  3.8400000000000D+00  0.0000000000000D+00  0.0000000000000D+00
   386  3.8500000000000D+00  0.0000000000000D+00  0.0000000000000D+00
   387  3.8600000000000D+00  0.0000000000000D+00  0.0000000000000D+00
   388  3.8700000000000D+00  0.0000000000000D+00  0.0000000000000D+00
   389  3.8800000000000D+00  0.0000000000000D+00  0.0000000000000D+00
   390  3.8900000000000D+00  0.0000000000000D+00  0.0000000000000D+00
   391  3.9000000000000D+00  0.0000000000000D+00  0.0000000000000D+00
   392  3.9100000000000D+00  0.0000000000000D+00  0.0000000000000D+00
   393  3.9200000000000D+00  0.0000000000000D+00  0.0000000000000D+00
   394  3.9300000000000D+00  0.0000000000000D+00  0.0000000000000D+00
   395  3.9400000000000D+00  0.0000000000000D+00  0.0000000000000D+00
   396  3.9500000000000D+00  0.0000000000000D+00  0.0000000000000D+00
   397  3.9600000000000D+00  0.0000000000000D+00  0.0000000000000D+00
   398  3.9700000000000D+00  0.0000000000000D+00  0.0000000000000D+00
   399  3.9800000000000D+00  0.0000000000000D+00  0.0000000000000D+00
   400  3.9900000000000D+00  0.0000000000000D+00  0.0000000000000D+00
   401  4.0000000000000D+00  0.0000000000000D+00  0.0000000000000D+00
   402  4.0100000000000D+00  0.0000000000000D+00  0.0000000000000D+00
   403  4.0200000000000D+00  0.0000000000000D+00  0.0000000000000D+00
   404  4.0300000000000D+00  0.0000000000000D+00  0.0000000000000D+00
   405  4.0400000000000D+00  0.0000000000000D+00  0.0000000000000D+00
   406  4.0500000000000D+00  0.0000000000000D+00  0.0000000000000D+00
   407  4.0600000000000D+00  0.0000000000000D+00  0.0000000000000D+00
   408  4.0700000000000D+00  0.0000000000000D+00  0.0000000000000D+00
   409  4.0800000000000D+00  0.0000000000000D+00  0.0000000000000D+00
   410  4.0900000000000D+00  0.0000000000000D+00  0.0000000000000D+00
   411  4.1000000000000D+00  0.0000000000000D+00  0.0000000000000D+00
   412  4.1100000000000D+00  0.0000000000000D+00  0.0000000000000D+00
   413  4.1200000000000D+00  0.0000000000000D+00  0.0000000000000D+00
   414  4.1300000000000D+00  0.0000000000000D+00  0.0000000000000D+00
   415  4.1400000000000D+00  0.0000000000000D+00  0.0000000000000D+00
   416  4.1500000000000D+00  0.0000000000000D+00  0.0000000000000D+00
   417  4.1600000000000D+00  0.0000000000000D+00  0.0000000000000D+00
   418  4.1700000000000D+00  0.0000000000000D+00  0.0000000000000D+00
   419  4.1800000000000D+00  0.0000000000000D+00  0.0000000000000D+00
   420  4.1900000000000D+00  0.0000000000000D+00  0.0000000000000D+00
   421  4.2000000000000D+00  0.0000000000000D+00  0.0000000000000D+00
   422  4.2100000000000D+00  0.0000000000000D+00  0.0000000000000D+00