Li    ONCVPSP-3.3.1  r_core=   1.76647   1.40824
      3.0000      3.0000      210904    zatom,zion,pspd
     8       2   1     4   600     0    pspcod,pspxc,lmax,lloc,mmax,r2well
  5.99000000  0.00000000  0.00000000    rchrg fchrg qchrg
     2     2     0     0    nproj
     3     1           extension_switch
     3     0     0    nprojso
   0                        -3.4790614376609D+00 -1.3469588198648D+00
     1  0.0000000000000D+00  1.6429380078620D-10 -3.2907333802346D-10
     2  1.0000000000000D-02  6.9411688253383D-02 -1.5686994111238D-02
     3  2.0000000000000D-02  1.3871033451311D-01 -3.1318439355117D-02
     4  3.0000000000000D-02  2.0778281639928D-01 -4.6838380119952D-02
     5  4.0000000000000D-02  2.7651585447723D-01 -6.2190054940495D-02
     6  5.0000000000000D-02  3.4479594298255D-01 -7.7315512574666D-02
     7  6.0000000000000D-02  4.1250929153158D-01 -9.2155250649501D-02
     8  7.0000000000000D-02  4.7954178128495D-01 -1.0664788401006D-01
     9  8.0000000000000D-02  5.4577893886741D-01 -1.2072984957604D-01
    10  9.0000000000000D-02  6.1110593114452D-01 -1.3433515410516D-01
    11  1.0000000000000D-01  6.7540758371831D-01 -1.4739517078443D-01
    12  1.1000000000000D-01  7.3856842573051D-01 -1.5983849002370D-01
    13  1.2000000000000D-01  8.0047276325807D-01 -1.7159082921644D-01
    14  1.3000000000000D-01  8.6100478325160D-01 -1.8257500556597D-01
    15  1.4000000000000D-01  9.2004868960899D-01 -1.9271097535724D-01
    16  1.5000000000000D-01  9.7748887259502D-01 -2.0191594229227D-01
    17  1.6000000000000D-01  1.0332101124176D+00 -2.1010453670827D-01
    18  1.7000000000000D-01  1.0870978173573D+00 -2.1718906666933D-01
    19  1.8000000000000D-01  1.1390382964195D+00 -2.2307984107279D-01
    20  1.9000000000000D-01  1.1889190660487D+00 -2.2768556404938D-01
    21  2.0000000000000D-01  1.2366291900059D+00 -2.3091379906912D-01
    22  2.1000000000000D-01  1.2820596510793D+00 -2.3267150030224D-01
    23  2.2000000000000D-01  1.3251037528708D+00 -2.3286560793473D-01
    24  2.3000000000000D-01  1.3656575494794D+00 -2.3140370330949D-01
    25  2.4000000000000D-01  1.4036203005067D+00 -2.2819471896551D-01
    26  2.5000000000000D-01  1.4388949484168D+00 -2.2314969788753D-01
    27  2.6000000000000D-01  1.4713886149291D+00 -2.1618259556431D-01
    28  2.7000000000000D-01  1.5010131127784D+00 -2.0721111779414D-01
    29  2.8000000000000D-01  1.5276854688787D+00 -1.9615758657736D-01
    30  2.9000000000000D-01  1.5513284546492D+00 -1.8294982590554D-01
    31  3.0000000000000D-01  1.5718711190269D+00 -1.6752205880066D-01
    32  3.1000000000000D-01  1.5892493194943D+00 -1.4981580658185D-01
    33  3.2000000000000D-01  1.6034062462942D+00 -1.2978078104610D-01
    34  3.3000000000000D-01  1.6142929348942D+00 -1.0737576004719D-01
    35  3.4000000000000D-01  1.6218687616966D+00 -8.2569436847968D-02
    36  3.5000000000000D-01  1.6261019179727D+00 -5.5341233606156D-02
    37  3.6000000000000D-01  1.6269698570283D+00 -2.5682069436488D-02
    38  3.7000000000000D-01  1.6244597096879D+00  6.4049263287711D-03
    39  3.8000000000000D-01  1.6185686633080D+00  4.0903764781869D-02
    40  3.9000000000000D-01  1.6093042997076D+00  7.7785020712312D-02
    41  4.0000000000000D-01  1.5966848876236D+00  1.1700533677177D-01
    42  4.1000000000000D-01  1.5807396255671D+00  1.5850701623475D-01
    43  4.2000000000000D-01  1.5615088312670D+00  2.0221771141424D-01
    44  4.3000000000000D-01  1.5390440742414D+00  2.4805021406485D-01
    45  4.4000000000000D-01  1.5134082484285D+00  2.9590235330355D-01
    46  4.5000000000000D-01  1.4846755822365D+00  3.4565700570563D-01
    47  4.6000000000000D-01  1.4529315838335D+00  3.9718222129970D-01
    48  4.7000000000000D-01  1.4182729199867D+00  4.5033146819718D-01
    49  4.8000000000000D-01  1.3808072272741D+00  5.0494399755907D-01
    50  4.9000000000000D-01  1.3406528550243D+00  5.6084532953395D-01
    51  5.0000000000000D-01  1.2979385398917D+00  6.1784785970751D-01
    52  5.1000000000000D-01  1.2528030125301D+00  6.7575158449463D-01
    53  5.2000000000000D-01  1.2053945373957D+00  7.3434494279116D-01
    54  5.3000000000000D-01  1.1558703872714D+00  7.9340577009610D-01
    55  5.4000000000000D-01  1.1043962546672D+00  8.5270236022520D-01
    56  5.5000000000000D-01  1.0511456027971D+00  9.1199462867574D-01
    57  5.6000000000000D-01  9.9629895936798D-01  9.7103537068258D-01
    58  5.7000000000000D-01  9.4004315692604D-01  1.0295716060330D+00
    59  5.8000000000000D-01  8.8257052399189D-01  1.0873460017996D+00
    60  5.9000000000000D-01  8.2407803167101D-01  1.1440983633106D+00
    61  6.0000000000000D-01  7.6476640084303D-01  1.1995671829185D+00
    62  6.1000000000000D-01  7.0483917541292D-01  1.2534912354568D+00
    63  6.2000000000000D-01  6.4450176744018D-01  1.3056112087053D+00
    64  6.3000000000000D-01  5.8396048024935D-01  1.3556713567100D+00
    65  6.4000000000000D-01  5.2342151585925D-01  1.4034211634509D+00
    66  6.5000000000000D-01  4.6308997324990D-01  1.4486170041056D+00
    67  6.6000000000000D-01  4.0316884411060D-01  1.4910237910316D+00
    68  6.7000000000000D-01  3.4385801277936D-01  1.5304165915945D+00
    69  6.8000000000000D-01  2.8535326709131D-01  1.5665822050868D+00
    70  6.9000000000000D-01  2.2784532680107D-01  1.5993206862354D+00
    71  7.0000000000000D-01  1.7151889613090D-01  1.6284468031674D+00
    72  7.1000000000000D-01  1.1655174682523D-01  1.6537914181931D+00
    73  7.2000000000000D-01  6.3113837860082D-02  1.6752027803859D+00
    74  7.3000000000000D-01  1.1366477668926D-02  1.6925477196606D+00
    75  7.4000000000000D-01 -3.8538465596081D-02  1.7057127328861D+00
    76  7.5000000000000D-01 -8.6459300642867D-02  1.7146049535109D+00
    77  7.6000000000000D-01 -1.3226519177613D-01  1.7191529972010D+00
    78  7.7000000000000D-01 -1.7583677559691D-01  1.7193076771092D+00
    79  7.8000000000000D-01 -2.1706671199909D-01  1.7150425835818D+00
    80  7.9000000000000D-01 -2.5586016635918D-01  1.7063545243544D+00
    81  8.0000000000000D-01 -2.9213522041044D-01  1.6932638225956D+00
    82  8.1000000000000D-01 -3.2582320991133D-01  1.6758144714920D+00
    83  8.2000000000000D-01 -3.5686898785697D-01  1.6540741454361D+00
    84  8.3000000000000D-01 -3.8523111263431D-01  1.6281340692556D+00
    85  8.4000000000000D-01 -4.1088196118066D-01  1.5981087482985D+00
    86  8.5000000000000D-01 -4.3380776786596D-01  1.5641355635497D+00
    87  8.6000000000000D-01 -4.5400859047361D-01  1.5263742372882D+00
    88  8.7000000000000D-01 -4.7149820529899D-01  1.4850061760815D+00
    89  8.8000000000000D-01 -4.8630393419346D-01  1.4402337000309D+00
    90  8.9000000000000D-01 -4.9846640682067D-01  1.3922791669952D+00
    91  9.0000000000000D-01 -5.0803925138656D-01  1.3413839554100D+00
    92  9.1000000000000D-01 -5.1508877916838D-01  1.2878075992000D+00
    93  9.2000000000000D-01 -5.1969323058676D-01  1.2318250163278D+00
    94  9.3000000000000D-01 -5.2194141436408D-01  1.1737214259455D+00
    95  9.4000000000000D-01 -5.2193144648639D-01  1.1137885294020D+00
    96  9.5000000000000D-01 -5.1976987702475D-01  1.0523228792260D+00
    97  9.6000000000000D-01 -5.1557074939451D-01  9.8962400771054D-01
    98  9.7000000000000D-01 -5.0945464776132D-01  9.2599259444882D-01
    99  9.8000000000000D-01 -5.0154773070745D-01  8.6172863779182D-01
   100  9.9000000000000D-01 -4.9198075776664D-01  7.9712964413644D-01
   101  1.0000000000000D+00 -4.8088811562839D-01  7.3248884930566D-01
   102  1.0100000000000D+00 -4.6840685058192D-01  6.6809348523836D-01
   103  1.0200000000000D+00 -4.5467571363542D-01  6.0422310480540D-01
   104  1.0300000000000D+00 -4.3983422456003D-01  5.4114797705538D-01
   105  1.0400000000000D+00 -4.2402176087109D-01  4.7912756456557D-01
   106  1.0500000000000D+00 -4.0737667750097D-01  4.1840909390690D-01
   107  1.0600000000000D+00 -3.9003546257117D-01  3.5922622935762D-01
   108  1.0700000000000D+00 -3.7213193433206D-01  3.0179785915950D-01
   109  1.0800000000000D+00 -3.5379648393660D-01  2.4632700262508D-01
   110  1.0900000000000D+00 -3.3515536826541D-01  1.9299984531908D-01
   111  1.1000000000000D+00 -3.1633005662830D-01  1.4198490859453D-01
   112  1.1100000000000D+00 -2.9743663459547D-01  9.3432358405891D-02
   113  1.1200000000000D+00 -2.7858526778058D-01  4.7473457306303D-02
   114  1.1300000000000D+00 -2.5987972780876D-01  4.2201621613256D-03
   115  1.1400000000000D+00 -2.4141698228353D-01 -3.6235130863815D-02
   116  1.1500000000000D+00 -2.2328684990745D-01 -7.3819694003482D-02
   117  1.1600000000000D+00 -2.0557172144573D-01 -1.0848042929917D-01
   118  1.1700000000000D+00 -1.8834634660287D-01 -1.4018368613310D-01
   119  1.1800000000000D+00 -1.7167768653823D-01 -1.6891493808552D-01
   120  1.1900000000000D+00 -1.5562483098782D-01 -1.9467832399871D-01
   121  1.2000000000000D+00 -1.4023897859061D-01 -2.1749605893235D-01
   122  1.2100000000000D+00 -1.2556347853070D-01 -2.3740772175191D-01
   123  1.2200000000000D+00 -1.1163393116797D-01 -2.5446942704153D-01
   124  1.2300000000000D+00 -9.8478344786877D-02 -2.6875289016840D-01
   125  1.2400000000000D+00 -8.6117345265969D-02 -2.8034439497643D-01
   126  1.2500000000000D+00 -7.4564435232456D-02 -2.8934367409833D-01
   127  1.2600000000000D+00 -6.3826298670680D-02 -2.9586271303247D-01
   128  1.2700000000000D+00 -5.3903146836258D-02 -3.0002448928257D-01
   129  1.2800000000000D+00 -4.4789101167028D-02 -3.0196165821383D-01
   130  1.2900000000000D+00 -3.6472608426128D-02 -3.0181519800974D-01
   131  1.3000000000000D+00 -2.8936883366489D-02 -2.9973302586826D-01
   132  1.3100000000000D+00 -2.2160374054887D-02 -2.9586859794396D-01
   133  1.3200000000000D+00 -1.6117244821561D-02 -2.9037950547958D-01
   134  1.3300000000000D+00 -1.0777871965360D-02 -2.8342607915657D-01
   135  1.3400000000000D+00 -6.1093471572120D-03 -2.7517001408662D-01
   136  1.3500000000000D+00 -2.0759837607730D-03 -2.6577302668614D-01
   137  1.3600000000000D+00  1.3601786861241D-03 -2.5539555473850D-01
   138  1.3700000000000D+00  4.2388765851013D-03 -2.4419551170504D-01
   139  1.3800000000000D+00  6.6011350643166D-03 -2.3232710428456D-01
   140  1.3900000000000D+00  8.4887959821904D-03 -2.1993972363101D-01
   141  1.4000000000000D+00  9.9440648195774D-03 -2.0717691791783D-01
   142  1.4100000000000D+00  1.1009079912625D-02 -1.9417545343401D-01
   143  1.4200000000000D+00  1.1725507844902D-02 -1.8106447231433D-01
   144  1.4300000000000D+00  1.2134167077236D-02 -1.6796475014435D-01
   145  1.4400000000000D+00  1.2274683171708D-02 -1.5498806025561D-01
   146  1.4500000000000D+00  1.2185177236722D-02 -1.4223664668342D-01
   147  1.4600000000000D+00  1.1901989273717D-02 -1.2980280802119D-01
   148  1.4700000000000D+00  1.1459438455705D-02 -1.1776859522369D-01
   149  1.4800000000000D+00  1.0889619924789D-02 -1.0620561999691D-01
   150  1.4900000000000D+00  1.0222240245386D-02 -9.5174977092265D-02
   151  1.5000000000000D+00  9.4844899633953D-03 -8.4727274167617D-02
   152  1.5100000000000D+00  8.7009541145102D-03 -7.4902769153139D-02
   153  1.5200000000000D+00  7.8935593604786D-03 -6.5731609388438D-02
   154  1.5300000000000D+00  7.0815565697756D-03 -5.7234167292753D-02
   155  1.5400000000000D+00  6.2815380247405D-03 -4.9421468087066D-02
   156  1.5500000000000D+00  5.5074862490463D-03 -4.2295699834365D-02
   157  1.5600000000000D+00  4.7708538949089D-03 -3.5850801875314D-02
   158  1.5700000000000D+00  4.0806705297388D-03 -3.0073119235562D-02
   159  1.5800000000000D+00  3.4436753702162D-03 -2.4942118034182D-02
   160  1.5900000000000D+00  2.8644715925639D-03 -2.0431149131907D-02
   161  1.6000000000000D+00  2.3457003499982D-03 -1.6508252839741D-02
   162  1.6100000000000D+00  1.8882304190049D-03 -1.3136992754334D-02
   163  1.6200000000000D+00  1.4913608020165D-03 -1.0277309774914D-02
   164  1.6300000000000D+00  1.1530324624072D-03 -7.8863850417570D-03
   165  1.6400000000000D+00  8.7004616335142D-04 -5.9195023142265D-03
   166  1.6500000000000D+00  6.3828268899811D-04 -4.3308987974096D-03
   167  1.6600000000000D+00  4.5292251689326D-04 -3.0745956049099D-03
   168  1.6700000000000D+00  3.0866121364567D-04 -2.1051968714703D-03
   169  1.6800000000000D+00  1.9991808610872D-04 -1.3786503142764D-03
   170  1.6900000000000D+00  1.2103434955249D-04 -8.5295829937562D-04
   171  1.7000000000000D+00  6.6459019401348D-05 -4.8883432520863D-04
   172  1.7100000000000D+00  3.0907069389032D-05 -2.5025613777910D-04
   173  1.7200000000000D+00  9.5593839693938D-06 -1.0514091977007D-04
   174  1.7300000000000D+00 -1.7485499620125D-06 -2.5988473005064D-05
   175  1.7400000000000D+00 -6.8372413927799D-06  1.1180162025244D-05
   176  1.7500000000000D+00 -9.0655910295525D-06  2.6412372678024D-05
   177  1.7600000000000D+00 -9.6128844670029D-06  3.0160667689403D-05
   178  1.7700000000000D+00 -7.4427013597261D-06  2.3325832379328D-05
   179  1.7800000000000D+00 -2.9887149205712D-06  9.2627063519799D-06
   180  1.7900000000000D+00  4.2415214047026D-07 -1.3275693571757D-06
   181  1.8000000000000D+00  8.1717880208307D-07 -2.5478416250847D-06
   182  1.8100000000000D+00 -3.3835094399977D-08  1.0828118848573D-07
   183  1.8200000000000D+00 -2.0812826508044D-07  6.6694507627413D-07
   184  1.8300000000000D+00 -2.2462450449190D-08  7.2054061966086D-08
   185  1.8400000000000D+00  2.4338175575455D-08 -7.6454944176524D-08
   186  1.8500000000000D+00  9.0771506903150D-09 -2.8514588004280D-08
   187  1.8600000000000D+00  0.0000000000000D+00  0.0000000000000D+00
   188  1.8700000000000D+00  0.0000000000000D+00  0.0000000000000D+00
   189  1.8800000000000D+00  0.0000000000000D+00  0.0000000000000D+00
   190  1.8900000000000D+00  0.0000000000000D+00  0.0000000000000D+00
   191  1.9000000000000D+00  0.0000000000000D+00  0.0000000000000D+00
   192  1.9100000000000D+00  0.0000000000000D+00  0.0000000000000D+00
   193  1.9200000000000D+00  0.0000000000000D+00  0.0000000000000D+00
   194  1.9300000000000D+00  0.0000000000000D+00  0.0000000000000D+00
   195  1.9400000000000D+00  0.0000000000000D+00  0.0000000000000D+00
   196  1.9500000000000D+00  0.0000000000000D+00  0.0000000000000D+00
   197  1.9600000000000D+00  0.0000000000000D+00  0.0000000000000D+00
   198  1.9700000000000D+00  0.0000000000000D+00  0.0000000000000D+00
   199  1.9800000000000D+00  0.0000000000000D+00  0.0000000000000D+00
   200  1.9900000000000D+00  0.0000000000000D+00  0.0000000000000D+00
   201  2.0000000000000D+00  0.0000000000000D+00  0.0000000000000D+00
   202  2.0100000000000D+00  0.0000000000000D+00  0.0000000000000D+00
   203  2.0200000000000D+00  0.0000000000000D+00  0.0000000000000D+00
   204  2.0300000000000D+00  0.0000000000000D+00  0.0000000000000D+00
   205  2.0400000000000D+00  0.0000000000000D+00  0.0000000000000D+00
   206  2.0500000000000D+00  0.0000000000000D+00  0.0000000000000D+00
   207  2.0600000000000D+00  0.0000000000000D+00  0.0000000000000D+00
   208  2.0700000000000D+00  0.0000000000000D+00  0.0000000000000D+00
   209  2.0800000000000D+00  0.0000000000000D+00  0.0000000000000D+00
   210  2.0900000000000D+00  0.0000000000000D+00  0.0000000000000D+00
   211  2.1000000000000D+00  0.0000000000000D+00  0.0000000000000D+00
   212  2.1100000000000D+00  0.0000000000000D+00  0.0000000000000D+00
   213  2.1200000000000D+00  0.0000000000000D+00  0.0000000000000D+00
   214  2.1300000000000D+00  0.0000000000000D+00  0.0000000000000D+00
   215  2.1400000000000D+00  0.0000000000000D+00  0.0000000000000D+00
   216  2.1500000000000D+00  0.0000000000000D+00  0.0000000000000D+00
   217  2.1600000000000D+00  0.0000000000000D+00  0.0000000000000D+00
   218  2.1700000000000D+00  0.0000000000000D+00  0.0000000000000D+00
   219  2.1800000000000D+00  0.0000000000000D+00  0.0000000000000D+00
   220  2.1900000000000D+00  0.0000000000000D+00  0.0000000000000D+00
   221  2.2000000000000D+00  0.0000000000000D+00  0.0000000000000D+00
   222  2.2100000000000D+00  0.0000000000000D+00  0.0000000000000D+00
   223  2.2200000000000D+00  0.0000000000000D+00  0.0000000000000D+00
   224  2.2300000000000D+00  0.0000000000000D+00  0.0000000000000D+00
   225  2.2400000000000D+00  0.0000000000000D+00  0.0000000000000D+00
   226  2.2500000000000D+00  0.0000000000000D+00  0.0000000000000D+00
   227  2.2600000000000D+00  0.0000000000000D+00  0.0000000000000D+00
   228  2.2700000000000D+00  0.0000000000000D+00  0.0000000000000D+00
   229  2.2800000000000D+00  0.0000000000000D+00  0.0000000000000D+00
   230  2.2900000000000D+00  0.0000000000000D+00  0.0000000000000D+00
   231  2.3000000000000D+00  0.0000000000000D+00  0.0000000000000D+00
   232  2.3100000000000D+00  0.0000000000000D+00  0.0000000000000D+00
   233  2.3200000000000D+00  0.0000000000000D+00  0.0000000000000D+00
   234  2.3300000000000D+00  0.0000000000000D+00  0.0000000000000D+00
   235  2.3400000000000D+00  0.0000000000000D+00  0.0000000000000D+00
   236  2.3500000000000D+00  0.0000000000000D+00  0.0000000000000D+00
   237  2.3600000000000D+00  0.0000000000000D+00  0.0000000000000D+00
   238  2.3700000000000D+00  0.0000000000000D+00  0.0000000000000D+00
   239  2.3800000000000D+00  0.0000000000000D+00  0.0000000000000D+00
   240  2.3900000000000D+00  0.0000000000000D+00  0.0000000000000D+00
   241  2.4000000000000D+00  0.0000000000000D+00  0.0000000000000D+00
   242  2.4100000000000D+00  0.0000000000000D+00  0.0000000000000D+00
   243  2.4200000000000D+00  0.0000000000000D+00  0.0000000000000D+00
   244  2.4300000000000D+00  0.0000000000000D+00  0.0000000000000D+00
   245  2.4400000000000D+00  0.0000000000000D+00  0.0000000000000D+00
   246  2.4500000000000D+00  0.0000000000000D+00  0.0000000000000D+00
   247  2.4600000000000D+00  0.0000000000000D+00  0.0000000000000D+00
   248  2.4700000000000D+00  0.0000000000000D+00  0.0000000000000D+00
   249  2.4800000000000D+00  0.0000000000000D+00  0.0000000000000D+00
   250  2.4900000000000D+00  0.0000000000000D+00  0.0000000000000D+00
   251  2.5000000000000D+00  0.0000000000000D+00  0.0000000000000D+00
   252  2.5100000000000D+00  0.0000000000000D+00  0.0000000000000D+00
   253  2.5200000000000D+00  0.0000000000000D+00  0.0000000000000D+00
   254  2.5300000000000D+00  0.0000000000000D+00  0.0000000000000D+00
   255  2.5400000000000D+00  0.0000000000000D+00  0.0000000000000D+00
   256  2.5500000000000D+00  0.0000000000000D+00  0.0000000000000D+00
   257  2.5600000000000D+00  0.0000000000000D+00  0.0000000000000D+00
   258  2.5700000000000D+00  0.0000000000000D+00  0.0000000000000D+00
   259  2.5800000000000D+00  0.0000000000000D+00  0.0000000000000D+00
   260  2.5900000000000D+00  0.0000000000000D+00  0.0000000000000D+00
   261  2.6000000000000D+00  0.0000000000000D+00  0.0000000000000D+00
   262  2.6100000000000D+00  0.0000000000000D+00  0.0000000000000D+00
   263  2.6200000000000D+00  0.0000000000000D+00  0.0000000000000D+00
   264  2.6300000000000D+00  0.0000000000000D+00  0.0000000000000D+00
   265  2.6400000000000D+00  0.0000000000000D+00  0.0000000000000D+00
   266  2.6500000000000D+00  0.0000000000000D+00  0.0000000000000D+00
   267  2.6600000000000D+00  0.0000000000000D+00  0.0000000000000D+00
   268  2.6700000000000D+00  0.0000000000000D+00  0.0000000000000D+00
   269  2.6800000000000D+00  0.0000000000000D+00  0.0000000000000D+00
   270  2.6900000000000D+00  0.0000000000000D+00  0.0000000000000D+00
   271  2.7000000000000D+00  0.0000000000000D+00  0.0000000000000D+00
   272  2.7100000000000D+00  0.0000000000000D+00  0.0000000000000D+00
   273  2.7200000000000D+00  0.0000000000000D+00  0.0000000000000D+00
   274  2.7300000000000D+00  0.0000000000000D+00  0.0000000000000D+00
   275  2.7400000000000D+00  0.0000000000000D+00  0.0000000000000D+00
   276  2.7500000000000D+00  0.0000000000000D+00  0.0000000000000D+00
   277  2.7600000000000D+00  0.0000000000000D+00  0.0000000000000D+00
   278  2.7700000000000D+00  0.0000000000000D+00  0.0000000000000D+00
   279  2.7800000000000D+00  0.0000000000000D+00  0.0000000000000D+00
   280  2.7900000000000D+00  0.0000000000000D+00  0.0000000000000D+00
   281  2.8000000000000D+00  0.0000000000000D+00  0.0000000000000D+00
   282  2.8100000000000D+00  0.0000000000000D+00  0.0000000000000D+00
   283  2.8200000000000D+00  0.0000000000000D+00  0.0000000000000D+00
   284  2.8300000000000D+00  0.0000000000000D+00  0.0000000000000D+00
   285  2.8400000000000D+00  0.0000000000000D+00  0.0000000000000D+00
   286  2.8500000000000D+00  0.0000000000000D+00  0.0000000000000D+00
   287  2.8600000000000D+00  0.0000000000000D+00  0.0000000000000D+00
   288  2.8700000000000D+00  0.0000000000000D+00  0.0000000000000D+00
   289  2.8800000000000D+00  0.0000000000000D+00  0.0000000000000D+00
   290  2.8900000000000D+00  0.0000000000000D+00  0.0000000000000D+00
   291  2.9000000000000D+00  0.0000000000000D+00  0.0000000000000D+00
   292  2.9100000000000D+00  0.0000000000000D+00  0.0000000000000D+00
   293  2.9200000000000D+00  0.0000000000000D+00  0.0000000000000D+00
   294  2.9300000000000D+00  0.0000000000000D+00  0.0000000000000D+00
   295  2.9400000000000D+00  0.0000000000000D+00  0.0000000000000D+00
   296  2.9500000000000D+00  0.0000000000000D+00  0.0000000000000D+00
   297  2.9600000000000D+00  0.0000000000000D+00  0.0000000000000D+00
   298  2.9700000000000D+00  0.0000000000000D+00  0.0000000000000D+00
   299  2.9800000000000D+00  0.0000000000000D+00  0.0000000000000D+00
   300  2.9900000000000D+00  0.0000000000000D+00  0.0000000000000D+00
   301  3.0000000000000D+00  0.0000000000000D+00  0.0000000000000D+00
   302  3.0100000000000D+00  0.0000000000000D+00  0.0000000000000D+00
   303  3.0200000000000D+00  0.0000000000000D+00  0.0000000000000D+00
   304  3.0300000000000D+00  0.0000000000000D+00  0.0000000000000D+00
   305  3.0400000000000D+00  0.0000000000000D+00  0.0000000000000D+00
   306  3.0500000000000D+00  0.0000000000000D+00  0.0000000000000D+00
   307  3.0600000000000D+00  0.0000000000000D+00  0.0000000000000D+00
   308  3.0700000000000D+00  0.0000000000000D+00  0.0000000000000D+00
   309  3.0800000000000D+00  0.0000000000000D+00  0.0000000000000D+00
   310  3.0900000000000D+00  0.0000000000000D+00  0.0000000000000D+00
   311  3.1000000000000D+00  0.0000000000000D+00  0.0000000000000D+00
   312  3.1100000000000D+00  0.0000000000000D+00  0.0000000000000D+00
   313  3.1200000000000D+00  0.0000000000000D+00  0.0000000000000D+00
   314  3.1300000000000D+00  0.0000000000000D+00  0.0000000000000D+00
   315  3.1400000000000D+00  0.0000000000000D+00  0.0000000000000D+00
   316  3.1500000000000D+00  0.0000000000000D+00  0.0000000000000D+00
   317  3.1600000000000D+00  0.0000000000000D+00  0.0000000000000D+00
   318  3.1700000000000D+00  0.0000000000000D+00  0.0000000000000D+00
   319  3.1800000000000D+00  0.0000000000000D+00  0.0000000000000D+00
   320  3.1900000000000D+00  0.0000000000000D+00  0.0000000000000D+00
   321  3.2000000000000D+00  0.0000000000000D+00  0.0000000000000D+00
   322  3.2100000000000D+00  0.0000000000000D+00  0.0000000000000D+00
   323  3.2200000000000D+00  0.0000000000000D+00  0.0000000000000D+00
   324  3.2300000000000D+00  0.0000000000000D+00  0.0000000000000D+00
   325  3.2400000000000D+00  0.0000000000000D+00  0.0000000000000D+00
   326  3.2500000000000D+00  0.0000000000000D+00  0.0000000000000D+00
   327  3.2600000000000D+00  0.0000000000000D+00  0.0000000000000D+00
   328  3.2700000000000D+00  0.0000000000000D+00  0.0000000000000D+00
   329  3.2800000000000D+00  0.0000000000000D+00  0.0000000000000D+00
   330  3.2900000000000D+00  0.0000000000000D+00  0.0000000000000D+00
   331  3.3000000000000D+00  0.0000000000000D+00  0.0000000000000D+00
   332  3.3100000000000D+00  0.0000000000000D+00  0.0000000000000D+00
   333  3.3200000000000D+00  0.0000000000000D+00  0.0000000000000D+00
   334  3.3300000000000D+00  0.0000000000000D+00  0.0000000000000D+00
   335  3.3400000000000D+00  0.0000000000000D+00  0.0000000000000D+00
   336  3.3500000000000D+00  0.0000000000000D+00  0.0000000000000D+00
   337  3.3600000000000D+00  0.0000000000000D+00  0.0000000000000D+00
   338  3.3700000000000D+00  0.0000000000000D+00  0.0000000000000D+00
   339  3.3800000000000D+00  0.0000000000000D+00  0.0000000000000D+00
   340  3.3900000000000D+00  0.0000000000000D+00  0.0000000000000D+00
   341  3.4000000000000D+00  0.0000000000000D+00  0.0000000000000D+00
   342  3.4100000000000D+00  0.0000000000000D+00  0.0000000000000D+00
   343  3.4200000000000D+00  0.0000000000000D+00  0.0000000000000D+00
   344  3.4300000000000D+00  0.0000000000000D+00  0.0000000000000D+00
   345  3.4400000000000D+00  0.0000000000000D+00  0.0000000000000D+00
   346  3.4500000000000D+00  0.0000000000000D+00  0.0000000000000D+00
   347  3.4600000000000D+00  0.0000000000000D+00  0.0000000000000D+00
   348  3.4700000000000D+00  0.0000000000000D+00  0.0000000000000D+00
   349  3.4800000000000D+00  0.0000000000000D+00  0.0000000000000D+00
   350  3.4900000000000D+00  0.0000000000000D+00  0.0000000000000D+00
   351  3.5000000000000D+00  0.0000000000000D+00  0.0000000000000D+00
   352  3.5100000000000D+00  0.0000000000000D+00  0.0000000000000D+00
   353  3.5200000000000D+00  0.0000000000000D+00  0.0000000000000D+00
   354  3.5300000000000D+00  0.0000000000000D+00  0.0000000000000D+00
   355  3.5400000000000D+00  0.0000000000000D+00  0.0000000000000D+00
   356  3.5500000000000D+00  0.0000000000000D+00  0.0000000000000D+00
   357  3.5600000000000D+00  0.0000000000000D+00  0.0000000000000D+00
   358  3.5700000000000D+00  0.0000000000000D+00  0.0000000000000D+00
   359  3.5800000000000D+00  0.0000000000000D+00  0.0000000000000D+00
   360  3.5900000000000D+00  0.0000000000000D+00  0.0000000000000D+00
   361  3.6000000000000D+00  0.0000000000000D+00  0.0000000000000D+00
   362  3.6100000000000D+00  0.0000000000000D+00  0.0000000000000D+00
   363  3.6200000000000D+00  0.0000000000000D+00  0.0000000000000D+00
   364  3.6300000000000D+00  0.0000000000000D+00  0.0000000000000D+00
   365  3.6400000000000D+00  0.0000000000000D+00  0.0000000000000D+00
   366  3.6500000000000D+00  0.0000000000000D+00  0.0000000000000D+00
   367  3.6600000000000D+00  0.0000000000000D+00  0.0000000000000D+00
   368  3.6700000000000D+00  0.0000000000000D+00  0.0000000000000D+00
   369  3.6800000000000D+00  0.0000000000000D+00  0.0000000000000D+00
   370  3.6900000000000D+00  0.0000000000000D+00  0.0000000000000D+00
   371  3.7000000000000D+00  0.0000000000000D+00  0.0000000000000D+00
   372  3.7100000000000D+00  0.0000000000000D+00  0.0000000000000D+00
   373  3.7200000000000D+00  0.0000000000000D+00  0.0000000000000D+00
   374  3.7300000000000D+00  0.0000000000000D+00  0.0000000000000D+00
   375  3.7400000000000D+00  0.0000000000000D+00  0.0000000000000D+00
   376  3.7500000000000D+00  0.0000000000000D+00  0.0000000000000D+00
   377  3.7600000000000D+00  0.0000000000000D+00  0.0000000000000D+00
   378  3.7700000000000D+00  0.0000000000000D+00  0.0000000000000D+00
   379  3.7800000000000D+00  0.0000000000000D+00  0.0000000000000D+00
   380  3.7900000000000D+00  0.0000000000000D+00  0.0000000000000D+00
   381  3.8000000000000D+00  0.0000000000000D+00  0.0000000000000D+00
   382  3.8100000000000D+00  0.0000000000000D+00  0.0000000000000D+00
   383  3.8200000000000D+00  0.0000000000000D+00  0.0000000000000D+00
   384  3.8300000000000D+00  0.0000000000000D+00  0.0000000000000D+00
   385  3.8400000000000D+00  0.0000000000000D+00  0.0000000000000D+00
   386  3.8500000000000D+00  0.0000000000000D+00  0.0000000000000D+00
   387  3.8600000000000D+00  0.0000000000000D+00  0.0000000000000D+00
   388  3.8700000000000D+00  0.0000000000000D+00  0.0000000000000D+00
   389  3.8800000000000D+00  0.0000000000000D+00  0.0000000000000D+00
   390  3.8900000000000D+00  0.0000000000000D+00  0.0000000000000D+00
   391  3.9000000000000D+00  0.0000000000000D+00  0.0000000000000D+00
   392  3.9100000000000D+00  0.0000000000000D+00  0.0000000000000D+00
   393  3.9200000000000D+00  0.0000000000000D+00  0.0000000000000D+00
   394  3.9300000000000D+00  0.0000000000000D+00  0.0000000000000D+00
   395  3.9400000000000D+00  0.0000000000000D+00  0.0000000000000D+00
   396  3.9500000000000D+00  0.0000000000000D+00  0.0000000000000D+00
   397  3.9600000000000D+00  0.0000000000000D+00  0.0000000000000D+00
   398  3.9700000000000D+00  0.0000000000000D+00  0.0000000000000D+00
   399  3.9800000000000D+00  0.0000000000000D+00  0.0000000000000D+00
   400  3.9900000000000D+00  0.0000000000000D+00  0.0000000000000D+00
   401  4.0000000000000D+00  0.0000000000000D+00  0.0000000000000D+00
   402  4.0100000000000D+00  0.0000000000000D+00  0.0000000000000D+00
   403  4.0200000000000D+00  0.0000000000000D+00  0.0000000000000D+00
   404  4.0300000000000D+00  0.0000000000000D+00  0.0000000000000D+00
   405  4.0400000000000D+00  0.0000000000000D+00  0.0000000000000D+00
   406  4.0500000000000D+00  0.0000000000000D+00  0.0000000000000D+00
   407  4.0600000000000D+00  0.0000000000000D+00  0.0000000000000D+00
   408  4.0700000000000D+00  0.0000000000000D+00  0.0000000000000D+00
   409  4.0800000000000D+00  0.0000000000000D+00  0.0000000000000D+00
   410  4.0900000000000D+00  0.0000000000000D+00  0.0000000000000D+00
   411  4.1000000000000D+00  0.0000000000000D+00  0.0000000000000D+00
   412  4.1100000000000D+00  0.0000000000000D+00  0.0000000000000D+00
   413  4.1200000000000D+00  0.0000000000000D+00  0.0000000000000D+00
   414  4.1300000000000D+00  0.0000000000000D+00  0.0000000000000D+00
   415  4.1400000000000D+00  0.0000000000000D+00  0.0000000000000D+00
   416  4.1500000000000D+00  0.0000000000000D+00  0.0000000000000D+00
   417  4.1600000000000D+00  0.0000000000000D+00  0.0000000000000D+00
   418  4.1700000000000D+00  0.0000000000000D+00  0.0000000000000D+00
   419  4.1800000000000D+00  0.0000000000000D+00  0.0000000000000D+00
   420  4.1900000000000D+00  0.0000000000000D+00  0.0000000000000D+00
   421  4.2000000000000D+00  0.0000000000000D+00  0.0000000000000D+00
   422  4.2100000000000D+00  0.0000000000000D+00  0.0000000000000D+00