Mg    ONCVPSP-3.3.1  r_core=   1.24667   2.52001
     12.0000     10.0000      210904    zatom,zion,pspd
     8       2   1     4   600     0    pspcod,pspxc,lmax,lloc,mmax,r2well
  5.99000000  0.00000000  0.00000000    rchrg fchrg qchrg
     2     2     0     0     0    nproj
     1     1           extension_switch
   0                         7.9726361227208D+00  1.1878315436116D+00
     1  0.0000000000000D+00  5.3755957463153D-09 -1.0833816746492D-08
     2  1.0000000000000D-02  1.2471275027944D-01  1.1318846345337D-02
     3  2.0000000000000D-02  2.4893866529134D-01  2.2575432604347D-02
     4  3.0000000000000D-02  3.7219070849434D-01  3.3712801133110D-02
     5  4.0000000000000D-02  4.9398149947537D-01  4.4684460596698D-02
     6  5.0000000000000D-02  6.1382328729302D-01  5.5459275521253D-02
     7  6.0000000000000D-02  7.3122809423438D-01  6.6025951415234D-02
     8  7.0000000000000D-02  8.4570808033292D-01  7.6396993647513D-02
     9  8.0000000000000D-02  9.5677617362027D-01  8.6612029103842D-02
    10  9.0000000000000D-02  1.0639470045599D+00  9.6740392806169D-02
    11  1.0000000000000D-01  1.1667381755637D+00  1.0688289692949D-01
    12  1.1000000000000D-01  1.2646718880668D+00  1.1717271670508D-01
    13  1.2000000000000D-01  1.3572769404957D+00  1.2777534623980D-01
    14  1.3000000000000D-01  1.4440911007899D+00  1.3888759696306D-01
    15  1.4000000000000D-01  1.5246638471136D+00  1.5073563186468D-01
    16  1.5000000000000D-01  1.5985594602280D+00  1.6357204952263D-01
    17  1.6000000000000D-01  1.6653604408799D+00  1.7767205274192D-01
    18  1.7000000000000D-01  1.7246712157162D+00  1.9332875703367D-01
    19  1.8000000000000D-01  1.7761220858503D+00  2.1084771376113D-01
    20  1.9000000000000D-01  1.8193733634848D+00  2.3054074118042D-01
    21  2.0000000000000D-01  1.8541196341302D+00  2.5271917344122D-01
    22  2.1000000000000D-01  1.8800940751127D+00  2.7768665254243D-01
    23  2.2000000000000D-01  1.8970727554081D+00  3.0573160095017D-01
    24  2.3000000000000D-01  1.9048788375015D+00  3.3711952280422D-01
    25  2.4000000000000D-01  1.9033865990758D+00  3.7208528913407D-01
    26  2.5000000000000D-01  1.8925251909624D+00  4.1082556709271D-01
    27  2.6000000000000D-01  1.8722820480155D+00  4.5349155476316D-01
    28  2.7000000000000D-01  1.8427058714255D+00  5.0018218152242D-01
    29  2.8000000000000D-01  1.8039091044752D+00  5.5093792923917D-01
    30  2.9000000000000D-01  1.7560698288447D+00  6.0573542177428D-01
    31  3.0000000000000D-01  1.6994330152193D+00  6.6448291944349D-01
    32  3.1000000000000D-01  1.6343110700801D+00  7.2701684144306D-01
    33  3.2000000000000D-01  1.5610836300256D+00  7.9309942294462D-01
    34  3.3000000000000D-01  1.4801965656606D+00  8.6241759489457D-01
    35  3.4000000000000D-01  1.3921601688109D+00  9.3458315382251D-01
    36  3.5000000000000D-01  1.2975465094016D+00  1.0091342665249D+00
    37  3.6000000000000D-01  1.1969859615511D+00  1.0855383307391D+00
    38  3.7000000000000D-01  1.0911629120676D+00  1.1631961882858D+00
    39  3.8000000000000D-01  9.8081067833331D-01  1.2414476620825D+00
    40  3.9000000000000D-01  8.6670567630169D-01  1.3195783633755D+00
    41  4.0000000000000D-01  7.4966089273251D-01  1.3968276909895D+00
    42  4.1000000000000D-01  6.3051872863240D-01  1.4723979207979D+00
    43  4.2000000000000D-01  5.1014329288165D-01  1.5454642614558D+00
    44  4.3000000000000D-01  3.8941223599941D-01  1.6151857321341D+00
    45  4.4000000000000D-01  2.6920822369856D-01  1.6807166999584D+00
    46  4.5000000000000D-01  1.5041015811729D-01  1.7412188994750D+00
    47  4.6000000000000D-01  3.3884261207360D-02  1.7958737440446D+00
    48  4.7000000000000D-01 -7.9524860433455D-02  1.8438947299035D+00
    49  4.8000000000000D-01 -1.8900304709528D-01  1.8845397279267D+00
    50  4.9000000000000D-01 -2.9377519075008D-01  1.9171229560445D+00
    51  5.0000000000000D-01 -3.9311349111675D-01  1.9410264268903D+00
    52  5.1000000000000D-01 -4.8634524416669D-01  1.9557106705983D+00
    53  5.2000000000000D-01 -5.7286004941403D-01  1.9607245416825D+00
    54  5.3000000000000D-01 -6.5211632945878D-01  1.9557139314855D+00
    55  5.4000000000000D-01 -7.2364706420990D-01  1.9404292235622D+00
    56  5.5000000000000D-01 -7.8706465289215D-01  1.9147313483519D+00
    57  5.6000000000000D-01 -8.4206482913941D-01  1.8785963152034D+00
    58  5.7000000000000D-01 -8.8842956798937D-01  1.8321181238825D+00
    59  5.8000000000000D-01 -9.2602893824101D-01  1.7755099837474D+00
    60  5.9000000000000D-01 -9.5482186905068D-01  1.7091037961625D+00
    61  6.0000000000000D-01 -9.7485581571340D-01  1.6333478842020D+00
    62  6.1000000000000D-01 -9.8626532582570D-01  1.5488029824054D+00
    63  6.2000000000000D-01 -9.8926952333944D-01  1.4561365280451D+00
    64  6.3000000000000D-01 -9.8416854398047D-01  1.3561153233115D+00
    65  6.4000000000000D-01 -9.7133897082681D-01  1.2495966644545D+00
    66  6.5000000000000D-01 -9.5122833336499D-01  1.1375180589535D+00
    67  6.6000000000000D-01 -9.2434874660124D-01  1.0208856743847D+00
    68  6.7000000000000D-01 -8.9126977870763D-01  9.0076168262916D-01
    69  6.8000000000000D-01 -8.5261064597132D-01  7.7825067995737D-01
    70  6.9000000000000D-01 -8.0903184223548D-01  6.5448537688972D-01
    71  7.0000000000000D-01 -7.6122631648061D-01  5.3061176140672D-01
    72  7.1000000000000D-01 -7.0991031657771D-01  4.0777394485819D-01
    73  7.2000000000000D-01 -6.5581401941681D-01  2.8709890159620D-01
    74  7.3000000000000D-01 -5.9967206759397D-01  1.6968131097414D-01
    75  7.4000000000000D-01 -5.4221413059484D-01  5.6568703880639D-02
    76  7.5000000000000D-01 -4.8415560405544D-01 -5.1252894331548D-02
    77  7.6000000000000D-01 -4.2618855419863D-01 -1.5287264683534D-01
    78  7.7000000000000D-01 -3.6897300618636D-01 -2.4746775405555D-01
    79  7.8000000000000D-01 -3.1312866499319D-01 -3.3431532859905D-01
    80  7.9000000000000D-01 -2.5922714572736D-01 -4.1280318017811D-01
    81  8.0000000000000D-01 -2.0778477733744D-01 -4.8243941984557D-01
    82  8.1000000000000D-01 -1.5925602960891D-01 -5.4286082008212D-01
    83  8.2000000000000D-01 -1.1402759855887D-01 -5.9383989563575D-01
    84  8.3000000000000D-01 -7.2413170078908D-02 -6.3529069893612D-01
    85  8.4000000000000D-01 -3.4648864680854D-02 -6.6727335650940D-01
    86  8.5000000000000D-01 -8.8935333265325D-04 -6.8999739477633D-01
    87  8.6000000000000D-01  2.8795288513163D-02 -7.0382372074124D-01
    88  8.7000000000000D-01  5.4421606608406D-02 -7.0926435283478D-01
    89  8.8000000000000D-01  7.6076697874773D-02 -7.0694053355552D-01
    90  8.9000000000000D-01  9.3895501342326D-02 -6.9752836378863D-01
    91  9.0000000000000D-01  1.0805260072909D-01 -6.8174077300553D-01
    92  9.1000000000000D-01  1.1875783812510D-01 -6.6031909288492D-01
    93  9.2000000000000D-01  1.2625098330643D-01 -6.3402276675143D-01
    94  9.3000000000000D-01  1.3079626798221D-01 -6.0361910706816D-01
    95  9.4000000000000D-01  1.3267678081150D-01 -5.6987303316564D-01
    96  9.5000000000000D-01  1.3218881962219D-01 -5.3353696978139D-01
    97  9.6000000000000D-01  1.2963630594509D-01 -4.9534110551929D-01
    98  9.7000000000000D-01  1.2532535962299D-01 -4.5598419248027D-01
    99  9.8000000000000D-01  1.1955912563675D-01 -4.1612505548531D-01
   100  9.9000000000000D-01  1.1263293798419D-01 -3.7637496326032D-01
   101  1.0000000000000D+00  1.0482989695599D-01 -3.3729099571059D-01
   102  1.0100000000000D+00  9.6416925704076D-02 -2.9937051937173D-01
   103  1.0200000000000D+00  8.7641361243128D-02 -2.6304686072585D-01
   104  1.0300000000000D+00  7.8728122483578D-02 -2.2868624120111D-01
   105  1.0400000000000D+00  6.9877661294631D-02 -1.9658636666551D-01
   106  1.0500000000000D+00  6.1261352993852D-02 -1.6696990232244D-01
   107  1.0600000000000D+00  5.3040955301615D-02 -1.4002658397575D-01
   108  1.0700000000000D+00  4.5290011684884D-02 -1.1575719743711D-01
   109  1.0800000000000D+00  3.8049842638488D-02 -9.4090244328625D-02
   110  1.0900000000000D+00  3.1454264670243D-02 -7.5137060162751D-02
   111  1.1000000000000D+00  2.5561423418103D-02 -5.8851911211567D-02
   112  1.1100000000000D+00  2.0388795087195D-02 -4.5106834629456D-02
   113  1.1200000000000D+00  1.5931479587653D-02 -3.3731552281001D-02
   114  1.1300000000000D+00  1.2167436717555D-02 -2.4526262040057D-02
   115  1.1400000000000D+00  9.0582347312915D-03 -1.7265479758834D-02
   116  1.1500000000000D+00  6.5526950360083D-03 -1.1707535837795D-02
   117  1.1600000000000D+00  4.5899062653602D-03 -7.6026381134839D-03
   118  1.1700000000000D+00  3.1023280887468D-03 -4.7009429293155D-03
   119  1.1800000000000D+00  2.0188338547625D-03 -2.7603177106695D-03
   120  1.1900000000000D+00  1.2676137648141D-03 -1.5536266140335D-03
   121  1.2000000000000D+00  7.7886719681499D-04 -8.7538690852594D-04
   122  1.2100000000000D+00  4.8771028094844D-04 -5.4853433849969D-04
   123  1.2200000000000D+00  3.3150284829612D-04 -4.2124909655752D-04
   124  1.2300000000000D+00  2.6569798756319D-04 -3.9492025769666D-04
   125  1.2400000000000D+00  2.7147675271514D-04 -4.3638668543299D-04
   126  1.2500000000000D+00  1.9745168728697D-04 -3.2114000325682D-04
   127  1.2600000000000D+00  2.2688465421488D-05 -3.6913488504597D-05
   128  1.2700000000000D+00 -2.4110011666097D-05  3.9430450461490D-05
   129  1.2800000000000D+00  4.0879447990006D-06 -6.6886037627127D-06
   130  1.2900000000000D+00  2.1801401049582D-06 -3.5694779185784D-06
   131  1.3000000000000D+00 -6.9105259213958D-07  1.1219578522128D-06
   132  1.3100000000000D+00  0.0000000000000D+00  0.0000000000000D+00
   133  1.3200000000000D+00  0.0000000000000D+00  0.0000000000000D+00
   134  1.3300000000000D+00  0.0000000000000D+00  0.0000000000000D+00
   135  1.3400000000000D+00  0.0000000000000D+00  0.0000000000000D+00
   136  1.3500000000000D+00  0.0000000000000D+00  0.0000000000000D+00
   137  1.3600000000000D+00  0.0000000000000D+00  0.0000000000000D+00
   138  1.3700000000000D+00  0.0000000000000D+00  0.0000000000000D+00
   139  1.3800000000000D+00  0.0000000000000D+00  0.0000000000000D+00
   140  1.3900000000000D+00  0.0000000000000D+00  0.0000000000000D+00
   141  1.4000000000000D+00  0.0000000000000D+00  0.0000000000000D+00
   142  1.4100000000000D+00  0.0000000000000D+00  0.0000000000000D+00
   143  1.4200000000000D+00  0.0000000000000D+00  0.0000000000000D+00
   144  1.4300000000000D+00  0.0000000000000D+00  0.0000000000000D+00
   145  1.4400000000000D+00  0.0000000000000D+00  0.0000000000000D+00
   146  1.4500000000000D+00  0.0000000000000D+00  0.0000000000000D+00
   147  1.4600000000000D+00  0.0000000000000D+00  0.0000000000000D+00
   148  1.4700000000000D+00  0.0000000000000D+00  0.0000000000000D+00
   149  1.4800000000000D+00  0.0000000000000D+00  0.0000000000000D+00
   150  1.4900000000000D+00  0.0000000000000D+00  0.0000000000000D+00
   151  1.5000000000000D+00  0.0000000000000D+00  0.0000000000000D+00
   152  1.5100000000000D+00  0.0000000000000D+00  0.0000000000000D+00
   153  1.5200000000000D+00  0.0000000000000D+00  0.0000000000000D+00
   154  1.5300000000000D+00  0.0000000000000D+00  0.0000000000000D+00
   155  1.5400000000000D+00  0.0000000000000D+00  0.0000000000000D+00
   156  1.5500000000000D+00  0.0000000000000D+00  0.0000000000000D+00
   157  1.5600000000000D+00  0.0000000000000D+00  0.0000000000000D+00
   158  1.5700000000000D+00  0.0000000000000D+00  0.0000000000000D+00
   159  1.5800000000000D+00  0.0000000000000D+00  0.0000000000000D+00
   160  1.5900000000000D+00  0.0000000000000D+00  0.0000000000000D+00
   161  1.6000000000000D+00  0.0000000000000D+00  0.0000000000000D+00
   162  1.6100000000000D+00  0.0000000000000D+00  0.0000000000000D+00
   163  1.6200000000000D+00  0.0000000000000D+00  0.0000000000000D+00
   164  1.6300000000000D+00  0.0000000000000D+00  0.0000000000000D+00
   165  1.6400000000000D+00  0.0000000000000D+00  0.0000000000000D+00
   166  1.6500000000000D+00  0.0000000000000D+00  0.0000000000000D+00
   167  1.6600000000000D+00  0.0000000000000D+00  0.0000000000000D+00
   168  1.6700000000000D+00  0.0000000000000D+00  0.0000000000000D+00
   169  1.6800000000000D+00  0.0000000000000D+00  0.0000000000000D+00
   170  1.6900000000000D+00  0.0000000000000D+00  0.0000000000000D+00
   171  1.7000000000000D+00  0.0000000000000D+00  0.0000000000000D+00
   172  1.7100000000000D+00  0.0000000000000D+00  0.0000000000000D+00
   173  1.7200000000000D+00  0.0000000000000D+00  0.0000000000000D+00
   174  1.7300000000000D+00  0.0000000000000D+00  0.0000000000000D+00
   175  1.7400000000000D+00  0.0000000000000D+00  0.0000000000000D+00
   176  1.7500000000000D+00  0.0000000000000D+00  0.0000000000000D+00
   177  1.7600000000000D+00  0.0000000000000D+00  0.0000000000000D+00
   178  1.7700000000000D+00  0.0000000000000D+00  0.0000000000000D+00
   179  1.7800000000000D+00  0.0000000000000D+00  0.0000000000000D+00
   180  1.7900000000000D+00  0.0000000000000D+00  0.0000000000000D+00
   181  1.8000000000000D+00  0.0000000000000D+00  0.0000000000000D+00
   182  1.8100000000000D+00  0.0000000000000D+00  0.0000000000000D+00
   183  1.8200000000000D+00  0.0000000000000D+00  0.0000000000000D+00
   184  1.8300000000000D+00  0.0000000000000D+00  0.0000000000000D+00
   185  1.8400000000000D+00  0.0000000000000D+00  0.0000000000000D+00
   186  1.8500000000000D+00  0.0000000000000D+00  0.0000000000000D+00
   187  1.8600000000000D+00  0.0000000000000D+00  0.0000000000000D+00
   188  1.8700000000000D+00  0.0000000000000D+00  0.0000000000000D+00
   189  1.8800000000000D+00  0.0000000000000D+00  0.0000000000000D+00
   190  1.8900000000000D+00  0.0000000000000D+00  0.0000000000000D+00
   191  1.9000000000000D+00  0.0000000000000D+00  0.0000000000000D+00
   192  1.9100000000000D+00  0.0000000000000D+00  0.0000000000000D+00
   193  1.9200000000000D+00  0.0000000000000D+00  0.0000000000000D+00
   194  1.9300000000000D+00  0.0000000000000D+00  0.0000000000000D+00
   195  1.9400000000000D+00  0.0000000000000D+00  0.0000000000000D+00
   196  1.9500000000000D+00  0.0000000000000D+00  0.0000000000000D+00
   197  1.9600000000000D+00  0.0000000000000D+00  0.0000000000000D+00
   198  1.9700000000000D+00  0.0000000000000D+00  0.0000000000000D+00
   199  1.9800000000000D+00  0.0000000000000D+00  0.0000000000000D+00
   200  1.9900000000000D+00  0.0000000000000D+00  0.0000000000000D+00
   201  2.0000000000000D+00  0.0000000000000D+00  0.0000000000000D+00
   202  2.0100000000000D+00  0.0000000000000D+00  0.0000000000000D+00
   203  2.0200000000000D+00  0.0000000000000D+00  0.0000000000000D+00
   204  2.0300000000000D+00  0.0000000000000D+00  0.0000000000000D+00
   205  2.0400000000000D+00  0.0000000000000D+00  0.0000000000000D+00
   206  2.0500000000000D+00  0.0000000000000D+00  0.0000000000000D+00
   207  2.0600000000000D+00  0.0000000000000D+00  0.0000000000000D+00
   208  2.0700000000000D+00  0.0000000000000D+00  0.0000000000000D+00
   209  2.0800000000000D+00  0.0000000000000D+00  0.0000000000000D+00
   210  2.0900000000000D+00  0.0000000000000D+00  0.0000000000000D+00
   211  2.1000000000000D+00  0.0000000000000D+00  0.0000000000000D+00
   212  2.1100000000000D+00  0.0000000000000D+00  0.0000000000000D+00
   213  2.1200000000000D+00  0.0000000000000D+00  0.0000000000000D+00
   214  2.1300000000000D+00  0.0000000000000D+00  0.0000000000000D+00
   215  2.1400000000000D+00  0.0000000000000D+00  0.0000000000000D+00
   216  2.1500000000000D+00  0.0000000000000D+00  0.0000000000000D+00
   217  2.1600000000000D+00  0.0000000000000D+00  0.0000000000000D+00
   218  2.1700000000000D+00  0.0000000000000D+00  0.0000000000000D+00
   219  2.1800000000000D+00  0.0000000000000D+00  0.0000000000000D+00
   220  2.1900000000000D+00  0.0000000000000D+00  0.0000000000000D+00
   221  2.2000000000000D+00  0.0000000000000D+00  0.0000000000000D+00
   222  2.2100000000000D+00  0.0000000000000D+00  0.0000000000000D+00
   223  2.2200000000000D+00  0.0000000000000D+00  0.0000000000000D+00
   224  2.2300000000000D+00  0.0000000000000D+00  0.0000000000000D+00
   225  2.2400000000000D+00  0.0000000000000D+00  0.0000000000000D+00
   226  2.2500000000000D+00  0.0000000000000D+00  0.0000000000000D+00
   227  2.2600000000000D+00  0.0000000000000D+00  0.0000000000000D+00
   228  2.2700000000000D+00  0.0000000000000D+00  0.0000000000000D+00
   229  2.2800000000000D+00  0.0000000000000D+00  0.0000000000000D+00
   230  2.2900000000000D+00  0.0000000000000D+00  0.0000000000000D+00
   231  2.3000000000000D+00  0.0000000000000D+00  0.0000000000000D+00
   232  2.3100000000000D+00  0.0000000000000D+00  0.0000000000000D+00
   233  2.3200000000000D+00  0.0000000000000D+00  0.0000000000000D+00
   234  2.3300000000000D+00  0.0000000000000D+00  0.0000000000000D+00
   235  2.3400000000000D+00  0.0000000000000D+00  0.0000000000000D+00
   236  2.3500000000000D+00  0.0000000000000D+00  0.0000000000000D+00
   237  2.3600000000000D+00  0.0000000000000D+00  0.0000000000000D+00
   238  2.3700000000000D+00  0.0000000000000D+00  0.0000000000000D+00
   239  2.3800000000000D+00  0.0000000000000D+00  0.0000000000000D+00
   240  2.3900000000000D+00  0.0000000000000D+00  0.0000000000000D+00
   241  2.4000000000000D+00  0.0000000000000D+00  0.0000000000000D+00
   242  2.4100000000000D+00  0.0000000000000D+00  0.0000000000000D+00
   243  2.4200000000000D+00  0.0000000000000D+00  0.0000000000000D+00
   244  2.4300000000000D+00  0.0000000000000D+00  0.0000000000000D+00
   245  2.4400000000000D+00  0.0000000000000D+00  0.0000000000000D+00
   246  2.4500000000000D+00  0.0000000000000D+00  0.0000000000000D+00
   247  2.4600000000000D+00  0.0000000000000D+00  0.0000000000000D+00
   248  2.4700000000000D+00  0.0000000000000D+00  0.0000000000000D+00
   249  2.4800000000000D+00  0.0000000000000D+00  0.0000000000000D+00
   250  2.4900000000000D+00  0.0000000000000D+00  0.0000000000000D+00
   251  2.5000000000000D+00  0.0000000000000D+00  0.0000000000000D+00
   252  2.5100000000000D+00  0.0000000000000D+00  0.0000000000000D+00
   253  2.5200000000000D+00  0.0000000000000D+00  0.0000000000000D+00
   254  2.5300000000000D+00  0.0000000000000D+00  0.0000000000000D+00
   255  2.5400000000000D+00  0.0000000000000D+00  0.0000000000000D+00
   256  2.5500000000000D+00  0.0000000000000D+00  0.0000000000000D+00
   257  2.5600000000000D+00  0.0000000000000D+00  0.0000000000000D+00
   258  2.5700000000000D+00  0.0000000000000D+00  0.0000000000000D+00
   259  2.5800000000000D+00  0.0000000000000D+00  0.0000000000000D+00
   260  2.5900000000000D+00  0.0000000000000D+00  0.0000000000000D+00
   261  2.6000000000000D+00  0.0000000000000D+00  0.0000000000000D+00
   262  2.6100000000000D+00  0.0000000000000D+00  0.0000000000000D+00
   263  2.6200000000000D+00  0.0000000000000D+00  0.0000000000000D+00
   264  2.6300000000000D+00  0.0000000000000D+00  0.0000000000000D+00
   265  2.6400000000000D+00  0.0000000000000D+00  0.0000000000000D+00
   266  2.6500000000000D+00  0.0000000000000D+00  0.0000000000000D+00
   267  2.6600000000000D+00  0.0000000000000D+00  0.0000000000000D+00
   268  2.6700000000000D+00  0.0000000000000D+00  0.0000000000000D+00
   269  2.6800000000000D+00  0.0000000000000D+00  0.0000000000000D+00
   270  2.6900000000000D+00  0.0000000000000D+00  0.0000000000000D+00
   271  2.7000000000000D+00  0.0000000000000D+00  0.0000000000000D+00
   272  2.7100000000000D+00  0.0000000000000D+00  0.0000000000000D+00
   273  2.7200000000000D+00  0.0000000000000D+00  0.0000000000000D+00
   274  2.7300000000000D+00  0.0000000000000D+00  0.0000000000000D+00
   275  2.7400000000000D+00  0.0000000000000D+00  0.0000000000000D+00
   276  2.7500000000000D+00  0.0000000000000D+00  0.0000000000000D+00
   277  2.7600000000000D+00  0.0000000000000D+00  0.0000000000000D+00
   278  2.7700000000000D+00  0.0000000000000D+00  0.0000000000000D+00
   279  2.7800000000000D+00  0.0000000000000D+00  0.0000000000000D+00
   280  2.7900000000000D+00  0.0000000000000D+00  0.0000000000000D+00
   281  2.8000000000000D+00  0.0000000000000D+00  0.0000000000000D+00
   282  2.8100000000000D+00  0.0000000000000D+00  0.0000000000000D+00
   283  2.8200000000000D+00  0.0000000000000D+00  0.0000000000000D+00
   284  2.8300000000000D+00  0.0000000000000D+00  0.0000000000000D+00
   285  2.8400000000000D+00  0.0000000000000D+00  0.0000000000000D+00
   286  2.8500000000000D+00  0.0000000000000D+00  0.0000000000000D+00
   287  2.8600000000000D+00  0.0000000000000D+00  0.0000000000000D+00
   288  2.8700000000000D+00  0.0000000000000D+00  0.0000000000000D+00
   289  2.8800000000000D+00  0.0000000000000D+00  0.0000000000000D+00
   290  2.8900000000000D+00  0.0000000000000D+00  0.0000000000000D+00
   291  2.9000000000000D+00  0.0000000000000D+00  0.0000000000000D+00
   292  2.9100000000000D+00  0.0000000000000D+00  0.0000000000000D+00
   293  2.9200000000000D+00  0.0000000000000D+00  0.0000000000000D+00
   294  2.9300000000000D+00  0.0000000000000D+00  0.0000000000000D+00
   295  2.9400000000000D+00  0.0000000000000D+00  0.0000000000000D+00
   296  2.9500000000000D+00  0.0000000000000D+00  0.0000000000000D+00
   297  2.9600000000000D+00  0.0000000000000D+00  0.0000000000000D+00
   298  2.9700000000000D+00  0.0000000000000D+00  0.0000000000000D+00
   299  2.9800000000000D+00  0.0000000000000D+00  0.0000000000000D+00
   300  2.9900000000000D+00  0.0000000000000D+00  0.0000000000000D+00
   301  3.0000000000000D+00  0.0000000000000D+00  0.0000000000000D+00
   302  3.0100000000000D+00  0.0000000000000D+00  0.0000000000000D+00
   303  3.0200000000000D+00  0.0000000000000D+00  0.0000000000000D+00
   304  3.0300000000000D+00  0.0000000000000D+00  0.0000000000000D+00
   305  3.0400000000000D+00  0.0000000000000D+00  0.0000000000000D+00
   306  3.0500000000000D+00  0.0000000000000D+00  0.0000000000000D+00
   307  3.0600000000000D+00  0.0000000000000D+00  0.0000000000000D+00
   308  3.0700000000000D+00  0.0000000000000D+00  0.0000000000000D+00
   309  3.0800000000000D+00  0.0000000000000D+00  0.0000000000000D+00
   310  3.0900000000000D+00  0.0000000000000D+00  0.0000000000000D+00
   311  3.1000000000000D+00  0.0000000000000D+00  0.0000000000000D+00
   312  3.1100000000000D+00  0.0000000000000D+00  0.0000000000000D+00
   313  3.1200000000000D+00  0.0000000000000D+00  0.0000000000000D+00
   314  3.1300000000000D+00  0.0000000000000D+00  0.0000000000000D+00
   315  3.1400000000000D+00  0.0000000000000D+00  0.0000000000000D+00
   316  3.1500000000000D+00  0.0000000000000D+00  0.0000000000000D+00
   317  3.1600000000000D+00  0.0000000000000D+00  0.0000000000000D+00
   318  3.1700000000000D+00  0.0000000000000D+00  0.0000000000000D+00
   319  3.1800000000000D+00  0.0000000000000D+00  0.0000000000000D+00
   320  3.1900000000000D+00  0.0000000000000D+00  0.0000000000000D+00
   321  3.2000000000000D+00  0.0000000000000D+00  0.0000000000000D+00
   322  3.2100000000000D+00  0.0000000000000D+00  0.0000000000000D+00
   323  3.2200000000000D+00  0.0000000000000D+00  0.0000000000000D+00
   324  3.2300000000000D+00  0.0000000000000D+00  0.0000000000000D+00
   325  3.2400000000000D+00  0.0000000000000D+00  0.0000000000000D+00
   326  3.2500000000000D+00  0.0000000000000D+00  0.0000000000000D+00
   327  3.2600000000000D+00  0.0000000000000D+00  0.0000000000000D+00
   328  3.2700000000000D+00  0.0000000000000D+00  0.0000000000000D+00
   329  3.2800000000000D+00  0.0000000000000D+00  0.0000000000000D+00
   330  3.2900000000000D+00  0.0000000000000D+00  0.0000000000000D+00
   331  3.3000000000000D+00  0.0000000000000D+00  0.0000000000000D+00
   332  3.3100000000000D+00  0.0000000000000D+00  0.0000000000000D+00
   333  3.3200000000000D+00  0.0000000000000D+00  0.0000000000000D+00
   334  3.3300000000000D+00  0.0000000000000D+00  0.0000000000000D+00
   335  3.3400000000000D+00  0.0000000000000D+00  0.0000000000000D+00
   336  3.3500000000000D+00  0.0000000000000D+00  0.0000000000000D+00
   337  3.3600000000000D+00  0.0000000000000D+00  0.0000000000000D+00
   338  3.3700000000000D+00  0.0000000000000D+00  0.0000000000000D+00
   339  3.3800000000000D+00  0.0000000000000D+00  0.0000000000000D+00
   340  3.3900000000000D+00  0.0000000000000D+00  0.0000000000000D+00
   341  3.4000000000000D+00  0.0000000000000D+00  0.0000000000000D+00
   342  3.4100000000000D+00  0.0000000000000D+00  0.0000000000000D+00
   343  3.4200000000000D+00  0.0000000000000D+00  0.0000000000000D+00
   344  3.4300000000000D+00  0.0000000000000D+00  0.0000000000000D+00
   345  3.4400000000000D+00  0.0000000000000D+00  0.0000000000000D+00
   346  3.4500000000000D+00  0.0000000000000D+00  0.0000000000000D+00
   347  3.4600000000000D+00  0.0000000000000D+00  0.0000000000000D+00
   348  3.4700000000000D+00  0.0000000000000D+00  0.0000000000000D+00
   349  3.4800000000000D+00  0.0000000000000D+00  0.0000000000000D+00
   350  3.4900000000000D+00  0.0000000000000D+00  0.0000000000000D+00
   351  3.5000000000000D+00  0.0000000000000D+00  0.0000000000000D+00
   352  3.5100000000000D+00  0.0000000000000D+00  0.0000000000000D+00
   353  3.5200000000000D+00  0.0000000000000D+00  0.0000000000000D+00
   354  3.5300000000000D+00  0.0000000000000D+00  0.0000000000000D+00
   355  3.5400000000000D+00  0.0000000000000D+00  0.0000000000000D+00
   356  3.5500000000000D+00  0.0000000000000D+00  0.0000000000000D+00
   357  3.5600000000000D+00  0.0000000000000D+00  0.0000000000000D+00
   358  3.5700000000000D+00  0.0000000000000D+00  0.0000000000000D+00
   359  3.5800000000000D+00  0.0000000000000D+00  0.0000000000000D+00
   360  3.5900000000000D+00  0.0000000000000D+00  0.0000000000000D+00
   361  3.6000000000000D+00  0.0000000000000D+00  0.0000000000000D+00
   362  3.6100000000000D+00  0.0000000000000D+00  0.0000000000000D+00
   363  3.6200000000000D+00  0.0000000000000D+00  0.0000000000000D+00
   364  3.6300000000000D+00  0.0000000000000D+00  0.0000000000000D+00
   365  3.6400000000000D+00  0.0000000000000D+00  0.0000000000000D+00
   366  3.6500000000000D+00  0.0000000000000D+00  0.0000000000000D+00
   367  3.6600000000000D+00  0.0000000000000D+00  0.0000000000000D+00
   368  3.6700000000000D+00  0.0000000000000D+00  0.0000000000000D+00
   369  3.6800000000000D+00  0.0000000000000D+00  0.0000000000000D+00
   370  3.6900000000000D+00  0.0000000000000D+00  0.0000000000000D+00
   371  3.7000000000000D+00  0.0000000000000D+00  0.0000000000000D+00
   372  3.7100000000000D+00  0.0000000000000D+00  0.0000000000000D+00
   373  3.7200000000000D+00  0.0000000000000D+00  0.0000000000000D+00
   374  3.7300000000000D+00  0.0000000000000D+00  0.0000000000000D+00
   375  3.7400000000000D+00  0.0000000000000D+00  0.0000000000000D+00
   376  3.7500000000000D+00  0.0000000000000D+00  0.0000000000000D+00
   377  3.7600000000000D+00  0.0000000000000D+00  0.0000000000000D+00
   378  3.7700000000000D+00  0.0000000000000D+00  0.0000000000000D+00
   379  3.7800000000000D+00  0.0000000000000D+00  0.0000000000000D+00
   380  3.7900000000000D+00  0.0000000000000D+00  0.0000000000000D+00
   381  3.8000000000000D+00  0.0000000000000D+00  0.0000000000000D+00
   382  3.8100000000000D+00  0.0000000000000D+00  0.0000000000000D+00
   383  3.8200000000000D+00  0.0000000000000D+00  0.0000000000000D+00
   384  3.8300000000000D+00  0.0000000000000D+00  0.0000000000000D+00
   385  3.8400000000000D+00  0.0000000000000D+00  0.0000000000000D+00
   386  3.8500000000000D+00  0.0000000000000D+00  0.0000000000000D+00
   387  3.8600000000000D+00  0.0000000000000D+00  0.0000000000000D+00
   388  3.8700000000000D+00  0.0000000000000D+00  0.0000000000000D+00
   389  3.8800000000000D+00  0.0000000000000D+00  0.0000000000000D+00
   390  3.8900000000000D+00  0.0000000000000D+00  0.0000000000000D+00
   391  3.9000000000000D+00  0.0000000000000D+00  0.0000000000000D+00
   392  3.9100000000000D+00  0.0000000000000D+00  0.0000000000000D+00
   393  3.9200000000000D+00  0.0000000000000D+00  0.0000000000000D+00
   394  3.9300000000000D+00  0.0000000000000D+00  0.0000000000000D+00
   395  3.9400000000000D+00  0.0000000000000D+00  0.0000000000000D+00
   396  3.9500000000000D+00  0.0000000000000D+00  0.0000000000000D+00
   397  3.9600000000000D+00  0.0000000000000D+00  0.0000000000000D+00
   398  3.9700000000000D+00  0.0000000000000D+00  0.0000000000000D+00
   399  3.9800000000000D+00  0.0000000000000D+00  0.0000000000000D+00
   400  3.9900000000000D+00  0.0000000000000D+00  0.0000000000000D+00
   401  4.0000000000000D+00  0.0000000000000D+00  0.0000000000000D+00
   402  4.0100000000000D+00  0.0000000000000D+00  0.0000000000000D+00
   403  4.0200000000000D+00  0.0000000000000D+00  0.0000000000000D+00
   404  4.0300000000000D+00  0.0000000000000D+00  0.0000000000000D+00
   405  4.0400000000000D+00  0.0000000000000D+00  0.0000000000000D+00
   406  4.0500000000000D+00  0.0000000000000D+00  0.0000000000000D+00
   407  4.0600000000000D+00  0.0000000000000D+00  0.0000000000000D+00
   408  4.0700000000000D+00  0.0000000000000D+00  0.0000000000000D+00
   409  4.0800000000000D+00  0.0000000000000D+00  0.0000000000000D+00
   410  4.0900000000000D+00  0.0000000000000D+00  0.0000000000000D+00
   411  4.1000000000000D+00  0.0000000000000D+00  0.0000000000000D+00
   412  4.1100000000000D+00  0.0000000000000D+00  0.0000000000000D+00
   413  4.1200000000000D+00  0.0000000000000D+00  0.0000000000000D+00
   414  4.1300000000000D+00  0.0000000000000D+00  0.0000000000000D+00
   415  4.1400000000000D+00  0.0000000000000D+00  0.0000000000000D+00
   416  4.1500000000000D+00  0.0000000000000D+00  0.0000000000000D+00
   417  4.1600000000000D+00  0.0000000000000D+00  0.0000000000000D+00
   418  4.1700000000000D+00  0.0000000000000D+00  0.0000000000000D+00
   419  4.1800000000000D+00  0.0000000000000D+00  0.0000000000000D+00
   420  4.1900000000000D+00  0.0000000000000D+00  0.0000000000000D+00
   421  4.2000000000000D+00  0.0000000000000D+00  0.0000000000000D+00
   422  4.2100000000000D+00  0.0000000000000D+00  0.0000000000000D+00
   423  4.2200000000000D+00  0.0000000000000D+00  0.0000000000000D+00