Mg    ONCVPSP-3.3.1  r_core=   1.24667   2.52001
     12.0000     10.0000      210904    zatom,zion,pspd
     8       2   1     4   600     0    pspcod,pspxc,lmax,lloc,mmax,r2well
  5.99000000  0.00000000  0.00000000    rchrg fchrg qchrg
     2     2     0     0    nproj
     3     1           extension_switch
     3     0     0    nprojso
   0                         1.1877809220699D+00  7.9716827790052D+00
     1  0.0000000000000D+00 -1.0832579583342D-08  5.3740920602507D-09
     2  1.0000000000000D-02  1.1303587856310D-02  1.2471310900385D-01
     3  2.0000000000000D-02  2.2545012966380D-02  2.4893938512452D-01
     4  3.0000000000000D-02  3.3667414080396D-02  3.7219179476084D-01
     5  4.0000000000000D-02  4.4624394379049D-02  4.9398296153529D-01
     6  5.0000000000000D-02  5.5384910119790D-02  6.1382514014500D-01
     7  6.0000000000000D-02  6.5937754891684D-02  7.3123036057884D-01
     8  7.0000000000000D-02  7.6295517678862D-02  8.4571079303422D-01
     9  8.0000000000000D-02  8.6497903765159D-02  9.5677937849344D-01
    10  9.0000000000000D-02  9.6614320674855D-02  1.0639507633964D+00
    11  1.0000000000000D-01  1.0674564659326D-01  1.1667425693011D+00
    12  1.1000000000000D-01  1.1702511576358D-01  1.2646770199999D+00
    13  1.2000000000000D-01  1.2761827389619D-01  1.3572829394213D+00
    14  1.3000000000000D-01  1.3872197630642D-01  1.4440981239750D+00
    15  1.4000000000000D-01  1.5056242194706D-01  1.5246720829763D+00
    16  1.5000000000000D-01  1.6339223733622D-01  1.5985691306213D+00
    17  1.6000000000000D-01  1.7748664520095D-01  1.6653718028756D+00
    18  1.7000000000000D-01  1.9313877306376D-01  1.7246845627913D+00
    19  1.8000000000000D-01  2.1065417659515D-01  1.7761377483879D+00
    20  1.9000000000000D-01  2.3034467095444D-01  1.8193917085139D+00
    21  2.0000000000000D-01  2.5252158017687D-01  1.8541410642423D+00
    22  2.1000000000000D-01  2.7748852959469D-01  1.8801190265069D+00
    23  2.2000000000000D-01  3.0553391898880D-01  1.8971016950360D+00
    24  2.3000000000000D-01  3.3692322438776D-01  1.9049122592988D+00
    25  2.4000000000000D-01  3.7189128392293D-01  1.9034250192875D+00
    26  2.5000000000000D-01  4.1063472773626D-01  1.8925691425886D+00
    27  2.6000000000000D-01  4.5330471348315D-01  1.8723320744225D+00
    28  2.7000000000000D-01  5.0000012740197D-01  1.8427625191879D+00
    29  2.8000000000000D-01  5.5076140621411D-01  1.8039729155331D+00
    30  2.9000000000000D-01  6.0556512731092D-01  1.7561413320763D+00
    31  3.0000000000000D-01  6.6431950387475D-01  1.6995127175477D+00
    32  3.1000000000000D-01  7.2686090792384D-01  1.6343994472456D+00
    33  3.2000000000000D-01  7.9295152797605D-01  1.5611811171689D+00
    34  3.3000000000000D-01  8.6227824935867D-01  1.4803035478709D+00
    35  3.4000000000000D-01  9.3445282445912D-01  1.3922769718019D+00
    36  3.5000000000000D-01  1.0090133777774D+00  1.2976733904813D+00
    37  3.6000000000000D-01  1.0854272668891D+00  1.1971231010557D+00
    38  3.7000000000000D-01  1.1630952957954D+00  1.0913104054246D+00
    39  3.8000000000000D-01  1.2413572520575D+00  9.8096852891945D-01
    40  3.9000000000000D-01  1.3194987140675D+00  8.6687378924802D-01
    41  4.0000000000000D-01  1.3967590502525D+00  7.4983906982384D-01
    42  4.1000000000000D-01  1.4723405084203D+00  6.3070666443052D-01
    43  4.2000000000000D-01  1.5454182712948D+00  5.1034057218802D-01
    44  4.3000000000000D-01  1.6151513339834D+00  3.8961833275274D-01
    45  4.4000000000000D-01  1.6806940410910D+00  2.6942250138277D-01
    46  4.5000000000000D-01  1.7412081058101D+00  1.5063187173153D-01
    47  4.6000000000000D-01  1.7958749209001D+00  3.4112560826068D-02
    48  4.7000000000000D-01  1.8439079623052D+00 -7.9290924508416D-02
    49  4.8000000000000D-01  1.8845650804574D+00 -1.8876451761423D-01
    50  4.9000000000000D-01  1.9171604722304D+00 -2.9353319527710D-01
    51  5.0000000000000D-01  1.9410761281327D+00 -3.9286923234954D-01
    52  5.1000000000000D-01  1.9557725546714D+00 -4.8609998891627D-01
    53  5.2000000000000D-01  1.9607985808314D+00 -5.7261511636981D-01
    54  5.3000000000000D-01  1.9558000701683D+00 -6.5187307588729D-01
    55  5.4000000000000D-01  1.9405273758934D+00 -7.2340687175536D-01
    56  5.5000000000000D-01  1.9148413953096D+00 -7.8682891266539D-01
    57  5.6000000000000D-01  1.8787181016769D+00 -8.4183492629624D-01
    58  5.7000000000000D-01  1.8322514556385D+00 -8.8820686601196D-01
    59  5.8000000000000D-01  1.7756546244025D+00 -9.2581476314410D-01
    60  5.9000000000000D-01  1.7092594642504D+00 -9.5461749373963D-01
    61  6.0000000000000D-01  1.6335142504286D+00 -9.7466244472256D-01
    62  6.1000000000000D-01  1.5489796671824D+00 -9.8608408066339D-01
    63  6.2000000000000D-01  1.4563230993930D+00 -9.8910142865979D-01
    64  6.3000000000000D-01  1.3563112952196D+00 -9.8401451479321D-01
    65  6.4000000000000D-01  1.2498014957779D+00 -9.7119980094287D-01
    66  6.5000000000000D-01  1.1377311529246D+00 -9.5110468526019D-01
    67  6.6000000000000D-01  1.0211063788045D+00 -9.2424114286122D-01
    68  6.7000000000000D-01  9.0098929079654D-01 -8.9117859519585D-01
    69  6.8000000000000D-01  7.7848443238459D-01 -8.5253610683866D-01
    70  6.9000000000000D-01  6.5472446383867D-01 -8.0897401686447D-01
    71  7.0000000000000D-01  5.3085532627137D-01 -7.6118511843159D-01
    72  7.1000000000000D-01  4.0802108840475D-01 -7.0988550457655D-01
    73  7.2000000000000D-01  2.8734868706111D-01 -6.5580520039721D-01
    74  7.3000000000000D-01  1.6993277000779D-01 -5.9967870178041D-01
    75  7.4000000000000D-01  5.6820843313427D-02 -5.4223553858633D-01
    76  7.5000000000000D-01 -5.1001084935308D-02 -4.8419097584578D-01
    77  7.6000000000000D-01 -1.5262218687911D-01 -4.2623696004639D-01
    78  7.7000000000000D-01 -2.4721966292080D-01 -3.6903340922718D-01
    79  7.8000000000000D-01 -3.3407061602312D-01 -3.1319993546980D-01
    80  7.9000000000000D-01 -4.1256283606493D-01 -2.5930807669772D-01
    81  8.0000000000000D-01 -4.8220440357813D-01 -2.0787410171035D-01
    82  8.1000000000000D-01 -5.4263204940713D-01 -1.5935243834861D-01
    83  8.2000000000000D-01 -5.9361823519205D-01 -1.1412975989595D-01
    84  8.3000000000000D-01 -6.3507694849556D-01 -7.2519749564494D-02
    85  8.4000000000000D-01 -6.6706823899562D-01 -3.4758545924819D-02
    86  8.5000000000000D-01 -6.8980154412166D-01 -1.0008592730949D-03
    87  8.6000000000000D-01 -7.0363766967295D-01  2.8683173986960D-02
    88  8.7000000000000D-01 -7.0908852086139D-01  5.4310017011313D-02
    89  8.8000000000000D-01 -7.0677522251725D-01  7.5966669315397D-02
    90  8.9000000000000D-01 -6.9737376255146D-01  9.3787966522174D-02
    91  9.0000000000000D-01 -6.8159696416090D-01  1.0794838564397D-01
    92  9.1000000000000D-01 -6.6018605955568D-01  1.1865765983307D-01
    93  9.2000000000000D-01 -6.3390039977847D-01  1.2615544904208D-01
    94  9.3000000000000D-01 -6.0350721251493D-01  1.3070587558650D-01
    95  9.4000000000000D-01 -5.6977134011687D-01  1.3259192046541D-01
    96  9.5000000000000D-01 -5.3344513840426D-01  1.3210977685105D-01
    97  9.6000000000000D-01 -4.9525873534243D-01  1.2956326583516D-01
    98  9.7000000000000D-01 -4.5591083083593D-01  1.2525841216974D-01
    99  9.8000000000000D-01 -4.1606020605114D-01  1.1949827212352D-01
   100  9.9000000000000D-01 -3.7631809462924D-01  1.1257809827169D-01
   101  1.0000000000000D+00 -3.3724154990986D-01  1.0478091754667D-01
   102  1.0100000000000D+00 -2.9932792025257D-01  9.6373588434319D-02
   103  1.0200000000000D+00 -2.6301052212631D-01  8.7603392439028D-02
   104  1.0300000000000D+00 -2.2865557481191D-01  7.8695202422494D-02
   105  1.0400000000000D+00 -1.9656078942331D-01  6.9849433727773D-02
   106  1.0500000000000D+00 -1.6694884491467D-01  6.1237435953497D-02
   107  1.0600000000000D+00 -1.4000948712858D-01  5.3020942297496D-02
   108  1.0700000000000D+00 -1.1574355396088D-01  4.5273509414932D-02
   109  1.0800000000000D+00 -9.4079597833424D-02  3.8036477172826D-02
   110  1.0900000000000D+00 -7.5128928226296D-02  3.1443627918957D-02
   111  1.1000000000000D+00 -5.8845859848291D-02  2.5553124212328D-02
   112  1.1100000000000D+00 -4.5102478846421D-02  2.0382467368561D-02
   113  1.1200000000000D+00 -3.3728545049300D-02  1.5926781457909D-02
   114  1.1300000000000D+00 -2.4524300015117D-02  1.2164056669519D-02
   115  1.1400000000000D+00 -1.7264302524400D-02  9.0558944013675D-03
   116  1.1500000000000D+00 -1.1706925133944D-02  6.5511511526557D-03
   117  1.1600000000000D+00 -7.6024161803455D-03  4.5889514831050D-03
   118  1.1700000000000D+00 -4.7009700538882D-03  3.1017907420111D-03
   119  1.1800000000000D+00 -2.7604890310010D-03  2.0185766780576D-03
   120  1.1900000000000D+00 -1.5538682469998D-03  1.2675316473062D-03
   121  1.2000000000000D+00 -8.7565147804293D-04  7.7888405861298D-04
   122  1.2100000000000D+00 -5.4879644727095D-04  4.8777533547221D-04
   123  1.2200000000000D+00 -4.2149593550781D-04  3.3158464819425D-04
   124  1.2300000000000D+00 -3.9515514643856D-04  2.6578262630887D-04
   125  1.2400000000000D+00 -4.3663829226415D-04  2.7156780008147D-04
   126  1.2500000000000D+00 -3.2132304081236D-04  1.9751729865115D-04
   127  1.2600000000000D+00 -3.6934442665467D-05  2.2695937265664D-05
   128  1.2700000000000D+00  3.9452780850589D-05 -2.4117988843482D-05
   129  1.2800000000000D+00 -6.6924113536669D-06  4.0893117206463D-06
   130  1.2900000000000D+00 -3.5715092184703D-06  2.1808692840633D-06
   131  1.3000000000000D+00  1.1225990378023D-06 -6.9128298123369D-07
   132  1.3100000000000D+00  0.0000000000000D+00  0.0000000000000D+00
   133  1.3200000000000D+00  0.0000000000000D+00  0.0000000000000D+00
   134  1.3300000000000D+00  0.0000000000000D+00  0.0000000000000D+00
   135  1.3400000000000D+00  0.0000000000000D+00  0.0000000000000D+00
   136  1.3500000000000D+00  0.0000000000000D+00  0.0000000000000D+00
   137  1.3600000000000D+00  0.0000000000000D+00  0.0000000000000D+00
   138  1.3700000000000D+00  0.0000000000000D+00  0.0000000000000D+00
   139  1.3800000000000D+00  0.0000000000000D+00  0.0000000000000D+00
   140  1.3900000000000D+00  0.0000000000000D+00  0.0000000000000D+00
   141  1.4000000000000D+00  0.0000000000000D+00  0.0000000000000D+00
   142  1.4100000000000D+00  0.0000000000000D+00  0.0000000000000D+00
   143  1.4200000000000D+00  0.0000000000000D+00  0.0000000000000D+00
   144  1.4300000000000D+00  0.0000000000000D+00  0.0000000000000D+00
   145  1.4400000000000D+00  0.0000000000000D+00  0.0000000000000D+00
   146  1.4500000000000D+00  0.0000000000000D+00  0.0000000000000D+00
   147  1.4600000000000D+00  0.0000000000000D+00  0.0000000000000D+00
   148  1.4700000000000D+00  0.0000000000000D+00  0.0000000000000D+00
   149  1.4800000000000D+00  0.0000000000000D+00  0.0000000000000D+00
   150  1.4900000000000D+00  0.0000000000000D+00  0.0000000000000D+00
   151  1.5000000000000D+00  0.0000000000000D+00  0.0000000000000D+00
   152  1.5100000000000D+00  0.0000000000000D+00  0.0000000000000D+00
   153  1.5200000000000D+00  0.0000000000000D+00  0.0000000000000D+00
   154  1.5300000000000D+00  0.0000000000000D+00  0.0000000000000D+00
   155  1.5400000000000D+00  0.0000000000000D+00  0.0000000000000D+00
   156  1.5500000000000D+00  0.0000000000000D+00  0.0000000000000D+00
   157  1.5600000000000D+00  0.0000000000000D+00  0.0000000000000D+00
   158  1.5700000000000D+00  0.0000000000000D+00  0.0000000000000D+00
   159  1.5800000000000D+00  0.0000000000000D+00  0.0000000000000D+00
   160  1.5900000000000D+00  0.0000000000000D+00  0.0000000000000D+00
   161  1.6000000000000D+00  0.0000000000000D+00  0.0000000000000D+00
   162  1.6100000000000D+00  0.0000000000000D+00  0.0000000000000D+00
   163  1.6200000000000D+00  0.0000000000000D+00  0.0000000000000D+00
   164  1.6300000000000D+00  0.0000000000000D+00  0.0000000000000D+00
   165  1.6400000000000D+00  0.0000000000000D+00  0.0000000000000D+00
   166  1.6500000000000D+00  0.0000000000000D+00  0.0000000000000D+00
   167  1.6600000000000D+00  0.0000000000000D+00  0.0000000000000D+00
   168  1.6700000000000D+00  0.0000000000000D+00  0.0000000000000D+00
   169  1.6800000000000D+00  0.0000000000000D+00  0.0000000000000D+00
   170  1.6900000000000D+00  0.0000000000000D+00  0.0000000000000D+00
   171  1.7000000000000D+00  0.0000000000000D+00  0.0000000000000D+00
   172  1.7100000000000D+00  0.0000000000000D+00  0.0000000000000D+00
   173  1.7200000000000D+00  0.0000000000000D+00  0.0000000000000D+00
   174  1.7300000000000D+00  0.0000000000000D+00  0.0000000000000D+00
   175  1.7400000000000D+00  0.0000000000000D+00  0.0000000000000D+00
   176  1.7500000000000D+00  0.0000000000000D+00  0.0000000000000D+00
   177  1.7600000000000D+00  0.0000000000000D+00  0.0000000000000D+00
   178  1.7700000000000D+00  0.0000000000000D+00  0.0000000000000D+00
   179  1.7800000000000D+00  0.0000000000000D+00  0.0000000000000D+00
   180  1.7900000000000D+00  0.0000000000000D+00  0.0000000000000D+00
   181  1.8000000000000D+00  0.0000000000000D+00  0.0000000000000D+00
   182  1.8100000000000D+00  0.0000000000000D+00  0.0000000000000D+00
   183  1.8200000000000D+00  0.0000000000000D+00  0.0000000000000D+00
   184  1.8300000000000D+00  0.0000000000000D+00  0.0000000000000D+00
   185  1.8400000000000D+00  0.0000000000000D+00  0.0000000000000D+00
   186  1.8500000000000D+00  0.0000000000000D+00  0.0000000000000D+00
   187  1.8600000000000D+00  0.0000000000000D+00  0.0000000000000D+00
   188  1.8700000000000D+00  0.0000000000000D+00  0.0000000000000D+00
   189  1.8800000000000D+00  0.0000000000000D+00  0.0000000000000D+00
   190  1.8900000000000D+00  0.0000000000000D+00  0.0000000000000D+00
   191  1.9000000000000D+00  0.0000000000000D+00  0.0000000000000D+00
   192  1.9100000000000D+00  0.0000000000000D+00  0.0000000000000D+00
   193  1.9200000000000D+00  0.0000000000000D+00  0.0000000000000D+00
   194  1.9300000000000D+00  0.0000000000000D+00  0.0000000000000D+00
   195  1.9400000000000D+00  0.0000000000000D+00  0.0000000000000D+00
   196  1.9500000000000D+00  0.0000000000000D+00  0.0000000000000D+00
   197  1.9600000000000D+00  0.0000000000000D+00  0.0000000000000D+00
   198  1.9700000000000D+00  0.0000000000000D+00  0.0000000000000D+00
   199  1.9800000000000D+00  0.0000000000000D+00  0.0000000000000D+00
   200  1.9900000000000D+00  0.0000000000000D+00  0.0000000000000D+00
   201  2.0000000000000D+00  0.0000000000000D+00  0.0000000000000D+00
   202  2.0100000000000D+00  0.0000000000000D+00  0.0000000000000D+00
   203  2.0200000000000D+00  0.0000000000000D+00  0.0000000000000D+00
   204  2.0300000000000D+00  0.0000000000000D+00  0.0000000000000D+00
   205  2.0400000000000D+00  0.0000000000000D+00  0.0000000000000D+00
   206  2.0500000000000D+00  0.0000000000000D+00  0.0000000000000D+00
   207  2.0600000000000D+00  0.0000000000000D+00  0.0000000000000D+00
   208  2.0700000000000D+00  0.0000000000000D+00  0.0000000000000D+00
   209  2.0800000000000D+00  0.0000000000000D+00  0.0000000000000D+00
   210  2.0900000000000D+00  0.0000000000000D+00  0.0000000000000D+00
   211  2.1000000000000D+00  0.0000000000000D+00  0.0000000000000D+00
   212  2.1100000000000D+00  0.0000000000000D+00  0.0000000000000D+00
   213  2.1200000000000D+00  0.0000000000000D+00  0.0000000000000D+00
   214  2.1300000000000D+00  0.0000000000000D+00  0.0000000000000D+00
   215  2.1400000000000D+00  0.0000000000000D+00  0.0000000000000D+00
   216  2.1500000000000D+00  0.0000000000000D+00  0.0000000000000D+00
   217  2.1600000000000D+00  0.0000000000000D+00  0.0000000000000D+00
   218  2.1700000000000D+00  0.0000000000000D+00  0.0000000000000D+00
   219  2.1800000000000D+00  0.0000000000000D+00  0.0000000000000D+00
   220  2.1900000000000D+00  0.0000000000000D+00  0.0000000000000D+00
   221  2.2000000000000D+00  0.0000000000000D+00  0.0000000000000D+00
   222  2.2100000000000D+00  0.0000000000000D+00  0.0000000000000D+00
   223  2.2200000000000D+00  0.0000000000000D+00  0.0000000000000D+00
   224  2.2300000000000D+00  0.0000000000000D+00  0.0000000000000D+00
   225  2.2400000000000D+00  0.0000000000000D+00  0.0000000000000D+00
   226  2.2500000000000D+00  0.0000000000000D+00  0.0000000000000D+00
   227  2.2600000000000D+00  0.0000000000000D+00  0.0000000000000D+00
   228  2.2700000000000D+00  0.0000000000000D+00  0.0000000000000D+00
   229  2.2800000000000D+00  0.0000000000000D+00  0.0000000000000D+00
   230  2.2900000000000D+00  0.0000000000000D+00  0.0000000000000D+00
   231  2.3000000000000D+00  0.0000000000000D+00  0.0000000000000D+00
   232  2.3100000000000D+00  0.0000000000000D+00  0.0000000000000D+00
   233  2.3200000000000D+00  0.0000000000000D+00  0.0000000000000D+00
   234  2.3300000000000D+00  0.0000000000000D+00  0.0000000000000D+00
   235  2.3400000000000D+00  0.0000000000000D+00  0.0000000000000D+00
   236  2.3500000000000D+00  0.0000000000000D+00  0.0000000000000D+00
   237  2.3600000000000D+00  0.0000000000000D+00  0.0000000000000D+00
   238  2.3700000000000D+00  0.0000000000000D+00  0.0000000000000D+00
   239  2.3800000000000D+00  0.0000000000000D+00  0.0000000000000D+00
   240  2.3900000000000D+00  0.0000000000000D+00  0.0000000000000D+00
   241  2.4000000000000D+00  0.0000000000000D+00  0.0000000000000D+00
   242  2.4100000000000D+00  0.0000000000000D+00  0.0000000000000D+00
   243  2.4200000000000D+00  0.0000000000000D+00  0.0000000000000D+00
   244  2.4300000000000D+00  0.0000000000000D+00  0.0000000000000D+00
   245  2.4400000000000D+00  0.0000000000000D+00  0.0000000000000D+00
   246  2.4500000000000D+00  0.0000000000000D+00  0.0000000000000D+00
   247  2.4600000000000D+00  0.0000000000000D+00  0.0000000000000D+00
   248  2.4700000000000D+00  0.0000000000000D+00  0.0000000000000D+00
   249  2.4800000000000D+00  0.0000000000000D+00  0.0000000000000D+00
   250  2.4900000000000D+00  0.0000000000000D+00  0.0000000000000D+00
   251  2.5000000000000D+00  0.0000000000000D+00  0.0000000000000D+00
   252  2.5100000000000D+00  0.0000000000000D+00  0.0000000000000D+00
   253  2.5200000000000D+00  0.0000000000000D+00  0.0000000000000D+00
   254  2.5300000000000D+00  0.0000000000000D+00  0.0000000000000D+00
   255  2.5400000000000D+00  0.0000000000000D+00  0.0000000000000D+00
   256  2.5500000000000D+00  0.0000000000000D+00  0.0000000000000D+00
   257  2.5600000000000D+00  0.0000000000000D+00  0.0000000000000D+00
   258  2.5700000000000D+00  0.0000000000000D+00  0.0000000000000D+00
   259  2.5800000000000D+00  0.0000000000000D+00  0.0000000000000D+00
   260  2.5900000000000D+00  0.0000000000000D+00  0.0000000000000D+00
   261  2.6000000000000D+00  0.0000000000000D+00  0.0000000000000D+00
   262  2.6100000000000D+00  0.0000000000000D+00  0.0000000000000D+00
   263  2.6200000000000D+00  0.0000000000000D+00  0.0000000000000D+00
   264  2.6300000000000D+00  0.0000000000000D+00  0.0000000000000D+00
   265  2.6400000000000D+00  0.0000000000000D+00  0.0000000000000D+00
   266  2.6500000000000D+00  0.0000000000000D+00  0.0000000000000D+00
   267  2.6600000000000D+00  0.0000000000000D+00  0.0000000000000D+00
   268  2.6700000000000D+00  0.0000000000000D+00  0.0000000000000D+00
   269  2.6800000000000D+00  0.0000000000000D+00  0.0000000000000D+00
   270  2.6900000000000D+00  0.0000000000000D+00  0.0000000000000D+00
   271  2.7000000000000D+00  0.0000000000000D+00  0.0000000000000D+00
   272  2.7100000000000D+00  0.0000000000000D+00  0.0000000000000D+00
   273  2.7200000000000D+00  0.0000000000000D+00  0.0000000000000D+00
   274  2.7300000000000D+00  0.0000000000000D+00  0.0000000000000D+00
   275  2.7400000000000D+00  0.0000000000000D+00  0.0000000000000D+00
   276  2.7500000000000D+00  0.0000000000000D+00  0.0000000000000D+00
   277  2.7600000000000D+00  0.0000000000000D+00  0.0000000000000D+00
   278  2.7700000000000D+00  0.0000000000000D+00  0.0000000000000D+00
   279  2.7800000000000D+00  0.0000000000000D+00  0.0000000000000D+00
   280  2.7900000000000D+00  0.0000000000000D+00  0.0000000000000D+00
   281  2.8000000000000D+00  0.0000000000000D+00  0.0000000000000D+00
   282  2.8100000000000D+00  0.0000000000000D+00  0.0000000000000D+00
   283  2.8200000000000D+00  0.0000000000000D+00  0.0000000000000D+00
   284  2.8300000000000D+00  0.0000000000000D+00  0.0000000000000D+00
   285  2.8400000000000D+00  0.0000000000000D+00  0.0000000000000D+00
   286  2.8500000000000D+00  0.0000000000000D+00  0.0000000000000D+00
   287  2.8600000000000D+00  0.0000000000000D+00  0.0000000000000D+00
   288  2.8700000000000D+00  0.0000000000000D+00  0.0000000000000D+00
   289  2.8800000000000D+00  0.0000000000000D+00  0.0000000000000D+00
   290  2.8900000000000D+00  0.0000000000000D+00  0.0000000000000D+00
   291  2.9000000000000D+00  0.0000000000000D+00  0.0000000000000D+00
   292  2.9100000000000D+00  0.0000000000000D+00  0.0000000000000D+00
   293  2.9200000000000D+00  0.0000000000000D+00  0.0000000000000D+00
   294  2.9300000000000D+00  0.0000000000000D+00  0.0000000000000D+00
   295  2.9400000000000D+00  0.0000000000000D+00  0.0000000000000D+00
   296  2.9500000000000D+00  0.0000000000000D+00  0.0000000000000D+00
   297  2.9600000000000D+00  0.0000000000000D+00  0.0000000000000D+00
   298  2.9700000000000D+00  0.0000000000000D+00  0.0000000000000D+00
   299  2.9800000000000D+00  0.0000000000000D+00  0.0000000000000D+00
   300  2.9900000000000D+00  0.0000000000000D+00  0.0000000000000D+00
   301  3.0000000000000D+00  0.0000000000000D+00  0.0000000000000D+00
   302  3.0100000000000D+00  0.0000000000000D+00  0.0000000000000D+00
   303  3.0200000000000D+00  0.0000000000000D+00  0.0000000000000D+00
   304  3.0300000000000D+00  0.0000000000000D+00  0.0000000000000D+00
   305  3.0400000000000D+00  0.0000000000000D+00  0.0000000000000D+00
   306  3.0500000000000D+00  0.0000000000000D+00  0.0000000000000D+00
   307  3.0600000000000D+00  0.0000000000000D+00  0.0000000000000D+00
   308  3.0700000000000D+00  0.0000000000000D+00  0.0000000000000D+00
   309  3.0800000000000D+00  0.0000000000000D+00  0.0000000000000D+00
   310  3.0900000000000D+00  0.0000000000000D+00  0.0000000000000D+00
   311  3.1000000000000D+00  0.0000000000000D+00  0.0000000000000D+00
   312  3.1100000000000D+00  0.0000000000000D+00  0.0000000000000D+00
   313  3.1200000000000D+00  0.0000000000000D+00  0.0000000000000D+00
   314  3.1300000000000D+00  0.0000000000000D+00  0.0000000000000D+00
   315  3.1400000000000D+00  0.0000000000000D+00  0.0000000000000D+00
   316  3.1500000000000D+00  0.0000000000000D+00  0.0000000000000D+00
   317  3.1600000000000D+00  0.0000000000000D+00  0.0000000000000D+00
   318  3.1700000000000D+00  0.0000000000000D+00  0.0000000000000D+00
   319  3.1800000000000D+00  0.0000000000000D+00  0.0000000000000D+00
   320  3.1900000000000D+00  0.0000000000000D+00  0.0000000000000D+00
   321  3.2000000000000D+00  0.0000000000000D+00  0.0000000000000D+00
   322  3.2100000000000D+00  0.0000000000000D+00  0.0000000000000D+00
   323  3.2200000000000D+00  0.0000000000000D+00  0.0000000000000D+00
   324  3.2300000000000D+00  0.0000000000000D+00  0.0000000000000D+00
   325  3.2400000000000D+00  0.0000000000000D+00  0.0000000000000D+00
   326  3.2500000000000D+00  0.0000000000000D+00  0.0000000000000D+00
   327  3.2600000000000D+00  0.0000000000000D+00  0.0000000000000D+00
   328  3.2700000000000D+00  0.0000000000000D+00  0.0000000000000D+00
   329  3.2800000000000D+00  0.0000000000000D+00  0.0000000000000D+00
   330  3.2900000000000D+00  0.0000000000000D+00  0.0000000000000D+00
   331  3.3000000000000D+00  0.0000000000000D+00  0.0000000000000D+00
   332  3.3100000000000D+00  0.0000000000000D+00  0.0000000000000D+00
   333  3.3200000000000D+00  0.0000000000000D+00  0.0000000000000D+00
   334  3.3300000000000D+00  0.0000000000000D+00  0.0000000000000D+00
   335  3.3400000000000D+00  0.0000000000000D+00  0.0000000000000D+00
   336  3.3500000000000D+00  0.0000000000000D+00  0.0000000000000D+00
   337  3.3600000000000D+00  0.0000000000000D+00  0.0000000000000D+00
   338  3.3700000000000D+00  0.0000000000000D+00  0.0000000000000D+00
   339  3.3800000000000D+00  0.0000000000000D+00  0.0000000000000D+00
   340  3.3900000000000D+00  0.0000000000000D+00  0.0000000000000D+00
   341  3.4000000000000D+00  0.0000000000000D+00  0.0000000000000D+00
   342  3.4100000000000D+00  0.0000000000000D+00  0.0000000000000D+00
   343  3.4200000000000D+00  0.0000000000000D+00  0.0000000000000D+00
   344  3.4300000000000D+00  0.0000000000000D+00  0.0000000000000D+00
   345  3.4400000000000D+00  0.0000000000000D+00  0.0000000000000D+00
   346  3.4500000000000D+00  0.0000000000000D+00  0.0000000000000D+00
   347  3.4600000000000D+00  0.0000000000000D+00  0.0000000000000D+00
   348  3.4700000000000D+00  0.0000000000000D+00  0.0000000000000D+00
   349  3.4800000000000D+00  0.0000000000000D+00  0.0000000000000D+00
   350  3.4900000000000D+00  0.0000000000000D+00  0.0000000000000D+00
   351  3.5000000000000D+00  0.0000000000000D+00  0.0000000000000D+00
   352  3.5100000000000D+00  0.0000000000000D+00  0.0000000000000D+00
   353  3.5200000000000D+00  0.0000000000000D+00  0.0000000000000D+00
   354  3.5300000000000D+00  0.0000000000000D+00  0.0000000000000D+00
   355  3.5400000000000D+00  0.0000000000000D+00  0.0000000000000D+00
   356  3.5500000000000D+00  0.0000000000000D+00  0.0000000000000D+00
   357  3.5600000000000D+00  0.0000000000000D+00  0.0000000000000D+00
   358  3.5700000000000D+00  0.0000000000000D+00  0.0000000000000D+00
   359  3.5800000000000D+00  0.0000000000000D+00  0.0000000000000D+00
   360  3.5900000000000D+00  0.0000000000000D+00  0.0000000000000D+00
   361  3.6000000000000D+00  0.0000000000000D+00  0.0000000000000D+00
   362  3.6100000000000D+00  0.0000000000000D+00  0.0000000000000D+00
   363  3.6200000000000D+00  0.0000000000000D+00  0.0000000000000D+00
   364  3.6300000000000D+00  0.0000000000000D+00  0.0000000000000D+00
   365  3.6400000000000D+00  0.0000000000000D+00  0.0000000000000D+00
   366  3.6500000000000D+00  0.0000000000000D+00  0.0000000000000D+00
   367  3.6600000000000D+00  0.0000000000000D+00  0.0000000000000D+00
   368  3.6700000000000D+00  0.0000000000000D+00  0.0000000000000D+00
   369  3.6800000000000D+00  0.0000000000000D+00  0.0000000000000D+00
   370  3.6900000000000D+00  0.0000000000000D+00  0.0000000000000D+00
   371  3.7000000000000D+00  0.0000000000000D+00  0.0000000000000D+00
   372  3.7100000000000D+00  0.0000000000000D+00  0.0000000000000D+00
   373  3.7200000000000D+00  0.0000000000000D+00  0.0000000000000D+00
   374  3.7300000000000D+00  0.0000000000000D+00  0.0000000000000D+00
   375  3.7400000000000D+00  0.0000000000000D+00  0.0000000000000D+00
   376  3.7500000000000D+00  0.0000000000000D+00  0.0000000000000D+00
   377  3.7600000000000D+00  0.0000000000000D+00  0.0000000000000D+00
   378  3.7700000000000D+00  0.0000000000000D+00  0.0000000000000D+00
   379  3.7800000000000D+00  0.0000000000000D+00  0.0000000000000D+00
   380  3.7900000000000D+00  0.0000000000000D+00  0.0000000000000D+00
   381  3.8000000000000D+00  0.0000000000000D+00  0.0000000000000D+00
   382  3.8100000000000D+00  0.0000000000000D+00  0.0000000000000D+00
   383  3.8200000000000D+00  0.0000000000000D+00  0.0000000000000D+00
   384  3.8300000000000D+00  0.0000000000000D+00  0.0000000000000D+00
   385  3.8400000000000D+00  0.0000000000000D+00  0.0000000000000D+00
   386  3.8500000000000D+00  0.0000000000000D+00  0.0000000000000D+00
   387  3.8600000000000D+00  0.0000000000000D+00  0.0000000000000D+00
   388  3.8700000000000D+00  0.0000000000000D+00  0.0000000000000D+00
   389  3.8800000000000D+00  0.0000000000000D+00  0.0000000000000D+00
   390  3.8900000000000D+00  0.0000000000000D+00  0.0000000000000D+00
   391  3.9000000000000D+00  0.0000000000000D+00  0.0000000000000D+00
   392  3.9100000000000D+00  0.0000000000000D+00  0.0000000000000D+00
   393  3.9200000000000D+00  0.0000000000000D+00  0.0000000000000D+00
   394  3.9300000000000D+00  0.0000000000000D+00  0.0000000000000D+00
   395  3.9400000000000D+00  0.0000000000000D+00  0.0000000000000D+00
   396  3.9500000000000D+00  0.0000000000000D+00  0.0000000000000D+00
   397  3.9600000000000D+00  0.0000000000000D+00  0.0000000000000D+00
   398  3.9700000000000D+00  0.0000000000000D+00  0.0000000000000D+00
   399  3.9800000000000D+00  0.0000000000000D+00  0.0000000000000D+00
   400  3.9900000000000D+00  0.0000000000000D+00  0.0000000000000D+00
   401  4.0000000000000D+00  0.0000000000000D+00  0.0000000000000D+00
   402  4.0100000000000D+00  0.0000000000000D+00  0.0000000000000D+00
   403  4.0200000000000D+00  0.0000000000000D+00  0.0000000000000D+00
   404  4.0300000000000D+00  0.0000000000000D+00  0.0000000000000D+00
   405  4.0400000000000D+00  0.0000000000000D+00  0.0000000000000D+00
   406  4.0500000000000D+00  0.0000000000000D+00  0.0000000000000D+00
   407  4.0600000000000D+00  0.0000000000000D+00  0.0000000000000D+00
   408  4.0700000000000D+00  0.0000000000000D+00  0.0000000000000D+00
   409  4.0800000000000D+00  0.0000000000000D+00  0.0000000000000D+00
   410  4.0900000000000D+00  0.0000000000000D+00  0.0000000000000D+00
   411  4.1000000000000D+00  0.0000000000000D+00  0.0000000000000D+00
   412  4.1100000000000D+00  0.0000000000000D+00  0.0000000000000D+00
   413  4.1200000000000D+00  0.0000000000000D+00  0.0000000000000D+00
   414  4.1300000000000D+00  0.0000000000000D+00  0.0000000000000D+00
   415  4.1400000000000D+00  0.0000000000000D+00  0.0000000000000D+00
   416  4.1500000000000D+00  0.0000000000000D+00  0.0000000000000D+00
   417  4.1600000000000D+00  0.0000000000000D+00  0.0000000000000D+00
   418  4.1700000000000D+00  0.0000000000000D+00  0.0000000000000D+00
   419  4.1800000000000D+00  0.0000000000000D+00  0.0000000000000D+00
   420  4.1900000000000D+00  0.0000000000000D+00  0.0000000000000D+00
   421  4.2000000000000D+00  0.0000000000000D+00  0.0000000000000D+00
   422  4.2100000000000D+00  0.0000000000000D+00  0.0000000000000D+00