Mn    ONCVPSP-3.3.1  r_core=   2.47442   2.47442   2.11898
     25.0000     15.0000      210904    zatom,zion,pspd
     8       2   2     4   600     0    pspcod,pspxc,lmax,lloc,mmax,r2well
  5.99000000  0.00000000  0.00000000    rchrg fchrg qchrg
     2     2     2     0     0    nproj
     1     1           extension_switch
   0                        -2.0184179257933D+00 -2.8530841354039D-01
     1  0.0000000000000D+00 -1.1557421686348D-13  1.3222256622925D-11
     2  1.0000000000000D-02  3.3633399691427D-02 -5.4504210964253D-02
     3  2.0000000000000D-02  6.7239949638768D-02 -1.0887229266727D-01
     4  3.0000000000000D-02  1.0079282984164D-01 -1.6296847647789D-01
     5  4.0000000000000D-02  1.3426527975184D-01 -2.1665771397395D-01
     6  5.0000000000000D-02  1.6763062791138D-01 -2.6980603442229D-01
     7  6.0000000000000D-02  2.0086232148496D-01 -3.2228089911863D-01
     8  7.0000000000000D-02  2.3393395565178D-01 -3.7395155155646D-01
     9  8.0000000000000D-02  2.6681930282171D-01 -4.2468936240700D-01
    10  9.0000000000000D-02  2.9949234164109D-01 -4.7436816830915D-01
    11  1.0000000000000D-01  3.3192728575340D-01 -5.2286460348803D-01
    12  1.1000000000000D-01  3.6409861228028D-01 -5.7005842324342D-01
    13  1.2000000000000D-01  3.9598108998886D-01 -6.1583281837554D-01
    14  1.3000000000000D-01  4.2754980711116D-01 -6.6007471964438D-01
    15  1.4000000000000D-01  4.5878019878195D-01 -7.0267509139032D-01
    16  1.5000000000000D-01  4.8964807406165D-01 -7.4352921347857D-01
    17  1.6000000000000D-01  5.2012964251122D-01 -7.8253695076677D-01
    18  1.7000000000000D-01  5.5020154028618D-01 -8.1960300933461D-01
    19  1.8000000000000D-01  5.7984085571778D-01 -8.5463717875664D-01
    20  1.9000000000000D-01  6.0902515434907D-01 -8.8755455974307D-01
    21  2.0000000000000D-01  6.3773250339482D-01 -9.1827577651987D-01
    22  2.1000000000000D-01  6.6594149559427D-01 -9.4672717336774D-01
    23  2.2000000000000D-01  6.9363127242638D-01 -9.7284099478878D-01
    24  2.3000000000000D-01  7.2078154665785D-01 -9.9655554882207D-01
    25  2.4000000000000D-01  7.4737262419485D-01 -1.0178153530811D+00
    26  2.5000000000000D-01  7.7338542520991D-01 -1.0365712631409D+00
    27  2.6000000000000D-01  7.9880150451625D-01 -1.0527805829577D+00
    28  2.7000000000000D-01  8.2360307116254D-01 -1.0664071570590D+00
    29  2.8000000000000D-01  8.4777300722180D-01 -1.0774214443003D+00
    30  2.9000000000000D-01  8.7129488574900D-01 -1.0858005730395D+00
    31  3.0000000000000D-01  8.9415298788293D-01 -1.0915283776395D+00
    32  3.1000000000000D-01  9.1633231906851D-01 -1.0945954162658D+00
    33  3.2000000000000D-01  9.3781862437685D-01 -1.0949989700032D+00
    34  3.3000000000000D-01  9.5859840290150D-01 -1.0927430233734D+00
    35  3.4000000000000D-01  9.7865892120997D-01 -1.0878382263912D+00
    36  3.5000000000000D-01  9.9798822583103D-01 -1.0803018383527D+00
    37  3.6000000000000D-01  1.0165751547593D+00 -1.0701576536063D+00
    38  3.7000000000000D-01  1.0344093479597D+00 -1.0574359096063D+00
    39  3.8000000000000D-01  1.0514812568556D+00 -1.0421731776075D+00
    40  3.9000000000000D-01  1.0677821527860D+00 -1.0244122364071D+00
    41  4.0000000000000D-01  1.0833041344176D+00 -1.0042019295893D+00
    42  4.1000000000000D-01  1.0980401341002D+00 -9.8159700678037D-01
    43  4.2000000000000D-01  1.1119839231539D+00 -9.5665794946370D-01
    44  4.3000000000000D-01  1.1251301160787D+00 -9.2945078195062D-01
    45  4.4000000000000D-01  1.1374741736782D+00 -9.0004686814576D-01
    46  4.5000000000000D-01  1.1490124050918D+00 -8.6852269478402D-01
    47  4.6000000000000D-01  1.1597419687283D+00 -8.3495964185439D-01
    48  4.7000000000000D-01  1.1696608720995D+00 -7.9944374096071D-01
    49  4.8000000000000D-01  1.1787679705501D+00 -7.6206542240238D-01
    50  4.9000000000000D-01  1.1870629648842D+00 -7.2291925178657D-01
    51  5.0000000000000D-01  1.1945463978894D+00 -6.8210365701136D-01
    52  5.1000000000000D-01  1.2012196497614D+00 -6.3972064648278D-01
    53  5.2000000000000D-01  1.2070849324334D+00 -5.9587551944990D-01
    54  5.3000000000000D-01  1.2121452828164D+00 -5.5067656935980D-01
    55  5.4000000000000D-01  1.2164045549583D+00 -5.0423478115046D-01
    56  5.5000000000000D-01  1.2198674111317D+00 -4.5666352340999D-01
    57  5.6000000000000D-01  1.2225393118606D+00 -4.0807823634084D-01
    58  5.7000000000000D-01  1.2244265049002D+00 -3.5859611647308D-01
    59  5.8000000000000D-01  1.2255360131833D+00 -3.0833579907333D-01
    60  5.9000000000000D-01  1.2258756217505D+00 -2.5741703919558D-01
    61  6.0000000000000D-01  1.2254538636815D+00 -2.0596039231756D-01
    62  6.1000000000000D-01  1.2242800050484D+00 -1.5408689549867D-01
    63  6.2000000000000D-01  1.2223640289111D+00 -1.0191774998698D-01
    64  6.3000000000000D-01  1.2197166183783D+00 -4.9574006190208D-02
    65  6.4000000000000D-01  1.2163491387599D+00  2.8237480898729D-03
    66  6.5000000000000D-01  1.2122736188354D+00  5.5155695277465D-02
    67  6.6000000000000D-01  1.2075027312675D+00  1.0730309063678D-01
    68  6.7000000000000D-01  1.2020497721903D+00  1.5914855904209D-01
    69  6.8000000000000D-01  1.1959286400018D+00  2.1057638509209D-01
    70  6.9000000000000D-01  1.1891538133958D+00  2.6147279578533D-01
    71  7.0000000000000D-01  1.1817403286639D+00  3.1172623500350D-01
    72  7.1000000000000D-01  1.1737037563057D+00  3.6122762908297D-01
    73  7.2000000000000D-01  1.1650601769820D+00  4.0987064278890D-01
    74  7.3000000000000D-01  1.1558261568500D+00  4.5755192504384D-01
    75  7.4000000000000D-01  1.1460187223186D+00  5.0417134380074D-01
    76  7.5000000000000D-01  1.1356553342655D+00  5.4963220949078D-01
    77  7.6000000000000D-01  1.1247538617554D+00  5.9384148651793D-01
    78  7.7000000000000D-01  1.1133325553040D+00  6.3670999231556D-01
    79  7.8000000000000D-01  1.1014100197292D+00  6.7815258352360D-01
    80  7.9000000000000D-01  1.0890051866344D+00  7.1808832889152D-01
    81  8.0000000000000D-01  1.0761372865690D+00  7.5644066855713D-01
    82  8.1000000000000D-01  1.0628258209112D+00  7.9313755939841D-01
    83  8.2000000000000D-01  1.0490905335200D+00  8.2811160620291D-01
    84  8.3000000000000D-01  1.0349513822020D+00  8.6130017844728D-01
    85  8.4000000000000D-01  1.0204285100417D+00  8.9264551252594D-01
    86  8.5000000000000D-01  1.0055422166414D+00  9.2209479931761D-01
    87  8.6000000000000D-01  9.9031292931939D-01  9.4960025702443D-01
    88  8.7000000000000D-01  9.7476117431370D-01  9.7511918926707D-01
    89  8.8000000000000D-01  9.5890754803986D-01  9.9861402846517D-01
    90  8.9000000000000D-01  9.4277268845012D-01  1.0200523645793D+00
    91  9.0000000000000D-01  9.2637724654219D-01  1.0394069593360D+00
    92  9.1000000000000D-01  9.0974185806481D-01  1.0566557461023D+00
    93  9.2000000000000D-01  8.9288711546741D-01  1.0717818156185D+00
    94  9.3000000000000D-01  8.7583354014051D-01  1.0847733878426D+00
    95  9.4000000000000D-01  8.5860155499305D-01  1.0956237701979D+00
    96  9.5000000000000D-01  8.4121145741209D-01  1.1043313025565D+00
    97  9.6000000000000D-01  8.2368339264977D-01  1.1108992893294D+00
    98  9.7000000000000D-01  8.0603732768137D-01  1.1153359190687D+00
    99  9.8000000000000D-01  7.8829302557748D-01  1.1176541720232D+00
   100  9.9000000000000D-01  7.7047002043229D-01  1.1178717161196D+00
   101  1.0000000000000D+00  7.5258759288880D-01  1.1160107918737D+00
   102  1.0100000000000D+00  7.3466474630063D-01  1.1120980867608D+00
   103  1.0200000000000D+00  7.1672018356870D-01  1.1061645996064D+00
   104  1.0300000000000D+00  6.9877228468983D-01  1.0982454955740D+00
   105  1.0400000000000D+00  6.8083908505267D-01  1.0883799523566D+00
   106  1.0500000000000D+00  6.6293825451497D-01  1.0766109981905D+00
   107  1.0600000000000D+00  6.4508707729449D-01  1.0629853423316D+00
   108  1.0700000000000D+00  6.2730243270415D-01  1.0475531986451D+00
   109  1.0800000000000D+00  6.0960077676044D-01  1.0303681029737D+00
   110  1.0900000000000D+00  5.9199812469198D-01  1.0114867249565D+00
   111  1.1000000000000D+00  5.7451003437363D-01  9.9096867497869D-01
   112  1.1100000000000D+00  5.5715159070918D-01  9.6887630693574D-01
   113  1.1200000000000D+00  5.3993739098403D-01  9.4527451749744D-01
   114  1.1300000000000D+00  5.2288153120709D-01  9.2023054255613D-01
   115  1.1400000000000D+00  5.0599759345908D-01  8.9381375154045D-01
   116  1.1500000000000D+00  4.8929863426231D-01  8.6609544027011D-01
   117  1.1600000000000D+00  4.7279717398459D-01  8.3714862301726D-01
   118  1.1700000000000D+00  4.5650518728868D-01  8.0704782443362D-01
   119  1.1800000000000D+00  4.4043409463531D-01  7.7586887198581D-01
   120  1.1900000000000D+00  4.2459475484634D-01  7.4368868952754D-01
   121  1.2000000000000D+00  4.0899745873227D-01  7.1058509261956D-01
   122  1.2100000000000D+00  3.9365192378626D-01  6.7663658619412D-01
   123  1.2200000000000D+00  3.7856728994436D-01  6.4192216513214D-01
   124  1.2300000000000D+00  3.6375211640908D-01  6.0652111829783D-01
   125  1.2400000000000D+00  3.4921437953275D-01  5.7051283656542D-01
   126  1.2500000000000D+00  3.3496147175306D-01  5.3397662532789D-01
   127  1.2600000000000D+00  3.2100020157197D-01  4.9699152195306D-01
   128  1.2700000000000D+00  3.0733679456757D-01  4.5963611863965D-01
   129  1.2800000000000D+00  2.9397689542551D-01  4.2198839107688D-01
   130  1.2900000000000D+00  2.8092557097433D-01  3.8412553327586D-01
   131  1.3000000000000D+00  2.6818731420874D-01  3.4612379893650D-01
   132  1.3100000000000D+00  2.5576604928125D-01  3.0805834965232D-01
   133  1.3200000000000D+00  2.4366513744050D-01  2.7000311021453D-01
   134  1.3300000000000D+00  2.3188738389529D-01  2.3203063129011D-01
   135  1.3400000000000D+00  2.2043504557837D-01  1.9421195965371D-01
   136  1.3500000000000D+00  2.0930983978384D-01  1.5661651613706D-01
   137  1.3600000000000D+00  1.9851295365185D-01  1.1931198146824D-01
   138  1.3700000000000D+00  1.8804505446921D-01  8.2364190048888D-02
   139  1.3800000000000D+00  1.7790630075646D-01  4.5837031757991D-02
   140  1.3900000000000D+00  1.6809635410927D-01  9.7923618164724D-03
   141  1.4000000000000D+00  1.5861439175919D-01 -2.5710081347838D-02
   142  1.4100000000000D+00  1.4945911982128D-01 -6.0612750212870D-02
   143  1.4200000000000D+00  1.4062878719094D-01 -9.4860354394396D-02
   144  1.4300000000000D+00  1.3212120005374D-01 -1.2839991909248D-01
   145  1.4400000000000D+00  1.2393373697128D-01 -1.6118083587439D-01
   146  1.4500000000000D+00  1.1606336450272D-01 -1.9315490604790D-01
   147  1.4600000000000D+00  1.0850665332475D-01 -2.2427637674349D-01
   148  1.4700000000000D+00  1.0125979480829D-01 -2.5450197003950D-01
   149  1.4800000000000D+00  9.4318618012604D-02 -2.8379090534553D-01
   150  1.4900000000000D+00  8.7678607055398D-02 -3.1210491535804D-01
   151  1.5000000000000D+00  8.1334918817849D-02 -3.3940825594682D-01
   152  1.5100000000000D+00  7.5282400943160D-02 -3.6566771025388D-01
   153  1.5200000000000D+00  6.9515610087149D-02 -3.9085258747535D-01
   154  1.5300000000000D+00  6.4028830379097D-02 -4.1493471661650D-01
   155  1.5400000000000D+00  5.8816092051829D-02 -4.3788843573211D-01
   156  1.5500000000000D+00  5.3871190199323D-02 -4.5969057700969D-01
   157  1.5600000000000D+00  4.9187703621083D-02 -4.8032044819327D-01
   158  1.5700000000000D+00  4.4759013713049D-02 -4.9975981078412D-01
   159  1.5800000000000D+00  4.0578323363758D-02 -5.1799285549976D-01
   160  1.5900000000000D+00  3.6638675818577D-02 -5.3500617548000D-01
   161  1.6000000000000D+00  3.2932973469436D-02 -5.5078873771999D-01
   162  1.6100000000000D+00  2.9453996537357D-02 -5.6533185323810D-01
   163  1.6200000000000D+00  2.6194421603313D-02 -5.7862914647495D-01
   164  1.6300000000000D+00  2.3146839960397D-02 -5.9067652441611D-01
   165  1.6400000000000D+00  2.0303775740572D-02 -6.0147214596791D-01
   166  1.6500000000000D+00  1.7657703795360D-02 -6.1101639203236D-01
   167  1.6600000000000D+00  1.5201067281952D-02 -6.1931183685384D-01
   168  1.6700000000000D+00  1.2926294939915D-02 -6.2636322101785D-01
   169  1.6800000000000D+00  1.0825818009773D-02 -6.3217742671337D-01
   170  1.6900000000000D+00  8.8920867836377D-03 -6.3676345556377D-01
   171  1.7000000000000D+00  7.1175867394473D-03 -6.4013240967444D-01
   172  1.7100000000000D+00  5.4948542548124D-03 -6.4229747610783D-01
   173  1.7200000000000D+00  4.0164918514259D-03 -6.4327391547999D-01
   174  1.7300000000000D+00  2.6751829733977D-03 -6.4307905476652D-01
   175  1.7400000000000D+00  1.4637062485443D-03 -6.4173228507661D-01
   176  1.7500000000000D+00  3.7494924489709D-04 -6.3925506432733D-01
   177  1.7600000000000D+00 -5.9807833081315D-04 -6.3567092565092D-01
   178  1.7700000000000D+00 -1.4622319730350D-03 -6.3100549132037D-01
   179  1.7800000000000D+00 -2.2242203069914D-03 -6.2528649304112D-01
   180  1.7900000000000D+00 -2.8905935861103D-03 -6.1854379831846D-01
   181  1.8000000000000D+00 -3.4677328017533D-03 -6.1080944368023D-01
   182  1.8100000000000D+00 -3.9618393854837D-03 -6.0211767446224D-01
   183  1.8200000000000D+00 -4.3789255370634D-03 -5.9250499177871D-01
   184  1.8300000000000D+00 -4.7248051652437D-03 -5.8201020647699D-01
   185  1.8400000000000D+00 -5.0050854582626D-03 -5.7067450042911D-01
   186  1.8500000000000D+00 -5.2251590831637D-03 -5.5854149516792D-01
   187  1.8600000000000D+00 -5.3901970094826D-03 -5.4565732782358D-01
   188  1.8700000000000D+00 -5.5051419734056D-03 -5.3207073470039D-01
   189  1.8800000000000D+00 -5.5747025526089D-03 -5.1783314193737D-01
   190  1.8900000000000D+00 -5.6033475901444D-03 -5.0299878530605D-01
   191  1.9000000000000D+00 -5.5953028303442D-03 -4.8762472056082D-01
   192  1.9100000000000D+00 -5.5545431981312D-03 -4.7177120349243D-01
   193  1.9200000000000D+00 -5.4847967586825D-03 -4.5550126328366D-01
   194  1.9300000000000D+00 -5.3895386351375D-03 -4.3888107683503D-01
   195  1.9400000000000D+00 -5.2719758841118D-03 -4.2198102362401D-01
   196  1.9500000000000D+00 -5.1350501852476D-03 -4.0487549819093D-01
   197  1.9600000000000D+00 -4.9814803129555D-03 -3.8763992377237D-01
   198  1.9700000000000D+00 -4.8137891278181D-03 -3.7034896810969D-01
   199  1.9800000000000D+00 -4.6343237596607D-03 -3.5307501667962D-01
   200  1.9900000000000D+00 -4.4453029759974D-03 -3.3588481616331D-01
   201  2.0000000000000D+00 -4.2488130372426D-03 -3.1883983545384D-01
   202  2.0100000000000D+00 -4.0467986828264D-03 -3.0199698434796D-01
   203  2.0200000000000D+00 -3.8410597483366D-03 -2.8540897201552D-01
   204  2.0300000000000D+00 -3.6332617109234D-03 -2.6912377034148D-01
   205  2.0400000000000D+00 -3.4249331934643D-03 -2.5318501324646D-01
   206  2.0500000000000D+00 -3.2174700861930D-03 -2.3763197839426D-01
   207  2.0600000000000D+00 -3.0121381333951D-03 -2.2249971407363D-01
   208  2.0700000000000D+00 -2.8100762089707D-03 -2.0781915356293D-01
   209  2.0800000000000D+00 -2.6122999508398D-03 -1.9361723731560D-01
   210  2.0900000000000D+00 -2.4197057134684D-03 -1.7991704298841D-01
   211  2.1000000000000D+00 -2.2330748079592D-03 -1.6673792279370D-01
   212  2.1100000000000D+00 -2.0530780077718D-03 -1.5409564731344D-01
   213  2.1200000000000D+00 -1.8802802850338D-03 -1.4200255507600D-01
   214  2.1300000000000D+00 -1.7151457525879D-03 -1.3046770717669D-01
   215  2.1400000000000D+00 -1.5580427921806D-03 -1.1949704632509D-01
   216  2.1500000000000D+00 -1.4092493216281D-03 -1.0909355928979D-01
   217  2.1600000000000D+00 -1.2689582005246D-03 -9.9257442480650D-02
   218  2.1700000000000D+00 -1.1372827274681D-03 -8.9986269574088D-02
   219  2.1800000000000D+00 -1.0142622050726D-03 -8.1275160516529D-02
   220  2.1900000000000D+00 -8.9986757309804D-04 -7.3116951790519D-02
   221  2.2000000000000D+00 -7.9400703630293D-04 -6.5502366165404D-02
   222  2.2100000000000D+00 -6.9653171281096D-04 -5.8420182430008D-02
   223  2.2200000000000D+00 -6.0724125529911D-04 -5.1857403896094D-02
   224  2.2300000000000D+00 -5.2588940720019D-04 -4.5799424669399D-02
   225  2.2400000000000D+00 -4.5218952129690D-04 -4.0230194318105D-02
   226  2.2500000000000D+00 -3.8581995979975D-04 -3.5132378833834D-02
   227  2.2600000000000D+00 -3.2642938955770D-04 -3.0487518188581D-02
   228  2.2700000000000D+00 -2.7364197554679D-04 -2.6276180546724D-02
   229  2.2800000000000D+00 -2.2706237826894D-04 -2.2478110605206D-02
   230  2.2900000000000D+00 -1.8628062394838D-04 -1.9072373869552D-02
   231  2.3000000000000D+00 -1.5087678719223D-04 -1.6037495231097D-02
   232  2.3100000000000D+00 -1.2042544626615D-04 -1.3351590741193D-02
   233  2.3200000000000D+00 -9.4499973007653D-05 -1.0992494266287D-02
   234  2.3300000000000D+00 -7.2676562738271D-05 -8.9378764091972D-03
   235  2.3400000000000D+00 -5.4538020101421D-05 -7.1653561230380D-03
   236  2.3500000000000D+00 -3.9677346734966D-05 -5.6526062974001D-03
   237  2.3600000000000D+00 -2.7701004426298D-05 -4.3774497715868D-03
   238  2.3700000000000D+00 -1.8231936564775D-05 -3.3179480923035D-03
   239  2.3800000000000D+00 -1.0912350169589D-05 -2.4524830877393D-03
   240  2.3900000000000D+00 -5.4035350832443D-06 -1.7598222829580D-03
   241  2.4000000000000D+00 -1.3912516260624D-06 -1.2191896653643D-03
   242  2.4100000000000D+00  1.3963830407104D-06 -8.1035541465604D-04
   243  2.4200000000000D+00  3.1896605598635D-06 -5.1330941456134D-04
   244  2.4300000000000D+00  4.2406125181121D-06 -3.0903812380644D-04
   245  2.4400000000000D+00  4.8605738877942D-06 -1.8000197235954D-04
   246  2.4500000000000D+00  5.3364104910632D-06 -1.1012271730353D-04
   247  2.4600000000000D+00  5.6213608402820D-06 -7.9782265417607D-05
   248  2.4700000000000D+00  5.3682000388003D-06 -6.6933822219568D-05
   249  2.4800000000000D+00  4.1988426708918D-06 -5.1867612809592D-05
   250  2.4900000000000D+00  2.3696905734364D-06 -2.9840428778178D-05
   251  2.5000000000000D+00  5.9024910972018D-07 -7.6763311908190D-06
   252  2.5100000000000D+00 -3.8553240312582D-07  4.5259594138518D-06
   253  2.5200000000000D+00 -5.0128339505545D-07  5.9058872765810D-06
   254  2.5300000000000D+00 -1.7854795305801D-07  2.1144114425979D-06
   255  2.5400000000000D+00  7.8670242321036D-08 -8.4370489616086D-07
   256  2.5500000000000D+00  1.1809959798262D-07 -1.2570421159172D-06
   257  2.5600000000000D+00  4.9402804345849D-08 -5.2251825710323D-07
   258  2.5700000000000D+00 -8.3778034936770D-09  1.0399237049515D-07
   259  2.5800000000000D+00 -1.4207166160303D-08  1.7635134175007D-07
   260  2.5900000000000D+00 -6.9990813284770D-09  8.6878506900526D-08
   261  2.6000000000000D+00  0.0000000000000D+00  0.0000000000000D+00
   262  2.6100000000000D+00  0.0000000000000D+00  0.0000000000000D+00
   263  2.6200000000000D+00  0.0000000000000D+00  0.0000000000000D+00
   264  2.6300000000000D+00  0.0000000000000D+00  0.0000000000000D+00
   265  2.6400000000000D+00  0.0000000000000D+00  0.0000000000000D+00
   266  2.6500000000000D+00  0.0000000000000D+00  0.0000000000000D+00
   267  2.6600000000000D+00  0.0000000000000D+00  0.0000000000000D+00
   268  2.6700000000000D+00  0.0000000000000D+00  0.0000000000000D+00
   269  2.6800000000000D+00  0.0000000000000D+00  0.0000000000000D+00
   270  2.6900000000000D+00  0.0000000000000D+00  0.0000000000000D+00
   271  2.7000000000000D+00  0.0000000000000D+00  0.0000000000000D+00
   272  2.7100000000000D+00  0.0000000000000D+00  0.0000000000000D+00
   273  2.7200000000000D+00  0.0000000000000D+00  0.0000000000000D+00
   274  2.7300000000000D+00  0.0000000000000D+00  0.0000000000000D+00
   275  2.7400000000000D+00  0.0000000000000D+00  0.0000000000000D+00
   276  2.7500000000000D+00  0.0000000000000D+00  0.0000000000000D+00
   277  2.7600000000000D+00  0.0000000000000D+00  0.0000000000000D+00
   278  2.7700000000000D+00  0.0000000000000D+00  0.0000000000000D+00
   279  2.7800000000000D+00  0.0000000000000D+00  0.0000000000000D+00
   280  2.7900000000000D+00  0.0000000000000D+00  0.0000000000000D+00
   281  2.8000000000000D+00  0.0000000000000D+00  0.0000000000000D+00
   282  2.8100000000000D+00  0.0000000000000D+00  0.0000000000000D+00
   283  2.8200000000000D+00  0.0000000000000D+00  0.0000000000000D+00
   284  2.8300000000000D+00  0.0000000000000D+00  0.0000000000000D+00
   285  2.8400000000000D+00  0.0000000000000D+00  0.0000000000000D+00
   286  2.8500000000000D+00  0.0000000000000D+00  0.0000000000000D+00
   287  2.8600000000000D+00  0.0000000000000D+00  0.0000000000000D+00
   288  2.8700000000000D+00  0.0000000000000D+00  0.0000000000000D+00
   289  2.8800000000000D+00  0.0000000000000D+00  0.0000000000000D+00
   290  2.8900000000000D+00  0.0000000000000D+00  0.0000000000000D+00
   291  2.9000000000000D+00  0.0000000000000D+00  0.0000000000000D+00
   292  2.9100000000000D+00  0.0000000000000D+00  0.0000000000000D+00
   293  2.9200000000000D+00  0.0000000000000D+00  0.0000000000000D+00
   294  2.9300000000000D+00  0.0000000000000D+00  0.0000000000000D+00
   295  2.9400000000000D+00  0.0000000000000D+00  0.0000000000000D+00
   296  2.9500000000000D+00  0.0000000000000D+00  0.0000000000000D+00
   297  2.9600000000000D+00  0.0000000000000D+00  0.0000000000000D+00
   298  2.9700000000000D+00  0.0000000000000D+00  0.0000000000000D+00
   299  2.9800000000000D+00  0.0000000000000D+00  0.0000000000000D+00
   300  2.9900000000000D+00  0.0000000000000D+00  0.0000000000000D+00
   301  3.0000000000000D+00  0.0000000000000D+00  0.0000000000000D+00
   302  3.0100000000000D+00  0.0000000000000D+00  0.0000000000000D+00
   303  3.0200000000000D+00  0.0000000000000D+00  0.0000000000000D+00
   304  3.0300000000000D+00  0.0000000000000D+00  0.0000000000000D+00
   305  3.0400000000000D+00  0.0000000000000D+00  0.0000000000000D+00
   306  3.0500000000000D+00  0.0000000000000D+00  0.0000000000000D+00
   307  3.0600000000000D+00  0.0000000000000D+00  0.0000000000000D+00
   308  3.0700000000000D+00  0.0000000000000D+00  0.0000000000000D+00
   309  3.0800000000000D+00  0.0000000000000D+00  0.0000000000000D+00
   310  3.0900000000000D+00  0.0000000000000D+00  0.0000000000000D+00
   311  3.1000000000000D+00  0.0000000000000D+00  0.0000000000000D+00
   312  3.1100000000000D+00  0.0000000000000D+00  0.0000000000000D+00
   313  3.1200000000000D+00  0.0000000000000D+00  0.0000000000000D+00
   314  3.1300000000000D+00  0.0000000000000D+00  0.0000000000000D+00
   315  3.1400000000000D+00  0.0000000000000D+00  0.0000000000000D+00
   316  3.1500000000000D+00  0.0000000000000D+00  0.0000000000000D+00
   317  3.1600000000000D+00  0.0000000000000D+00  0.0000000000000D+00
   318  3.1700000000000D+00  0.0000000000000D+00  0.0000000000000D+00
   319  3.1800000000000D+00  0.0000000000000D+00  0.0000000000000D+00
   320  3.1900000000000D+00  0.0000000000000D+00  0.0000000000000D+00
   321  3.2000000000000D+00  0.0000000000000D+00  0.0000000000000D+00
   322  3.2100000000000D+00  0.0000000000000D+00  0.0000000000000D+00
   323  3.2200000000000D+00  0.0000000000000D+00  0.0000000000000D+00
   324  3.2300000000000D+00  0.0000000000000D+00  0.0000000000000D+00
   325  3.2400000000000D+00  0.0000000000000D+00  0.0000000000000D+00
   326  3.2500000000000D+00  0.0000000000000D+00  0.0000000000000D+00
   327  3.2600000000000D+00  0.0000000000000D+00  0.0000000000000D+00
   328  3.2700000000000D+00  0.0000000000000D+00  0.0000000000000D+00
   329  3.2800000000000D+00  0.0000000000000D+00  0.0000000000000D+00
   330  3.2900000000000D+00  0.0000000000000D+00  0.0000000000000D+00
   331  3.3000000000000D+00  0.0000000000000D+00  0.0000000000000D+00
   332  3.3100000000000D+00  0.0000000000000D+00  0.0000000000000D+00
   333  3.3200000000000D+00  0.0000000000000D+00  0.0000000000000D+00
   334  3.3300000000000D+00  0.0000000000000D+00  0.0000000000000D+00
   335  3.3400000000000D+00  0.0000000000000D+00  0.0000000000000D+00
   336  3.3500000000000D+00  0.0000000000000D+00  0.0000000000000D+00
   337  3.3600000000000D+00  0.0000000000000D+00  0.0000000000000D+00
   338  3.3700000000000D+00  0.0000000000000D+00  0.0000000000000D+00
   339  3.3800000000000D+00  0.0000000000000D+00  0.0000000000000D+00
   340  3.3900000000000D+00  0.0000000000000D+00  0.0000000000000D+00
   341  3.4000000000000D+00  0.0000000000000D+00  0.0000000000000D+00
   342  3.4100000000000D+00  0.0000000000000D+00  0.0000000000000D+00
   343  3.4200000000000D+00  0.0000000000000D+00  0.0000000000000D+00
   344  3.4300000000000D+00  0.0000000000000D+00  0.0000000000000D+00
   345  3.4400000000000D+00  0.0000000000000D+00  0.0000000000000D+00
   346  3.4500000000000D+00  0.0000000000000D+00  0.0000000000000D+00
   347  3.4600000000000D+00  0.0000000000000D+00  0.0000000000000D+00
   348  3.4700000000000D+00  0.0000000000000D+00  0.0000000000000D+00
   349  3.4800000000000D+00  0.0000000000000D+00  0.0000000000000D+00
   350  3.4900000000000D+00  0.0000000000000D+00  0.0000000000000D+00
   351  3.5000000000000D+00  0.0000000000000D+00  0.0000000000000D+00
   352  3.5100000000000D+00  0.0000000000000D+00  0.0000000000000D+00
   353  3.5200000000000D+00  0.0000000000000D+00  0.0000000000000D+00
   354  3.5300000000000D+00  0.0000000000000D+00  0.0000000000000D+00
   355  3.5400000000000D+00  0.0000000000000D+00  0.0000000000000D+00
   356  3.5500000000000D+00  0.0000000000000D+00  0.0000000000000D+00
   357  3.5600000000000D+00  0.0000000000000D+00  0.0000000000000D+00
   358  3.5700000000000D+00  0.0000000000000D+00  0.0000000000000D+00
   359  3.5800000000000D+00  0.0000000000000D+00  0.0000000000000D+00
   360  3.5900000000000D+00  0.0000000000000D+00  0.0000000000000D+00
   361  3.6000000000000D+00  0.0000000000000D+00  0.0000000000000D+00
   362  3.6100000000000D+00  0.0000000000000D+00  0.0000000000000D+00
   363  3.6200000000000D+00  0.0000000000000D+00  0.0000000000000D+00
   364  3.6300000000000D+00  0.0000000000000D+00  0.0000000000000D+00
   365  3.6400000000000D+00  0.0000000000000D+00  0.0000000000000D+00
   366  3.6500000000000D+00  0.0000000000000D+00  0.0000000000000D+00
   367  3.6600000000000D+00  0.0000000000000D+00  0.0000000000000D+00
   368  3.6700000000000D+00  0.0000000000000D+00  0.0000000000000D+00
   369  3.6800000000000D+00  0.0000000000000D+00  0.0000000000000D+00
   370  3.6900000000000D+00  0.0000000000000D+00  0.0000000000000D+00
   371  3.7000000000000D+00  0.0000000000000D+00  0.0000000000000D+00
   372  3.7100000000000D+00  0.0000000000000D+00  0.0000000000000D+00
   373  3.7200000000000D+00  0.0000000000000D+00  0.0000000000000D+00
   374  3.7300000000000D+00  0.0000000000000D+00  0.0000000000000D+00
   375  3.7400000000000D+00  0.0000000000000D+00  0.0000000000000D+00
   376  3.7500000000000D+00  0.0000000000000D+00  0.0000000000000D+00
   377  3.7600000000000D+00  0.0000000000000D+00  0.0000000000000D+00
   378  3.7700000000000D+00  0.0000000000000D+00  0.0000000000000D+00
   379  3.7800000000000D+00  0.0000000000000D+00  0.0000000000000D+00
   380  3.7900000000000D+00  0.0000000000000D+00  0.0000000000000D+00
   381  3.8000000000000D+00  0.0000000000000D+00  0.0000000000000D+00
   382  3.8100000000000D+00  0.0000000000000D+00  0.0000000000000D+00
   383  3.8200000000000D+00  0.0000000000000D+00  0.0000000000000D+00
   384  3.8300000000000D+00  0.0000000000000D+00  0.0000000000000D+00
   385  3.8400000000000D+00  0.0000000000000D+00  0.0000000000000D+00
   386  3.8500000000000D+00  0.0000000000000D+00  0.0000000000000D+00
   387  3.8600000000000D+00  0.0000000000000D+00  0.0000000000000D+00
   388  3.8700000000000D+00  0.0000000000000D+00  0.0000000000000D+00
   389  3.8800000000000D+00  0.0000000000000D+00  0.0000000000000D+00
   390  3.8900000000000D+00  0.0000000000000D+00  0.0000000000000D+00
   391  3.9000000000000D+00  0.0000000000000D+00  0.0000000000000D+00
   392  3.9100000000000D+00  0.0000000000000D+00  0.0000000000000D+00
   393  3.9200000000000D+00  0.0000000000000D+00  0.0000000000000D+00
   394  3.9300000000000D+00  0.0000000000000D+00  0.0000000000000D+00
   395  3.9400000000000D+00  0.0000000000000D+00  0.0000000000000D+00
   396  3.9500000000000D+00  0.0000000000000D+00  0.0000000000000D+00
   397  3.9600000000000D+00  0.0000000000000D+00  0.0000000000000D+00
   398  3.9700000000000D+00  0.0000000000000D+00  0.0000000000000D+00
   399  3.9800000000000D+00  0.0000000000000D+00  0.0000000000000D+00
   400  3.9900000000000D+00  0.0000000000000D+00  0.0000000000000D+00
   401  4.0000000000000D+00  0.0000000000000D+00  0.0000000000000D+00
   402  4.0100000000000D+00  0.0000000000000D+00  0.0000000000000D+00
   403  4.0200000000000D+00  0.0000000000000D+00  0.0000000000000D+00
   404  4.0300000000000D+00  0.0000000000000D+00  0.0000000000000D+00
   405  4.0400000000000D+00  0.0000000000000D+00  0.0000000000000D+00
   406  4.0500000000000D+00  0.0000000000000D+00  0.0000000000000D+00
   407  4.0600000000000D+00  0.0000000000000D+00  0.0000000000000D+00
   408  4.0700000000000D+00  0.0000000000000D+00  0.0000000000000D+00
   409  4.0800000000000D+00  0.0000000000000D+00  0.0000000000000D+00
   410  4.0900000000000D+00  0.0000000000000D+00  0.0000000000000D+00
   411  4.1000000000000D+00  0.0000000000000D+00  0.0000000000000D+00
   412  4.1100000000000D+00  0.0000000000000D+00  0.0000000000000D+00
   413  4.1200000000000D+00  0.0000000000000D+00  0.0000000000000D+00
   414  4.1300000000000D+00  0.0000000000000D+00  0.0000000000000D+00
   415  4.1400000000000D+00  0.0000000000000D+00  0.0000000000000D+00
   416  4.1500000000000D+00  0.0000000000000D+00  0.0000000000000D+00
   417  4.1600000000000D+00  0.0000000000000D+00  0.0000000000000D+00
   418  4.1700000000000D+00  0.0000000000000D+00  0.0000000000000D+00
   419  4.1800000000000D+00  0.0000000000000D+00  0.0000000000000D+00
   420  4.1900000000000D+00  0.0000000000000D+00  0.0000000000000D+00
   421  4.2000000000000D+00  0.0000000000000D+00  0.0000000000000D+00
   422  4.2100000000000D+00  0.0000000000000D+00  0.0000000000000D+00