Mo    ONCVPSP-3.3.1  r_core=   2.31752   2.51934   2.58017
     42.0000     14.0000      210904    zatom,zion,pspd
     8       2   2     4   600     0    pspcod,pspxc,lmax,lloc,mmax,r2well
  5.99000000  0.00000000  0.00000000    rchrg fchrg qchrg
     2     2     2     0     0    nproj
     1     1           extension_switch
   0                         5.5195248558430D+00  1.0407691654019D+00
     1  0.0000000000000D+00  6.8750005688401D-12 -1.6210831288443D-11
     2  1.0000000000000D-02  4.9406508862780D-02 -7.9939640055512D-03
     3  2.0000000000000D-02  9.8756049946639D-02 -1.5965627770548D-02
     4  3.0000000000000D-02  1.4799169288465D-01 -2.3892634524207D-02
     5  4.0000000000000D-02  1.9705658235314D-01 -3.1752515126917D-02
     6  5.0000000000000D-02  2.4589397613971D-01 -3.9522633610781D-02
     7  6.0000000000000D-02  2.9444728386211D-01 -4.7180134778643D-02
     8  7.0000000000000D-02  3.4266010654675D-01 -5.4701894528648D-02
     9  8.0000000000000D-02  3.9047627726879D-01 -6.2064473555178D-02
    10  9.0000000000000D-02  4.3783990304729D-01 -6.9244075056823D-02
    11  1.0000000000000D-01  4.8469540817845D-01 -7.6216507057997D-02
    12  1.1000000000000D-01  5.3098757917869D-01 -8.2957149923128D-02
    13  1.2000000000000D-01  5.7666161149556D-01 -8.9440929610956D-02
    14  1.3000000000000D-01  6.2166315813010D-01 -9.5642297181686D-02
    15  1.4000000000000D-01  6.6593838029822D-01 -1.0153521503160D-01
    16  1.5000000000000D-01  7.0943400024105D-01 -1.0709315028854D-01
    17  1.6000000000000D-01  7.5209735627598D-01 -1.1228907575738D-01
    18  1.7000000000000D-01  7.9387646016022D-01 -1.1709547875779D-01
    19  1.8000000000000D-01  8.3472005681811D-01 -1.2148437814706D-01
    20  1.9000000000000D-01  8.7457768646188D-01 -1.2542734976902D-01
    21  2.0000000000000D-01  9.1339974911315D-01 -1.2889556051638D-01
    22  2.1000000000000D-01  9.5113757150946D-01 -1.3185981113817D-01
    23  2.2000000000000D-01  9.8774347635657D-01 -1.3429058786687D-01
    24  2.3000000000000D-01  1.0231708538632D+00 -1.3615812288165D-01
    25  2.4000000000000D-01  1.0573742354707D+00 -1.3743246356476D-01
    26  2.5000000000000D-01  1.0903093696657D+00 -1.3808355044813D-01
    27  2.6000000000000D-01  1.1219332997391D+00 -1.3808130368728D-01
    28  2.7000000000000D-01  1.1522044433312D+00 -1.3739571783907D-01
    29  2.8000000000000D-01  1.1810826735773D+00 -1.3599696466007D-01
    30  2.9000000000000D-01  1.2085294016459D+00 -1.3385550358279D-01
    31  3.0000000000000D-01  1.2345076604381D+00 -1.3094219946867D-01
    32  3.1000000000000D-01  1.2589821891937D+00 -1.2722844717953D-01
    33  3.2000000000000D-01  1.2819195187282D+00 -1.2268630245357D-01
    34  3.3000000000000D-01  1.3032880570060D+00 -1.1728861851836D-01
    35  3.4000000000000D-01  1.3230581747317D+00 -1.1100918782156D-01
    36  3.5000000000000D-01  1.3412022906285D+00 -1.0382288821155D-01
    37  3.6000000000000D-01  1.3576949560496D+00 -9.5705832853582D-02
    38  3.7000000000000D-01  1.3725129385593D+00 -8.6635523124487D-02
    39  3.8000000000000D-01  1.3856353041023D+00 -7.6591003688980D-02
    40  3.9000000000000D-01  1.3970434973688D+00 -6.5553018925165D-02
    41  4.0000000000000D-01  1.4067214199546D+00 -5.3504169834561D-02
    42  4.1000000000000D-01  1.4146555059041D+00 -4.0429070544433D-02
    43  4.2000000000000D-01  1.4208347942207D+00 -2.6314503486796D-02
    44  4.3000000000000D-01  1.4252509979233D+00 -1.1149572319969D-02
    45  4.4000000000000D-01  1.4278985692254D+00  5.0741483555189D-03
    46  4.5000000000000D-01  1.4287747604157D+00  2.2362467443497D-02
    47  4.6000000000000D-01  1.4278796800192D+00  4.0718436921850D-02
    48  4.7000000000000D-01  1.4252163438246D+00  6.0142217494343D-02
    49  4.8000000000000D-01  1.4207907203699D+00  8.0630951276730D-02
    50  4.9000000000000D-01  1.4146117704893D+00  1.0217864245689D-01
    51  5.0000000000000D-01  1.4066914805346D+00  1.2477604685086D-01
    52  5.1000000000000D-01  1.3970448889014D+00  1.4841057125356D-01
    53  5.2000000000000D-01  1.3856901055043D+00  1.7306618345385D-01
    54  5.3000000000000D-01  1.3726483238679D+00  1.9872333374967D-01
    55  5.4000000000000D-01  1.3579438255188D+00  2.2535888875949D-01
    56  5.5000000000000D-01  1.3416039763902D+00  2.5294607828117D-01
    57  5.6000000000000D-01  1.3236592149747D+00  2.8145445590003D-01
    58  5.7000000000000D-01  1.3041430319902D+00  3.1084987399251D-01
    59  5.8000000000000D-01  1.2830919413526D+00  3.4109447371289D-01
    60  5.9000000000000D-01  1.2605454422834D+00  3.7214669048614D-01
    61  6.0000000000000D-01  1.2365459724093D+00  4.0396127546178D-01
    62  6.1000000000000D-01  1.2111388517525D+00  4.3648933331176D-01
    63  6.2000000000000D-01  1.1843722175398D+00  4.6967837667923D-01
    64  6.3000000000000D-01  1.1562969498037D+00  5.0347239750604D-01
    65  6.4000000000000D-01  1.1269665877817D+00  5.3781195538524D-01
    66  6.5000000000000D-01  1.0964372371650D+00  5.7263428299974D-01
    67  6.6000000000000D-01  1.0647674682847D+00  6.0787340862220D-01
    68  6.7000000000000D-01  1.0320182053671D+00  6.4346029556278D-01
    69  6.8000000000000D-01  9.9825260703173D-01  6.7932299836201D-01
    70  6.9000000000000D-01  9.6353593824581D-01  7.1538683543562D-01
    71  7.0000000000000D-01  9.2793543399210D-01  7.5157457778816D-01
    72  7.1000000000000D-01  8.9152015494820D-01  7.8780665332164D-01
    73  7.2000000000000D-01  8.5436083551629D-01  8.2400136617626D-01
    74  7.3000000000000D-01  8.1652972458269D-01  8.6007513045175D-01
    75  7.4000000000000D-01  7.7810041942583D-01  8.9594271757172D-01
    76  7.5000000000000D-01  7.3914769322950D-01  9.3151751646930D-01
    77  7.6000000000000D-01  6.9974731669499D-01  9.6671180569033D-01
    78  7.7000000000000D-01  6.5997587428084D-01  1.0014370364330D+00
    79  7.8000000000000D-01  6.1991057563223D-01  1.0356041254679D+00
    80  7.9000000000000D-01  5.7962906279354D-01  1.0691237568122D+00
    81  8.0000000000000D-01  5.3920921382641D-01  1.1019066909670D+00
    82  8.1000000000000D-01  4.9872894348254D-01  1.1338640804654D+00
    83  8.2000000000000D-01  4.5826600160451D-01  1.1649077904247D+00
    84  8.3000000000000D-01  4.1789776994927D-01  1.1949507227472D+00
    85  8.4000000000000D-01  3.7770105814714D-01  1.2239071425710D+00
    86  8.5000000000000D-01  3.3775189952511D-01  1.2516930055373D+00
    87  8.6000000000000D-01  2.9812534753473D-01  1.2782262844092D+00
    88  8.7000000000000D-01  2.5889527353449D-01  1.3034272935594D+00
    89  8.8000000000000D-01  2.2013416668164D-01  1.3272190098236D+00
    90  8.9000000000000D-01  1.8191293669080D-01  1.3495273882161D+00
    91  9.0000000000000D-01  1.4430072021528D-01  1.3702816709995D+00
    92  9.1000000000000D-01  1.0736469160187D-01  1.3894146886123D+00
    93  9.2000000000000D-01  7.1169878761670D-02  1.4068631509731D+00
    94  9.3000000000000D-01  3.5778984887114D-02  1.4225679277046D+00
    95  9.4000000000000D-01  1.2522167299854D-03  1.4364743158550D+00
    96  9.5000000000000D-01 -3.2352879864152D-02  1.4485322937293D+00
    97  9.6000000000000D-01 -6.4981576492129D-02  1.4586967594975D+00
    98  9.7000000000000D-01 -9.6582110153033D-02  1.4669277532950D+00
    99  9.8000000000000D-01 -1.2710582201395D-01  1.4731906615977D+00
   100  9.9000000000000D-01 -1.5650728639678D-01  1.4774564027215D+00
   101  1.0000000000000D+00 -1.8474442943529D-01  1.4797015923706D+00
   102  1.0100000000000D+00 -2.1177863689158D-01  1.4799086882435D+00
   103  1.0200000000000D+00 -2.3757485066104D-01  1.4780661127927D+00
   104  1.0300000000000D+00 -2.6210165353853D-01  1.4741683533265D+00
   105  1.0400000000000D+00 -2.8533134186406D-01  1.4682160387394D+00
   106  1.0500000000000D+00 -3.0723998571592D-01  1.4602159922673D+00
   107  1.0600000000000D+00 -3.2780747636421D-01  1.4501812597543D+00
   108  1.0700000000000D+00 -3.4701756075448D-01  1.4381311130479D+00
   109  1.0800000000000D+00 -3.6485786284048D-01  1.4240910282364D+00
   110  1.0900000000000D+00 -3.8131989163863D-01  1.4080926385660D+00
   111  1.1000000000000D+00 -3.9639903593544D-01  1.3901736619925D+00
   112  1.1100000000000D+00 -4.1009454562385D-01  1.3703778034235D+00
   113  1.1200000000000D+00 -4.2240949971248D-01  1.3487546318501D+00
   114  1.1300000000000D+00 -4.3335076109712D-01  1.3253594326618D+00
   115  1.1400000000000D+00 -4.4292891824665D-01  1.3002530355741D+00
   116  1.1500000000000D+00 -4.5115821399665D-01  1.2735016186824D+00
   117  1.1600000000000D+00 -4.5805646171197D-01  1.2451764893001D+00
   118  1.1700000000000D+00 -4.6364494912213D-01  1.2153538423270D+00
   119  1.1800000000000D+00 -4.6794833019113D-01  1.1841144970132D+00
   120  1.1900000000000D+00 -4.7099450541508D-01  1.1515436130507D+00
   121  1.2000000000000D+00 -4.7281449101093D-01  1.1177303870660D+00
   122  1.2100000000000D+00 -4.7344227749077D-01  1.0827677306517D+00
   123  1.2200000000000D+00 -4.7291467815330D-01  1.0467519311474D+00
   124  1.2300000000000D+00 -4.7127116807207D-01  1.0097822964763D+00
   125  1.2400000000000D+00 -4.6855371419700D-01  9.7196078541612D-01
   126  1.2500000000000D+00 -4.6480659721083D-01  9.3339162472651D-01
   127  1.2600000000000D+00 -4.6007622581152D-01  8.9418091461530D-01
   128  1.2700000000000D+00 -4.5441094413057D-01  8.5443622409149D-01
   129  1.2800000000000D+00 -4.4786083300466D-01  8.1426617776339D-01
   130  1.2900000000000D+00 -4.4047750584017D-01  7.7378003568097D-01
   131  1.3000000000000D+00 -4.3231389983486D-01  7.3308726785240D-01
   132  1.3100000000000D+00 -4.2342406331718D-01  6.9229712505173D-01
   133  1.3200000000000D+00 -4.1386293998153D-01  6.5151820756554D-01
   134  1.3300000000000D+00 -4.0368615079687D-01  6.1085803349333D-01
   135  1.3400000000000D+00 -3.9294977436189D-01  5.7042260821325D-01
   136  1.3500000000000D+00 -3.8171012648798D-01  5.3031599662097D-01
   137  1.3600000000000D+00 -3.7002353975679D-01  4.9063989964692D-01
   138  1.3700000000000D+00 -3.5794614382129D-01  4.5149323662069D-01
   139  1.3800000000000D+00 -3.4553364717707D-01  4.1297173491530D-01
   140  1.3900000000000D+00 -3.3284112110186D-01  3.7516752823612D-01
   141  1.4000000000000D+00 -3.1992278649694D-01  3.3816876500437D-01
   142  1.4100000000000D+00 -3.0683180424023D-01  3.0205922795495D-01
   143  1.4200000000000D+00 -2.9362006972925D-01  2.6691796625324D-01
   144  1.4300000000000D+00 -2.8033801220808D-01  2.3281894120612D-01
   145  1.4400000000000D+00 -2.6703439940062D-01  1.9983068647256D-01
   146  1.4500000000000D+00 -2.5375614807441D-01  1.6801598392351D-01
   147  1.4600000000000D+00 -2.4054814089983D-01  1.3743155566250D-01
   148  1.4700000000000D+00 -2.2745305016856D-01  1.0812777320786D-01
   149  1.4800000000000D+00 -2.1451116869752D-01  8.0148384252503D-02
   150  1.4900000000000D+00 -2.0176024828520D-01  5.3530257526886D-02
   151  1.5000000000000D+00 -1.8923533408125D-01  2.8303105454356D-02
   152  1.5100000000000D+00 -1.7696869358810D-01  4.4895204547765D-03
   153  1.5200000000000D+00 -1.6498954927175D-01 -1.7895667519790D-02
   154  1.5300000000000D+00 -1.5332380473444D-01 -3.8846077000272D-02
   155  1.5400000000000D+00 -1.4199460797489D-01 -5.8361573914533D-02
   156  1.5500000000000D+00 -1.3102256442230D-01 -7.6447318879315D-02
   157  1.5600000000000D+00 -1.2042495658969D-01 -9.3116307884132D-02
   158  1.5700000000000D+00 -1.1021585298026D-01 -1.0838886649906D-01
   159  1.5800000000000D+00 -1.0040691465522D-01 -1.2228974032245D-01
   160  1.5900000000000D+00 -9.1007618411447D-02 -1.3484730941088D-01
   161  1.6000000000000D+00 -8.2025461583773D-02 -1.4609293946595D-01
   162  1.6100000000000D+00 -7.3466043028216D-02 -1.5606072326692D-01
   163  1.6200000000000D+00 -6.5333027618900D-02 -1.6478764883554D-01
   164  1.6300000000000D+00 -5.7628258034661D-02 -1.7231326337264D-01
   165  1.6400000000000D+00 -5.0351828027312D-02 -1.7867947937041D-01
   166  1.6500000000000D+00 -4.3502159465996D-02 -1.8393037548885D-01
   167  1.6600000000000D+00 -3.7076085218597D-02 -1.8811198429760D-01
   168  1.6700000000000D+00 -3.1068935663189D-02 -1.9127207439324D-01
   169  1.6800000000000D+00 -2.5474628262233D-02 -1.9345992823207D-01
   170  1.6900000000000D+00 -2.0285759800819D-02 -1.9472611676041D-01
   171  1.7000000000000D+00 -1.5493700775825D-02 -1.9512227202174D-01
   172  1.7100000000000D+00 -1.1088691462997D-02 -1.9470085900961D-01
   173  1.7200000000000D+00 -7.0599392237464D-03 -1.9351494772948D-01
   174  1.7300000000000D+00 -3.3957164988912D-03 -1.9161798694336D-01
   175  1.7400000000000D+00 -8.3459155542029D-05 -1.8906358026350D-01
   176  1.7500000000000D+00  2.8901354566302D-03 -1.8590526630543D-01
   177  1.7600000000000D+00  5.5390109485184D-03 -1.8219630322042D-01
   178  1.7700000000000D+00  7.8776555550703D-03 -1.7798945950711D-01
   179  1.7800000000000D+00  9.9210071163735D-03 -1.7333681112758D-01
   180  1.7900000000000D+00  1.1684360130252D-02 -1.6828954688702D-01
   181  1.8000000000000D+00  1.3183274902841D-02 -1.6289778192768D-01
   182  1.8100000000000D+00  1.4433489514461D-02 -1.5721038116324D-01
   183  1.8200000000000D+00  1.5450834626542D-02 -1.5127479252426D-01
   184  1.8300000000000D+00  1.6251151710822D-02 -1.4513689143912D-01
   185  1.8400000000000D+00  1.6850214828424D-02 -1.3884083671816D-01
   186  1.8500000000000D+00  1.7263656276253D-02 -1.3242893852510D-01
   187  1.8600000000000D+00  1.7506896457662D-02 -1.2594153923807D-01
   188  1.8700000000000D+00  1.7595077889542D-02 -1.1941690677560D-01
   189  1.8800000000000D+00  1.7543004063369D-02 -1.1289114216381D-01
   190  1.8900000000000D+00  1.7365082553830D-02 -1.0639809952777D-01
   191  1.9000000000000D+00  1.7075273459145D-02 -9.9969321253546D-02
   192  1.9100000000000D+00  1.6687042261664D-02 -9.3633985705089D-02
   193  1.9200000000000D+00  1.6213318090025D-02 -8.7418869943377D-02
   194  1.9300000000000D+00  1.5666456738676D-02 -8.1348325567611D-02
   195  1.9400000000000D+00  1.5058208833329D-02 -7.5444268532728D-02
   196  1.9500000000000D+00  1.4399693108642D-02 -6.9726182687649D-02
   197  1.9600000000000D+00  1.3701374383149D-02 -6.4211135774067D-02
   198  1.9700000000000D+00  1.2973046881631D-02 -5.8913809408688D-02
   199  1.9800000000000D+00  1.2223821827864D-02 -5.3846540087628D-02
   200  1.9900000000000D+00  1.1462120224042D-02 -4.9019373393673D-02
   201  2.0000000000000D+00  1.0695669787789D-02 -4.4440128601648D-02
   202  2.0100000000000D+00  9.9315063868284D-03 -4.0114474360403D-02
   203  2.0200000000000D+00  9.1759797077980D-03 -3.6046014606627D-02
   204  2.0300000000000D+00  8.4347625795241D-03 -3.2236383079953D-02
   205  2.0400000000000D+00  7.7128643826242D-03 -2.8685347296064D-02
   206  2.0500000000000D+00  7.0146475276137D-03 -2.5390919320902D-02
   207  2.0600000000000D+00  6.3438473647853D-03 -2.2349473974532D-02
   208  2.0700000000000D+00  5.7035948933742D-03 -1.9555872780001D-02
   209  2.0800000000000D+00  5.0964420063116D-03 -1.7003592809769D-02
   210  2.0900000000000D+00  4.5243891734454D-03 -1.4684859912111D-02
   211  2.1000000000000D+00  3.9889149648691D-03 -1.2590784865631D-02
   212  2.1100000000000D+00  3.4910073191889D-03 -1.0711501775576D-02
   213  2.1200000000000D+00  3.0311961418217D-03 -9.0363077537670D-03
   214  2.1300000000000D+00  2.6095869271555D-03 -7.5538028843045D-03
   215  2.1400000000000D+00  2.2258950225614D-03 -6.2520292130532D-03
   216  2.1500000000000D+00  1.8794804462648D-03 -5.1186087744185D-03
   217  2.1600000000000D+00  1.5693825573248D-03 -4.1408782924120D-03
   218  2.1700000000000D+00  1.2943546200037D-03 -3.3060208917192D-03
   219  2.1800000000000D+00  1.0528979453572D-03 -2.6011938714894D-03
   220  2.1900000000000D+00  8.4329485416915D-04 -2.0136501938435D-03
   221  2.2000000000000D+00  6.6364105155916D-04 -1.5308556573843D-03
   222  2.2100000000000D+00  5.1187626421644D-04 -1.1405982190683D-03
   223  2.2200000000000D+00  3.8581325660784D-04 -8.3108989916809D-04
   224  2.2300000000000D+00  2.8316563302670D-04 -5.9106255750171D-04
   225  2.2400000000000D+00  2.0157789803972D-04 -4.0988648970865D-04
   226  2.2500000000000D+00  1.3863538728197D-04 -2.7756001026801D-04
   227  2.2600000000000D+00  9.1878840044229D-05 -1.8473593480616D-04
   228  2.2700000000000D+00  5.8708594552534D-05 -1.2253440182523D-04
   229  2.2800000000000D+00  3.6934905025177D-05 -8.4282285326411D-05
   230  2.2900000000000D+00  2.4323295617057D-05 -6.4023102532845D-05
   231  2.3000000000000D+00  1.9080904688424D-05 -5.7674513954339D-05
   232  2.3100000000000D+00  1.6834072009616D-05 -5.4406346779058D-05
   233  2.3200000000000D+00  1.4033181165675D-05 -4.5933227154369D-05
   234  2.3300000000000D+00  8.5065217449190D-06 -2.7874030414154D-05
   235  2.3400000000000D+00  2.6195502070074D-06 -8.5365586021954D-06
   236  2.3500000000000D+00 -1.0100830903311D-06  3.3771798790576D-06
   237  2.3600000000000D+00 -1.4892445889504D-06  4.9838768010058D-06
   238  2.3700000000000D+00 -4.7163281960892D-07  1.5785981640181D-06
   239  2.3800000000000D+00  2.5122619072462D-07 -8.5156158357612D-07
   240  2.3900000000000D+00  3.1402962321588D-07 -1.0665167318454D-06
   241  2.4000000000000D+00  6.4211895883791D-08 -2.1843107623062D-07
   242  2.4100000000000D+00 -3.5333944873909D-08  1.1537386360667D-07
   243  2.4200000000000D+00 -3.8425347775668D-08  1.2546804069370D-07
   244  2.4300000000000D+00 -3.4447842233151D-09  1.1248052447963D-08
   245  2.4400000000000D+00  0.0000000000000D+00  0.0000000000000D+00
   246  2.4500000000000D+00  0.0000000000000D+00  0.0000000000000D+00
   247  2.4600000000000D+00  0.0000000000000D+00  0.0000000000000D+00
   248  2.4700000000000D+00  0.0000000000000D+00  0.0000000000000D+00
   249  2.4800000000000D+00  0.0000000000000D+00  0.0000000000000D+00
   250  2.4900000000000D+00  0.0000000000000D+00  0.0000000000000D+00
   251  2.5000000000000D+00  0.0000000000000D+00  0.0000000000000D+00
   252  2.5100000000000D+00  0.0000000000000D+00  0.0000000000000D+00
   253  2.5200000000000D+00  0.0000000000000D+00  0.0000000000000D+00
   254  2.5300000000000D+00  0.0000000000000D+00  0.0000000000000D+00
   255  2.5400000000000D+00  0.0000000000000D+00  0.0000000000000D+00
   256  2.5500000000000D+00  0.0000000000000D+00  0.0000000000000D+00
   257  2.5600000000000D+00  0.0000000000000D+00  0.0000000000000D+00
   258  2.5700000000000D+00  0.0000000000000D+00  0.0000000000000D+00
   259  2.5800000000000D+00  0.0000000000000D+00  0.0000000000000D+00
   260  2.5900000000000D+00  0.0000000000000D+00  0.0000000000000D+00
   261  2.6000000000000D+00  0.0000000000000D+00  0.0000000000000D+00
   262  2.6100000000000D+00  0.0000000000000D+00  0.0000000000000D+00
   263  2.6200000000000D+00  0.0000000000000D+00  0.0000000000000D+00
   264  2.6300000000000D+00  0.0000000000000D+00  0.0000000000000D+00
   265  2.6400000000000D+00  0.0000000000000D+00  0.0000000000000D+00
   266  2.6500000000000D+00  0.0000000000000D+00  0.0000000000000D+00
   267  2.6600000000000D+00  0.0000000000000D+00  0.0000000000000D+00
   268  2.6700000000000D+00  0.0000000000000D+00  0.0000000000000D+00
   269  2.6800000000000D+00  0.0000000000000D+00  0.0000000000000D+00
   270  2.6900000000000D+00  0.0000000000000D+00  0.0000000000000D+00
   271  2.7000000000000D+00  0.0000000000000D+00  0.0000000000000D+00
   272  2.7100000000000D+00  0.0000000000000D+00  0.0000000000000D+00
   273  2.7200000000000D+00  0.0000000000000D+00  0.0000000000000D+00
   274  2.7300000000000D+00  0.0000000000000D+00  0.0000000000000D+00
   275  2.7400000000000D+00  0.0000000000000D+00  0.0000000000000D+00
   276  2.7500000000000D+00  0.0000000000000D+00  0.0000000000000D+00
   277  2.7600000000000D+00  0.0000000000000D+00  0.0000000000000D+00
   278  2.7700000000000D+00  0.0000000000000D+00  0.0000000000000D+00
   279  2.7800000000000D+00  0.0000000000000D+00  0.0000000000000D+00
   280  2.7900000000000D+00  0.0000000000000D+00  0.0000000000000D+00
   281  2.8000000000000D+00  0.0000000000000D+00  0.0000000000000D+00
   282  2.8100000000000D+00  0.0000000000000D+00  0.0000000000000D+00
   283  2.8200000000000D+00  0.0000000000000D+00  0.0000000000000D+00
   284  2.8300000000000D+00  0.0000000000000D+00  0.0000000000000D+00
   285  2.8400000000000D+00  0.0000000000000D+00  0.0000000000000D+00
   286  2.8500000000000D+00  0.0000000000000D+00  0.0000000000000D+00
   287  2.8600000000000D+00  0.0000000000000D+00  0.0000000000000D+00
   288  2.8700000000000D+00  0.0000000000000D+00  0.0000000000000D+00
   289  2.8800000000000D+00  0.0000000000000D+00  0.0000000000000D+00
   290  2.8900000000000D+00  0.0000000000000D+00  0.0000000000000D+00
   291  2.9000000000000D+00  0.0000000000000D+00  0.0000000000000D+00
   292  2.9100000000000D+00  0.0000000000000D+00  0.0000000000000D+00
   293  2.9200000000000D+00  0.0000000000000D+00  0.0000000000000D+00
   294  2.9300000000000D+00  0.0000000000000D+00  0.0000000000000D+00
   295  2.9400000000000D+00  0.0000000000000D+00  0.0000000000000D+00
   296  2.9500000000000D+00  0.0000000000000D+00  0.0000000000000D+00
   297  2.9600000000000D+00  0.0000000000000D+00  0.0000000000000D+00
   298  2.9700000000000D+00  0.0000000000000D+00  0.0000000000000D+00
   299  2.9800000000000D+00  0.0000000000000D+00  0.0000000000000D+00
   300  2.9900000000000D+00  0.0000000000000D+00  0.0000000000000D+00
   301  3.0000000000000D+00  0.0000000000000D+00  0.0000000000000D+00
   302  3.0100000000000D+00  0.0000000000000D+00  0.0000000000000D+00
   303  3.0200000000000D+00  0.0000000000000D+00  0.0000000000000D+00
   304  3.0300000000000D+00  0.0000000000000D+00  0.0000000000000D+00
   305  3.0400000000000D+00  0.0000000000000D+00  0.0000000000000D+00
   306  3.0500000000000D+00  0.0000000000000D+00  0.0000000000000D+00
   307  3.0600000000000D+00  0.0000000000000D+00  0.0000000000000D+00
   308  3.0700000000000D+00  0.0000000000000D+00  0.0000000000000D+00
   309  3.0800000000000D+00  0.0000000000000D+00  0.0000000000000D+00
   310  3.0900000000000D+00  0.0000000000000D+00  0.0000000000000D+00
   311  3.1000000000000D+00  0.0000000000000D+00  0.0000000000000D+00
   312  3.1100000000000D+00  0.0000000000000D+00  0.0000000000000D+00
   313  3.1200000000000D+00  0.0000000000000D+00  0.0000000000000D+00
   314  3.1300000000000D+00  0.0000000000000D+00  0.0000000000000D+00
   315  3.1400000000000D+00  0.0000000000000D+00  0.0000000000000D+00
   316  3.1500000000000D+00  0.0000000000000D+00  0.0000000000000D+00
   317  3.1600000000000D+00  0.0000000000000D+00  0.0000000000000D+00
   318  3.1700000000000D+00  0.0000000000000D+00  0.0000000000000D+00
   319  3.1800000000000D+00  0.0000000000000D+00  0.0000000000000D+00
   320  3.1900000000000D+00  0.0000000000000D+00  0.0000000000000D+00
   321  3.2000000000000D+00  0.0000000000000D+00  0.0000000000000D+00
   322  3.2100000000000D+00  0.0000000000000D+00  0.0000000000000D+00
   323  3.2200000000000D+00  0.0000000000000D+00  0.0000000000000D+00
   324  3.2300000000000D+00  0.0000000000000D+00  0.0000000000000D+00
   325  3.2400000000000D+00  0.0000000000000D+00  0.0000000000000D+00
   326  3.2500000000000D+00  0.0000000000000D+00  0.0000000000000D+00
   327  3.2600000000000D+00  0.0000000000000D+00  0.0000000000000D+00
   328  3.2700000000000D+00  0.0000000000000D+00  0.0000000000000D+00
   329  3.2800000000000D+00  0.0000000000000D+00  0.0000000000000D+00
   330  3.2900000000000D+00  0.0000000000000D+00  0.0000000000000D+00
   331  3.3000000000000D+00  0.0000000000000D+00  0.0000000000000D+00
   332  3.3100000000000D+00  0.0000000000000D+00  0.0000000000000D+00
   333  3.3200000000000D+00  0.0000000000000D+00  0.0000000000000D+00
   334  3.3300000000000D+00  0.0000000000000D+00  0.0000000000000D+00
   335  3.3400000000000D+00  0.0000000000000D+00  0.0000000000000D+00
   336  3.3500000000000D+00  0.0000000000000D+00  0.0000000000000D+00
   337  3.3600000000000D+00  0.0000000000000D+00  0.0000000000000D+00
   338  3.3700000000000D+00  0.0000000000000D+00  0.0000000000000D+00
   339  3.3800000000000D+00  0.0000000000000D+00  0.0000000000000D+00
   340  3.3900000000000D+00  0.0000000000000D+00  0.0000000000000D+00
   341  3.4000000000000D+00  0.0000000000000D+00  0.0000000000000D+00
   342  3.4100000000000D+00  0.0000000000000D+00  0.0000000000000D+00
   343  3.4200000000000D+00  0.0000000000000D+00  0.0000000000000D+00
   344  3.4300000000000D+00  0.0000000000000D+00  0.0000000000000D+00
   345  3.4400000000000D+00  0.0000000000000D+00  0.0000000000000D+00
   346  3.4500000000000D+00  0.0000000000000D+00  0.0000000000000D+00
   347  3.4600000000000D+00  0.0000000000000D+00  0.0000000000000D+00
   348  3.4700000000000D+00  0.0000000000000D+00  0.0000000000000D+00
   349  3.4800000000000D+00  0.0000000000000D+00  0.0000000000000D+00
   350  3.4900000000000D+00  0.0000000000000D+00  0.0000000000000D+00
   351  3.5000000000000D+00  0.0000000000000D+00  0.0000000000000D+00
   352  3.5100000000000D+00  0.0000000000000D+00  0.0000000000000D+00
   353  3.5200000000000D+00  0.0000000000000D+00  0.0000000000000D+00
   354  3.5300000000000D+00  0.0000000000000D+00  0.0000000000000D+00
   355  3.5400000000000D+00  0.0000000000000D+00  0.0000000000000D+00
   356  3.5500000000000D+00  0.0000000000000D+00  0.0000000000000D+00
   357  3.5600000000000D+00  0.0000000000000D+00  0.0000000000000D+00
   358  3.5700000000000D+00  0.0000000000000D+00  0.0000000000000D+00
   359  3.5800000000000D+00  0.0000000000000D+00  0.0000000000000D+00
   360  3.5900000000000D+00  0.0000000000000D+00  0.0000000000000D+00
   361  3.6000000000000D+00  0.0000000000000D+00  0.0000000000000D+00
   362  3.6100000000000D+00  0.0000000000000D+00  0.0000000000000D+00
   363  3.6200000000000D+00  0.0000000000000D+00  0.0000000000000D+00
   364  3.6300000000000D+00  0.0000000000000D+00  0.0000000000000D+00
   365  3.6400000000000D+00  0.0000000000000D+00  0.0000000000000D+00
   366  3.6500000000000D+00  0.0000000000000D+00  0.0000000000000D+00
   367  3.6600000000000D+00  0.0000000000000D+00  0.0000000000000D+00
   368  3.6700000000000D+00  0.0000000000000D+00  0.0000000000000D+00
   369  3.6800000000000D+00  0.0000000000000D+00  0.0000000000000D+00
   370  3.6900000000000D+00  0.0000000000000D+00  0.0000000000000D+00
   371  3.7000000000000D+00  0.0000000000000D+00  0.0000000000000D+00
   372  3.7100000000000D+00  0.0000000000000D+00  0.0000000000000D+00
   373  3.7200000000000D+00  0.0000000000000D+00  0.0000000000000D+00
   374  3.7300000000000D+00  0.0000000000000D+00  0.0000000000000D+00
   375  3.7400000000000D+00  0.0000000000000D+00  0.0000000000000D+00
   376  3.7500000000000D+00  0.0000000000000D+00  0.0000000000000D+00
   377  3.7600000000000D+00  0.0000000000000D+00  0.0000000000000D+00
   378  3.7700000000000D+00  0.0000000000000D+00  0.0000000000000D+00
   379  3.7800000000000D+00  0.0000000000000D+00  0.0000000000000D+00
   380  3.7900000000000D+00  0.0000000000000D+00  0.0000000000000D+00
   381  3.8000000000000D+00  0.0000000000000D+00  0.0000000000000D+00
   382  3.8100000000000D+00  0.0000000000000D+00  0.0000000000000D+00
   383  3.8200000000000D+00  0.0000000000000D+00  0.0000000000000D+00
   384  3.8300000000000D+00  0.0000000000000D+00  0.0000000000000D+00
   385  3.8400000000000D+00  0.0000000000000D+00  0.0000000000000D+00
   386  3.8500000000000D+00  0.0000000000000D+00  0.0000000000000D+00
   387  3.8600000000000D+00  0.0000000000000D+00  0.0000000000000D+00
   388  3.8700000000000D+00  0.0000000000000D+00  0.0000000000000D+00
   389  3.8800000000000D+00  0.0000000000000D+00  0.0000000000000D+00
   390  3.8900000000000D+00  0.0000000000000D+00  0.0000000000000D+00
   391  3.9000000000000D+00  0.0000000000000D+00  0.0000000000000D+00
   392  3.9100000000000D+00  0.0000000000000D+00  0.0000000000000D+00
   393  3.9200000000000D+00  0.0000000000000D+00  0.0000000000000D+00
   394  3.9300000000000D+00  0.0000000000000D+00  0.0000000000000D+00
   395  3.9400000000000D+00  0.0000000000000D+00  0.0000000000000D+00
   396  3.9500000000000D+00  0.0000000000000D+00  0.0000000000000D+00
   397  3.9600000000000D+00  0.0000000000000D+00  0.0000000000000D+00
   398  3.9700000000000D+00  0.0000000000000D+00  0.0000000000000D+00
   399  3.9800000000000D+00  0.0000000000000D+00  0.0000000000000D+00
   400  3.9900000000000D+00  0.0000000000000D+00  0.0000000000000D+00
   401  4.0000000000000D+00  0.0000000000000D+00  0.0000000000000D+00
   402  4.0100000000000D+00  0.0000000000000D+00  0.0000000000000D+00
   403  4.0200000000000D+00  0.0000000000000D+00  0.0000000000000D+00
   404  4.0300000000000D+00  0.0000000000000D+00  0.0000000000000D+00
   405  4.0400000000000D+00  0.0000000000000D+00  0.0000000000000D+00
   406  4.0500000000000D+00  0.0000000000000D+00  0.0000000000000D+00
   407  4.0600000000000D+00  0.0000000000000D+00  0.0000000000000D+00
   408  4.0700000000000D+00  0.0000000000000D+00  0.0000000000000D+00
   409  4.0800000000000D+00  0.0000000000000D+00  0.0000000000000D+00
   410  4.0900000000000D+00  0.0000000000000D+00  0.0000000000000D+00
   411  4.1000000000000D+00  0.0000000000000D+00  0.0000000000000D+00
   412  4.1100000000000D+00  0.0000000000000D+00  0.0000000000000D+00
   413  4.1200000000000D+00  0.0000000000000D+00  0.0000000000000D+00
   414  4.1300000000000D+00  0.0000000000000D+00  0.0000000000000D+00
   415  4.1400000000000D+00  0.0000000000000D+00  0.0000000000000D+00
   416  4.1500000000000D+00  0.0000000000000D+00  0.0000000000000D+00
   417  4.1600000000000D+00  0.0000000000000D+00  0.0000000000000D+00
   418  4.1700000000000D+00  0.0000000000000D+00  0.0000000000000D+00
   419  4.1800000000000D+00  0.0000000000000D+00  0.0000000000000D+00
   420  4.1900000000000D+00  0.0000000000000D+00  0.0000000000000D+00
   421  4.2000000000000D+00  0.0000000000000D+00  0.0000000000000D+00
   422  4.2100000000000D+00  0.0000000000000D+00  0.0000000000000D+00