N     ONCVPSP-3.3.1  r_core=   1.60510   1.53031
      7.0000      5.0000      210904    zatom,zion,pspd
     8       2   1     4   600     0    pspcod,pspxc,lmax,lloc,mmax,r2well
  5.99000000  0.00000000  0.00000000    rchrg fchrg qchrg
     2     2     0     0    nproj
     3     1           extension_switch
     3     0     0    nprojso
   0                         1.0033356055927D+00  7.1190306749080D+00
     1  0.0000000000000D+00 -1.9291801489629D-10  4.2562731117357D-11
     2  1.0000000000000D-02 -3.8149509931393D-02  8.6914212779371D-02
     3  2.0000000000000D-02 -7.6073573043429D-02  1.7359935216995D-01
     4  3.0000000000000D-02 -1.1354750100088D-01  2.5982702803212D-01
     5  4.0000000000000D-02 -1.5034812288338D-01  3.4537021545797D-01
     6  5.0000000000000D-02 -1.8625454495909D-01  4.3000393420958D-01
     7  6.0000000000000D-02 -2.2104891159822D-01  5.1350592431285D-01
     8  7.0000000000000D-02 -2.5451716747582D-01  5.9565731647436D-01
     9  8.0000000000000D-02 -2.8644982102042D-01  6.7624329594585D-01
    10  9.0000000000000D-02 -3.1664270882967D-01  7.5505375840976D-01
    11  1.0000000000000D-01 -3.4489776050027D-01  8.3188395639963D-01
    12  1.1000000000000D-01 -3.7102376301086D-01  9.0653513470373D-01
    13  1.2000000000000D-01 -3.9483712345888D-01  9.7881515312899D-01
    14  1.3000000000000D-01 -4.1616262859097D-01  1.0485390949285D+00
    15  1.4000000000000D-01 -4.3483419918682D-01  1.1155298591195D+00
    16  1.5000000000000D-01 -4.5069563696554D-01  1.1796187348431D+00
    17  1.6000000000000D-01 -4.6360136128781D-01  1.2406459558432D+00
    18  1.7000000000000D-01 -4.7341713253320D-01  1.2984612330739D+00
    19  1.8000000000000D-01 -4.8002075864743D-01  1.3529242633784D+00
    20  1.9000000000000D-01 -4.8330278098560D-01  1.4039052121305D+00
    21  2.0000000000000D-01 -4.8316713523212D-01  1.4512851676840D+00
    22  2.1000000000000D-01 -4.7953178286240D-01  1.4949565654407D+00
    23  2.2000000000000D-01 -4.7232930833262D-01  1.5348235793325D+00
    24  2.3000000000000D-01 -4.6150747694821D-01  1.5708024785070D+00
    25  2.4000000000000D-01 -4.4702974817437D-01  1.6028219470243D+00
    26  2.5000000000000D-01 -4.2887573901976D-01  1.6308233644015D+00
    27  2.6000000000000D-01 -4.0704163205052D-01  1.6547610449010D+00
    28  2.7000000000000D-01 -3.8154052258206D-01  1.6746024335286D+00
    29  2.8000000000000D-01 -3.5240269965243D-01  1.6903282568082D+00
    30  2.9000000000000D-01 -3.1967585550766D-01  1.7019326265177D+00
    31  3.0000000000000D-01 -2.8342521852679D-01  1.7094230947152D+00
    32  3.1000000000000D-01 -2.4373360478497D-01  1.7128206585488D+00
    33  3.2000000000000D-01 -2.0070138379535D-01  1.7121597135340D+00
    34  3.3000000000000D-01 -1.5444635438568D-01  1.7074879541933D+00
    35  3.4000000000000D-01 -1.0510352714984D-01  1.6988662211846D+00
    36  3.5000000000000D-01 -5.2824810467178D-02  1.6863682942994D+00
    37  3.6000000000000D-01  2.2214023013243D-03  1.6700806309833D+00
    38  3.7000000000000D-01  5.9850746155519D-02  1.6501020503226D+00
    39  3.8000000000000D-01  1.1986349932249D-01  1.6265433627417D+00
    40  3.9000000000000D-01  1.8204529985446D-01  1.5995269459821D+00
    41  4.0000000000000D-01  2.4616796334677D-01  1.5691862682537D+00
    42  4.1000000000000D-01  3.1199040031201D-01  1.5356653597964D+00
    43  4.2000000000000D-01  3.7925963086837D-01  1.4991182344248D+00
    44  4.3000000000000D-01  4.4771189350646D-01  1.4597082629806D+00
    45  4.4000000000000D-01  5.1707384379647D-01  1.4176075009585D+00
    46  4.5000000000000D-01  5.8706383799937D-01  1.3729959729152D+00
    47  4.6000000000000D-01  6.5739329565751D-01  1.3260609166024D+00
    48  4.7000000000000D-01  7.2776813437579D-01  1.2769959900919D+00
    49  4.8000000000000D-01  7.9789026917122D-01  1.2260004454675D+00
    50  4.9000000000000D-01  8.6745916797761D-01  1.1732782729533D+00
    51  5.0000000000000D-01  9.3617345415308D-01  1.1190373196218D+00
    52  5.1000000000000D-01  1.0037325461594D+00  1.0634883870710D+00
    53  5.2000000000000D-01  1.0698383239742D+00  1.0068443126886D+00
    54  5.3000000000000D-01  1.1341968112658D+00  9.4931903931100D-01
    55  5.4000000000000D-01  1.1965198619195D+00  8.9112667825112D-01
    56  5.5000000000000D-01  1.2565268391476D+00  8.3248057079776D-01
    57  5.6000000000000D-01  1.3139462751687D+00  7.7359235338228D-01
    58  5.7000000000000D-01  1.3685174992910D+00  7.1467103166619D-01
    59  5.8000000000000D-01  1.4199922221934D+00  6.5592206882014D-01
    60  5.9000000000000D-01  1.4681360642719D+00  5.9754649324374D-01
    61  6.0000000000000D-01  1.5127300161009D+00  5.3974003091313D-01
    62  6.1000000000000D-01  1.5535718193570D+00  4.8269226744096D-01
    63  6.2000000000000D-01  1.5904772569644D+00  4.2658584479085D-01
    64  6.3000000000000D-01  1.6232813417402D+00  3.7159569740533D-01
    65  6.4000000000000D-01  1.6518393934509D+00  3.1788833228593D-01
    66  6.5000000000000D-01  1.6760279949191D+00  2.6562115730490D-01
    67  6.6000000000000D-01  1.6957458186573D+00  2.1494186173359D-01
    68  6.7000000000000D-01  1.7109143164204D+00  1.6598785264648D-01
    69  6.8000000000000D-01  1.7214782650784D+00  1.1888575049978D-01
    70  6.9000000000000D-01  1.7274061632911D+00  7.3750946798024D-02
    71  7.0000000000000D-01  1.7286904746074D+00  3.0687226350103D-02
    72  7.1000000000000D-01  1.7253477138118D+00 -1.0213543814676D-02
    73  7.2000000000000D-01  1.7174183745816D+00 -4.8871657252851D-02
    74  7.3000000000000D-01  1.7049666977875D+00 -8.5219741479671D-02
    75  7.4000000000000D-01  1.6880802810591D+00 -1.1920286122721D-01
    76  7.5000000000000D-01  1.6668695315278D+00 -1.5077855138580D-01
    77  7.6000000000000D-01  1.6414669649439D+00 -1.7991677990532D-01
    78  7.7000000000000D-01  1.6120263556240D+00 -2.0659984141102D-01
    79  7.8000000000000D-01  1.5787217429145D+00 -2.3082218275666D-01
    80  7.9000000000000D-01  1.5417463010288D+00 -2.5259016219424D-01
    81  8.0000000000000D-01  1.5013110802366D+00 -2.7192174428010D-01
    82  8.1000000000000D-01  1.4576436284206D+00 -2.8884613305684D-01
    83  8.2000000000000D-01  1.4109865029803D+00 -3.0340334644571D-01
    84  8.3000000000000D-01  1.3615956839171D+00 -3.1564373515172D-01
    85  8.4000000000000D-01  1.3097388996987D+00 -3.2562744971896D-01
    86  8.5000000000000D-01  1.2556938781383D+00 -3.3342385967497D-01
    87  8.6000000000000D-01  1.1997465350478D+00 -3.3911092896655D-01
    88  8.7000000000000D-01  1.1421891138191D+00 -3.4277455211319D-01
    89  8.8000000000000D-01  1.0833182893459D+00 -3.4450785568655D-01
    90  8.9000000000000D-01  1.0234332498272D+00 -3.4441046986308D-01
    91  9.0000000000000D-01  9.6283376998120D-01 -3.4258777489140D-01
    92  9.1000000000000D-01  9.0181828904499D-01 -3.3915012736537D-01
    93  9.2000000000000D-01  8.4068200665446D-01 -3.3421207119810D-01
    94  9.3000000000000D-01  7.7971500927277D-01 -3.2789153815175D-01
    95  9.4000000000000D-01  7.1920043928823D-01 -3.2030904269305D-01
    96  9.5000000000000D-01  6.5941271822682D-01 -3.1158687581757D-01
    97  9.6000000000000D-01  6.0061583473579D-01 -3.0184830231784D-01
    98  9.7000000000000D-01  5.4306170708378D-01 -2.9121676576031D-01
    99  9.8000000000000D-01  4.8698862894951D-01 -2.7981510519904D-01
   100  9.9000000000000D-01  4.3261980616317D-01 -2.6776478737164D-01
   101  1.0000000000000D+00  3.8016199091391D-01 -2.5518515781826D-01
   102  1.0100000000000D+00  3.2980421871740D-01 -2.4219271403280D-01
   103  1.0200000000000D+00  2.8171665216577D-01 -2.2890040339916D-01
   104  1.0300000000000D+00  2.3604953418539D-01 -2.1541694829452D-01
   105  1.0400000000000D+00  1.9293225216272D-01 -2.0184620034039D-01
   106  1.0500000000000D+00  1.5247251308925D-01 -1.8828652542170D-01
   107  1.0600000000000D+00  1.1475562840935D-01 -1.7483022064548D-01
   108  1.0700000000000D+00  7.9843906080045D-02 -1.6156296404286D-01
   109  1.0800000000000D+00  4.7776146075617D-02 -1.4856329741162D-01
   110  1.0900000000000D+00  1.8567231023822D-02 -1.3590214146666D-01
   111  1.1000000000000D+00 -7.7921922794165D-03 -1.2364234317381D-01
   112  1.1100000000000D+00 -3.1335842982705D-02 -1.1183828200601D-01
   113  1.1200000000000D+00 -5.2122197410509D-02 -1.0053542014528D-01
   114  1.1300000000000D+00 -7.0234400997787D-02 -8.9769988673010D-02
   115  1.1400000000000D+00 -8.5775274805067D-02 -7.9569906383354D-02
   116  1.1500000000000D+00 -9.8860927484953D-02 -6.9956179867145D-02
   117  1.1600000000000D+00 -1.0961649832622D-01 -6.0943869091399D-02
   118  1.1700000000000D+00 -1.1817561467294D-01 -5.2542189704428D-02
   119  1.1800000000000D+00 -1.2467874666082D-01 -4.4754897145742D-02
   120  1.1900000000000D+00 -1.2927183819361D-01 -3.7580627972059D-02
   121  1.2000000000000D+00 -1.3210487253382D-01 -3.1013277005868D-02
   122  1.2100000000000D+00 -1.3333046918925D-01 -2.5042386598575D-02
   123  1.2200000000000D+00 -1.3310250371896D-01 -1.9653549017002D-02
   124  1.2300000000000D+00 -1.3157476634744D-01 -1.4828817075357D-02
   125  1.2400000000000D+00 -1.2889967129129D-01 -1.0547119047490D-02
   126  1.2500000000000D+00 -1.2522702861535D-01 -6.7846738829555D-03
   127  1.2600000000000D+00 -1.2070288881304D-01 -3.5154030636986D-03
   128  1.2700000000000D+00 -1.1546846947856D-01 -7.1133563709609D-04
   129  1.2800000000000D+00 -1.0965917321738D-01  1.6569970111932D-03
   130  1.2900000000000D+00 -1.0340370378459D-01  3.6201795937991D-03
   131  1.3000000000000D+00 -9.6823286312442D-02  5.2095472275854D-03
   132  1.3100000000000D+00 -9.0030997631838D-02  6.4568383226040D-03
   133  1.3200000000000D+00 -8.3131209564463D-02  7.3938679989412D-03
   134  1.3300000000000D+00 -7.6219147391696D-02  8.0522237842637D-03
   135  1.3400000000000D+00 -6.9380565851874D-02  8.4629854055759D-03
   136  1.3500000000000D+00 -6.2691540982205D-02  8.6564694331416D-03
   137  1.3600000000000D+00 -5.6218376966658D-02  8.6619997407279D-03
   138  1.3700000000000D+00 -5.0017625753736D-02  8.5077043988134D-03
   139  1.3800000000000D+00 -4.4136214017744D-02  8.2203387254361D-03
   140  1.3900000000000D+00 -3.8611673924832D-02  7.8251347452161D-03
   141  1.4000000000000D+00 -3.3472470497256D-02  7.3456762950632D-03
   142  1.4100000000000D+00 -2.8738418166301D-02  6.8037989122066D-03
   143  1.4200000000000D+00 -2.4421179591183D-02  6.2195138314279D-03
   144  1.4300000000000D+00 -2.0524836076169D-02  5.6109542575488D-03
   145  1.4400000000000D+00 -1.7046521452588D-02  4.9943428572425D-03
   146  1.4500000000000D+00 -1.3977108203443D-02  4.3839784702749D-03
   147  1.4600000000000D+00 -1.1301935518782D-02  3.7922402243242D-03
   148  1.4700000000000D+00 -9.0015682582436D-03  3.2296071528687D-03
   149  1.4800000000000D+00 -7.0525754860878D-03  2.7046910149845D-03
   150  1.4900000000000D+00 -5.4283173134871D-03  2.2242803351914D-03
   151  1.5000000000000D+00 -4.0997288615492D-03  1.7933933007943D-03
   152  1.5100000000000D+00 -3.0360904619004D-03  1.4153374464404D-03
   153  1.5200000000000D+00 -2.2057727676487D-03  1.0917737715531D-03
   154  1.5300000000000D+00 -1.5769480700033D-03  8.2278349480576D-04
   155  1.5400000000000D+00 -1.1182553806087D-03  6.0693489330917D-04
   156  1.5500000000000D+00 -7.9957985083512D-04  4.4141940082255D-04
   157  1.5600000000000D+00 -5.9256743483012D-04  3.2209888054691D-04
   158  1.5700000000000D+00 -4.6581695713887D-04  2.4124513559860D-04
   159  1.5800000000000D+00 -3.9944679836060D-04  1.9380311703980D-04
   160  1.5900000000000D+00 -4.0211593801855D-04  1.8514759162765D-04
   161  1.6000000000000D+00 -4.1549319092624D-04  1.8772305481819D-04
   162  1.6100000000000D+00 -2.9826788712529D-04  1.3437679648554D-04
   163  1.6200000000000D+00 -8.0118578937666D-05  3.6093994698813D-05
   164  1.6300000000000D+00  3.7393969490453D-05 -1.6797556499011D-05
   165  1.6400000000000D+00  1.9723430615938D-05 -8.8570234885758D-06
   166  1.6500000000000D+00 -8.2292187669964D-06  3.6944400959236D-06
   167  1.6600000000000D+00 -4.4994362487033D-06  2.0193949836963D-06
   168  1.6700000000000D+00  9.7215207776241D-07 -4.3841553834344D-07
   169  1.6800000000000D+00  5.4527658261607D-07 -2.4590568901929D-07
   170  1.6900000000000D+00  0.0000000000000D+00  0.0000000000000D+00
   171  1.7000000000000D+00  0.0000000000000D+00  0.0000000000000D+00
   172  1.7100000000000D+00  0.0000000000000D+00  0.0000000000000D+00
   173  1.7200000000000D+00  0.0000000000000D+00  0.0000000000000D+00
   174  1.7300000000000D+00  0.0000000000000D+00  0.0000000000000D+00
   175  1.7400000000000D+00  0.0000000000000D+00  0.0000000000000D+00
   176  1.7500000000000D+00  0.0000000000000D+00  0.0000000000000D+00
   177  1.7600000000000D+00  0.0000000000000D+00  0.0000000000000D+00
   178  1.7700000000000D+00  0.0000000000000D+00  0.0000000000000D+00
   179  1.7800000000000D+00  0.0000000000000D+00  0.0000000000000D+00
   180  1.7900000000000D+00  0.0000000000000D+00  0.0000000000000D+00
   181  1.8000000000000D+00  0.0000000000000D+00  0.0000000000000D+00
   182  1.8100000000000D+00  0.0000000000000D+00  0.0000000000000D+00
   183  1.8200000000000D+00  0.0000000000000D+00  0.0000000000000D+00
   184  1.8300000000000D+00  0.0000000000000D+00  0.0000000000000D+00
   185  1.8400000000000D+00  0.0000000000000D+00  0.0000000000000D+00
   186  1.8500000000000D+00  0.0000000000000D+00  0.0000000000000D+00
   187  1.8600000000000D+00  0.0000000000000D+00  0.0000000000000D+00
   188  1.8700000000000D+00  0.0000000000000D+00  0.0000000000000D+00
   189  1.8800000000000D+00  0.0000000000000D+00  0.0000000000000D+00
   190  1.8900000000000D+00  0.0000000000000D+00  0.0000000000000D+00
   191  1.9000000000000D+00  0.0000000000000D+00  0.0000000000000D+00
   192  1.9100000000000D+00  0.0000000000000D+00  0.0000000000000D+00
   193  1.9200000000000D+00  0.0000000000000D+00  0.0000000000000D+00
   194  1.9300000000000D+00  0.0000000000000D+00  0.0000000000000D+00
   195  1.9400000000000D+00  0.0000000000000D+00  0.0000000000000D+00
   196  1.9500000000000D+00  0.0000000000000D+00  0.0000000000000D+00
   197  1.9600000000000D+00  0.0000000000000D+00  0.0000000000000D+00
   198  1.9700000000000D+00  0.0000000000000D+00  0.0000000000000D+00
   199  1.9800000000000D+00  0.0000000000000D+00  0.0000000000000D+00
   200  1.9900000000000D+00  0.0000000000000D+00  0.0000000000000D+00
   201  2.0000000000000D+00  0.0000000000000D+00  0.0000000000000D+00
   202  2.0100000000000D+00  0.0000000000000D+00  0.0000000000000D+00
   203  2.0200000000000D+00  0.0000000000000D+00  0.0000000000000D+00
   204  2.0300000000000D+00  0.0000000000000D+00  0.0000000000000D+00
   205  2.0400000000000D+00  0.0000000000000D+00  0.0000000000000D+00
   206  2.0500000000000D+00  0.0000000000000D+00  0.0000000000000D+00
   207  2.0600000000000D+00  0.0000000000000D+00  0.0000000000000D+00
   208  2.0700000000000D+00  0.0000000000000D+00  0.0000000000000D+00
   209  2.0800000000000D+00  0.0000000000000D+00  0.0000000000000D+00
   210  2.0900000000000D+00  0.0000000000000D+00  0.0000000000000D+00
   211  2.1000000000000D+00  0.0000000000000D+00  0.0000000000000D+00
   212  2.1100000000000D+00  0.0000000000000D+00  0.0000000000000D+00
   213  2.1200000000000D+00  0.0000000000000D+00  0.0000000000000D+00
   214  2.1300000000000D+00  0.0000000000000D+00  0.0000000000000D+00
   215  2.1400000000000D+00  0.0000000000000D+00  0.0000000000000D+00
   216  2.1500000000000D+00  0.0000000000000D+00  0.0000000000000D+00
   217  2.1600000000000D+00  0.0000000000000D+00  0.0000000000000D+00
   218  2.1700000000000D+00  0.0000000000000D+00  0.0000000000000D+00
   219  2.1800000000000D+00  0.0000000000000D+00  0.0000000000000D+00
   220  2.1900000000000D+00  0.0000000000000D+00  0.0000000000000D+00
   221  2.2000000000000D+00  0.0000000000000D+00  0.0000000000000D+00
   222  2.2100000000000D+00  0.0000000000000D+00  0.0000000000000D+00
   223  2.2200000000000D+00  0.0000000000000D+00  0.0000000000000D+00
   224  2.2300000000000D+00  0.0000000000000D+00  0.0000000000000D+00
   225  2.2400000000000D+00  0.0000000000000D+00  0.0000000000000D+00
   226  2.2500000000000D+00  0.0000000000000D+00  0.0000000000000D+00
   227  2.2600000000000D+00  0.0000000000000D+00  0.0000000000000D+00
   228  2.2700000000000D+00  0.0000000000000D+00  0.0000000000000D+00
   229  2.2800000000000D+00  0.0000000000000D+00  0.0000000000000D+00
   230  2.2900000000000D+00  0.0000000000000D+00  0.0000000000000D+00
   231  2.3000000000000D+00  0.0000000000000D+00  0.0000000000000D+00
   232  2.3100000000000D+00  0.0000000000000D+00  0.0000000000000D+00
   233  2.3200000000000D+00  0.0000000000000D+00  0.0000000000000D+00
   234  2.3300000000000D+00  0.0000000000000D+00  0.0000000000000D+00
   235  2.3400000000000D+00  0.0000000000000D+00  0.0000000000000D+00
   236  2.3500000000000D+00  0.0000000000000D+00  0.0000000000000D+00
   237  2.3600000000000D+00  0.0000000000000D+00  0.0000000000000D+00
   238  2.3700000000000D+00  0.0000000000000D+00  0.0000000000000D+00
   239  2.3800000000000D+00  0.0000000000000D+00  0.0000000000000D+00
   240  2.3900000000000D+00  0.0000000000000D+00  0.0000000000000D+00
   241  2.4000000000000D+00  0.0000000000000D+00  0.0000000000000D+00
   242  2.4100000000000D+00  0.0000000000000D+00  0.0000000000000D+00
   243  2.4200000000000D+00  0.0000000000000D+00  0.0000000000000D+00
   244  2.4300000000000D+00  0.0000000000000D+00  0.0000000000000D+00
   245  2.4400000000000D+00  0.0000000000000D+00  0.0000000000000D+00
   246  2.4500000000000D+00  0.0000000000000D+00  0.0000000000000D+00
   247  2.4600000000000D+00  0.0000000000000D+00  0.0000000000000D+00
   248  2.4700000000000D+00  0.0000000000000D+00  0.0000000000000D+00
   249  2.4800000000000D+00  0.0000000000000D+00  0.0000000000000D+00
   250  2.4900000000000D+00  0.0000000000000D+00  0.0000000000000D+00
   251  2.5000000000000D+00  0.0000000000000D+00  0.0000000000000D+00
   252  2.5100000000000D+00  0.0000000000000D+00  0.0000000000000D+00
   253  2.5200000000000D+00  0.0000000000000D+00  0.0000000000000D+00
   254  2.5300000000000D+00  0.0000000000000D+00  0.0000000000000D+00
   255  2.5400000000000D+00  0.0000000000000D+00  0.0000000000000D+00
   256  2.5500000000000D+00  0.0000000000000D+00  0.0000000000000D+00
   257  2.5600000000000D+00  0.0000000000000D+00  0.0000000000000D+00
   258  2.5700000000000D+00  0.0000000000000D+00  0.0000000000000D+00
   259  2.5800000000000D+00  0.0000000000000D+00  0.0000000000000D+00
   260  2.5900000000000D+00  0.0000000000000D+00  0.0000000000000D+00
   261  2.6000000000000D+00  0.0000000000000D+00  0.0000000000000D+00
   262  2.6100000000000D+00  0.0000000000000D+00  0.0000000000000D+00
   263  2.6200000000000D+00  0.0000000000000D+00  0.0000000000000D+00
   264  2.6300000000000D+00  0.0000000000000D+00  0.0000000000000D+00
   265  2.6400000000000D+00  0.0000000000000D+00  0.0000000000000D+00
   266  2.6500000000000D+00  0.0000000000000D+00  0.0000000000000D+00
   267  2.6600000000000D+00  0.0000000000000D+00  0.0000000000000D+00
   268  2.6700000000000D+00  0.0000000000000D+00  0.0000000000000D+00
   269  2.6800000000000D+00  0.0000000000000D+00  0.0000000000000D+00
   270  2.6900000000000D+00  0.0000000000000D+00  0.0000000000000D+00
   271  2.7000000000000D+00  0.0000000000000D+00  0.0000000000000D+00
   272  2.7100000000000D+00  0.0000000000000D+00  0.0000000000000D+00
   273  2.7200000000000D+00  0.0000000000000D+00  0.0000000000000D+00
   274  2.7300000000000D+00  0.0000000000000D+00  0.0000000000000D+00
   275  2.7400000000000D+00  0.0000000000000D+00  0.0000000000000D+00
   276  2.7500000000000D+00  0.0000000000000D+00  0.0000000000000D+00
   277  2.7600000000000D+00  0.0000000000000D+00  0.0000000000000D+00
   278  2.7700000000000D+00  0.0000000000000D+00  0.0000000000000D+00
   279  2.7800000000000D+00  0.0000000000000D+00  0.0000000000000D+00
   280  2.7900000000000D+00  0.0000000000000D+00  0.0000000000000D+00
   281  2.8000000000000D+00  0.0000000000000D+00  0.0000000000000D+00
   282  2.8100000000000D+00  0.0000000000000D+00  0.0000000000000D+00
   283  2.8200000000000D+00  0.0000000000000D+00  0.0000000000000D+00
   284  2.8300000000000D+00  0.0000000000000D+00  0.0000000000000D+00
   285  2.8400000000000D+00  0.0000000000000D+00  0.0000000000000D+00
   286  2.8500000000000D+00  0.0000000000000D+00  0.0000000000000D+00
   287  2.8600000000000D+00  0.0000000000000D+00  0.0000000000000D+00
   288  2.8700000000000D+00  0.0000000000000D+00  0.0000000000000D+00
   289  2.8800000000000D+00  0.0000000000000D+00  0.0000000000000D+00
   290  2.8900000000000D+00  0.0000000000000D+00  0.0000000000000D+00
   291  2.9000000000000D+00  0.0000000000000D+00  0.0000000000000D+00
   292  2.9100000000000D+00  0.0000000000000D+00  0.0000000000000D+00
   293  2.9200000000000D+00  0.0000000000000D+00  0.0000000000000D+00
   294  2.9300000000000D+00  0.0000000000000D+00  0.0000000000000D+00
   295  2.9400000000000D+00  0.0000000000000D+00  0.0000000000000D+00
   296  2.9500000000000D+00  0.0000000000000D+00  0.0000000000000D+00
   297  2.9600000000000D+00  0.0000000000000D+00  0.0000000000000D+00
   298  2.9700000000000D+00  0.0000000000000D+00  0.0000000000000D+00
   299  2.9800000000000D+00  0.0000000000000D+00  0.0000000000000D+00
   300  2.9900000000000D+00  0.0000000000000D+00  0.0000000000000D+00
   301  3.0000000000000D+00  0.0000000000000D+00  0.0000000000000D+00
   302  3.0100000000000D+00  0.0000000000000D+00  0.0000000000000D+00
   303  3.0200000000000D+00  0.0000000000000D+00  0.0000000000000D+00
   304  3.0300000000000D+00  0.0000000000000D+00  0.0000000000000D+00
   305  3.0400000000000D+00  0.0000000000000D+00  0.0000000000000D+00
   306  3.0500000000000D+00  0.0000000000000D+00  0.0000000000000D+00
   307  3.0600000000000D+00  0.0000000000000D+00  0.0000000000000D+00
   308  3.0700000000000D+00  0.0000000000000D+00  0.0000000000000D+00
   309  3.0800000000000D+00  0.0000000000000D+00  0.0000000000000D+00
   310  3.0900000000000D+00  0.0000000000000D+00  0.0000000000000D+00
   311  3.1000000000000D+00  0.0000000000000D+00  0.0000000000000D+00
   312  3.1100000000000D+00  0.0000000000000D+00  0.0000000000000D+00
   313  3.1200000000000D+00  0.0000000000000D+00  0.0000000000000D+00
   314  3.1300000000000D+00  0.0000000000000D+00  0.0000000000000D+00
   315  3.1400000000000D+00  0.0000000000000D+00  0.0000000000000D+00
   316  3.1500000000000D+00  0.0000000000000D+00  0.0000000000000D+00
   317  3.1600000000000D+00  0.0000000000000D+00  0.0000000000000D+00
   318  3.1700000000000D+00  0.0000000000000D+00  0.0000000000000D+00
   319  3.1800000000000D+00  0.0000000000000D+00  0.0000000000000D+00
   320  3.1900000000000D+00  0.0000000000000D+00  0.0000000000000D+00
   321  3.2000000000000D+00  0.0000000000000D+00  0.0000000000000D+00
   322  3.2100000000000D+00  0.0000000000000D+00  0.0000000000000D+00
   323  3.2200000000000D+00  0.0000000000000D+00  0.0000000000000D+00
   324  3.2300000000000D+00  0.0000000000000D+00  0.0000000000000D+00
   325  3.2400000000000D+00  0.0000000000000D+00  0.0000000000000D+00
   326  3.2500000000000D+00  0.0000000000000D+00  0.0000000000000D+00
   327  3.2600000000000D+00  0.0000000000000D+00  0.0000000000000D+00
   328  3.2700000000000D+00  0.0000000000000D+00  0.0000000000000D+00
   329  3.2800000000000D+00  0.0000000000000D+00  0.0000000000000D+00
   330  3.2900000000000D+00  0.0000000000000D+00  0.0000000000000D+00
   331  3.3000000000000D+00  0.0000000000000D+00  0.0000000000000D+00
   332  3.3100000000000D+00  0.0000000000000D+00  0.0000000000000D+00
   333  3.3200000000000D+00  0.0000000000000D+00  0.0000000000000D+00
   334  3.3300000000000D+00  0.0000000000000D+00  0.0000000000000D+00
   335  3.3400000000000D+00  0.0000000000000D+00  0.0000000000000D+00
   336  3.3500000000000D+00  0.0000000000000D+00  0.0000000000000D+00
   337  3.3600000000000D+00  0.0000000000000D+00  0.0000000000000D+00
   338  3.3700000000000D+00  0.0000000000000D+00  0.0000000000000D+00
   339  3.3800000000000D+00  0.0000000000000D+00  0.0000000000000D+00
   340  3.3900000000000D+00  0.0000000000000D+00  0.0000000000000D+00
   341  3.4000000000000D+00  0.0000000000000D+00  0.0000000000000D+00
   342  3.4100000000000D+00  0.0000000000000D+00  0.0000000000000D+00
   343  3.4200000000000D+00  0.0000000000000D+00  0.0000000000000D+00
   344  3.4300000000000D+00  0.0000000000000D+00  0.0000000000000D+00
   345  3.4400000000000D+00  0.0000000000000D+00  0.0000000000000D+00
   346  3.4500000000000D+00  0.0000000000000D+00  0.0000000000000D+00
   347  3.4600000000000D+00  0.0000000000000D+00  0.0000000000000D+00
   348  3.4700000000000D+00  0.0000000000000D+00  0.0000000000000D+00
   349  3.4800000000000D+00  0.0000000000000D+00  0.0000000000000D+00
   350  3.4900000000000D+00  0.0000000000000D+00  0.0000000000000D+00
   351  3.5000000000000D+00  0.0000000000000D+00  0.0000000000000D+00
   352  3.5100000000000D+00  0.0000000000000D+00  0.0000000000000D+00
   353  3.5200000000000D+00  0.0000000000000D+00  0.0000000000000D+00
   354  3.5300000000000D+00  0.0000000000000D+00  0.0000000000000D+00
   355  3.5400000000000D+00  0.0000000000000D+00  0.0000000000000D+00
   356  3.5500000000000D+00  0.0000000000000D+00  0.0000000000000D+00
   357  3.5600000000000D+00  0.0000000000000D+00  0.0000000000000D+00
   358  3.5700000000000D+00  0.0000000000000D+00  0.0000000000000D+00
   359  3.5800000000000D+00  0.0000000000000D+00  0.0000000000000D+00
   360  3.5900000000000D+00  0.0000000000000D+00  0.0000000000000D+00
   361  3.6000000000000D+00  0.0000000000000D+00  0.0000000000000D+00
   362  3.6100000000000D+00  0.0000000000000D+00  0.0000000000000D+00
   363  3.6200000000000D+00  0.0000000000000D+00  0.0000000000000D+00
   364  3.6300000000000D+00  0.0000000000000D+00  0.0000000000000D+00
   365  3.6400000000000D+00  0.0000000000000D+00  0.0000000000000D+00
   366  3.6500000000000D+00  0.0000000000000D+00  0.0000000000000D+00
   367  3.6600000000000D+00  0.0000000000000D+00  0.0000000000000D+00
   368  3.6700000000000D+00  0.0000000000000D+00  0.0000000000000D+00
   369  3.6800000000000D+00  0.0000000000000D+00  0.0000000000000D+00
   370  3.6900000000000D+00  0.0000000000000D+00  0.0000000000000D+00
   371  3.7000000000000D+00  0.0000000000000D+00  0.0000000000000D+00
   372  3.7100000000000D+00  0.0000000000000D+00  0.0000000000000D+00
   373  3.7200000000000D+00  0.0000000000000D+00  0.0000000000000D+00
   374  3.7300000000000D+00  0.0000000000000D+00  0.0000000000000D+00
   375  3.7400000000000D+00  0.0000000000000D+00  0.0000000000000D+00
   376  3.7500000000000D+00  0.0000000000000D+00  0.0000000000000D+00
   377  3.7600000000000D+00  0.0000000000000D+00  0.0000000000000D+00
   378  3.7700000000000D+00  0.0000000000000D+00  0.0000000000000D+00
   379  3.7800000000000D+00  0.0000000000000D+00  0.0000000000000D+00
   380  3.7900000000000D+00  0.0000000000000D+00  0.0000000000000D+00
   381  3.8000000000000D+00  0.0000000000000D+00  0.0000000000000D+00
   382  3.8100000000000D+00  0.0000000000000D+00  0.0000000000000D+00
   383  3.8200000000000D+00  0.0000000000000D+00  0.0000000000000D+00
   384  3.8300000000000D+00  0.0000000000000D+00  0.0000000000000D+00
   385  3.8400000000000D+00  0.0000000000000D+00  0.0000000000000D+00
   386  3.8500000000000D+00  0.0000000000000D+00  0.0000000000000D+00
   387  3.8600000000000D+00  0.0000000000000D+00  0.0000000000000D+00
   388  3.8700000000000D+00  0.0000000000000D+00  0.0000000000000D+00
   389  3.8800000000000D+00  0.0000000000000D+00  0.0000000000000D+00
   390  3.8900000000000D+00  0.0000000000000D+00  0.0000000000000D+00
   391  3.9000000000000D+00  0.0000000000000D+00  0.0000000000000D+00
   392  3.9100000000000D+00  0.0000000000000D+00  0.0000000000000D+00
   393  3.9200000000000D+00  0.0000000000000D+00  0.0000000000000D+00
   394  3.9300000000000D+00  0.0000000000000D+00  0.0000000000000D+00
   395  3.9400000000000D+00  0.0000000000000D+00  0.0000000000000D+00
   396  3.9500000000000D+00  0.0000000000000D+00  0.0000000000000D+00
   397  3.9600000000000D+00  0.0000000000000D+00  0.0000000000000D+00
   398  3.9700000000000D+00  0.0000000000000D+00  0.0000000000000D+00
   399  3.9800000000000D+00  0.0000000000000D+00  0.0000000000000D+00
   400  3.9900000000000D+00  0.0000000000000D+00  0.0000000000000D+00
   401  4.0000000000000D+00  0.0000000000000D+00  0.0000000000000D+00
   402  4.0100000000000D+00  0.0000000000000D+00  0.0000000000000D+00
   403  4.0200000000000D+00  0.0000000000000D+00  0.0000000000000D+00
   404  4.0300000000000D+00  0.0000000000000D+00  0.0000000000000D+00
   405  4.0400000000000D+00  0.0000000000000D+00  0.0000000000000D+00
   406  4.0500000000000D+00  0.0000000000000D+00  0.0000000000000D+00
   407  4.0600000000000D+00  0.0000000000000D+00  0.0000000000000D+00
   408  4.0700000000000D+00  0.0000000000000D+00  0.0000000000000D+00
   409  4.0800000000000D+00  0.0000000000000D+00  0.0000000000000D+00
   410  4.0900000000000D+00  0.0000000000000D+00  0.0000000000000D+00
   411  4.1000000000000D+00  0.0000000000000D+00  0.0000000000000D+00
   412  4.1100000000000D+00  0.0000000000000D+00  0.0000000000000D+00
   413  4.1200000000000D+00  0.0000000000000D+00  0.0000000000000D+00
   414  4.1300000000000D+00  0.0000000000000D+00  0.0000000000000D+00
   415  4.1400000000000D+00  0.0000000000000D+00  0.0000000000000D+00
   416  4.1500000000000D+00  0.0000000000000D+00  0.0000000000000D+00
   417  4.1600000000000D+00  0.0000000000000D+00  0.0000000000000D+00
   418  4.1700000000000D+00  0.0000000000000D+00  0.0000000000000D+00
   419  4.1800000000000D+00  0.0000000000000D+00  0.0000000000000D+00
   420  4.1900000000000D+00  0.0000000000000D+00  0.0000000000000D+00
   421  4.2000000000000D+00  0.0000000000000D+00  0.0000000000000D+00
   422  4.2100000000000D+00  0.0000000000000D+00  0.0000000000000D+00