Na    ONCVPSP-3.3.1  r_core=   1.47844   2.29870
     11.0000      9.0000      210904    zatom,zion,pspd
     8       2   1     4   600     0    pspcod,pspxc,lmax,lloc,mmax,r2well
  5.99000000  0.00000000  0.00000000    rchrg fchrg qchrg
     2     2     0     0     0    nproj
     1     1           extension_switch
   0                         2.8336380284956D+00 -1.2042695266785D+00
     1  0.0000000000000D+00 -8.7725671171768D-10  1.7143172992284D-10
     2  1.0000000000000D-02  1.3095168924936D-01  2.3986959088678D-02
     3  2.0000000000000D-02  2.6121316748745D-01  4.8046585364147D-02
     4  3.0000000000000D-02  3.9009852742273D-01  7.2250807262448D-02
     5  4.0000000000000D-02  5.1693043917247D-01  9.6670081404380D-02
     6  5.0000000000000D-02  6.4104436411436D-01  1.2137267085980D-01
     7  6.0000000000000D-02  7.6179267953882D-01  1.4642394029615D-01
     8  7.0000000000000D-02  8.7854868540455D-01  1.7188567343698D-01
     9  8.0000000000000D-02  9.9071046537663D-01  1.9781541808452D-01
    10  9.0000000000000D-02  1.0977045754109D+00  2.2426586374909D-01
    11  1.0000000000000D-01  1.1989895344309D+00  2.5128425667725D-01
    12  1.1000000000000D-01  1.2940590931138D+00  2.7891185678404D-01
    13  1.2000000000000D-01  1.3824452584528D+00  3.0718344067291D-01
    14  1.3000000000000D-01  1.4637210535732D+00  3.3612685457384D-01
    15  1.4000000000000D-01  1.5375029942485D+00  3.6576262064790D-01
    16  1.5000000000000D-01  1.6034532656599D+00  3.9610359969791D-01
    17  1.6000000000000D-01  1.6612815851643D+00  4.2715471289388D-01
    18  1.7000000000000D-01  1.7107467391617D+00  4.5891272467100D-01
    19  1.8000000000000D-01  1.7516577845573D+00  4.9136608849170D-01
    20  1.9000000000000D-01  1.7838749077951D+00  5.2449485668420D-01
    21  2.0000000000000D-01  1.8073099369586D+00  5.5827065508299D-01
    22  2.1000000000000D-01  1.8219265049879D+00  5.9265672270450D-01
    23  2.2000000000000D-01  1.8277398646261D+00  6.2760801619873D-01
    24  2.3000000000000D-01  1.8248163582534D+00  6.6307137832765D-01
    25  2.4000000000000D-01  1.8132725482921D+00  6.9898576923877D-01
    26  2.5000000000000D-01  1.7932740163333D+00  7.3528255882954D-01
    27  2.6000000000000D-01  1.7650338415378D+00  7.7188587804081D-01
    28  2.7000000000000D-01  1.7288107711815D+00  8.0871302647715D-01
    29  2.8000000000000D-01  1.6849070984205D+00  8.4567493333310D-01
    30  2.9000000000000D-01  1.6336662644445D+00  8.8267666821001D-01
    31  3.0000000000000D-01  1.5754702041312D+00  9.1961799804095D-01
    32  3.1000000000000D-01  1.5107364561181D+00  9.5639398600463D-01
    33  3.2000000000000D-01  1.4399150598327D+00  9.9289562800517D-01
    34  3.3000000000000D-01  1.3634852634774D+00  1.0290105220255D+00
    35  3.4000000000000D-01  1.2819520682251D+00  1.0646235654307D+00
    36  3.5000000000000D-01  1.1958426349439D+00  1.0996176751034D+00
    37  3.6000000000000D-01  1.1057025806227D+00  1.1338745251417D+00
    38  3.7000000000000D-01  1.0120921923097D+00  1.1672752967360D+00
    39  3.8000000000000D-01  9.1558258679850D-01  1.1997014347732D+00
    40  3.9000000000000D-01  8.1675184449442D-01  1.2310354056863D+00
    41  4.0000000000000D-01  7.1618114587434D-01  1.2611614510834D+00
    42  4.1000000000000D-01  6.1445093870672D-01  1.2899663317442D+00
    43  4.2000000000000D-01  5.1213716373721D-01  1.3173400566724D+00
    44  4.3000000000000D-01  4.0980756586639D-01  1.3431765920245D+00
    45  4.4000000000000D-01  3.0801811695975D-01  1.3673745449182D+00
    46  4.5000000000000D-01  2.0730957534217D-01  1.3898378173325D+00
    47  4.6000000000000D-01  1.0820420574925D-01  1.4104762255619D+00
    48  4.7000000000000D-01  1.1202682048437D-02  1.4292060809710D+00
    49  4.8000000000000D-01 -8.3218806586371D-02  1.4459507281070D+00
    50  4.9000000000000D-01 -1.7461122714506D-01  1.4606410365690D+00
    51  5.0000000000000D-01 -2.6255513491692D-01  1.4732158434008D+00
    52  5.1000000000000D-01 -3.4666285135714D-01  1.4836223431603D+00
    53  5.2000000000000D-01 -4.2658037490050D-01  1.4918164232286D+00
    54  5.3000000000000D-01 -5.0198901417554D-01  1.4977629423420D+00
    55  5.4000000000000D-01 -5.7260673538005D-01  1.5014359507671D+00
    56  5.5000000000000D-01 -6.3818921793499D-01  1.5028188509822D+00
    57  5.6000000000000D-01 -6.9853061491574D-01  1.5019044981750D+00
    58  5.7000000000000D-01 -7.5346401715903D-01  1.4986952403195D+00
    59  5.8000000000000D-01 -8.0286162232055D-01  1.4932028980366D+00
    60  5.9000000000000D-01 -8.4663461251731D-01  1.4854486848903D+00
    61  6.0000000000000D-01 -8.8473274648250D-01  1.4754630691991D+00
    62  6.1000000000000D-01 -9.1714367440121D-01  1.4632855788610D+00
    63  6.2000000000000D-01 -9.4389198572739D-01  1.4489645510970D+00
    64  6.3000000000000D-01 -9.6503800232935D-01  1.4325568293978D+00
    65  6.4000000000000D-01 -9.8067633121680D-01  1.4141274103218D+00
    66  6.5000000000000D-01 -9.9093419287793D-01  1.3937490431308D+00
    67  6.6000000000000D-01 -9.9596954287865D-01  1.3715017855578D+00
    68  6.7000000000000D-01 -9.9596900582544D-01  1.3474725192822D+00
    69  6.8000000000000D-01 -9.9114564206969D-01  1.3217544289380D+00
    70  6.9000000000000D-01 -9.8173656862050D-01  1.2944464486959D+00
    71  7.0000000000000D-01 -9.6800045662032D-01  1.2656526806427D+00
    72  7.1000000000000D-01 -9.5021492842590D-01  1.2354817893264D+00
    73  7.2000000000000D-01 -9.2867387781596D-01  1.2040463769492D+00
    74  7.3000000000000D-01 -9.0368473711577D-01  1.1714623437595D+00
    75  7.4000000000000D-01 -8.7556571508467D-01  1.1378482382368D+00
    76  7.5000000000000D-01 -8.4464302925947D-01  1.1033246016583D+00
    77  7.6000000000000D-01 -8.1124815608328D-01  1.0680133116057D+00
    78  7.7000000000000D-01 -7.7571512158834D-01  1.0320369288960D+00
    79  7.8000000000000D-01 -7.3837785463702D-01  9.9551805231965D-01
    80  7.9000000000000D-01 -6.9956762377838D-01  9.5857868542753D-01
    81  8.0000000000000D-01 -6.5961057765164D-01  9.2133961944368D-01
    82  8.1000000000000D-01 -6.1882540757538D-01  8.8391983618158D-01
    83  8.2000000000000D-01 -5.7752114951682D-01  8.4643593461715D-01
    84  8.3000000000000D-01 -5.3599514105259D-01  8.0900158452286D-01
    85  8.4000000000000D-01 -4.9453114722745D-01  7.7172701029588D-01
    86  8.5000000000000D-01 -4.5339766740701D-01  7.3471850782197D-01
    87  8.6000000000000D-01 -4.1284643332246D-01  6.9807799690961D-01
    88  8.7000000000000D-01 -3.7311110653871D-01  6.6190261150687D-01
    89  8.8000000000000D-01 -3.3440618156031D-01  6.2628432958187D-01
    90  8.9000000000000D-01 -2.9692609874279D-01  5.9130964420699D-01
    91  9.0000000000000D-01 -2.6084456911912D-01  5.5705927704276D-01
    92  9.1000000000000D-01 -2.2631411120250D-01  5.2360793507055D-01
    93  9.2000000000000D-01 -1.9346579780651D-01  4.9102411107822D-01
    94  9.3000000000000D-01 -1.6240920895126D-01  4.5936992806215D-01
    95  9.4000000000000D-01 -1.3323258501766D-01  4.2870102737531D-01
    96  9.5000000000000D-01 -1.0600317249162D-01  3.9906650012774D-01
    97  9.6000000000000D-01 -8.0767752907367D-02  3.7050886103259D-01
    98  9.7000000000000D-01 -5.7553344018161D-02  3.4306406359911D-01
    99  9.8000000000000D-01 -3.6368060723588D-02  3.1676155529057D-01
   100  9.9000000000000D-01 -1.7202121962068D-02  2.9162437100682D-01
   101  1.0000000000000D+00 -2.8988606135933D-05  2.6766926301378D-01
   102  1.0100000000000D+00  1.5193383614597D-02  2.4490686522523D-01
   103  1.0200000000000D+00  2.8521192971634D-02  2.2334188955153D-01
   104  1.0300000000000D+00  4.0023359843838D-02  2.0297335186126D-01
   105  1.0400000000000D+00  4.9780031993949D-02  1.8379482496699D-01
   106  1.0500000000000D+00  5.7881045244086D-02  1.6579471592649D-01
   107  1.0600000000000D+00  6.4424357855772D-02  1.4895656486703D-01
   108  1.0700000000000D+00  6.9514476835851D-02  1.3325936248145D-01
   109  1.0800000000000D+00  7.3260894095244D-02  1.1867788331151D-01
   110  1.0900000000000D+00  7.5776549951302D-02  1.0518303192908D-01
   111  1.1000000000000D+00  7.7176340858831D-02  9.2742199140549D-02
   112  1.1100000000000D+00  7.7575687407618D-02  8.1319625389478D-02
   113  1.1200000000000D+00  7.7089177735760D-02  7.0876768596342D-02
   114  1.1300000000000D+00  7.5829300304369D-02  6.1372673775490D-02
   115  1.1400000000000D+00  7.3905279061262D-02  5.2764341849953D-02
   116  1.1500000000000D+00  7.1422022313859D-02  4.5007095251144D-02
   117  1.1600000000000D+00  6.8479195450404D-02  3.8054938013949D-02
   118  1.1700000000000D+00  6.5170425977845D-02  3.1860908256285D-02
   119  1.1800000000000D+00  6.1582648142790D-02  2.6377421062332D-02
   120  1.1900000000000D+00  5.7795592249065D-02  2.1556600034122D-02
   121  1.2000000000000D+00  5.3881422349454D-02  1.7350595947607D-02
   122  1.2100000000000D+00  4.9904524662160D-02  1.3711891105506D-02
   123  1.2200000000000D+00  4.5921446985440D-02  1.0593588231213D-02
   124  1.2300000000000D+00  4.1980987748793D-02  7.9496829566377D-03
   125  1.2400000000000D+00  3.8124432019279D-02  5.7353191269261D-03
   126  1.2500000000000D+00  3.4385930385923D-02  3.9070263216830D-03
   127  1.2600000000000D+00  3.0793014511560D-02  2.4229392819500D-03
   128  1.2700000000000D+00  2.7367242373833D-02  1.2429990454580D-03
   129  1.2800000000000D+00  2.4124965205012D-02  3.2913572387250D-04
   130  1.2900000000000D+00  2.1078210995122D-02 -3.5456631938967D-04
   131  1.3000000000000D+00  1.8235659594998D-02 -8.4172231780669D-04
   132  1.3100000000000D+00  1.5603677422156D-02 -1.1635204628774D-03
   133  1.3200000000000D+00  1.3187395934852D-02 -1.3486175029355D-03
   134  1.3300000000000D+00  1.0992687037986D-02 -1.4229631579898D-03
   135  1.3400000000000D+00  9.0249387138383D-03 -1.4099760526411D-03
   136  1.3500000000000D+00  7.2870779460851D-03 -1.3307931627032D-03
   137  1.3600000000000D+00  5.7771315179397D-03 -1.2045127755951D-03
   138  1.3700000000000D+00  4.4879273436374D-03 -1.0482222215029D-03
   139  1.3800000000000D+00  3.4085864518383D-03 -8.7683520088205D-04
   140  1.3900000000000D+00  2.5248950337433D-03 -7.0307035334052D-04
   141  1.4000000000000D+00  1.8200627711905D-03 -5.3739425355934D-04
   142  1.4100000000000D+00  1.2753313873364D-03 -3.8798876364800D-04
   143  1.4200000000000D+00  8.7057138227246D-04 -2.6072466849235D-04
   144  1.4300000000000D+00  5.8503703216483D-04 -1.5912722207510D-04
   145  1.4400000000000D+00  3.9702434655333D-04 -8.4435411789041D-05
   146  1.4500000000000D+00  2.8181769763205D-04 -3.5619560724617D-05
   147  1.4600000000000D+00  2.2821348465607D-04 -8.9304533065580D-06
   148  1.4700000000000D+00  2.2699783077705D-04  1.4409755323255D-06
   149  1.4800000000000D+00  1.8917667120110D-04  2.6543118757419D-06
   150  1.4900000000000D+00  6.8283249683557D-05  9.5803650853580D-07
   151  1.5000000000000D+00 -1.6534742426403D-05 -2.8908531676066D-07
   152  1.5100000000000D+00 -1.1873171404938D-05 -2.0939162967276D-07
   153  1.5200000000000D+00  4.3811229447108D-06  8.6076598977526D-08
   154  1.5300000000000D+00  1.6766534870333D-06  3.3647909119750D-08
   155  1.5400000000000D+00 -5.6914030071969D-07 -7.7355404296120D-09
   156  1.5500000000000D+00 -6.4145238650017D-08 -8.7183790414572D-10
   157  1.5600000000000D+00  0.0000000000000D+00  0.0000000000000D+00
   158  1.5700000000000D+00  0.0000000000000D+00  0.0000000000000D+00
   159  1.5800000000000D+00  0.0000000000000D+00  0.0000000000000D+00
   160  1.5900000000000D+00  0.0000000000000D+00  0.0000000000000D+00
   161  1.6000000000000D+00  0.0000000000000D+00  0.0000000000000D+00
   162  1.6100000000000D+00  0.0000000000000D+00  0.0000000000000D+00
   163  1.6200000000000D+00  0.0000000000000D+00  0.0000000000000D+00
   164  1.6300000000000D+00  0.0000000000000D+00  0.0000000000000D+00
   165  1.6400000000000D+00  0.0000000000000D+00  0.0000000000000D+00
   166  1.6500000000000D+00  0.0000000000000D+00  0.0000000000000D+00
   167  1.6600000000000D+00  0.0000000000000D+00  0.0000000000000D+00
   168  1.6700000000000D+00  0.0000000000000D+00  0.0000000000000D+00
   169  1.6800000000000D+00  0.0000000000000D+00  0.0000000000000D+00
   170  1.6900000000000D+00  0.0000000000000D+00  0.0000000000000D+00
   171  1.7000000000000D+00  0.0000000000000D+00  0.0000000000000D+00
   172  1.7100000000000D+00  0.0000000000000D+00  0.0000000000000D+00
   173  1.7200000000000D+00  0.0000000000000D+00  0.0000000000000D+00
   174  1.7300000000000D+00  0.0000000000000D+00  0.0000000000000D+00
   175  1.7400000000000D+00  0.0000000000000D+00  0.0000000000000D+00
   176  1.7500000000000D+00  0.0000000000000D+00  0.0000000000000D+00
   177  1.7600000000000D+00  0.0000000000000D+00  0.0000000000000D+00
   178  1.7700000000000D+00  0.0000000000000D+00  0.0000000000000D+00
   179  1.7800000000000D+00  0.0000000000000D+00  0.0000000000000D+00
   180  1.7900000000000D+00  0.0000000000000D+00  0.0000000000000D+00
   181  1.8000000000000D+00  0.0000000000000D+00  0.0000000000000D+00
   182  1.8100000000000D+00  0.0000000000000D+00  0.0000000000000D+00
   183  1.8200000000000D+00  0.0000000000000D+00  0.0000000000000D+00
   184  1.8300000000000D+00  0.0000000000000D+00  0.0000000000000D+00
   185  1.8400000000000D+00  0.0000000000000D+00  0.0000000000000D+00
   186  1.8500000000000D+00  0.0000000000000D+00  0.0000000000000D+00
   187  1.8600000000000D+00  0.0000000000000D+00  0.0000000000000D+00
   188  1.8700000000000D+00  0.0000000000000D+00  0.0000000000000D+00
   189  1.8800000000000D+00  0.0000000000000D+00  0.0000000000000D+00
   190  1.8900000000000D+00  0.0000000000000D+00  0.0000000000000D+00
   191  1.9000000000000D+00  0.0000000000000D+00  0.0000000000000D+00
   192  1.9100000000000D+00  0.0000000000000D+00  0.0000000000000D+00
   193  1.9200000000000D+00  0.0000000000000D+00  0.0000000000000D+00
   194  1.9300000000000D+00  0.0000000000000D+00  0.0000000000000D+00
   195  1.9400000000000D+00  0.0000000000000D+00  0.0000000000000D+00
   196  1.9500000000000D+00  0.0000000000000D+00  0.0000000000000D+00
   197  1.9600000000000D+00  0.0000000000000D+00  0.0000000000000D+00
   198  1.9700000000000D+00  0.0000000000000D+00  0.0000000000000D+00
   199  1.9800000000000D+00  0.0000000000000D+00  0.0000000000000D+00
   200  1.9900000000000D+00  0.0000000000000D+00  0.0000000000000D+00
   201  2.0000000000000D+00  0.0000000000000D+00  0.0000000000000D+00
   202  2.0100000000000D+00  0.0000000000000D+00  0.0000000000000D+00
   203  2.0200000000000D+00  0.0000000000000D+00  0.0000000000000D+00
   204  2.0300000000000D+00  0.0000000000000D+00  0.0000000000000D+00
   205  2.0400000000000D+00  0.0000000000000D+00  0.0000000000000D+00
   206  2.0500000000000D+00  0.0000000000000D+00  0.0000000000000D+00
   207  2.0600000000000D+00  0.0000000000000D+00  0.0000000000000D+00
   208  2.0700000000000D+00  0.0000000000000D+00  0.0000000000000D+00
   209  2.0800000000000D+00  0.0000000000000D+00  0.0000000000000D+00
   210  2.0900000000000D+00  0.0000000000000D+00  0.0000000000000D+00
   211  2.1000000000000D+00  0.0000000000000D+00  0.0000000000000D+00
   212  2.1100000000000D+00  0.0000000000000D+00  0.0000000000000D+00
   213  2.1200000000000D+00  0.0000000000000D+00  0.0000000000000D+00
   214  2.1300000000000D+00  0.0000000000000D+00  0.0000000000000D+00
   215  2.1400000000000D+00  0.0000000000000D+00  0.0000000000000D+00
   216  2.1500000000000D+00  0.0000000000000D+00  0.0000000000000D+00
   217  2.1600000000000D+00  0.0000000000000D+00  0.0000000000000D+00
   218  2.1700000000000D+00  0.0000000000000D+00  0.0000000000000D+00
   219  2.1800000000000D+00  0.0000000000000D+00  0.0000000000000D+00
   220  2.1900000000000D+00  0.0000000000000D+00  0.0000000000000D+00
   221  2.2000000000000D+00  0.0000000000000D+00  0.0000000000000D+00
   222  2.2100000000000D+00  0.0000000000000D+00  0.0000000000000D+00
   223  2.2200000000000D+00  0.0000000000000D+00  0.0000000000000D+00
   224  2.2300000000000D+00  0.0000000000000D+00  0.0000000000000D+00
   225  2.2400000000000D+00  0.0000000000000D+00  0.0000000000000D+00
   226  2.2500000000000D+00  0.0000000000000D+00  0.0000000000000D+00
   227  2.2600000000000D+00  0.0000000000000D+00  0.0000000000000D+00
   228  2.2700000000000D+00  0.0000000000000D+00  0.0000000000000D+00
   229  2.2800000000000D+00  0.0000000000000D+00  0.0000000000000D+00
   230  2.2900000000000D+00  0.0000000000000D+00  0.0000000000000D+00
   231  2.3000000000000D+00  0.0000000000000D+00  0.0000000000000D+00
   232  2.3100000000000D+00  0.0000000000000D+00  0.0000000000000D+00
   233  2.3200000000000D+00  0.0000000000000D+00  0.0000000000000D+00
   234  2.3300000000000D+00  0.0000000000000D+00  0.0000000000000D+00
   235  2.3400000000000D+00  0.0000000000000D+00  0.0000000000000D+00
   236  2.3500000000000D+00  0.0000000000000D+00  0.0000000000000D+00
   237  2.3600000000000D+00  0.0000000000000D+00  0.0000000000000D+00
   238  2.3700000000000D+00  0.0000000000000D+00  0.0000000000000D+00
   239  2.3800000000000D+00  0.0000000000000D+00  0.0000000000000D+00
   240  2.3900000000000D+00  0.0000000000000D+00  0.0000000000000D+00
   241  2.4000000000000D+00  0.0000000000000D+00  0.0000000000000D+00
   242  2.4100000000000D+00  0.0000000000000D+00  0.0000000000000D+00
   243  2.4200000000000D+00  0.0000000000000D+00  0.0000000000000D+00
   244  2.4300000000000D+00  0.0000000000000D+00  0.0000000000000D+00
   245  2.4400000000000D+00  0.0000000000000D+00  0.0000000000000D+00
   246  2.4500000000000D+00  0.0000000000000D+00  0.0000000000000D+00
   247  2.4600000000000D+00  0.0000000000000D+00  0.0000000000000D+00
   248  2.4700000000000D+00  0.0000000000000D+00  0.0000000000000D+00
   249  2.4800000000000D+00  0.0000000000000D+00  0.0000000000000D+00
   250  2.4900000000000D+00  0.0000000000000D+00  0.0000000000000D+00
   251  2.5000000000000D+00  0.0000000000000D+00  0.0000000000000D+00
   252  2.5100000000000D+00  0.0000000000000D+00  0.0000000000000D+00
   253  2.5200000000000D+00  0.0000000000000D+00  0.0000000000000D+00
   254  2.5300000000000D+00  0.0000000000000D+00  0.0000000000000D+00
   255  2.5400000000000D+00  0.0000000000000D+00  0.0000000000000D+00
   256  2.5500000000000D+00  0.0000000000000D+00  0.0000000000000D+00
   257  2.5600000000000D+00  0.0000000000000D+00  0.0000000000000D+00
   258  2.5700000000000D+00  0.0000000000000D+00  0.0000000000000D+00
   259  2.5800000000000D+00  0.0000000000000D+00  0.0000000000000D+00
   260  2.5900000000000D+00  0.0000000000000D+00  0.0000000000000D+00
   261  2.6000000000000D+00  0.0000000000000D+00  0.0000000000000D+00
   262  2.6100000000000D+00  0.0000000000000D+00  0.0000000000000D+00
   263  2.6200000000000D+00  0.0000000000000D+00  0.0000000000000D+00
   264  2.6300000000000D+00  0.0000000000000D+00  0.0000000000000D+00
   265  2.6400000000000D+00  0.0000000000000D+00  0.0000000000000D+00
   266  2.6500000000000D+00  0.0000000000000D+00  0.0000000000000D+00
   267  2.6600000000000D+00  0.0000000000000D+00  0.0000000000000D+00
   268  2.6700000000000D+00  0.0000000000000D+00  0.0000000000000D+00
   269  2.6800000000000D+00  0.0000000000000D+00  0.0000000000000D+00
   270  2.6900000000000D+00  0.0000000000000D+00  0.0000000000000D+00
   271  2.7000000000000D+00  0.0000000000000D+00  0.0000000000000D+00
   272  2.7100000000000D+00  0.0000000000000D+00  0.0000000000000D+00
   273  2.7200000000000D+00  0.0000000000000D+00  0.0000000000000D+00
   274  2.7300000000000D+00  0.0000000000000D+00  0.0000000000000D+00
   275  2.7400000000000D+00  0.0000000000000D+00  0.0000000000000D+00
   276  2.7500000000000D+00  0.0000000000000D+00  0.0000000000000D+00
   277  2.7600000000000D+00  0.0000000000000D+00  0.0000000000000D+00
   278  2.7700000000000D+00  0.0000000000000D+00  0.0000000000000D+00
   279  2.7800000000000D+00  0.0000000000000D+00  0.0000000000000D+00
   280  2.7900000000000D+00  0.0000000000000D+00  0.0000000000000D+00
   281  2.8000000000000D+00  0.0000000000000D+00  0.0000000000000D+00
   282  2.8100000000000D+00  0.0000000000000D+00  0.0000000000000D+00
   283  2.8200000000000D+00  0.0000000000000D+00  0.0000000000000D+00
   284  2.8300000000000D+00  0.0000000000000D+00  0.0000000000000D+00
   285  2.8400000000000D+00  0.0000000000000D+00  0.0000000000000D+00
   286  2.8500000000000D+00  0.0000000000000D+00  0.0000000000000D+00
   287  2.8600000000000D+00  0.0000000000000D+00  0.0000000000000D+00
   288  2.8700000000000D+00  0.0000000000000D+00  0.0000000000000D+00
   289  2.8800000000000D+00  0.0000000000000D+00  0.0000000000000D+00
   290  2.8900000000000D+00  0.0000000000000D+00  0.0000000000000D+00
   291  2.9000000000000D+00  0.0000000000000D+00  0.0000000000000D+00
   292  2.9100000000000D+00  0.0000000000000D+00  0.0000000000000D+00
   293  2.9200000000000D+00  0.0000000000000D+00  0.0000000000000D+00
   294  2.9300000000000D+00  0.0000000000000D+00  0.0000000000000D+00
   295  2.9400000000000D+00  0.0000000000000D+00  0.0000000000000D+00
   296  2.9500000000000D+00  0.0000000000000D+00  0.0000000000000D+00
   297  2.9600000000000D+00  0.0000000000000D+00  0.0000000000000D+00
   298  2.9700000000000D+00  0.0000000000000D+00  0.0000000000000D+00
   299  2.9800000000000D+00  0.0000000000000D+00  0.0000000000000D+00
   300  2.9900000000000D+00  0.0000000000000D+00  0.0000000000000D+00
   301  3.0000000000000D+00  0.0000000000000D+00  0.0000000000000D+00
   302  3.0100000000000D+00  0.0000000000000D+00  0.0000000000000D+00
   303  3.0200000000000D+00  0.0000000000000D+00  0.0000000000000D+00
   304  3.0300000000000D+00  0.0000000000000D+00  0.0000000000000D+00
   305  3.0400000000000D+00  0.0000000000000D+00  0.0000000000000D+00
   306  3.0500000000000D+00  0.0000000000000D+00  0.0000000000000D+00
   307  3.0600000000000D+00  0.0000000000000D+00  0.0000000000000D+00
   308  3.0700000000000D+00  0.0000000000000D+00  0.0000000000000D+00
   309  3.0800000000000D+00  0.0000000000000D+00  0.0000000000000D+00
   310  3.0900000000000D+00  0.0000000000000D+00  0.0000000000000D+00
   311  3.1000000000000D+00  0.0000000000000D+00  0.0000000000000D+00
   312  3.1100000000000D+00  0.0000000000000D+00  0.0000000000000D+00
   313  3.1200000000000D+00  0.0000000000000D+00  0.0000000000000D+00
   314  3.1300000000000D+00  0.0000000000000D+00  0.0000000000000D+00
   315  3.1400000000000D+00  0.0000000000000D+00  0.0000000000000D+00
   316  3.1500000000000D+00  0.0000000000000D+00  0.0000000000000D+00
   317  3.1600000000000D+00  0.0000000000000D+00  0.0000000000000D+00
   318  3.1700000000000D+00  0.0000000000000D+00  0.0000000000000D+00
   319  3.1800000000000D+00  0.0000000000000D+00  0.0000000000000D+00
   320  3.1900000000000D+00  0.0000000000000D+00  0.0000000000000D+00
   321  3.2000000000000D+00  0.0000000000000D+00  0.0000000000000D+00
   322  3.2100000000000D+00  0.0000000000000D+00  0.0000000000000D+00
   323  3.2200000000000D+00  0.0000000000000D+00  0.0000000000000D+00
   324  3.2300000000000D+00  0.0000000000000D+00  0.0000000000000D+00
   325  3.2400000000000D+00  0.0000000000000D+00  0.0000000000000D+00
   326  3.2500000000000D+00  0.0000000000000D+00  0.0000000000000D+00
   327  3.2600000000000D+00  0.0000000000000D+00  0.0000000000000D+00
   328  3.2700000000000D+00  0.0000000000000D+00  0.0000000000000D+00
   329  3.2800000000000D+00  0.0000000000000D+00  0.0000000000000D+00
   330  3.2900000000000D+00  0.0000000000000D+00  0.0000000000000D+00
   331  3.3000000000000D+00  0.0000000000000D+00  0.0000000000000D+00
   332  3.3100000000000D+00  0.0000000000000D+00  0.0000000000000D+00
   333  3.3200000000000D+00  0.0000000000000D+00  0.0000000000000D+00
   334  3.3300000000000D+00  0.0000000000000D+00  0.0000000000000D+00
   335  3.3400000000000D+00  0.0000000000000D+00  0.0000000000000D+00
   336  3.3500000000000D+00  0.0000000000000D+00  0.0000000000000D+00
   337  3.3600000000000D+00  0.0000000000000D+00  0.0000000000000D+00
   338  3.3700000000000D+00  0.0000000000000D+00  0.0000000000000D+00
   339  3.3800000000000D+00  0.0000000000000D+00  0.0000000000000D+00
   340  3.3900000000000D+00  0.0000000000000D+00  0.0000000000000D+00
   341  3.4000000000000D+00  0.0000000000000D+00  0.0000000000000D+00
   342  3.4100000000000D+00  0.0000000000000D+00  0.0000000000000D+00
   343  3.4200000000000D+00  0.0000000000000D+00  0.0000000000000D+00
   344  3.4300000000000D+00  0.0000000000000D+00  0.0000000000000D+00
   345  3.4400000000000D+00  0.0000000000000D+00  0.0000000000000D+00
   346  3.4500000000000D+00  0.0000000000000D+00  0.0000000000000D+00
   347  3.4600000000000D+00  0.0000000000000D+00  0.0000000000000D+00
   348  3.4700000000000D+00  0.0000000000000D+00  0.0000000000000D+00
   349  3.4800000000000D+00  0.0000000000000D+00  0.0000000000000D+00
   350  3.4900000000000D+00  0.0000000000000D+00  0.0000000000000D+00
   351  3.5000000000000D+00  0.0000000000000D+00  0.0000000000000D+00
   352  3.5100000000000D+00  0.0000000000000D+00  0.0000000000000D+00
   353  3.5200000000000D+00  0.0000000000000D+00  0.0000000000000D+00
   354  3.5300000000000D+00  0.0000000000000D+00  0.0000000000000D+00
   355  3.5400000000000D+00  0.0000000000000D+00  0.0000000000000D+00
   356  3.5500000000000D+00  0.0000000000000D+00  0.0000000000000D+00
   357  3.5600000000000D+00  0.0000000000000D+00  0.0000000000000D+00
   358  3.5700000000000D+00  0.0000000000000D+00  0.0000000000000D+00
   359  3.5800000000000D+00  0.0000000000000D+00  0.0000000000000D+00
   360  3.5900000000000D+00  0.0000000000000D+00  0.0000000000000D+00
   361  3.6000000000000D+00  0.0000000000000D+00  0.0000000000000D+00
   362  3.6100000000000D+00  0.0000000000000D+00  0.0000000000000D+00
   363  3.6200000000000D+00  0.0000000000000D+00  0.0000000000000D+00
   364  3.6300000000000D+00  0.0000000000000D+00  0.0000000000000D+00
   365  3.6400000000000D+00  0.0000000000000D+00  0.0000000000000D+00
   366  3.6500000000000D+00  0.0000000000000D+00  0.0000000000000D+00
   367  3.6600000000000D+00  0.0000000000000D+00  0.0000000000000D+00
   368  3.6700000000000D+00  0.0000000000000D+00  0.0000000000000D+00
   369  3.6800000000000D+00  0.0000000000000D+00  0.0000000000000D+00
   370  3.6900000000000D+00  0.0000000000000D+00  0.0000000000000D+00
   371  3.7000000000000D+00  0.0000000000000D+00  0.0000000000000D+00
   372  3.7100000000000D+00  0.0000000000000D+00  0.0000000000000D+00
   373  3.7200000000000D+00  0.0000000000000D+00  0.0000000000000D+00
   374  3.7300000000000D+00  0.0000000000000D+00  0.0000000000000D+00
   375  3.7400000000000D+00  0.0000000000000D+00  0.0000000000000D+00
   376  3.7500000000000D+00  0.0000000000000D+00  0.0000000000000D+00
   377  3.7600000000000D+00  0.0000000000000D+00  0.0000000000000D+00
   378  3.7700000000000D+00  0.0000000000000D+00  0.0000000000000D+00
   379  3.7800000000000D+00  0.0000000000000D+00  0.0000000000000D+00
   380  3.7900000000000D+00  0.0000000000000D+00  0.0000000000000D+00
   381  3.8000000000000D+00  0.0000000000000D+00  0.0000000000000D+00
   382  3.8100000000000D+00  0.0000000000000D+00  0.0000000000000D+00
   383  3.8200000000000D+00  0.0000000000000D+00  0.0000000000000D+00
   384  3.8300000000000D+00  0.0000000000000D+00  0.0000000000000D+00
   385  3.8400000000000D+00  0.0000000000000D+00  0.0000000000000D+00
   386  3.8500000000000D+00  0.0000000000000D+00  0.0000000000000D+00
   387  3.8600000000000D+00  0.0000000000000D+00  0.0000000000000D+00
   388  3.8700000000000D+00  0.0000000000000D+00  0.0000000000000D+00
   389  3.8800000000000D+00  0.0000000000000D+00  0.0000000000000D+00
   390  3.8900000000000D+00  0.0000000000000D+00  0.0000000000000D+00
   391  3.9000000000000D+00  0.0000000000000D+00  0.0000000000000D+00
   392  3.9100000000000D+00  0.0000000000000D+00  0.0000000000000D+00
   393  3.9200000000000D+00  0.0000000000000D+00  0.0000000000000D+00
   394  3.9300000000000D+00  0.0000000000000D+00  0.0000000000000D+00
   395  3.9400000000000D+00  0.0000000000000D+00  0.0000000000000D+00
   396  3.9500000000000D+00  0.0000000000000D+00  0.0000000000000D+00
   397  3.9600000000000D+00  0.0000000000000D+00  0.0000000000000D+00
   398  3.9700000000000D+00  0.0000000000000D+00  0.0000000000000D+00
   399  3.9800000000000D+00  0.0000000000000D+00  0.0000000000000D+00
   400  3.9900000000000D+00  0.0000000000000D+00  0.0000000000000D+00
   401  4.0000000000000D+00  0.0000000000000D+00  0.0000000000000D+00
   402  4.0100000000000D+00  0.0000000000000D+00  0.0000000000000D+00
   403  4.0200000000000D+00  0.0000000000000D+00  0.0000000000000D+00
   404  4.0300000000000D+00  0.0000000000000D+00  0.0000000000000D+00
   405  4.0400000000000D+00  0.0000000000000D+00  0.0000000000000D+00
   406  4.0500000000000D+00  0.0000000000000D+00  0.0000000000000D+00
   407  4.0600000000000D+00  0.0000000000000D+00  0.0000000000000D+00
   408  4.0700000000000D+00  0.0000000000000D+00  0.0000000000000D+00
   409  4.0800000000000D+00  0.0000000000000D+00  0.0000000000000D+00
   410  4.0900000000000D+00  0.0000000000000D+00  0.0000000000000D+00
   411  4.1000000000000D+00  0.0000000000000D+00  0.0000000000000D+00
   412  4.1100000000000D+00  0.0000000000000D+00  0.0000000000000D+00
   413  4.1200000000000D+00  0.0000000000000D+00  0.0000000000000D+00
   414  4.1300000000000D+00  0.0000000000000D+00  0.0000000000000D+00
   415  4.1400000000000D+00  0.0000000000000D+00  0.0000000000000D+00
   416  4.1500000000000D+00  0.0000000000000D+00  0.0000000000000D+00
   417  4.1600000000000D+00  0.0000000000000D+00  0.0000000000000D+00
   418  4.1700000000000D+00  0.0000000000000D+00  0.0000000000000D+00
   419  4.1800000000000D+00  0.0000000000000D+00  0.0000000000000D+00
   420  4.1900000000000D+00  0.0000000000000D+00  0.0000000000000D+00
   421  4.2000000000000D+00  0.0000000000000D+00  0.0000000000000D+00
   422  4.2100000000000D+00  0.0000000000000D+00  0.0000000000000D+00
   423  4.2200000000000D+00  0.0000000000000D+00  0.0000000000000D+00