Ne    ONCVPSP-3.3.1  r_core=   2.65215   2.68397
     10.0000      8.0000      210904    zatom,zion,pspd
     8       2   1     4   600     0    pspcod,pspxc,lmax,lloc,mmax,r2well
  5.99000000  0.00000000  0.00000000    rchrg fchrg qchrg
     2     2     0     0    nproj
     3     1           extension_switch
     3     0     0    nprojso
   0                        -2.2206296215717D+00 -8.5647507570376D-01
     1  0.0000000000000D+00  4.0022707370468D-12  3.5565994593867D-13
     2  1.0000000000000D-02  2.1593522787216D-02 -3.7644634314516D-02
     3  2.0000000000000D-02  4.3192585497747D-02 -7.5223808540181D-02
     4  3.0000000000000D-02  6.4802662755510D-02 -1.1267217010371D-01
     5  4.0000000000000D-02  8.6429098853220D-02 -1.4992458130594D-01
     6  5.0000000000000D-02  1.0807704325476D-01 -1.8691622636642D-01
     7  6.0000000000000D-02  1.2975138689630D-01 -2.2358271799724D-01
     8  7.0000000000000D-02  1.5145669954767D-01 -2.5986020334969D-01
     9  8.0000000000000D-02  1.7319716849157D-01 -2.9568546917734D-01
    10  9.0000000000000D-02  1.9497653877322D-01 -3.3099604605993D-01
    11  1.0000000000000D-01  2.1679805526690D-01 -3.6573031153279D-01
    12  1.1000000000000D-01  2.3866440679944D-01 -3.9982759196706D-01
    13  1.2000000000000D-01  2.6057767256228D-01 -4.3322826304684D-01
    14  1.3000000000000D-01  2.8253927103589D-01 -4.6587384869020D-01
    15  1.4000000000000D-01  3.0454991163999D-01 -4.9770711826183D-01
    16  1.5000000000000D-01  3.2660954931341D-01 -5.2867218192636D-01
    17  1.6000000000000D-01  3.4871734221609D-01 -5.5871458399249D-01
    18  1.7000000000000D-01  3.7087161273374D-01 -5.8778139409938D-01
    19  1.8000000000000D-01  3.9306981195367D-01 -6.1582129609843D-01
    20  1.9000000000000D-01  4.1530848776675D-01 -6.4278467448520D-01
    21  2.0000000000000D-01  4.3758325673703D-01 -6.6862369823799D-01
    22  2.1000000000000D-01  4.5988877986633D-01 -6.9329240192174D-01
    23  2.2000000000000D-01  4.8221874236622D-01 -7.1674676391823D-01
    24  2.3000000000000D-01  5.0456583753494D-01 -7.3894478164582D-01
    25  2.4000000000000D-01  5.2692175482110D-01 -7.5984654363484D-01
    26  2.5000000000000D-01  5.4927717214047D-01 -7.7941429832746D-01
    27  2.6000000000000D-01  5.7162175249570D-01 -7.9761251947426D-01
    28  2.7000000000000D-01  5.9394414493327D-01 -8.1440796800269D-01
    29  2.8000000000000D-01  6.1623198985474D-01 -8.2976975023686D-01
    30  2.9000000000000D-01  6.3847192868381D-01 -8.4366937235140D-01
    31  3.0000000000000D-01  6.6064961787370D-01 -8.5608079094666D-01
    32  3.1000000000000D-01  6.8274974722321D-01 -8.6698045963699D-01
    33  3.2000000000000D-01  7.0475606245368D-01 -8.7634737154844D-01
    34  3.3000000000000D-01  7.2665139198279D-01 -8.8416309762737D-01
    35  3.4000000000000D-01  7.4841767781547D-01 -8.9041182066677D-01
    36  3.5000000000000D-01  7.7003601045678D-01 -8.9508036496280D-01
    37  3.6000000000000D-01  7.9148666773614D-01 -8.9815822151984D-01
    38  3.7000000000000D-01  8.1274915741796D-01 -8.9963756872890D-01
    39  3.8000000000000D-01  8.3380226345910D-01 -8.9951328845042D-01
    40  3.9000000000000D-01  8.5462409576016D-01 -8.9778297743963D-01
    41  4.0000000000000D-01  8.7519214324407D-01 -8.9444695405979D-01
    42  4.1000000000000D-01  8.9548333008334D-01 -8.8950826023578D-01
    43  4.2000000000000D-01  9.1547407488509D-01 -8.8297265860879D-01
    44  4.3000000000000D-01  9.3514035263197D-01 -8.7484862486028D-01
    45  4.4000000000000D-01  9.5445775916675D-01 -8.6514733518220D-01
    46  4.5000000000000D-01  9.7340157799850D-01 -8.5388264887865D-01
    47  4.6000000000000D-01  9.9194684919984D-01 -8.4107108609323D-01
    48  4.7000000000000D-01  1.0100684401564D+00 -8.2673180066523D-01
    49  4.8000000000000D-01  1.0277411179231D+00 -8.1088654812703D-01
    50  4.9000000000000D-01  1.0449396229349D+00 -7.9355964886481D-01
    51  5.0000000000000D-01  1.0616387438156D+00 -7.7477794647400D-01
    52  5.1000000000000D-01  1.0778133930235D+00 -7.5457076135105D-01
    53  5.2000000000000D-01  1.0934386830676D+00 -7.3296983957270D-01
    54  5.3000000000000D-01  1.1084900030311D+00 -7.1000929712445D-01
    55  5.4000000000000D-01  1.1229430951293D+00 -6.8572555954975D-01
    56  5.5000000000000D-01  1.1367741310380D+00 -6.6015729710188D-01
    57  5.6000000000000D-01  1.1499597877204D+00 -6.3334535549085D-01
    58  5.7000000000000D-01  1.1624773224899D+00 -6.0533268232776D-01
    59  5.8000000000000D-01  1.1743046470415D+00 -5.7616424937965D-01
    60  5.9000000000000D-01  1.1854204001952D+00 -5.4588697075785D-01
    61  6.0000000000000D-01  1.1958040190923D+00 -5.1454961717343D-01
    62  6.1000000000000D-01  1.2054358085974D+00 -4.8220272640298D-01
    63  6.2000000000000D-01  1.2142970086602D+00 -4.4889851011841D-01
    64  6.3000000000000D-01  1.2223698594006D+00 -4.1469075724380D-01
    65  6.4000000000000D-01  1.2296376636898D+00 -3.7963473401241D-01
    66  6.5000000000000D-01  1.2360848470055D+00 -3.4378708090583D-01
    67  6.6000000000000D-01  1.2416970143531D+00 -3.0720570666677D-01
    68  6.7000000000000D-01  1.2464610040511D+00 -2.6994967958557D-01
    69  6.8000000000000D-01  1.2503649381938D+00 -2.3207911626903D-01
    70  6.9000000000000D-01  1.2533982696131D+00 -1.9365506810825D-01
    71  7.0000000000000D-01  1.2555518251752D+00 -1.5473940566994D-01
    72  7.1000000000000D-01  1.2568178452608D+00 -1.1539470124277D-01
    73  7.2000000000000D-01  1.2571900192899D+00 -7.5684109777413D-02
    74  7.3000000000000D-01  1.2566635171673D+00 -3.5671248464816D-02
    75  7.4000000000000D-01  1.2552350165388D+00  4.5799247964282D-03
    76  7.5000000000000D-01  1.2529027257625D+00  4.5005233788016D-02
    77  7.6000000000000D-01  1.2496664025145D+00  8.5540406954621D-02
    78  7.7000000000000D-01  1.2455273679648D+00  1.2612120071681D-01
    79  7.8000000000000D-01  1.2404885164724D+00  1.6668352284630D-01
    80  7.9000000000000D-01  1.2345543207660D+00  2.0716355563277D-01
    81  8.0000000000000D-01  1.2277308325916D+00  2.4749787856955D-01
    82  8.1000000000000D-01  1.2200256788238D+00  2.8762359028394D-01
    83  8.2000000000000D-01  1.2114480530529D+00  3.2747842943724D-01
    84  8.3000000000000D-01  1.2020087026770D+00  3.6700089431980D-01
    85  8.4000000000000D-01  1.1917199115405D+00  4.0613036086686D-01
    86  8.5000000000000D-01  1.1805954781787D+00  4.4480719882288D-01
    87  8.6000000000000D-01  1.1686506897422D+00  4.8297288578384D-01
    88  8.7000000000000D-01  1.1559022916861D+00  5.2057011885064D-01
    89  8.8000000000000D-01  1.1423684533294D+00  5.5754292362999D-01
    90  8.9000000000000D-01  1.1280687293965D+00  5.9383676032413D-01
    91  9.0000000000000D-01  1.1130240176729D+00  6.2939862665592D-01
    92  9.1000000000000D-01  1.0972565129130D+00  6.6417715738192D-01
    93  9.2000000000000D-01  1.0807896571570D+00  6.9812272015316D-01
    94  9.3000000000000D-01  1.0636480866185D+00  7.3118750749048D-01
    95  9.4000000000000D-01  1.0458575753219D+00  7.6332562465025D-01
    96  9.5000000000000D-01  1.0274449756734D+00  7.9449317316467D-01
    97  9.6000000000000D-01  1.0084381561619D+00  8.2464832985119D-01
    98  9.7000000000000D-01  9.8886593639497D-01  8.5375142109562D-01
    99  9.8000000000000D-01  9.6875801968008D-01  8.8176499222470D-01
   100  9.9000000000000D-01  9.4814492337305D-01  9.0865387179564D-01
   101  1.0000000000000D+00  9.2705790721731D-01  9.3438523064243D-01
   102  1.0100000000000D+00  9.0552889990632D-01  9.5892863553140D-01
   103  1.0200000000000D+00  8.8359042410451D-01  9.8225609729225D-01
   104  1.0300000000000D+00  8.6127552016667D-01  1.0043421133044D+00
   105  1.0400000000000D+00  8.3861766879787D-01  1.0251637042329D+00
   106  1.0500000000000D+00  8.1565071289867D-01  1.0447004449225D+00
   107  1.0600000000000D+00  7.9240877884112D-01  1.0629344893755D+00
   108  1.0700000000000D+00  7.6892619742133D-01  1.0798505897501D+00
   109  1.0800000000000D+00  7.4523742473388D-01  1.0954361093389D+00
   110  1.0900000000000D+00  7.2137696321157D-01  1.1096810294948D+00
   111  1.1000000000000D+00  6.9737928307212D-01  1.1225779504942D+00
   112  1.1100000000000D+00  6.7327874440968D-01  1.1341220863407D+00
   113  1.1200000000000D+00  6.4910952016545D-01  1.1443112535298D+00
   114  1.1300000000000D+00  6.2490552020609D-01  1.1531458538125D+00
   115  1.1400000000000D+00  6.0070031673470D-01  1.1606288510077D+00
   116  1.1500000000000D+00  5.7652707125075D-01  1.1667657419370D+00
   117  1.1600000000000D+00  5.5241846326949D-01  1.1715645215649D+00
   118  1.1700000000000D+00  5.2840662100281D-01  1.1750356424492D+00
   119  1.1800000000000D+00  5.0452305419713D-01  1.1771919686152D+00
   120  1.1900000000000D+00  4.8079858931203D-01  1.1780487239910D+00
   121  1.2000000000000D+00  4.5726330721460D-01  1.1776234355513D+00
   122  1.2100000000000D+00  4.3394648355635D-01  1.1759358713331D+00
   123  1.2200000000000D+00  4.1087653198708D-01  1.1730079734994D+00
   124  1.2300000000000D+00  3.8808095034793D-01  1.1688637866466D+00
   125  1.2400000000000D+00  3.6558626997598D-01  1.1635293815590D+00
   126  1.2500000000000D+00  3.4341800824348D-01  1.1570327746262D+00
   127  1.2600000000000D+00  3.2160062443618D-01  1.1494038431578D+00
   128  1.2700000000000D+00  3.0015747906604D-01  1.1406742368363D+00
   129  1.2800000000000D+00  2.7911079670725D-01  1.1308772855575D+00
   130  1.2900000000000D+00  2.5848163241917D-01  1.1200479039260D+00
   131  1.3000000000000D+00  2.3828984181424D-01  1.1082224926759D+00
   132  1.3100000000000D+00  2.1855405482248D-01  1.0954388372956D+00
   133  1.3200000000000D+00  1.9929165317413D-01  1.0817360041485D+00
   134  1.3300000000000D+00  1.8051875162351D-01  1.0671542343819D+00
   135  1.3400000000000D+00  1.6225018292459D-01  1.0517348359251D+00
   136  1.3500000000000D+00  1.4449948653944D-01  1.0355200738853D+00
   137  1.3600000000000D+00  1.2727890107125D-01  1.0185530596460D+00
   138  1.3700000000000D+00  1.1059936038729D-01  1.0008776389862D+00
   139  1.3800000000000D+00  9.4470493377379D-02  9.8253827953049D-01
   140  1.3900000000000D+00  7.8900627312689D-02  9.6357995784871D-01
   141  1.4000000000000D+00  6.3896794717251D-02  9.4404804652017D-01
   142  1.4100000000000D+00  4.9464743684360D-02  9.2398820147534D-01
   143  1.4200000000000D+00  3.5608951553613D-02  9.0344624993333D-01
   144  1.4300000000000D+00  2.2332641832575D-02  8.8246807923537D-01
   145  1.4400000000000D+00  9.6378042789375D-03  8.6109952689266D-01
   146  1.4500000000000D+00 -2.4747819965888D-03  8.3938627213863D-01
   147  1.4600000000000D+00 -1.4005522519527D-02  8.1737372928460D-01
   148  1.4700000000000D+00 -2.4955978667208D-02  7.9510694317478D-01
   149  1.4800000000000D+00 -3.5328836263402D-02  7.7263048699925D-01
   150  1.4900000000000D+00 -4.5127871679533D-02  7.4998836277168D-01
   151  1.5000000000000D+00 -5.4357915619906D-02  7.2722390469198D-01
   152  1.5100000000000D+00 -6.3024814728706D-02  7.0437968568638D-01
   153  1.5200000000000D+00 -7.1135391198770D-02  6.8149742733528D-01
   154  1.5300000000000D+00 -7.8697400540458D-02  6.5861791343119D-01
   155  1.5400000000000D+00 -8.5719487685965D-02  6.3578090739115D-01
   156  1.5500000000000D+00 -9.2211141602952D-02  6.1302507369352D-01
   157  1.5600000000000D+00 -9.8182648591767D-02  5.9038790358788D-01
   158  1.5700000000000D+00 -1.0364504444480D-01  5.6790564516493D-01
   159  1.5800000000000D+00 -1.0861006564670D-01  5.4561323805743D-01
   160  1.5900000000000D+00 -1.1309009978878D-01  5.2354425278795D-01
   161  1.6000000000000D+00 -1.1709813538285D-01  5.0173083502429D-01
   162  1.6100000000000D+00 -1.2064771123856D-01  4.8020365472470D-01
   163  1.6200000000000D+00 -1.2375286559135D-01  4.5899186038616D-01
   164  1.6300000000000D+00 -1.2642808513740D-01  4.3812303836807D-01
   165  1.6400000000000D+00 -1.2868825415770D-01  4.1762317744301D-01
   166  1.6500000000000D+00 -1.3054860388120D-01  3.9751663854023D-01
   167  1.6600000000000D+00 -1.3202466225897D-01  3.7782612977249D-01
   168  1.6700000000000D+00 -1.3313220429286D-01  3.5857268670109D-01
   169  1.6800000000000D+00 -1.3388720307722D-01  3.3977565787470D-01
   170  1.6900000000000D+00 -1.3430578168842D-01  3.2145269557806D-01
   171  1.7000000000000D+00 -1.3440416606701D-01  3.0361975178155D-01
   172  1.7100000000000D+00 -1.3419863901409D-01  2.8629107919800D-01
   173  1.7200000000000D+00 -1.3370549543565D-01  2.6947923740715D-01
   174  1.7300000000000D+00 -1.3294099893542D-01  2.5319510391138D-01
   175  1.7400000000000D+00 -1.3192133988617D-01  2.3744789006895D-01
   176  1.7500000000000D+00 -1.3066259504742D-01  2.2224516171182D-01
   177  1.7600000000000D+00 -1.2918068886630D-01  2.0759286439727D-01
   178  1.7700000000000D+00 -1.2749135648319D-01  1.9349535303145D-01
   179  1.7800000000000D+00 -1.2561010859900D-01  1.7995542583225D-01
   180  1.7900000000000D+00 -1.2355219816374D-01  1.6697436229282D-01
   181  1.8000000000000D+00 -1.2133258907854D-01  1.5455196514056D-01
   182  1.8100000000000D+00 -1.1896592679370D-01  1.4268660587802D-01
   183  1.8200000000000D+00 -1.1646651103926D-01  1.3137527392173D-01
   184  1.8300000000000D+00 -1.1384827049920D-01  1.2061362888073D-01
   185  1.8400000000000D+00 -1.1112473968085D-01  1.1039605596564D-01
   186  1.8500000000000D+00 -1.0830903777532D-01  1.0071572409708D-01
   187  1.8600000000000D+00 -1.0541384970270D-01  9.1564646611048D-02
   188  1.8700000000000D+00 -1.0245140919498D-01  8.2933744214568D-02
   189  1.8800000000000D+00 -9.9433483998336D-02  7.4812909978465D-02
   190  1.8900000000000D+00 -9.6371363142715D-02  6.7191076098576D-02
   191  1.9000000000000D+00 -9.3275846223966D-02  6.0056282139339D-02
   192  1.9100000000000D+00 -9.0157234759140D-02  5.3395744520482D-02
   193  1.9200000000000D+00 -8.7025325420128D-02  4.7195926960436D-02
   194  1.9300000000000D+00 -8.3889405299717D-02  4.1442611594420D-02
   195  1.9400000000000D+00 -8.0758248943250D-02  3.6120970550507D-02
   196  1.9500000000000D+00 -7.7640117278587D-02  3.1215637630945D-02
   197  1.9600000000000D+00 -7.4542758242630D-02  2.6710779932380D-02
   198  1.9700000000000D+00 -7.1473409104519D-02  2.2590169071452D-02
   199  1.9800000000000D+00 -6.8438800415868D-02  1.8837251766813D-02
   200  1.9900000000000D+00 -6.5445161443901D-02  1.5435219629330D-02
   201  2.0000000000000D+00 -6.2498227116575D-02  1.2367077688452D-02
   202  2.0100000000000D+00 -5.9603246273251D-02  9.6157117550335D-03
   203  2.0200000000000D+00 -5.6764991237585D-02  7.1639540171265D-03
   204  2.0300000000000D+00 -5.3987768560132D-02  4.9946469639525D-03
   205  2.0400000000000D+00 -5.1275430859187D-02  3.0907052909017D-03
   206  2.0500000000000D+00 -4.8631389679537D-02  1.4351754587612D-03
   207  2.0600000000000D+00 -4.6058629256179D-02  1.1293164677890D-05
   208  2.0700000000000D+00 -4.3559721097313D-02 -1.1974621400154D-03
   209  2.0800000000000D+00 -4.1136839304939D-02 -2.2073151236343D-03
   210  2.0900000000000D+00 -3.8791776518838D-02 -3.0341454860953D-03
   211  2.1000000000000D+00 -3.6525960395333D-02 -3.6934419599892D-03
   212  2.1100000000000D+00 -3.4340470575250D-02 -4.2002591158389D-03
   213  2.1200000000000D+00 -3.2236055947920D-02 -4.5691778838650D-03
   214  2.1300000000000D+00 -3.0213152257742D-02 -4.8142689714838D-03
   215  2.1400000000000D+00 -2.8271899860841D-02 -4.9490599099264D-03
   216  2.1500000000000D+00 -2.6412161567266D-02 -4.9865056778233D-03
   217  2.1600000000000D+00 -2.4633540607163D-02 -4.9389624035858D-03
   218  2.1700000000000D+00 -2.2935398407718D-02 -4.8181652265903D-03
   219  2.1800000000000D+00 -2.1316872368349D-02 -4.6352092406193D-03
   220  2.1900000000000D+00 -1.9776893407984D-02 -4.4005341553976D-03
   221  2.2000000000000D+00 -1.8314203191416D-02 -4.1239127503249D-03
   222  2.2100000000000D+00 -1.6927371196535D-02 -3.8144423344899D-03
   223  2.2200000000000D+00 -1.5614811235706D-02 -3.4805402522138D-03
   224  2.2300000000000D+00 -1.4374797646479D-02 -3.1299425290016D-03
   225  2.2400000000000D+00 -1.3205481063635D-02 -2.7697057283293D-03
   226  2.2500000000000D+00 -1.2104903512984D-02 -2.4062125427032D-03
   227  2.2600000000000D+00 -1.1071013138635D-02 -2.0451800665003D-03
   228  2.2700000000000D+00 -1.0101678246051D-02 -1.6916713884226D-03
   229  2.2800000000000D+00 -9.1947006830662D-03 -1.3501102415714D-03
   230  2.2900000000000D+00 -8.3478287755741D-03 -1.0242980280450D-03
   231  2.3000000000000D+00 -7.5587693823330D-03 -7.1743399990855D-04
   232  2.3100000000000D+00 -6.8251993858511D-03 -4.3213771941639D-04
   233  2.3200000000000D+00 -6.1447765907974D-03 -1.7047370302364D-04
   234  2.3300000000000D+00 -5.5151497253786D-03  6.6021376285693D-05
   235  2.3400000000000D+00 -4.9339679320518D-03  2.7630980052792D-04
   236  2.3500000000000D+00 -4.3988895392406D-03  4.5982205413070D-04
   237  2.3600000000000D+00 -3.9075900424999D-03  6.1642430476504D-04
   238  2.3700000000000D+00 -3.4577695780417D-03  7.4638466035060D-04
   239  2.3800000000000D+00 -3.0471596381986D-03  8.5033810930593D-04
   240  2.3900000000000D+00 -2.6735291195332D-03  9.2925043934007D-04
   241  2.4000000000000D+00 -2.3346898777664D-03  9.8438139723903D-04
   242  2.4100000000000D+00 -2.0285015534497D-03  1.0172472368128D-03
   243  2.4200000000000D+00 -1.7528758526975D-03  1.0295829045364D-03
   244  2.4300000000000D+00 -1.5057803618870D-03  1.0233039308427D-03
   245  2.4400000000000D+00 -1.2852417249268D-03  1.0004685360968D-03
   246  2.4500000000000D+00 -1.0893483844028D-03  9.6323991012247D-04
   247  2.4600000000000D+00 -9.1625289195472D-04  9.1384868226510D-04
   248  2.4700000000000D+00 -7.6417373091158D-04  8.5455646809899D-04
   249  2.4800000000000D+00 -6.3139678044510D-04  7.8761999835287D-04
   250  2.4900000000000D+00 -5.1627640619413D-04  7.1525598377472D-04
   251  2.5000000000000D+00 -4.1723623455068D-04  6.3960780178307D-04
   252  2.5100000000000D+00 -3.3276962535762D-04  5.6271315662312D-04
   253  2.5200000000000D+00 -2.6143984735742D-04  4.8647295039174D-04
   254  2.5300000000000D+00 -2.0188010046324D-04  4.1262265494220D-04
   255  2.5400000000000D+00 -1.5279329075139D-04  3.4270499184921D-04
   256  2.5500000000000D+00 -1.1295157749076D-04  2.7804417892741D-04
   257  2.5600000000000D+00 -8.1195668677324D-05  2.1972373010549D-04
   258  2.5700000000000D+00 -5.6433265404195D-05  1.6856694363482D-04
   259  2.5800000000000D+00 -3.7644352152415D-05  1.2510721301130D-04
   260  2.5900000000000D+00 -2.3872129025541D-05  8.9576677552226D-05
   261  2.6000000000000D+00 -1.4215674532517D-05  6.1717337086814D-05
   262  2.6100000000000D+00 -7.8624930706090D-06  4.1526525345378D-05
   263  2.6200000000000D+00 -4.0498726754458D-06  2.8356202452362D-05
   264  2.6300000000000D+00 -2.1432959840446D-06  2.1864383406894D-05
   265  2.6400000000000D+00 -1.3779718486433D-06  1.8901924207529D-05
   266  2.6500000000000D+00 -1.1485629569024D-06  1.6899821435602D-05
   267  2.6600000000000D+00 -8.8549961443792D-07  1.2674524005115D-05
   268  2.6700000000000D+00 -5.2537081227322D-07  7.1275217195961D-06
   269  2.6800000000000D+00 -1.3789016872231D-07  1.7667919778288D-06
   270  2.6900000000000D+00  7.8216107539137D-08 -1.1702495822760D-06
   271  2.7000000000000D+00  1.0924057099468D-07 -1.6098387079516D-06
   272  2.7100000000000D+00  5.2970205418574D-08 -7.6851584767112D-07
   273  2.7200000000000D+00 -8.4787887028742D-09  1.5729723736793D-07
   274  2.7300000000000D+00 -1.9027722718618D-08  3.5800718137665D-07
   275  2.7400000000000D+00 -1.3024293907360D-08  2.4802880674850D-07
   276  2.7500000000000D+00  4.4319358753384D-10 -6.4681668077553D-09
   277  2.7600000000000D+00  2.9179619010927D-09 -4.2586050082464D-08
   278  2.7700000000000D+00  2.7660843421796D-09 -4.0369480589951D-08
   279  2.7800000000000D+00  4.9924598187906D-10 -7.2862206939057D-09
   280  2.7900000000000D+00  0.0000000000000D+00  0.0000000000000D+00
   281  2.8000000000000D+00  0.0000000000000D+00  0.0000000000000D+00
   282  2.8100000000000D+00  0.0000000000000D+00  0.0000000000000D+00
   283  2.8200000000000D+00  0.0000000000000D+00  0.0000000000000D+00
   284  2.8300000000000D+00  0.0000000000000D+00  0.0000000000000D+00
   285  2.8400000000000D+00  0.0000000000000D+00  0.0000000000000D+00
   286  2.8500000000000D+00  0.0000000000000D+00  0.0000000000000D+00
   287  2.8600000000000D+00  0.0000000000000D+00  0.0000000000000D+00
   288  2.8700000000000D+00  0.0000000000000D+00  0.0000000000000D+00
   289  2.8800000000000D+00  0.0000000000000D+00  0.0000000000000D+00
   290  2.8900000000000D+00  0.0000000000000D+00  0.0000000000000D+00
   291  2.9000000000000D+00  0.0000000000000D+00  0.0000000000000D+00
   292  2.9100000000000D+00  0.0000000000000D+00  0.0000000000000D+00
   293  2.9200000000000D+00  0.0000000000000D+00  0.0000000000000D+00
   294  2.9300000000000D+00  0.0000000000000D+00  0.0000000000000D+00
   295  2.9400000000000D+00  0.0000000000000D+00  0.0000000000000D+00
   296  2.9500000000000D+00  0.0000000000000D+00  0.0000000000000D+00
   297  2.9600000000000D+00  0.0000000000000D+00  0.0000000000000D+00
   298  2.9700000000000D+00  0.0000000000000D+00  0.0000000000000D+00
   299  2.9800000000000D+00  0.0000000000000D+00  0.0000000000000D+00
   300  2.9900000000000D+00  0.0000000000000D+00  0.0000000000000D+00
   301  3.0000000000000D+00  0.0000000000000D+00  0.0000000000000D+00
   302  3.0100000000000D+00  0.0000000000000D+00  0.0000000000000D+00
   303  3.0200000000000D+00  0.0000000000000D+00  0.0000000000000D+00
   304  3.0300000000000D+00  0.0000000000000D+00  0.0000000000000D+00
   305  3.0400000000000D+00  0.0000000000000D+00  0.0000000000000D+00
   306  3.0500000000000D+00  0.0000000000000D+00  0.0000000000000D+00
   307  3.0600000000000D+00  0.0000000000000D+00  0.0000000000000D+00
   308  3.0700000000000D+00  0.0000000000000D+00  0.0000000000000D+00
   309  3.0800000000000D+00  0.0000000000000D+00  0.0000000000000D+00
   310  3.0900000000000D+00  0.0000000000000D+00  0.0000000000000D+00
   311  3.1000000000000D+00  0.0000000000000D+00  0.0000000000000D+00
   312  3.1100000000000D+00  0.0000000000000D+00  0.0000000000000D+00
   313  3.1200000000000D+00  0.0000000000000D+00  0.0000000000000D+00
   314  3.1300000000000D+00  0.0000000000000D+00  0.0000000000000D+00
   315  3.1400000000000D+00  0.0000000000000D+00  0.0000000000000D+00
   316  3.1500000000000D+00  0.0000000000000D+00  0.0000000000000D+00
   317  3.1600000000000D+00  0.0000000000000D+00  0.0000000000000D+00
   318  3.1700000000000D+00  0.0000000000000D+00  0.0000000000000D+00
   319  3.1800000000000D+00  0.0000000000000D+00  0.0000000000000D+00
   320  3.1900000000000D+00  0.0000000000000D+00  0.0000000000000D+00
   321  3.2000000000000D+00  0.0000000000000D+00  0.0000000000000D+00
   322  3.2100000000000D+00  0.0000000000000D+00  0.0000000000000D+00
   323  3.2200000000000D+00  0.0000000000000D+00  0.0000000000000D+00
   324  3.2300000000000D+00  0.0000000000000D+00  0.0000000000000D+00
   325  3.2400000000000D+00  0.0000000000000D+00  0.0000000000000D+00
   326  3.2500000000000D+00  0.0000000000000D+00  0.0000000000000D+00
   327  3.2600000000000D+00  0.0000000000000D+00  0.0000000000000D+00
   328  3.2700000000000D+00  0.0000000000000D+00  0.0000000000000D+00
   329  3.2800000000000D+00  0.0000000000000D+00  0.0000000000000D+00
   330  3.2900000000000D+00  0.0000000000000D+00  0.0000000000000D+00
   331  3.3000000000000D+00  0.0000000000000D+00  0.0000000000000D+00
   332  3.3100000000000D+00  0.0000000000000D+00  0.0000000000000D+00
   333  3.3200000000000D+00  0.0000000000000D+00  0.0000000000000D+00
   334  3.3300000000000D+00  0.0000000000000D+00  0.0000000000000D+00
   335  3.3400000000000D+00  0.0000000000000D+00  0.0000000000000D+00
   336  3.3500000000000D+00  0.0000000000000D+00  0.0000000000000D+00
   337  3.3600000000000D+00  0.0000000000000D+00  0.0000000000000D+00
   338  3.3700000000000D+00  0.0000000000000D+00  0.0000000000000D+00
   339  3.3800000000000D+00  0.0000000000000D+00  0.0000000000000D+00
   340  3.3900000000000D+00  0.0000000000000D+00  0.0000000000000D+00
   341  3.4000000000000D+00  0.0000000000000D+00  0.0000000000000D+00
   342  3.4100000000000D+00  0.0000000000000D+00  0.0000000000000D+00
   343  3.4200000000000D+00  0.0000000000000D+00  0.0000000000000D+00
   344  3.4300000000000D+00  0.0000000000000D+00  0.0000000000000D+00
   345  3.4400000000000D+00  0.0000000000000D+00  0.0000000000000D+00
   346  3.4500000000000D+00  0.0000000000000D+00  0.0000000000000D+00
   347  3.4600000000000D+00  0.0000000000000D+00  0.0000000000000D+00
   348  3.4700000000000D+00  0.0000000000000D+00  0.0000000000000D+00
   349  3.4800000000000D+00  0.0000000000000D+00  0.0000000000000D+00
   350  3.4900000000000D+00  0.0000000000000D+00  0.0000000000000D+00
   351  3.5000000000000D+00  0.0000000000000D+00  0.0000000000000D+00
   352  3.5100000000000D+00  0.0000000000000D+00  0.0000000000000D+00
   353  3.5200000000000D+00  0.0000000000000D+00  0.0000000000000D+00
   354  3.5300000000000D+00  0.0000000000000D+00  0.0000000000000D+00
   355  3.5400000000000D+00  0.0000000000000D+00  0.0000000000000D+00
   356  3.5500000000000D+00  0.0000000000000D+00  0.0000000000000D+00
   357  3.5600000000000D+00  0.0000000000000D+00  0.0000000000000D+00
   358  3.5700000000000D+00  0.0000000000000D+00  0.0000000000000D+00
   359  3.5800000000000D+00  0.0000000000000D+00  0.0000000000000D+00
   360  3.5900000000000D+00  0.0000000000000D+00  0.0000000000000D+00
   361  3.6000000000000D+00  0.0000000000000D+00  0.0000000000000D+00
   362  3.6100000000000D+00  0.0000000000000D+00  0.0000000000000D+00
   363  3.6200000000000D+00  0.0000000000000D+00  0.0000000000000D+00
   364  3.6300000000000D+00  0.0000000000000D+00  0.0000000000000D+00
   365  3.6400000000000D+00  0.0000000000000D+00  0.0000000000000D+00
   366  3.6500000000000D+00  0.0000000000000D+00  0.0000000000000D+00
   367  3.6600000000000D+00  0.0000000000000D+00  0.0000000000000D+00
   368  3.6700000000000D+00  0.0000000000000D+00  0.0000000000000D+00
   369  3.6800000000000D+00  0.0000000000000D+00  0.0000000000000D+00
   370  3.6900000000000D+00  0.0000000000000D+00  0.0000000000000D+00
   371  3.7000000000000D+00  0.0000000000000D+00  0.0000000000000D+00
   372  3.7100000000000D+00  0.0000000000000D+00  0.0000000000000D+00
   373  3.7200000000000D+00  0.0000000000000D+00  0.0000000000000D+00
   374  3.7300000000000D+00  0.0000000000000D+00  0.0000000000000D+00
   375  3.7400000000000D+00  0.0000000000000D+00  0.0000000000000D+00
   376  3.7500000000000D+00  0.0000000000000D+00  0.0000000000000D+00
   377  3.7600000000000D+00  0.0000000000000D+00  0.0000000000000D+00
   378  3.7700000000000D+00  0.0000000000000D+00  0.0000000000000D+00
   379  3.7800000000000D+00  0.0000000000000D+00  0.0000000000000D+00
   380  3.7900000000000D+00  0.0000000000000D+00  0.0000000000000D+00
   381  3.8000000000000D+00  0.0000000000000D+00  0.0000000000000D+00
   382  3.8100000000000D+00  0.0000000000000D+00  0.0000000000000D+00
   383  3.8200000000000D+00  0.0000000000000D+00  0.0000000000000D+00
   384  3.8300000000000D+00  0.0000000000000D+00  0.0000000000000D+00
   385  3.8400000000000D+00  0.0000000000000D+00  0.0000000000000D+00
   386  3.8500000000000D+00  0.0000000000000D+00  0.0000000000000D+00
   387  3.8600000000000D+00  0.0000000000000D+00  0.0000000000000D+00
   388  3.8700000000000D+00  0.0000000000000D+00  0.0000000000000D+00
   389  3.8800000000000D+00  0.0000000000000D+00  0.0000000000000D+00
   390  3.8900000000000D+00  0.0000000000000D+00  0.0000000000000D+00
   391  3.9000000000000D+00  0.0000000000000D+00  0.0000000000000D+00
   392  3.9100000000000D+00  0.0000000000000D+00  0.0000000000000D+00
   393  3.9200000000000D+00  0.0000000000000D+00  0.0000000000000D+00
   394  3.9300000000000D+00  0.0000000000000D+00  0.0000000000000D+00
   395  3.9400000000000D+00  0.0000000000000D+00  0.0000000000000D+00
   396  3.9500000000000D+00  0.0000000000000D+00  0.0000000000000D+00
   397  3.9600000000000D+00  0.0000000000000D+00  0.0000000000000D+00
   398  3.9700000000000D+00  0.0000000000000D+00  0.0000000000000D+00
   399  3.9800000000000D+00  0.0000000000000D+00  0.0000000000000D+00
   400  3.9900000000000D+00  0.0000000000000D+00  0.0000000000000D+00
   401  4.0000000000000D+00  0.0000000000000D+00  0.0000000000000D+00
   402  4.0100000000000D+00  0.0000000000000D+00  0.0000000000000D+00
   403  4.0200000000000D+00  0.0000000000000D+00  0.0000000000000D+00
   404  4.0300000000000D+00  0.0000000000000D+00  0.0000000000000D+00
   405  4.0400000000000D+00  0.0000000000000D+00  0.0000000000000D+00
   406  4.0500000000000D+00  0.0000000000000D+00  0.0000000000000D+00
   407  4.0600000000000D+00  0.0000000000000D+00  0.0000000000000D+00
   408  4.0700000000000D+00  0.0000000000000D+00  0.0000000000000D+00
   409  4.0800000000000D+00  0.0000000000000D+00  0.0000000000000D+00
   410  4.0900000000000D+00  0.0000000000000D+00  0.0000000000000D+00
   411  4.1000000000000D+00  0.0000000000000D+00  0.0000000000000D+00
   412  4.1100000000000D+00  0.0000000000000D+00  0.0000000000000D+00
   413  4.1200000000000D+00  0.0000000000000D+00  0.0000000000000D+00
   414  4.1300000000000D+00  0.0000000000000D+00  0.0000000000000D+00
   415  4.1400000000000D+00  0.0000000000000D+00  0.0000000000000D+00
   416  4.1500000000000D+00  0.0000000000000D+00  0.0000000000000D+00
   417  4.1600000000000D+00  0.0000000000000D+00  0.0000000000000D+00
   418  4.1700000000000D+00  0.0000000000000D+00  0.0000000000000D+00
   419  4.1800000000000D+00  0.0000000000000D+00  0.0000000000000D+00
   420  4.1900000000000D+00  0.0000000000000D+00  0.0000000000000D+00
   421  4.2000000000000D+00  0.0000000000000D+00  0.0000000000000D+00
   422  4.2100000000000D+00  0.0000000000000D+00  0.0000000000000D+00