Ni    ONCVPSP-3.3.1  r_core=   2.20931   2.20931   2.28980
     28.0000     18.0000      210904    zatom,zion,pspd
     8       2   2     4   600     0    pspcod,pspxc,lmax,lloc,mmax,r2well
  5.99000000  0.00000000  0.00000000    rchrg fchrg qchrg
     2     2     2     0     0    nproj
     1     1           extension_switch
   0                        -3.4148124342542D+00 -2.1528339631796D-01
     1  0.0000000000000D+00 -6.9916294975769D-13 -7.7076123261577D-12
     2  1.0000000000000D-02  4.1822480385926D-02 -3.3809734865708D-02
     3  2.0000000000000D-02  8.3600287519049D-02 -6.7549156638525D-02
     4  3.0000000000000D-02  1.2528881520875D-01 -1.0114805368634D-01
     5  4.0000000000000D-02  1.6684359127467D-01 -1.3453641736965D-01
     6  5.0000000000000D-02  2.0822034426683D-01 -1.6764454371352D-01
     7  6.0000000000000D-02  2.4937506984411D-01 -2.0040313528485D-01
     8  7.0000000000000D-02  2.9026409669819D-01 -2.3274340333440D-01
     9  8.0000000000000D-02  3.3084415191047D-01 -2.6459717025517D-01
    10  9.0000000000000D-02  3.7107242563057D-01 -2.9589697239941D-01
    11  1.0000000000000D-01  4.1090663496595D-01 -3.2657616328534D-01
    12  1.1000000000000D-01  4.5030508697338D-01 -3.5656901721158D-01
    13  1.2000000000000D-01  4.8922674064453D-01 -3.8581083328319D-01
    14  1.3000000000000D-01  5.2763126777927D-01 -4.1423803983709D-01
    15  1.4000000000000D-01  5.6547911264225D-01 -4.4178829923780D-01
    16  1.5000000000000D-01  6.0273155030009D-01 -4.6840061299589D-01
    17  1.6000000000000D-01  6.3935074353849D-01 -4.9401542714223D-01
    18  1.7000000000000D-01  6.7529979826125D-01 -5.1857473777119D-01
    19  1.8000000000000D-01  7.1054281727484D-01 -5.4202219664469D-01
    20  1.9000000000000D-01  7.4504495236571D-01 -5.6430321672787D-01
    21  2.0000000000000D-01  7.7877245457925D-01 -5.8536507750519D-01
    22  2.1000000000000D-01  8.1169272261317D-01 -6.0515702990397D-01
    23  2.2000000000000D-01  8.4377434924037D-01 -6.2363040063027D-01
    24  2.3000000000000D-01  8.7498716568018D-01 -6.4073869570057D-01
    25  2.4000000000000D-01  9.0530228383985D-01 -6.5643770293096D-01
    26  2.5000000000000D-01  9.3469213635189D-01 -6.7068559312519D-01
    27  2.6000000000000D-01  9.6313051433670D-01 -6.8344301968281D-01
    28  2.7000000000000D-01  9.9059260282335D-01 -6.9467321632936D-01
    29  2.8000000000000D-01  1.0170550137658D+00 -7.0434209265314D-01
    30  2.9000000000000D-01  1.0424958165961D+00 -7.1241832711597D-01
    31  3.0000000000000D-01  1.0668945662590D+00 -7.1887345719076D-01
    32  3.1000000000000D-01  1.0902323286797D+00 -7.2368196626475D-01
    33  3.2000000000000D-01  1.1124917036177D+00 -7.2682136693613D-01
    34  3.3000000000000D-01  1.1336568448661D+00 -7.2827228032142D-01
    35  3.4000000000000D-01  1.1537134777611D+00 -7.2801851098397D-01
    36  3.5000000000000D-01  1.1726489139693D+00 -7.2604711708789D-01
    37  3.6000000000000D-01  1.1904520635273D+00 -7.2234847537920D-01
    38  3.7000000000000D-01  1.2071134441122D+00 -7.1691634059446D-01
    39  3.8000000000000D-01  1.2226251875267D+00 -7.0974789889965D-01
    40  3.9000000000000D-01  1.2369810433878D+00 -7.0084381496581D-01
    41  4.0000000000000D-01  1.2501763800146D+00 -6.9020827229499D-01
    42  4.1000000000000D-01  1.2622081825133D+00 -6.7784900641968D-01
    43  4.2000000000000D-01  1.2730750480660D+00 -6.6377733061076D-01
    44  4.3000000000000D-01  1.2827771784332D+00 -6.4800815374412D-01
    45  4.4000000000000D-01  1.2913163696859D+00 -6.3055998999339D-01
    46  4.5000000000000D-01  1.2986959991899D+00 -6.1145496003605D-01
    47  4.6000000000000D-01  1.3049210098674D+00 -5.9071878348337D-01
    48  4.7000000000000D-01  1.3099978917703D+00 -5.6838076226898D-01
    49  4.8000000000000D-01  1.3139346610016D+00 -5.4447375475892D-01
    50  4.9000000000000D-01  1.3167408360292D+00 -5.1903414037533D-01
    51  5.0000000000000D-01  1.3184274114404D+00 -4.9210177455858D-01
    52  5.1000000000000D-01  1.3190068291904D+00 -4.6371993392564D-01
    53  5.2000000000000D-01  1.3184929474053D+00 -4.3393525151955D-01
    54  5.3000000000000D-01  1.3169010068027D+00 -4.0279764208150D-01
    55  5.4000000000000D-01  1.3142475948002D+00 -3.7036021731702D-01
    56  5.5000000000000D-01  1.3105506073851D+00 -3.3667919116796D-01
    57  5.6000000000000D-01  1.3058292088251D+00 -3.0181377514385D-01
    58  5.7000000000000D-01  1.3001037893045D+00 -2.6582606380914D-01
    59  5.8000000000000D-01  1.2933959205715D+00 -2.2878091056608D-01
    60  5.9000000000000D-01  1.2857283096929D+00 -1.9074579391740D-01
    61  6.0000000000000D-01  1.2771247510094D+00 -1.5179067443699D-01
    62  6.1000000000000D-01  1.2676100763955D+00 -1.1198784272139D-01
    63  6.2000000000000D-01  1.2572101039252D+00 -7.1411758639072D-02
    64  6.3000000000000D-01  1.2459515850552D+00 -3.0138882238300D-02
    65  6.4000000000000D-01  1.2338621504334D+00  1.1752503282571D-02
    66  6.5000000000000D-01  1.2209702544498D+00  5.4182476096190D-02
    67  6.6000000000000D-01  1.2073051186463D+00  9.7069667271663D-02
    68  6.7000000000000D-01  1.1928966741044D+00  1.4033145877768D-01
    69  6.8000000000000D-01  1.1777755029345D+00  1.8388418739857D-01
    70  6.9000000000000D-01  1.1619727789898D+00  2.2764335396264D-01
    71  7.0000000000000D-01  1.1455202079314D+00  2.7152383724815D-01
    72  7.1000000000000D-01  1.1284499667716D+00  3.1544011190071D-01
    73  7.2000000000000D-01  1.1107946430241D+00  3.5930646966659D-01
    74  7.3000000000000D-01  1.0925871735905D+00  4.0303724322051D-01
    75  7.4000000000000D-01  1.0738607835126D+00  4.4654703184255D-01
    76  7.5000000000000D-01  1.0546489247210D+00  4.8975092817897D-01
    77  7.6000000000000D-01  1.0349852149093D+00  5.3256474530422D-01
    78  7.7000000000000D-01  1.0149033766644D+00  5.7490524328791D-01
    79  7.8000000000000D-01  9.9443717698023D-01  6.1669035446025D-01
    80  7.9000000000000D-01  9.7362036728353D-01  6.5783940656281D-01
    81  8.0000000000000D-01  9.5248662409739D-01  6.9827334296859D-01
    82  8.1000000000000D-01  9.3106949046717D-01  7.3791493915590D-01
    83  8.2000000000000D-01  9.0940231827082D-01  7.7668901462574D-01
    84  8.3000000000000D-01  8.8751821153390D-01  8.1452263946020D-01
    85  8.4000000000000D-01  8.6544997086633D-01  8.5134533473199D-01
    86  8.5000000000000D-01  8.4323003913512D-01  8.8708926599124D-01
    87  8.6000000000000D-01  8.2089044848410D-01  9.2168942907547D-01
    88  8.7000000000000D-01  7.9846276880786D-01  9.5508382751237D-01
    89  8.8000000000000D-01  7.7597805778348D-01  9.8721364081207D-01
    90  8.9000000000000D-01  7.5346681255916D-01  1.0180233829763D+00
    91  9.0000000000000D-01  7.3095892319476D-01  1.0474610505866D+00
    92  9.1000000000000D-01  7.0848362794438D-01  1.0754782598698D+00
    93  9.2000000000000D-01  6.8606947046617D-01  1.1020303721817D+00
    94  9.3000000000000D-01  6.6374425903973D-01  1.1270766073916D+00
    95  9.4000000000000D-01  6.4153502786559D-01  1.1505801446971D+00
    96  9.5000000000000D-01  6.1946800051629D-01  1.1725082104485D+00
    97  9.6000000000000D-01  5.9756855560236D-01  1.1928321526119D+00
    98  9.7000000000000D-01  5.7586119471099D-01  1.2115275015540D+00
    99  9.8000000000000D-01  5.5436951266881D-01  1.2285740168875D+00
   100  9.9000000000000D-01  5.3311617017433D-01  1.2439557201718D+00
   101  1.0000000000000D+00  5.1212286883911D-01  1.2576609133210D+00
   102  1.0100000000000D+00  4.9141032867047D-01  1.2696821826330D+00
   103  1.0200000000000D+00  4.7099826802196D-01  1.2800163884102D+00
   104  1.0300000000000D+00  4.5090538603155D-01  1.2886646402050D+00
   105  1.0400000000000D+00  4.3114934756068D-01  1.2956322577814D+00
   106  1.0500000000000D+00  4.1174677064086D-01  1.3009287179487D+00
   107  1.0600000000000D+00  3.9271321642823D-01  1.3045675874753D+00
   108  1.0700000000000D+00  3.7406318165951D-01  1.3065664423587D+00
   109  1.0800000000000D+00  3.5581009359652D-01  1.3069467737791D+00
   110  1.0900000000000D+00  3.3796630744020D-01  1.3057338811249D+00
   111  1.1000000000000D+00  3.2054310618802D-01  1.3029567525325D+00
   112  1.1100000000000D+00  3.0355070290381D-01  1.2986479334312D+00
   113  1.1200000000000D+00  2.8699824536133D-01  1.2928433836442D+00
   114  1.1300000000000D+00  2.7089382301804D-01  1.2855823236375D+00
   115  1.1400000000000D+00  2.5524447626887D-01  1.2769070705612D+00
   116  1.1500000000000D+00  2.4005620792542D-01  1.2668628647609D+00
   117  1.1600000000000D+00  2.2533399685914D-01  1.2554976874868D+00
   118  1.1700000000000D+00  2.1108181374265D-01  1.2428620705624D+00
   119  1.1800000000000D+00  1.9730263881759D-01  1.2290088988046D+00
   120  1.1900000000000D+00  1.8399848161437D-01  1.2139932060159D+00
   121  1.2000000000000D+00  1.7117040254228D-01  1.1978719654013D+00
   122  1.2100000000000D+00  1.5881853626549D-01  1.1807038752812D+00
   123  1.2200000000000D+00  1.4694211677675D-01  1.1625491409839D+00
   124  1.2300000000000D+00  1.3553950407642D-01  1.1434692538240D+00
   125  1.2400000000000D+00  1.2460821236052D-01  1.1235267680773D+00
   126  1.2500000000000D+00  1.1414493961944D-01  1.1027850768676D+00
   127  1.2600000000000D+00  1.0414559854611D-01  1.0813081878846D+00
   128  1.2700000000000D+00  9.4605348648715D-02  1.0591604998487D+00
   129  1.2800000000000D+00  8.5518629462391D-02  1.0364065806239D+00
   130  1.2900000000000D+00  7.6879194752256D-02  1.0131109478845D+00
   131  1.3000000000000D+00  6.8680147597643D-02  9.8933785320860D-01
   132  1.3100000000000D+00  6.0913976247778D-02  9.6515107045434D-01
   133  1.3200000000000D+00  5.3572590637445D-02  9.4061368927548D-01
   134  1.3300000000000D+00  4.6647359450888D-02  9.1578791456129D-01
   135  1.3400000000000D+00  4.0129147622708D-02  8.9073487259405D-01
   136  1.3500000000000D+00  3.4008354163507D-02  8.6551442468184D-01
   137  1.3600000000000D+00  2.8274950200710D-02  8.4018498893466D-01
   138  1.3700000000000D+00  2.2918517123396D-02  8.1480337090232D-01
   139  1.3800000000000D+00  1.7928284722875D-02  7.8942460367104D-01
   140  1.3900000000000D+00  1.3293169223562D-02  7.6410179797530D-01
   141  1.4000000000000D+00  9.0018110953293D-03  7.3888600293196D-01
   142  1.4100000000000D+00  5.0426125489174D-03  7.1382607778121D-01
   143  1.4200000000000D+00  1.4037746105493D-03  6.8896857514109D-01
   144  1.4300000000000D+00 -1.9266663217706D-03  6.6435763613532D-01
   145  1.4400000000000D+00 -4.9608025304839D-03  6.4003489765640D-01
   146  1.4500000000000D+00 -7.7108197394378D-03  6.1603941216521D-01
   147  1.4600000000000D+00 -1.0188962660281D-02  5.9240758007229D-01
   148  1.4700000000000D+00 -1.2407501418437D-02  5.6917309500982D-01
   149  1.4800000000000D+00 -1.4378698932648D-02  5.4636690199975D-01
   150  1.4900000000000D+00 -1.6114779323471D-02  5.2401716857360D-01
   151  1.5000000000000D+00 -1.7627897430554D-02  5.0214926891910D-01
   152  1.5100000000000D+00 -1.8930109488872D-02  4.8078578081018D-01
   153  1.5200000000000D+00 -2.0033345049507D-02  4.5994649545074D-01
   154  1.5300000000000D+00 -2.0949380176058D-02  4.3964843978925D-01
   155  1.5400000000000D+00 -2.1689811993509D-02  4.1990591133280D-01
   156  1.5500000000000D+00 -2.2266034617515D-02  4.0073052499806D-01
   157  1.5600000000000D+00 -2.2689216518436D-02  3.8213127180885D-01
   158  1.5700000000000D+00 -2.2970279352993D-02  3.6411458902658D-01
   159  1.5800000000000D+00 -2.3119878290556D-02  3.4668444129956D-01
   160  1.5900000000000D+00 -2.3148383873904D-02  3.2984241246335D-01
   161  1.6000000000000D+00 -2.3065865413134D-02  3.1358780739211D-01
   162  1.6100000000000D+00 -2.2882075959454D-02  2.9791776355517D-01
   163  1.6200000000000D+00 -2.2606438830003D-02  2.8282737154462D-01
   164  1.6300000000000D+00 -2.2248035736004D-02  2.6830980421894D-01
   165  1.6400000000000D+00 -2.1815596460079D-02  2.5435645365282D-01
   166  1.6500000000000D+00 -2.1317490137500D-02  2.4095707549356D-01
   167  1.6600000000000D+00 -2.0761718067857D-02  2.2809993990376D-01
   168  1.6700000000000D+00 -2.0155908106864D-02  2.1577198860725D-01
   169  1.6800000000000D+00 -1.9507310553662D-02  2.0395899726480D-01
   170  1.6900000000000D+00 -1.8822795573514D-02  1.9264574259804D-01
   171  1.7000000000000D+00 -1.8108852062770D-02  1.8181617356453D-01
   172  1.7100000000000D+00 -1.7371587986929D-02  1.7145358590600D-01
   173  1.7200000000000D+00 -1.6616732089500D-02  1.6154079947484D-01
   174  1.7300000000000D+00 -1.5849636995826D-02  1.5206033755967D-01
   175  1.7400000000000D+00 -1.5075283599675D-02  1.4299460775313D-01
   176  1.7500000000000D+00 -1.4298286751179D-02  1.3432608346804D-01
   177  1.7600000000000D+00 -1.3522902127090D-02  1.2603748581264D-01
   178  1.7700000000000D+00 -1.2753034291662D-02  1.1811196482818D-01
   179  1.7800000000000D+00 -1.1992245831328D-02  1.1053327994997D-01
   180  1.7900000000000D+00 -1.1243767553275D-02  1.0328597865628D-01
   181  1.8000000000000D+00 -1.0510509641852D-02  9.6355573251312D-02
   182  1.8100000000000D+00 -9.7950738534972D-03  8.9728720824312D-02
   183  1.8200000000000D+00 -9.0997659864868D-03  8.3393370513904D-02
   184  1.8300000000000D+00 -8.4266106929193D-03  7.7338989518289D-02
   185  1.8400000000000D+00 -7.7773639004098D-03  7.1556623966402D-02
   186  1.8500000000000D+00 -7.1535271729532D-03  6.6039020794973D-02
   187  1.8600000000000D+00 -6.5563697464100D-03  6.0781121260546D-02
   188  1.8700000000000D+00 -5.9869461965080D-03  5.5780302044343D-02
   189  1.8800000000000D+00 -5.4460868698727D-03  5.1035130532168D-02
   190  1.8900000000000D+00 -4.9343989467049D-03  4.6544647085075D-02
   191  1.9000000000000D+00 -4.4522681690780D-03  4.2307765645785D-02
   192  1.9100000000000D+00 -3.9998473461627D-03  3.8321927533948D-02
   193  1.9200000000000D+00 -3.5770760792851D-03  3.4583411950493D-02
   194  1.9300000000000D+00 -3.1837016704789D-03  3.1087715807948D-02
   195  1.9400000000000D+00 -2.8192947635659D-03  2.7829631975900D-02
   196  1.9500000000000D+00 -2.4832627131576D-03  2.4803189888071D-02
   197  1.9600000000000D+00 -2.1748670274087D-03  2.2001819482914D-02
   198  1.9700000000000D+00 -1.8932384931059D-03  1.9418389993074D-02
   199  1.9800000000000D+00 -1.6373930033039D-03  1.7045289265138D-02
   200  1.9900000000000D+00 -1.4062469434636D-03  1.4874490058806D-02
   201  2.0000000000000D+00 -1.1986323357422D-03  1.2897612775797D-02
   202  2.0100000000000D+00 -1.0133116020342D-03  1.1105984036206D-02
   203  2.0200000000000D+00 -8.4899190376538D-04  9.4906912216191D-03
   204  2.0300000000000D+00 -7.0433905199850D-04  8.0426333110228D-03
   205  2.0400000000000D+00 -5.7799081506158D-04  6.7525674614956D-03
   206  2.0500000000000D+00 -4.6856973379204D-04  5.6111520746932D-03
   207  2.0600000000000D+00 -3.7469523566406D-04  4.6089858499889D-03
   208  2.0700000000000D+00 -2.9499511575653D-04  3.7366432336033D-03
   209  2.0800000000000D+00 -2.2811632268985D-04  2.9847063056279D-03
   210  2.0900000000000D+00 -1.7273492736181D-04  2.3437930563154D-03
   211  2.1000000000000D+00 -1.2756541848124D-04  1.8045823755182D-03
   212  2.1100000000000D+00 -9.1369078580151D-05  1.3578356979439D-03
   213  2.1200000000000D+00 -6.2961593144585D-05  9.9441548812525D-04
   214  2.1300000000000D+00 -4.1219806735042D-05  7.0530066808942D-04
   215  2.1400000000000D+00 -2.5079929173784D-05  4.8160473528715D-04
   216  2.1500000000000D+00 -1.3572755236807D-05  3.1456312785501D-04
   217  2.1600000000000D+00 -5.8120786177693D-06  1.9543915414537D-04
   218  2.1700000000000D+00 -9.6236037064034D-07  1.1574957541335D-04
   219  2.1800000000000D+00  1.8376028094655D-06  6.7877092070273D-05
   220  2.1900000000000D+00  3.3568367010504D-06  4.4834126261372D-05
   221  2.2000000000000D+00  3.8757486614168D-06  3.5807348932725D-05
   222  2.2100000000000D+00  3.4709595171269D-06  3.0056429807639D-05
   223  2.2200000000000D+00  2.1430707617395D-06  1.8637776634324D-05
   224  2.2300000000000D+00  6.8300006757871D-07  6.1366899893551D-06
   225  2.2400000000000D+00 -2.3379795508681D-07 -1.9130725128804D-06
   226  2.2500000000000D+00 -3.5688225410833D-07 -2.9298494914659D-06
   227  2.2600000000000D+00 -9.0455920352910D-08 -7.4660745375273D-07
   228  2.2700000000000D+00  7.2843292178010D-08  5.4658708817426D-07
   229  2.2800000000000D+00  7.5437178402795D-08  5.6179790711491D-07
   230  2.2900000000000D+00 -2.8053388778969D-10 -2.4340531850387D-09
   231  2.3000000000000D+00 -9.5494705053317D-09 -8.2856011735599D-08
   232  2.3100000000000D+00 -7.0702115727506D-09 -6.1344713585735D-08
   233  2.3200000000000D+00  0.0000000000000D+00  0.0000000000000D+00
   234  2.3300000000000D+00  0.0000000000000D+00  0.0000000000000D+00
   235  2.3400000000000D+00  0.0000000000000D+00  0.0000000000000D+00
   236  2.3500000000000D+00  0.0000000000000D+00  0.0000000000000D+00
   237  2.3600000000000D+00  0.0000000000000D+00  0.0000000000000D+00
   238  2.3700000000000D+00  0.0000000000000D+00  0.0000000000000D+00
   239  2.3800000000000D+00  0.0000000000000D+00  0.0000000000000D+00
   240  2.3900000000000D+00  0.0000000000000D+00  0.0000000000000D+00
   241  2.4000000000000D+00  0.0000000000000D+00  0.0000000000000D+00
   242  2.4100000000000D+00  0.0000000000000D+00  0.0000000000000D+00
   243  2.4200000000000D+00  0.0000000000000D+00  0.0000000000000D+00
   244  2.4300000000000D+00  0.0000000000000D+00  0.0000000000000D+00
   245  2.4400000000000D+00  0.0000000000000D+00  0.0000000000000D+00
   246  2.4500000000000D+00  0.0000000000000D+00  0.0000000000000D+00
   247  2.4600000000000D+00  0.0000000000000D+00  0.0000000000000D+00
   248  2.4700000000000D+00  0.0000000000000D+00  0.0000000000000D+00
   249  2.4800000000000D+00  0.0000000000000D+00  0.0000000000000D+00
   250  2.4900000000000D+00  0.0000000000000D+00  0.0000000000000D+00
   251  2.5000000000000D+00  0.0000000000000D+00  0.0000000000000D+00
   252  2.5100000000000D+00  0.0000000000000D+00  0.0000000000000D+00
   253  2.5200000000000D+00  0.0000000000000D+00  0.0000000000000D+00
   254  2.5300000000000D+00  0.0000000000000D+00  0.0000000000000D+00
   255  2.5400000000000D+00  0.0000000000000D+00  0.0000000000000D+00
   256  2.5500000000000D+00  0.0000000000000D+00  0.0000000000000D+00
   257  2.5600000000000D+00  0.0000000000000D+00  0.0000000000000D+00
   258  2.5700000000000D+00  0.0000000000000D+00  0.0000000000000D+00
   259  2.5800000000000D+00  0.0000000000000D+00  0.0000000000000D+00
   260  2.5900000000000D+00  0.0000000000000D+00  0.0000000000000D+00
   261  2.6000000000000D+00  0.0000000000000D+00  0.0000000000000D+00
   262  2.6100000000000D+00  0.0000000000000D+00  0.0000000000000D+00
   263  2.6200000000000D+00  0.0000000000000D+00  0.0000000000000D+00
   264  2.6300000000000D+00  0.0000000000000D+00  0.0000000000000D+00
   265  2.6400000000000D+00  0.0000000000000D+00  0.0000000000000D+00
   266  2.6500000000000D+00  0.0000000000000D+00  0.0000000000000D+00
   267  2.6600000000000D+00  0.0000000000000D+00  0.0000000000000D+00
   268  2.6700000000000D+00  0.0000000000000D+00  0.0000000000000D+00
   269  2.6800000000000D+00  0.0000000000000D+00  0.0000000000000D+00
   270  2.6900000000000D+00  0.0000000000000D+00  0.0000000000000D+00
   271  2.7000000000000D+00  0.0000000000000D+00  0.0000000000000D+00
   272  2.7100000000000D+00  0.0000000000000D+00  0.0000000000000D+00
   273  2.7200000000000D+00  0.0000000000000D+00  0.0000000000000D+00
   274  2.7300000000000D+00  0.0000000000000D+00  0.0000000000000D+00
   275  2.7400000000000D+00  0.0000000000000D+00  0.0000000000000D+00
   276  2.7500000000000D+00  0.0000000000000D+00  0.0000000000000D+00
   277  2.7600000000000D+00  0.0000000000000D+00  0.0000000000000D+00
   278  2.7700000000000D+00  0.0000000000000D+00  0.0000000000000D+00
   279  2.7800000000000D+00  0.0000000000000D+00  0.0000000000000D+00
   280  2.7900000000000D+00  0.0000000000000D+00  0.0000000000000D+00
   281  2.8000000000000D+00  0.0000000000000D+00  0.0000000000000D+00
   282  2.8100000000000D+00  0.0000000000000D+00  0.0000000000000D+00
   283  2.8200000000000D+00  0.0000000000000D+00  0.0000000000000D+00
   284  2.8300000000000D+00  0.0000000000000D+00  0.0000000000000D+00
   285  2.8400000000000D+00  0.0000000000000D+00  0.0000000000000D+00
   286  2.8500000000000D+00  0.0000000000000D+00  0.0000000000000D+00
   287  2.8600000000000D+00  0.0000000000000D+00  0.0000000000000D+00
   288  2.8700000000000D+00  0.0000000000000D+00  0.0000000000000D+00
   289  2.8800000000000D+00  0.0000000000000D+00  0.0000000000000D+00
   290  2.8900000000000D+00  0.0000000000000D+00  0.0000000000000D+00
   291  2.9000000000000D+00  0.0000000000000D+00  0.0000000000000D+00
   292  2.9100000000000D+00  0.0000000000000D+00  0.0000000000000D+00
   293  2.9200000000000D+00  0.0000000000000D+00  0.0000000000000D+00
   294  2.9300000000000D+00  0.0000000000000D+00  0.0000000000000D+00
   295  2.9400000000000D+00  0.0000000000000D+00  0.0000000000000D+00
   296  2.9500000000000D+00  0.0000000000000D+00  0.0000000000000D+00
   297  2.9600000000000D+00  0.0000000000000D+00  0.0000000000000D+00
   298  2.9700000000000D+00  0.0000000000000D+00  0.0000000000000D+00
   299  2.9800000000000D+00  0.0000000000000D+00  0.0000000000000D+00
   300  2.9900000000000D+00  0.0000000000000D+00  0.0000000000000D+00
   301  3.0000000000000D+00  0.0000000000000D+00  0.0000000000000D+00
   302  3.0100000000000D+00  0.0000000000000D+00  0.0000000000000D+00
   303  3.0200000000000D+00  0.0000000000000D+00  0.0000000000000D+00
   304  3.0300000000000D+00  0.0000000000000D+00  0.0000000000000D+00
   305  3.0400000000000D+00  0.0000000000000D+00  0.0000000000000D+00
   306  3.0500000000000D+00  0.0000000000000D+00  0.0000000000000D+00
   307  3.0600000000000D+00  0.0000000000000D+00  0.0000000000000D+00
   308  3.0700000000000D+00  0.0000000000000D+00  0.0000000000000D+00
   309  3.0800000000000D+00  0.0000000000000D+00  0.0000000000000D+00
   310  3.0900000000000D+00  0.0000000000000D+00  0.0000000000000D+00
   311  3.1000000000000D+00  0.0000000000000D+00  0.0000000000000D+00
   312  3.1100000000000D+00  0.0000000000000D+00  0.0000000000000D+00
   313  3.1200000000000D+00  0.0000000000000D+00  0.0000000000000D+00
   314  3.1300000000000D+00  0.0000000000000D+00  0.0000000000000D+00
   315  3.1400000000000D+00  0.0000000000000D+00  0.0000000000000D+00
   316  3.1500000000000D+00  0.0000000000000D+00  0.0000000000000D+00
   317  3.1600000000000D+00  0.0000000000000D+00  0.0000000000000D+00
   318  3.1700000000000D+00  0.0000000000000D+00  0.0000000000000D+00
   319  3.1800000000000D+00  0.0000000000000D+00  0.0000000000000D+00
   320  3.1900000000000D+00  0.0000000000000D+00  0.0000000000000D+00
   321  3.2000000000000D+00  0.0000000000000D+00  0.0000000000000D+00
   322  3.2100000000000D+00  0.0000000000000D+00  0.0000000000000D+00
   323  3.2200000000000D+00  0.0000000000000D+00  0.0000000000000D+00
   324  3.2300000000000D+00  0.0000000000000D+00  0.0000000000000D+00
   325  3.2400000000000D+00  0.0000000000000D+00  0.0000000000000D+00
   326  3.2500000000000D+00  0.0000000000000D+00  0.0000000000000D+00
   327  3.2600000000000D+00  0.0000000000000D+00  0.0000000000000D+00
   328  3.2700000000000D+00  0.0000000000000D+00  0.0000000000000D+00
   329  3.2800000000000D+00  0.0000000000000D+00  0.0000000000000D+00
   330  3.2900000000000D+00  0.0000000000000D+00  0.0000000000000D+00
   331  3.3000000000000D+00  0.0000000000000D+00  0.0000000000000D+00
   332  3.3100000000000D+00  0.0000000000000D+00  0.0000000000000D+00
   333  3.3200000000000D+00  0.0000000000000D+00  0.0000000000000D+00
   334  3.3300000000000D+00  0.0000000000000D+00  0.0000000000000D+00
   335  3.3400000000000D+00  0.0000000000000D+00  0.0000000000000D+00
   336  3.3500000000000D+00  0.0000000000000D+00  0.0000000000000D+00
   337  3.3600000000000D+00  0.0000000000000D+00  0.0000000000000D+00
   338  3.3700000000000D+00  0.0000000000000D+00  0.0000000000000D+00
   339  3.3800000000000D+00  0.0000000000000D+00  0.0000000000000D+00
   340  3.3900000000000D+00  0.0000000000000D+00  0.0000000000000D+00
   341  3.4000000000000D+00  0.0000000000000D+00  0.0000000000000D+00
   342  3.4100000000000D+00  0.0000000000000D+00  0.0000000000000D+00
   343  3.4200000000000D+00  0.0000000000000D+00  0.0000000000000D+00
   344  3.4300000000000D+00  0.0000000000000D+00  0.0000000000000D+00
   345  3.4400000000000D+00  0.0000000000000D+00  0.0000000000000D+00
   346  3.4500000000000D+00  0.0000000000000D+00  0.0000000000000D+00
   347  3.4600000000000D+00  0.0000000000000D+00  0.0000000000000D+00
   348  3.4700000000000D+00  0.0000000000000D+00  0.0000000000000D+00
   349  3.4800000000000D+00  0.0000000000000D+00  0.0000000000000D+00
   350  3.4900000000000D+00  0.0000000000000D+00  0.0000000000000D+00
   351  3.5000000000000D+00  0.0000000000000D+00  0.0000000000000D+00
   352  3.5100000000000D+00  0.0000000000000D+00  0.0000000000000D+00
   353  3.5200000000000D+00  0.0000000000000D+00  0.0000000000000D+00
   354  3.5300000000000D+00  0.0000000000000D+00  0.0000000000000D+00
   355  3.5400000000000D+00  0.0000000000000D+00  0.0000000000000D+00
   356  3.5500000000000D+00  0.0000000000000D+00  0.0000000000000D+00
   357  3.5600000000000D+00  0.0000000000000D+00  0.0000000000000D+00
   358  3.5700000000000D+00  0.0000000000000D+00  0.0000000000000D+00
   359  3.5800000000000D+00  0.0000000000000D+00  0.0000000000000D+00
   360  3.5900000000000D+00  0.0000000000000D+00  0.0000000000000D+00
   361  3.6000000000000D+00  0.0000000000000D+00  0.0000000000000D+00
   362  3.6100000000000D+00  0.0000000000000D+00  0.0000000000000D+00
   363  3.6200000000000D+00  0.0000000000000D+00  0.0000000000000D+00
   364  3.6300000000000D+00  0.0000000000000D+00  0.0000000000000D+00
   365  3.6400000000000D+00  0.0000000000000D+00  0.0000000000000D+00
   366  3.6500000000000D+00  0.0000000000000D+00  0.0000000000000D+00
   367  3.6600000000000D+00  0.0000000000000D+00  0.0000000000000D+00
   368  3.6700000000000D+00  0.0000000000000D+00  0.0000000000000D+00
   369  3.6800000000000D+00  0.0000000000000D+00  0.0000000000000D+00
   370  3.6900000000000D+00  0.0000000000000D+00  0.0000000000000D+00
   371  3.7000000000000D+00  0.0000000000000D+00  0.0000000000000D+00
   372  3.7100000000000D+00  0.0000000000000D+00  0.0000000000000D+00
   373  3.7200000000000D+00  0.0000000000000D+00  0.0000000000000D+00
   374  3.7300000000000D+00  0.0000000000000D+00  0.0000000000000D+00
   375  3.7400000000000D+00  0.0000000000000D+00  0.0000000000000D+00
   376  3.7500000000000D+00  0.0000000000000D+00  0.0000000000000D+00
   377  3.7600000000000D+00  0.0000000000000D+00  0.0000000000000D+00
   378  3.7700000000000D+00  0.0000000000000D+00  0.0000000000000D+00
   379  3.7800000000000D+00  0.0000000000000D+00  0.0000000000000D+00
   380  3.7900000000000D+00  0.0000000000000D+00  0.0000000000000D+00
   381  3.8000000000000D+00  0.0000000000000D+00  0.0000000000000D+00
   382  3.8100000000000D+00  0.0000000000000D+00  0.0000000000000D+00
   383  3.8200000000000D+00  0.0000000000000D+00  0.0000000000000D+00
   384  3.8300000000000D+00  0.0000000000000D+00  0.0000000000000D+00
   385  3.8400000000000D+00  0.0000000000000D+00  0.0000000000000D+00
   386  3.8500000000000D+00  0.0000000000000D+00  0.0000000000000D+00
   387  3.8600000000000D+00  0.0000000000000D+00  0.0000000000000D+00
   388  3.8700000000000D+00  0.0000000000000D+00  0.0000000000000D+00
   389  3.8800000000000D+00  0.0000000000000D+00  0.0000000000000D+00
   390  3.8900000000000D+00  0.0000000000000D+00  0.0000000000000D+00
   391  3.9000000000000D+00  0.0000000000000D+00  0.0000000000000D+00
   392  3.9100000000000D+00  0.0000000000000D+00  0.0000000000000D+00
   393  3.9200000000000D+00  0.0000000000000D+00  0.0000000000000D+00
   394  3.9300000000000D+00  0.0000000000000D+00  0.0000000000000D+00
   395  3.9400000000000D+00  0.0000000000000D+00  0.0000000000000D+00
   396  3.9500000000000D+00  0.0000000000000D+00  0.0000000000000D+00
   397  3.9600000000000D+00  0.0000000000000D+00  0.0000000000000D+00
   398  3.9700000000000D+00  0.0000000000000D+00  0.0000000000000D+00
   399  3.9800000000000D+00  0.0000000000000D+00  0.0000000000000D+00
   400  3.9900000000000D+00  0.0000000000000D+00  0.0000000000000D+00
   401  4.0000000000000D+00  0.0000000000000D+00  0.0000000000000D+00
   402  4.0100000000000D+00  0.0000000000000D+00  0.0000000000000D+00
   403  4.0200000000000D+00  0.0000000000000D+00  0.0000000000000D+00
   404  4.0300000000000D+00  0.0000000000000D+00  0.0000000000000D+00
   405  4.0400000000000D+00  0.0000000000000D+00  0.0000000000000D+00
   406  4.0500000000000D+00  0.0000000000000D+00  0.0000000000000D+00
   407  4.0600000000000D+00  0.0000000000000D+00  0.0000000000000D+00
   408  4.0700000000000D+00  0.0000000000000D+00  0.0000000000000D+00
   409  4.0800000000000D+00  0.0000000000000D+00  0.0000000000000D+00
   410  4.0900000000000D+00  0.0000000000000D+00  0.0000000000000D+00
   411  4.1000000000000D+00  0.0000000000000D+00  0.0000000000000D+00
   412  4.1100000000000D+00  0.0000000000000D+00  0.0000000000000D+00
   413  4.1200000000000D+00  0.0000000000000D+00  0.0000000000000D+00
   414  4.1300000000000D+00  0.0000000000000D+00  0.0000000000000D+00
   415  4.1400000000000D+00  0.0000000000000D+00  0.0000000000000D+00
   416  4.1500000000000D+00  0.0000000000000D+00  0.0000000000000D+00
   417  4.1600000000000D+00  0.0000000000000D+00  0.0000000000000D+00
   418  4.1700000000000D+00  0.0000000000000D+00  0.0000000000000D+00
   419  4.1800000000000D+00  0.0000000000000D+00  0.0000000000000D+00
   420  4.1900000000000D+00  0.0000000000000D+00  0.0000000000000D+00
   421  4.2000000000000D+00  0.0000000000000D+00  0.0000000000000D+00
   422  4.2100000000000D+00  0.0000000000000D+00  0.0000000000000D+00