O     ONCVPSP-3.3.1  r_core=   1.29195   1.47310
      8.0000      6.0000      210904    zatom,zion,pspd
     8       2   1     4   600     0    pspcod,pspxc,lmax,lloc,mmax,r2well
  5.99000000  0.00000000  0.00000000    rchrg fchrg qchrg
     2     2     0     0    nproj
     3     1           extension_switch
     3     0     0    nprojso
   0                         1.3940620233989D+00  9.8039422494633D+00
     1  0.0000000000000D+00 -9.8155330252592D-09  2.8161880605282D-09
     2  1.0000000000000D-02 -6.4043941390751D-03  8.9662934715535D-02
     3  2.0000000000000D-02 -1.3052639775168D-02  1.7918074980318D-01
     4  3.0000000000000D-02 -2.0180827048205D-02  2.6840664283689D-01
     5  4.0000000000000D-02 -2.8009672867524D-02  3.5719048814715D-01
     6  5.0000000000000D-02 -3.6737205448820D-02  4.4537728034861D-01
     7  6.0000000000000D-02 -4.6531887116292D-02  5.3280570200652D-01
     8  7.0000000000000D-02 -5.7526309720128D-02  6.1930685345584D-01
     9  8.0000000000000D-02 -6.9811587203949D-02  7.0470317997059D-01
    10  9.0000000000000D-02 -8.3432557890925D-02  7.8880762804582D-01
    11  1.0000000000000D-01 -9.8383895135448D-02  8.7142305855476D-01
    12  1.1000000000000D-01 -1.1460720933749D-01  9.5234194004325D-01
    13  1.2000000000000D-01 -1.3198920719455D-01  1.0313463404943D+00
    14  1.3000000000000D-01 -1.5036095575270D-01  1.1082082306166D+00
    15  1.4000000000000D-01 -1.6949827961410D-01  1.1826901061665D+00
    16  1.5000000000000D-01 -1.8912329988045D-01  1.2545459310933D+00
    17  1.6000000000000D-01 -2.0890710338681D-01  1.3235223974936D+00
    18  1.7000000000000D-01 -2.2847351084044D-01  1.3893604925684D+00
    19  1.8000000000000D-01 -2.4740389295759D-01  1.4517973570897D+00
    20  1.9000000000000D-01 -2.6524296491338D-01  1.5105684143931D+00
    21  2.0000000000000D-01 -2.8150547170358D-01  1.5654097437139D+00
    22  2.1000000000000D-01 -2.9568366066152D-01  1.6160606668590D+00
    23  2.2000000000000D-01 -3.0725542265940D-01  1.6622665128403D+00
    24  2.3000000000000D-01 -3.1569297070353D-01  1.7037815212538D+00
    25  2.4000000000000D-01 -3.2047191393418D-01  1.7403718419529D+00
    26  2.5000000000000D-01 -3.2108057665082D-01  1.7718185859710D+00
    27  2.6000000000000D-01 -3.1702940605978D-01  1.7979208807678D+00
    28  2.7000000000000D-01 -3.0786030909427D-01  1.8184988817179D+00
    29  2.8000000000000D-01 -2.9315575796241D-01  1.8333966913769D+00
    30  2.9000000000000D-01 -2.7254750606276D-01  1.8424851384411D+00
    31  3.0000000000000D-01 -2.4572476055584D-01  1.8456643694792D+00
    32  3.1000000000000D-01 -2.1244166513452D-01  1.8428662084352D+00
    33  3.2000000000000D-01 -1.7252395629028D-01  1.8340562415600D+00
    34  3.3000000000000D-01 -1.2587466848447D-01  1.8192355887910D+00
    35  3.4000000000000D-01 -7.2478777914303D-02  1.7984423266138D+00
    36  3.5000000000000D-01 -1.2406690791454D-02  1.7717525320465D+00
    37  3.6000000000000D-01  5.4183500031767D-02  1.7392809225255D+00
    38  3.7000000000000D-01  1.2704504693460D-01  1.7011810720555D+00
    39  3.8000000000000D-01  2.0584290433540D-01  1.6576451899323D+00
    40  3.9000000000000D-01  2.9015542570873D-01  1.6089034545696D+00
    41  4.0000000000000D-01  3.7947739451279D-01  1.5552229013561D+00
    42  4.1000000000000D-01  4.7322436110781D-01  1.4969058699401D+00
    43  4.2000000000000D-01  5.7073823643256D-01  1.4342880227851D+00
    44  4.3000000000000D-01  6.7129407256406D-01  1.3677359531571D+00
    45  4.4000000000000D-01  7.7410794065740D-01  1.2976444067962D+00
    46  4.5000000000000D-01  8.7834579848638D-01  1.2244331472858D+00
    47  4.6000000000000D-01  9.8313322319063D-01  1.1485435004855D+00
    48  4.7000000000000D-01  1.0875658701705D+00  1.0704346182343D+00
    49  4.8000000000000D-01  1.1907205066075D+00  9.9057950579452D-01
    50  4.9000000000000D-01  1.2916664580497D+00  9.0946086112381D-01
    51  5.0000000000000D-01  1.3894772990576D+00  8.2756677696201D-01
    52  5.1000000000000D-01  1.4832426142023D+00  7.4538635887464D-01
    53  5.2000000000000D-01  1.5720796538197D+00  6.6340531375188D-01
    54  5.3000000000000D-01  1.6551447099011D+00  5.8210156381043D-01
    55  5.4000000000000D-01  1.7316440413290D+00  5.0194094087396D-01
    56  5.5000000000000D-01  1.8008441842837D+00  4.2337301461952D-01
    57  5.6000000000000D-01  1.8620814929603D+00  3.4682710659219D-01
    58  5.7000000000000D-01  1.9147707675509D+00  2.7270853914415D-01
    59  5.8000000000000D-01  1.9584128406480D+00  2.0139516507609D-01
    60  5.9000000000000D-01  1.9926010094274D+00  1.3323421973697D-01
    61  6.0000000000000D-01  2.0170262191019D+00  6.8539532689623D-02
    62  6.1000000000000D-01  2.0314809226373D+00  7.5891309159668D-03
    63  6.2000000000000D-01  2.0358615625018D+00 -4.9376740062795D-02
    64  6.3000000000000D-01  2.0301696417477D+00 -1.0215715670039D-01
    65  6.4000000000000D-01  2.0145113736399D+00 -1.5059160527795D-01
    66  6.5000000000000D-01  1.9890959211433D+00 -1.9456060913229D-01
    67  6.6000000000000D-01  1.9542322591873D+00 -2.3398589362333D-01
    68  6.7000000000000D-01  1.9103247136003D+00 -2.6883009348238D-01
    69  6.8000000000000D-01  1.8578672505283D+00 -2.9909601330293D-01
    70  6.9000000000000D-01  1.7974366085919D+00 -3.2482545776490D-01
    71  7.0000000000000D-01  1.7296843827142D+00 -3.4609765364474D-01
    72  7.1000000000000D-01  1.6553281833007D+00 -3.6302729070760D-01
    73  7.2000000000000D-01  1.5751420068085D+00 -3.7576221305765D-01
    74  7.3000000000000D-01  1.4899459636504D+00 -3.8448079642004D-01
    75  7.4000000000000D-01  1.4005955166249D+00 -3.8938905007109D-01
    76  7.5000000000000D-01  1.3079703875251D+00 -3.9071748466287D-01
    77  7.6000000000000D-01  1.2129632912135D+00 -3.8871778900354D-01
    78  7.7000000000000D-01  1.1164686552126D+00 -3.8365935989355D-01
    79  7.8000000000000D-01  1.0193714788225D+00 -3.7582572940999D-01
    80  7.9000000000000D-01  9.2253647901390D-01 -3.6551093356478D-01
    81  8.0000000000000D-01  8.2679766099910D-01 -3.5301586506467D-01
    82  8.1000000000000D-01  7.3294843964779D-01 -3.3864465100358D-01
    83  8.2000000000000D-01  6.4173242401637D-01 -3.2270109376713D-01
    84  8.3000000000000D-01  5.5383496147618D-01 -3.0548521028275D-01
    85  8.4000000000000D-01  4.6987552055890D-01 -2.8728990107268D-01
    86  8.5000000000000D-01  3.9040097302112D-01 -2.6839777643785D-01
    87  8.6000000000000D-01  3.1587981612326D-01 -2.4907816260148D-01
    88  8.7000000000000D-01  2.4669735608718D-01 -2.2958430586020D-01
    89  8.8000000000000D-01  1.8315185352362D-01 -2.1015078782077D-01
    90  8.9000000000000D-01  1.2545160845603D-01 -1.9099115903903D-01
    91  9.0000000000000D-01  7.3712945106297D-02 -1.7229579340416D-01
    92  9.1000000000000D-01  2.7959257528986D-02 -1.5423001050240D-01
    93  9.2000000000000D-01 -1.1880137254579D-02 -1.3693219878863D-01
    94  9.3000000000000D-01 -4.5959618071550D-02 -1.2051450500286D-01
    95  9.4000000000000D-01 -7.4497419364436D-02 -1.0506595221125D-01
    96  9.5000000000000D-01 -9.7762448807616D-02 -9.0654563340742D-02
    97  9.6000000000000D-01 -1.1606852305015D-01 -7.7328095377859D-02
    98  9.7000000000000D-01 -1.2976703289036D-01 -6.5115222159521D-02
    99  9.8000000000000D-01 -1.3923955310437D-01 -5.4026858614111D-02
   100  9.9000000000000D-01 -1.4489030893131D-01 -4.4057638745412D-02
   101  1.0000000000000D+00 -1.4713863237926D-01 -3.5187516108737D-02
   102  1.0100000000000D+00 -1.4641154605143D-01 -2.7383453071398D-02
   103  1.0200000000000D+00 -1.4313660159323D-01 -2.0601166406982D-02
   104  1.0300000000000D+00 -1.3773509152304D-01 -1.4786897628955D-02
   105  1.0400000000000D+00 -1.3061574296255D-01 -9.8791778571409D-03
   106  1.0500000000000D+00 -1.2216898888597D-01 -5.8105590499325D-03
   107  1.0600000000000D+00 -1.1276190042728D-01 -2.5092854731791D-03
   108  1.0700000000000D+00 -1.0273384665432D-01  9.9117612096789D-05
   109  1.0800000000000D+00 -9.2392933571517D-02  2.0903582514755D-03
   110  1.0900000000000D+00 -8.2013256959744D-02  3.5400119203679D-03
   111  1.1000000000000D+00 -7.1832985838342D-02  4.5222886445418D-03
   112  1.1100000000000D+00 -6.2053746356480D-02  5.1090800971380D-03
   113  1.1200000000000D+00 -5.2837608294055D-02  5.3682158073976D-03
   114  1.1300000000000D+00 -4.4309979543143D-02  5.3633716722224D-03
   115  1.1400000000000D+00 -3.6599836734662D-02  5.1648075051213D-03
   116  1.1500000000000D+00 -2.9615378698653D-02  4.7828464588699D-03
   117  1.1600000000000D+00 -2.3343398366295D-02  4.2538923820311D-03
   118  1.1700000000000D+00 -1.8040076764619D-02  3.6950044851523D-03
   119  1.1800000000000D+00 -1.3613325752649D-02  3.1234490316678D-03
   120  1.1900000000000D+00 -9.9587967785475D-03  2.5529661361072D-03
   121  1.2000000000000D+00 -7.0391915444096D-03  2.0156742487878D-03
   122  1.2100000000000D+00 -4.7751313069948D-03  1.5294358729342D-03
   123  1.2200000000000D+00 -3.0818702889059D-03  1.1075141124136D-03
   124  1.2300000000000D+00 -1.8708441181680D-03  7.5811461884306D-04
   125  1.2400000000000D+00 -1.0525361535242D-03  4.8438900633975D-04
   126  1.2500000000000D+00 -5.4030870525432D-04  2.8482577289117D-04
   127  1.2600000000000D+00 -2.5309509622339D-04  1.5332200055861D-04
   128  1.2700000000000D+00 -1.1717367319749D-04  7.8828850254765D-05
   129  1.2800000000000D+00 -8.0140542189644D-05  5.2594383059945D-05
   130  1.2900000000000D+00 -7.9504431484210D-05  4.8648407902617D-05
   131  1.3000000000000D+00 -3.8448791736943D-05  2.2935091565969D-05
   132  1.3100000000000D+00  5.3328956372163D-06 -3.1600236428301D-06
   133  1.3200000000000D+00  4.0968758382954D-06 -2.4137648896720D-06
   134  1.3300000000000D+00 -1.8075910617557D-06  1.0827825472425D-06
   135  1.3400000000000D+00  4.8618717031402D-08 -2.9537528600261D-08
   136  1.3500000000000D+00  1.7492762948223D-07 -1.0627450032196D-07
   137  1.3600000000000D+00  0.0000000000000D+00  0.0000000000000D+00
   138  1.3700000000000D+00  0.0000000000000D+00  0.0000000000000D+00
   139  1.3800000000000D+00  0.0000000000000D+00  0.0000000000000D+00
   140  1.3900000000000D+00  0.0000000000000D+00  0.0000000000000D+00
   141  1.4000000000000D+00  0.0000000000000D+00  0.0000000000000D+00
   142  1.4100000000000D+00  0.0000000000000D+00  0.0000000000000D+00
   143  1.4200000000000D+00  0.0000000000000D+00  0.0000000000000D+00
   144  1.4300000000000D+00  0.0000000000000D+00  0.0000000000000D+00
   145  1.4400000000000D+00  0.0000000000000D+00  0.0000000000000D+00
   146  1.4500000000000D+00  0.0000000000000D+00  0.0000000000000D+00
   147  1.4600000000000D+00  0.0000000000000D+00  0.0000000000000D+00
   148  1.4700000000000D+00  0.0000000000000D+00  0.0000000000000D+00
   149  1.4800000000000D+00  0.0000000000000D+00  0.0000000000000D+00
   150  1.4900000000000D+00  0.0000000000000D+00  0.0000000000000D+00
   151  1.5000000000000D+00  0.0000000000000D+00  0.0000000000000D+00
   152  1.5100000000000D+00  0.0000000000000D+00  0.0000000000000D+00
   153  1.5200000000000D+00  0.0000000000000D+00  0.0000000000000D+00
   154  1.5300000000000D+00  0.0000000000000D+00  0.0000000000000D+00
   155  1.5400000000000D+00  0.0000000000000D+00  0.0000000000000D+00
   156  1.5500000000000D+00  0.0000000000000D+00  0.0000000000000D+00
   157  1.5600000000000D+00  0.0000000000000D+00  0.0000000000000D+00
   158  1.5700000000000D+00  0.0000000000000D+00  0.0000000000000D+00
   159  1.5800000000000D+00  0.0000000000000D+00  0.0000000000000D+00
   160  1.5900000000000D+00  0.0000000000000D+00  0.0000000000000D+00
   161  1.6000000000000D+00  0.0000000000000D+00  0.0000000000000D+00
   162  1.6100000000000D+00  0.0000000000000D+00  0.0000000000000D+00
   163  1.6200000000000D+00  0.0000000000000D+00  0.0000000000000D+00
   164  1.6300000000000D+00  0.0000000000000D+00  0.0000000000000D+00
   165  1.6400000000000D+00  0.0000000000000D+00  0.0000000000000D+00
   166  1.6500000000000D+00  0.0000000000000D+00  0.0000000000000D+00
   167  1.6600000000000D+00  0.0000000000000D+00  0.0000000000000D+00
   168  1.6700000000000D+00  0.0000000000000D+00  0.0000000000000D+00
   169  1.6800000000000D+00  0.0000000000000D+00  0.0000000000000D+00
   170  1.6900000000000D+00  0.0000000000000D+00  0.0000000000000D+00
   171  1.7000000000000D+00  0.0000000000000D+00  0.0000000000000D+00
   172  1.7100000000000D+00  0.0000000000000D+00  0.0000000000000D+00
   173  1.7200000000000D+00  0.0000000000000D+00  0.0000000000000D+00
   174  1.7300000000000D+00  0.0000000000000D+00  0.0000000000000D+00
   175  1.7400000000000D+00  0.0000000000000D+00  0.0000000000000D+00
   176  1.7500000000000D+00  0.0000000000000D+00  0.0000000000000D+00
   177  1.7600000000000D+00  0.0000000000000D+00  0.0000000000000D+00
   178  1.7700000000000D+00  0.0000000000000D+00  0.0000000000000D+00
   179  1.7800000000000D+00  0.0000000000000D+00  0.0000000000000D+00
   180  1.7900000000000D+00  0.0000000000000D+00  0.0000000000000D+00
   181  1.8000000000000D+00  0.0000000000000D+00  0.0000000000000D+00
   182  1.8100000000000D+00  0.0000000000000D+00  0.0000000000000D+00
   183  1.8200000000000D+00  0.0000000000000D+00  0.0000000000000D+00
   184  1.8300000000000D+00  0.0000000000000D+00  0.0000000000000D+00
   185  1.8400000000000D+00  0.0000000000000D+00  0.0000000000000D+00
   186  1.8500000000000D+00  0.0000000000000D+00  0.0000000000000D+00
   187  1.8600000000000D+00  0.0000000000000D+00  0.0000000000000D+00
   188  1.8700000000000D+00  0.0000000000000D+00  0.0000000000000D+00
   189  1.8800000000000D+00  0.0000000000000D+00  0.0000000000000D+00
   190  1.8900000000000D+00  0.0000000000000D+00  0.0000000000000D+00
   191  1.9000000000000D+00  0.0000000000000D+00  0.0000000000000D+00
   192  1.9100000000000D+00  0.0000000000000D+00  0.0000000000000D+00
   193  1.9200000000000D+00  0.0000000000000D+00  0.0000000000000D+00
   194  1.9300000000000D+00  0.0000000000000D+00  0.0000000000000D+00
   195  1.9400000000000D+00  0.0000000000000D+00  0.0000000000000D+00
   196  1.9500000000000D+00  0.0000000000000D+00  0.0000000000000D+00
   197  1.9600000000000D+00  0.0000000000000D+00  0.0000000000000D+00
   198  1.9700000000000D+00  0.0000000000000D+00  0.0000000000000D+00
   199  1.9800000000000D+00  0.0000000000000D+00  0.0000000000000D+00
   200  1.9900000000000D+00  0.0000000000000D+00  0.0000000000000D+00
   201  2.0000000000000D+00  0.0000000000000D+00  0.0000000000000D+00
   202  2.0100000000000D+00  0.0000000000000D+00  0.0000000000000D+00
   203  2.0200000000000D+00  0.0000000000000D+00  0.0000000000000D+00
   204  2.0300000000000D+00  0.0000000000000D+00  0.0000000000000D+00
   205  2.0400000000000D+00  0.0000000000000D+00  0.0000000000000D+00
   206  2.0500000000000D+00  0.0000000000000D+00  0.0000000000000D+00
   207  2.0600000000000D+00  0.0000000000000D+00  0.0000000000000D+00
   208  2.0700000000000D+00  0.0000000000000D+00  0.0000000000000D+00
   209  2.0800000000000D+00  0.0000000000000D+00  0.0000000000000D+00
   210  2.0900000000000D+00  0.0000000000000D+00  0.0000000000000D+00
   211  2.1000000000000D+00  0.0000000000000D+00  0.0000000000000D+00
   212  2.1100000000000D+00  0.0000000000000D+00  0.0000000000000D+00
   213  2.1200000000000D+00  0.0000000000000D+00  0.0000000000000D+00
   214  2.1300000000000D+00  0.0000000000000D+00  0.0000000000000D+00
   215  2.1400000000000D+00  0.0000000000000D+00  0.0000000000000D+00
   216  2.1500000000000D+00  0.0000000000000D+00  0.0000000000000D+00
   217  2.1600000000000D+00  0.0000000000000D+00  0.0000000000000D+00
   218  2.1700000000000D+00  0.0000000000000D+00  0.0000000000000D+00
   219  2.1800000000000D+00  0.0000000000000D+00  0.0000000000000D+00
   220  2.1900000000000D+00  0.0000000000000D+00  0.0000000000000D+00
   221  2.2000000000000D+00  0.0000000000000D+00  0.0000000000000D+00
   222  2.2100000000000D+00  0.0000000000000D+00  0.0000000000000D+00
   223  2.2200000000000D+00  0.0000000000000D+00  0.0000000000000D+00
   224  2.2300000000000D+00  0.0000000000000D+00  0.0000000000000D+00
   225  2.2400000000000D+00  0.0000000000000D+00  0.0000000000000D+00
   226  2.2500000000000D+00  0.0000000000000D+00  0.0000000000000D+00
   227  2.2600000000000D+00  0.0000000000000D+00  0.0000000000000D+00
   228  2.2700000000000D+00  0.0000000000000D+00  0.0000000000000D+00
   229  2.2800000000000D+00  0.0000000000000D+00  0.0000000000000D+00
   230  2.2900000000000D+00  0.0000000000000D+00  0.0000000000000D+00
   231  2.3000000000000D+00  0.0000000000000D+00  0.0000000000000D+00
   232  2.3100000000000D+00  0.0000000000000D+00  0.0000000000000D+00
   233  2.3200000000000D+00  0.0000000000000D+00  0.0000000000000D+00
   234  2.3300000000000D+00  0.0000000000000D+00  0.0000000000000D+00
   235  2.3400000000000D+00  0.0000000000000D+00  0.0000000000000D+00
   236  2.3500000000000D+00  0.0000000000000D+00  0.0000000000000D+00
   237  2.3600000000000D+00  0.0000000000000D+00  0.0000000000000D+00
   238  2.3700000000000D+00  0.0000000000000D+00  0.0000000000000D+00
   239  2.3800000000000D+00  0.0000000000000D+00  0.0000000000000D+00
   240  2.3900000000000D+00  0.0000000000000D+00  0.0000000000000D+00
   241  2.4000000000000D+00  0.0000000000000D+00  0.0000000000000D+00
   242  2.4100000000000D+00  0.0000000000000D+00  0.0000000000000D+00
   243  2.4200000000000D+00  0.0000000000000D+00  0.0000000000000D+00
   244  2.4300000000000D+00  0.0000000000000D+00  0.0000000000000D+00
   245  2.4400000000000D+00  0.0000000000000D+00  0.0000000000000D+00
   246  2.4500000000000D+00  0.0000000000000D+00  0.0000000000000D+00
   247  2.4600000000000D+00  0.0000000000000D+00  0.0000000000000D+00
   248  2.4700000000000D+00  0.0000000000000D+00  0.0000000000000D+00
   249  2.4800000000000D+00  0.0000000000000D+00  0.0000000000000D+00
   250  2.4900000000000D+00  0.0000000000000D+00  0.0000000000000D+00
   251  2.5000000000000D+00  0.0000000000000D+00  0.0000000000000D+00
   252  2.5100000000000D+00  0.0000000000000D+00  0.0000000000000D+00
   253  2.5200000000000D+00  0.0000000000000D+00  0.0000000000000D+00
   254  2.5300000000000D+00  0.0000000000000D+00  0.0000000000000D+00
   255  2.5400000000000D+00  0.0000000000000D+00  0.0000000000000D+00
   256  2.5500000000000D+00  0.0000000000000D+00  0.0000000000000D+00
   257  2.5600000000000D+00  0.0000000000000D+00  0.0000000000000D+00
   258  2.5700000000000D+00  0.0000000000000D+00  0.0000000000000D+00
   259  2.5800000000000D+00  0.0000000000000D+00  0.0000000000000D+00
   260  2.5900000000000D+00  0.0000000000000D+00  0.0000000000000D+00
   261  2.6000000000000D+00  0.0000000000000D+00  0.0000000000000D+00
   262  2.6100000000000D+00  0.0000000000000D+00  0.0000000000000D+00
   263  2.6200000000000D+00  0.0000000000000D+00  0.0000000000000D+00
   264  2.6300000000000D+00  0.0000000000000D+00  0.0000000000000D+00
   265  2.6400000000000D+00  0.0000000000000D+00  0.0000000000000D+00
   266  2.6500000000000D+00  0.0000000000000D+00  0.0000000000000D+00
   267  2.6600000000000D+00  0.0000000000000D+00  0.0000000000000D+00
   268  2.6700000000000D+00  0.0000000000000D+00  0.0000000000000D+00
   269  2.6800000000000D+00  0.0000000000000D+00  0.0000000000000D+00
   270  2.6900000000000D+00  0.0000000000000D+00  0.0000000000000D+00
   271  2.7000000000000D+00  0.0000000000000D+00  0.0000000000000D+00
   272  2.7100000000000D+00  0.0000000000000D+00  0.0000000000000D+00
   273  2.7200000000000D+00  0.0000000000000D+00  0.0000000000000D+00
   274  2.7300000000000D+00  0.0000000000000D+00  0.0000000000000D+00
   275  2.7400000000000D+00  0.0000000000000D+00  0.0000000000000D+00
   276  2.7500000000000D+00  0.0000000000000D+00  0.0000000000000D+00
   277  2.7600000000000D+00  0.0000000000000D+00  0.0000000000000D+00
   278  2.7700000000000D+00  0.0000000000000D+00  0.0000000000000D+00
   279  2.7800000000000D+00  0.0000000000000D+00  0.0000000000000D+00
   280  2.7900000000000D+00  0.0000000000000D+00  0.0000000000000D+00
   281  2.8000000000000D+00  0.0000000000000D+00  0.0000000000000D+00
   282  2.8100000000000D+00  0.0000000000000D+00  0.0000000000000D+00
   283  2.8200000000000D+00  0.0000000000000D+00  0.0000000000000D+00
   284  2.8300000000000D+00  0.0000000000000D+00  0.0000000000000D+00
   285  2.8400000000000D+00  0.0000000000000D+00  0.0000000000000D+00
   286  2.8500000000000D+00  0.0000000000000D+00  0.0000000000000D+00
   287  2.8600000000000D+00  0.0000000000000D+00  0.0000000000000D+00
   288  2.8700000000000D+00  0.0000000000000D+00  0.0000000000000D+00
   289  2.8800000000000D+00  0.0000000000000D+00  0.0000000000000D+00
   290  2.8900000000000D+00  0.0000000000000D+00  0.0000000000000D+00
   291  2.9000000000000D+00  0.0000000000000D+00  0.0000000000000D+00
   292  2.9100000000000D+00  0.0000000000000D+00  0.0000000000000D+00
   293  2.9200000000000D+00  0.0000000000000D+00  0.0000000000000D+00
   294  2.9300000000000D+00  0.0000000000000D+00  0.0000000000000D+00
   295  2.9400000000000D+00  0.0000000000000D+00  0.0000000000000D+00
   296  2.9500000000000D+00  0.0000000000000D+00  0.0000000000000D+00
   297  2.9600000000000D+00  0.0000000000000D+00  0.0000000000000D+00
   298  2.9700000000000D+00  0.0000000000000D+00  0.0000000000000D+00
   299  2.9800000000000D+00  0.0000000000000D+00  0.0000000000000D+00
   300  2.9900000000000D+00  0.0000000000000D+00  0.0000000000000D+00
   301  3.0000000000000D+00  0.0000000000000D+00  0.0000000000000D+00
   302  3.0100000000000D+00  0.0000000000000D+00  0.0000000000000D+00
   303  3.0200000000000D+00  0.0000000000000D+00  0.0000000000000D+00
   304  3.0300000000000D+00  0.0000000000000D+00  0.0000000000000D+00
   305  3.0400000000000D+00  0.0000000000000D+00  0.0000000000000D+00
   306  3.0500000000000D+00  0.0000000000000D+00  0.0000000000000D+00
   307  3.0600000000000D+00  0.0000000000000D+00  0.0000000000000D+00
   308  3.0700000000000D+00  0.0000000000000D+00  0.0000000000000D+00
   309  3.0800000000000D+00  0.0000000000000D+00  0.0000000000000D+00
   310  3.0900000000000D+00  0.0000000000000D+00  0.0000000000000D+00
   311  3.1000000000000D+00  0.0000000000000D+00  0.0000000000000D+00
   312  3.1100000000000D+00  0.0000000000000D+00  0.0000000000000D+00
   313  3.1200000000000D+00  0.0000000000000D+00  0.0000000000000D+00
   314  3.1300000000000D+00  0.0000000000000D+00  0.0000000000000D+00
   315  3.1400000000000D+00  0.0000000000000D+00  0.0000000000000D+00
   316  3.1500000000000D+00  0.0000000000000D+00  0.0000000000000D+00
   317  3.1600000000000D+00  0.0000000000000D+00  0.0000000000000D+00
   318  3.1700000000000D+00  0.0000000000000D+00  0.0000000000000D+00
   319  3.1800000000000D+00  0.0000000000000D+00  0.0000000000000D+00
   320  3.1900000000000D+00  0.0000000000000D+00  0.0000000000000D+00
   321  3.2000000000000D+00  0.0000000000000D+00  0.0000000000000D+00
   322  3.2100000000000D+00  0.0000000000000D+00  0.0000000000000D+00
   323  3.2200000000000D+00  0.0000000000000D+00  0.0000000000000D+00
   324  3.2300000000000D+00  0.0000000000000D+00  0.0000000000000D+00
   325  3.2400000000000D+00  0.0000000000000D+00  0.0000000000000D+00
   326  3.2500000000000D+00  0.0000000000000D+00  0.0000000000000D+00
   327  3.2600000000000D+00  0.0000000000000D+00  0.0000000000000D+00
   328  3.2700000000000D+00  0.0000000000000D+00  0.0000000000000D+00
   329  3.2800000000000D+00  0.0000000000000D+00  0.0000000000000D+00
   330  3.2900000000000D+00  0.0000000000000D+00  0.0000000000000D+00
   331  3.3000000000000D+00  0.0000000000000D+00  0.0000000000000D+00
   332  3.3100000000000D+00  0.0000000000000D+00  0.0000000000000D+00
   333  3.3200000000000D+00  0.0000000000000D+00  0.0000000000000D+00
   334  3.3300000000000D+00  0.0000000000000D+00  0.0000000000000D+00
   335  3.3400000000000D+00  0.0000000000000D+00  0.0000000000000D+00
   336  3.3500000000000D+00  0.0000000000000D+00  0.0000000000000D+00
   337  3.3600000000000D+00  0.0000000000000D+00  0.0000000000000D+00
   338  3.3700000000000D+00  0.0000000000000D+00  0.0000000000000D+00
   339  3.3800000000000D+00  0.0000000000000D+00  0.0000000000000D+00
   340  3.3900000000000D+00  0.0000000000000D+00  0.0000000000000D+00
   341  3.4000000000000D+00  0.0000000000000D+00  0.0000000000000D+00
   342  3.4100000000000D+00  0.0000000000000D+00  0.0000000000000D+00
   343  3.4200000000000D+00  0.0000000000000D+00  0.0000000000000D+00
   344  3.4300000000000D+00  0.0000000000000D+00  0.0000000000000D+00
   345  3.4400000000000D+00  0.0000000000000D+00  0.0000000000000D+00
   346  3.4500000000000D+00  0.0000000000000D+00  0.0000000000000D+00
   347  3.4600000000000D+00  0.0000000000000D+00  0.0000000000000D+00
   348  3.4700000000000D+00  0.0000000000000D+00  0.0000000000000D+00
   349  3.4800000000000D+00  0.0000000000000D+00  0.0000000000000D+00
   350  3.4900000000000D+00  0.0000000000000D+00  0.0000000000000D+00
   351  3.5000000000000D+00  0.0000000000000D+00  0.0000000000000D+00
   352  3.5100000000000D+00  0.0000000000000D+00  0.0000000000000D+00
   353  3.5200000000000D+00  0.0000000000000D+00  0.0000000000000D+00
   354  3.5300000000000D+00  0.0000000000000D+00  0.0000000000000D+00
   355  3.5400000000000D+00  0.0000000000000D+00  0.0000000000000D+00
   356  3.5500000000000D+00  0.0000000000000D+00  0.0000000000000D+00
   357  3.5600000000000D+00  0.0000000000000D+00  0.0000000000000D+00
   358  3.5700000000000D+00  0.0000000000000D+00  0.0000000000000D+00
   359  3.5800000000000D+00  0.0000000000000D+00  0.0000000000000D+00
   360  3.5900000000000D+00  0.0000000000000D+00  0.0000000000000D+00
   361  3.6000000000000D+00  0.0000000000000D+00  0.0000000000000D+00
   362  3.6100000000000D+00  0.0000000000000D+00  0.0000000000000D+00
   363  3.6200000000000D+00  0.0000000000000D+00  0.0000000000000D+00
   364  3.6300000000000D+00  0.0000000000000D+00  0.0000000000000D+00
   365  3.6400000000000D+00  0.0000000000000D+00  0.0000000000000D+00
   366  3.6500000000000D+00  0.0000000000000D+00  0.0000000000000D+00
   367  3.6600000000000D+00  0.0000000000000D+00  0.0000000000000D+00
   368  3.6700000000000D+00  0.0000000000000D+00  0.0000000000000D+00
   369  3.6800000000000D+00  0.0000000000000D+00  0.0000000000000D+00
   370  3.6900000000000D+00  0.0000000000000D+00  0.0000000000000D+00
   371  3.7000000000000D+00  0.0000000000000D+00  0.0000000000000D+00
   372  3.7100000000000D+00  0.0000000000000D+00  0.0000000000000D+00
   373  3.7200000000000D+00  0.0000000000000D+00  0.0000000000000D+00
   374  3.7300000000000D+00  0.0000000000000D+00  0.0000000000000D+00
   375  3.7400000000000D+00  0.0000000000000D+00  0.0000000000000D+00
   376  3.7500000000000D+00  0.0000000000000D+00  0.0000000000000D+00
   377  3.7600000000000D+00  0.0000000000000D+00  0.0000000000000D+00
   378  3.7700000000000D+00  0.0000000000000D+00  0.0000000000000D+00
   379  3.7800000000000D+00  0.0000000000000D+00  0.0000000000000D+00
   380  3.7900000000000D+00  0.0000000000000D+00  0.0000000000000D+00
   381  3.8000000000000D+00  0.0000000000000D+00  0.0000000000000D+00
   382  3.8100000000000D+00  0.0000000000000D+00  0.0000000000000D+00
   383  3.8200000000000D+00  0.0000000000000D+00  0.0000000000000D+00
   384  3.8300000000000D+00  0.0000000000000D+00  0.0000000000000D+00
   385  3.8400000000000D+00  0.0000000000000D+00  0.0000000000000D+00
   386  3.8500000000000D+00  0.0000000000000D+00  0.0000000000000D+00
   387  3.8600000000000D+00  0.0000000000000D+00  0.0000000000000D+00
   388  3.8700000000000D+00  0.0000000000000D+00  0.0000000000000D+00
   389  3.8800000000000D+00  0.0000000000000D+00  0.0000000000000D+00
   390  3.8900000000000D+00  0.0000000000000D+00  0.0000000000000D+00
   391  3.9000000000000D+00  0.0000000000000D+00  0.0000000000000D+00
   392  3.9100000000000D+00  0.0000000000000D+00  0.0000000000000D+00
   393  3.9200000000000D+00  0.0000000000000D+00  0.0000000000000D+00
   394  3.9300000000000D+00  0.0000000000000D+00  0.0000000000000D+00
   395  3.9400000000000D+00  0.0000000000000D+00  0.0000000000000D+00
   396  3.9500000000000D+00  0.0000000000000D+00  0.0000000000000D+00
   397  3.9600000000000D+00  0.0000000000000D+00  0.0000000000000D+00
   398  3.9700000000000D+00  0.0000000000000D+00  0.0000000000000D+00
   399  3.9800000000000D+00  0.0000000000000D+00  0.0000000000000D+00
   400  3.9900000000000D+00  0.0000000000000D+00  0.0000000000000D+00
   401  4.0000000000000D+00  0.0000000000000D+00  0.0000000000000D+00
   402  4.0100000000000D+00  0.0000000000000D+00  0.0000000000000D+00
   403  4.0200000000000D+00  0.0000000000000D+00  0.0000000000000D+00
   404  4.0300000000000D+00  0.0000000000000D+00  0.0000000000000D+00
   405  4.0400000000000D+00  0.0000000000000D+00  0.0000000000000D+00
   406  4.0500000000000D+00  0.0000000000000D+00  0.0000000000000D+00
   407  4.0600000000000D+00  0.0000000000000D+00  0.0000000000000D+00
   408  4.0700000000000D+00  0.0000000000000D+00  0.0000000000000D+00
   409  4.0800000000000D+00  0.0000000000000D+00  0.0000000000000D+00
   410  4.0900000000000D+00  0.0000000000000D+00  0.0000000000000D+00
   411  4.1000000000000D+00  0.0000000000000D+00  0.0000000000000D+00
   412  4.1100000000000D+00  0.0000000000000D+00  0.0000000000000D+00
   413  4.1200000000000D+00  0.0000000000000D+00  0.0000000000000D+00
   414  4.1300000000000D+00  0.0000000000000D+00  0.0000000000000D+00
   415  4.1400000000000D+00  0.0000000000000D+00  0.0000000000000D+00
   416  4.1500000000000D+00  0.0000000000000D+00  0.0000000000000D+00
   417  4.1600000000000D+00  0.0000000000000D+00  0.0000000000000D+00
   418  4.1700000000000D+00  0.0000000000000D+00  0.0000000000000D+00
   419  4.1800000000000D+00  0.0000000000000D+00  0.0000000000000D+00
   420  4.1900000000000D+00  0.0000000000000D+00  0.0000000000000D+00
   421  4.2000000000000D+00  0.0000000000000D+00  0.0000000000000D+00
   422  4.2100000000000D+00  0.0000000000000D+00  0.0000000000000D+00