Os    ONCVPSP-3.3.1  r_core=   1.76739   1.87601   1.51352   2.61993
     76.0000     16.0000      210904    zatom,zion,pspd
     8       2   3     4   600     0    pspcod,pspxc,lmax,lloc,mmax,r2well
  5.99000000  0.00000000  0.00000000    rchrg fchrg qchrg
     2     4     3     4    nproj
     3     1           extension_switch
     4     4     4    nprojso
   0                         2.0745181968000D+00  1.4160998975017D+01
     1  0.0000000000000D+00 -3.1633785868568D-10  1.3870610215960D-10
     2  1.0000000000000D-02 -9.2059016579781D-03  5.2685539253517D-02
     3  2.0000000000000D-02 -1.8456370173315D-02  1.0534276167829D-01
     4  3.0000000000000D-02 -2.7794934977451D-02  1.5794293739744D-01
     5  4.0000000000000D-02 -3.7263060951659D-02  2.1045651491592D-01
     6  5.0000000000000D-02 -4.6899141825880D-02  2.6285272147136D-01
     7  6.0000000000000D-02 -5.6737524162012D-02  3.1509917667840D-01
     8  7.0000000000000D-02 -6.6807571744125D-02  3.6716152373430D-01
     9  8.0000000000000D-02 -7.7132779881688D-02  4.1900308231477D-01
    10  9.0000000000000D-02 -8.7729948739849D-02  4.7058452711739D-01
    11  1.0000000000000D-01 -9.8608424345534D-02  5.2186359580616D-01
    12  1.1000000000000D-01 -1.0976941538216D-01  5.7279482987676D-01
    13  1.2000000000000D-01 -1.2120539328260D-01  6.2332935169844D-01
    14  1.3000000000000D-01 -1.3289958246312D-01  6.7341468069809D-01
    15  1.4000000000000D-01 -1.4482554681456D-01  7.2299459133604D-01
    16  1.5000000000000D-01 -1.5694687778574D-01  7.7200901518347D-01
    17  1.6000000000000D-01 -1.6921698856256D-01  8.2039398905127D-01
    18  1.7000000000000D-01 -1.8157901797034D-01  8.6808165074118D-01
    19  1.8000000000000D-01 -1.9396584681224D-01  9.1500028359505D-01
    20  1.9000000000000D-01 -2.0630022840916D-01  9.6107441061027D-01
    21  2.0000000000000D-01 -2.1849503413325D-01  1.0062249384708D+00
    22  2.1000000000000D-01 -2.3045361373435D-01  1.0503693514181D+00
    23  2.2000000000000D-01 -2.4207026925445D-01  1.0934219544554D+00
    24  2.3000000000000D-01 -2.5323084031582D-01  1.1352941649500D+00
    25  2.4000000000000D-01 -2.6381339756240D-01  1.1758948512673D+00
    26  2.5000000000000D-01 -2.7368904003941D-01  1.2151307166492D+00
    27  2.6000000000000D-01 -2.8272279131914D-01  1.2529067261343D+00
    28  2.7000000000000D-01 -2.9077458823256D-01  1.2891265739159D+00
    29  2.8000000000000D-01 -2.9770035515137D-01  1.3236931881477D+00
    30  2.9000000000000D-01 -3.0335315589451D-01  1.3565092698371D+00
    31  3.0000000000000D-01 -3.0758441451267D-01  1.3874778621236D+00
    32  3.1000000000000D-01 -3.1024519544275D-01  1.4165029459143D+00
    33  3.2000000000000D-01 -3.1118753282903D-01  1.4434900575589D+00
    34  3.3000000000000D-01 -3.1026579818538D-01  1.4683469239805D+00
    35  3.4000000000000D-01 -3.0733809503115D-01  1.4909841104512D+00
    36  3.5000000000000D-01 -3.0226766867752D-01  1.5113156760053D+00
    37  3.6000000000000D-01 -2.9492431897718D-01  1.5292598313260D+00
    38  3.7000000000000D-01 -2.8518580358440D-01  1.5447395938268D+00
    39  3.8000000000000D-01 -2.7293921910705D-01  1.5576834345675D+00
    40  3.9000000000000D-01 -2.5808234747313D-01  1.5680259116166D+00
    41  4.0000000000000D-01 -2.4052495488267D-01  1.5757082844757D+00
    42  4.1000000000000D-01 -2.2019003087488D-01  1.5806791042402D+00
    43  4.2000000000000D-01 -1.9701495531024D-01  1.5828947742622D+00
    44  4.3000000000000D-01 -1.7095258144875D-01  1.5823200762296D+00
    45  4.4000000000000D-01 -1.4197222379690D-01  1.5789286567553D+00
    46  4.5000000000000D-01 -1.1006053999671D-01  1.5727034698034D+00
    47  4.6000000000000D-01 -7.5222296735126D-02  1.5636371705450D+00
    48  4.7000000000000D-01 -3.7481010460210D-02  1.5517324565519D+00
    49  4.8000000000000D-01  3.1205454067418D-03  1.5370023525781D+00
    50  4.9000000000000D-01  4.6519974079046D-02  1.5194704355710D+00
    51  5.0000000000000D-01  9.2635036071743D-02  1.4991709969646D+00
    52  5.1000000000000D-01  1.4136358201417D-01  1.4761491397593D+00
    53  5.2000000000000D-01  1.9258364147513D-01  1.4504608083660D+00
    54  5.3000000000000D-01  2.4615367039279D-01  1.4221727496897D+00
    55  5.4000000000000D-01  3.0191295837947D-01  1.3913624044442D+00
    56  5.5000000000000D-01  3.5968219581416D-01  1.3581177282243D+00
    57  5.6000000000000D-01  4.1926419925861D-01  1.3225369424019D+00
    58  5.7000000000000D-01  4.8044479233896D-01  1.2847282154645D+00
    59  5.8000000000000D-01  5.4299383785039D-01  1.2448092759651D+00
    60  5.9000000000000D-01  6.0666641546462D-01  1.2029069588000D+00
    61  6.0000000000000D-01  6.7120413807859D-01  1.1591566870740D+00
    62  6.1000000000000D-01  7.3633659853218D-01  1.1137018923393D+00
    63  6.2000000000000D-01  8.0178293717738D-01  1.0666933765056D+00
    64  6.3000000000000D-01  8.6725351958947D-01  1.0182886192108D+00
    65  6.4000000000000D-01  9.3245171260832D-01  9.6865103490131D-01
    66  6.5000000000000D-01  9.9707574587841D-01  9.1794918430870D-01
    67  6.6000000000000D-01  1.0608206451383D+00  8.6635594540447D-01
    68  6.7000000000000D-01  1.1233802227059D+00  8.1404764927675D-01
    69  6.8000000000000D-01  1.1844491099196D+00  7.6120318669101D-01
    70  6.9000000000000D-01  1.2437248157336D+00  7.0800309137114D-01
    71  7.0000000000000D-01  1.3009097952457D+00  6.5462860626314D-01
    72  7.1000000000000D-01  1.3557135116502D+00  6.0126073922023D-01
    73  7.2000000000000D-01  1.4078544749692D+00  5.4807931467333D-01
    74  7.3000000000000D-01  1.4570622409250D+00  4.9526202792218D-01
    75  7.4000000000000D-01  1.5030793534732D+00  4.4298350870033D-01
    76  7.5000000000000D-01  1.5456632148211D+00  3.9141440063046D-01
    77  7.6000000000000D-01  1.5845878672121D+00  3.4072046309510D-01
    78  7.7000000000000D-01  1.6196456713494D+00  2.9106170190430D-01
    79  7.8000000000000D-01  1.6506488670725D+00  2.4259153494335D-01
    80  7.9000000000000D-01  1.6774310027699D+00  1.9545599873622D-01
    81  8.0000000000000D-01  1.6998482210038D+00  1.4979300156391D-01
    82  8.1000000000000D-01  1.7177803889376D+00  1.0573162843329D-01
    83  8.2000000000000D-01  1.7311320633753D+00  6.3391502806796D-02
    84  8.3000000000000D-01  1.7398332815337D+00  2.2882209577348D-02
    85  8.4000000000000D-01  1.7438401700690D+00 -1.5697216688053D-02
    86  8.5000000000000D-01  1.7431353663397D+00 -5.2258734705387D-02
    87  8.6000000000000D-01  1.7377282474129D+00 -8.6725667620089D-02
    88  8.7000000000000D-01  1.7276549638793D+00 -1.1903299987344D-01
    89  8.8000000000000D-01  1.7129782771276D+00 -1.4912759787809D-01
    90  8.9000000000000D-01  1.6937872003243D+00 -1.7696835316253D-01
    91  9.0000000000000D-01  1.6701964449300D+00 -2.0252624722168D-01
    92  9.1000000000000D-01  1.6423456761486D+00 -2.2578433788919D-01
    93  9.2000000000000D-01  1.6103985822311D+00 -2.4673766762147D-01
    94  9.3000000000000D-01  1.5745417640256D+00 -2.6539309464870D-01
    95  9.4000000000000D-01  1.5349834525692D+00 -2.8176904849831D-01
    96  9.5000000000000D-01  1.4919520638351D+00 -2.9589521192714D-01
    97  9.6000000000000D-01  1.4456946009749D+00 -3.0781213180671D-01
    98  9.7000000000000D-01  1.3964749155071D+00 -3.1757076198186D-01
    99  9.8000000000000D-01  1.3445718398956D+00 -3.2523194156570D-01
   100  9.9000000000000D-01  1.2902772048400D+00 -3.3086581254829D-01
   101  1.0000000000000D+00  1.2338937553186D+00 -3.3455118095729D-01
   102  1.0100000000000D+00  1.1757329800110D+00 -3.3637482613571D-01
   103  1.0200000000000D+00  1.1161128691682D+00 -3.3643076297960D-01
   104  1.0300000000000D+00  1.0553556162742D+00 -3.3481946221022D-01
   105  1.0400000000000D+00  9.9378527897152D-01 -3.3164703393183D-01
   106  1.0500000000000D+00  9.3172541470694D-01 -3.2702437986167D-01
   107  1.0600000000000D+00  8.6949670635980D-01 -3.2106631969727D-01
   108  1.0700000000000D+00  8.0741459279628D-01 -3.1389069711380D-01
   109  1.0800000000000D+00  7.4578691880462D-01 -3.0561747086246D-01
   110  1.0900000000000D+00  6.8491161824873D-01 -2.9636779636754D-01
   111  1.1000000000000D+00  6.2507444359720D-01 -2.8626310311753D-01
   112  1.1100000000000D+00  5.6654675401565D-01 -2.7542417296095D-01
   113  1.1200000000000D+00  5.0958337333652D-01 -2.6397022423216D-01
   114  1.1300000000000D+00  4.5442052798346D-01 -2.5201800634618D-01
   115  1.1400000000000D+00  4.0127387410887D-01 -2.3968090930767D-01
   116  1.1500000000000D+00  3.5033662156433D-01 -2.2706809216041D-01
   117  1.1600000000000D+00  3.0177776132293D-01 -2.1428363413211D-01
   118  1.1700000000000D+00  2.5574039490900D-01 -2.0142571036709D-01
   119  1.1800000000000D+00  2.1234019762315D-01 -1.8858580118206D-01
   120  1.1900000000000D+00  1.7166398288645D-01 -1.7584793077485D-01
   121  1.2000000000000D+00  1.3376858767765D-01 -1.6328798338994D-01
   122  1.2100000000000D+00  9.8678430414660D-02 -1.5097273962005D-01
   123  1.2200000000000D+00  6.6389646511989D-02 -1.3896036101472D-01
   124  1.2300000000000D+00  3.6876570558048D-02 -1.2730148861923D-01
   125  1.2400000000000D+00  1.0098941214516D-02 -1.1604066642499D-01
   126  1.2500000000000D+00 -1.3997236750140D-02 -1.0521644021473D-01
   127  1.2600000000000D+00 -3.5479256218816D-02 -9.4861397314914D-02
   128  1.2700000000000D+00 -5.4426525186666D-02 -8.5002372477437D-02
   129  1.2800000000000D+00 -7.0929545625732D-02 -7.5660640866991D-02
   130  1.2900000000000D+00 -8.5088819637979D-02 -6.6852142622784D-02
   131  1.3000000000000D+00 -9.7013708806672D-02 -5.8587733558078D-02
   132  1.3100000000000D+00 -1.0682125879762D-01 -5.0873458819180D-02
   133  1.3200000000000D+00 -1.1463500141841D-01 -4.3710846139778D-02
   134  1.3300000000000D+00 -1.2058374520715D-01 -3.7097215586150D-02
   135  1.3400000000000D+00 -1.2480036594533D-01 -3.1026002551841D-02
   136  1.3500000000000D+00 -1.2742060760060D-01 -2.5487090858817D-02
   137  1.3600000000000D+00 -1.2858190438070D-01 -2.0467152820071D-02
   138  1.3700000000000D+00 -1.2842223418095D-01 -1.5949993120432D-02
   139  1.3800000000000D+00 -1.2707901216497D-01 -1.1916893698183D-02
   140  1.3900000000000D+00 -1.2468803458780D-01 -8.3469565163243D-03
   141  1.4000000000000D+00 -1.2138248009329D-01 -5.2174416901950D-03
   142  1.4100000000000D+00 -1.1729197612936D-01 -2.5040983880983D-03
   143  1.4200000000000D+00 -1.1254173812168D-01 -1.8148587482806D-04
   144  1.4300000000000D+00 -1.0725178531582D-01  1.7767170493220D-03
   145  1.4400000000000D+00 -1.0153624047505D-01  3.3974167359149D-03
   146  1.4500000000000D+00 -9.5502715522252D-02  4.7078248260175D-03
   147  1.4600000000000D+00 -8.9251786843179D-02  5.7351955240142D-03
   148  1.4700000000000D+00 -8.2876563155117D-02  6.5065815337771D-03
   149  1.4800000000000D+00 -7.6462344472874D-02  7.0486090529689D-03
   150  1.4900000000000D+00 -7.0086375991219D-02  7.3872735886470D-03
   151  1.5000000000000D+00 -6.3817691942551D-02  7.5477560996266D-03
   152  1.5100000000000D+00 -5.7717050821949D-02  7.5542605992012D-03
   153  1.5200000000000D+00 -5.1837245926367D-02  7.4299562628339D-03
   154  1.5300000000000D+00 -4.6221883018340D-02  7.1964730268036D-03
   155  1.5400000000000D+00 -4.0905149666519D-02  6.8736827674067D-03
   156  1.5500000000000D+00 -3.5923951448964D-02  6.4830491280183D-03
   157  1.5600000000000D+00 -3.1304309598226D-02  6.0435410399764D-03
   158  1.5700000000000D+00 -2.7017146870227D-02  5.5587277217977D-03
   159  1.5800000000000D+00 -2.3044088854479D-02  5.0355843671643D-03
   160  1.5900000000000D+00 -1.9435402342845D-02  4.5010236990375D-03
   161  1.6000000000000D+00 -1.6224025253387D-02  3.9770347573655D-03
   162  1.6100000000000D+00 -1.3384189292066D-02  3.4686520193836D-03
   163  1.6200000000000D+00 -1.0889439239508D-02  2.9804704060124D-03
   164  1.6300000000000D+00 -8.7275418365955D-03  2.5207852763115D-03
   165  1.6400000000000D+00 -6.8807380944311D-03  2.0958009473111D-03
   166  1.6500000000000D+00 -5.3256284951154D-03  1.7094787183157D-03
   167  1.6600000000000D+00 -4.0376364597159D-03  1.3647052964845D-03
   168  1.6700000000000D+00 -2.9910494225173D-03  1.0632013051445D-03
   169  1.6800000000000D+00 -2.1592740660207D-03  8.0549973596012D-04
   170  1.6900000000000D+00 -1.5154351773506D-03  5.9103243716985D-04
   171  1.7000000000000D+00 -1.0328617782926D-03  4.1819399884842D-04
   172  1.7100000000000D+00 -6.8569631439219D-04  2.8444451845784D-04
   173  1.7200000000000D+00 -4.4867342571169D-04  1.8621539999190D-04
   174  1.7300000000000D+00 -2.9650043471992D-04  1.1863813757284D-04
   175  1.7400000000000D+00 -2.0974636502428D-04  7.7277889755900D-05
   176  1.7500000000000D+00 -1.7690031845826D-04  5.8867232790354D-05
   177  1.7600000000000D+00 -1.7028949447819D-04  5.3645646988194D-05
   178  1.7700000000000D+00 -1.3756032623194D-04  4.2867473556507D-05
   179  1.7800000000000D+00 -6.1072276817737D-05  1.9009738716712D-05
   180  1.7900000000000D+00  4.7866660538151D-06 -1.4777845057150D-06
   181  1.8000000000000D+00  1.5275799032392D-05 -4.7106694061545D-06
   182  1.8100000000000D+00  1.2100654822140D-07 -3.7296557029981D-08
   183  1.8200000000000D+00 -3.5837179046701D-06  1.1021656508656D-06
   184  1.8300000000000D+00 -8.1844304253119D-07  2.5150312312083D-07
   185  1.8400000000000D+00  4.1418835090517D-07 -1.2929558475696D-07
   186  1.8500000000000D+00  2.1045078614188D-07 -6.5695612629642D-08
   187  1.8600000000000D+00  0.0000000000000D+00  0.0000000000000D+00
   188  1.8700000000000D+00  0.0000000000000D+00  0.0000000000000D+00
   189  1.8800000000000D+00  0.0000000000000D+00  0.0000000000000D+00
   190  1.8900000000000D+00  0.0000000000000D+00  0.0000000000000D+00
   191  1.9000000000000D+00  0.0000000000000D+00  0.0000000000000D+00
   192  1.9100000000000D+00  0.0000000000000D+00  0.0000000000000D+00
   193  1.9200000000000D+00  0.0000000000000D+00  0.0000000000000D+00
   194  1.9300000000000D+00  0.0000000000000D+00  0.0000000000000D+00
   195  1.9400000000000D+00  0.0000000000000D+00  0.0000000000000D+00
   196  1.9500000000000D+00  0.0000000000000D+00  0.0000000000000D+00
   197  1.9600000000000D+00  0.0000000000000D+00  0.0000000000000D+00
   198  1.9700000000000D+00  0.0000000000000D+00  0.0000000000000D+00
   199  1.9800000000000D+00  0.0000000000000D+00  0.0000000000000D+00
   200  1.9900000000000D+00  0.0000000000000D+00  0.0000000000000D+00
   201  2.0000000000000D+00  0.0000000000000D+00  0.0000000000000D+00
   202  2.0100000000000D+00  0.0000000000000D+00  0.0000000000000D+00
   203  2.0200000000000D+00  0.0000000000000D+00  0.0000000000000D+00
   204  2.0300000000000D+00  0.0000000000000D+00  0.0000000000000D+00
   205  2.0400000000000D+00  0.0000000000000D+00  0.0000000000000D+00
   206  2.0500000000000D+00  0.0000000000000D+00  0.0000000000000D+00
   207  2.0600000000000D+00  0.0000000000000D+00  0.0000000000000D+00
   208  2.0700000000000D+00  0.0000000000000D+00  0.0000000000000D+00
   209  2.0800000000000D+00  0.0000000000000D+00  0.0000000000000D+00
   210  2.0900000000000D+00  0.0000000000000D+00  0.0000000000000D+00
   211  2.1000000000000D+00  0.0000000000000D+00  0.0000000000000D+00
   212  2.1100000000000D+00  0.0000000000000D+00  0.0000000000000D+00
   213  2.1200000000000D+00  0.0000000000000D+00  0.0000000000000D+00
   214  2.1300000000000D+00  0.0000000000000D+00  0.0000000000000D+00
   215  2.1400000000000D+00  0.0000000000000D+00  0.0000000000000D+00
   216  2.1500000000000D+00  0.0000000000000D+00  0.0000000000000D+00
   217  2.1600000000000D+00  0.0000000000000D+00  0.0000000000000D+00
   218  2.1700000000000D+00  0.0000000000000D+00  0.0000000000000D+00
   219  2.1800000000000D+00  0.0000000000000D+00  0.0000000000000D+00
   220  2.1900000000000D+00  0.0000000000000D+00  0.0000000000000D+00
   221  2.2000000000000D+00  0.0000000000000D+00  0.0000000000000D+00
   222  2.2100000000000D+00  0.0000000000000D+00  0.0000000000000D+00
   223  2.2200000000000D+00  0.0000000000000D+00  0.0000000000000D+00
   224  2.2300000000000D+00  0.0000000000000D+00  0.0000000000000D+00
   225  2.2400000000000D+00  0.0000000000000D+00  0.0000000000000D+00
   226  2.2500000000000D+00  0.0000000000000D+00  0.0000000000000D+00
   227  2.2600000000000D+00  0.0000000000000D+00  0.0000000000000D+00
   228  2.2700000000000D+00  0.0000000000000D+00  0.0000000000000D+00
   229  2.2800000000000D+00  0.0000000000000D+00  0.0000000000000D+00
   230  2.2900000000000D+00  0.0000000000000D+00  0.0000000000000D+00
   231  2.3000000000000D+00  0.0000000000000D+00  0.0000000000000D+00
   232  2.3100000000000D+00  0.0000000000000D+00  0.0000000000000D+00
   233  2.3200000000000D+00  0.0000000000000D+00  0.0000000000000D+00
   234  2.3300000000000D+00  0.0000000000000D+00  0.0000000000000D+00
   235  2.3400000000000D+00  0.0000000000000D+00  0.0000000000000D+00
   236  2.3500000000000D+00  0.0000000000000D+00  0.0000000000000D+00
   237  2.3600000000000D+00  0.0000000000000D+00  0.0000000000000D+00
   238  2.3700000000000D+00  0.0000000000000D+00  0.0000000000000D+00
   239  2.3800000000000D+00  0.0000000000000D+00  0.0000000000000D+00
   240  2.3900000000000D+00  0.0000000000000D+00  0.0000000000000D+00
   241  2.4000000000000D+00  0.0000000000000D+00  0.0000000000000D+00
   242  2.4100000000000D+00  0.0000000000000D+00  0.0000000000000D+00
   243  2.4200000000000D+00  0.0000000000000D+00  0.0000000000000D+00
   244  2.4300000000000D+00  0.0000000000000D+00  0.0000000000000D+00
   245  2.4400000000000D+00  0.0000000000000D+00  0.0000000000000D+00
   246  2.4500000000000D+00  0.0000000000000D+00  0.0000000000000D+00
   247  2.4600000000000D+00  0.0000000000000D+00  0.0000000000000D+00
   248  2.4700000000000D+00  0.0000000000000D+00  0.0000000000000D+00
   249  2.4800000000000D+00  0.0000000000000D+00  0.0000000000000D+00
   250  2.4900000000000D+00  0.0000000000000D+00  0.0000000000000D+00
   251  2.5000000000000D+00  0.0000000000000D+00  0.0000000000000D+00
   252  2.5100000000000D+00  0.0000000000000D+00  0.0000000000000D+00
   253  2.5200000000000D+00  0.0000000000000D+00  0.0000000000000D+00
   254  2.5300000000000D+00  0.0000000000000D+00  0.0000000000000D+00
   255  2.5400000000000D+00  0.0000000000000D+00  0.0000000000000D+00
   256  2.5500000000000D+00  0.0000000000000D+00  0.0000000000000D+00
   257  2.5600000000000D+00  0.0000000000000D+00  0.0000000000000D+00
   258  2.5700000000000D+00  0.0000000000000D+00  0.0000000000000D+00
   259  2.5800000000000D+00  0.0000000000000D+00  0.0000000000000D+00
   260  2.5900000000000D+00  0.0000000000000D+00  0.0000000000000D+00
   261  2.6000000000000D+00  0.0000000000000D+00  0.0000000000000D+00
   262  2.6100000000000D+00  0.0000000000000D+00  0.0000000000000D+00
   263  2.6200000000000D+00  0.0000000000000D+00  0.0000000000000D+00
   264  2.6300000000000D+00  0.0000000000000D+00  0.0000000000000D+00
   265  2.6400000000000D+00  0.0000000000000D+00  0.0000000000000D+00
   266  2.6500000000000D+00  0.0000000000000D+00  0.0000000000000D+00
   267  2.6600000000000D+00  0.0000000000000D+00  0.0000000000000D+00
   268  2.6700000000000D+00  0.0000000000000D+00  0.0000000000000D+00
   269  2.6800000000000D+00  0.0000000000000D+00  0.0000000000000D+00
   270  2.6900000000000D+00  0.0000000000000D+00  0.0000000000000D+00
   271  2.7000000000000D+00  0.0000000000000D+00  0.0000000000000D+00
   272  2.7100000000000D+00  0.0000000000000D+00  0.0000000000000D+00
   273  2.7200000000000D+00  0.0000000000000D+00  0.0000000000000D+00
   274  2.7300000000000D+00  0.0000000000000D+00  0.0000000000000D+00
   275  2.7400000000000D+00  0.0000000000000D+00  0.0000000000000D+00
   276  2.7500000000000D+00  0.0000000000000D+00  0.0000000000000D+00
   277  2.7600000000000D+00  0.0000000000000D+00  0.0000000000000D+00
   278  2.7700000000000D+00  0.0000000000000D+00  0.0000000000000D+00
   279  2.7800000000000D+00  0.0000000000000D+00  0.0000000000000D+00
   280  2.7900000000000D+00  0.0000000000000D+00  0.0000000000000D+00
   281  2.8000000000000D+00  0.0000000000000D+00  0.0000000000000D+00
   282  2.8100000000000D+00  0.0000000000000D+00  0.0000000000000D+00
   283  2.8200000000000D+00  0.0000000000000D+00  0.0000000000000D+00
   284  2.8300000000000D+00  0.0000000000000D+00  0.0000000000000D+00
   285  2.8400000000000D+00  0.0000000000000D+00  0.0000000000000D+00
   286  2.8500000000000D+00  0.0000000000000D+00  0.0000000000000D+00
   287  2.8600000000000D+00  0.0000000000000D+00  0.0000000000000D+00
   288  2.8700000000000D+00  0.0000000000000D+00  0.0000000000000D+00
   289  2.8800000000000D+00  0.0000000000000D+00  0.0000000000000D+00
   290  2.8900000000000D+00  0.0000000000000D+00  0.0000000000000D+00
   291  2.9000000000000D+00  0.0000000000000D+00  0.0000000000000D+00
   292  2.9100000000000D+00  0.0000000000000D+00  0.0000000000000D+00
   293  2.9200000000000D+00  0.0000000000000D+00  0.0000000000000D+00
   294  2.9300000000000D+00  0.0000000000000D+00  0.0000000000000D+00
   295  2.9400000000000D+00  0.0000000000000D+00  0.0000000000000D+00
   296  2.9500000000000D+00  0.0000000000000D+00  0.0000000000000D+00
   297  2.9600000000000D+00  0.0000000000000D+00  0.0000000000000D+00
   298  2.9700000000000D+00  0.0000000000000D+00  0.0000000000000D+00
   299  2.9800000000000D+00  0.0000000000000D+00  0.0000000000000D+00
   300  2.9900000000000D+00  0.0000000000000D+00  0.0000000000000D+00
   301  3.0000000000000D+00  0.0000000000000D+00  0.0000000000000D+00
   302  3.0100000000000D+00  0.0000000000000D+00  0.0000000000000D+00
   303  3.0200000000000D+00  0.0000000000000D+00  0.0000000000000D+00
   304  3.0300000000000D+00  0.0000000000000D+00  0.0000000000000D+00
   305  3.0400000000000D+00  0.0000000000000D+00  0.0000000000000D+00
   306  3.0500000000000D+00  0.0000000000000D+00  0.0000000000000D+00
   307  3.0600000000000D+00  0.0000000000000D+00  0.0000000000000D+00
   308  3.0700000000000D+00  0.0000000000000D+00  0.0000000000000D+00
   309  3.0800000000000D+00  0.0000000000000D+00  0.0000000000000D+00
   310  3.0900000000000D+00  0.0000000000000D+00  0.0000000000000D+00
   311  3.1000000000000D+00  0.0000000000000D+00  0.0000000000000D+00
   312  3.1100000000000D+00  0.0000000000000D+00  0.0000000000000D+00
   313  3.1200000000000D+00  0.0000000000000D+00  0.0000000000000D+00
   314  3.1300000000000D+00  0.0000000000000D+00  0.0000000000000D+00
   315  3.1400000000000D+00  0.0000000000000D+00  0.0000000000000D+00
   316  3.1500000000000D+00  0.0000000000000D+00  0.0000000000000D+00
   317  3.1600000000000D+00  0.0000000000000D+00  0.0000000000000D+00
   318  3.1700000000000D+00  0.0000000000000D+00  0.0000000000000D+00
   319  3.1800000000000D+00  0.0000000000000D+00  0.0000000000000D+00
   320  3.1900000000000D+00  0.0000000000000D+00  0.0000000000000D+00
   321  3.2000000000000D+00  0.0000000000000D+00  0.0000000000000D+00
   322  3.2100000000000D+00  0.0000000000000D+00  0.0000000000000D+00
   323  3.2200000000000D+00  0.0000000000000D+00  0.0000000000000D+00
   324  3.2300000000000D+00  0.0000000000000D+00  0.0000000000000D+00
   325  3.2400000000000D+00  0.0000000000000D+00  0.0000000000000D+00
   326  3.2500000000000D+00  0.0000000000000D+00  0.0000000000000D+00
   327  3.2600000000000D+00  0.0000000000000D+00  0.0000000000000D+00
   328  3.2700000000000D+00  0.0000000000000D+00  0.0000000000000D+00
   329  3.2800000000000D+00  0.0000000000000D+00  0.0000000000000D+00
   330  3.2900000000000D+00  0.0000000000000D+00  0.0000000000000D+00
   331  3.3000000000000D+00  0.0000000000000D+00  0.0000000000000D+00
   332  3.3100000000000D+00  0.0000000000000D+00  0.0000000000000D+00
   333  3.3200000000000D+00  0.0000000000000D+00  0.0000000000000D+00
   334  3.3300000000000D+00  0.0000000000000D+00  0.0000000000000D+00
   335  3.3400000000000D+00  0.0000000000000D+00  0.0000000000000D+00
   336  3.3500000000000D+00  0.0000000000000D+00  0.0000000000000D+00
   337  3.3600000000000D+00  0.0000000000000D+00  0.0000000000000D+00
   338  3.3700000000000D+00  0.0000000000000D+00  0.0000000000000D+00
   339  3.3800000000000D+00  0.0000000000000D+00  0.0000000000000D+00
   340  3.3900000000000D+00  0.0000000000000D+00  0.0000000000000D+00
   341  3.4000000000000D+00  0.0000000000000D+00  0.0000000000000D+00
   342  3.4100000000000D+00  0.0000000000000D+00  0.0000000000000D+00
   343  3.4200000000000D+00  0.0000000000000D+00  0.0000000000000D+00
   344  3.4300000000000D+00  0.0000000000000D+00  0.0000000000000D+00
   345  3.4400000000000D+00  0.0000000000000D+00  0.0000000000000D+00
   346  3.4500000000000D+00  0.0000000000000D+00  0.0000000000000D+00
   347  3.4600000000000D+00  0.0000000000000D+00  0.0000000000000D+00
   348  3.4700000000000D+00  0.0000000000000D+00  0.0000000000000D+00
   349  3.4800000000000D+00  0.0000000000000D+00  0.0000000000000D+00
   350  3.4900000000000D+00  0.0000000000000D+00  0.0000000000000D+00
   351  3.5000000000000D+00  0.0000000000000D+00  0.0000000000000D+00
   352  3.5100000000000D+00  0.0000000000000D+00  0.0000000000000D+00
   353  3.5200000000000D+00  0.0000000000000D+00  0.0000000000000D+00
   354  3.5300000000000D+00  0.0000000000000D+00  0.0000000000000D+00
   355  3.5400000000000D+00  0.0000000000000D+00  0.0000000000000D+00
   356  3.5500000000000D+00  0.0000000000000D+00  0.0000000000000D+00
   357  3.5600000000000D+00  0.0000000000000D+00  0.0000000000000D+00
   358  3.5700000000000D+00  0.0000000000000D+00  0.0000000000000D+00
   359  3.5800000000000D+00  0.0000000000000D+00  0.0000000000000D+00
   360  3.5900000000000D+00  0.0000000000000D+00  0.0000000000000D+00
   361  3.6000000000000D+00  0.0000000000000D+00  0.0000000000000D+00
   362  3.6100000000000D+00  0.0000000000000D+00  0.0000000000000D+00
   363  3.6200000000000D+00  0.0000000000000D+00  0.0000000000000D+00
   364  3.6300000000000D+00  0.0000000000000D+00  0.0000000000000D+00
   365  3.6400000000000D+00  0.0000000000000D+00  0.0000000000000D+00
   366  3.6500000000000D+00  0.0000000000000D+00  0.0000000000000D+00
   367  3.6600000000000D+00  0.0000000000000D+00  0.0000000000000D+00
   368  3.6700000000000D+00  0.0000000000000D+00  0.0000000000000D+00
   369  3.6800000000000D+00  0.0000000000000D+00  0.0000000000000D+00
   370  3.6900000000000D+00  0.0000000000000D+00  0.0000000000000D+00
   371  3.7000000000000D+00  0.0000000000000D+00  0.0000000000000D+00
   372  3.7100000000000D+00  0.0000000000000D+00  0.0000000000000D+00
   373  3.7200000000000D+00  0.0000000000000D+00  0.0000000000000D+00
   374  3.7300000000000D+00  0.0000000000000D+00  0.0000000000000D+00
   375  3.7400000000000D+00  0.0000000000000D+00  0.0000000000000D+00
   376  3.7500000000000D+00  0.0000000000000D+00  0.0000000000000D+00
   377  3.7600000000000D+00  0.0000000000000D+00  0.0000000000000D+00
   378  3.7700000000000D+00  0.0000000000000D+00  0.0000000000000D+00
   379  3.7800000000000D+00  0.0000000000000D+00  0.0000000000000D+00
   380  3.7900000000000D+00  0.0000000000000D+00  0.0000000000000D+00
   381  3.8000000000000D+00  0.0000000000000D+00  0.0000000000000D+00
   382  3.8100000000000D+00  0.0000000000000D+00  0.0000000000000D+00
   383  3.8200000000000D+00  0.0000000000000D+00  0.0000000000000D+00
   384  3.8300000000000D+00  0.0000000000000D+00  0.0000000000000D+00
   385  3.8400000000000D+00  0.0000000000000D+00  0.0000000000000D+00
   386  3.8500000000000D+00  0.0000000000000D+00  0.0000000000000D+00
   387  3.8600000000000D+00  0.0000000000000D+00  0.0000000000000D+00
   388  3.8700000000000D+00  0.0000000000000D+00  0.0000000000000D+00
   389  3.8800000000000D+00  0.0000000000000D+00  0.0000000000000D+00
   390  3.8900000000000D+00  0.0000000000000D+00  0.0000000000000D+00
   391  3.9000000000000D+00  0.0000000000000D+00  0.0000000000000D+00
   392  3.9100000000000D+00  0.0000000000000D+00  0.0000000000000D+00
   393  3.9200000000000D+00  0.0000000000000D+00  0.0000000000000D+00
   394  3.9300000000000D+00  0.0000000000000D+00  0.0000000000000D+00
   395  3.9400000000000D+00  0.0000000000000D+00  0.0000000000000D+00
   396  3.9500000000000D+00  0.0000000000000D+00  0.0000000000000D+00
   397  3.9600000000000D+00  0.0000000000000D+00  0.0000000000000D+00
   398  3.9700000000000D+00  0.0000000000000D+00  0.0000000000000D+00
   399  3.9800000000000D+00  0.0000000000000D+00  0.0000000000000D+00
   400  3.9900000000000D+00  0.0000000000000D+00  0.0000000000000D+00
   401  4.0000000000000D+00  0.0000000000000D+00  0.0000000000000D+00
   402  4.0100000000000D+00  0.0000000000000D+00  0.0000000000000D+00
   403  4.0200000000000D+00  0.0000000000000D+00  0.0000000000000D+00
   404  4.0300000000000D+00  0.0000000000000D+00  0.0000000000000D+00
   405  4.0400000000000D+00  0.0000000000000D+00  0.0000000000000D+00
   406  4.0500000000000D+00  0.0000000000000D+00  0.0000000000000D+00
   407  4.0600000000000D+00  0.0000000000000D+00  0.0000000000000D+00
   408  4.0700000000000D+00  0.0000000000000D+00  0.0000000000000D+00
   409  4.0800000000000D+00  0.0000000000000D+00  0.0000000000000D+00
   410  4.0900000000000D+00  0.0000000000000D+00  0.0000000000000D+00
   411  4.1000000000000D+00  0.0000000000000D+00  0.0000000000000D+00
   412  4.1100000000000D+00  0.0000000000000D+00  0.0000000000000D+00
   413  4.1200000000000D+00  0.0000000000000D+00  0.0000000000000D+00
   414  4.1300000000000D+00  0.0000000000000D+00  0.0000000000000D+00
   415  4.1400000000000D+00  0.0000000000000D+00  0.0000000000000D+00
   416  4.1500000000000D+00  0.0000000000000D+00  0.0000000000000D+00
   417  4.1600000000000D+00  0.0000000000000D+00  0.0000000000000D+00
   418  4.1700000000000D+00  0.0000000000000D+00  0.0000000000000D+00
   419  4.1800000000000D+00  0.0000000000000D+00  0.0000000000000D+00
   420  4.1900000000000D+00  0.0000000000000D+00  0.0000000000000D+00
   421  4.2000000000000D+00  0.0000000000000D+00  0.0000000000000D+00
   422  4.2100000000000D+00  0.0000000000000D+00  0.0000000000000D+00