P     ONCVPSP-3.3.1  r_core=   2.62098   1.72641
     15.0000      5.0000      210904    zatom,zion,pspd
     8       2   1     4   600     0    pspcod,pspxc,lmax,lloc,mmax,r2well
  5.99000000  0.00000000  0.00000000    rchrg fchrg qchrg
     2     2     0     0     0    nproj
     1     1           extension_switch
   0                         6.6813654223457D+00  3.6889773772322D-01
     1  0.0000000000000D+00  1.0805412120618D-11  8.7616025545856D-13
     2  1.0000000000000D-02  3.3187865002250D-02 -2.7549670090991D-02
     3  2.0000000000000D-02  6.6366405833263D-02 -5.5042673439604D-02
     4  3.0000000000000D-02  9.9526211994501D-02 -8.2422422863403D-02
     5  4.0000000000000D-02  1.3265770089837D-01 -1.0963249028629D-01
     6  5.0000000000000D-02  1.6575103323485D-01 -1.3661668625803D-01
     7  6.0000000000000D-02  1.9879603002376D-01 -1.6331913943412D-01
     8  7.0000000000000D-02  2.3178209190213D-01 -1.8968437600384D-01
     9  8.0000000000000D-02  2.6469812118474D-01 -2.1565739905522D-01
    10  9.0000000000000D-02  2.9753244722319D-01 -2.4118376786661D-01
    11  1.0000000000000D-01  3.3027275557212D-01 -2.6620967711551D-01
    12  1.1000000000000D-01  3.6290602145339D-01 -2.9068203599640D-01
    13  1.2000000000000D-01  3.9541844798750D-01 -3.1454854723986D-01
    14  1.3000000000000D-01  4.2779540963870D-01 -3.3775778602622D-01
    15  1.4000000000000D-01  4.6002140129450D-01 -3.6025927878690D-01
    16  1.5000000000000D-01  4.9207999337260D-01 -3.8200358188683D-01
    17  1.6000000000000D-01  5.2395379331871D-01 -4.0294236017998D-01
    18  1.7000000000000D-01  5.5562441382687D-01 -4.2302846542929D-01
    19  1.8000000000000D-01  5.8707244808086D-01 -4.4221601457946D-01
    20  1.9000000000000D-01  6.1827745227973D-01 -4.6046046786831D-01
    21  2.0000000000000D-01  6.4921793567438D-01 -4.7771870675799D-01
    22  2.1000000000000D-01  6.7987135830410D-01 -4.9394911166215D-01
    23  2.2000000000000D-01  7.1021413658272D-01 -5.0911163943844D-01
    24  2.3000000000000D-01  7.4022165684412D-01 -5.2316790060807D-01
    25  2.4000000000000D-01  7.6986829691600D-01 -5.3608123625464D-01
    26  2.5000000000000D-01  7.9912745574884D-01 -5.4781679454376D-01
    27  2.6000000000000D-01  8.2797159108511D-01 -5.5834160679292D-01
    28  2.7000000000000D-01  8.5637226511152D-01 -5.6762466300682D-01
    29  2.8000000000000D-01  8.8430019799411D-01 -5.7563698677854D-01
    30  2.9000000000000D-01  9.1172532915398D-01 -5.8235170943968D-01
    31  3.0000000000000D-01  9.3861688609884D-01 -5.8774414332429D-01
    32  3.1000000000000D-01  9.6494346058430D-01 -5.9179185399182D-01
    33  3.2000000000000D-01  9.9067309183711D-01 -5.9447473123246D-01
    34  3.3000000000000D-01  1.0157733565328D+00 -5.9577505865687D-01
    35  3.4000000000000D-01  1.0402114651806D+00 -5.9567758164754D-01
    36  3.5000000000000D-01  1.0639543645311D+00 -5.9416957342527D-01
    37  3.6000000000000D-01  1.0869688455842D+00 -5.9124089895865D-01
    38  3.7000000000000D-01  1.1092216567415D+00 -5.8688407641861D-01
    39  3.8000000000000D-01  1.1306796216133D+00 -5.8109433585360D-01
    40  3.9000000000000D-01  1.1513097609587D+00 -5.7386967473500D-01
    41  4.0000000000000D-01  1.1710794182084D+00 -5.6521090999602D-01
    42  4.1000000000000D-01  1.1899563879938D+00 -5.5512172616171D-01
    43  4.2000000000000D-01  1.2079090470802D+00 -5.4360871914309D-01
    44  4.3000000000000D-01  1.2249064870803D+00 -5.3068143524427D-01
    45  4.4000000000000D-01  1.2409186483060D+00 -5.1635240491026D-01
    46  4.5000000000000D-01  1.2559164540996D+00 -5.0063717072183D-01
    47  4.6000000000000D-01  1.2698719449707D+00 -4.8355430912672D-01
    48  4.7000000000000D-01  1.2827584118578D+00 -4.6512544538084D-01
    49  4.8000000000000D-01  1.2945505278243D+00 -4.4537526116100D-01
    50  4.9000000000000D-01  1.3052244774949D+00 -4.2433149430218D-01
    51  5.0000000000000D-01  1.3147580835383D+00 -4.0202493010714D-01
    52  5.1000000000000D-01  1.3231309295055D+00 -3.7848938367609D-01
    53  5.2000000000000D-01  1.3303244783381D+00 -3.5376167270799D-01
    54  5.3000000000000D-01  1.3363221858712D+00 -3.2788158023431D-01
    55  5.4000000000000D-01  1.3411096086691D+00 -3.0089180676077D-01
    56  5.5000000000000D-01  1.3446745055476D+00 -2.7283791131269D-01
    57  5.6000000000000D-01  1.3470069321583D+00 -2.4376824090645D-01
    58  5.7000000000000D-01  1.3480993280323D+00 -2.1373384800211D-01
    59  5.8000000000000D-01  1.3479465955080D+00 -1.8278839553185D-01
    60  5.9000000000000D-01  1.3465461699998D+00 -1.5098804914571D-01
    61  6.0000000000000D-01  1.3438980810938D+00 -1.1839135636896D-01
    62  6.1000000000000D-01  1.3400050039983D+00 -8.5059112427330D-02
    63  6.2000000000000D-01  1.3348723009123D+00 -5.1054212563671D-02
    64  6.3000000000000D-01  1.3285080519200D+00 -1.6441490746513D-02
    65  6.4000000000000D-01  1.3209230750651D+00  1.8712455246684D-02
    66  6.5000000000000D-01  1.3121309353037D+00  5.4339452296711D-02
    67  6.6000000000000D-01  1.3021479420903D+00  9.0369953787760D-02
    68  6.7000000000000D-01  1.2909931353976D+00  1.2673325455145D-01
    69  6.8000000000000D-01  1.2786882600322D+00  1.6335771851814D-01
    70  6.9000000000000D-01  1.2652577281609D+00  2.0017101856346D-01
    71  7.0000000000000D-01  1.2507285700215D+00  2.3710038791075D-01
    72  7.1000000000000D-01  1.2351303728537D+00  2.7407288231785D-01
    73  7.2000000000000D-01  1.2184952081454D+00  3.1101565213623D-01
    74  7.3000000000000D-01  1.2008575473517D+00  3.4785622318583D-01
    75  7.4000000000000D-01  1.1822541663083D+00  3.8452278523929D-01
    76  7.5000000000000D-01  1.1627240386231D+00  4.2094448675395D-01
    77  7.6000000000000D-01  1.1423082183940D+00  4.5705173433162D-01
    78  7.7000000000000D-01  1.1210497126649D+00  4.9277649522438D-01
    79  7.8000000000000D-01  1.0989933440942D+00  5.2805260103927D-01
    80  7.9000000000000D-01  1.0761856043743D+00  5.6281605062868D-01
    81  8.0000000000000D-01  1.0526744990002D+00  5.9700530998501D-01
    82  8.1000000000000D-01  1.0285093840493D+00  6.3056160679039D-01
    83  8.2000000000000D-01  1.0037407956905D+00  6.6342921710394D-01
    84  8.3000000000000D-01  9.7842027320050D-01  6.9555574150308D-01
    85  8.4000000000000D-01  9.5260017631975D-01  7.2689236783088D-01
    86  8.5000000000000D-01  9.2633349783506D-01  7.5739411754050D-01
    87  8.6000000000000D-01  8.9967367232563D-01  7.8702007247045D-01
    88  8.7000000000000D-01  8.7267438205868D-01  8.1573357873262D-01
    89  8.8000000000000D-01  8.4538936106551D-01  8.4350242424844D-01
    90  8.9000000000000D-01  8.1787219847147D-01  8.7029898632938D-01
    91  9.0000000000000D-01  7.9017614219193D-01  8.9610034556623D-01
    92  9.1000000000000D-01  7.6235390414152D-01  9.2088836216865D-01
    93  9.2000000000000D-01  7.3445746813555D-01  9.4464971078313D-01
    94  9.3000000000000D-01  7.0653790168985D-01  9.6737586971427D-01
    95  9.4000000000000D-01  6.7864517294872D-01  9.8906306038282D-01
    96  9.5000000000000D-01  6.5082797398982D-01  1.0097121327740D+00
    97  9.6000000000000D-01  6.2313355176953D-01  1.0293283925630D+00
    98  9.7000000000000D-01  5.9560754798258D-01  1.0479213655507D+00
    99  9.8000000000000D-01  5.6829384911547D-01  1.0655044950051D+00
   100  9.9000000000000D-01  5.4123444797432D-01  1.0820947674768D+00
   101  1.0000000000000D+00  5.1446931796388D-01  1.0977122626512D+00
   102  1.0100000000000D+00  4.8803630138643D-01  1.1123796228040D+00
   103  1.0200000000000D+00  4.6197101301595D-01  1.1261214374530D+00
   104  1.0300000000000D+00  4.3630676018485D-01  1.1389635388355D+00
   105  1.0400000000000D+00  4.1107448059894D-01  1.1509322039008D+00
   106  1.0500000000000D+00  3.8630269906853D-01  1.1620532585763D+00
   107  1.0600000000000D+00  3.6201750431169D-01  1.1723510801627D+00
   108  1.0700000000000D+00  3.3824254695055D-01  1.1818474938155D+00
   109  1.0800000000000D+00  3.1499905957044D-01  1.1905605561351D+00
   110  1.0900000000000D+00  2.9230590018822D-01  1.1985032209633D+00
   111  1.1000000000000D+00  2.7017962770933D-01  1.2056820326785D+00
   112  1.1100000000000D+00  2.4863456662638D-01  1.2120950999657D+00
   113  1.1200000000000D+00  2.2768299753050D-01  1.2177314870864D+00
   114  1.1300000000000D+00  2.0733563894090D-01  1.2225746918904D+00
   115  1.1400000000000D+00  1.8760204585021D-01  1.2266072591520D+00
   116  1.1500000000000D+00  1.6849073293390D-01  1.2298124254363D+00
   117  1.1600000000000D+00  1.5000912809394D-01  1.2321737725158D+00
   118  1.1700000000000D+00  1.3216359108349D-01  1.2336755928808D+00
   119  1.1800000000000D+00  1.1495941558146D-01  1.2343030737580D+00
   120  1.1900000000000D+00  9.8400833585172D-02  1.2340424888470D+00
   121  1.2000000000000D+00  8.2491020389232D-02  1.2328813785130D+00
   122  1.2100000000000D+00  6.7232100518290D-02  1.2308087192838D+00
   123  1.2200000000000D+00  5.2625154749475D-02  1.2278150809003D+00
   124  1.2300000000000D+00  3.8670228405902D-02  1.2238927700578D+00
   125  1.2400000000000D+00  2.5366341094157D-02  1.2190359601410D+00
   126  1.2500000000000D+00  1.2711498050381D-02  1.2132408064301D+00
   127  1.2600000000000D+00  7.0270322846627D-04  1.2065055464976D+00
   128  1.2700000000000D+00 -1.0664025751455D-02  1.1988305855926D+00
   129  1.2800000000000D+00 -2.1393640687562D-02  1.1902185669281D+00
   130  1.2900000000000D+00 -3.1492043853917D-02  1.1806744269980D+00
   131  1.3000000000000D+00 -4.0966066978919D-02  1.1702054360654D+00
   132  1.3100000000000D+00 -4.9823448108343D-02  1.1588212240543D+00
   133  1.3200000000000D+00 -5.8072806365962D-02  1.1465337922312D+00
   134  1.3300000000000D+00 -6.5723614620026D-02  1.1333575110382D+00
   135  1.3400000000000D+00 -7.2786170089670D-02  1.1193091045316D+00
   136  1.3500000000000D+00 -7.9271562962427D-02  1.1044076219599D+00
   137  1.3600000000000D+00 -8.5191643079978D-02  1.0886743969849D+00
   138  1.3700000000000D+00 -9.0558984788208D-02  1.0721329951438D+00
   139  1.3800000000000D+00 -9.5386850060946D-02  1.0548091501683D+00
   140  1.3900000000000D+00 -9.9689149993125D-02  1.0367306897526D+00
   141  1.4000000000000D+00 -1.0348040480855D-01  1.0179274514620D+00
   142  1.4100000000000D+00 -1.0677570250366D-01  9.9843118942655D-01
   143  1.4200000000000D+00 -1.0959065627062D-01  9.7827547250057D-01
   144  1.4300000000000D+00 -1.1194136085407D-01  9.5749557459188D-01
   145  1.4400000000000D+00 -1.1384434798356D-01  9.3612835784440D-01
   146  1.4500000000000D+00 -1.1531654104878D-01  9.1421214939694D-01
   147  1.4600000000000D+00 -1.1637520916896D-01  8.9178661241541D-01
   148  1.4700000000000D+00 -1.1703792082243D-01  8.6889261212142D-01
   149  1.4800000000000D+00 -1.1732249719331D-01  8.4557207751690D-01
   150  1.4900000000000D+00 -1.1724696540200D-01  8.2186785953242D-01
   151  1.5000000000000D+00 -1.1682951177248D-01  7.9782358628177D-01
   152  1.5100000000000D+00 -1.1608843530230D-01  7.7348351614731D-01
   153  1.5200000000000D+00 -1.1504210148445D-01  7.4889238936758D-01
   154  1.5300000000000D+00 -1.1370889663568D-01  7.2409527881584D-01
   155  1.5400000000000D+00 -1.1210718288356D-01  6.9913744065203D-01
   156  1.5500000000000D+00 -1.1025525394358D-01  6.7406416546324D-01
   157  1.5600000000000D+00 -1.0817129184757D-01  6.4892063060635D-01
   158  1.5700000000000D+00 -1.0587332472265D-01  6.2375175426220D-01
   159  1.5800000000000D+00 -1.0337918579279D-01  5.9860205195430D-01
   160  1.5900000000000D+00 -1.0070647367010D-01  5.7351549593098D-01
   161  1.6000000000000D+00 -9.7872514108072D-02  5.4853537816927D-01
   162  1.6100000000000D+00 -9.4894323264827D-02  5.2370417732842D-01
   163  1.6200000000000D+00 -9.1788572631487D-02  4.9906343035697D-01
   164  1.6300000000000D+00 -8.8571555666507D-02  4.7465360904887D-01
   165  1.6400000000000D+00 -8.5259156265078D-02  4.5051400216348D-01
   166  1.6500000000000D+00 -8.1866819099544D-02  4.2668260338073D-01
   167  1.6600000000000D+00 -7.8409521932702D-02  4.0319600560711D-01
   168  1.6700000000000D+00 -7.4901749933368D-02  3.8008930187399D-01
   169  1.6800000000000D+00 -7.1357472070562D-02  3.5739599324619D-01
   170  1.6900000000000D+00 -6.7790119605469D-02  3.3514790393782D-01
   171  1.7000000000000D+00 -6.4212566736235D-02  3.1337510396875D-01
   172  1.7100000000000D+00 -6.0637113398944D-02  2.9210583948945D-01
   173  1.7200000000000D+00 -5.7075470265055D-02  2.7136647104807D-01
   174  1.7300000000000D+00 -5.3538745915709D-02  2.5118141982472D-01
   175  1.7400000000000D+00 -5.0037436226729D-02  2.3157312208268D-01
   176  1.7500000000000D+00 -4.6581415913651D-02  2.1256199171807D-01
   177  1.7600000000000D+00 -4.3179932273549D-02  1.9416639117714D-01
   178  1.7700000000000D+00 -3.9841601033733D-02  1.7640261043464D-01
   179  1.7800000000000D+00 -3.6574404356295D-02  1.5928485436939D-01
   180  1.7900000000000D+00 -3.3385690862498D-02  1.4282523799993D-01
   181  1.8000000000000D+00 -3.0282177745551D-02  1.2703379002600D-01
   182  1.8100000000000D+00 -2.7269954786963D-02  1.1191846388192D-01
   183  1.8200000000000D+00 -2.4354490363144D-02  9.7485156859537D-02
   184  1.8300000000000D+00 -2.1540639225334D-02  8.3737736320716D-02
   185  1.8400000000000D+00 -1.8832652127413D-02  7.0678073521729D-02
   186  1.8500000000000D+00 -1.6234187097236D-02  5.8306084107455D-02
   187  1.8600000000000D+00 -1.3748322370943D-02  4.6619775533133D-02
   188  1.8700000000000D+00 -1.1377570834786D-02  3.5615300710372D-02
   189  1.8800000000000D+00 -9.1238959214491D-03  2.5287017756109D-02
   190  1.8900000000000D+00 -6.9887288602584D-03  1.5627555437996D-02
   191  1.9000000000000D+00 -4.9729871638994D-03  6.6278838227617D-03
   192  1.9100000000000D+00 -3.0770942926118D-03 -1.7226100159212D-03
   193  1.9200000000000D+00 -1.3010003396935D-03 -9.4360419999270D-03
   194  1.9300000000000D+00  3.5579631084736D-04 -1.6525946783615D-02
   195  1.9400000000000D+00  1.8942265047524D-03 -2.3007190029236D-02
   196  1.9500000000000D+00  3.3156270980766D-03 -2.8895877403633D-02
   197  1.9600000000000D+00  4.6217171109373D-03 -3.4209260885711D-02
   198  1.9700000000000D+00  5.8145733673023D-03 -3.8965642812392D-02
   199  1.9800000000000D+00  6.8966057262433D-03 -4.3184278105455D-02
   200  1.9900000000000D+00  7.8705319933277D-03 -4.6885275133396D-02
   201  2.0000000000000D+00  8.7393526662505D-03 -5.0089495765771D-02
   202  2.0100000000000D+00  9.5063255388390D-03 -5.2818454859829D-02
   203  2.0200000000000D+00  1.0174940360104D-02 -5.5094219929258D-02
   204  2.0300000000000D+00  1.0748893565818D-02 -5.6939311153847D-02
   205  2.0400000000000D+00  1.1232063212418D-02 -5.8376602285913D-02
   206  2.0500000000000D+00  1.1628484253619D-02 -5.9429223054771D-02
   207  2.0600000000000D+00  1.1942324103684D-02 -6.0120462893444D-02
   208  2.0700000000000D+00  1.2177858797533D-02 -6.0473677297263D-02
   209  2.0800000000000D+00  1.2339449595566D-02 -6.0512196212023D-02
   210  2.0900000000000D+00  1.2431520267362D-02 -6.0259235472743D-02
   211  2.1000000000000D+00  1.2458535113992D-02 -5.9737811574931D-02
   212  2.1100000000000D+00  1.2424977634525D-02 -5.8970659375282D-02
   213  2.1200000000000D+00  1.2335330204094D-02 -5.7980154372890D-02
   214  2.1300000000000D+00  1.2194054482875D-02 -5.6788238316546D-02
   215  2.1400000000000D+00  1.2005572841063D-02 -5.5416349439787D-02
   216  2.1500000000000D+00  1.1774250822958D-02 -5.3885357437792D-02
   217  2.1600000000000D+00  1.1504380460714D-02 -5.2215502306011D-02
   218  2.1700000000000D+00  1.1200164891188D-02 -5.0426339162824D-02
   219  2.1800000000000D+00  1.0865703878747D-02 -4.8536687189895D-02
   220  2.1900000000000D+00  1.0504980501774D-02 -4.6564583906316D-02
   221  2.2000000000000D+00  1.0121849072732D-02 -4.4527245111546D-02
   222  2.2100000000000D+00  9.7200239939546D-03 -4.2441029065147D-02
   223  2.2200000000000D+00  9.3030699767667D-03 -4.0321406963925D-02
   224  2.2300000000000D+00  8.8743933078691D-03 -3.8182938185190D-02
   225  2.2400000000000D+00  8.4372341844236D-03 -3.6039250394801D-02
   226  2.2500000000000D+00  7.9946603776192D-03 -3.3903025791098D-02
   227  2.2600000000000D+00  7.5495618093538D-03 -3.1785991443411D-02
   228  2.2700000000000D+00  7.1046463174737D-03 -2.9698915081253D-02
   229  2.2800000000000D+00  6.6624365446784D-03 -2.7651606014531D-02
   230  2.2900000000000D+00  6.2252676780917D-03 -2.5652919824138D-02
   231  2.3000000000000D+00  5.7952863870374D-03 -2.3710768560468D-02
   232  2.3100000000000D+00  5.3744506340602D-03 -2.1832134824483D-02
   233  2.3200000000000D+00  4.9645303163880D-03 -2.0023089513719D-02
   234  2.3300000000000D+00  4.5671089490800D-03 -1.8288814306109D-02
   235  2.3400000000000D+00  4.1835860267304D-03 -1.6633627045170D-02
   236  2.3500000000000D+00  3.8151801642846D-03 -1.5061010540746D-02
   237  2.3600000000000D+00  3.4629330181288D-03 -1.3573644799866D-02
   238  2.3700000000000D+00  3.1277137561570D-03 -1.2173441504786D-02
   239  2.3800000000000D+00  2.8102241587079D-03 -1.0861581173159D-02
   240  2.3900000000000D+00  2.5110042516582D-03 -9.6385524992308D-03
   241  2.4000000000000D+00  2.2304383568451D-03 -8.5041932812930D-03
   242  2.4100000000000D+00  1.9687615587992D-03 -7.4577329570547D-03
   243  2.4200000000000D+00  1.7260664845891D-03 -6.4978362128696D-03
   244  2.4300000000000D+00  1.5023103660259D-03 -5.6226475000984D-03
   245  2.4400000000000D+00  1.2973222549465D-03 -4.8298358395088D-03
   246  2.4500000000000D+00  1.1108103722047D-03 -4.1166397885754D-03
   247  2.4600000000000D+00  9.4236960444688D-04 -3.4799126430950D-03
   248  2.4700000000000D+00  7.9148885706160D-04 -2.9161664223091D-03
   249  2.4800000000000D+00  6.5755841851034D-04 -2.4216153987972D-03
   250  2.4900000000000D+00  5.3987730745178D-04 -1.9922190345428D-03
   251  2.5000000000000D+00  4.3766022058430D-04 -1.6237224006924D-03
   252  2.5100000000000D+00  3.5004437481335D-04 -1.3116955534671D-03
   253  2.5200000000000D+00  2.7609618883375D-04 -1.0515715945919D-03
   254  2.5300000000000D+00  2.1482570844209D-04 -8.3873770609775D-04
   255  2.5400000000000D+00  1.6521775978309D-04 -6.6873922860951D-04
   256  2.5500000000000D+00  1.2605208373910D-04 -5.3605570296918D-04
   257  2.5600000000000D+00  9.6103077445971D-05 -4.3548113420987D-04
   258  2.5700000000000D+00  7.3788788792939D-05 -3.5995857656231D-04
   259  2.5800000000000D+00  5.8937375565183D-05 -3.1134133162574D-04
   260  2.5900000000000D+00  5.0552991960761D-05 -2.8673603454114D-04
   261  2.6000000000000D+00  4.8771635989149D-05 -2.8998729043941D-04
   262  2.6100000000000D+00  4.7833840346413D-05 -2.9017844135682D-04
   263  2.6200000000000D+00  4.4031759690284D-05 -2.6825102921977D-04
   264  2.6300000000000D+00  3.2074314215525D-05 -1.9548991076016D-04
   265  2.6400000000000D+00  1.6883532184177D-05 -1.0277242383048D-04
   266  2.6500000000000D+00  2.7975918062212D-06 -1.6996379816174D-05
   267  2.6600000000000D+00 -3.7693410054113D-06  2.3072153017327D-05
   268  2.6700000000000D+00 -4.2468419100631D-06  2.5993619873326D-05
   269  2.6800000000000D+00 -1.5007606265705D-06  9.1842175909475D-06
   270  2.6900000000000D+00  6.2917063840022D-07 -3.8688240399767D-06
   271  2.7000000000000D+00  1.0127186519884D-06 -6.2299969291148D-06
   272  2.7100000000000D+00  5.4577706227236D-07 -3.3587134317866D-06
   273  2.7200000000000D+00 -4.7319693925251D-08  2.8826651607331D-07
   274  2.7300000000000D+00 -1.2105014897178D-07  7.3742456511599D-07
   275  2.7400000000000D+00 -8.9987911251709D-08  5.4819673403259D-07
   276  2.7500000000000D+00  0.0000000000000D+00  0.0000000000000D+00
   277  2.7600000000000D+00  0.0000000000000D+00  0.0000000000000D+00
   278  2.7700000000000D+00  0.0000000000000D+00  0.0000000000000D+00
   279  2.7800000000000D+00  0.0000000000000D+00  0.0000000000000D+00
   280  2.7900000000000D+00  0.0000000000000D+00  0.0000000000000D+00
   281  2.8000000000000D+00  0.0000000000000D+00  0.0000000000000D+00
   282  2.8100000000000D+00  0.0000000000000D+00  0.0000000000000D+00
   283  2.8200000000000D+00  0.0000000000000D+00  0.0000000000000D+00
   284  2.8300000000000D+00  0.0000000000000D+00  0.0000000000000D+00
   285  2.8400000000000D+00  0.0000000000000D+00  0.0000000000000D+00
   286  2.8500000000000D+00  0.0000000000000D+00  0.0000000000000D+00
   287  2.8600000000000D+00  0.0000000000000D+00  0.0000000000000D+00
   288  2.8700000000000D+00  0.0000000000000D+00  0.0000000000000D+00
   289  2.8800000000000D+00  0.0000000000000D+00  0.0000000000000D+00
   290  2.8900000000000D+00  0.0000000000000D+00  0.0000000000000D+00
   291  2.9000000000000D+00  0.0000000000000D+00  0.0000000000000D+00
   292  2.9100000000000D+00  0.0000000000000D+00  0.0000000000000D+00
   293  2.9200000000000D+00  0.0000000000000D+00  0.0000000000000D+00
   294  2.9300000000000D+00  0.0000000000000D+00  0.0000000000000D+00
   295  2.9400000000000D+00  0.0000000000000D+00  0.0000000000000D+00
   296  2.9500000000000D+00  0.0000000000000D+00  0.0000000000000D+00
   297  2.9600000000000D+00  0.0000000000000D+00  0.0000000000000D+00
   298  2.9700000000000D+00  0.0000000000000D+00  0.0000000000000D+00
   299  2.9800000000000D+00  0.0000000000000D+00  0.0000000000000D+00
   300  2.9900000000000D+00  0.0000000000000D+00  0.0000000000000D+00
   301  3.0000000000000D+00  0.0000000000000D+00  0.0000000000000D+00
   302  3.0100000000000D+00  0.0000000000000D+00  0.0000000000000D+00
   303  3.0200000000000D+00  0.0000000000000D+00  0.0000000000000D+00
   304  3.0300000000000D+00  0.0000000000000D+00  0.0000000000000D+00
   305  3.0400000000000D+00  0.0000000000000D+00  0.0000000000000D+00
   306  3.0500000000000D+00  0.0000000000000D+00  0.0000000000000D+00
   307  3.0600000000000D+00  0.0000000000000D+00  0.0000000000000D+00
   308  3.0700000000000D+00  0.0000000000000D+00  0.0000000000000D+00
   309  3.0800000000000D+00  0.0000000000000D+00  0.0000000000000D+00
   310  3.0900000000000D+00  0.0000000000000D+00  0.0000000000000D+00
   311  3.1000000000000D+00  0.0000000000000D+00  0.0000000000000D+00
   312  3.1100000000000D+00  0.0000000000000D+00  0.0000000000000D+00
   313  3.1200000000000D+00  0.0000000000000D+00  0.0000000000000D+00
   314  3.1300000000000D+00  0.0000000000000D+00  0.0000000000000D+00
   315  3.1400000000000D+00  0.0000000000000D+00  0.0000000000000D+00
   316  3.1500000000000D+00  0.0000000000000D+00  0.0000000000000D+00
   317  3.1600000000000D+00  0.0000000000000D+00  0.0000000000000D+00
   318  3.1700000000000D+00  0.0000000000000D+00  0.0000000000000D+00
   319  3.1800000000000D+00  0.0000000000000D+00  0.0000000000000D+00
   320  3.1900000000000D+00  0.0000000000000D+00  0.0000000000000D+00
   321  3.2000000000000D+00  0.0000000000000D+00  0.0000000000000D+00
   322  3.2100000000000D+00  0.0000000000000D+00  0.0000000000000D+00
   323  3.2200000000000D+00  0.0000000000000D+00  0.0000000000000D+00
   324  3.2300000000000D+00  0.0000000000000D+00  0.0000000000000D+00
   325  3.2400000000000D+00  0.0000000000000D+00  0.0000000000000D+00
   326  3.2500000000000D+00  0.0000000000000D+00  0.0000000000000D+00
   327  3.2600000000000D+00  0.0000000000000D+00  0.0000000000000D+00
   328  3.2700000000000D+00  0.0000000000000D+00  0.0000000000000D+00
   329  3.2800000000000D+00  0.0000000000000D+00  0.0000000000000D+00
   330  3.2900000000000D+00  0.0000000000000D+00  0.0000000000000D+00
   331  3.3000000000000D+00  0.0000000000000D+00  0.0000000000000D+00
   332  3.3100000000000D+00  0.0000000000000D+00  0.0000000000000D+00
   333  3.3200000000000D+00  0.0000000000000D+00  0.0000000000000D+00
   334  3.3300000000000D+00  0.0000000000000D+00  0.0000000000000D+00
   335  3.3400000000000D+00  0.0000000000000D+00  0.0000000000000D+00
   336  3.3500000000000D+00  0.0000000000000D+00  0.0000000000000D+00
   337  3.3600000000000D+00  0.0000000000000D+00  0.0000000000000D+00
   338  3.3700000000000D+00  0.0000000000000D+00  0.0000000000000D+00
   339  3.3800000000000D+00  0.0000000000000D+00  0.0000000000000D+00
   340  3.3900000000000D+00  0.0000000000000D+00  0.0000000000000D+00
   341  3.4000000000000D+00  0.0000000000000D+00  0.0000000000000D+00
   342  3.4100000000000D+00  0.0000000000000D+00  0.0000000000000D+00
   343  3.4200000000000D+00  0.0000000000000D+00  0.0000000000000D+00
   344  3.4300000000000D+00  0.0000000000000D+00  0.0000000000000D+00
   345  3.4400000000000D+00  0.0000000000000D+00  0.0000000000000D+00
   346  3.4500000000000D+00  0.0000000000000D+00  0.0000000000000D+00
   347  3.4600000000000D+00  0.0000000000000D+00  0.0000000000000D+00
   348  3.4700000000000D+00  0.0000000000000D+00  0.0000000000000D+00
   349  3.4800000000000D+00  0.0000000000000D+00  0.0000000000000D+00
   350  3.4900000000000D+00  0.0000000000000D+00  0.0000000000000D+00
   351  3.5000000000000D+00  0.0000000000000D+00  0.0000000000000D+00
   352  3.5100000000000D+00  0.0000000000000D+00  0.0000000000000D+00
   353  3.5200000000000D+00  0.0000000000000D+00  0.0000000000000D+00
   354  3.5300000000000D+00  0.0000000000000D+00  0.0000000000000D+00
   355  3.5400000000000D+00  0.0000000000000D+00  0.0000000000000D+00
   356  3.5500000000000D+00  0.0000000000000D+00  0.0000000000000D+00
   357  3.5600000000000D+00  0.0000000000000D+00  0.0000000000000D+00
   358  3.5700000000000D+00  0.0000000000000D+00  0.0000000000000D+00
   359  3.5800000000000D+00  0.0000000000000D+00  0.0000000000000D+00
   360  3.5900000000000D+00  0.0000000000000D+00  0.0000000000000D+00
   361  3.6000000000000D+00  0.0000000000000D+00  0.0000000000000D+00
   362  3.6100000000000D+00  0.0000000000000D+00  0.0000000000000D+00
   363  3.6200000000000D+00  0.0000000000000D+00  0.0000000000000D+00
   364  3.6300000000000D+00  0.0000000000000D+00  0.0000000000000D+00
   365  3.6400000000000D+00  0.0000000000000D+00  0.0000000000000D+00
   366  3.6500000000000D+00  0.0000000000000D+00  0.0000000000000D+00
   367  3.6600000000000D+00  0.0000000000000D+00  0.0000000000000D+00
   368  3.6700000000000D+00  0.0000000000000D+00  0.0000000000000D+00
   369  3.6800000000000D+00  0.0000000000000D+00  0.0000000000000D+00
   370  3.6900000000000D+00  0.0000000000000D+00  0.0000000000000D+00
   371  3.7000000000000D+00  0.0000000000000D+00  0.0000000000000D+00
   372  3.7100000000000D+00  0.0000000000000D+00  0.0000000000000D+00
   373  3.7200000000000D+00  0.0000000000000D+00  0.0000000000000D+00
   374  3.7300000000000D+00  0.0000000000000D+00  0.0000000000000D+00
   375  3.7400000000000D+00  0.0000000000000D+00  0.0000000000000D+00
   376  3.7500000000000D+00  0.0000000000000D+00  0.0000000000000D+00
   377  3.7600000000000D+00  0.0000000000000D+00  0.0000000000000D+00
   378  3.7700000000000D+00  0.0000000000000D+00  0.0000000000000D+00
   379  3.7800000000000D+00  0.0000000000000D+00  0.0000000000000D+00
   380  3.7900000000000D+00  0.0000000000000D+00  0.0000000000000D+00
   381  3.8000000000000D+00  0.0000000000000D+00  0.0000000000000D+00
   382  3.8100000000000D+00  0.0000000000000D+00  0.0000000000000D+00
   383  3.8200000000000D+00  0.0000000000000D+00  0.0000000000000D+00
   384  3.8300000000000D+00  0.0000000000000D+00  0.0000000000000D+00
   385  3.8400000000000D+00  0.0000000000000D+00  0.0000000000000D+00
   386  3.8500000000000D+00  0.0000000000000D+00  0.0000000000000D+00
   387  3.8600000000000D+00  0.0000000000000D+00  0.0000000000000D+00
   388  3.8700000000000D+00  0.0000000000000D+00  0.0000000000000D+00
   389  3.8800000000000D+00  0.0000000000000D+00  0.0000000000000D+00
   390  3.8900000000000D+00  0.0000000000000D+00  0.0000000000000D+00
   391  3.9000000000000D+00  0.0000000000000D+00  0.0000000000000D+00
   392  3.9100000000000D+00  0.0000000000000D+00  0.0000000000000D+00
   393  3.9200000000000D+00  0.0000000000000D+00  0.0000000000000D+00
   394  3.9300000000000D+00  0.0000000000000D+00  0.0000000000000D+00
   395  3.9400000000000D+00  0.0000000000000D+00  0.0000000000000D+00
   396  3.9500000000000D+00  0.0000000000000D+00  0.0000000000000D+00
   397  3.9600000000000D+00  0.0000000000000D+00  0.0000000000000D+00
   398  3.9700000000000D+00  0.0000000000000D+00  0.0000000000000D+00
   399  3.9800000000000D+00  0.0000000000000D+00  0.0000000000000D+00
   400  3.9900000000000D+00  0.0000000000000D+00  0.0000000000000D+00
   401  4.0000000000000D+00  0.0000000000000D+00  0.0000000000000D+00
   402  4.0100000000000D+00  0.0000000000000D+00  0.0000000000000D+00
   403  4.0200000000000D+00  0.0000000000000D+00  0.0000000000000D+00
   404  4.0300000000000D+00  0.0000000000000D+00  0.0000000000000D+00
   405  4.0400000000000D+00  0.0000000000000D+00  0.0000000000000D+00
   406  4.0500000000000D+00  0.0000000000000D+00  0.0000000000000D+00
   407  4.0600000000000D+00  0.0000000000000D+00  0.0000000000000D+00
   408  4.0700000000000D+00  0.0000000000000D+00  0.0000000000000D+00
   409  4.0800000000000D+00  0.0000000000000D+00  0.0000000000000D+00
   410  4.0900000000000D+00  0.0000000000000D+00  0.0000000000000D+00
   411  4.1000000000000D+00  0.0000000000000D+00  0.0000000000000D+00
   412  4.1100000000000D+00  0.0000000000000D+00  0.0000000000000D+00
   413  4.1200000000000D+00  0.0000000000000D+00  0.0000000000000D+00
   414  4.1300000000000D+00  0.0000000000000D+00  0.0000000000000D+00
   415  4.1400000000000D+00  0.0000000000000D+00  0.0000000000000D+00
   416  4.1500000000000D+00  0.0000000000000D+00  0.0000000000000D+00
   417  4.1600000000000D+00  0.0000000000000D+00  0.0000000000000D+00
   418  4.1700000000000D+00  0.0000000000000D+00  0.0000000000000D+00
   419  4.1800000000000D+00  0.0000000000000D+00  0.0000000000000D+00
   420  4.1900000000000D+00  0.0000000000000D+00  0.0000000000000D+00
   421  4.2000000000000D+00  0.0000000000000D+00  0.0000000000000D+00
   422  4.2100000000000D+00  0.0000000000000D+00  0.0000000000000D+00
   423  4.2200000000000D+00  0.0000000000000D+00  0.0000000000000D+00