P     ONCVPSP-3.3.1  r_core=   2.62098   1.72641
     15.0000      5.0000      210904    zatom,zion,pspd
     8       2   1     4   600     0    pspcod,pspxc,lmax,lloc,mmax,r2well
  5.99000000  0.00000000  0.00000000    rchrg fchrg qchrg
     2     3     0     0    nproj
     3     1           extension_switch
     4     0     0    nprojso
   0                         3.6886360548424D-01  6.6813594725800D+00
     1  0.0000000000000D+00  7.7024497890932D-13  1.0817124973528D-11
     2  1.0000000000000D-02 -2.7549515776547D-02  3.3184872449179D-02
     3  2.0000000000000D-02 -5.5042368463800D-02  6.6360428898103D-02
     4  3.0000000000000D-02 -8.2421974525226D-02  9.9517266996931D-02
     5  4.0000000000000D-02 -1.0963190951622D-01  1.3264581226226D-01
     6  5.0000000000000D-02 -1.3661598759634D-01  1.6573623342164D-01
     7  6.0000000000000D-02 -1.6331834100174D-01  1.9877835944392D-01
     8  7.0000000000000D-02 -1.8968349946562D-01  2.3176159880489D-01
     9  8.0000000000000D-02 -2.1565646957546D-01  2.6467486152648D-01
    10  9.0000000000000D-02 -2.4118281405655D-01  2.9750648451471D-01
    11  1.0000000000000D-01 -2.6620873097261D-01  3.3024416070528D-01
    12  1.1000000000000D-01 -2.9068113283508D-01  3.6287487250758D-01
    13  1.2000000000000D-01 -3.1454772561341D-01  3.9538483001643D-01
    14  1.3000000000000D-01 -3.3775708763959D-01  4.2775941443807D-01
    15  1.4000000000000D-01 -3.6025874840022D-01  4.5998312715124D-01
    16  1.5000000000000D-01 -3.8200326720893D-01  4.9203954479624D-01
    17  1.6000000000000D-01 -4.0294231175214D-01  5.2391128075571D-01
    18  1.7000000000000D-01 -4.2302873649852D-01  5.5557995335869D-01
    19  1.8000000000000D-01 -4.4221666096126D-01  5.8702616110645D-01
    20  1.9000000000000D-01 -4.6046154779859D-01  6.1822946518346D-01
    21  2.0000000000000D-01 -4.7772028073400D-01  6.4916837948031D-01
    22  2.1000000000000D-01 -4.9395124227217D-01  6.7982036831738D-01
    23  2.2000000000000D-01 -5.0911439118022D-01  7.1016185201927D-01
    24  2.3000000000000D-01 -5.2317133969589D-01  7.4016822044965D-01
    25  2.4000000000000D-01 -5.3608543041502D-01  7.6981385457522D-01
    26  2.5000000000000D-01 -5.4782181279991D-01  7.9907215608617D-01
    27  2.6000000000000D-01 -5.5834751923804D-01  8.2791558505791D-01
    28  2.7000000000000D-01 -5.6763154056648D-01  8.5631570559703D-01
    29  2.8000000000000D-01 -5.7564490096253D-01  8.8424323937123D-01
    30  2.9000000000000D-01 -5.8236073208357D-01  9.1166812688109D-01
    31  3.0000000000000D-01 -5.8775434632141D-01  9.3855959628899D-01
    32  3.1000000000000D-01 -5.9180330901592D-01  9.6488623957883D-01
    33  3.2000000000000D-01 -5.9448750945215D-01  9.9061609577901D-01
    34  3.3000000000000D-01 -5.9578923044225D-01  1.0157167409411D+00
    35  3.4000000000000D-01 -5.9569321627005D-01  1.0401553845272D+00
    36  3.5000000000000D-01 -5.9418673875178D-01  1.0638989718207D+00
    37  3.6000000000000D-01 -5.9125966114074D-01  1.0869142919392D+00
    38  3.7000000000000D-01 -5.8690449957828D-01  1.1091680909931D+00
    39  3.8000000000000D-01 -5.8111648176662D-01  1.1306271898998D+00
    40  3.9000000000000D-01 -5.7389360251327D-01  1.1512586063316D+00
    41  4.0000000000000D-01 -5.6523667577032D-01  1.1710296802495D+00
    42  4.1000000000000D-01 -5.5514938276639D-01  1.1899082024418D+00
    43  4.2000000000000D-01 -5.4363831580408D-01  1.2078625454701D+00
    44  4.3000000000000D-01 -5.3071301727237D-01  1.2248617963960D+00
    45  4.4000000000000D-01 -5.1638601340101D-01  1.2408758906469D+00
    46  4.5000000000000D-01 -5.0067284226387D-01  1.2558757463621D+00
    47  4.6000000000000D-01 -4.8359207552032D-01  1.2698333985470D+00
    48  4.7000000000000D-01 -4.6516533336843D-01  1.2827221323514D+00
    49  4.8000000000000D-01 -4.4541729217135D-01  1.2945166147839D+00
    50  4.9000000000000D-01 -4.2437568421013D-01  1.3051930241670D+00
    51  5.0000000000000D-01 -4.0207128901040D-01  1.3147291766404D+00
    52  5.1000000000000D-01 -3.7853791569120D-01  1.3231046490197D+00
    53  5.2000000000000D-01 -3.5381237578677D-01  1.3303008973261D+00
    54  5.3000000000000D-01 -3.2793444600254D-01  1.3363013703110D+00
    55  5.4000000000000D-01 -3.0094682038072D-01  1.3410916173148D+00
    56  5.5000000000000D-01 -2.7289505137089D-01  1.3446593898121D+00
    57  5.6000000000000D-01 -2.4382747932800D-01  1.3469947360192D+00
    58  5.7000000000000D-01 -2.1379514999306D-01  1.3480900879620D+00
    59  5.8000000000000D-01 -1.8285171955040D-01  1.3479403404278D+00
    60  5.9000000000000D-01 -1.5105334690356D-01  1.3465429212580D+00
    61  6.0000000000000D-01 -1.1845857286345D-01  1.3438978524686D+00
    62  6.1000000000000D-01 -8.5128186005080D-02  1.3400078017245D+00
    63  6.2000000000000D-01 -5.1125075016487D-02  1.3348781237329D+00
    64  6.3000000000000D-01 -1.6514067439359D-02  1.3285168911616D+00
    65  6.4000000000000D-01  1.8638245214847D-02  1.3209349147367D+00
    66  6.5000000000000D-01  5.4263695899941D-02  1.3121457522202D+00
    67  6.6000000000000D-01  9.0292743847723D-02  1.3021657060178D+00
    68  6.7000000000000D-01  1.2665468948047D-01  1.2910138092222D+00
    69  6.8000000000000D-01  1.6327790203120D-01  1.2787117999503D+00
    70  6.9000000000000D-01  2.0009005936017D-01  1.2652840838906D+00
    71  7.0000000000000D-01  2.3701839932843D-01  1.2507576850349D+00
    72  7.1000000000000D-01  2.7398998195723D-01  1.2351621846288D+00
    73  7.2000000000000D-01  3.1093196146104D-01  1.2185296484361D+00
    74  7.3000000000000D-01  3.4777186709866D-01  1.2008945424758D+00
    75  7.4000000000000D-01  3.8443789163532D-01  1.1822936374519D+00
    76  7.5000000000000D-01  4.2085918605515D-01  1.1627659021604D+00
    77  7.6000000000000D-01  4.5696615900370D-01  1.1423523862209D+00
    78  7.7000000000000D-01  4.9269077927938D-01  1.1210960925454D+00
    79  7.8000000000000D-01  5.2796687952665D-01  1.0990418400182D+00
    80  7.9000000000000D-01  5.6273045911785D-01  1.0762361169248D+00
    81  8.0000000000000D-01  5.9691998404284D-01  1.0527269257291D+00
    82  8.1000000000000D-01  6.3047668145686D-01  1.0285636198599D+00
    83  8.2000000000000D-01  6.6334482636965D-01  1.0037967332250D+00
    84  8.3000000000000D-01  6.9547201779221D-01  9.7847780323060D-01
    85  8.4000000000000D-01  7.2680944149351D-01  9.5265918813954D-01
    86  8.5000000000000D-01  7.5731211635791D-01  9.2639387965322D-01
    87  8.6000000000000D-01  7.8693912117776D-01  8.9973531165609D-01
    88  8.7000000000000D-01  8.1565379856237D-01  8.7273716610754D-01
    89  8.8000000000000D-01  8.4342393249924D-01  8.4545317711248D-01
    90  8.9000000000000D-01  8.7022189596375D-01  8.1793693424407D-01
    91  9.0000000000000D-01  8.9602476484144D-01  7.9024168623050D-01
    92  9.1000000000000D-01  9.2081439430453D-01  7.6242014615332D-01
    93  9.2000000000000D-01  9.4457745367068D-01  7.3452429933606D-01
    94  9.3000000000000D-01  9.6730541566884D-01  7.0660521512954D-01
    95  9.4000000000000D-01  9.8899449594531D-01  6.7871286382347D-01
    96  9.5000000000000D-01  1.0096455385637D+00  6.5089593993318D-01
    97  9.6000000000000D-01  1.0292638431850D+00  6.2320169312529D-01
    98  9.7000000000000D-01  1.0478589295614D+00  5.9567576805576D-01
    99  9.8000000000000D-01  1.0654442349379D+00  5.6836205440027D-01
   100  9.9000000000000D-01  1.0820367399309D+00  5.4130254835738D-01
   101  1.0000000000000D+00  1.0976565184454D+00  5.1453722690138D-01
   102  1.0100000000000D+00  1.1123262071982D+00  4.8810393605356D-01
   103  1.0200000000000D+00  1.1260703904372D+00  4.6203829442743D-01
   104  1.0300000000000D+00  1.1389148954894D+00  4.3637361328517D-01
   105  1.0400000000000D+00  1.1508859948231D+00  4.1114083432113D-01
   106  1.0500000000000D+00  1.1620095103849D+00  3.8636848636037D-01
   107  1.0600000000000D+00  1.1723098160654D+00  3.6208266212832D-01
   108  1.0700000000000D+00  1.1818087342506D+00  3.3830701621254D-01
   109  1.0800000000000D+00  1.1905243194807D+00  3.1506278508659D-01
   110  1.0900000000000D+00  1.1984695243151D+00  2.9236883054209D-01
   111  1.1000000000000D+00  1.2056508926757D+00  2.7024171511098D-01
   112  1.1100000000000D+00  1.2120665337358D+00  2.4869576672134D-01
   113  1.1200000000000D+00  1.2177055131145D+00  2.2774326918410D-01
   114  1.1300000000000D+00  1.2225513302895D+00  2.0739494404801D-01
   115  1.1400000000000D+00  1.2265865312889D+00  1.8766034919594D-01
   116  1.1500000000000D+00  1.2297943533423D+00  1.6854800207678D-01
   117  1.1600000000000D+00  1.2321583783640D+00  1.5006533325114D-01
   118  1.1700000000000D+00  1.2336628984366D+00  1.3221870502569D-01
   119  1.1800000000000D+00  1.2342930998375D+00  1.1501341353583D-01
   120  1.1900000000000D+00  1.2340352547870D+00  9.8453693146284D-02
   121  1.2000000000000D+00  1.2328769016612D+00  8.2542721437678D-02
   122  1.2100000000000D+00  1.2308070145131D+00  6.7282625146375D-02
   123  1.2200000000000D+00  1.2278161601534D+00  5.2674487193407D-02
   124  1.2300000000000D+00  1.2238966419258D+00  3.8718354983767D-02
   125  1.2400000000000D+00  1.2190426294788D+00  2.5413250148915D-02
   126  1.2500000000000D+00  1.2132502740124D+00  1.2757179897112D-02
   127  1.2600000000000D+00  1.2065178087157D+00  7.4715010511792D-04
   128  1.2700000000000D+00  1.1988456341940D+00 -1.0620819730581D-02
   129  1.2800000000000D+00  1.1902363887988D+00 -2.1351679576268D-02
   130  1.2900000000000D+00  1.1806950039883D+00 -3.1451329917170D-02
   131  1.3000000000000D+00  1.1702287448573D+00 -4.0926600735112D-02
   132  1.3100000000000D+00  1.1588472360708D+00 -4.9785228371271D-02
   133  1.3200000000000D+00  1.1465624735855D+00 -5.8035830286982D-02
   134  1.3300000000000D+00  1.1333888225218D+00 -6.5687877730823D-02
   135  1.3400000000000D+00  1.1193430016390D+00 -7.2751666345928D-02
   136  1.3500000000000D+00  1.1044440549479D+00 -7.9238284788691D-02
   137  1.3600000000000D+00  1.0887133109653D+00 -8.5159581415924D-02
   138  1.3700000000000D+00  1.0721743302062D+00 -9.0528129136472D-02
   139  1.3800000000000D+00  1.0548528415320D+00 -9.5357188536620D-02
   140  1.3900000000000D+00  1.0367766679436D+00 -9.9660669374965D-02
   141  1.4000000000000D+00  1.0179756425145D+00 -1.0345309059193D-01
   142  1.4100000000000D+00  9.9848151510551D-01 -1.0674953895521D-01
   143  1.4200000000000D+00  9.7832785054375D-01 -1.0956562648458D-01
   144  1.4300000000000D+00  9.5754991896873D-01 -1.1191744681014D-01
   145  1.4400000000000D+00  9.3618457902967D-01 -1.1382153060628D-01
   146  1.4500000000000D+00  9.1427015465687D-01 -1.1529480026818D-01
   147  1.4600000000000D+00  8.9184630610444D-01 -1.1635452398242D-01
   148  1.4700000000000D+00  8.6895389598736D-01 -1.1701826935752D-01
   149  1.4800000000000D+00  8.4563485101258D-01 -1.1730385677152D-01
   150  1.4900000000000D+00  8.2193202013203D-01 -1.1722931260305D-01
   151  1.5000000000000D+00  7.9788902980005D-01 -1.1681282249911D-01
   152  1.5100000000000D+00  7.7355013705987D-01 -1.1607268484538D-01
   153  1.5200000000000D+00  7.4896008113076D-01 -1.1502726458804D-01
   154  1.5300000000000D+00  7.2416393418453D-01 -1.1369494756206D-01
   155  1.5400000000000D+00  6.9920695199406D-01 -1.1209409547790D-01
   156  1.5500000000000D+00  6.7413442506895D-01 -1.1024300169804D-01
   157  1.5600000000000D+00  6.4899153099207D-01 -1.0815984796478D-01
   158  1.5700000000000D+00  6.2382318846644D-01 -1.0586266217821D-01
   159  1.5800000000000D+00  5.9867391382567D-01 -1.0336927739680D-01
   160  1.5900000000000D+00  5.7358768040664D-01 -1.0069729212737D-01
   161  1.6000000000000D+00  5.4860778154319D-01 -9.7864032076972D-02
   162  1.6100000000000D+00  5.2377669750854D-01 -9.4886513414639D-02
   163  1.6200000000000D+00  4.9913596711048D-01 -9.1781407698005D-02
   164  1.6300000000000D+00  4.7472606423503D-01 -8.8565008505871D-02
   165  1.6400000000000D+00  4.5058627995340D-01 -8.5253199905658D-02
   166  1.6500000000000D+00  4.2675461046355D-01 -8.1861426791790D-02
   167  1.6600000000000D+00  4.0326765138226D-01 -7.8404667196853D-02
   168  1.6700000000000D+00  3.8016049862910D-01 -7.4897406604924D-02
   169  1.6800000000000D+00  3.5746665632051D-01 -7.1353614343466D-02
   170  1.6900000000000D+00  3.3521795187086D-01 -6.7786722072909D-02
   171  1.7000000000000D+00  3.1344445863408D-01 -6.4209604429019D-02
   172  1.7100000000000D+00  2.9217442621362D-01 -6.0634561821413D-02
   173  1.7200000000000D+00  2.7143421871460D-01 -5.7073305428481D-02
   174  1.7300000000000D+00  2.5124826096339D-01 -5.3536944369179D-02
   175  1.7400000000000D+00  2.3163899294411D-01 -5.0035975085473D-02
   176  1.7500000000000D+00  2.1262683233384D-01 -4.6580272884835D-02
   177  1.7600000000000D+00  1.9423014540577D-01 -4.3179085679527D-02
   178  1.7700000000000D+00  1.7646522599363D-01 -3.9841029832771D-02
   179  1.7800000000000D+00  1.5934628285377D-01 -3.6574088160800D-02
   180  1.7900000000000D+00  1.4288543488760D-01 -3.3385609954771D-02
   181  1.8000000000000D+00  1.2709271467043D-01 -3.0282313091114D-02
   182  1.8100000000000D+00  1.1197607949256D-01 -2.7270288045500D-02
   183  1.8200000000000D+00  9.7541430470513D-02 -2.4355003897117D-02
   184  1.8300000000000D+00  8.3792638748323D-02 -2.1541316106327D-02
   185  1.8400000000000D+00  7.0731579311292D-02 -1.8833476140272D-02
   186  1.8500000000000D+00  5.8358171470126D-02 -1.6235142742085D-02
   187  1.8600000000000D+00  4.6670426273247D-02 -1.3749394863138D-02
   188  1.8700000000000D+00  3.5664500143960D-02 -1.1378746102901D-02
   189  1.8800000000000D+00  2.5334754621206D-02 -9.1251606033740D-03
   190  1.8900000000000D+00  1.5673821797410D-02 -6.9900702974982D-03
   191  1.9000000000000D+00  6.6726749599228D-03 -4.9743933941683D-03
   192  1.9100000000000D+00 -1.6792957073598D-03 -3.0785540408168D-03
   193  1.9200000000000D+00 -9.3942031321237D-03 -1.3025030073986D-03
   194  1.9300000000000D+00 -1.6485579095501D-02  3.5426065736869D-04
   195  1.9400000000000D+00 -2.2968286511809D-02  1.8926671477854D-03
   196  1.9500000000000D+00 -2.8858428428919D-02  3.3140526829473D-03
   197  1.9600000000000D+00 -3.4173254338780D-02  4.6201356616130D-03
   198  1.9700000000000D+00 -3.8931064225830D-02  5.8129923030079D-03
   199  1.9800000000000D+00 -4.3151110795658D-02  6.8950318789916D-03
   200  1.9900000000000D+00 -4.6853500338155D-02  7.8689716262698D-03
   201  2.0000000000000D+00 -5.0059092782541D-02  8.7378114927412D-03
   202  2.0100000000000D+00 -5.2789401184175D-02  9.5048087421276D-03
   203  2.0200000000000D+00 -5.5066491392940D-02  1.0173452613552D-02
   204  2.0300000000000D+00 -5.6912882062061D-02  1.0747439053548D-02
   205  2.0400000000000D+00 -5.8351445553216D-02  1.1230645650317D-02
   206  2.0500000000000D+00 -5.9405310339254D-02  1.1627106910590D-02
   207  2.0600000000000D+00 -6.0097764728740D-02  1.1940989823080D-02
   208  2.0700000000000D+00 -6.0452163221993D-02  1.2176570018681D-02
   209  2.0800000000000D+00 -6.0491834896321D-02  1.2338208375300D-02
   210  2.0900000000000D+00 -6.0239994841539D-02  1.2430328301506D-02
   211  2.1000000000000D+00 -5.9719658927687D-02  1.2457393758705D-02
   212  2.1100000000000D+00 -5.8953561501915D-02  1.2423887927454D-02
   213  2.1200000000000D+00 -5.7964077665635D-02  1.2334292885260D-02
   214  2.1300000000000D+00 -5.6773148877551D-02  1.2193070015247D-02
   215  2.1400000000000D+00 -5.5402213184240D-02  1.2004641430750D-02
   216  2.1500000000000D+00 -5.3872140192463D-02  1.1773372438979D-02
   217  2.1600000000000D+00 -5.2203169903026D-02  1.1503554854290D-02
   218  2.1700000000000D+00 -5.0414857528623D-02  1.1199391614522D-02
   219  2.1800000000000D+00 -4.8526022429262D-02  1.0864982303247D-02
   220  2.1900000000000D+00 -4.6554702381438D-02  1.0504309835680D-02
   221  2.2000000000000D+00 -4.4518113516104D-02  1.0121228378127D-02
   222  2.2100000000000D+00 -4.2432614493391D-02  9.7194522031221D-03
   223  2.2200000000000D+00 -4.0313676974792D-02  9.3025459078768D-03
   224  2.2300000000000D+00 -3.8175860861492D-02  8.8739156799722D-03
   225  2.2400000000000D+00 -3.6032794397511D-02  8.4368016317329D-03
   226  2.2500000000000D+00 -3.3897160408878D-02  7.9942714630747D-03
   227  2.2600000000000D+00 -3.1780686637411D-02  7.5492150374530D-03
   228  2.2700000000000D+00 -2.9694141525326D-02  7.1043401463655D-03
   229  2.2800000000000D+00 -2.7647335130995D-02  6.6621693975201D-03
   230  2.2900000000000D+00 -2.5649123815163D-02  6.2250379536619D-03
   231  2.3000000000000D+00 -2.3707420435316D-02  5.7950924696151D-03
   232  2.3100000000000D+00 -2.1829208422704D-02  5.3742909025736D-03
   233  2.3200000000000D+00 -2.0020559524464D-02  4.9644031528377D-03
   234  2.3300000000000D+00 -1.8286656283776D-02  4.5670127462532D-03
   235  2.3400000000000D+00 -1.6631817421485D-02  4.1835191952089D-03
   236  2.3500000000000D+00 -1.5059526633480D-02  3.8151411387651D-03
   237  2.3600000000000D+00 -1.3572464818467D-02  3.4629202630842D-03
   238  2.3700000000000D+00 -1.2172544553079D-02  3.1277257708530D-03
   239  2.3800000000000D+00 -1.0860947249238D-02  2.8102594815859D-03
   240  2.3900000000000D+00 -9.6381624927028D-03  2.5110614641053D-03
   241  2.4000000000000D+00 -8.5040289680478D-03  2.2305160863686D-03
   242  2.4100000000000D+00 -7.4577769917791D-03  1.9688584816384D-03
   243  2.4200000000000D+00 -6.4980721194984D-03  1.7261813277888D-03
   244  2.4300000000000D+00 -5.6230596602218D-03  1.5024419089770D-03
   245  2.4400000000000D+00 -4.8304094791505D-03  1.2974693304538D-03
   246  2.4500000000000D+00 -4.1173609633714D-03  1.1109718670913D-03
   247  2.4600000000000D+00 -3.4807682221285D-03  9.4254445973267D-04
   248  2.4700000000000D+00 -2.9171440705822D-03  7.9167606772641D-04
   249  2.4800000000000D+00 -2.4227035585713D-03  6.5775703287930D-04
   250  2.4900000000000D+00 -1.9934069056313D-03  5.4008642622214D-04
   251  2.5000000000000D+00 -1.6249999198757D-03  4.3787899553245D-04
   252  2.5100000000000D+00 -1.3130533731160D-03  3.5027200720326D-04
   253  2.5200000000000D+00 -1.0530010606156D-03  2.7633192755272D-04
   254  2.5300000000000D+00 -8.4023126409177D-04  2.1506891520196D-04
   255  2.5400000000000D+00 -6.7029212520981D-04  1.6546817748656D-04
   256  2.5500000000000D+00 -5.3765819187186D-04  1.2630861426670D-04
   257  2.5600000000000D+00 -4.3712111457172D-04  9.6364196504648D-05
   258  2.5700000000000D+00 -3.6160884119114D-04  7.4050542611740D-05
   259  2.5800000000000D+00 -3.1302158972915D-04  5.9203127315150D-05
   260  2.5900000000000D+00 -2.8847947793709D-04  5.0828168966054D-05
   261  2.6000000000000D+00 -2.9188407242618D-04  4.9070570396696D-05
   262  2.6100000000000D+00 -2.9213950159834D-04  4.8142640279663D-05
   263  2.6200000000000D+00 -2.7008400420493D-04  4.4320253436322D-05
   264  2.6300000000000D+00 -1.9683050258540D-04  3.2285263148120D-05
   265  2.6400000000000D+00 -1.0347753633502D-04  1.6994470886392D-05
   266  2.6500000000000D+00 -1.7112889343239D-05  2.8159213616076D-06
   267  2.6600000000000D+00  2.3231412308972D-05 -3.7943966106731D-06
   268  2.6700000000000D+00  2.6173109943592D-05 -4.2750793655607D-06
   269  2.6800000000000D+00  9.2476446644627D-06 -1.5107387463024D-06
   270  2.6900000000000D+00 -3.8956381358255D-06  6.3338947196185D-07
   271  2.7000000000000D+00 -6.2732031802772D-06  1.0195164712174D-06
   272  2.7100000000000D+00 -3.3820191545758D-06  5.4944380453222D-07
   273  2.7200000000000D+00  2.9023709985321D-07 -4.7629835799723D-08
   274  2.7300000000000D+00  7.4246558377718D-07 -1.2184353364934D-07
   275  2.7400000000000D+00  5.5194419526047D-07 -9.0577708377607D-08
   276  2.7500000000000D+00  0.0000000000000D+00  0.0000000000000D+00
   277  2.7600000000000D+00  0.0000000000000D+00  0.0000000000000D+00
   278  2.7700000000000D+00  0.0000000000000D+00  0.0000000000000D+00
   279  2.7800000000000D+00  0.0000000000000D+00  0.0000000000000D+00
   280  2.7900000000000D+00  0.0000000000000D+00  0.0000000000000D+00
   281  2.8000000000000D+00  0.0000000000000D+00  0.0000000000000D+00
   282  2.8100000000000D+00  0.0000000000000D+00  0.0000000000000D+00
   283  2.8200000000000D+00  0.0000000000000D+00  0.0000000000000D+00
   284  2.8300000000000D+00  0.0000000000000D+00  0.0000000000000D+00
   285  2.8400000000000D+00  0.0000000000000D+00  0.0000000000000D+00
   286  2.8500000000000D+00  0.0000000000000D+00  0.0000000000000D+00
   287  2.8600000000000D+00  0.0000000000000D+00  0.0000000000000D+00
   288  2.8700000000000D+00  0.0000000000000D+00  0.0000000000000D+00
   289  2.8800000000000D+00  0.0000000000000D+00  0.0000000000000D+00
   290  2.8900000000000D+00  0.0000000000000D+00  0.0000000000000D+00
   291  2.9000000000000D+00  0.0000000000000D+00  0.0000000000000D+00
   292  2.9100000000000D+00  0.0000000000000D+00  0.0000000000000D+00
   293  2.9200000000000D+00  0.0000000000000D+00  0.0000000000000D+00
   294  2.9300000000000D+00  0.0000000000000D+00  0.0000000000000D+00
   295  2.9400000000000D+00  0.0000000000000D+00  0.0000000000000D+00
   296  2.9500000000000D+00  0.0000000000000D+00  0.0000000000000D+00
   297  2.9600000000000D+00  0.0000000000000D+00  0.0000000000000D+00
   298  2.9700000000000D+00  0.0000000000000D+00  0.0000000000000D+00
   299  2.9800000000000D+00  0.0000000000000D+00  0.0000000000000D+00
   300  2.9900000000000D+00  0.0000000000000D+00  0.0000000000000D+00
   301  3.0000000000000D+00  0.0000000000000D+00  0.0000000000000D+00
   302  3.0100000000000D+00  0.0000000000000D+00  0.0000000000000D+00
   303  3.0200000000000D+00  0.0000000000000D+00  0.0000000000000D+00
   304  3.0300000000000D+00  0.0000000000000D+00  0.0000000000000D+00
   305  3.0400000000000D+00  0.0000000000000D+00  0.0000000000000D+00
   306  3.0500000000000D+00  0.0000000000000D+00  0.0000000000000D+00
   307  3.0600000000000D+00  0.0000000000000D+00  0.0000000000000D+00
   308  3.0700000000000D+00  0.0000000000000D+00  0.0000000000000D+00
   309  3.0800000000000D+00  0.0000000000000D+00  0.0000000000000D+00
   310  3.0900000000000D+00  0.0000000000000D+00  0.0000000000000D+00
   311  3.1000000000000D+00  0.0000000000000D+00  0.0000000000000D+00
   312  3.1100000000000D+00  0.0000000000000D+00  0.0000000000000D+00
   313  3.1200000000000D+00  0.0000000000000D+00  0.0000000000000D+00
   314  3.1300000000000D+00  0.0000000000000D+00  0.0000000000000D+00
   315  3.1400000000000D+00  0.0000000000000D+00  0.0000000000000D+00
   316  3.1500000000000D+00  0.0000000000000D+00  0.0000000000000D+00
   317  3.1600000000000D+00  0.0000000000000D+00  0.0000000000000D+00
   318  3.1700000000000D+00  0.0000000000000D+00  0.0000000000000D+00
   319  3.1800000000000D+00  0.0000000000000D+00  0.0000000000000D+00
   320  3.1900000000000D+00  0.0000000000000D+00  0.0000000000000D+00
   321  3.2000000000000D+00  0.0000000000000D+00  0.0000000000000D+00
   322  3.2100000000000D+00  0.0000000000000D+00  0.0000000000000D+00
   323  3.2200000000000D+00  0.0000000000000D+00  0.0000000000000D+00
   324  3.2300000000000D+00  0.0000000000000D+00  0.0000000000000D+00
   325  3.2400000000000D+00  0.0000000000000D+00  0.0000000000000D+00
   326  3.2500000000000D+00  0.0000000000000D+00  0.0000000000000D+00
   327  3.2600000000000D+00  0.0000000000000D+00  0.0000000000000D+00
   328  3.2700000000000D+00  0.0000000000000D+00  0.0000000000000D+00
   329  3.2800000000000D+00  0.0000000000000D+00  0.0000000000000D+00
   330  3.2900000000000D+00  0.0000000000000D+00  0.0000000000000D+00
   331  3.3000000000000D+00  0.0000000000000D+00  0.0000000000000D+00
   332  3.3100000000000D+00  0.0000000000000D+00  0.0000000000000D+00
   333  3.3200000000000D+00  0.0000000000000D+00  0.0000000000000D+00
   334  3.3300000000000D+00  0.0000000000000D+00  0.0000000000000D+00
   335  3.3400000000000D+00  0.0000000000000D+00  0.0000000000000D+00
   336  3.3500000000000D+00  0.0000000000000D+00  0.0000000000000D+00
   337  3.3600000000000D+00  0.0000000000000D+00  0.0000000000000D+00
   338  3.3700000000000D+00  0.0000000000000D+00  0.0000000000000D+00
   339  3.3800000000000D+00  0.0000000000000D+00  0.0000000000000D+00
   340  3.3900000000000D+00  0.0000000000000D+00  0.0000000000000D+00
   341  3.4000000000000D+00  0.0000000000000D+00  0.0000000000000D+00
   342  3.4100000000000D+00  0.0000000000000D+00  0.0000000000000D+00
   343  3.4200000000000D+00  0.0000000000000D+00  0.0000000000000D+00
   344  3.4300000000000D+00  0.0000000000000D+00  0.0000000000000D+00
   345  3.4400000000000D+00  0.0000000000000D+00  0.0000000000000D+00
   346  3.4500000000000D+00  0.0000000000000D+00  0.0000000000000D+00
   347  3.4600000000000D+00  0.0000000000000D+00  0.0000000000000D+00
   348  3.4700000000000D+00  0.0000000000000D+00  0.0000000000000D+00
   349  3.4800000000000D+00  0.0000000000000D+00  0.0000000000000D+00
   350  3.4900000000000D+00  0.0000000000000D+00  0.0000000000000D+00
   351  3.5000000000000D+00  0.0000000000000D+00  0.0000000000000D+00
   352  3.5100000000000D+00  0.0000000000000D+00  0.0000000000000D+00
   353  3.5200000000000D+00  0.0000000000000D+00  0.0000000000000D+00
   354  3.5300000000000D+00  0.0000000000000D+00  0.0000000000000D+00
   355  3.5400000000000D+00  0.0000000000000D+00  0.0000000000000D+00
   356  3.5500000000000D+00  0.0000000000000D+00  0.0000000000000D+00
   357  3.5600000000000D+00  0.0000000000000D+00  0.0000000000000D+00
   358  3.5700000000000D+00  0.0000000000000D+00  0.0000000000000D+00
   359  3.5800000000000D+00  0.0000000000000D+00  0.0000000000000D+00
   360  3.5900000000000D+00  0.0000000000000D+00  0.0000000000000D+00
   361  3.6000000000000D+00  0.0000000000000D+00  0.0000000000000D+00
   362  3.6100000000000D+00  0.0000000000000D+00  0.0000000000000D+00
   363  3.6200000000000D+00  0.0000000000000D+00  0.0000000000000D+00
   364  3.6300000000000D+00  0.0000000000000D+00  0.0000000000000D+00
   365  3.6400000000000D+00  0.0000000000000D+00  0.0000000000000D+00
   366  3.6500000000000D+00  0.0000000000000D+00  0.0000000000000D+00
   367  3.6600000000000D+00  0.0000000000000D+00  0.0000000000000D+00
   368  3.6700000000000D+00  0.0000000000000D+00  0.0000000000000D+00
   369  3.6800000000000D+00  0.0000000000000D+00  0.0000000000000D+00
   370  3.6900000000000D+00  0.0000000000000D+00  0.0000000000000D+00
   371  3.7000000000000D+00  0.0000000000000D+00  0.0000000000000D+00
   372  3.7100000000000D+00  0.0000000000000D+00  0.0000000000000D+00
   373  3.7200000000000D+00  0.0000000000000D+00  0.0000000000000D+00
   374  3.7300000000000D+00  0.0000000000000D+00  0.0000000000000D+00
   375  3.7400000000000D+00  0.0000000000000D+00  0.0000000000000D+00
   376  3.7500000000000D+00  0.0000000000000D+00  0.0000000000000D+00
   377  3.7600000000000D+00  0.0000000000000D+00  0.0000000000000D+00
   378  3.7700000000000D+00  0.0000000000000D+00  0.0000000000000D+00
   379  3.7800000000000D+00  0.0000000000000D+00  0.0000000000000D+00
   380  3.7900000000000D+00  0.0000000000000D+00  0.0000000000000D+00
   381  3.8000000000000D+00  0.0000000000000D+00  0.0000000000000D+00
   382  3.8100000000000D+00  0.0000000000000D+00  0.0000000000000D+00
   383  3.8200000000000D+00  0.0000000000000D+00  0.0000000000000D+00
   384  3.8300000000000D+00  0.0000000000000D+00  0.0000000000000D+00
   385  3.8400000000000D+00  0.0000000000000D+00  0.0000000000000D+00
   386  3.8500000000000D+00  0.0000000000000D+00  0.0000000000000D+00
   387  3.8600000000000D+00  0.0000000000000D+00  0.0000000000000D+00
   388  3.8700000000000D+00  0.0000000000000D+00  0.0000000000000D+00
   389  3.8800000000000D+00  0.0000000000000D+00  0.0000000000000D+00
   390  3.8900000000000D+00  0.0000000000000D+00  0.0000000000000D+00
   391  3.9000000000000D+00  0.0000000000000D+00  0.0000000000000D+00
   392  3.9100000000000D+00  0.0000000000000D+00  0.0000000000000D+00
   393  3.9200000000000D+00  0.0000000000000D+00  0.0000000000000D+00
   394  3.9300000000000D+00  0.0000000000000D+00  0.0000000000000D+00
   395  3.9400000000000D+00  0.0000000000000D+00  0.0000000000000D+00
   396  3.9500000000000D+00  0.0000000000000D+00  0.0000000000000D+00
   397  3.9600000000000D+00  0.0000000000000D+00  0.0000000000000D+00
   398  3.9700000000000D+00  0.0000000000000D+00  0.0000000000000D+00
   399  3.9800000000000D+00  0.0000000000000D+00  0.0000000000000D+00
   400  3.9900000000000D+00  0.0000000000000D+00  0.0000000000000D+00
   401  4.0000000000000D+00  0.0000000000000D+00  0.0000000000000D+00
   402  4.0100000000000D+00  0.0000000000000D+00  0.0000000000000D+00
   403  4.0200000000000D+00  0.0000000000000D+00  0.0000000000000D+00
   404  4.0300000000000D+00  0.0000000000000D+00  0.0000000000000D+00
   405  4.0400000000000D+00  0.0000000000000D+00  0.0000000000000D+00
   406  4.0500000000000D+00  0.0000000000000D+00  0.0000000000000D+00
   407  4.0600000000000D+00  0.0000000000000D+00  0.0000000000000D+00
   408  4.0700000000000D+00  0.0000000000000D+00  0.0000000000000D+00
   409  4.0800000000000D+00  0.0000000000000D+00  0.0000000000000D+00
   410  4.0900000000000D+00  0.0000000000000D+00  0.0000000000000D+00
   411  4.1000000000000D+00  0.0000000000000D+00  0.0000000000000D+00
   412  4.1100000000000D+00  0.0000000000000D+00  0.0000000000000D+00
   413  4.1200000000000D+00  0.0000000000000D+00  0.0000000000000D+00
   414  4.1300000000000D+00  0.0000000000000D+00  0.0000000000000D+00
   415  4.1400000000000D+00  0.0000000000000D+00  0.0000000000000D+00
   416  4.1500000000000D+00  0.0000000000000D+00  0.0000000000000D+00
   417  4.1600000000000D+00  0.0000000000000D+00  0.0000000000000D+00
   418  4.1700000000000D+00  0.0000000000000D+00  0.0000000000000D+00
   419  4.1800000000000D+00  0.0000000000000D+00  0.0000000000000D+00
   420  4.1900000000000D+00  0.0000000000000D+00  0.0000000000000D+00
   421  4.2000000000000D+00  0.0000000000000D+00  0.0000000000000D+00
   422  4.2100000000000D+00  0.0000000000000D+00  0.0000000000000D+00