Pd    ONCVPSP-3.3.1  r_core=   2.47094   2.44164   2.24604
     46.0000     18.0000      210904    zatom,zion,pspd
     8       2   2     4   600     0    pspcod,pspxc,lmax,lloc,mmax,r2well
  5.99000000  0.00000000  0.00000000    rchrg fchrg qchrg
     2     2     2     0     0    nproj
     1     1           extension_switch
   0                         4.8037630955852D+00  8.3984583637535D-01
     1  0.0000000000000D+00 -3.6307623574316D-12 -1.6621981568932D-12
     2  1.0000000000000D-02  5.7792974729681D-02 -8.3002246157998D-03
     3  2.0000000000000D-02  1.1549360100107D-01 -1.6557751755712D-02
     4  3.0000000000000D-02  1.7300970915519D-01 -2.4729955060743D-02
     5  4.0000000000000D-02  2.3024948675238D-01 -3.2774350401133D-02
     6  5.0000000000000D-02  2.8712165623447D-01 -4.0648666979175D-02
     7  6.0000000000000D-02  3.4353565145265D-01 -4.8310918416684D-02
     8  7.0000000000000D-02  3.9940179268701D-01 -5.5719473820025D-02
     9  8.0000000000000D-02  4.5463145978769D-01 -6.2833128813910D-02
    10  9.0000000000000D-02  5.0913726307182D-01 -6.9611176533030D-02
    11  1.0000000000000D-01  5.6283321161592D-01 -7.6013478558039D-02
    12  1.1000000000000D-01  6.1563487858972D-01 -8.2000535779393D-02
    13  1.2000000000000D-01  6.6745956328417D-01 -8.7533559169149D-02
    14  1.3000000000000D-01  7.1822644949470D-01 -9.2574540436853D-02
    15  1.4000000000000D-01  7.6785675992877D-01 -9.7086322541460D-02
    16  1.5000000000000D-01  8.1627390631671D-01 -1.0103267002633D-01
    17  1.6000000000000D-01  8.6340363491455D-01 -1.0437833913923D-01
    18  1.7000000000000D-01  9.0917416709827D-01 -1.0708914769353D-01
    19  1.8000000000000D-01  9.5351633476041D-01 -1.0913204462084D-01
    20  1.9000000000000D-01  9.9636371023174D-01 -1.1047517915861D-01
    21  2.0000000000000D-01  1.0376527304634D+00 -1.1108796960942D-01
    22  2.1000000000000D-01  1.0773228152176D+00 -1.1094117160139D-01
    23  2.2000000000000D-01  1.1153164790287D+00 -1.1000694577125D-01
    24  2.3000000000000D-01  1.1515794367107D+00 -1.0825892478353D-01
    25  2.4000000000000D-01  1.1860607022000D+00 -1.0567227959115D-01
    26  2.5000000000000D-01  1.2187126805398D+00 -1.0222378483346D-01
    27  2.6000000000000D-01  1.2494912528235D+00 -9.7891883259190D-02
    28  2.7000000000000D-01  1.2783558539336D+00 -9.2656749052214D-02
    29  2.8000000000000D-01  1.3052695429251D+00 -8.6500349928623D-02
    30  2.9000000000000D-01  1.3301990659202D+00 -7.9406507864051D-02
    31  3.0000000000000D-01  1.3531149113937D+00 -7.1360958300316D-02
    32  3.1000000000000D-01  1.3739913577493D+00 -6.2351407670892D-02
    33  3.2000000000000D-01  1.3928065130975D+00 -5.2367589074812D-02
    34  3.3000000000000D-01  1.4095423471652D+00 -4.1401315919093D-02
    35  3.4000000000000D-01  1.4241847152825D+00 -2.9446533340406D-02
    36  3.5000000000000D-01  1.4367233744072D+00 -1.6499367207268D-02
    37  3.6000000000000D-01  1.4471519911636D+00 -2.5581704955763D-03
    38  3.7000000000000D-01  1.4554681418894D+00  1.2376433178423D-02
    39  3.8000000000000D-01  1.4616733046978D+00  2.8301509091373D-02
    40  3.9000000000000D-01  1.4657728435798D+00  4.5211774243096D-02
    41  4.0000000000000D-01  1.4677759845853D+00  6.3099563721531D-02
    42  4.1000000000000D-01  1.4676957841378D+00  8.1954800845410D-02
    43  4.2000000000000D-01  1.4655490895532D+00  1.0176497133274D-01
    44  4.3000000000000D-01  1.4613564918458D+00  1.2251510174689D-01
    45  4.4000000000000D-01  1.4551422709216D+00  1.4418774247487D-01
    46  4.5000000000000D-01  1.4469343332734D+00  1.6676295549368D-01
    47  4.6000000000000D-01  1.4367641423033D+00  1.9021830718092D-01
    48  4.7000000000000D-01  1.4246666414168D+00  2.1452886642468D-01
    49  4.8000000000000D-01  1.4106801700434D+00  2.3966720828475D-01
    50  4.9000000000000D-01  1.3948463727517D+00  2.6560342345320D-01
    51  5.0000000000000D-01  1.3772101016436D+00  2.9230513375615D-01
    52  5.1000000000000D-01  1.3578193122208D+00  3.1973751393104D-01
    53  5.2000000000000D-01  1.3367249529328D+00  3.4786331990421D-01
    54  5.3000000000000D-01  1.3139808486268D+00  3.7664292378225D-01
    55  5.4000000000000D-01  1.2896435781321D+00  4.0603435575734D-01
    56  5.5000000000000D-01  1.2637723462229D+00  4.3599335311179D-01
    57  5.6000000000000D-01  1.2364288502173D+00  4.6647341648982D-01
    58  5.7000000000000D-01  1.2076771414777D+00  4.9742587358546D-01
    59  5.8000000000000D-01  1.1775834820930D+00  5.2879995037482D-01
    60  5.9000000000000D-01  1.1462161970303D+00  5.6054284999751D-01
    61  6.0000000000000D-01  1.1136455220566D+00  5.9259983936745D-01
    62  6.1000000000000D-01  1.0799434477395D+00  6.2491434356656D-01
    63  6.2000000000000D-01  1.0451835598454D+00  6.5742804804595D-01
    64  6.3000000000000D-01  1.0094408764654D+00  6.9008100862913D-01
    65  6.4000000000000D-01  9.7279168220369D-01  7.2281176927972D-01
    66  6.5000000000000D-01  9.3531335977727D-01  7.5555748756229D-01
    67  6.6000000000000D-01  8.9708421937810D-01  7.8825406769032D-01
    68  6.7000000000000D-01  8.5818332616114D-01  8.2083630101842D-01
    69  6.8000000000000D-01  8.1869032622613D-01  8.5323801379873D-01
    70  6.9000000000000D-01  7.7868527146869D-01  8.8539222198275D-01
    71  7.0000000000000D-01  7.3824844368210D-01  9.1723129281012D-01
    72  7.1000000000000D-01  6.9746017829685D-01  9.4868711288611D-01
    73  7.2000000000000D-01  6.5640068814973D-01  9.7969126240868D-01
    74  7.3000000000000D-01  6.1514988767889D-01  1.0101751951653D+00
    75  7.4000000000000D-01  5.7378721794456D-01  1.0400704238784D+00
    76  7.5000000000000D-01  5.3239147287838D-01  1.0693087104379D+00
    77  7.6000000000000D-01  4.9104062716617D-01  1.0978222605191D+00
    78  7.7000000000000D-01  4.4981166617076D-01  1.1255439220429D+00
    79  7.8000000000000D-01  4.0878041830159D-01  1.1524073868993D+00
    80  7.9000000000000D-01  3.6802139023800D-01  1.1783473953145D+00
    81  8.0000000000000D-01  3.2760760541169D-01  1.2032999422068D+00
    82  8.1000000000000D-01  2.8761044615171D-01  1.2272024848423D+00
    83  8.2000000000000D-01  2.4809949989249D-01  1.2499941510678D+00
    84  8.3000000000000D-01  2.0914240984113D-01  1.2716159473666D+00
    85  8.4000000000000D-01  1.7080473049525D-01  1.2920109659579D+00
    86  8.5000000000000D-01  1.3314978839635D-01  1.3111245901290D+00
    87  8.6000000000000D-01  9.6238548496688D-02  1.3289046969739D+00
    88  8.7000000000000D-01  6.0129486508958D-02  1.3453018566838D+00
    89  8.8000000000000D-01  2.4878467598937D-02  1.3602695275264D+00
    90  8.9000000000000D-01 -9.4613682295924D-03  1.3737642456304D+00
    91  9.0000000000000D-01 -4.2839713720003D-02  1.3857458086870D+00
    92  9.1000000000000D-01 -7.5209194593371D-02  1.3961774526730D+00
    93  9.2000000000000D-01 -1.0652546211380D-01  1.4050260206954D+00
    94  9.3000000000000D-01 -1.3674727769318D-01  1.4122621230641D+00
    95  9.4000000000000D-01 -1.6583658925636D-01  1.4178602877025D+00
    96  9.5000000000000D-01 -1.9375859910533D-01  1.4217991000152D+00
    97  9.6000000000000D-01 -2.2048182303958D-01  1.4240613313515D+00
    98  9.7000000000000D-01 -2.4597814050937D-01  1.4246340552157D+00
    99  9.8000000000000D-01 -2.7022283559962D-01  1.4235087504050D+00
   100  9.9000000000000D-01 -2.9319462866373D-01  1.4206813902792D+00
   101  1.0000000000000D+00 -3.1487569844936D-01  1.4161525173990D+00
   102  1.0100000000000D+00 -3.3525169458173D-01  1.4099273028082D+00
   103  1.0200000000000D+00 -3.5431174029444D-01  1.4020155892718D+00
   104  1.0300000000000D+00 -3.7204842532367D-01  1.3924319178296D+00
   105  1.0400000000000D+00 -3.8845778890556D-01  1.3811955370693D+00
   106  1.0500000000000D+00 -4.0353929284565D-01  1.3683303945784D+00
   107  1.0600000000000D+00 -4.1729578465451D-01  1.3538651100873D+00
   108  1.0700000000000D+00 -4.2973345077157D-01  1.3378329298741D+00
   109  1.0800000000000D+00 -4.4086175992813D-01  1.3202716620676D+00
   110  1.0900000000000D+00 -4.5069339672585D-01  1.3012235925393D+00
   111  1.1000000000000D+00 -4.5924418553804D-01  1.2807353811539D+00
   112  1.1100000000000D+00 -4.6653300486804D-01  1.2588579382075D+00
   113  1.1200000000000D+00 -4.7258169232749D-01  1.2356462809599D+00
   114  1.1300000000000D+00 -4.7741494042503D-01  1.2111593702366D+00
   115  1.1400000000000D+00 -4.8106018338183D-01  1.1854599271437D+00
   116  1.1500000000000D+00 -4.8354747522153D-01  1.1586142300267D+00
   117  1.1600000000000D+00 -4.8490935940612D-01  1.1306918918694D+00
   118  1.1700000000000D+00 -4.8518073031498D-01  1.1017656184054D+00
   119  1.1800000000000D+00 -4.8439868688893D-01  1.0719109472829D+00
   120  1.1900000000000D+00 -4.8260237878863D-01  1.0412059687133D+00
   121  1.2000000000000D+00 -4.7983284543922D-01  1.0097310280986D+00
   122  1.2100000000000D+00 -4.7613284834794D-01  9.7756841118638D-01
   123  1.2200000000000D+00 -4.7154669711323D-01  9.4480201239927D-01
   124  1.2300000000000D+00 -4.6612006955797D-01  9.1151698704171D-01
   125  1.2400000000000D+00 -4.5989982643488D-01  8.7779938813861D-01
   126  1.2500000000000D+00 -4.5293382117191D-01  8.4373578873214D-01
   127  1.2600000000000D+00 -4.4527070514270D-01  8.0941289053338D-01
   128  1.2700000000000D+00 -4.3695972895409D-01  7.7491711985623D-01
   129  1.2800000000000D+00 -4.2805054025680D-01  7.4033421181656D-01
   130  1.2900000000000D+00 -4.1859297859867D-01  7.0574878384987D-01
   131  1.3000000000000D+00 -4.0863686783982D-01  6.7124389960864D-01
   132  1.3100000000000D+00 -3.9823180666061D-01  6.3690062435087D-01
   133  1.3200000000000D+00 -3.8742695769491D-01  6.0279757298080D-01
   134  1.3300000000000D+00 -3.7627083582052D-01  5.6901045189468D-01
   135  1.3400000000000D+00 -3.6481109614398D-01  5.3561159583471D-01
   136  1.3500000000000D+00 -3.5309432220405D-01  5.0266950096130D-01
   137  1.3600000000000D+00 -3.4116581492626D-01  4.7024835535385D-01
   138  1.3700000000000D+00 -3.2906938284608D-01  4.3840756817792D-01
   139  1.3800000000000D+00 -3.1684713348818D-01  4.0720129593742D-01
   140  1.3900000000000D+00 -3.0453926974273D-01  3.7667798213061D-01
   141  1.4000000000000D+00 -2.9218387757866D-01  3.4687984904106D-01
   142  1.4100000000000D+00 -2.7981676204261D-01  3.1784258775510D-01
   143  1.4200000000000D+00 -2.6747122078866D-01  2.8959477618329D-01
   144  1.4300000000000D+00 -2.5517770674904D-01  2.6215674691159D-01
   145  1.4400000000000D+00 -2.4296424432029D-01  2.3554290499998D-01
   146  1.4500000000000D+00 -2.3085683380737D-01  2.0976386813754D-01
   147  1.4600000000000D+00 -2.1888003712526D-01  1.8482914668813D-01
   148  1.4700000000000D+00 -2.0705719860787D-01  1.6074813216088D-01
   149  1.4800000000000D+00 -1.9541025703967D-01  1.3752913475265D-01
   150  1.4900000000000D+00 -1.8395974785773D-01  1.1517934682585D-01
   151  1.5000000000000D+00 -1.7272543103323D-01  9.3707342846120D-02
   152  1.5100000000000D+00 -1.6172467986444D-01  7.3116359237528D-02
   153  1.5200000000000D+00 -1.5097111171139D-01  5.3398532613928D-02
   154  1.5300000000000D+00 -1.4048516165798D-01  3.4578490846789D-02
   155  1.5400000000000D+00 -1.3029283542618D-01  1.6708065298211D-02
   156  1.5500000000000D+00 -1.2040206019713D-01 -2.3191639433967D-04
   157  1.5600000000000D+00 -1.1080942865590D-01 -1.6303593369600D-02
   158  1.5700000000000D+00 -1.0152484827115D-01 -3.1509469069020D-02
   159  1.5800000000000D+00 -9.2562807337285D-02 -4.5828994062698D-02
   160  1.5900000000000D+00 -8.3930204767822D-02 -5.9269573549055D-02
   161  1.6000000000000D+00 -7.5632142565979D-02 -7.1842473473669D-02
   162  1.6100000000000D+00 -6.7673806823427D-02 -8.3555063608353D-02
   163  1.6200000000000D+00 -6.0059037135475D-02 -9.4416922499172D-02
   164  1.6300000000000D+00 -5.2790426760778D-02 -1.0443953544990D-01
   165  1.6400000000000D+00 -4.5869488503067D-02 -1.1363572350361D-01
   166  1.6500000000000D+00 -3.9296662865682D-02 -1.2201973201768D-01
   167  1.6600000000000D+00 -3.3071355693490D-02 -1.2960719753513D-01
   168  1.6700000000000D+00 -2.7191977633847D-02 -1.3641510812436D-01
   169  1.6800000000000D+00 -2.1655985389695D-02 -1.4246175712497D-01
   170  1.6900000000000D+00 -1.6459924593208D-02 -1.4776669075897D-01
   171  1.7000000000000D+00 -1.1599474207562D-02 -1.5235064979522D-01
   172  1.7100000000000D+00 -7.0694922681968D-03 -1.5623550579696D-01
   173  1.7200000000000D+00 -2.8640628624660D-03 -1.5944419216387D-01
   174  1.7300000000000D+00  1.0234558513548D-03 -1.6200063054471D-01
   175  1.7400000000000D+00  4.6003827001581D-03 -1.6392965287448D-01
   176  1.7500000000000D+00  7.8746638296798D-03 -1.6525691963897D-01
   177  1.7600000000000D+00  1.0854822443562D-02 -1.6600883465745D-01
   178  1.7700000000000D+00  1.3549908146062D-02 -1.6621245699694D-01
   179  1.7800000000000D+00  1.5969446035312D-02 -1.6589541035664D-01
   180  1.7900000000000D+00  1.8123385725390D-02 -1.6508579050421D-01
   181  1.8000000000000D+00  2.0022050475531D-02 -1.6381207118411D-01
   182  1.8100000000000D+00  2.1676086565875D-02 -1.6210300898923D-01
   183  1.8200000000000D+00  2.3096413137898D-02 -1.5998754773277D-01
   184  1.8300000000000D+00  2.4294172595642D-02 -1.5749472268840D-01
   185  1.8400000000000D+00  2.5280681810144D-02 -1.5465356533090D-01
   186  1.8500000000000D+00  2.6067384202118D-02 -1.5149300886353D-01
   187  1.8600000000000D+00  2.6665802931474D-02 -1.4804179516451D-01
   188  1.8700000000000D+00  2.7087495288646D-02 -1.4432838346574D-01
   189  1.8800000000000D+00  2.7344008447051D-02 -1.4038086124110D-01
   190  1.8900000000000D+00  2.7446836749706D-02 -1.3622685780805D-01
   191  1.9000000000000D+00  2.7407380551634D-02 -1.3189346076765D-01
   192  1.9100000000000D+00  2.7236906928487D-02 -1.2740713615137D-01
   193  1.9200000000000D+00  2.6946512094755D-02 -1.2279365191871D-01
   194  1.9300000000000D+00  2.6547085959247D-02 -1.1807800600227D-01
   195  1.9400000000000D+00  2.6049278589977D-02 -1.1328435833633D-01
   196  1.9500000000000D+00  2.5463468934373D-02 -1.0843596786047D-01
   197  1.9600000000000D+00  2.4799735720989D-02 -1.0355513434153D-01
   198  1.9700000000000D+00  2.4067830611437D-02 -9.8663145251286D-02
   199  1.9800000000000D+00  2.3277153827456D-02 -9.3780228369598D-02
   200  1.9900000000000D+00  2.2436731944281D-02 -8.8925509292674D-02
   201  2.0000000000000D+00  2.1555198372460D-02 -8.4116975359064D-02
   202  2.0100000000000D+00  2.0640776042387D-02 -7.9371444663634D-02
   203  2.0200000000000D+00  1.9701262695280D-02 -7.4704541348761D-02
   204  2.0300000000000D+00  1.8744018595958D-02 -7.0130676688513D-02
   205  2.0400000000000D+00  1.7775956592554D-02 -6.5663035794588D-02
   206  2.0500000000000D+00  1.6803534804961D-02 -6.1313570797649D-02
   207  2.0600000000000D+00  1.5832751437075D-02 -5.7092999088543D-02
   208  2.0700000000000D+00  1.4869142183656D-02 -5.3010808029165D-02
   209  2.0800000000000D+00  1.3917779784074D-02 -4.9075264873449D-02
   210  2.0900000000000D+00  1.2983275806212D-02 -4.5293432186779D-02
   211  2.1000000000000D+00  1.2069784734935D-02 -4.1671189028778D-02
   212  2.1100000000000D+00  1.1181009893691D-02 -3.8213256554655D-02
   213  2.1200000000000D+00  1.0320211609350D-02 -3.4923229299694D-02
   214  2.1300000000000D+00  9.4902171026705D-03 -3.1803610654865D-02
   215  2.1400000000000D+00  8.6934321793788D-03 -2.8855852808185D-02
   216  2.1500000000000D+00  7.9318547049298D-03 -2.6080401155836D-02
   217  2.1600000000000D+00  7.2070894488152D-03 -2.3476741978420D-02
   218  2.1700000000000D+00  6.5203645258235D-03 -2.1043454141420D-02
   219  2.1800000000000D+00  5.8725490483684D-03 -1.8778263687697D-02
   220  2.1900000000000D+00  5.2641719202171D-03 -1.6678101169167D-02
   221  2.2000000000000D+00  4.6954417357984D-03 -1.4739161685889D-02
   222  2.2100000000000D+00  4.1662674818857D-03 -1.2956966717266D-02
   223  2.2200000000000D+00  3.6762800167074D-03 -1.1326427778527D-02
   224  2.2300000000000D+00  3.2248541352003D-03 -9.8419113476141D-03
   225  2.2400000000000D+00  2.8111310893143D-03 -8.4973046771444D-03
   226  2.2500000000000D+00  2.4340413735268D-03 -7.2860820675145D-03
   227  2.2600000000000D+00  2.0923277115646D-03 -6.2013713387494D-03
   228  2.2700000000000D+00  1.7845680447614D-03 -5.2360200043678D-03
   229  2.2800000000000D+00  1.5091983133926D-03 -4.3826605922893D-03
   230  2.2900000000000D+00  1.2645351227452D-03 -3.6337753185120D-03
   231  2.3000000000000D+00  1.0487978565893D-03 -2.9817589652964D-03
   232  2.3100000000000D+00  8.6013024067335D-04 -2.4189799513748D-03
   233  2.3200000000000D+00  6.9662149640679D-04 -1.9378399676536D-03
   234  2.3300000000000D+00  5.5632632728602D-04 -1.5308301325304D-03
   235  2.3400000000000D+00  4.3728424151621D-04 -1.1905850225268D-03
   236  2.3500000000000D+00  3.3753797008410D-04 -9.0993392865601D-04
   237  2.3600000000000D+00  2.5515039581352D-04 -6.8194773398053D-04
   238  2.3700000000000D+00  1.8822065534293D-04 -4.9998323254332D-04
   239  2.3800000000000D+00  1.3489886185409D-04 -3.5772337100095D-04
   240  2.3900000000000D+00  9.3397347759233D-05 -2.4923046415805D-04
   241  2.4000000000000D+00  6.2008708678355D-05 -1.6892131547440D-04
   242  2.4100000000000D+00  3.9112899851850D-05 -1.1162563484145D-04
   243  2.4200000000000D+00  2.3169015290967D-05 -7.2464376322039D-05
   244  2.4300000000000D+00  1.2765578316022D-05 -4.7541223224854D-05
   245  2.4400000000000D+00  6.5925531802433D-06 -3.3363691403179D-05
   246  2.4500000000000D+00  3.5325923401252D-06 -2.7347696333411D-05
   247  2.4600000000000D+00  2.3160084639848D-06 -2.4890930619357D-05
   248  2.4700000000000D+00  1.9015234449436D-06 -2.2286913907969D-05
   249  2.4800000000000D+00  1.3483572703776D-06 -1.5727214244031D-05
   250  2.4900000000000D+00  6.7815032157968D-07 -7.6028795080719D-06
   251  2.5000000000000D+00  3.2746554639985D-08 -3.5028649259674D-07
   252  2.5100000000000D+00 -1.7162373041222D-07  2.1504439625731D-06
   253  2.5200000000000D+00 -1.4656392939333D-07  1.8214095046394D-06
   254  2.5300000000000D+00 -9.0328848012665D-09  1.1119233655712D-07
   255  2.5400000000000D+00  3.0063635483303D-08 -4.4392030732531D-07
   256  2.5500000000000D+00  2.8448599420786D-08 -4.2524144581668D-07
   257  2.5600000000000D+00  2.9065421535083D-09 -4.3900841742348D-08
   258  2.5700000000000D+00 -4.5078685772491D-09  5.2752230058628D-08
   259  2.5800000000000D+00 -4.7948784686113D-09  5.6110893151569D-08
   260  2.5900000000000D+00 -8.6269482689790D-10  1.0095475322547D-08
   261  2.6000000000000D+00  0.0000000000000D+00  0.0000000000000D+00
   262  2.6100000000000D+00  0.0000000000000D+00  0.0000000000000D+00
   263  2.6200000000000D+00  0.0000000000000D+00  0.0000000000000D+00
   264  2.6300000000000D+00  0.0000000000000D+00  0.0000000000000D+00
   265  2.6400000000000D+00  0.0000000000000D+00  0.0000000000000D+00
   266  2.6500000000000D+00  0.0000000000000D+00  0.0000000000000D+00
   267  2.6600000000000D+00  0.0000000000000D+00  0.0000000000000D+00
   268  2.6700000000000D+00  0.0000000000000D+00  0.0000000000000D+00
   269  2.6800000000000D+00  0.0000000000000D+00  0.0000000000000D+00
   270  2.6900000000000D+00  0.0000000000000D+00  0.0000000000000D+00
   271  2.7000000000000D+00  0.0000000000000D+00  0.0000000000000D+00
   272  2.7100000000000D+00  0.0000000000000D+00  0.0000000000000D+00
   273  2.7200000000000D+00  0.0000000000000D+00  0.0000000000000D+00
   274  2.7300000000000D+00  0.0000000000000D+00  0.0000000000000D+00
   275  2.7400000000000D+00  0.0000000000000D+00  0.0000000000000D+00
   276  2.7500000000000D+00  0.0000000000000D+00  0.0000000000000D+00
   277  2.7600000000000D+00  0.0000000000000D+00  0.0000000000000D+00
   278  2.7700000000000D+00  0.0000000000000D+00  0.0000000000000D+00
   279  2.7800000000000D+00  0.0000000000000D+00  0.0000000000000D+00
   280  2.7900000000000D+00  0.0000000000000D+00  0.0000000000000D+00
   281  2.8000000000000D+00  0.0000000000000D+00  0.0000000000000D+00
   282  2.8100000000000D+00  0.0000000000000D+00  0.0000000000000D+00
   283  2.8200000000000D+00  0.0000000000000D+00  0.0000000000000D+00
   284  2.8300000000000D+00  0.0000000000000D+00  0.0000000000000D+00
   285  2.8400000000000D+00  0.0000000000000D+00  0.0000000000000D+00
   286  2.8500000000000D+00  0.0000000000000D+00  0.0000000000000D+00
   287  2.8600000000000D+00  0.0000000000000D+00  0.0000000000000D+00
   288  2.8700000000000D+00  0.0000000000000D+00  0.0000000000000D+00
   289  2.8800000000000D+00  0.0000000000000D+00  0.0000000000000D+00
   290  2.8900000000000D+00  0.0000000000000D+00  0.0000000000000D+00
   291  2.9000000000000D+00  0.0000000000000D+00  0.0000000000000D+00
   292  2.9100000000000D+00  0.0000000000000D+00  0.0000000000000D+00
   293  2.9200000000000D+00  0.0000000000000D+00  0.0000000000000D+00
   294  2.9300000000000D+00  0.0000000000000D+00  0.0000000000000D+00
   295  2.9400000000000D+00  0.0000000000000D+00  0.0000000000000D+00
   296  2.9500000000000D+00  0.0000000000000D+00  0.0000000000000D+00
   297  2.9600000000000D+00  0.0000000000000D+00  0.0000000000000D+00
   298  2.9700000000000D+00  0.0000000000000D+00  0.0000000000000D+00
   299  2.9800000000000D+00  0.0000000000000D+00  0.0000000000000D+00
   300  2.9900000000000D+00  0.0000000000000D+00  0.0000000000000D+00
   301  3.0000000000000D+00  0.0000000000000D+00  0.0000000000000D+00
   302  3.0100000000000D+00  0.0000000000000D+00  0.0000000000000D+00
   303  3.0200000000000D+00  0.0000000000000D+00  0.0000000000000D+00
   304  3.0300000000000D+00  0.0000000000000D+00  0.0000000000000D+00
   305  3.0400000000000D+00  0.0000000000000D+00  0.0000000000000D+00
   306  3.0500000000000D+00  0.0000000000000D+00  0.0000000000000D+00
   307  3.0600000000000D+00  0.0000000000000D+00  0.0000000000000D+00
   308  3.0700000000000D+00  0.0000000000000D+00  0.0000000000000D+00
   309  3.0800000000000D+00  0.0000000000000D+00  0.0000000000000D+00
   310  3.0900000000000D+00  0.0000000000000D+00  0.0000000000000D+00
   311  3.1000000000000D+00  0.0000000000000D+00  0.0000000000000D+00
   312  3.1100000000000D+00  0.0000000000000D+00  0.0000000000000D+00
   313  3.1200000000000D+00  0.0000000000000D+00  0.0000000000000D+00
   314  3.1300000000000D+00  0.0000000000000D+00  0.0000000000000D+00
   315  3.1400000000000D+00  0.0000000000000D+00  0.0000000000000D+00
   316  3.1500000000000D+00  0.0000000000000D+00  0.0000000000000D+00
   317  3.1600000000000D+00  0.0000000000000D+00  0.0000000000000D+00
   318  3.1700000000000D+00  0.0000000000000D+00  0.0000000000000D+00
   319  3.1800000000000D+00  0.0000000000000D+00  0.0000000000000D+00
   320  3.1900000000000D+00  0.0000000000000D+00  0.0000000000000D+00
   321  3.2000000000000D+00  0.0000000000000D+00  0.0000000000000D+00
   322  3.2100000000000D+00  0.0000000000000D+00  0.0000000000000D+00
   323  3.2200000000000D+00  0.0000000000000D+00  0.0000000000000D+00
   324  3.2300000000000D+00  0.0000000000000D+00  0.0000000000000D+00
   325  3.2400000000000D+00  0.0000000000000D+00  0.0000000000000D+00
   326  3.2500000000000D+00  0.0000000000000D+00  0.0000000000000D+00
   327  3.2600000000000D+00  0.0000000000000D+00  0.0000000000000D+00
   328  3.2700000000000D+00  0.0000000000000D+00  0.0000000000000D+00
   329  3.2800000000000D+00  0.0000000000000D+00  0.0000000000000D+00
   330  3.2900000000000D+00  0.0000000000000D+00  0.0000000000000D+00
   331  3.3000000000000D+00  0.0000000000000D+00  0.0000000000000D+00
   332  3.3100000000000D+00  0.0000000000000D+00  0.0000000000000D+00
   333  3.3200000000000D+00  0.0000000000000D+00  0.0000000000000D+00
   334  3.3300000000000D+00  0.0000000000000D+00  0.0000000000000D+00
   335  3.3400000000000D+00  0.0000000000000D+00  0.0000000000000D+00
   336  3.3500000000000D+00  0.0000000000000D+00  0.0000000000000D+00
   337  3.3600000000000D+00  0.0000000000000D+00  0.0000000000000D+00
   338  3.3700000000000D+00  0.0000000000000D+00  0.0000000000000D+00
   339  3.3800000000000D+00  0.0000000000000D+00  0.0000000000000D+00
   340  3.3900000000000D+00  0.0000000000000D+00  0.0000000000000D+00
   341  3.4000000000000D+00  0.0000000000000D+00  0.0000000000000D+00
   342  3.4100000000000D+00  0.0000000000000D+00  0.0000000000000D+00
   343  3.4200000000000D+00  0.0000000000000D+00  0.0000000000000D+00
   344  3.4300000000000D+00  0.0000000000000D+00  0.0000000000000D+00
   345  3.4400000000000D+00  0.0000000000000D+00  0.0000000000000D+00
   346  3.4500000000000D+00  0.0000000000000D+00  0.0000000000000D+00
   347  3.4600000000000D+00  0.0000000000000D+00  0.0000000000000D+00
   348  3.4700000000000D+00  0.0000000000000D+00  0.0000000000000D+00
   349  3.4800000000000D+00  0.0000000000000D+00  0.0000000000000D+00
   350  3.4900000000000D+00  0.0000000000000D+00  0.0000000000000D+00
   351  3.5000000000000D+00  0.0000000000000D+00  0.0000000000000D+00
   352  3.5100000000000D+00  0.0000000000000D+00  0.0000000000000D+00
   353  3.5200000000000D+00  0.0000000000000D+00  0.0000000000000D+00
   354  3.5300000000000D+00  0.0000000000000D+00  0.0000000000000D+00
   355  3.5400000000000D+00  0.0000000000000D+00  0.0000000000000D+00
   356  3.5500000000000D+00  0.0000000000000D+00  0.0000000000000D+00
   357  3.5600000000000D+00  0.0000000000000D+00  0.0000000000000D+00
   358  3.5700000000000D+00  0.0000000000000D+00  0.0000000000000D+00
   359  3.5800000000000D+00  0.0000000000000D+00  0.0000000000000D+00
   360  3.5900000000000D+00  0.0000000000000D+00  0.0000000000000D+00
   361  3.6000000000000D+00  0.0000000000000D+00  0.0000000000000D+00
   362  3.6100000000000D+00  0.0000000000000D+00  0.0000000000000D+00
   363  3.6200000000000D+00  0.0000000000000D+00  0.0000000000000D+00
   364  3.6300000000000D+00  0.0000000000000D+00  0.0000000000000D+00
   365  3.6400000000000D+00  0.0000000000000D+00  0.0000000000000D+00
   366  3.6500000000000D+00  0.0000000000000D+00  0.0000000000000D+00
   367  3.6600000000000D+00  0.0000000000000D+00  0.0000000000000D+00
   368  3.6700000000000D+00  0.0000000000000D+00  0.0000000000000D+00
   369  3.6800000000000D+00  0.0000000000000D+00  0.0000000000000D+00
   370  3.6900000000000D+00  0.0000000000000D+00  0.0000000000000D+00
   371  3.7000000000000D+00  0.0000000000000D+00  0.0000000000000D+00
   372  3.7100000000000D+00  0.0000000000000D+00  0.0000000000000D+00
   373  3.7200000000000D+00  0.0000000000000D+00  0.0000000000000D+00
   374  3.7300000000000D+00  0.0000000000000D+00  0.0000000000000D+00
   375  3.7400000000000D+00  0.0000000000000D+00  0.0000000000000D+00
   376  3.7500000000000D+00  0.0000000000000D+00  0.0000000000000D+00
   377  3.7600000000000D+00  0.0000000000000D+00  0.0000000000000D+00
   378  3.7700000000000D+00  0.0000000000000D+00  0.0000000000000D+00
   379  3.7800000000000D+00  0.0000000000000D+00  0.0000000000000D+00
   380  3.7900000000000D+00  0.0000000000000D+00  0.0000000000000D+00
   381  3.8000000000000D+00  0.0000000000000D+00  0.0000000000000D+00
   382  3.8100000000000D+00  0.0000000000000D+00  0.0000000000000D+00
   383  3.8200000000000D+00  0.0000000000000D+00  0.0000000000000D+00
   384  3.8300000000000D+00  0.0000000000000D+00  0.0000000000000D+00
   385  3.8400000000000D+00  0.0000000000000D+00  0.0000000000000D+00
   386  3.8500000000000D+00  0.0000000000000D+00  0.0000000000000D+00
   387  3.8600000000000D+00  0.0000000000000D+00  0.0000000000000D+00
   388  3.8700000000000D+00  0.0000000000000D+00  0.0000000000000D+00
   389  3.8800000000000D+00  0.0000000000000D+00  0.0000000000000D+00
   390  3.8900000000000D+00  0.0000000000000D+00  0.0000000000000D+00
   391  3.9000000000000D+00  0.0000000000000D+00  0.0000000000000D+00
   392  3.9100000000000D+00  0.0000000000000D+00  0.0000000000000D+00
   393  3.9200000000000D+00  0.0000000000000D+00  0.0000000000000D+00
   394  3.9300000000000D+00  0.0000000000000D+00  0.0000000000000D+00
   395  3.9400000000000D+00  0.0000000000000D+00  0.0000000000000D+00
   396  3.9500000000000D+00  0.0000000000000D+00  0.0000000000000D+00
   397  3.9600000000000D+00  0.0000000000000D+00  0.0000000000000D+00
   398  3.9700000000000D+00  0.0000000000000D+00  0.0000000000000D+00
   399  3.9800000000000D+00  0.0000000000000D+00  0.0000000000000D+00
   400  3.9900000000000D+00  0.0000000000000D+00  0.0000000000000D+00
   401  4.0000000000000D+00  0.0000000000000D+00  0.0000000000000D+00
   402  4.0100000000000D+00  0.0000000000000D+00  0.0000000000000D+00
   403  4.0200000000000D+00  0.0000000000000D+00  0.0000000000000D+00
   404  4.0300000000000D+00  0.0000000000000D+00  0.0000000000000D+00
   405  4.0400000000000D+00  0.0000000000000D+00  0.0000000000000D+00
   406  4.0500000000000D+00  0.0000000000000D+00  0.0000000000000D+00
   407  4.0600000000000D+00  0.0000000000000D+00  0.0000000000000D+00
   408  4.0700000000000D+00  0.0000000000000D+00  0.0000000000000D+00
   409  4.0800000000000D+00  0.0000000000000D+00  0.0000000000000D+00
   410  4.0900000000000D+00  0.0000000000000D+00  0.0000000000000D+00
   411  4.1000000000000D+00  0.0000000000000D+00  0.0000000000000D+00
   412  4.1100000000000D+00  0.0000000000000D+00  0.0000000000000D+00
   413  4.1200000000000D+00  0.0000000000000D+00  0.0000000000000D+00
   414  4.1300000000000D+00  0.0000000000000D+00  0.0000000000000D+00
   415  4.1400000000000D+00  0.0000000000000D+00  0.0000000000000D+00
   416  4.1500000000000D+00  0.0000000000000D+00  0.0000000000000D+00
   417  4.1600000000000D+00  0.0000000000000D+00  0.0000000000000D+00
   418  4.1700000000000D+00  0.0000000000000D+00  0.0000000000000D+00
   419  4.1800000000000D+00  0.0000000000000D+00  0.0000000000000D+00
   420  4.1900000000000D+00  0.0000000000000D+00  0.0000000000000D+00
   421  4.2000000000000D+00  0.0000000000000D+00  0.0000000000000D+00
   422  4.2100000000000D+00  0.0000000000000D+00  0.0000000000000D+00