Pt    ONCVPSP-3.3.1  r_core=   2.32041   2.32041   2.23884   3.01673
     78.0000     18.0000      210904    zatom,zion,pspd
     8       2   3     4   600     0    pspcod,pspxc,lmax,lloc,mmax,r2well
  5.99000000  0.00000000  0.00000000    rchrg fchrg qchrg
     2     2     2     2     0    nproj
     1     1           extension_switch
   0                         6.3446782396384D+00  1.2578138753040D+00
     1  0.0000000000000D+00  5.4402038429657D-12 -2.0880575046789D-11
     2  1.0000000000000D-02  5.8295195850215D-02 -8.1099317296267D-03
     3  2.0000000000000D-02  1.1649949795579D-01 -1.6180929098403D-02
     4  3.0000000000000D-02  1.7452215684390D-01 -2.4174065965206D-02
     5  4.0000000000000D-02  2.3227271151486D-01 -3.2050433230051D-02
     6  5.0000000000000D-02  2.8966113350102D-01 -3.9771148853578D-02
     7  6.0000000000000D-02  3.4659797070857D-01 -4.7297369660383D-02
     8  7.0000000000000D-02  4.0299449096351D-01 -5.4590305496246D-02
     9  8.0000000000000D-02  4.5876282517750D-01 -6.1611236288360D-02
    10  9.0000000000000D-02  5.1381611004277D-01 -6.8321532531871D-02
    11  1.0000000000000D-01  5.6806863015715D-01 -7.4682679695462D-02
    12  1.1000000000000D-01  6.2143595947154D-01 -8.0656307003431D-02
    13  1.2000000000000D-01  6.7383510194183D-01 -8.6204221012333D-02
    14  1.3000000000000D-01  7.2518463125630D-01 -9.1288444356571D-02
    15  1.4000000000000D-01  7.7540482949785D-01 -9.5871259990028D-02
    16  1.5000000000000D-01  8.2441782458760D-01 -9.9915261200050D-02
    17  1.6000000000000D-01  8.7214772634328D-01 -1.0338340761618D-01
    18  1.7000000000000D-01  9.1852076097216D-01 -1.0623908737946D-01
    19  1.8000000000000D-01  9.6346540380428D-01 -1.0844618557914D-01
    20  1.9000000000000D-01  1.0069125100573D+00 -1.0996915900280D-01
    21  2.0000000000000D-01  1.0487954434103D+00 -1.1077311718347D-01
    22  2.1000000000000D-01  1.0890502021498D+00 -1.1082390966388D-01
    23  2.2000000000000D-01  1.1276155426357D+00 -1.1008821933393D-01
    24  2.3000000000000D-01  1.1644330998253D+00 -1.0853366163310D-01
    25  2.4000000000000D-01  1.1994475045741D+00 -1.0612888934569D-01
    26  2.5000000000000D-01  1.2326064974277D+00 -1.0284370265332D-01
    27  2.6000000000000D-01  1.2638610385996D+00 -9.8649164047258D-02
    28  2.7000000000000D-01  1.2931654138261D+00 -9.3517717642510D-02
    29  2.8000000000000D-01  1.3204773357757D+00 -8.7423312377409D-02
    30  2.9000000000000D-01  1.3457580406844D+00 -8.0341528526438D-02
    31  3.0000000000000D-01  1.3689723798811D+00 -7.2249706901262D-02
    32  3.1000000000000D-01  1.3900889058619D+00 -6.3127080065140D-02
    33  3.2000000000000D-01  1.4090799525711D+00 -5.2954904840210D-02
    34  3.3000000000000D-01  1.4259217095399D+00 -4.1716595345195D-02
    35  3.4000000000000D-01  1.4405942895405D+00 -2.9397855763718D-02
    36  3.5000000000000D-01  1.4530817894101D+00 -1.5986812010787D-02
    37  3.6000000000000D-01  1.4633723437067D+00 -1.4741414373411D-03
    38  3.7000000000000D-01  1.4714581708638D+00  1.4146800309623D-02
    39  3.8000000000000D-01  1.4773356115195D+00  3.0879856170701D-02
    40  3.9000000000000D-01  1.4810051587064D+00  4.8725949211980D-02
    41  4.0000000000000D-01  1.4824714796019D+00  6.7682969733080D-02
    42  4.1000000000000D-01  1.4817434285523D+00  8.7745668860543D-02
    43  4.2000000000000D-01  1.4788340511040D+00  1.0890555953499D-01
    44  4.3000000000000D-01  1.4737605787906D+00  1.3115082578785D-01
    45  4.4000000000000D-01  1.4665444144512D+00  1.5446624118428D-01
    46  4.5000000000000D-01  1.4572111078745D+00  1.7883309728420D-01
    47  4.6000000000000D-01  1.4457903215916D+00  2.0422914294193D-01
    48  4.7000000000000D-01  1.4323157866691D+00  2.3062853522841D-01
    49  4.8000000000000D-01  1.4168252483794D+00  2.5800180271684D-01
    50  4.9000000000000D-01  1.3993604016631D+00  2.8631582182462D-01
    51  5.0000000000000D-01  1.3799668163245D+00  3.1553380685044D-01
    52  5.1000000000000D-01  1.3586938519414D+00  3.4561531428681D-01
    53  5.2000000000000D-01  1.3355945625040D+00  3.7651626192448D-01
    54  5.3000000000000D-01  1.3107255908334D+00  4.0818896319725D-01
    55  5.4000000000000D-01  1.2841470528726D+00  4.4058217714276D-01
    56  5.5000000000000D-01  1.2559224119774D+00  4.7364117427957D-01
    57  5.6000000000000D-01  1.2261183433779D+00  5.0730781862040D-01
    58  5.7000000000000D-01  1.1948045890201D+00  5.4152066595948D-01
    59  5.8000000000000D-01  1.1620538030365D+00  5.7621507848671D-01
    60  5.9000000000000D-01  1.1279413881389D+00  6.1132335569432D-01
    61  6.0000000000000D-01  1.0925453232626D+00  6.4677488145317D-01
    62  6.1000000000000D-01  1.0559459828350D+00  6.8249628704600D-01
    63  6.2000000000000D-01  1.0182259480793D+00  7.1841162985501D-01
    64  6.3000000000000D-01  9.7946981080258D-01  7.5444258731075D-01
    65  6.4000000000000D-01  9.3976397015795D-01  7.9050866561965D-01
    66  6.5000000000000D-01  8.9919642290289D-01  8.2652742269899D-01
    67  6.6000000000000D-01  8.5785654771505D-01  8.6241470466071D-01
    68  6.7000000000000D-01  8.1583488415771D-01  8.9808489510098D-01
    69  6.8000000000000D-01  7.7322290691987D-01  9.3345117636941D-01
    70  6.9000000000000D-01  7.3011279598524D-01  9.6842580191308D-01
    71  7.0000000000000D-01  6.8659720341186D-01  1.0029203787143D+00
    72  7.1000000000000D-01  6.4276901742882D-01  1.0368461587699D+00
    73  7.2000000000000D-01  5.9872112457937D-01  1.0701143384926D+00
    74  7.3000000000000D-01  5.5454617065875D-01  1.1026363648521D+00
    75  7.4000000000000D-01  5.1033632121232D-01  1.1343242470179D+00
    76  7.5000000000000D-01  4.6618302237295D-01  1.1650908722140D+00
    77  7.6000000000000D-01  4.2217676282730D-01  1.1948503244507D+00
    78  7.7000000000000D-01  3.7840683770809D-01  1.2235182047599D+00
    79  7.8000000000000D-01  3.3496111521324D-01  1.2510119515285D+00
    80  7.9000000000000D-01  2.9192580675355D-01  1.2772511595003D+00
    81  8.0000000000000D-01  2.4938524142771D-01  1.3021578959960D+00
    82  8.1000000000000D-01  2.0742164561711D-01  1.3256570128945D+00
    83  8.2000000000000D-01  1.6611492848320D-01  1.3476764529101D+00
    84  8.3000000000000D-01  1.2554247413670D-01  1.3681475487095D+00
    85  8.4000000000000D-01  8.5778941231575D-02  1.3870053134206D+00
    86  8.5000000000000D-01  4.6896070715981D-02  1.4041887211050D+00
    87  8.6000000000000D-01  8.9625024494252D-03  1.4196409757937D+00
    88  8.7000000000000D-01 -2.7956398631817D-02  1.4333097677180D+00
    89  8.8000000000000D-01 -6.3798706148836D-02  1.4451475154100D+00
    90  8.9000000000000D-01 -9.8506085094670D-02  1.4551115923932D+00
    91  9.0000000000000D-01 -1.3202393324623D-01  1.4631645372426D+00
    92  9.1000000000000D-01 -1.6430151062934D-01  1.4692742458493D+00
    93  9.2000000000000D-01 -1.9529205653393D-01  1.4734141447988D+00
    94  9.3000000000000D-01 -2.2495289362062D-01  1.4755633448411D+00
    95  9.4000000000000D-01 -2.5324551870547D-01  1.4757067735118D+00
    96  9.5000000000000D-01 -2.8013567985867D-01  1.4738352860484D+00
    97  9.6000000000000D-01 -3.0559343950202D-01  1.4699457538341D+00
    98  9.7000000000000D-01 -3.2959322324226D-01  1.4640411296946D+00
    99  9.8000000000000D-01 -3.5211385423058D-01  1.4561304894718D+00
   100  9.9000000000000D-01 -3.7313857289085D-01  1.4462290493971D+00
   101  1.0000000000000D+00 -3.9265504191648D-01  1.4343581588907D+00
   102  1.0100000000000D+00 -4.1065533648949D-01  1.4205452685193D+00
   103  1.0200000000000D+00 -4.2713591973178D-01  1.4048238729505D+00
   104  1.0300000000000D+00 -4.4209760345409D-01  1.3872334288493D+00
   105  1.0400000000000D+00 -4.5554549432465D-01  1.3678192477734D+00
   106  1.0500000000000D+00 -4.6748892563299D-01  1.3466323642281D+00
   107  1.0600000000000D+00 -4.7794137487931D-01  1.3237293791510D+00
   108  1.0700000000000D+00 -4.8692036747428D-01  1.2991722792040D+00
   109  1.0800000000000D+00 -4.9444736688419D-01  1.2730282323516D+00
   110  1.0900000000000D+00 -5.0054765160902D-01  1.2453693603109D+00
   111  1.1000000000000D+00 -5.0525017942661D-01  1.2162724885500D+00
   112  1.1100000000000D+00 -5.0858743938451D-01  1.1858188746122D+00
   113  1.1200000000000D+00 -5.1059529206637D-01  1.1540939156350D+00
   114  1.1300000000000D+00 -5.1131279869997D-01  1.1211868360173D+00
   115  1.1400000000000D+00 -5.1078203971416D-01  1.0871903562733D+00
   116  1.1500000000000D+00 -5.0904792338465D-01  1.0522003441753D+00
   117  1.1600000000000D+00 -5.0615798524869D-01  1.0163154493802D+00
   118  1.1700000000000D+00 -5.0216217899398D-01  9.7963672278108D-01
   119  1.1800000000000D+00 -4.9711265955325D-01  9.4226722188745D-01
   120  1.1900000000000D+00 -4.9106355916100D-01  9.0431160358909D-01
   121  1.2000000000000D+00 -4.8407075714997D-01  8.6587570570692D-01
   122  1.2100000000000D+00 -4.7619164427897D-01  8.2706611876662D-01
   123  1.2200000000000D+00 -4.6748488239362D-01  7.8798974945348D-01
   124  1.2300000000000D+00 -4.5801016023729D-01  7.4875337724549D-01
   125  1.2400000000000D+00 -4.4782794622710D-01  7.0946320572013D-01
   126  1.2500000000000D+00 -4.3699923901447D-01  6.7022441004235D-01
   127  1.2600000000000D+00 -4.2558531664901D-01  6.3114068214611D-01
   128  1.2700000000000D+00 -4.1364748515170D-01  5.9231377509980D-01
   129  1.2800000000000D+00 -4.0124682729997D-01  5.5384304814122D-01
   130  1.2900000000000D+00 -3.8844395241520D-01  5.1582501384881D-01
   131  1.3000000000000D+00 -3.7529874791197D-01  4.7835288885728D-01
   132  1.3100000000000D+00 -3.6187013336846D-01  4.4151614952679D-01
   133  1.3200000000000D+00 -3.4821581784629D-01  4.0540009391726D-01
   134  1.3300000000000D+00 -3.3439206113924D-01  3.7008541132563D-01
   135  1.3400000000000D+00 -3.2045343965008D-01  3.3564776068204D-01
   136  1.3500000000000D+00 -3.0645261751885D-01  3.0215735895555D-01
   137  1.3600000000000D+00 -2.9244012358640D-01  2.6967858064199D-01
   138  1.3700000000000D+00 -2.7846413481309D-01  2.3826956947815D-01
   139  1.3800000000000D+00 -2.6457026662223D-01  2.0798186323228D-01
   140  1.3900000000000D+00 -2.5080137051138D-01  1.7886003189943D-01
   141  1.4000000000000D+00 -2.3719733919969D-01  1.5094132944653D-01
   142  1.4100000000000D+00 -2.2379491932400D-01  1.2425535944454D-01
   143  1.4200000000000D+00 -2.1062754913103D-01  9.8823810072102D-02
   144  1.4300000000000D+00 -1.9772520554754D-01  7.4660216044947D-02
   145  1.4400000000000D+00 -1.8511404415639D-01  5.1768966148518D-02
   146  1.4500000000000D+00 -1.7281672287794D-01  3.0146709995556D-02
   147  1.4600000000000D+00 -1.6085292994697D-01  9.7844741444464D-03
   148  1.4700000000000D+00 -1.4923999465580D-01 -9.3301839306778D-03
   149  1.4800000000000D+00 -1.3799338959172D-01 -2.7211434238045D-02
   150  1.4900000000000D+00 -1.2712657892213D-01 -4.3875817919614D-02
   151  1.5000000000000D+00 -1.1665106693978D-01 -5.9342183154624D-02
   152  1.5100000000000D+00 -1.0657647217911D-01 -7.3631519481412D-02
   153  1.5200000000000D+00 -9.6910574083373D-02 -8.6766905461231D-02
   154  1.5300000000000D+00 -8.7659362742118D-02 -9.8773444920988D-02
   155  1.5400000000000D+00 -7.8827109502049D-02 -1.0967814186928D-01
   156  1.5500000000000D+00 -7.0416666335760D-02 -1.1950905038895D-01
   157  1.5600000000000D+00 -6.2428812178307D-02 -1.2829746080097D-01
   158  1.5700000000000D+00 -5.4861987129704D-02 -1.3607886500349D-01
   159  1.5800000000000D+00 -4.7716069784209D-02 -1.4288100161669D-01
   160  1.5900000000000D+00 -4.0992288302295D-02 -1.4872426834407D-01
   161  1.6000000000000D+00 -3.4686802179596D-02 -1.5364249412908D-01
   162  1.6100000000000D+00 -2.8791072797561D-02 -1.5768180433074D-01
   163  1.6200000000000D+00 -2.3296052124703D-02 -1.6088704533454D-01
   164  1.6300000000000D+00 -1.8192410330282D-02 -1.6330123564015D-01
   165  1.6400000000000D+00 -1.3470857375048D-02 -1.6496485825973D-01
   166  1.6500000000000D+00 -9.1219316348534D-03 -1.6591663057736D-01
   167  1.6600000000000D+00 -5.1349832419497D-03 -1.6619684578777D-01
   168  1.6700000000000D+00 -1.4984885014001D-03 -1.6584650202294D-01
   169  1.6800000000000D+00  1.7996155801624D-03 -1.6490635141331D-01
   170  1.6900000000000D+00  4.7719636316199D-03 -1.6341712353893D-01
   171  1.7000000000000D+00  7.4316876833397D-03 -1.6141940674911D-01
   172  1.7100000000000D+00  9.7923335790518D-03 -1.5895349799673D-01
   173  1.7200000000000D+00  1.1867785269672D-02 -1.5605927641745D-01
   174  1.7300000000000D+00  1.3672191030835D-02 -1.5277608111624D-01
   175  1.7400000000000D+00  1.5219891668479D-02 -1.4914259329227D-01
   176  1.7500000000000D+00  1.6525351112159D-02 -1.4519672358498D-01
   177  1.7600000000000D+00  1.7603089409144D-02 -1.4097550464382D-01
   178  1.7700000000000D+00  1.8467618491406D-02 -1.3651498974311D-01
   179  1.7800000000000D+00  1.9133380716581D-02 -1.3185015741819D-01
   180  1.7900000000000D+00  1.9614690491993D-02 -1.2701482280115D-01
   181  1.8000000000000D+00  1.9925679004247D-02 -1.2204155568064D-01
   182  1.8100000000000D+00  2.0080242255762D-02 -1.1696160571848D-01
   183  1.8200000000000D+00  2.0091992498284D-02 -1.1180483500159D-01
   184  1.8300000000000D+00  1.9974213104865D-02 -1.0659965799701D-01
   185  1.8400000000000D+00  1.9739817089471D-02 -1.0137298936054D-01
   186  1.8500000000000D+00  1.9401309103462D-02 -9.6150199181949D-02
   187  1.8600000000000D+00  1.8970751283643D-02 -9.0955076495014D-02
   188  1.8700000000000D+00  1.8459732534478D-02 -8.5809800071699D-02
   189  1.8800000000000D+00  1.7879341774726D-02 -8.0734917686156D-02
   190  1.8900000000000D+00  1.7240144603285D-02 -7.5749332575413D-02
   191  1.9000000000000D+00  1.6552163826618D-02 -7.0870298077077D-02
   192  1.9100000000000D+00  1.5824863450799D-02 -6.6113419513199D-02
   193  1.9200000000000D+00  1.5067136294231D-02 -6.1492663649082D-02
   194  1.9300000000000D+00  1.4287295097341D-02 -5.7020375418099D-02
   195  1.9400000000000D+00  1.3493066919507D-02 -5.2707301406742D-02
   196  1.9500000000000D+00  1.2691591008039D-02 -4.8562620491264D-02
   197  1.9600000000000D+00  1.1889419597692D-02 -4.4593980371418D-02
   198  1.9700000000000D+00  1.1092522012871D-02 -4.0807540812704D-02
   199  1.9800000000000D+00  1.0306291468945D-02 -3.7208022206575D-02
   200  1.9900000000000D+00  9.5355547475774D-03 -3.3798759810168D-02
   201  2.0000000000000D+00  8.7845844443815D-03 -3.0581762958459D-02
   202  2.0100000000000D+00  8.0571135803217D-03 -2.7557778749511D-02
   203  2.0200000000000D+00  7.3563525804510D-03 -2.4726360173306D-02
   204  2.0300000000000D+00  6.6850081701452D-03 -2.2085937659401D-02
   205  2.0400000000000D+00  6.0453042664367D-03 -1.9633894162827D-02
   206  2.0500000000000D+00  5.4390044683939D-03 -1.7366642895453D-02
   207  2.0600000000000D+00  4.8674360345083D-03 -1.5279707404618D-02
   208  2.0700000000000D+00  4.3315151456581D-03 -1.3367803515938D-02
   209  2.0800000000000D+00  3.8317732106567D-03 -1.1624922597971D-02
   210  2.0900000000000D+00  3.3683840201723D-03 -1.0044415628756D-02
   211  2.1000000000000D+00  2.9411915786627D-03 -8.6190777234087D-03
   212  2.1100000000000D+00  2.5497383441597D-03 -7.3412324401758D-03
   213  2.1200000000000D+00  2.1932936893200D-03 -6.2028154351913D-03
   214  2.1300000000000D+00  1.8708825025852D-03 -5.1954573054520D-03
   215  2.1400000000000D+00  1.5813134482686D-03 -4.3105644264077D-03
   216  2.1500000000000D+00  1.3232070614116D-03 -3.5393982700705D-03
   217  2.1600000000000D+00  1.0950232073496D-03 -2.8731520530013D-03
   218  2.1700000000000D+00  8.9508774543503D-04 -2.3030243453807D-03
   219  2.1800000000000D+00  7.2161860447642D-04 -1.8202901803928D-03
   220  2.1900000000000D+00  5.7275039918308D-04 -1.4163675408592D-03
   221  2.2000000000000D+00  4.4655816467028D-04 -1.0828806672478D-03
   222  2.2100000000000D+00  3.4107969995840D-04 -8.1171895936333D-04
   223  2.2200000000000D+00  2.5433618888608D-04 -5.9509068371788D-04
   224  2.2300000000000D+00  1.8435168533406D-04 -4.2557293955389D-04
   225  2.2400000000000D+00  1.2917008293142D-04 -2.9616000753777D-04
   226  2.2500000000000D+00  8.6869796835254D-05 -2.0031393354410D-04
   227  2.2600000000000D+00  5.5586530625089D-05 -1.3189728970928D-04
   228  2.2700000000000D+00  3.3494922024101D-05 -8.5199669608155D-05
   229  2.2800000000000D+00  1.8867304769585D-05 -5.5348262608143D-05
   230  2.2900000000000D+00  1.0091678871894D-05 -3.8381215207193D-05
   231  2.3000000000000D+00  5.7334660062017D-06 -3.1164140992403D-05
   232  2.3100000000000D+00  4.0184148735737D-06 -2.8413832247713D-05
   233  2.3200000000000D+00  3.3369515150186D-06 -2.5234293263559D-05
   234  2.3300000000000D+00  2.2298895102858D-06 -1.6903080397792D-05
   235  2.3400000000000D+00  9.4857731594947D-07 -7.0138547729148D-06
   236  2.3500000000000D+00 -9.2021023663715D-08  7.3948706367777D-07
   237  2.3600000000000D+00 -3.2499120526683D-07  2.6086675101642D-06
   238  2.3700000000000D+00 -1.7922875187772D-07  1.4333338611194D-06
   239  2.3800000000000D+00  3.0114123093082D-08 -2.6272076705949D-07
   240  2.3900000000000D+00  6.4633379289931D-08 -5.6877236729566D-07
   241  2.4000000000000D+00  3.0159099455066D-08 -2.6731600423665D-07
   242  2.4100000000000D+00 -5.4751605753404D-09  4.1389627412811D-08
   243  2.4200000000000D+00 -9.2804387014123D-09  7.0155732383247D-08
   244  2.4300000000000D+00 -3.5685852644102D-09  2.6976818753047D-08
   245  2.4400000000000D+00  0.0000000000000D+00  0.0000000000000D+00
   246  2.4500000000000D+00  0.0000000000000D+00  0.0000000000000D+00
   247  2.4600000000000D+00  0.0000000000000D+00  0.0000000000000D+00
   248  2.4700000000000D+00  0.0000000000000D+00  0.0000000000000D+00
   249  2.4800000000000D+00  0.0000000000000D+00  0.0000000000000D+00
   250  2.4900000000000D+00  0.0000000000000D+00  0.0000000000000D+00
   251  2.5000000000000D+00  0.0000000000000D+00  0.0000000000000D+00
   252  2.5100000000000D+00  0.0000000000000D+00  0.0000000000000D+00
   253  2.5200000000000D+00  0.0000000000000D+00  0.0000000000000D+00
   254  2.5300000000000D+00  0.0000000000000D+00  0.0000000000000D+00
   255  2.5400000000000D+00  0.0000000000000D+00  0.0000000000000D+00
   256  2.5500000000000D+00  0.0000000000000D+00  0.0000000000000D+00
   257  2.5600000000000D+00  0.0000000000000D+00  0.0000000000000D+00
   258  2.5700000000000D+00  0.0000000000000D+00  0.0000000000000D+00
   259  2.5800000000000D+00  0.0000000000000D+00  0.0000000000000D+00
   260  2.5900000000000D+00  0.0000000000000D+00  0.0000000000000D+00
   261  2.6000000000000D+00  0.0000000000000D+00  0.0000000000000D+00
   262  2.6100000000000D+00  0.0000000000000D+00  0.0000000000000D+00
   263  2.6200000000000D+00  0.0000000000000D+00  0.0000000000000D+00
   264  2.6300000000000D+00  0.0000000000000D+00  0.0000000000000D+00
   265  2.6400000000000D+00  0.0000000000000D+00  0.0000000000000D+00
   266  2.6500000000000D+00  0.0000000000000D+00  0.0000000000000D+00
   267  2.6600000000000D+00  0.0000000000000D+00  0.0000000000000D+00
   268  2.6700000000000D+00  0.0000000000000D+00  0.0000000000000D+00
   269  2.6800000000000D+00  0.0000000000000D+00  0.0000000000000D+00
   270  2.6900000000000D+00  0.0000000000000D+00  0.0000000000000D+00
   271  2.7000000000000D+00  0.0000000000000D+00  0.0000000000000D+00
   272  2.7100000000000D+00  0.0000000000000D+00  0.0000000000000D+00
   273  2.7200000000000D+00  0.0000000000000D+00  0.0000000000000D+00
   274  2.7300000000000D+00  0.0000000000000D+00  0.0000000000000D+00
   275  2.7400000000000D+00  0.0000000000000D+00  0.0000000000000D+00
   276  2.7500000000000D+00  0.0000000000000D+00  0.0000000000000D+00
   277  2.7600000000000D+00  0.0000000000000D+00  0.0000000000000D+00
   278  2.7700000000000D+00  0.0000000000000D+00  0.0000000000000D+00
   279  2.7800000000000D+00  0.0000000000000D+00  0.0000000000000D+00
   280  2.7900000000000D+00  0.0000000000000D+00  0.0000000000000D+00
   281  2.8000000000000D+00  0.0000000000000D+00  0.0000000000000D+00
   282  2.8100000000000D+00  0.0000000000000D+00  0.0000000000000D+00
   283  2.8200000000000D+00  0.0000000000000D+00  0.0000000000000D+00
   284  2.8300000000000D+00  0.0000000000000D+00  0.0000000000000D+00
   285  2.8400000000000D+00  0.0000000000000D+00  0.0000000000000D+00
   286  2.8500000000000D+00  0.0000000000000D+00  0.0000000000000D+00
   287  2.8600000000000D+00  0.0000000000000D+00  0.0000000000000D+00
   288  2.8700000000000D+00  0.0000000000000D+00  0.0000000000000D+00
   289  2.8800000000000D+00  0.0000000000000D+00  0.0000000000000D+00
   290  2.8900000000000D+00  0.0000000000000D+00  0.0000000000000D+00
   291  2.9000000000000D+00  0.0000000000000D+00  0.0000000000000D+00
   292  2.9100000000000D+00  0.0000000000000D+00  0.0000000000000D+00
   293  2.9200000000000D+00  0.0000000000000D+00  0.0000000000000D+00
   294  2.9300000000000D+00  0.0000000000000D+00  0.0000000000000D+00
   295  2.9400000000000D+00  0.0000000000000D+00  0.0000000000000D+00
   296  2.9500000000000D+00  0.0000000000000D+00  0.0000000000000D+00
   297  2.9600000000000D+00  0.0000000000000D+00  0.0000000000000D+00
   298  2.9700000000000D+00  0.0000000000000D+00  0.0000000000000D+00
   299  2.9800000000000D+00  0.0000000000000D+00  0.0000000000000D+00
   300  2.9900000000000D+00  0.0000000000000D+00  0.0000000000000D+00
   301  3.0000000000000D+00  0.0000000000000D+00  0.0000000000000D+00
   302  3.0100000000000D+00  0.0000000000000D+00  0.0000000000000D+00
   303  3.0200000000000D+00  0.0000000000000D+00  0.0000000000000D+00
   304  3.0300000000000D+00  0.0000000000000D+00  0.0000000000000D+00
   305  3.0400000000000D+00  0.0000000000000D+00  0.0000000000000D+00
   306  3.0500000000000D+00  0.0000000000000D+00  0.0000000000000D+00
   307  3.0600000000000D+00  0.0000000000000D+00  0.0000000000000D+00
   308  3.0700000000000D+00  0.0000000000000D+00  0.0000000000000D+00
   309  3.0800000000000D+00  0.0000000000000D+00  0.0000000000000D+00
   310  3.0900000000000D+00  0.0000000000000D+00  0.0000000000000D+00
   311  3.1000000000000D+00  0.0000000000000D+00  0.0000000000000D+00
   312  3.1100000000000D+00  0.0000000000000D+00  0.0000000000000D+00
   313  3.1200000000000D+00  0.0000000000000D+00  0.0000000000000D+00
   314  3.1300000000000D+00  0.0000000000000D+00  0.0000000000000D+00
   315  3.1400000000000D+00  0.0000000000000D+00  0.0000000000000D+00
   316  3.1500000000000D+00  0.0000000000000D+00  0.0000000000000D+00
   317  3.1600000000000D+00  0.0000000000000D+00  0.0000000000000D+00
   318  3.1700000000000D+00  0.0000000000000D+00  0.0000000000000D+00
   319  3.1800000000000D+00  0.0000000000000D+00  0.0000000000000D+00
   320  3.1900000000000D+00  0.0000000000000D+00  0.0000000000000D+00
   321  3.2000000000000D+00  0.0000000000000D+00  0.0000000000000D+00
   322  3.2100000000000D+00  0.0000000000000D+00  0.0000000000000D+00
   323  3.2200000000000D+00  0.0000000000000D+00  0.0000000000000D+00
   324  3.2300000000000D+00  0.0000000000000D+00  0.0000000000000D+00
   325  3.2400000000000D+00  0.0000000000000D+00  0.0000000000000D+00
   326  3.2500000000000D+00  0.0000000000000D+00  0.0000000000000D+00
   327  3.2600000000000D+00  0.0000000000000D+00  0.0000000000000D+00
   328  3.2700000000000D+00  0.0000000000000D+00  0.0000000000000D+00
   329  3.2800000000000D+00  0.0000000000000D+00  0.0000000000000D+00
   330  3.2900000000000D+00  0.0000000000000D+00  0.0000000000000D+00
   331  3.3000000000000D+00  0.0000000000000D+00  0.0000000000000D+00
   332  3.3100000000000D+00  0.0000000000000D+00  0.0000000000000D+00
   333  3.3200000000000D+00  0.0000000000000D+00  0.0000000000000D+00
   334  3.3300000000000D+00  0.0000000000000D+00  0.0000000000000D+00
   335  3.3400000000000D+00  0.0000000000000D+00  0.0000000000000D+00
   336  3.3500000000000D+00  0.0000000000000D+00  0.0000000000000D+00
   337  3.3600000000000D+00  0.0000000000000D+00  0.0000000000000D+00
   338  3.3700000000000D+00  0.0000000000000D+00  0.0000000000000D+00
   339  3.3800000000000D+00  0.0000000000000D+00  0.0000000000000D+00
   340  3.3900000000000D+00  0.0000000000000D+00  0.0000000000000D+00
   341  3.4000000000000D+00  0.0000000000000D+00  0.0000000000000D+00
   342  3.4100000000000D+00  0.0000000000000D+00  0.0000000000000D+00
   343  3.4200000000000D+00  0.0000000000000D+00  0.0000000000000D+00
   344  3.4300000000000D+00  0.0000000000000D+00  0.0000000000000D+00
   345  3.4400000000000D+00  0.0000000000000D+00  0.0000000000000D+00
   346  3.4500000000000D+00  0.0000000000000D+00  0.0000000000000D+00
   347  3.4600000000000D+00  0.0000000000000D+00  0.0000000000000D+00
   348  3.4700000000000D+00  0.0000000000000D+00  0.0000000000000D+00
   349  3.4800000000000D+00  0.0000000000000D+00  0.0000000000000D+00
   350  3.4900000000000D+00  0.0000000000000D+00  0.0000000000000D+00
   351  3.5000000000000D+00  0.0000000000000D+00  0.0000000000000D+00
   352  3.5100000000000D+00  0.0000000000000D+00  0.0000000000000D+00
   353  3.5200000000000D+00  0.0000000000000D+00  0.0000000000000D+00
   354  3.5300000000000D+00  0.0000000000000D+00  0.0000000000000D+00
   355  3.5400000000000D+00  0.0000000000000D+00  0.0000000000000D+00
   356  3.5500000000000D+00  0.0000000000000D+00  0.0000000000000D+00
   357  3.5600000000000D+00  0.0000000000000D+00  0.0000000000000D+00
   358  3.5700000000000D+00  0.0000000000000D+00  0.0000000000000D+00
   359  3.5800000000000D+00  0.0000000000000D+00  0.0000000000000D+00
   360  3.5900000000000D+00  0.0000000000000D+00  0.0000000000000D+00
   361  3.6000000000000D+00  0.0000000000000D+00  0.0000000000000D+00
   362  3.6100000000000D+00  0.0000000000000D+00  0.0000000000000D+00
   363  3.6200000000000D+00  0.0000000000000D+00  0.0000000000000D+00
   364  3.6300000000000D+00  0.0000000000000D+00  0.0000000000000D+00
   365  3.6400000000000D+00  0.0000000000000D+00  0.0000000000000D+00
   366  3.6500000000000D+00  0.0000000000000D+00  0.0000000000000D+00
   367  3.6600000000000D+00  0.0000000000000D+00  0.0000000000000D+00
   368  3.6700000000000D+00  0.0000000000000D+00  0.0000000000000D+00
   369  3.6800000000000D+00  0.0000000000000D+00  0.0000000000000D+00
   370  3.6900000000000D+00  0.0000000000000D+00  0.0000000000000D+00
   371  3.7000000000000D+00  0.0000000000000D+00  0.0000000000000D+00
   372  3.7100000000000D+00  0.0000000000000D+00  0.0000000000000D+00
   373  3.7200000000000D+00  0.0000000000000D+00  0.0000000000000D+00
   374  3.7300000000000D+00  0.0000000000000D+00  0.0000000000000D+00
   375  3.7400000000000D+00  0.0000000000000D+00  0.0000000000000D+00
   376  3.7500000000000D+00  0.0000000000000D+00  0.0000000000000D+00
   377  3.7600000000000D+00  0.0000000000000D+00  0.0000000000000D+00
   378  3.7700000000000D+00  0.0000000000000D+00  0.0000000000000D+00
   379  3.7800000000000D+00  0.0000000000000D+00  0.0000000000000D+00
   380  3.7900000000000D+00  0.0000000000000D+00  0.0000000000000D+00
   381  3.8000000000000D+00  0.0000000000000D+00  0.0000000000000D+00
   382  3.8100000000000D+00  0.0000000000000D+00  0.0000000000000D+00
   383  3.8200000000000D+00  0.0000000000000D+00  0.0000000000000D+00
   384  3.8300000000000D+00  0.0000000000000D+00  0.0000000000000D+00
   385  3.8400000000000D+00  0.0000000000000D+00  0.0000000000000D+00
   386  3.8500000000000D+00  0.0000000000000D+00  0.0000000000000D+00
   387  3.8600000000000D+00  0.0000000000000D+00  0.0000000000000D+00
   388  3.8700000000000D+00  0.0000000000000D+00  0.0000000000000D+00
   389  3.8800000000000D+00  0.0000000000000D+00  0.0000000000000D+00
   390  3.8900000000000D+00  0.0000000000000D+00  0.0000000000000D+00
   391  3.9000000000000D+00  0.0000000000000D+00  0.0000000000000D+00
   392  3.9100000000000D+00  0.0000000000000D+00  0.0000000000000D+00
   393  3.9200000000000D+00  0.0000000000000D+00  0.0000000000000D+00
   394  3.9300000000000D+00  0.0000000000000D+00  0.0000000000000D+00
   395  3.9400000000000D+00  0.0000000000000D+00  0.0000000000000D+00
   396  3.9500000000000D+00  0.0000000000000D+00  0.0000000000000D+00
   397  3.9600000000000D+00  0.0000000000000D+00  0.0000000000000D+00
   398  3.9700000000000D+00  0.0000000000000D+00  0.0000000000000D+00
   399  3.9800000000000D+00  0.0000000000000D+00  0.0000000000000D+00
   400  3.9900000000000D+00  0.0000000000000D+00  0.0000000000000D+00
   401  4.0000000000000D+00  0.0000000000000D+00  0.0000000000000D+00
   402  4.0100000000000D+00  0.0000000000000D+00  0.0000000000000D+00
   403  4.0200000000000D+00  0.0000000000000D+00  0.0000000000000D+00
   404  4.0300000000000D+00  0.0000000000000D+00  0.0000000000000D+00
   405  4.0400000000000D+00  0.0000000000000D+00  0.0000000000000D+00
   406  4.0500000000000D+00  0.0000000000000D+00  0.0000000000000D+00
   407  4.0600000000000D+00  0.0000000000000D+00  0.0000000000000D+00
   408  4.0700000000000D+00  0.0000000000000D+00  0.0000000000000D+00
   409  4.0800000000000D+00  0.0000000000000D+00  0.0000000000000D+00
   410  4.0900000000000D+00  0.0000000000000D+00  0.0000000000000D+00
   411  4.1000000000000D+00  0.0000000000000D+00  0.0000000000000D+00
   412  4.1100000000000D+00  0.0000000000000D+00  0.0000000000000D+00
   413  4.1200000000000D+00  0.0000000000000D+00  0.0000000000000D+00
   414  4.1300000000000D+00  0.0000000000000D+00  0.0000000000000D+00
   415  4.1400000000000D+00  0.0000000000000D+00  0.0000000000000D+00
   416  4.1500000000000D+00  0.0000000000000D+00  0.0000000000000D+00
   417  4.1600000000000D+00  0.0000000000000D+00  0.0000000000000D+00
   418  4.1700000000000D+00  0.0000000000000D+00  0.0000000000000D+00
   419  4.1800000000000D+00  0.0000000000000D+00  0.0000000000000D+00
   420  4.1900000000000D+00  0.0000000000000D+00  0.0000000000000D+00
   421  4.2000000000000D+00  0.0000000000000D+00  0.0000000000000D+00
   422  4.2100000000000D+00  0.0000000000000D+00  0.0000000000000D+00