Rb    ONCVPSP-3.3.1  r_core=   3.18390   3.03555   2.89411
     37.0000      9.0000      210904    zatom,zion,pspd
     8       2   2     4   600     0    pspcod,pspxc,lmax,lloc,mmax,r2well
  5.99000000  0.00000000  0.00000000    rchrg fchrg qchrg
     2     2     2     0     0    nproj
     1     1           extension_switch
   0                         1.3165578272378D+00 -4.8980894077794D-02
     1  0.0000000000000D+00 -4.7295500849032D-14  3.1781521858676D-13
     2  1.0000000000000D-02  3.4515038189740D-02  1.3834012391447D-02
     3  2.0000000000000D-02  6.9001399800760D-02  2.7653953746798D-02
     4  3.0000000000000D-02  1.0343043594084D-01  4.1445767777390D-02
     5  4.0000000000000D-02  1.3777355306475D-01  5.5195427691515D-02
     6  5.0000000000000D-02  1.7200224058265D-01  6.8888950948067D-02
     7  6.0000000000000D-02  2.0608809839042D-01  8.2512414016137D-02
     8  7.0000000000000D-02  2.4000286429610D-01  9.6051967142170D-02
     9  8.0000000000000D-02  2.7371844131624D-01  1.0949384912597D-01
    10  9.0000000000000D-02  3.0720692481661D-01  1.2282440210639D-01
    11  1.0000000000000D-01  3.4044062947140D-01  1.3603008635715D-01
    12  1.1000000000000D-01  3.7339211601513D-01  1.4909749509252D-01
    13  1.2000000000000D-01  4.0603421776192D-01  1.6201336928218D-01
    14  1.3000000000000D-01  4.3834006686654D-01  1.7476461247360D-01
    15  1.4000000000000D-01  4.7028312030188D-01  1.8733830561988D-01
    16  1.5000000000000D-01  5.0183718552790D-01  1.9972172190972D-01
    17  1.6000000000000D-01  5.3297644582680D-01  2.1190234159566D-01
    18  1.7000000000000D-01  5.6367548527987D-01  2.2386786681566D-01
    19  1.8000000000000D-01  5.9390931336114D-01  2.3560623640199D-01
    20  1.9000000000000D-01  6.2365338912372D-01  2.4710564067063D-01
    21  2.0000000000000D-01  6.5288364495441D-01  2.5835453618285D-01
    22  2.1000000000000D-01  6.8157650987289D-01  2.6934166047015D-01
    23  2.2000000000000D-01  7.0970893235169D-01  2.8005604671188D-01
    24  2.3000000000000D-01  7.3725840263372D-01  2.9048703835429D-01
    25  2.4000000000000D-01  7.6420297452422D-01  3.0062430365823D-01
    26  2.5000000000000D-01  7.9052128663456D-01  3.1045785016155D-01
    27  2.6000000000000D-01  8.1619258305534D-01  3.1997803904113D-01
    28  2.7000000000000D-01  8.4119673343706D-01  3.2917559935826D-01
    29  2.8000000000000D-01  8.6551425245653D-01  3.3804164216956D-01
    30  2.9000000000000D-01  8.8912631864807D-01  3.4656767448510D-01
    31  3.0000000000000D-01  9.1201479257865D-01  3.5474561305330D-01
    32  3.1000000000000D-01  9.3416223434670D-01  3.6256779795188D-01
    33  3.2000000000000D-01  9.5555192038497D-01  3.7002700596237D-01
    34  3.3000000000000D-01  9.7616785954803D-01  3.7711646370487D-01
    35  3.4000000000000D-01  9.9599480846580D-01  3.8382986050878D-01
    36  3.5000000000000D-01  1.0150182861449D+00  3.9016136099385D-01
    37  3.6000000000000D-01  1.0332245878005D+00  3.9610561733536D-01
    38  3.7000000000000D-01  1.0506007979011D+00  4.0165778118608D-01
    39  3.8000000000000D-01  1.0671348024109D+00  4.0681351522673D-01
    40  3.9000000000000D-01  1.0828153002138D+00  4.1156900431639D-01
    41  4.0000000000000D-01  1.0976318137030D+00  4.1592096621296D-01
    42  4.1000000000000D-01  1.1115746985241D+00  4.1986666183370D-01
    43  4.2000000000000D-01  1.1246351524568D+00  4.2340390502504D-01
    44  4.3000000000000D-01  1.1368052234225D+00  4.2653107181058D-01
    45  4.4000000000000D-01  1.1480778166070D+00  4.2924710908586D-01
    46  4.5000000000000D-01  1.1584467006868D+00  4.3155154272807D-01
    47  4.6000000000000D-01  1.1679065131475D+00  4.3344448508908D-01
    48  4.7000000000000D-01  1.1764527646880D+00  4.3492664183972D-01
    49  4.8000000000000D-01  1.1840818426995D+00  4.3599931813378D-01
    50  4.9000000000000D-01  1.1907910138125D+00  4.3666442405992D-01
    51  5.0000000000000D-01  1.1965784255071D+00  4.3692447935054D-01
    52  5.1000000000000D-01  1.2014431067782D+00  4.3678261731651D-01
    53  5.2000000000000D-01  1.2053849678537D+00  4.3624258797774D-01
    54  5.3000000000000D-01  1.2084047989614D+00  4.3530876035992D-01
    55  5.4000000000000D-01  1.2105042681416D+00  4.3398612392856D-01
    56  5.5000000000000D-01  1.2116859181054D+00  4.3228028913265D-01
    57  5.6000000000000D-01  1.2119531621376D+00  4.3019748703103D-01
    58  5.7000000000000D-01  1.2113102790452D+00  4.2774456797575D-01
    59  5.8000000000000D-01  1.2097624071543D+00  4.2492899932821D-01
    60  5.9000000000000D-01  1.2073155373580D+00  4.2175886218490D-01
    61  6.0000000000000D-01  1.2039765052197D+00  4.1824284709151D-01
    62  6.1000000000000D-01  1.1997529821377D+00  4.1439024872549D-01
    63  6.2000000000000D-01  1.1946534655776D+00  4.1021095952906D-01
    64  6.3000000000000D-01  1.1886872683805D+00  4.0571546227636D-01
    65  6.4000000000000D-01  1.1818645071566D+00  4.0091482156078D-01
    66  6.5000000000000D-01  1.1741960897733D+00  3.9582067419011D-01
    67  6.6000000000000D-01  1.1656937019515D+00  3.9044521847959D-01
    68  6.7000000000000D-01  1.1563697929806D+00  3.8480120243519D-01
    69  6.8000000000000D-01  1.1462375605679D+00  3.7890191082189D-01
    70  6.9000000000000D-01  1.1353109348368D+00  3.7276115111391D-01
    71  7.0000000000000D-01  1.1236045614908D+00  3.6639323832648D-01
    72  7.1000000000000D-01  1.1111337841602D+00  3.5981297873166D-01
    73  7.2000000000000D-01  1.0979146259514D+00  3.5303565246270D-01
    74  7.3000000000000D-01  1.0839637702176D+00  3.4607699501485D-01
    75  7.4000000000000D-01  1.0692985405737D+00  3.3895317765291D-01
    76  7.5000000000000D-01  1.0539368801759D+00  3.3168078673844D-01
    77  7.6000000000000D-01  1.0378973302914D+00  3.2427680199314D-01
    78  7.7000000000000D-01  1.0211990081811D+00  3.1675857371682D-01
    79  7.8000000000000D-01  1.0038615843229D+00  3.0914379898217D-01
    80  7.9000000000000D-01  9.8590525900055D-01  3.0145049683060D-01
    81  8.0000000000000D-01  9.6735073828730D-01  2.9369698249726D-01
    82  8.1000000000000D-01  9.4821920945259D-01  2.8590184069541D-01
    83  8.2000000000000D-01  9.2853231582189D-01  2.7808389799366D-01
    84  8.3000000000000D-01  9.0831213112038D-01  2.7026219432246D-01
    85  8.4000000000000D-01  8.8758113333234D-01  2.6245595364882D-01
    86  8.5000000000000D-01  8.6636217810882D-01  2.5468455386133D-01
    87  8.6000000000000D-01  8.4467847175703D-01  2.4696749590996D-01
    88  8.7000000000000D-01  8.2255354384578D-01  2.3932437224823D-01
    89  8.8000000000000D-01  8.0001121946188D-01  2.3177483462745D-01
    90  8.9000000000000D-01  7.7707559115326D-01  2.2433856129571D-01
    91  9.0000000000000D-01  7.5377099059518D-01  2.1703522365653D-01
    92  9.1000000000000D-01  7.3012196001648D-01  2.0988445244451D-01
    93  9.2000000000000D-01  7.0615322342323D-01  2.0290580347729D-01
    94  9.3000000000000D-01  6.8188965765803D-01  1.9611872304598D-01
    95  9.4000000000000D-01  6.5735626333315D-01  1.8954251300741D-01
    96  9.5000000000000D-01  6.3257813567644D-01  1.8319629564374D-01
    97  9.6000000000000D-01  6.0758043532905D-01  1.7709897835728D-01
    98  9.7000000000000D-01  5.8238835913438D-01  1.7126921826892D-01
    99  9.8000000000000D-01  5.5702711095776D-01  1.6572538679091D-01
   100  9.9000000000000D-01  5.3152187257664D-01  1.6048553424570D-01
   101  1.0000000000000D+00  5.0589777468089D-01  1.5556735460365D-01
   102  1.0100000000000D+00  4.8017986802309D-01  1.5098815041348D-01
   103  1.0200000000000D+00  4.5439309475837D-01  1.4676479799999D-01
   104  1.0300000000000D+00  4.2856226001344D-01  1.4291371300463D-01
   105  1.0400000000000D+00  4.0271200372400D-01  1.3945081634416D-01
   106  1.0500000000000D+00  3.7686677277975D-01  1.3639150066361D-01
   107  1.0600000000000D+00  3.5105079351548D-01  1.3375059735952D-01
   108  1.0700000000000D+00  3.2528804458678D-01  1.3154234424914D-01
   109  1.0800000000000D+00  2.9960223026801D-01  1.2978035396125D-01
   110  1.0900000000000D+00  2.7401675420984D-01  1.2847758312338D-01
   111  1.1000000000000D+00  2.4855469369312D-01  1.2764630241987D-01
   112  1.1100000000000D+00  2.2323877441478D-01  1.2729806759376D-01
   113  1.1200000000000D+00  1.9809134584130D-01  1.2744369146489D-01
   114  1.1300000000000D+00  1.7313435716394D-01  1.2809321703482D-01
   115  1.1400000000000D+00  1.4838933388928D-01  1.2925589174805D-01
   116  1.1500000000000D+00  1.2387735509772D-01  1.3094014297662D-01
   117  1.1600000000000D+00  9.9619031401372D-02  1.3315355479398D-01
   118  1.1700000000000D+00  7.5634483632033D-02  1.3590284610156D-01
   119  1.1800000000000D+00  5.1943322288514D-02  1.3919385016910D-01
   120  1.1900000000000D+00  2.8564627771379D-02  1.4303149564700D-01
   121  1.2000000000000D+00  5.5169314323174D-03  1.4741978910715D-01
   122  1.2100000000000D+00 -1.7181802536307D-02  1.5236179916509D-01
   123  1.2200000000000D+00 -3.9514194347514D-02  1.5785964223330D-01
   124  1.2300000000000D+00 -6.1463464978410D-02  1.6391446995241D-01
   125  1.2400000000000D+00 -8.3013451619773D-02  1.7052645834461D-01
   126  1.2500000000000D+00 -1.0414862219688D-01  1.7769479872818D-01
   127  1.2600000000000D+00 -1.2485408894315D-01  1.8541769042944D-01
   128  1.2700000000000D+00 -1.4511562100905D-01  1.9369233532627D-01
   129  1.2800000000000D+00 -1.6491965609157D-01  2.0251493424998D-01
   130  1.2900000000000D+00 -1.8425331107075D-01  2.1188068527035D-01
   131  1.3000000000000D+00 -2.0310439164005D-01  2.2178378388644D-01
   132  1.3100000000000D+00 -2.2146140092150D-01  2.3221742513694D-01
   133  1.3200000000000D+00 -2.3931354705671D-01  2.4317380764262D-01
   134  1.3300000000000D+00 -2.5665074976563D-01  2.5464413959103D-01
   135  1.3400000000000D+00 -2.7346364586977D-01  2.6661864666276D-01
   136  1.3500000000000D+00 -2.8974359377501D-01  2.7908658190071D-01
   137  1.3600000000000D+00 -3.0548267691233D-01  2.9203623751747D-01
   138  1.3700000000000D+00 -3.2067370613808D-01  3.0545495862602D-01
   139  1.3800000000000D+00 -3.3531022109328D-01  3.1932915888525D-01
   140  1.3900000000000D+00 -3.4938649052727D-01  3.3364433803659D-01
   141  1.4000000000000D+00 -3.6289751159119D-01  3.4838510130739D-01
   142  1.4100000000000D+00 -3.7583900810623D-01  3.6353518065858D-01
   143  1.4200000000000D+00 -3.8820742781878D-01  3.7907745783503D-01
   144  1.4300000000000D+00 -3.9999993864987D-01  3.9499398918963D-01
   145  1.4400000000000D+00 -4.1121442395286D-01  4.1126603223516D-01
   146  1.4500000000000D+00 -4.2184947679385D-01  4.2787407387677D-01
   147  1.4600000000000D+00 -4.3190439326724D-01  4.4479786028247D-01
   148  1.4700000000000D+00 -4.4137916486859D-01  4.6201642832606D-01
   149  1.4800000000000D+00 -4.5027446993780D-01  4.7950813855744D-01
   150  1.4900000000000D+00 -4.5859166419765D-01  4.9725070962755D-01
   151  1.5000000000000D+00 -4.6633277040673D-01  5.1522125410888D-01
   152  1.5100000000000D+00 -4.7350046714999D-01  5.3339631564195D-01
   153  1.5200000000000D+00 -4.8009807679393D-01  5.5175190733029D-01
   154  1.5300000000000D+00 -4.8612955262760D-01  5.7026355131866D-01
   155  1.5400000000000D+00 -4.9159946522316D-01  5.8890631946150D-01
   156  1.5500000000000D+00 -4.9651298803675D-01  6.0765487501711D-01
   157  1.5600000000000D+00 -5.0087588228686D-01  6.2648351526701D-01
   158  1.5700000000000D+00 -5.0469448113433D-01  6.4536621498803D-01
   159  1.5800000000000D+00 -5.0797567320066D-01  6.6427667067826D-01
   160  1.5900000000000D+00 -5.1072688545402D-01  6.8318834545337D-01
   161  1.6000000000000D+00 -5.1295606549836D-01  7.0207451451688D-01
   162  1.6100000000000D+00 -5.1467166329939D-01  7.2090831111280D-01
   163  1.6200000000000D+00 -5.1588261238238D-01  7.3966277286506D-01
   164  1.6300000000000D+00 -5.1659831053857D-01  7.5831088840788D-01
   165  1.6400000000000D+00 -5.1682860007513D-01  7.7682564421055D-01
   166  1.6500000000000D+00 -5.1658374764754D-01  7.9518007150033D-01
   167  1.6600000000000D+00 -5.1587442370986D-01  8.1334729318405D-01
   168  1.6700000000000D+00 -5.1471168162243D-01  8.3130057067570D-01
   169  1.6800000000000D+00 -5.1310693645376D-01  8.4901335052631D-01
   170  1.6900000000000D+00 -5.1107194351570D-01  8.6645931076995D-01
   171  1.7000000000000D+00 -5.0861877667014D-01  8.8361240687736D-01
   172  1.7100000000000D+00 -5.0575980644504D-01  9.0044691724007D-01
   173  1.7200000000000D+00 -5.0250767799983D-01  9.1693748807181D-01
   174  1.7300000000000D+00 -4.9887528897589D-01  9.3305917766050D-01
   175  1.7400000000000D+00 -4.9487576727364D-01  9.4878749985444D-01
   176  1.7500000000000D+00 -4.9052244878989D-01  9.6409846672596D-01
   177  1.7600000000000D+00 -4.8582885515772D-01  9.7896863029686D-01
   178  1.7700000000000D+00 -4.8080867152064D-01  9.9337512327564D-01
   179  1.7800000000000D+00 -4.7547572438293D-01  1.0072956986980D+00
   180  1.7900000000000D+00 -4.6984395956703D-01  1.0207087684216D+00
   181  1.8000000000000D+00 -4.6392742031731D-01  1.0335934403831D+00
   182  1.8100000000000D+00 -4.5774022558255D-01  1.0459295545596D+00
   183  1.8200000000000D+00 -4.5129654851008D-01  1.0576977175730D+00
   184  1.8300000000000D+00 -4.4461059518929D-01  1.0688793358567D+00
   185  1.8400000000000D+00 -4.3769658366632D-01  1.0794566473707D+00
   186  1.8500000000000D+00 -4.3056872327750D-01  1.0894127517429D+00
   187  1.8600000000000D+00 -4.2324119430713D-01  1.0987316388933D+00
   188  1.8700000000000D+00 -4.1572812802995D-01  1.1073982159638D+00
   189  1.8800000000000D+00 -4.0804358712939D-01  1.1153983326693D+00
   190  1.8900000000000D+00 -4.0020154655528D-01  1.1227188048844D+00
   191  1.9000000000000D+00 -3.9221587481248D-01  1.1293474365734D+00
   192  1.9100000000000D+00 -3.8410031572992D-01  1.1352730399396D+00
   193  1.9200000000000D+00 -3.7586847071830D-01  1.1404854538326D+00
   194  1.9300000000000D+00 -3.6753378153695D-01  1.1449755604035D+00
   195  1.9400000000000D+00 -3.5910951360758D-01  1.1487352999344D+00
   196  1.9500000000000D+00 -3.5060873985587D-01  1.1517576839790D+00
   197  1.9600000000000D+00 -3.4204432515092D-01  1.1540368066234D+00
   198  1.9700000000000D+00 -3.3342891129725D-01  1.1555678540970D+00
   199  1.9800000000000D+00 -3.2477490264853D-01  1.1563471125514D+00
   200  1.9900000000000D+00 -3.1609445231567D-01  1.1563719741649D+00
   201  2.0000000000000D+00 -3.0739944899469D-01  1.1556409415513D+00
   202  2.0100000000000D+00 -2.9870150443887D-01  1.1541536304497D+00
   203  2.0200000000000D+00 -2.9001194153533D-01  1.1519107708917D+00
   204  2.0300000000000D+00 -2.8134178306327D-01  1.1489142066532D+00
   205  2.0400000000000D+00 -2.7270174106165D-01  1.1451668932872D+00
   206  2.0500000000000D+00 -2.6410220686881D-01  1.1406728945989D+00
   207  2.0600000000000D+00 -2.5555324180849D-01  1.1354373777051D+00
   208  2.0700000000000D+00 -2.4706456850830D-01  1.1294666067806D+00
   209  2.0800000000000D+00 -2.3864556289999D-01  1.1227679354067D+00
   210  2.0900000000000D+00 -2.3030524682476D-01  1.1153497978053D+00
   211  2.1000000000000D+00 -2.2205228131151D-01  1.1072216988300D+00
   212  2.1100000000000D+00 -2.1389496047509D-01  1.0983942029202D+00
   213  2.1200000000000D+00 -2.0584120603056D-01  1.0888789220917D+00
   214  2.1300000000000D+00 -1.9789856245578D-01  1.0786885029467D+00
   215  2.1400000000000D+00 -1.9007419272251D-01  1.0678366129593D+00
   216  2.1500000000000D+00 -1.8237487465583D-01  1.0563379259677D+00
   217  2.1600000000000D+00 -1.7480699786550D-01  1.0442081070620D+00
   218  2.1700000000000D+00 -1.6737656123244D-01  1.0314637969712D+00
   219  2.1800000000000D+00 -1.6008917098261D-01  1.0181225959610D+00
   220  2.1900000000000D+00 -1.5295003926523D-01  1.0042030474589D+00
   221  2.2000000000000D+00 -1.4596398327353D-01  9.8972462142554D-01
   222  2.2100000000000D+00 -1.3913542487211D-01  9.7470769760593D-01
   223  2.2200000000000D+00 -1.3246839068311D-01  9.5917354878449D-01
   224  2.2300000000000D+00 -1.2596651267372D-01  9.4314432411533D-01
   225  2.2400000000000D+00 -1.1963302916314D-01  9.2664303265792D-01
   226  2.2500000000000D+00 -1.1347078625746D-01  9.0969352721850D-01
   227  2.2600000000000D+00 -1.0748223970027D-01  8.9232048861928D-01
   228  2.2700000000000D+00 -1.0166945708335D-01  8.7454941045078D-01
   229  2.2800000000000D+00 -9.6034120428566D-02  8.5640658448972D-01
   230  2.2900000000000D+00 -9.0577529101853D-02  8.3791908684867D-01
   231  2.3000000000000D+00 -8.5300603027574D-02  8.1911476488127D-01
   232  2.3100000000000D+00 -8.0203885976180D-02  8.0002222866400D-01
   233  2.3200000000000D+00 -7.5287549691834D-02  7.8067083430713D-01
   234  2.3300000000000D+00 -7.0551399018982D-02  7.6109065654181D-01
   235  2.3400000000000D+00 -6.5994870185572D-02  7.4131256882095D-01
   236  2.3500000000000D+00 -6.1617045958965D-02  7.2136807979132D-01
   237  2.3600000000000D+00 -5.7416657807294D-02  7.0128936190366D-01
   238  2.3700000000000D+00 -5.3392088279025D-02  6.8110925861889D-01
   239  2.3800000000000D+00 -4.9541343763706D-02  6.6086181745325D-01
   240  2.3900000000000D+00 -4.5862097170948D-02  6.4058167736937D-01
   241  2.4000000000000D+00 -4.2351727046195D-02  6.2030356886923D-01
   242  2.4100000000000D+00 -3.9007341150436D-02  6.0006192657712D-01
   243  2.4200000000000D+00 -3.5825818057191D-02  5.7989050229052D-01
   244  2.4300000000000D+00 -3.2803828488997D-02  5.5982219887596D-01
   245  2.4400000000000D+00 -2.9937927437301D-02  5.3988783062652D-01
   246  2.4500000000000D+00 -2.7224513952529D-02  5.2011695032267D-01
   247  2.4600000000000D+00 -2.4659861618464D-02  5.0053758276508D-01
   248  2.4700000000000D+00 -2.2240111203033D-02  4.8117660836461D-01
   249  2.4800000000000D+00 -1.9961304364350D-02  4.6205938530672D-01
   250  2.4900000000000D+00 -1.7819391441419D-02  4.4320984524851D-01
   251  2.5000000000000D+00 -1.5810241777325D-02  4.2465053495138D-01
   252  2.5100000000000D+00 -1.3929658734089D-02  4.0640257402064D-01
   253  2.5200000000000D+00 -1.2173391168358D-02  3.8848566900095D-01
   254  2.5300000000000D+00 -1.0537145238964D-02  3.7091811799735D-01
   255  2.5400000000000D+00 -9.0165957339120D-03  3.5371681795163D-01
   256  2.5500000000000D+00 -7.6073970591863D-03  3.3689727380086D-01
   257  2.5600000000000D+00 -6.3051938499876D-03  3.2047360966741D-01
   258  2.5700000000000D+00 -5.1056310657391D-03  3.0445858271338D-01
   259  2.5800000000000D+00 -4.0043637250972D-03  2.8886359883226D-01
   260  2.5900000000000D+00 -2.9970662558758D-03  2.7369873025510D-01
   261  2.6000000000000D+00 -2.0794412977021D-03  2.5897273580462D-01
   262  2.6100000000000D+00 -1.2472281304252D-03  2.4469308290393D-01
   263  2.6200000000000D+00 -4.9621072803652D-04  2.3086597129920D-01
   264  2.6300000000000D+00  1.7777476273486D-04  2.1749635939351D-01
   265  2.6400000000000D+00  7.7883291598227D-04  2.0458799217522D-01
   266  2.6500000000000D+00  1.3110022897329D-03  1.9214343069108D-01
   267  2.6600000000000D+00  1.7782492586466D-03  1.8016408392805D-01
   268  2.6700000000000D+00  2.1844622212831D-03  1.6865024215319D-01
   269  2.6800000000000D+00  2.5334461766282D-03  1.5760111165030D-01
   270  2.6900000000000D+00  2.8289178221077D-03  1.4701485147004D-01
   271  2.7000000000000D+00  3.0745010460558D-03  1.3688861157750D-01
   272  2.7100000000000D+00  3.2737227764464D-03  1.2721857218929D-01
   273  2.7200000000000D+00  3.4300092848264D-03  1.1799998466097D-01
   274  2.7300000000000D+00  3.5466829039885D-03  1.0922721369402D-01
   275  2.7400000000000D+00  3.6269590828623D-03  1.0089378049739D-01
   276  2.7500000000000D+00  3.6739438182796D-03  9.2992407009869D-02
   277  2.7600000000000D+00  3.6906315132357D-03  8.5515061310659D-02
   278  2.7700000000000D+00  3.6799031471944D-03  7.8453003720049D-02
   279  2.7800000000000D+00  3.6445247444959D-03  7.1796833514032D-02
   280  2.7900000000000D+00  3.5871462691296D-03  6.5536536596915D-02
   281  2.8000000000000D+00  3.5103007825296D-03  5.9661533528633D-02
   282  2.8100000000000D+00  3.4164038779070D-03  5.4160727935927D-02
   283  2.8200000000000D+00  3.3077534555316D-03  4.9022555352427D-02
   284  2.8300000000000D+00  3.1865297565704D-03  4.4235032222127D-02
   285  2.8400000000000D+00  3.0547956406691D-03  3.9785804990653D-02
   286  2.8500000000000D+00  2.9144971131155D-03  3.5662199180968D-02
   287  2.8600000000000D+00  2.7674640991648D-03  3.1851268324622D-02
   288  2.8700000000000D+00  2.6154114161122D-03  2.8339842629096D-02
   289  2.8800000000000D+00  2.4599399406629D-03  2.5114577455706D-02
   290  2.8900000000000D+00  2.3025379689333D-03  2.2162001053531D-02
   291  2.9000000000000D+00  2.1445827333721D-03  1.9468561843238D-02
   292  2.9100000000000D+00  1.9873420832103D-03  1.7020675174248D-02
   293  2.9200000000000D+00  1.8319762874850D-03  1.4804769091750D-02
   294  2.9300000000000D+00  1.6795399535930D-03  1.2807329156669D-02
   295  2.9400000000000D+00  1.5309840533118D-03  1.1014942349193D-02
   296  2.9500000000000D+00  1.3871580731218D-03  9.4143402333783D-03
   297  2.9600000000000D+00  1.2488121662677D-03  7.9924401849395D-03
   298  2.9700000000000D+00  1.1165993985008D-03  6.7363857105798D-03
   299  2.9800000000000D+00  9.9107807694156D-04  5.6335857083686D-03
   300  2.9900000000000D+00  8.7271405704577D-04  4.6717518053304D-03
   301  3.0000000000000D+00  7.6188305892528D-04  3.8389340793626D-03
   302  3.0100000000000D+00  6.5887299472807D-04  3.1235552281663D-03
   303  3.0200000000000D+00  5.6388638979339D-04  2.5144438428147D-03
   304  3.0300000000000D+00  4.7704259498110D-04  2.0008644066651D-03
   305  3.0400000000000D+00  3.9838006753809D-04  1.5725462599281D-03
   306  3.0500000000000D+00  3.2785864027688D-04  1.2197108854648D-03
   307  3.0600000000000D+00  2.6536170926805D-04  9.3309701920044D-04
   308  3.0700000000000D+00  2.1069827971587D-04  7.0398314958210D-04
   309  3.0800000000000D+00  1.6359601081620D-04  5.2429861313053D-04
   310  3.0900000000000D+00  1.2373303483130D-04  3.8634375244284D-04
   311  3.1000000000000D+00  9.0714070404320D-05  2.8306400799057D-04
   312  3.1100000000000D+00  6.4066067184987D-05  2.0799135910473D-04
   313  3.1200000000000D+00  4.3226347935046D-05  1.5491125107226D-04
   314  3.1300000000000D+00  2.7633389423933D-05  1.1989416110621D-04
   315  3.1400000000000D+00  1.6624435372263D-05  9.8823169124233D-05
   316  3.1500000000000D+00  9.5648646209863D-06  8.8858566730600D-05
   317  3.1600000000000D+00  5.6620158082797D-06  8.6296669677455D-05
   318  3.1700000000000D+00  3.8012092448594D-06  8.4633351524989D-05
   319  3.1800000000000D+00  3.0845470775172D-06  7.9769128927762D-05
   320  3.1900000000000D+00  2.4940430744132D-06  6.6108501657048D-05
   321  3.2000000000000D+00  1.7378868462905D-06  4.5458593693457D-05
   322  3.2100000000000D+00  9.2626394593359D-07  2.3210880961526D-05
   323  3.2200000000000D+00  1.4604776794699D-07  3.4748669032226D-06
   324  3.2300000000000D+00 -1.9248079476534D-07 -6.0782873620879D-06
   325  3.2400000000000D+00 -2.5492056266296D-07 -8.0624976494019D-06
   326  3.2500000000000D+00 -1.6906302829853D-07 -5.3336464980047D-06
   327  3.2600000000000D+00 -1.2638904622610D-08 -3.9678862576075D-07
   328  3.2700000000000D+00  3.5001418124475D-08  1.3547696573009D-06
   329  3.2800000000000D+00  4.4997699648430D-08  1.7745417960485D-06
   330  3.2900000000000D+00  2.9208661892620D-08  1.1710639101442D-06
   331  3.3000000000000D+00 -7.7553276180932D-11 -2.0099133059769D-09
   332  3.3100000000000D+00 -6.4740543671530D-09 -1.6778514921538D-07
   333  3.3200000000000D+00 -8.2991273136922D-09 -2.1508474222122D-07
   334  3.3300000000000D+00 -5.4297801020766D-09 -1.4072116373564D-07
   335  3.3400000000000D+00  0.0000000000000D+00  0.0000000000000D+00
   336  3.3500000000000D+00  0.0000000000000D+00  0.0000000000000D+00
   337  3.3600000000000D+00  0.0000000000000D+00  0.0000000000000D+00
   338  3.3700000000000D+00  0.0000000000000D+00  0.0000000000000D+00
   339  3.3800000000000D+00  0.0000000000000D+00  0.0000000000000D+00
   340  3.3900000000000D+00  0.0000000000000D+00  0.0000000000000D+00
   341  3.4000000000000D+00  0.0000000000000D+00  0.0000000000000D+00
   342  3.4100000000000D+00  0.0000000000000D+00  0.0000000000000D+00
   343  3.4200000000000D+00  0.0000000000000D+00  0.0000000000000D+00
   344  3.4300000000000D+00  0.0000000000000D+00  0.0000000000000D+00
   345  3.4400000000000D+00  0.0000000000000D+00  0.0000000000000D+00
   346  3.4500000000000D+00  0.0000000000000D+00  0.0000000000000D+00
   347  3.4600000000000D+00  0.0000000000000D+00  0.0000000000000D+00
   348  3.4700000000000D+00  0.0000000000000D+00  0.0000000000000D+00
   349  3.4800000000000D+00  0.0000000000000D+00  0.0000000000000D+00
   350  3.4900000000000D+00  0.0000000000000D+00  0.0000000000000D+00
   351  3.5000000000000D+00  0.0000000000000D+00  0.0000000000000D+00
   352  3.5100000000000D+00  0.0000000000000D+00  0.0000000000000D+00
   353  3.5200000000000D+00  0.0000000000000D+00  0.0000000000000D+00
   354  3.5300000000000D+00  0.0000000000000D+00  0.0000000000000D+00
   355  3.5400000000000D+00  0.0000000000000D+00  0.0000000000000D+00
   356  3.5500000000000D+00  0.0000000000000D+00  0.0000000000000D+00
   357  3.5600000000000D+00  0.0000000000000D+00  0.0000000000000D+00
   358  3.5700000000000D+00  0.0000000000000D+00  0.0000000000000D+00
   359  3.5800000000000D+00  0.0000000000000D+00  0.0000000000000D+00
   360  3.5900000000000D+00  0.0000000000000D+00  0.0000000000000D+00
   361  3.6000000000000D+00  0.0000000000000D+00  0.0000000000000D+00
   362  3.6100000000000D+00  0.0000000000000D+00  0.0000000000000D+00
   363  3.6200000000000D+00  0.0000000000000D+00  0.0000000000000D+00
   364  3.6300000000000D+00  0.0000000000000D+00  0.0000000000000D+00
   365  3.6400000000000D+00  0.0000000000000D+00  0.0000000000000D+00
   366  3.6500000000000D+00  0.0000000000000D+00  0.0000000000000D+00
   367  3.6600000000000D+00  0.0000000000000D+00  0.0000000000000D+00
   368  3.6700000000000D+00  0.0000000000000D+00  0.0000000000000D+00
   369  3.6800000000000D+00  0.0000000000000D+00  0.0000000000000D+00
   370  3.6900000000000D+00  0.0000000000000D+00  0.0000000000000D+00
   371  3.7000000000000D+00  0.0000000000000D+00  0.0000000000000D+00
   372  3.7100000000000D+00  0.0000000000000D+00  0.0000000000000D+00
   373  3.7200000000000D+00  0.0000000000000D+00  0.0000000000000D+00
   374  3.7300000000000D+00  0.0000000000000D+00  0.0000000000000D+00
   375  3.7400000000000D+00  0.0000000000000D+00  0.0000000000000D+00
   376  3.7500000000000D+00  0.0000000000000D+00  0.0000000000000D+00
   377  3.7600000000000D+00  0.0000000000000D+00  0.0000000000000D+00
   378  3.7700000000000D+00  0.0000000000000D+00  0.0000000000000D+00
   379  3.7800000000000D+00  0.0000000000000D+00  0.0000000000000D+00
   380  3.7900000000000D+00  0.0000000000000D+00  0.0000000000000D+00
   381  3.8000000000000D+00  0.0000000000000D+00  0.0000000000000D+00
   382  3.8100000000000D+00  0.0000000000000D+00  0.0000000000000D+00
   383  3.8200000000000D+00  0.0000000000000D+00  0.0000000000000D+00
   384  3.8300000000000D+00  0.0000000000000D+00  0.0000000000000D+00
   385  3.8400000000000D+00  0.0000000000000D+00  0.0000000000000D+00
   386  3.8500000000000D+00  0.0000000000000D+00  0.0000000000000D+00
   387  3.8600000000000D+00  0.0000000000000D+00  0.0000000000000D+00
   388  3.8700000000000D+00  0.0000000000000D+00  0.0000000000000D+00
   389  3.8800000000000D+00  0.0000000000000D+00  0.0000000000000D+00
   390  3.8900000000000D+00  0.0000000000000D+00  0.0000000000000D+00
   391  3.9000000000000D+00  0.0000000000000D+00  0.0000000000000D+00
   392  3.9100000000000D+00  0.0000000000000D+00  0.0000000000000D+00
   393  3.9200000000000D+00  0.0000000000000D+00  0.0000000000000D+00
   394  3.9300000000000D+00  0.0000000000000D+00  0.0000000000000D+00
   395  3.9400000000000D+00  0.0000000000000D+00  0.0000000000000D+00
   396  3.9500000000000D+00  0.0000000000000D+00  0.0000000000000D+00
   397  3.9600000000000D+00  0.0000000000000D+00  0.0000000000000D+00
   398  3.9700000000000D+00  0.0000000000000D+00  0.0000000000000D+00
   399  3.9800000000000D+00  0.0000000000000D+00  0.0000000000000D+00
   400  3.9900000000000D+00  0.0000000000000D+00  0.0000000000000D+00
   401  4.0000000000000D+00  0.0000000000000D+00  0.0000000000000D+00
   402  4.0100000000000D+00  0.0000000000000D+00  0.0000000000000D+00
   403  4.0200000000000D+00  0.0000000000000D+00  0.0000000000000D+00
   404  4.0300000000000D+00  0.0000000000000D+00  0.0000000000000D+00
   405  4.0400000000000D+00  0.0000000000000D+00  0.0000000000000D+00
   406  4.0500000000000D+00  0.0000000000000D+00  0.0000000000000D+00
   407  4.0600000000000D+00  0.0000000000000D+00  0.0000000000000D+00
   408  4.0700000000000D+00  0.0000000000000D+00  0.0000000000000D+00
   409  4.0800000000000D+00  0.0000000000000D+00  0.0000000000000D+00
   410  4.0900000000000D+00  0.0000000000000D+00  0.0000000000000D+00
   411  4.1000000000000D+00  0.0000000000000D+00  0.0000000000000D+00
   412  4.1100000000000D+00  0.0000000000000D+00  0.0000000000000D+00
   413  4.1200000000000D+00  0.0000000000000D+00  0.0000000000000D+00
   414  4.1300000000000D+00  0.0000000000000D+00  0.0000000000000D+00
   415  4.1400000000000D+00  0.0000000000000D+00  0.0000000000000D+00
   416  4.1500000000000D+00  0.0000000000000D+00  0.0000000000000D+00
   417  4.1600000000000D+00  0.0000000000000D+00  0.0000000000000D+00
   418  4.1700000000000D+00  0.0000000000000D+00  0.0000000000000D+00
   419  4.1800000000000D+00  0.0000000000000D+00  0.0000000000000D+00
   420  4.1900000000000D+00  0.0000000000000D+00  0.0000000000000D+00
   421  4.2000000000000D+00  0.0000000000000D+00  0.0000000000000D+00
   422  4.2100000000000D+00  0.0000000000000D+00  0.0000000000000D+00