Re    ONCVPSP-3.3.1  r_core=   1.99393   2.09138   1.81245   2.65487
     75.0000     15.0000      210904    zatom,zion,pspd
     8       2   3     4   600     0    pspcod,pspxc,lmax,lloc,mmax,r2well
  5.99000000  0.00000000  0.00000000    rchrg fchrg qchrg
     2     3     3     4    nproj
     3     1           extension_switch
     4     3     4    nprojso
   0                         2.0163820831953D+00  1.2185143362992D+01
     1  0.0000000000000D+00 -1.0894243840376D-10  4.8002712915718D-11
     2  1.0000000000000D-02 -1.0558002558306D-02  5.1975102217994D-02
     3  2.0000000000000D-02 -2.1121545226927D-02  1.0390277469925D-01
     4  3.0000000000000D-02 -3.1695711590059D-02  1.5573545563233D-01
     5  4.0000000000000D-02 -4.2284676337595D-02  2.0742532076731D-01
     6  5.0000000000000D-02 -5.2891261185241D-02  2.5892415646147D-01
     7  6.0000000000000D-02 -6.3516503158319D-02  3.1018323780906D-01
     8  7.0000000000000D-02 -7.4159239232449D-02  3.6115321349318D-01
     9  8.0000000000000D-02 -8.4815711215372D-02  4.1178399895010D-01
    10  9.0000000000000D-02 -9.5479194618936D-02  4.6202467937649D-01
    11  1.0000000000000D-01 -1.0613965510943D-01  5.1182342403971D-01
    12  1.1000000000000D-01 -1.1678343593874D-01  5.6112741326960D-01
    13  1.2000000000000D-01 -1.2739297954921D-01  6.0988277941829D-01
    14  1.3000000000000D-01 -1.3794658631255D-01  6.5803456297322D-01
    15  1.4000000000000D-01 -1.4841821310879D-01  7.0552668489735D-01
    16  1.5000000000000D-01 -1.5877731417671D-01  7.5230193615131D-01
    17  1.6000000000000D-01 -1.6898872637322D-01  7.9830198522451D-01
    18  1.7000000000000D-01 -1.7901260066805D-01  8.4346740436784D-01
    19  1.8000000000000D-01 -1.8880438137311D-01  8.8773771507942D-01
    20  1.9000000000000D-01 -1.9831483426437D-01  9.3105145324840D-01
    21  2.0000000000000D-01 -2.0749012440125D-01  9.7334625421028D-01
    22  2.1000000000000D-01 -2.1627194408474D-01  1.0145589578124D+00
    23  2.2000000000000D-01 -2.2459769102411D-01  1.0546257334302D+00
    24  2.3000000000000D-01 -2.3240069640435D-01  1.0934822247158D+00
    25  2.4000000000000D-01 -2.3961050216609D-01  1.1310637136980D+00
    26  2.5000000000000D-01 -2.4615318642680D-01  1.1673053036961D+00
    27  2.6000000000000D-01 -2.5195173559179D-01  1.2021421203465D+00
    28  2.7000000000000D-01 -2.5692646132562D-01  1.2355095298890D+00
    29  2.8000000000000D-01 -2.6099546018402D-01  1.2673433737016D+00
    30  2.9000000000000D-01 -2.6407511334365D-01  1.2975802179292D+00
    31  3.0000000000000D-01 -2.6608062351650D-01  1.3261576169035D+00
    32  3.1000000000000D-01 -2.6692658579858D-01  1.3530143889184D+00
    33  3.2000000000000D-01 -2.6652758888191D-01  1.3780909027935D+00
    34  3.3000000000000D-01 -2.6479884275785D-01  1.4013293735410D+00
    35  3.4000000000000D-01 -2.6165682875910D-01  1.4226741653363D+00
    36  3.5000000000000D-01 -2.5701996753224D-01  1.4420720998973D+00
    37  3.6000000000000D-01 -2.5080930030224D-01  1.4594727682839D+00
    38  3.7000000000000D-01 -2.4294917858903D-01  1.4748288440552D+00
    39  3.8000000000000D-01 -2.3336795736485D-01  1.4880963956579D+00
    40  3.9000000000000D-01 -2.2199868650240D-01  1.4992351958669D+00
    41  4.0000000000000D-01 -2.0877979525853D-01  1.5082090260668D+00
    42  4.1000000000000D-01 -1.9365576446958D-01  1.5149859731379D+00
    43  4.2000000000000D-01 -1.7657778110122D-01  1.5195387167072D+00
    44  4.3000000000000D-01 -1.5750436980212D-01  1.5218448045318D+00
    45  4.4000000000000D-01 -1.3640199615441D-01  1.5218869138093D+00
    46  4.5000000000000D-01 -1.1324563639825D-01  1.5196530962492D+00
    47  4.6000000000000D-01 -8.8019308531290D-02  1.5151370047973D+00
    48  4.7000000000000D-01 -6.0716559847117D-02  1.5083380999750D+00
    49  4.8000000000000D-01 -3.1340906179796D-02  1.4992618338892D+00
    50  4.9000000000000D-01  9.3781636382397D-05  1.4879198100642D+00
    51  5.0000000000000D-01  3.3562948303243D-02  1.4743299173725D+00
    52  5.1000000000000D-01  6.9031085485062D-02  1.4585164364696D+00
    53  5.2000000000000D-01  1.0645152766683D-01  1.4405101172852D+00
    54  5.3000000000000D-01  1.4576631560039D-01  1.4203482262838D+00
    55  5.4000000000000D-01  1.8690613007687D-01  1.3980745623751D+00
    56  5.5000000000000D-01  2.2979029831724D-01  1.3737394405429D+00
    57  5.6000000000000D-01  2.7432687480026D-01  1.3473996424450D+00
    58  5.7000000000000D-01  3.2041279784954D-01  1.3191183334462D+00
    59  5.8000000000000D-01  3.6793412278658D-01  1.2889649457476D+00
    60  5.9000000000000D-01  4.1676633192033D-01  1.2570150274943D+00
    61  6.0000000000000D-01  4.6677472110034D-01  1.2233500579611D+00
    62  6.1000000000000D-01  5.1781486200096D-01  1.1880572291390D+00
    63  6.2000000000000D-01  5.6973313874568D-01  1.1512291942690D+00
    64  6.3000000000000D-01  6.2236735691556D-01  1.1129637840951D+00
    65  6.4000000000000D-01  6.7554742242684D-01  1.0733636918310D+00
    66  6.5000000000000D-01  7.2909608721109D-01  1.0325361280559D+00
    67  6.6000000000000D-01  7.8282975808846D-01  9.9059244696906D-01
    68  6.7000000000000D-01  8.3655936470033D-01  9.4764774564499D-01
    69  6.8000000000000D-01  8.9009128186386D-01  9.0382043812964D-01
    70  6.9000000000000D-01  9.4322830122774D-01  8.5923180641316D-01
    71  7.0000000000000D-01  9.9577064665788D-01  8.1400553049527D-01
    72  7.1000000000000D-01  1.0475170273610D+00  7.6826719992910D-01
    73  7.2000000000000D-01  1.0982657223704D+00  7.2214380938497D-01
    74  7.3000000000000D-01  1.1478156896727D+00  6.7576324091768D-01
    75  7.4000000000000D-01  1.1959676929530D+00  6.2925373574471D-01
    76  7.5000000000000D-01  1.2425254386791D+00  5.8274335845191D-01
    77  7.6000000000000D-01  1.2872967160373D+00  5.3635945663225D-01
    78  7.7000000000000D-01  1.3300945320747D+00  4.9022811903491D-01
    79  7.8000000000000D-01  1.3707382342978D+00  4.4447363535311D-01
    80  7.9000000000000D-01  1.4090546129232D+00  3.9921796081054D-01
    81  8.0000000000000D-01  1.4448789749836D+00  3.5458018871706D-01
    82  8.1000000000000D-01  1.4780561825462D+00  3.1067603415423D-01
    83  8.2000000000000D-01  1.5084416474176D+00  2.6761733192045D-01
    84  8.3000000000000D-01  1.5359022748787D+00  2.2551155181371D-01
    85  8.4000000000000D-01  1.5603173492143D+00  1.8446133425768D-01
    86  8.5000000000000D-01  1.5815793540831D+00  1.4456404918436D-01
    87  8.6000000000000D-01  1.5995947210987D+00  1.0591138097438D-01
    88  8.7000000000000D-01  1.6142845003740D+00  6.8588942124938D-02
    89  8.8000000000000D-01  1.6255849472035D+00  3.2675918166161D-02
    90  8.9000000000000D-01  1.6334480195291D+00 -1.7552538195344D-03
    91  9.0000000000000D-01  1.6378417813437D+00 -3.4639170902767D-02
    92  9.1000000000000D-01  1.6387507077346D+00 -6.5917712261686D-02
    93  9.2000000000000D-01  1.6361758878452D+00 -9.5540247620297D-02
    94  9.3000000000000D-01  1.6301351226460D+00 -1.2346380462714D-01
    95  9.4000000000000D-01  1.6206629150306D+00 -1.4965319386275D-01
    96  9.5000000000000D-01  1.6078103504114D+00 -1.7408109040555D-01
    97  9.6000000000000D-01  1.5916448666465D+00 -1.9672807113263D-01
    98  9.7000000000000D-01  1.5722499128015D+00 -2.1758260718218D-01
    99  9.8000000000000D-01  1.5497244969350D+00 -2.3664101126375D-01
   100  9.9000000000000D-01  1.5241826237615D+00 -2.5390733975507D-01
   101  1.0000000000000D+00  1.4957526237150D+00 -2.6939324978146D-01
   102  1.0100000000000D+00  1.4645763755927D+00 -2.8311781172657D-01
   103  1.0200000000000D+00  1.4308084255895D+00 -2.9510727787134D-01
   104  1.0300000000000D+00  1.3946150061625D+00 -3.0539480810518D-01
   105  1.0400000000000D+00  1.3561729587119D+00 -3.1402015387316D-01
   106  1.0500000000000D+00  1.3156685646710D+00 -3.2102930176797D-01
   107  1.0600000000000D+00  1.2732962900736D+00 -3.2647407837302D-01
   108  1.0700000000000D+00  1.2292574491554D+00 -3.3041171816816D-01
   109  1.0800000000000D+00  1.1837587929939D+00 -3.3290439650191D-01
   110  1.0900000000000D+00  1.1370110295267D+00 -3.3401872978544D-01
   111  1.1000000000000D+00  1.0892272816826D+00 -3.3382524524156D-01
   112  1.1100000000000D+00  1.0406214905980D+00 -3.3239782266166D-01
   113  1.1200000000000D+00  9.9140677113169D-01 -3.2981311074797D-01
   114  1.1300000000000D+00  9.4179372704886D-01 -3.2614992071062D-01
   115  1.1400000000000D+00  8.9198873337155D-01 -3.2148859987203D-01
   116  1.1500000000000D+00  8.4219219344421D-01 -3.1591038809266D-01
   117  1.1600000000000D+00  7.9259677824466D-01 -3.0949675986253D-01
   118  1.1700000000000D+00  7.4338565136580D-01 -3.0232875418297D-01
   119  1.1800000000000D+00  6.9473071312711D-01 -2.9448629982937D-01
   120  1.1900000000000D+00  6.4679077505944D-01 -2.8604752116617D-01
   121  1.2000000000000D+00  5.9971009869393D-01 -2.7708810710831D-01
   122  1.2100000000000D+00  5.5361560028871D-01 -2.6768042980795D-01
   123  1.2200000000000D+00  5.0861816878921D-01 -2.5789341107638D-01
   124  1.2300000000000D+00  4.6481659532973D-01 -2.4779291040473D-01
   125  1.2400000000000D+00  4.2230211434341D-01 -2.3744237928576D-01
   126  1.2500000000000D+00  3.8115898384578D-01 -2.2690284595493D-01
   127  1.2600000000000D+00  3.4146352587011D-01 -2.1623265444249D-01
   128  1.2700000000000D+00  3.0328414219281D-01 -2.0548737044483D-01
   129  1.2800000000000D+00  2.6668108811149D-01 -1.9471965743420D-01
   130  1.2900000000000D+00  2.3170635195916D-01 -1.8397917863259D-01
   131  1.3000000000000D+00  1.9840357444201D-01 -1.7331251436618D-01
   132  1.3100000000000D+00  1.6680802206559D-01 -1.6276309734882D-01
   133  1.3200000000000D+00  1.3694661093210D-01 -1.5237116529025D-01
   134  1.3300000000000D+00  1.0883797992874D-01 -1.4217373070351D-01
   135  1.3400000000000D+00  8.2492611714692D-02 -1.3220456759171D-01
   136  1.3500000000000D+00  5.7912999573789D-02 -1.2249421456935D-01
   137  1.3600000000000D+00  3.5093858417213D-02 -1.1306999404813D-01
   138  1.3700000000000D+00  1.4022377374159D-02 -1.0395604683263D-01
   139  1.3800000000000D+00 -5.3214885041710D-03 -9.5173381493759D-02
   140  1.3900000000000D+00 -2.2964689975230D-02 -8.6739937869719D-02
   141  1.4000000000000D+00 -3.8940721998976D-02 -7.8670663796606D-02
   142  1.4100000000000D+00 -5.3289231615078D-02 -7.0977604316801D-02
   143  1.4200000000000D+00 -6.6055598701958D-02 -6.3670002409385D-02
   144  1.4300000000000D+00 -7.7290492997140D-02 -5.6754410273158D-02
   145  1.4400000000000D+00 -8.7049410694530D-02 -5.0234810236732D-02
   146  1.4500000000000D+00 -9.5392194346469D-02 -4.4112744179371D-02
   147  1.4600000000000D+00 -1.0238253951730D-01 -3.8387450478133D-02
   148  1.4700000000000D+00 -1.0808749191466D-01 -3.3056007357678D-02
   149  1.4800000000000D+00 -1.1257693849540D-01 -2.8113481588956D-02
   150  1.4900000000000D+00 -1.1592309629245D-01 -2.3553081421081D-02
   151  1.5000000000000D+00 -1.1820009051294D-01 -1.9366289294764D-02
   152  1.5100000000000D+00 -1.1948320918108D-01 -1.5543083641358D-02
   153  1.5200000000000D+00 -1.1984706324464D-01 -1.2072453277067D-02
   154  1.5300000000000D+00 -1.1937097882563D-01 -8.9410009566340D-03
   155  1.5400000000000D+00 -1.1813810494147D-01 -6.1332160595314D-03
   156  1.5500000000000D+00 -1.1620592814910D-01 -3.6392980717350D-03
   157  1.5600000000000D+00 -1.1361939473932D-01 -1.4517381315138D-03
   158  1.5700000000000D+00 -1.1046808913233D-01  4.4969425561329D-04
   159  1.5800000000000D+00 -1.0685755590506D-01  2.0903818965283D-03
   160  1.5900000000000D+00 -1.0285512636482D-01  3.4866044703884D-03
   161  1.6000000000000D+00 -9.8517090345589D-02  4.6526075816226D-03
   162  1.6100000000000D+00 -9.3909194079925D-02  5.6059111145078D-03
   163  1.6200000000000D+00 -8.9093866164613D-02  6.3639182562481D-03
   164  1.6300000000000D+00 -8.4128174663592D-02  6.9433319213937D-03
   165  1.6400000000000D+00 -7.9066038783240D-02  7.3606812817199D-03
   166  1.6500000000000D+00 -7.3957787658613D-02  7.6321551455849D-03
   167  1.6600000000000D+00 -6.8849881060830D-02  7.7734768571355D-03
   168  1.6700000000000D+00 -6.3784839524567D-02  7.7998339826012D-03
   169  1.6800000000000D+00 -5.8801178732458D-02  7.7258091462403D-03
   170  1.6900000000000D+00 -5.3933376423194D-02  7.5653195745727D-03
   171  1.7000000000000D+00 -4.9211873022571D-02  7.3315658795358D-03
   172  1.7100000000000D+00 -4.4663102867786D-02  7.0369893757207D-03
   173  1.7200000000000D+00 -4.0309556808385D-02  6.6932383519286D-03
   174  1.7300000000000D+00 -3.6169872550223D-02  6.3111424325351D-03
   175  1.7400000000000D+00 -3.2258953194096D-02  5.9006953659454D-03
   176  1.7500000000000D+00 -2.8588109818202D-02  5.4710452031742D-03
   177  1.7600000000000D+00 -2.5165228299777D-02  5.0304921490735D-03
   178  1.7700000000000D+00 -2.1994955851915D-02  4.5864929039640D-03
   179  1.7800000000000D+00 -1.9078907129746D-02  4.1456717110862D-03
   180  1.7900000000000D+00 -1.6415885354148D-02  3.7138368631711D-03
   181  1.8000000000000D+00 -1.4002117654323D-02  3.2960027372055D-03
   182  1.8100000000000D+00 -1.1831500672231D-02  2.8964162230869D-03
   183  1.8200000000000D+00 -9.8958544733942D-03  2.5185873029653D-03
   184  1.8300000000000D+00 -8.1851819358305D-03  2.1653229453597D-03
   185  1.8400000000000D+00 -6.6879304980915D-03  1.8387637120982D-03
   186  1.8500000000000D+00 -5.3912543527119D-03  1.5404225225361D-03
   187  1.8600000000000D+00 -4.2812735633956D-03  1.2712247841022D-03
   188  1.8700000000000D+00 -3.3433282077243D-03  1.0315494038821D-03
   189  1.8800000000000D+00 -2.5622249816877D-03  8.2127003698188D-04
   190  1.8900000000000D+00 -1.9224729483415D-03  6.3979579981126D-04
   191  1.9000000000000D+00 -1.4085085715277D-03  4.8611139583862D-04
   192  1.9100000000000D+00 -1.0049038716434D-03  3.5881522326360D-04
   193  1.9200000000000D+00 -6.9656138464627D-04  2.5615624888310D-04
   194  1.9300000000000D+00 -4.6897454796513D-04  1.7608364702011D-04
   195  1.9400000000000D+00 -3.0805785849485D-04  1.1621838449941D-04
   196  1.9500000000000D+00 -2.0012825671063D-04  7.3815131348115D-05
   197  1.9600000000000D+00 -1.3328269330718D-04  4.6106870578138D-05
   198  1.9700000000000D+00 -9.8726467910776D-05  3.0680541863849D-05
   199  1.9800000000000D+00 -8.9112346778640D-05  2.5142365919062D-05
   200  1.9900000000000D+00 -8.2472724404065D-05  2.2421648921007D-05
   201  2.0000000000000D+00 -5.9464738194089D-05  1.6072410636796D-05
   202  2.0100000000000D+00 -2.4225335164209D-05  6.5550342607533D-06
   203  2.0200000000000D+00  3.1507746022848D-06 -8.4149687187106D-07
   204  2.0300000000000D+00  7.8520303866469D-06 -2.0946136528895D-06
   205  2.0400000000000D+00  1.6966348139689D-06 -4.5238855406533D-07
   206  2.0500000000000D+00 -1.6295640741726D-06  4.3233749571455D-07
   207  2.0600000000000D+00 -1.2301396617918D-06  3.2597208313940D-07
   208  2.0700000000000D+00  1.0433470690115D-07 -2.8294299466460D-08
   209  2.0800000000000D+00  2.1380997619805D-07 -5.7982656731819D-08
   210  2.0900000000000D+00  3.5731464196212D-08 -9.6899371107696D-09
   211  2.1000000000000D+00  0.0000000000000D+00  0.0000000000000D+00
   212  2.1100000000000D+00  0.0000000000000D+00  0.0000000000000D+00
   213  2.1200000000000D+00  0.0000000000000D+00  0.0000000000000D+00
   214  2.1300000000000D+00  0.0000000000000D+00  0.0000000000000D+00
   215  2.1400000000000D+00  0.0000000000000D+00  0.0000000000000D+00
   216  2.1500000000000D+00  0.0000000000000D+00  0.0000000000000D+00
   217  2.1600000000000D+00  0.0000000000000D+00  0.0000000000000D+00
   218  2.1700000000000D+00  0.0000000000000D+00  0.0000000000000D+00
   219  2.1800000000000D+00  0.0000000000000D+00  0.0000000000000D+00
   220  2.1900000000000D+00  0.0000000000000D+00  0.0000000000000D+00
   221  2.2000000000000D+00  0.0000000000000D+00  0.0000000000000D+00
   222  2.2100000000000D+00  0.0000000000000D+00  0.0000000000000D+00
   223  2.2200000000000D+00  0.0000000000000D+00  0.0000000000000D+00
   224  2.2300000000000D+00  0.0000000000000D+00  0.0000000000000D+00
   225  2.2400000000000D+00  0.0000000000000D+00  0.0000000000000D+00
   226  2.2500000000000D+00  0.0000000000000D+00  0.0000000000000D+00
   227  2.2600000000000D+00  0.0000000000000D+00  0.0000000000000D+00
   228  2.2700000000000D+00  0.0000000000000D+00  0.0000000000000D+00
   229  2.2800000000000D+00  0.0000000000000D+00  0.0000000000000D+00
   230  2.2900000000000D+00  0.0000000000000D+00  0.0000000000000D+00
   231  2.3000000000000D+00  0.0000000000000D+00  0.0000000000000D+00
   232  2.3100000000000D+00  0.0000000000000D+00  0.0000000000000D+00
   233  2.3200000000000D+00  0.0000000000000D+00  0.0000000000000D+00
   234  2.3300000000000D+00  0.0000000000000D+00  0.0000000000000D+00
   235  2.3400000000000D+00  0.0000000000000D+00  0.0000000000000D+00
   236  2.3500000000000D+00  0.0000000000000D+00  0.0000000000000D+00
   237  2.3600000000000D+00  0.0000000000000D+00  0.0000000000000D+00
   238  2.3700000000000D+00  0.0000000000000D+00  0.0000000000000D+00
   239  2.3800000000000D+00  0.0000000000000D+00  0.0000000000000D+00
   240  2.3900000000000D+00  0.0000000000000D+00  0.0000000000000D+00
   241  2.4000000000000D+00  0.0000000000000D+00  0.0000000000000D+00
   242  2.4100000000000D+00  0.0000000000000D+00  0.0000000000000D+00
   243  2.4200000000000D+00  0.0000000000000D+00  0.0000000000000D+00
   244  2.4300000000000D+00  0.0000000000000D+00  0.0000000000000D+00
   245  2.4400000000000D+00  0.0000000000000D+00  0.0000000000000D+00
   246  2.4500000000000D+00  0.0000000000000D+00  0.0000000000000D+00
   247  2.4600000000000D+00  0.0000000000000D+00  0.0000000000000D+00
   248  2.4700000000000D+00  0.0000000000000D+00  0.0000000000000D+00
   249  2.4800000000000D+00  0.0000000000000D+00  0.0000000000000D+00
   250  2.4900000000000D+00  0.0000000000000D+00  0.0000000000000D+00
   251  2.5000000000000D+00  0.0000000000000D+00  0.0000000000000D+00
   252  2.5100000000000D+00  0.0000000000000D+00  0.0000000000000D+00
   253  2.5200000000000D+00  0.0000000000000D+00  0.0000000000000D+00
   254  2.5300000000000D+00  0.0000000000000D+00  0.0000000000000D+00
   255  2.5400000000000D+00  0.0000000000000D+00  0.0000000000000D+00
   256  2.5500000000000D+00  0.0000000000000D+00  0.0000000000000D+00
   257  2.5600000000000D+00  0.0000000000000D+00  0.0000000000000D+00
   258  2.5700000000000D+00  0.0000000000000D+00  0.0000000000000D+00
   259  2.5800000000000D+00  0.0000000000000D+00  0.0000000000000D+00
   260  2.5900000000000D+00  0.0000000000000D+00  0.0000000000000D+00
   261  2.6000000000000D+00  0.0000000000000D+00  0.0000000000000D+00
   262  2.6100000000000D+00  0.0000000000000D+00  0.0000000000000D+00
   263  2.6200000000000D+00  0.0000000000000D+00  0.0000000000000D+00
   264  2.6300000000000D+00  0.0000000000000D+00  0.0000000000000D+00
   265  2.6400000000000D+00  0.0000000000000D+00  0.0000000000000D+00
   266  2.6500000000000D+00  0.0000000000000D+00  0.0000000000000D+00
   267  2.6600000000000D+00  0.0000000000000D+00  0.0000000000000D+00
   268  2.6700000000000D+00  0.0000000000000D+00  0.0000000000000D+00
   269  2.6800000000000D+00  0.0000000000000D+00  0.0000000000000D+00
   270  2.6900000000000D+00  0.0000000000000D+00  0.0000000000000D+00
   271  2.7000000000000D+00  0.0000000000000D+00  0.0000000000000D+00
   272  2.7100000000000D+00  0.0000000000000D+00  0.0000000000000D+00
   273  2.7200000000000D+00  0.0000000000000D+00  0.0000000000000D+00
   274  2.7300000000000D+00  0.0000000000000D+00  0.0000000000000D+00
   275  2.7400000000000D+00  0.0000000000000D+00  0.0000000000000D+00
   276  2.7500000000000D+00  0.0000000000000D+00  0.0000000000000D+00
   277  2.7600000000000D+00  0.0000000000000D+00  0.0000000000000D+00
   278  2.7700000000000D+00  0.0000000000000D+00  0.0000000000000D+00
   279  2.7800000000000D+00  0.0000000000000D+00  0.0000000000000D+00
   280  2.7900000000000D+00  0.0000000000000D+00  0.0000000000000D+00
   281  2.8000000000000D+00  0.0000000000000D+00  0.0000000000000D+00
   282  2.8100000000000D+00  0.0000000000000D+00  0.0000000000000D+00
   283  2.8200000000000D+00  0.0000000000000D+00  0.0000000000000D+00
   284  2.8300000000000D+00  0.0000000000000D+00  0.0000000000000D+00
   285  2.8400000000000D+00  0.0000000000000D+00  0.0000000000000D+00
   286  2.8500000000000D+00  0.0000000000000D+00  0.0000000000000D+00
   287  2.8600000000000D+00  0.0000000000000D+00  0.0000000000000D+00
   288  2.8700000000000D+00  0.0000000000000D+00  0.0000000000000D+00
   289  2.8800000000000D+00  0.0000000000000D+00  0.0000000000000D+00
   290  2.8900000000000D+00  0.0000000000000D+00  0.0000000000000D+00
   291  2.9000000000000D+00  0.0000000000000D+00  0.0000000000000D+00
   292  2.9100000000000D+00  0.0000000000000D+00  0.0000000000000D+00
   293  2.9200000000000D+00  0.0000000000000D+00  0.0000000000000D+00
   294  2.9300000000000D+00  0.0000000000000D+00  0.0000000000000D+00
   295  2.9400000000000D+00  0.0000000000000D+00  0.0000000000000D+00
   296  2.9500000000000D+00  0.0000000000000D+00  0.0000000000000D+00
   297  2.9600000000000D+00  0.0000000000000D+00  0.0000000000000D+00
   298  2.9700000000000D+00  0.0000000000000D+00  0.0000000000000D+00
   299  2.9800000000000D+00  0.0000000000000D+00  0.0000000000000D+00
   300  2.9900000000000D+00  0.0000000000000D+00  0.0000000000000D+00
   301  3.0000000000000D+00  0.0000000000000D+00  0.0000000000000D+00
   302  3.0100000000000D+00  0.0000000000000D+00  0.0000000000000D+00
   303  3.0200000000000D+00  0.0000000000000D+00  0.0000000000000D+00
   304  3.0300000000000D+00  0.0000000000000D+00  0.0000000000000D+00
   305  3.0400000000000D+00  0.0000000000000D+00  0.0000000000000D+00
   306  3.0500000000000D+00  0.0000000000000D+00  0.0000000000000D+00
   307  3.0600000000000D+00  0.0000000000000D+00  0.0000000000000D+00
   308  3.0700000000000D+00  0.0000000000000D+00  0.0000000000000D+00
   309  3.0800000000000D+00  0.0000000000000D+00  0.0000000000000D+00
   310  3.0900000000000D+00  0.0000000000000D+00  0.0000000000000D+00
   311  3.1000000000000D+00  0.0000000000000D+00  0.0000000000000D+00
   312  3.1100000000000D+00  0.0000000000000D+00  0.0000000000000D+00
   313  3.1200000000000D+00  0.0000000000000D+00  0.0000000000000D+00
   314  3.1300000000000D+00  0.0000000000000D+00  0.0000000000000D+00
   315  3.1400000000000D+00  0.0000000000000D+00  0.0000000000000D+00
   316  3.1500000000000D+00  0.0000000000000D+00  0.0000000000000D+00
   317  3.1600000000000D+00  0.0000000000000D+00  0.0000000000000D+00
   318  3.1700000000000D+00  0.0000000000000D+00  0.0000000000000D+00
   319  3.1800000000000D+00  0.0000000000000D+00  0.0000000000000D+00
   320  3.1900000000000D+00  0.0000000000000D+00  0.0000000000000D+00
   321  3.2000000000000D+00  0.0000000000000D+00  0.0000000000000D+00
   322  3.2100000000000D+00  0.0000000000000D+00  0.0000000000000D+00
   323  3.2200000000000D+00  0.0000000000000D+00  0.0000000000000D+00
   324  3.2300000000000D+00  0.0000000000000D+00  0.0000000000000D+00
   325  3.2400000000000D+00  0.0000000000000D+00  0.0000000000000D+00
   326  3.2500000000000D+00  0.0000000000000D+00  0.0000000000000D+00
   327  3.2600000000000D+00  0.0000000000000D+00  0.0000000000000D+00
   328  3.2700000000000D+00  0.0000000000000D+00  0.0000000000000D+00
   329  3.2800000000000D+00  0.0000000000000D+00  0.0000000000000D+00
   330  3.2900000000000D+00  0.0000000000000D+00  0.0000000000000D+00
   331  3.3000000000000D+00  0.0000000000000D+00  0.0000000000000D+00
   332  3.3100000000000D+00  0.0000000000000D+00  0.0000000000000D+00
   333  3.3200000000000D+00  0.0000000000000D+00  0.0000000000000D+00
   334  3.3300000000000D+00  0.0000000000000D+00  0.0000000000000D+00
   335  3.3400000000000D+00  0.0000000000000D+00  0.0000000000000D+00
   336  3.3500000000000D+00  0.0000000000000D+00  0.0000000000000D+00
   337  3.3600000000000D+00  0.0000000000000D+00  0.0000000000000D+00
   338  3.3700000000000D+00  0.0000000000000D+00  0.0000000000000D+00
   339  3.3800000000000D+00  0.0000000000000D+00  0.0000000000000D+00
   340  3.3900000000000D+00  0.0000000000000D+00  0.0000000000000D+00
   341  3.4000000000000D+00  0.0000000000000D+00  0.0000000000000D+00
   342  3.4100000000000D+00  0.0000000000000D+00  0.0000000000000D+00
   343  3.4200000000000D+00  0.0000000000000D+00  0.0000000000000D+00
   344  3.4300000000000D+00  0.0000000000000D+00  0.0000000000000D+00
   345  3.4400000000000D+00  0.0000000000000D+00  0.0000000000000D+00
   346  3.4500000000000D+00  0.0000000000000D+00  0.0000000000000D+00
   347  3.4600000000000D+00  0.0000000000000D+00  0.0000000000000D+00
   348  3.4700000000000D+00  0.0000000000000D+00  0.0000000000000D+00
   349  3.4800000000000D+00  0.0000000000000D+00  0.0000000000000D+00
   350  3.4900000000000D+00  0.0000000000000D+00  0.0000000000000D+00
   351  3.5000000000000D+00  0.0000000000000D+00  0.0000000000000D+00
   352  3.5100000000000D+00  0.0000000000000D+00  0.0000000000000D+00
   353  3.5200000000000D+00  0.0000000000000D+00  0.0000000000000D+00
   354  3.5300000000000D+00  0.0000000000000D+00  0.0000000000000D+00
   355  3.5400000000000D+00  0.0000000000000D+00  0.0000000000000D+00
   356  3.5500000000000D+00  0.0000000000000D+00  0.0000000000000D+00
   357  3.5600000000000D+00  0.0000000000000D+00  0.0000000000000D+00
   358  3.5700000000000D+00  0.0000000000000D+00  0.0000000000000D+00
   359  3.5800000000000D+00  0.0000000000000D+00  0.0000000000000D+00
   360  3.5900000000000D+00  0.0000000000000D+00  0.0000000000000D+00
   361  3.6000000000000D+00  0.0000000000000D+00  0.0000000000000D+00
   362  3.6100000000000D+00  0.0000000000000D+00  0.0000000000000D+00
   363  3.6200000000000D+00  0.0000000000000D+00  0.0000000000000D+00
   364  3.6300000000000D+00  0.0000000000000D+00  0.0000000000000D+00
   365  3.6400000000000D+00  0.0000000000000D+00  0.0000000000000D+00
   366  3.6500000000000D+00  0.0000000000000D+00  0.0000000000000D+00
   367  3.6600000000000D+00  0.0000000000000D+00  0.0000000000000D+00
   368  3.6700000000000D+00  0.0000000000000D+00  0.0000000000000D+00
   369  3.6800000000000D+00  0.0000000000000D+00  0.0000000000000D+00
   370  3.6900000000000D+00  0.0000000000000D+00  0.0000000000000D+00
   371  3.7000000000000D+00  0.0000000000000D+00  0.0000000000000D+00
   372  3.7100000000000D+00  0.0000000000000D+00  0.0000000000000D+00
   373  3.7200000000000D+00  0.0000000000000D+00  0.0000000000000D+00
   374  3.7300000000000D+00  0.0000000000000D+00  0.0000000000000D+00
   375  3.7400000000000D+00  0.0000000000000D+00  0.0000000000000D+00
   376  3.7500000000000D+00  0.0000000000000D+00  0.0000000000000D+00
   377  3.7600000000000D+00  0.0000000000000D+00  0.0000000000000D+00
   378  3.7700000000000D+00  0.0000000000000D+00  0.0000000000000D+00
   379  3.7800000000000D+00  0.0000000000000D+00  0.0000000000000D+00
   380  3.7900000000000D+00  0.0000000000000D+00  0.0000000000000D+00
   381  3.8000000000000D+00  0.0000000000000D+00  0.0000000000000D+00
   382  3.8100000000000D+00  0.0000000000000D+00  0.0000000000000D+00
   383  3.8200000000000D+00  0.0000000000000D+00  0.0000000000000D+00
   384  3.8300000000000D+00  0.0000000000000D+00  0.0000000000000D+00
   385  3.8400000000000D+00  0.0000000000000D+00  0.0000000000000D+00
   386  3.8500000000000D+00  0.0000000000000D+00  0.0000000000000D+00
   387  3.8600000000000D+00  0.0000000000000D+00  0.0000000000000D+00
   388  3.8700000000000D+00  0.0000000000000D+00  0.0000000000000D+00
   389  3.8800000000000D+00  0.0000000000000D+00  0.0000000000000D+00
   390  3.8900000000000D+00  0.0000000000000D+00  0.0000000000000D+00
   391  3.9000000000000D+00  0.0000000000000D+00  0.0000000000000D+00
   392  3.9100000000000D+00  0.0000000000000D+00  0.0000000000000D+00
   393  3.9200000000000D+00  0.0000000000000D+00  0.0000000000000D+00
   394  3.9300000000000D+00  0.0000000000000D+00  0.0000000000000D+00
   395  3.9400000000000D+00  0.0000000000000D+00  0.0000000000000D+00
   396  3.9500000000000D+00  0.0000000000000D+00  0.0000000000000D+00
   397  3.9600000000000D+00  0.0000000000000D+00  0.0000000000000D+00
   398  3.9700000000000D+00  0.0000000000000D+00  0.0000000000000D+00
   399  3.9800000000000D+00  0.0000000000000D+00  0.0000000000000D+00
   400  3.9900000000000D+00  0.0000000000000D+00  0.0000000000000D+00
   401  4.0000000000000D+00  0.0000000000000D+00  0.0000000000000D+00
   402  4.0100000000000D+00  0.0000000000000D+00  0.0000000000000D+00
   403  4.0200000000000D+00  0.0000000000000D+00  0.0000000000000D+00
   404  4.0300000000000D+00  0.0000000000000D+00  0.0000000000000D+00
   405  4.0400000000000D+00  0.0000000000000D+00  0.0000000000000D+00
   406  4.0500000000000D+00  0.0000000000000D+00  0.0000000000000D+00
   407  4.0600000000000D+00  0.0000000000000D+00  0.0000000000000D+00
   408  4.0700000000000D+00  0.0000000000000D+00  0.0000000000000D+00
   409  4.0800000000000D+00  0.0000000000000D+00  0.0000000000000D+00
   410  4.0900000000000D+00  0.0000000000000D+00  0.0000000000000D+00
   411  4.1000000000000D+00  0.0000000000000D+00  0.0000000000000D+00
   412  4.1100000000000D+00  0.0000000000000D+00  0.0000000000000D+00
   413  4.1200000000000D+00  0.0000000000000D+00  0.0000000000000D+00
   414  4.1300000000000D+00  0.0000000000000D+00  0.0000000000000D+00
   415  4.1400000000000D+00  0.0000000000000D+00  0.0000000000000D+00
   416  4.1500000000000D+00  0.0000000000000D+00  0.0000000000000D+00
   417  4.1600000000000D+00  0.0000000000000D+00  0.0000000000000D+00
   418  4.1700000000000D+00  0.0000000000000D+00  0.0000000000000D+00
   419  4.1800000000000D+00  0.0000000000000D+00  0.0000000000000D+00
   420  4.1900000000000D+00  0.0000000000000D+00  0.0000000000000D+00
   421  4.2000000000000D+00  0.0000000000000D+00  0.0000000000000D+00
   422  4.2100000000000D+00  0.0000000000000D+00  0.0000000000000D+00