Re    ONCVPSP-3.3.1  r_core=   1.99393   2.09138   1.81245   2.65487
     75.0000     15.0000      210904    zatom,zion,pspd
     8       2   3     4   600     0    pspcod,pspxc,lmax,lloc,mmax,r2well
  5.99000000  0.00000000  0.00000000    rchrg fchrg qchrg
     2     2     2     2     0    nproj
     1     1           extension_switch
   0                         1.2173377188535D+01  2.0191883400845D+00
     1  0.0000000000000D+00  4.7826187454802D-11 -1.0864993627013D-10
     2  1.0000000000000D-02  5.2082309030571D-02 -1.0567186955182D-02
     3  2.0000000000000D-02  1.0411670667921D-01 -2.1139548297839D-02
     4  3.0000000000000D-02  1.5605515157127D-01 -3.1721804397161D-02
     5  4.0000000000000D-02  2.0784934404774D-01 -4.2317771728348D-02
     6  5.0000000000000D-02  2.5945060126360D-01 -5.2929921254601D-02
     7  6.0000000000000D-02  3.1080973734100D-01 -6.3558949127073D-02
     8  7.0000000000000D-02  3.6187695020591D-01 -7.4203363681245D-02
     9  8.0000000000000D-02  4.1260171668919D-01 -8.4859092599494D-02
    10  9.0000000000000D-02  4.6293269741359D-01 -9.5519113974927D-02
    11  1.0000000000000D-01  5.1281765291806D-01 -1.0617311485122D-01
    12  1.1000000000000D-01  5.6220337238924D-01 -1.1680718062814D-01
    13  1.2000000000000D-01  6.1103561627897D-01 -1.2740351851349D-01
    14  1.3000000000000D-01  6.5925907398505D-01 -1.3794021797041D-01
    15  1.4000000000000D-01  7.0681733766231D-01 -1.4839105085574D-01
    16  1.5000000000000D-01  7.5365289311197D-01 -1.5872531367093D-01
    17  1.6000000000000D-01  7.9970712857028D-01 -1.6890771405467D-01
    18  1.7000000000000D-01  8.4492036208350D-01 -1.7889830333575D-01
    19  1.8000000000000D-01  8.8923188801566D-01 -1.8865245663891D-01
    20  1.9000000000000D-01  9.3258004308972D-01 -1.9812090169626D-01
    21  2.0000000000000D-01  9.7490229221195D-01 -2.0724979716470D-01
    22  2.1000000000000D-01  1.0161353341750D+00 -2.1598086088743D-01
    23  2.2000000000000D-01  1.0562152271780D+00 -2.2425154816732D-01
    24  2.3000000000000D-01  1.0950775339427D+00 -2.3199527974370D-01
    25  2.4000000000000D-01  1.1326574860453D+00 -2.3914171878415D-01
    26  2.5000000000000D-01  1.1688901669240D+00 -2.4561709582218D-01
    27  2.6000000000000D-01  1.2037107128625D+00 -2.5134458019154D-01
    28  2.7000000000000D-01  1.2370545310970D+00 -2.5624469613202D-01
    29  2.8000000000000D-01  1.2688575340381D+00 -2.6023578137144D-01
    30  2.9000000000000D-01  1.2990563884523D+00 -2.6323448562759D-01
    31  3.0000000000000D-01  1.3275887783072D+00 -2.6515630612380D-01
    32  3.1000000000000D-01  1.3543936798442D+00 -2.6591615687611D-01
    33  3.2000000000000D-01  1.3794116473187D+00 -2.6542896819013D-01
    34  3.3000000000000D-01  1.4025851077243D+00 -2.6361031250569D-01
    35  3.4000000000000D-01  1.4238586627104D+00 -2.6037705244748D-01
    36  3.5000000000000D-01  1.4431793957992D+00 -2.5564800668530D-01
    37  3.6000000000000D-01  1.4604971829233D+00 -2.4934462897774D-01
    38  3.7000000000000D-01  1.4757650042271D+00 -2.4139169557234D-01
    39  3.8000000000000D-01  1.4889392550099D+00 -2.3171799596478D-01
    40  3.9000000000000D-01  1.4999800536432D+00 -2.2025702188095D-01
    41  4.0000000000000D-01  1.5088515442549D+00 -2.0694764924147D-01
    42  4.1000000000000D-01  1.5155221919535D+00 -1.9173480779926D-01
    43  4.2000000000000D-01  1.5199650683603D+00 -1.7457013310839D-01
    44  4.3000000000000D-01  1.5221581252268D+00 -1.5541259548849D-01
    45  4.4000000000000D-01  1.5220844539376D+00 -1.3422910069304D-01
    46  4.5000000000000D-01  1.5197325287447D+00 -1.1099505707421D-01
    47  4.6000000000000D-01  1.5150964316303D+00 -8.5694904159811D-02
    48  4.7000000000000D-01  1.5081760567731D+00 -5.8322597721671D-02
    49  4.8000000000000D-01  1.4989772926774D+00 -2.8882046617004D-02
    50  4.9000000000000D-01  1.4875121801299D+00  2.6125030740202D-03
    51  5.0000000000000D-01  1.4737990442663D+00  3.6136140811769D-02
    52  5.1000000000000D-01  1.4578625991631D+00  7.1653025142691D-02
    53  5.2000000000000D-01  1.4397340235140D+00  1.0911618155602D-01
    54  5.3000000000000D-01  1.4194510061134D+00  1.4846736779583D-01
    55  5.4000000000000D-01  1.3970577600346D+00  1.8963700935561D-01
    56  5.5000000000000D-01  1.3726050045778D+00  2.3254420743688D-01
    57  5.6000000000000D-01  1.3461499142507D+00  2.7709682118169D-01
    58  5.7000000000000D-01  1.3177560342473D+00  3.2319162549222D-01
    59  5.8000000000000D-01  1.2874931620970D+00  3.7071454523666D-01
    60  5.9000000000000D-01  1.2554371953715D+00  4.1954096610560D-01
    61  6.0000000000000D-01  1.2216699455557D+00  4.6953612184043D-01
    62  6.1000000000000D-01  1.1862789184089D+00  5.2055555699683D-01
    63  6.2000000000000D-01  1.1493570613700D+00  5.7244566384930D-01
    64  6.3000000000000D-01  1.1110024787814D+00  6.2504429147849D-01
    65  6.4000000000000D-01  1.0713181159309D+00  6.7818142452559D-01
    66  6.5000000000000D-01  1.0304114131296D+00  7.3167992854721D-01
    67  6.6000000000000D-01  9.8839393126019D-01  7.8535635836288D-01
    68  6.7000000000000D-01  9.4538095043679D-01  8.3902182526388D-01
    69  6.8000000000000D-01  9.0149104362202D-01  8.9248291844969D-01
    70  6.9000000000000D-01  8.5684562723570D-01  9.4554267557615D-01
    71  7.0000000000000D-01  8.1156849097294D-01  9.9800159685005D-01
    72  7.1000000000000D-01  7.6578530921768D-01  1.0496586966851D+00
    73  7.2000000000000D-01  7.1962313659265D-01  1.1003125865517D+00
    74  7.3000000000000D-01  6.7320989032832D-01  1.1497625823085D+00
    75  7.4000000000000D-01  6.2667382225724D-01  1.1978098290029D+00
    76  7.5000000000000D-01  5.8014298334782D-01  1.2442584358727D+00
    77  7.6000000000000D-01  5.3374468378107D-01  1.2889166140726D+00
    78  7.7000000000000D-01  4.8760495164441D-01  1.3315978094939D+00
    79  7.8000000000000D-01  4.4184799336739D-01  1.3721218229397D+00
    80  7.9000000000000D-01  3.9659565905534D-01  1.4103159098671D+00
    81  8.0000000000000D-01  3.5196691588703D-01  1.4460158519112D+00
    82  8.1000000000000D-01  3.0807733273209D-01  1.4790669924681D+00
    83  8.2000000000000D-01  2.6503857911257D-01  1.5093252287215D+00
    84  8.3000000000000D-01  2.2295794158090D-01  1.5366579526765D+00
    85  8.4000000000000D-01  1.8193786051399D-01  1.5609449339795D+00
    86  8.5000000000000D-01  1.4207549022998D-01  1.5820791375878D+00
    87  8.6000000000000D-01  1.0346228522218D-01  1.5999674696759D+00
    88  8.7000000000000D-01  6.6183615172925D-02  1.6145314455473D+00
    89  8.8000000000000D-01  3.0318411260770D-02  1.6257077737444D+00
    90  8.9000000000000D-01 -4.0611538919085D-03  1.6334488510182D+00
    91  9.0000000000000D-01 -3.6889950466488D-02  1.6377231633288D+00
    92  9.1000000000000D-01 -6.8110137923268D-02  1.6385155885947D+00
    93  9.2000000000000D-01 -9.7671371947013D-02  1.6358275974876D+00
    94  9.3000000000000D-01 -1.2553097032762D-01  1.6296773491754D+00
    95  9.4000000000000D-01 -1.5165403647257D-01  1.6200996795500D+00
    96  9.5000000000000D-01 -1.7601353948915D-01  1.6071459801230D+00
    97  9.6000000000000D-01 -1.9859035002113D-01  1.5908839664396D+00
    98  9.7000000000000D-01 -2.1937323127497D-01  1.5713973355268D+00
    99  9.8000000000000D-01 -2.3835878492979D-01  1.5487853125750D+00
   100  9.9000000000000D-01 -2.5555135187787D-01  1.5231620877216D+00
   101  1.0000000000000D+00 -2.7096286799962D-01  1.4946561444698D+00
   102  1.0100000000000D+00 -2.8461267542926D-01  1.4634094819307D+00
   103  1.0200000000000D+00 -2.9652729001570D-01  1.4295767337114D+00
   104  1.0300000000000D+00 -3.0674012592959D-01  1.3933241868937D+00
   105  1.0400000000000D+00 -3.1529117858721D-01  1.3548287050989D+00
   106  1.0500000000000D+00 -3.2222666730648D-01  1.3142765602363D+00
   107  1.0600000000000D+00 -3.2759863930749D-01  1.2718621780094D+00
   108  1.0700000000000D+00 -3.3146453687474D-01  1.2277868027402D+00
   109  1.0800000000000D+00 -3.3388672969036D-01  1.1822570875182D+00
   110  1.0900000000000D+00 -3.3493201449814D-01  1.1354836160175D+00
   111  1.1000000000000D+00 -3.3467108443616D-01  1.0876793627141D+00
   112  1.1100000000000D+00 -3.3317797049466D-01  1.0390580984786D+00
   113  1.1200000000000D+00 -3.3052945767980D-01  9.8983274875300D-01
   114  1.1300000000000D+00 -3.2680447855558D-01  9.4021371168128D-01
   115  1.1400000000000D+00 -3.2208348691863D-01  8.9040714368674D-01
   116  1.1500000000000D+00 -3.1644781442151D-01  8.4061322003951D-01
   117  1.1600000000000D+00 -3.0997901298989D-01  7.9102437793909D-01
   118  1.1700000000000D+00 -3.0275818515868D-01  7.4182354553977D-01
   119  1.1800000000000D+00 -2.9486530991768D-01  6.9318239030898D-01
   120  1.1900000000000D+00 -2.8637854923890D-01  6.4525949818083D-01
   121  1.2000000000000D+00 -2.7737361786518D-01  5.9819891640368D-01
   122  1.2100000000000D+00 -2.6792290297992D-01  5.5212736576566D-01
   123  1.2200000000000D+00 -2.5809533168724D-01  5.0715555664711D-01
   124  1.2300000000000D+00 -2.4795675997453D-01  4.6338211033674D-01
   125  1.2400000000000D+00 -2.3757062741074D-01  4.2089808944807D-01
   126  1.2500000000000D+00 -2.2699794216189D-01  3.7978757662366D-01
   127  1.2600000000000D+00 -2.1629702025683D-01  3.4012671694424D-01
   128  1.2700000000000D+00 -2.0552339177027D-01  3.0198373363807D-01
   129  1.2800000000000D+00 -1.9472967725370D-01  2.6541870251183D-01
   130  1.2900000000000D+00 -1.8396549006590D-01  2.3048343202678D-01
   131  1.3000000000000D+00 -1.7327735411294D-01  1.9722138324591D-01
   132  1.3100000000000D+00 -1.6270863954400D-01  1.6566764387623D-01
   133  1.3200000000000D+00 -1.5229951579595D-01  1.3584895269014D-01
   134  1.3300000000000D+00 -1.4208692185895D-01  1.0778377334169D-01
   135  1.3400000000000D+00 -1.3210455343997D-01  8.1482415978129D-02
   136  1.3500000000000D+00 -1.2238286657638D-01  5.6947204709668D-02
   137  1.3600000000000D+00 -1.1294909732659D-01  3.4172689216200D-02
   138  1.3700000000000D+00 -1.0382729687996D-01  1.3145897924725D-02
   139  1.3800000000000D+00 -9.5038381450750D-02 -6.1533697218105D-03
   140  1.3900000000000D+00 -8.6600196302725D-02 -2.3752214455694D-02
   141  1.4000000000000D+00 -7.8527593003572D-02 -3.9684275068172D-02
   142  1.4100000000000D+00 -7.0832519152628D-02 -5.3989335815065D-02
   143  1.4200000000000D+00 -6.3524119626169D-02 -6.6712906733701D-02
   144  1.4300000000000D+00 -5.6608848368162D-02 -7.7905780252292D-02
   145  1.4400000000000D+00 -5.0090589792089D-02 -8.7623567434977D-02
   146  1.4500000000000D+00 -4.3970788679595D-02 -9.5926217572653D-02
   147  1.4600000000000D+00 -3.8248587591020D-02 -1.0287752455906D-01
   148  1.4700000000000D+00 -3.2920970658375D-02 -1.0854462379411D-01
   149  1.4800000000000D+00 -2.7982912699731D-02 -1.1299748313186D-01
   150  1.4900000000000D+00 -2.3427532552606D-02 -1.1630839155926D-01
   151  1.5000000000000D+00 -1.9246227500442D-02 -1.1855153202609D-01
   152  1.5100000000000D+00 -1.5428891785272D-02 -1.1980225008667D-01
   153  1.5200000000000D+00 -1.1964409262945D-02 -1.2013529914873D-01
   154  1.5300000000000D+00 -8.8393529793796D-03 -1.1962986319280D-01
   155  1.5400000000000D+00 -6.0382630465456D-03 -1.1836864618333D-01
   156  1.5500000000000D+00 -3.5509431585131D-03 -1.1641041905392D-01
   157  1.5600000000000D+00 -1.3693074939910D-03 -1.1380212088751D-01
   158  1.5700000000000D+00  5.2639099359772D-04 -1.1063126163995D-01
   159  1.5800000000000D+00  2.1607248225916D-03 -1.0700006202869D-01
   160  1.5900000000000D+00  3.5503268036315D-03 -1.0297700072544D-01
   161  1.6000000000000D+00  4.7100290397186D-03 -9.8620422080493D-02
   162  1.6100000000000D+00  5.6573229871809D-03 -9.3995786825471D-02
   163  1.6200000000000D+00  6.4095348945208D-03 -8.9165065773454D-02
   164  1.6300000000000D+00  6.9834252868307D-03 -8.4185395815560D-02
   165  1.6400000000000D+00  7.3955595515606D-03 -7.9110695914603D-02
   166  1.6500000000000D+00  7.6621414254995D-03 -7.3991226609647D-02
   167  1.6600000000000D+00  7.7989090376601D-03 -6.8873391360105D-02
   168  1.6700000000000D+00  7.8210603055967D-03 -6.3799650219060D-02
   169  1.6800000000000D+00  7.7431839611957D-03 -5.8808454761131D-02
   170  1.6900000000000D+00  7.5791993047812D-03 -5.3934215530377D-02
   171  1.7000000000000D+00  7.3423052196593D-03 -4.9207303212941D-02
   172  1.7100000000000D+00  7.0449377412545D-03 -4.4654080408884D-02
   173  1.7200000000000D+00  6.6987365992686D-03 -4.0296964780760D-02
   174  1.7300000000000D+00  6.3145198651370D-03 -3.6154519941971D-02
   175  1.7400000000000D+00  5.9022670407468D-03 -3.2241574533303D-02
   176  1.7500000000000D+00  5.4711095485654D-03 -2.8569365335299D-02
   177  1.7600000000000D+00  5.0293289039350D-03 -2.5145704607575D-02
   178  1.7700000000000D+00  4.5843613845989D-03 -2.1975167130554D-02
   179  1.7800000000000D+00  4.1428094106672D-03 -1.9059296798827D-02
   180  1.7900000000000D+00  3.7104583861830D-03 -1.6396828215300D-02
   181  1.8000000000000D+00  3.2922990684889D-03 -1.3983922481587D-02
   182  1.8100000000000D+00  2.8925543297487D-03 -1.1814413229897D-02
   183  1.8200000000000D+00  2.5147100638898D-03 -9.8800609348991D-03
   184  1.8300000000000D+00  2.1615494024031D-03 -8.1708126798685D-03
   185  1.8400000000000D+00  1.8351896333120D-03 -6.6750642530519D-03
   186  1.8500000000000D+00  1.5371212672793D-03 -5.3799226623603D-03
   187  1.8600000000000D+00  1.2682484567158D-03 -4.2714655436024D-03
   188  1.8700000000000D+00  1.0289302814927D-03 -3.3349955642362D-03
   189  1.8800000000000D+00  8.1902225536991D-04 -2.5552872586234D-03
   190  1.8900000000000D+00  6.3791727853970D-04 -1.9168229748817D-03
   191  1.9000000000000D+00  4.8458598486161D-04 -1.4040180773320D-03
   192  1.9100000000000D+00  3.5761504807748D-04 -1.0014292367688D-03
   193  1.9200000000000D+00  2.5524423512212D-04 -6.9394949544884D-04
   194  1.9300000000000D+00  1.7541610280727D-04 -4.6706830476141D-04
   195  1.9400000000000D+00  1.1574807636559D-04 -3.0670330605612D-04
   196  1.9500000000000D+00  7.3494826381379D-05 -1.9918274558292D-04
   197  1.9600000000000D+00  4.5891121502909D-05 -1.3261625537998D-04
   198  1.9700000000000D+00  3.0525522932856D-05 -9.8216219073625D-05
   199  1.9800000000000D+00  2.5007965825335D-05 -8.8645911687947D-05
   200  1.9900000000000D+00  2.2299532016463D-05 -8.2040237422994D-05
   201  2.0000000000000D+00  1.5984782181928D-05 -5.9153227671622D-05
   202  2.0100000000000D+00  6.5193984569115D-06 -2.4098663844936D-05
   203  2.0200000000000D+00 -8.3689554070448D-07  3.1343108685914D-06
   204  2.0300000000000D+00 -2.0831696177966D-06  7.8110514196602D-06
   205  2.0400000000000D+00 -4.4991925227717D-07  1.6877894487008D-06
   206  2.0500000000000D+00  4.2995028860474D-07 -1.6209983897371D-06
   207  2.0600000000000D+00  3.2417092410134D-07 -1.2236727654704D-06
   208  2.0700000000000D+00 -2.8140030730708D-08  1.0378745590847D-07
   209  2.0800000000000D+00 -5.7666518452440D-08  2.1268851120146D-07
   210  2.0900000000000D+00 -9.6371047602332D-09  3.5544047373641D-08
   211  2.1000000000000D+00  0.0000000000000D+00  0.0000000000000D+00
   212  2.1100000000000D+00  0.0000000000000D+00  0.0000000000000D+00
   213  2.1200000000000D+00  0.0000000000000D+00  0.0000000000000D+00
   214  2.1300000000000D+00  0.0000000000000D+00  0.0000000000000D+00
   215  2.1400000000000D+00  0.0000000000000D+00  0.0000000000000D+00
   216  2.1500000000000D+00  0.0000000000000D+00  0.0000000000000D+00
   217  2.1600000000000D+00  0.0000000000000D+00  0.0000000000000D+00
   218  2.1700000000000D+00  0.0000000000000D+00  0.0000000000000D+00
   219  2.1800000000000D+00  0.0000000000000D+00  0.0000000000000D+00
   220  2.1900000000000D+00  0.0000000000000D+00  0.0000000000000D+00
   221  2.2000000000000D+00  0.0000000000000D+00  0.0000000000000D+00
   222  2.2100000000000D+00  0.0000000000000D+00  0.0000000000000D+00
   223  2.2200000000000D+00  0.0000000000000D+00  0.0000000000000D+00
   224  2.2300000000000D+00  0.0000000000000D+00  0.0000000000000D+00
   225  2.2400000000000D+00  0.0000000000000D+00  0.0000000000000D+00
   226  2.2500000000000D+00  0.0000000000000D+00  0.0000000000000D+00
   227  2.2600000000000D+00  0.0000000000000D+00  0.0000000000000D+00
   228  2.2700000000000D+00  0.0000000000000D+00  0.0000000000000D+00
   229  2.2800000000000D+00  0.0000000000000D+00  0.0000000000000D+00
   230  2.2900000000000D+00  0.0000000000000D+00  0.0000000000000D+00
   231  2.3000000000000D+00  0.0000000000000D+00  0.0000000000000D+00
   232  2.3100000000000D+00  0.0000000000000D+00  0.0000000000000D+00
   233  2.3200000000000D+00  0.0000000000000D+00  0.0000000000000D+00
   234  2.3300000000000D+00  0.0000000000000D+00  0.0000000000000D+00
   235  2.3400000000000D+00  0.0000000000000D+00  0.0000000000000D+00
   236  2.3500000000000D+00  0.0000000000000D+00  0.0000000000000D+00
   237  2.3600000000000D+00  0.0000000000000D+00  0.0000000000000D+00
   238  2.3700000000000D+00  0.0000000000000D+00  0.0000000000000D+00
   239  2.3800000000000D+00  0.0000000000000D+00  0.0000000000000D+00
   240  2.3900000000000D+00  0.0000000000000D+00  0.0000000000000D+00
   241  2.4000000000000D+00  0.0000000000000D+00  0.0000000000000D+00
   242  2.4100000000000D+00  0.0000000000000D+00  0.0000000000000D+00
   243  2.4200000000000D+00  0.0000000000000D+00  0.0000000000000D+00
   244  2.4300000000000D+00  0.0000000000000D+00  0.0000000000000D+00
   245  2.4400000000000D+00  0.0000000000000D+00  0.0000000000000D+00
   246  2.4500000000000D+00  0.0000000000000D+00  0.0000000000000D+00
   247  2.4600000000000D+00  0.0000000000000D+00  0.0000000000000D+00
   248  2.4700000000000D+00  0.0000000000000D+00  0.0000000000000D+00
   249  2.4800000000000D+00  0.0000000000000D+00  0.0000000000000D+00
   250  2.4900000000000D+00  0.0000000000000D+00  0.0000000000000D+00
   251  2.5000000000000D+00  0.0000000000000D+00  0.0000000000000D+00
   252  2.5100000000000D+00  0.0000000000000D+00  0.0000000000000D+00
   253  2.5200000000000D+00  0.0000000000000D+00  0.0000000000000D+00
   254  2.5300000000000D+00  0.0000000000000D+00  0.0000000000000D+00
   255  2.5400000000000D+00  0.0000000000000D+00  0.0000000000000D+00
   256  2.5500000000000D+00  0.0000000000000D+00  0.0000000000000D+00
   257  2.5600000000000D+00  0.0000000000000D+00  0.0000000000000D+00
   258  2.5700000000000D+00  0.0000000000000D+00  0.0000000000000D+00
   259  2.5800000000000D+00  0.0000000000000D+00  0.0000000000000D+00
   260  2.5900000000000D+00  0.0000000000000D+00  0.0000000000000D+00
   261  2.6000000000000D+00  0.0000000000000D+00  0.0000000000000D+00
   262  2.6100000000000D+00  0.0000000000000D+00  0.0000000000000D+00
   263  2.6200000000000D+00  0.0000000000000D+00  0.0000000000000D+00
   264  2.6300000000000D+00  0.0000000000000D+00  0.0000000000000D+00
   265  2.6400000000000D+00  0.0000000000000D+00  0.0000000000000D+00
   266  2.6500000000000D+00  0.0000000000000D+00  0.0000000000000D+00
   267  2.6600000000000D+00  0.0000000000000D+00  0.0000000000000D+00
   268  2.6700000000000D+00  0.0000000000000D+00  0.0000000000000D+00
   269  2.6800000000000D+00  0.0000000000000D+00  0.0000000000000D+00
   270  2.6900000000000D+00  0.0000000000000D+00  0.0000000000000D+00
   271  2.7000000000000D+00  0.0000000000000D+00  0.0000000000000D+00
   272  2.7100000000000D+00  0.0000000000000D+00  0.0000000000000D+00
   273  2.7200000000000D+00  0.0000000000000D+00  0.0000000000000D+00
   274  2.7300000000000D+00  0.0000000000000D+00  0.0000000000000D+00
   275  2.7400000000000D+00  0.0000000000000D+00  0.0000000000000D+00
   276  2.7500000000000D+00  0.0000000000000D+00  0.0000000000000D+00
   277  2.7600000000000D+00  0.0000000000000D+00  0.0000000000000D+00
   278  2.7700000000000D+00  0.0000000000000D+00  0.0000000000000D+00
   279  2.7800000000000D+00  0.0000000000000D+00  0.0000000000000D+00
   280  2.7900000000000D+00  0.0000000000000D+00  0.0000000000000D+00
   281  2.8000000000000D+00  0.0000000000000D+00  0.0000000000000D+00
   282  2.8100000000000D+00  0.0000000000000D+00  0.0000000000000D+00
   283  2.8200000000000D+00  0.0000000000000D+00  0.0000000000000D+00
   284  2.8300000000000D+00  0.0000000000000D+00  0.0000000000000D+00
   285  2.8400000000000D+00  0.0000000000000D+00  0.0000000000000D+00
   286  2.8500000000000D+00  0.0000000000000D+00  0.0000000000000D+00
   287  2.8600000000000D+00  0.0000000000000D+00  0.0000000000000D+00
   288  2.8700000000000D+00  0.0000000000000D+00  0.0000000000000D+00
   289  2.8800000000000D+00  0.0000000000000D+00  0.0000000000000D+00
   290  2.8900000000000D+00  0.0000000000000D+00  0.0000000000000D+00
   291  2.9000000000000D+00  0.0000000000000D+00  0.0000000000000D+00
   292  2.9100000000000D+00  0.0000000000000D+00  0.0000000000000D+00
   293  2.9200000000000D+00  0.0000000000000D+00  0.0000000000000D+00
   294  2.9300000000000D+00  0.0000000000000D+00  0.0000000000000D+00
   295  2.9400000000000D+00  0.0000000000000D+00  0.0000000000000D+00
   296  2.9500000000000D+00  0.0000000000000D+00  0.0000000000000D+00
   297  2.9600000000000D+00  0.0000000000000D+00  0.0000000000000D+00
   298  2.9700000000000D+00  0.0000000000000D+00  0.0000000000000D+00
   299  2.9800000000000D+00  0.0000000000000D+00  0.0000000000000D+00
   300  2.9900000000000D+00  0.0000000000000D+00  0.0000000000000D+00
   301  3.0000000000000D+00  0.0000000000000D+00  0.0000000000000D+00
   302  3.0100000000000D+00  0.0000000000000D+00  0.0000000000000D+00
   303  3.0200000000000D+00  0.0000000000000D+00  0.0000000000000D+00
   304  3.0300000000000D+00  0.0000000000000D+00  0.0000000000000D+00
   305  3.0400000000000D+00  0.0000000000000D+00  0.0000000000000D+00
   306  3.0500000000000D+00  0.0000000000000D+00  0.0000000000000D+00
   307  3.0600000000000D+00  0.0000000000000D+00  0.0000000000000D+00
   308  3.0700000000000D+00  0.0000000000000D+00  0.0000000000000D+00
   309  3.0800000000000D+00  0.0000000000000D+00  0.0000000000000D+00
   310  3.0900000000000D+00  0.0000000000000D+00  0.0000000000000D+00
   311  3.1000000000000D+00  0.0000000000000D+00  0.0000000000000D+00
   312  3.1100000000000D+00  0.0000000000000D+00  0.0000000000000D+00
   313  3.1200000000000D+00  0.0000000000000D+00  0.0000000000000D+00
   314  3.1300000000000D+00  0.0000000000000D+00  0.0000000000000D+00
   315  3.1400000000000D+00  0.0000000000000D+00  0.0000000000000D+00
   316  3.1500000000000D+00  0.0000000000000D+00  0.0000000000000D+00
   317  3.1600000000000D+00  0.0000000000000D+00  0.0000000000000D+00
   318  3.1700000000000D+00  0.0000000000000D+00  0.0000000000000D+00
   319  3.1800000000000D+00  0.0000000000000D+00  0.0000000000000D+00
   320  3.1900000000000D+00  0.0000000000000D+00  0.0000000000000D+00
   321  3.2000000000000D+00  0.0000000000000D+00  0.0000000000000D+00
   322  3.2100000000000D+00  0.0000000000000D+00  0.0000000000000D+00
   323  3.2200000000000D+00  0.0000000000000D+00  0.0000000000000D+00
   324  3.2300000000000D+00  0.0000000000000D+00  0.0000000000000D+00
   325  3.2400000000000D+00  0.0000000000000D+00  0.0000000000000D+00
   326  3.2500000000000D+00  0.0000000000000D+00  0.0000000000000D+00
   327  3.2600000000000D+00  0.0000000000000D+00  0.0000000000000D+00
   328  3.2700000000000D+00  0.0000000000000D+00  0.0000000000000D+00
   329  3.2800000000000D+00  0.0000000000000D+00  0.0000000000000D+00
   330  3.2900000000000D+00  0.0000000000000D+00  0.0000000000000D+00
   331  3.3000000000000D+00  0.0000000000000D+00  0.0000000000000D+00
   332  3.3100000000000D+00  0.0000000000000D+00  0.0000000000000D+00
   333  3.3200000000000D+00  0.0000000000000D+00  0.0000000000000D+00
   334  3.3300000000000D+00  0.0000000000000D+00  0.0000000000000D+00
   335  3.3400000000000D+00  0.0000000000000D+00  0.0000000000000D+00
   336  3.3500000000000D+00  0.0000000000000D+00  0.0000000000000D+00
   337  3.3600000000000D+00  0.0000000000000D+00  0.0000000000000D+00
   338  3.3700000000000D+00  0.0000000000000D+00  0.0000000000000D+00
   339  3.3800000000000D+00  0.0000000000000D+00  0.0000000000000D+00
   340  3.3900000000000D+00  0.0000000000000D+00  0.0000000000000D+00
   341  3.4000000000000D+00  0.0000000000000D+00  0.0000000000000D+00
   342  3.4100000000000D+00  0.0000000000000D+00  0.0000000000000D+00
   343  3.4200000000000D+00  0.0000000000000D+00  0.0000000000000D+00
   344  3.4300000000000D+00  0.0000000000000D+00  0.0000000000000D+00
   345  3.4400000000000D+00  0.0000000000000D+00  0.0000000000000D+00
   346  3.4500000000000D+00  0.0000000000000D+00  0.0000000000000D+00
   347  3.4600000000000D+00  0.0000000000000D+00  0.0000000000000D+00
   348  3.4700000000000D+00  0.0000000000000D+00  0.0000000000000D+00
   349  3.4800000000000D+00  0.0000000000000D+00  0.0000000000000D+00
   350  3.4900000000000D+00  0.0000000000000D+00  0.0000000000000D+00
   351  3.5000000000000D+00  0.0000000000000D+00  0.0000000000000D+00
   352  3.5100000000000D+00  0.0000000000000D+00  0.0000000000000D+00
   353  3.5200000000000D+00  0.0000000000000D+00  0.0000000000000D+00
   354  3.5300000000000D+00  0.0000000000000D+00  0.0000000000000D+00
   355  3.5400000000000D+00  0.0000000000000D+00  0.0000000000000D+00
   356  3.5500000000000D+00  0.0000000000000D+00  0.0000000000000D+00
   357  3.5600000000000D+00  0.0000000000000D+00  0.0000000000000D+00
   358  3.5700000000000D+00  0.0000000000000D+00  0.0000000000000D+00
   359  3.5800000000000D+00  0.0000000000000D+00  0.0000000000000D+00
   360  3.5900000000000D+00  0.0000000000000D+00  0.0000000000000D+00
   361  3.6000000000000D+00  0.0000000000000D+00  0.0000000000000D+00
   362  3.6100000000000D+00  0.0000000000000D+00  0.0000000000000D+00
   363  3.6200000000000D+00  0.0000000000000D+00  0.0000000000000D+00
   364  3.6300000000000D+00  0.0000000000000D+00  0.0000000000000D+00
   365  3.6400000000000D+00  0.0000000000000D+00  0.0000000000000D+00
   366  3.6500000000000D+00  0.0000000000000D+00  0.0000000000000D+00
   367  3.6600000000000D+00  0.0000000000000D+00  0.0000000000000D+00
   368  3.6700000000000D+00  0.0000000000000D+00  0.0000000000000D+00
   369  3.6800000000000D+00  0.0000000000000D+00  0.0000000000000D+00
   370  3.6900000000000D+00  0.0000000000000D+00  0.0000000000000D+00
   371  3.7000000000000D+00  0.0000000000000D+00  0.0000000000000D+00
   372  3.7100000000000D+00  0.0000000000000D+00  0.0000000000000D+00
   373  3.7200000000000D+00  0.0000000000000D+00  0.0000000000000D+00
   374  3.7300000000000D+00  0.0000000000000D+00  0.0000000000000D+00
   375  3.7400000000000D+00  0.0000000000000D+00  0.0000000000000D+00
   376  3.7500000000000D+00  0.0000000000000D+00  0.0000000000000D+00
   377  3.7600000000000D+00  0.0000000000000D+00  0.0000000000000D+00
   378  3.7700000000000D+00  0.0000000000000D+00  0.0000000000000D+00
   379  3.7800000000000D+00  0.0000000000000D+00  0.0000000000000D+00
   380  3.7900000000000D+00  0.0000000000000D+00  0.0000000000000D+00
   381  3.8000000000000D+00  0.0000000000000D+00  0.0000000000000D+00
   382  3.8100000000000D+00  0.0000000000000D+00  0.0000000000000D+00
   383  3.8200000000000D+00  0.0000000000000D+00  0.0000000000000D+00
   384  3.8300000000000D+00  0.0000000000000D+00  0.0000000000000D+00
   385  3.8400000000000D+00  0.0000000000000D+00  0.0000000000000D+00
   386  3.8500000000000D+00  0.0000000000000D+00  0.0000000000000D+00
   387  3.8600000000000D+00  0.0000000000000D+00  0.0000000000000D+00
   388  3.8700000000000D+00  0.0000000000000D+00  0.0000000000000D+00
   389  3.8800000000000D+00  0.0000000000000D+00  0.0000000000000D+00
   390  3.8900000000000D+00  0.0000000000000D+00  0.0000000000000D+00
   391  3.9000000000000D+00  0.0000000000000D+00  0.0000000000000D+00
   392  3.9100000000000D+00  0.0000000000000D+00  0.0000000000000D+00
   393  3.9200000000000D+00  0.0000000000000D+00  0.0000000000000D+00
   394  3.9300000000000D+00  0.0000000000000D+00  0.0000000000000D+00
   395  3.9400000000000D+00  0.0000000000000D+00  0.0000000000000D+00
   396  3.9500000000000D+00  0.0000000000000D+00  0.0000000000000D+00
   397  3.9600000000000D+00  0.0000000000000D+00  0.0000000000000D+00
   398  3.9700000000000D+00  0.0000000000000D+00  0.0000000000000D+00
   399  3.9800000000000D+00  0.0000000000000D+00  0.0000000000000D+00
   400  3.9900000000000D+00  0.0000000000000D+00  0.0000000000000D+00
   401  4.0000000000000D+00  0.0000000000000D+00  0.0000000000000D+00
   402  4.0100000000000D+00  0.0000000000000D+00  0.0000000000000D+00
   403  4.0200000000000D+00  0.0000000000000D+00  0.0000000000000D+00
   404  4.0300000000000D+00  0.0000000000000D+00  0.0000000000000D+00
   405  4.0400000000000D+00  0.0000000000000D+00  0.0000000000000D+00
   406  4.0500000000000D+00  0.0000000000000D+00  0.0000000000000D+00
   407  4.0600000000000D+00  0.0000000000000D+00  0.0000000000000D+00
   408  4.0700000000000D+00  0.0000000000000D+00  0.0000000000000D+00
   409  4.0800000000000D+00  0.0000000000000D+00  0.0000000000000D+00
   410  4.0900000000000D+00  0.0000000000000D+00  0.0000000000000D+00
   411  4.1000000000000D+00  0.0000000000000D+00  0.0000000000000D+00
   412  4.1100000000000D+00  0.0000000000000D+00  0.0000000000000D+00
   413  4.1200000000000D+00  0.0000000000000D+00  0.0000000000000D+00
   414  4.1300000000000D+00  0.0000000000000D+00  0.0000000000000D+00
   415  4.1400000000000D+00  0.0000000000000D+00  0.0000000000000D+00
   416  4.1500000000000D+00  0.0000000000000D+00  0.0000000000000D+00
   417  4.1600000000000D+00  0.0000000000000D+00  0.0000000000000D+00
   418  4.1700000000000D+00  0.0000000000000D+00  0.0000000000000D+00
   419  4.1800000000000D+00  0.0000000000000D+00  0.0000000000000D+00
   420  4.1900000000000D+00  0.0000000000000D+00  0.0000000000000D+00
   421  4.2000000000000D+00  0.0000000000000D+00  0.0000000000000D+00
   422  4.2100000000000D+00  0.0000000000000D+00  0.0000000000000D+00