Rh    ONCVPSP-3.3.1  r_core=   2.40816   2.58683   2.58683
     45.0000     17.0000      210904    zatom,zion,pspd
     8       2   2     4   600     0    pspcod,pspxc,lmax,lloc,mmax,r2well
  5.99000000  0.00000000  0.00000000    rchrg fchrg qchrg
     2     2     2     0     0    nproj
     1     1           extension_switch
   0                         4.2792304308267D+00  7.7472708046347D-01
     1  0.0000000000000D+00  4.0784042809605D-13 -8.9690338489490D-12
     2  1.0000000000000D-02  5.3838777013931D-02 -1.1994270421861D-03
     3  2.0000000000000D-02  1.0760050670642D-01 -2.3831619137924D-03
     4  3.0000000000000D-02  1.6120825767393D-01 -3.5354738472609D-03
     5  4.0000000000000D-02  2.1458533022548D-01 -4.6405553278349D-03
     6  5.0000000000000D-02  2.6765537193082D-01 -5.6824848346257D-03
     7  6.0000000000000D-02  3.2034249279845D-01 -6.6451909129787D-03
     8  7.0000000000000D-02  3.7257137995987D-01 -7.5124180114818D-03
     9  8.0000000000000D-02  4.2426741173565D-01 -8.2676945079918D-03
    10  9.0000000000000D-02  4.7535677095876D-01 -8.8943033379836D-03
    11  1.0000000000000D-01  5.2576655742983D-01 -9.3752556252559D-03
    12  1.1000000000000D-01  5.7542489937827D-01 -9.6932676996259D-03
    13  1.2000000000000D-01  6.2426106380268D-01 -9.8307418688325D-03
    14  1.3000000000000D-01  6.7220556556277D-01 -9.7697512923699D-03
    15  1.4000000000000D-01  7.1919027509429D-01 -9.4920292834982D-03
    16  1.5000000000000D-01  7.6514852461739D-01 -8.9789633424117D-03
    17  1.6000000000000D-01  8.1001521270762D-01 -8.2115941982627D-03
    18  1.7000000000000D-01  8.5372690709775D-01 -7.1706201109147D-03
    19  1.8000000000000D-01  8.9622194557719D-01 -5.8364066545845D-03
    20  1.9000000000000D-01  9.3744053485469D-01 -4.1890021754695D-03
    21  2.0000000000000D-01  9.7732484724831D-01 -2.2081590837174D-03
    22  2.1000000000000D-01  1.0158191150657D+00  1.2663889285796D-04
    23  2.2000000000000D-01  1.0528697225361D+00  2.8361434001778D-03
    24  2.3000000000000D-01  1.0884252951539D+00  5.9413020366934D-03
    25  2.4000000000000D-01  1.1224367862923D+00  9.4632127981567D-03
    26  2.5000000000000D-01  1.1548575609453D+00  1.3423072404245D-02
    27  2.6000000000000D-01  1.1856434764521D+00  1.7842118560705D-02
    28  2.7000000000000D-01  1.2147529600608D+00  2.2741566249315D-02
    29  2.8000000000000D-01  1.2421470831832D+00  2.8142538176633D-02
    30  2.9000000000000D-01  1.2677896321944D+00  3.4065989551639D-02
    31  3.0000000000000D-01  1.2916471756284D+00  4.0532627401461D-02
    32  3.1000000000000D-01  1.3136891276205D+00  4.7562824673224D-02
    33  3.2000000000000D-01  1.3338878074480D+00  5.5176529408846D-02
    34  3.3000000000000D-01  1.3522184950187D+00  6.3393169317385D-02
    35  3.4000000000000D-01  1.3686594821579D+00  7.2231552107211D-02
    36  3.5000000000000D-01  1.3831921195448D+00  8.1709761976403D-02
    37  3.6000000000000D-01  1.3958008591500D+00  9.1845052695289D-02
    38  3.7000000000000D-01  1.4064732920270D+00  1.0265373774879D-01
    39  3.8000000000000D-01  1.4152001813115D+00  1.1415107803887D-01
    40  3.9000000000000D-01  1.4219754902855D+00  1.2635116767787D-01
    41  4.0000000000000D-01  1.4267964053653D+00  1.3926681843230D-01
    42  4.1000000000000D-01  1.4296633538751D+00  1.5290944340337D-01
    43  4.2000000000000D-01  1.4305800164730D+00  1.6728894055441D-01
    44  4.3000000000000D-01  1.4295533340988D+00  1.8241357671766D-01
    45  4.4000000000000D-01  1.4265935093197D+00  1.9828987273116D-01
    46  4.5000000000000D-01  1.4217140019548D+00  2.1492249037307D-01
    47  4.6000000000000D-01  1.4149315188662D+00  2.3231412177371D-01
    48  4.7000000000000D-01  1.4062659978118D+00  2.5046538199519D-01
    49  4.8000000000000D-01  1.3957405852619D+00  2.6937470547519D-01
    50  4.9000000000000D-01  1.3833816080931D+00  2.8903824703419D-01
    51  5.0000000000000D-01  1.3692185390796D+00  3.0944978814501D-01
    52  5.1000000000000D-01  1.3532839561145D+00  3.3060064915891D-01
    53  5.2000000000000D-01  1.3356134951058D+00  3.5247960817443D-01
    54  5.3000000000000D-01  1.3162457965008D+00  3.7507282722306D-01
    55  5.4000000000000D-01  1.2952224454102D+00  3.9836378642987D-01
    56  5.5000000000000D-01  1.2725879053135D+00  4.2233322678720D-01
    57  5.6000000000000D-01  1.2483894453444D+00  4.4695910215582D-01
    58  5.7000000000000D-01  1.2226770611695D+00  4.7221654107997D-01
    59  5.8000000000000D-01  1.1955033894911D+00  4.9807781897100D-01
    60  5.9000000000000D-01  1.1669236162207D+00  5.2451234117880D-01
    61  6.0000000000000D-01  1.1369953783894D+00  5.5148663743104D-01
    62  6.1000000000000D-01  1.1057786598802D+00  5.7896436807664D-01
    63  6.2000000000000D-01  1.0733356810837D+00  6.0690634252440D-01
    64  6.3000000000000D-01  1.0397307826034D+00  6.3527055021668D-01
    65  6.4000000000000D-01  1.0050303031535D+00  6.6401220442599D-01
    66  6.5000000000000D-01  9.6930245181421D-01  6.9308379910547D-01
    67  6.6000000000000D-01  9.3261717483172D-01  7.2243517896591D-01
    68  6.7000000000000D-01  8.9504601717044D-01  7.5201362289043D-01
    69  6.8000000000000D-01  8.5666197904774D-01  7.8176394073428D-01
    70  6.9000000000000D-01  8.1753936770284D-01  8.1162858349166D-01
    71  7.0000000000000D-01  7.7775364467384D-01  8.4154776674419D-01
    72  7.1000000000000D-01  7.3738126887829D-01  8.7145960723722D-01
    73  7.2000000000000D-01  6.9649953581478D-01  9.0130027236030D-01
    74  7.3000000000000D-01  6.5518641322384D-01  9.3100414223799D-01
    75  7.4000000000000D-01  6.1352037356770D-01  9.6050398406679D-01
    76  7.5000000000000D-01  5.7158022370851D-01  9.8973113826321D-01
    77  7.6000000000000D-01  5.2944493218414D-01  1.0186157159184D+00
    78  7.7000000000000D-01  4.8719345449974D-01  1.0470868069851D+00
    79  7.8000000000000D-01  4.4490455687086D-01  1.0750726985561D+00
    80  7.9000000000000D-01  4.0265663887071D-01  1.1025011025250D+00
    81  8.0000000000000D-01  3.6052755545002D-01  1.1292993918581D+00
    82  8.1000000000000D-01  3.1859443881194D-01  1.1553948446437D+00
    83  8.2000000000000D-01  2.7693352063752D-01  1.1807148950267D+00
    84  8.3000000000000D-01  2.3561995516869D-01  1.2051873900787D+00
    85  8.4000000000000D-01  1.9472764366539D-01  1.2287408516059D+00
    86  8.5000000000000D-01  1.5432906076144D-01  1.2513047418453D+00
    87  8.6000000000000D-01  1.1449508324995D-01  1.2728097319572D+00
    88  8.7000000000000D-01  7.5294821833510D-02  1.2931879721835D+00
    89  8.8000000000000D-01  3.6795456376272D-02  1.3123733625071D+00
    90  8.9000000000000D-01 -9.3792480442473D-04  1.3303018226168D+00
    91  9.0000000000000D-01 -3.7842481071370D-02  1.3469115599613D+00
    92  9.1000000000000D-01 -7.3857770494405D-02  1.3621433346555D+00
    93  9.2000000000000D-01 -1.0892589524592D-01  1.3759407199930D+00
    94  9.3000000000000D-01 -1.4299164084865D-01  1.3882503573097D+00
    95  9.4000000000000D-01 -1.7600260877030D-01  1.3990222039465D+00
    96  9.5000000000000D-01 -2.0790934187307D-01  1.4082097730635D+00
    97  9.6000000000000D-01 -2.3866544224122D-01  1.4157703640728D+00
    98  9.7000000000000D-01 -2.6822768092828D-01  1.4216652824748D+00
    99  9.8000000000000D-01 -2.9655609918475D-01  1.4258600479099D+00
   100  9.9000000000000D-01 -3.2361410075016D-01  1.4283245892682D+00
   101  1.0000000000000D+00 -3.4936853481720D-01  1.4290334257397D+00
   102  1.0100000000000D+00 -3.7378976930250D-01  1.4279658327306D+00
   103  1.0200000000000D+00 -3.9685175408667D-01  1.4251059916220D+00
   104  1.0300000000000D+00 -4.1853207391682D-01  1.4204431224047D+00
   105  1.0400000000000D+00 -4.3881199069767D-01  1.4139715982851D+00
   106  1.0500000000000D+00 -4.5767647492849D-01  1.4056910414215D+00
   107  1.0600000000000D+00 -4.7511422608200D-01  1.3956063990270D+00
   108  1.0700000000000D+00 -4.9111768175560D-01  1.3837279991491D+00
   109  1.0800000000000D+00 -5.0568301546355D-01  1.3700715855168D+00
   110  1.0900000000000D+00 -5.1881012298052D-01  1.3546583309359D+00
   111  1.1000000000000D+00 -5.3050259717973D-01  1.3375148287891D+00
   112  1.1100000000000D+00 -5.4076769135850D-01  1.3186730623061D+00
   113  1.1200000000000D+00 -5.4961627107837D-01  1.2981703513486D+00
   114  1.1300000000000D+00 -5.5706275459378D-01  1.2760492765639D+00
   115  1.1400000000000D+00 -5.6312504197759D-01  1.2523575808423D+00
   116  1.1500000000000D+00 -5.6782443310029D-01  1.2271480481254D+00
   117  1.1600000000000D+00 -5.7118553465762D-01  1.2004783597083D+00
   118  1.1700000000000D+00 -5.7323615648646D-01  1.1724109282843D+00
   119  1.1800000000000D+00 -5.7400719743682D-01  1.1430127100522D+00
   120  1.1900000000000D+00 -5.7353252112217D-01  1.1123549953408D+00
   121  1.2000000000000D+00 -5.7184882190071D-01  1.0805131782804D+00
   122  1.2100000000000D+00 -5.6899548147759D-01  1.0475665061485D+00
   123  1.2200000000000D+00 -5.6501441654859D-01  1.0135978090930D+00
   124  1.2300000000000D+00 -5.5994991795099D-01  9.7869321105597D-01
   125  1.2400000000000D+00 -5.5384848181423D-01  9.4294182278986D-01
   126  1.2500000000000D+00 -5.4675863321843D-01  9.0643541790228D-01
   127  1.2600000000000D+00 -5.3873074292160D-01  8.6926809300447D-01
   128  1.2700000000000D+00 -5.2981683772754D-01  8.3153591307506D-01
   129  1.2800000000000D+00 -5.2007040507968D-01  7.9333654318386D-01
   130  1.2900000000000D+00 -5.0954619250805D-01  7.5476886784183D-01
   131  1.3000000000000D+00 -4.9830000256094D-01  7.1593259926189D-01
   132  1.3100000000000D+00 -4.8638848386045D-01  6.7692787583340D-01
   133  1.3200000000000D+00 -4.7386891895219D-01  6.3785485221400D-01
   134  1.3300000000000D+00 -4.6079900961020D-01  5.9881328242549D-01
   135  1.3400000000000D+00 -4.4723666027151D-01  5.5990209737176D-01
   136  1.3500000000000D+00 -4.3323976027884D-01  5.2121897823981D-01
   137  1.3600000000000D+00 -4.1886596560085D-01  4.8285992721600D-01
   138  1.3700000000000D+00 -4.0417248071147D-01  4.4491883699097D-01
   139  1.3800000000000D+00 -3.8921584127873D-01  4.0748706047925D-01
   140  1.3900000000000D+00 -3.7405169833178D-01  3.7065298220733D-01
   141  1.4000000000000D+00 -3.5873460454510D-01  3.3450159278507D-01
   142  1.4100000000000D+00 -3.4331780324862D-01  2.9911406780796D-01
   143  1.4200000000000D+00 -3.2785302081207D-01  2.6456735262417D-01
   144  1.4300000000000D+00 -3.1239026293765D-01  2.3093375417047D-01
   145  1.4400000000000D+00 -2.9697761547021D-01  1.9828054123186D-01
   146  1.4500000000000D+00 -2.8166105024206D-01  1.6666955429536D-01
   147  1.4600000000000D+00 -2.6648423643678D-01  1.3615682609045D-01
   148  1.4700000000000D+00 -2.5148835802212D-01  1.0679221405771D-01
   149  1.4800000000000D+00 -2.3671192695359D-01  7.8619007719309D-02
   150  1.4900000000000D+00 -2.2219065121477D-01  5.1673720230776D-02
   151  1.5000000000000D+00 -2.0795741921836D-01  2.5986281974351D-02
   152  1.5100000000000D+00 -1.9404133440516D-01  1.5768489045959D-03
   153  1.5200000000000D+00 -1.8046772185218D-01 -2.1543944359323D-02
   154  1.5300000000000D+00 -1.6726283855832D-01 -4.3358059484740D-02
   155  1.5400000000000D+00 -1.5444936925070D-01 -6.3855806176804D-02
   156  1.5500000000000D+00 -1.4203341073562D-01 -8.3081939551252D-02
   157  1.5600000000000D+00 -1.3001973210952D-01 -1.0108121022860D-01
   158  1.5700000000000D+00 -1.1842579279480D-01 -1.1784829863783D-01
   159  1.5800000000000D+00 -1.0726748158123D-01 -1.3337920094673D-01
   160  1.5900000000000D+00 -9.6553297455699D-02 -1.4769237260353D-01
   161  1.6000000000000D+00 -8.6290365521264D-02 -1.6080711088097D-01
   162  1.6100000000000D+00 -7.6485065172592D-02 -1.7274137459852D-01
   163  1.6200000000000D+00 -6.7141818673569D-02 -1.8351627392555D-01
   164  1.6300000000000D+00 -5.8263294244443D-02 -1.9315544597374D-01
   165  1.6400000000000D+00 -4.9850558547984D-02 -2.0168461917451D-01
   166  1.6500000000000D+00 -4.1903108222276D-02 -2.0913161814614D-01
   167  1.6600000000000D+00 -3.4418929722478D-02 -2.1552626979926D-01
   168  1.6700000000000D+00 -2.7394562702920D-02 -2.2090029980843D-01
   169  1.6800000000000D+00 -2.0825166670245D-02 -2.2528722008533D-01
   170  1.6900000000000D+00 -1.4704590658090D-02 -2.2872220784723D-01
   171  1.7000000000000D+00 -9.0254455839100D-03 -2.3124197714720D-01
   172  1.7100000000000D+00 -3.7791790068255D-03 -2.3288464355136D-01
   173  1.7200000000000D+00  1.0438480524924D-03 -2.3368958282880D-01
   174  1.7300000000000D+00  5.4542825461641D-03 -2.3369728444051D-01
   175  1.7400000000000D+00  9.4636994201781D-03 -2.3294920067931D-01
   176  1.7500000000000D+00  1.3084520561977D-02 -2.3148759231464D-01
   177  1.7600000000000D+00  1.6329932995019D-02 -2.2935537156242D-01
   178  1.7700000000000D+00  1.9213806681217D-02 -2.2659594330370D-01
   179  1.7800000000000D+00  2.1750612247521D-02 -2.2325304535771D-01
   180  1.7900000000000D+00  2.3955338976467D-02 -2.1937058868697D-01
   181  1.8000000000000D+00  2.5843413401228D-02 -2.1499249839918D-01
   182  1.8100000000000D+00  2.7430618781650D-02 -2.1016255627102D-01
   183  1.8200000000000D+00  2.8733015872063D-02 -2.0492424583716D-01
   184  1.8300000000000D+00  2.9766865121938D-02 -1.9932060042464D-01
   185  1.8400000000000D+00  3.0548550850954D-02 -1.9339405551509D-01
   186  1.8500000000000D+00  3.1094507344994D-02 -1.8718630531149D-01
   187  1.8600000000000D+00  3.1421147552157D-02 -1.8073816525389D-01
   188  1.8700000000000D+00  3.1544794192931D-02 -1.7408944001128D-01
   189  1.8800000000000D+00  3.1481613940336D-02 -1.6727879864392D-01
   190  1.8900000000000D+00  3.1247554547935D-02 -1.6034365661966D-01
   191  1.9000000000000D+00  3.0858285359305D-02 -1.5332006580949D-01
   192  1.9100000000000D+00  3.0329141313028D-02 -1.4624261275536D-01
   193  1.9200000000000D+00  2.9675070481814D-02 -1.3914432530898D-01
   194  1.9300000000000D+00  2.8910585657546D-02 -1.3205658897275D-01
   195  1.9400000000000D+00  2.8049719488442D-02 -1.2500907164823D-01
   196  1.9500000000000D+00  2.7105984088614D-02 -1.1802965919566D-01
   197  1.9600000000000D+00  2.6092334342324D-02 -1.1114439976237D-01
   198  1.9700000000000D+00  2.5021135688701D-02 -1.0437745893531D-01
   199  1.9800000000000D+00  2.3904135971172D-02 -9.7751084621345D-02
   200  1.9900000000000D+00  2.2752441474026D-02 -9.1285581971684D-02
   201  2.0000000000000D+00  2.1576497435150D-02 -8.4999299104481D-02
   202  2.0100000000000D+00  2.0386072318617D-02 -7.8908621737225D-02
   203  2.0200000000000D+00  1.9190246769555D-02 -7.3027979149554D-02
   204  2.0300000000000D+00  1.7997406193280D-02 -6.7369858688014D-02
   205  2.0400000000000D+00  1.6815237603691D-02 -6.1944830504592D-02
   206  2.0500000000000D+00  1.5650730330937D-02 -5.6761581445012D-02
   207  2.0600000000000D+00  1.4510180287803D-02 -5.1826957290712D-02
   208  2.0700000000000D+00  1.3399198231246D-02 -4.7146014497421D-02
   209  2.0800000000000D+00  1.2322721063081D-02 -4.2722078910567D-02
   210  2.0900000000000D+00  1.1285026748474D-02 -3.8556812973047D-02
   211  2.1000000000000D+00  1.0289752182496D-02 -3.4650289659813D-02
   212  2.1100000000000D+00  9.3399138673818D-03 -3.1001072772463D-02
   213  2.1200000000000D+00  8.4379314962596D-03 -2.7606303837380D-02
   214  2.1300000000000D+00  7.5856536949580D-03 -2.4461793641333D-02
   215  2.1400000000000D+00  6.7843861881541D-03 -2.1562119089225D-02
   216  2.1500000000000D+00  6.0349218377199D-03 -1.8900723935730D-02
   217  2.1600000000000D+00  5.3375723408806D-03 -1.6470022827069D-02
   218  2.1700000000000D+00  4.6922014765003D-03 -1.4261508342990D-02
   219  2.1800000000000D+00  4.0982594652151D-03 -1.2265859915315D-02
   220  2.1900000000000D+00  3.5548182637873D-03 -1.0473054122113D-02
   221  2.2000000000000D+00  3.0606075112206D-03 -8.8724756241293D-03
   222  2.2100000000000D+00  2.6140509356565D-03 -7.4530282514647D-03
   223  2.2200000000000D+00  2.2133027324352D-03 -6.2032449108987D-03
   224  2.2300000000000D+00  1.8562839928598D-03 -5.1113965705721D-03
   225  2.2400000000000D+00  1.5407186743545D-03 -4.1655989493053D-03
   226  2.2500000000000D+00  1.2641687957264D-03 -3.3539160733050D-03
   227  2.2600000000000D+00  1.0240691480701D-03 -2.6644615120763D-03
   228  2.2700000000000D+00  8.1776047010028D-04 -2.0854944607341D-03
   229  2.2800000000000D+00  6.4252146888976D-04 -1.6055117222022D-03
   230  2.2900000000000D+00  4.9559965156576D-04 -1.2133355131129D-03
   231  2.3000000000000D+00  3.7423974971212D-04 -8.9819381912436D-04
   232  2.3100000000000D+00  2.7571085411987D-04 -6.4979633717149D-04
   233  2.3200000000000D+00  1.9733136376093D-04 -4.5840360227273D-04
   234  2.3300000000000D+00  1.3649130533724D-04 -3.1492248259973D-04
   235  2.3400000000000D+00  9.0672877343333D-05 -2.1084403894719D-04
   236  2.3500000000000D+00  5.7468226235243D-05 -1.3837364230131D-04
   237  2.3600000000000D+00  3.4542216371581D-05 -9.0197321237068D-05
   238  2.3700000000000D+00  1.9844865903094D-05 -6.0823256053338D-05
   239  2.3800000000000D+00  1.1426489117203D-05 -4.5246600141729D-05
   240  2.3900000000000D+00  7.6492529981492D-06 -3.9815270637936D-05
   241  2.4000000000000D+00  6.1743573373144D-06 -3.7161612214890D-05
   242  2.4100000000000D+00  5.1766384459959D-06 -3.1902343816878D-05
   243  2.4200000000000D+00  3.3205021041880D-06 -2.0367141147255D-05
   244  2.4300000000000D+00  1.2621000213085D-06 -7.5968614554682D-06
   245  2.4400000000000D+00 -2.4043543082194D-07  1.5371045626534D-06
   246  2.4500000000000D+00 -5.5185478639597D-07  3.5231195333968D-06
   247  2.4600000000000D+00 -2.8863725031148D-07  1.8375647432516D-06
   248  2.4700000000000D+00  5.2497780158951D-08 -3.5494032523380D-07
   249  2.4800000000000D+00  1.1324727468075D-07 -7.6980134074152D-07
   250  2.4900000000000D+00  6.0032273419633D-08 -4.0990603157922D-07
   251  2.5000000000000D+00 -7.3491843390790D-09  4.5175236723936D-08
   252  2.5100000000000D+00 -1.5495780950973D-08  9.5252145052361D-08
   253  2.5200000000000D+00 -8.4436683135370D-09  5.1903000017855D-08
   254  2.5300000000000D+00  0.0000000000000D+00  0.0000000000000D+00
   255  2.5400000000000D+00  0.0000000000000D+00  0.0000000000000D+00
   256  2.5500000000000D+00  0.0000000000000D+00  0.0000000000000D+00
   257  2.5600000000000D+00  0.0000000000000D+00  0.0000000000000D+00
   258  2.5700000000000D+00  0.0000000000000D+00  0.0000000000000D+00
   259  2.5800000000000D+00  0.0000000000000D+00  0.0000000000000D+00
   260  2.5900000000000D+00  0.0000000000000D+00  0.0000000000000D+00
   261  2.6000000000000D+00  0.0000000000000D+00  0.0000000000000D+00
   262  2.6100000000000D+00  0.0000000000000D+00  0.0000000000000D+00
   263  2.6200000000000D+00  0.0000000000000D+00  0.0000000000000D+00
   264  2.6300000000000D+00  0.0000000000000D+00  0.0000000000000D+00
   265  2.6400000000000D+00  0.0000000000000D+00  0.0000000000000D+00
   266  2.6500000000000D+00  0.0000000000000D+00  0.0000000000000D+00
   267  2.6600000000000D+00  0.0000000000000D+00  0.0000000000000D+00
   268  2.6700000000000D+00  0.0000000000000D+00  0.0000000000000D+00
   269  2.6800000000000D+00  0.0000000000000D+00  0.0000000000000D+00
   270  2.6900000000000D+00  0.0000000000000D+00  0.0000000000000D+00
   271  2.7000000000000D+00  0.0000000000000D+00  0.0000000000000D+00
   272  2.7100000000000D+00  0.0000000000000D+00  0.0000000000000D+00
   273  2.7200000000000D+00  0.0000000000000D+00  0.0000000000000D+00
   274  2.7300000000000D+00  0.0000000000000D+00  0.0000000000000D+00
   275  2.7400000000000D+00  0.0000000000000D+00  0.0000000000000D+00
   276  2.7500000000000D+00  0.0000000000000D+00  0.0000000000000D+00
   277  2.7600000000000D+00  0.0000000000000D+00  0.0000000000000D+00
   278  2.7700000000000D+00  0.0000000000000D+00  0.0000000000000D+00
   279  2.7800000000000D+00  0.0000000000000D+00  0.0000000000000D+00
   280  2.7900000000000D+00  0.0000000000000D+00  0.0000000000000D+00
   281  2.8000000000000D+00  0.0000000000000D+00  0.0000000000000D+00
   282  2.8100000000000D+00  0.0000000000000D+00  0.0000000000000D+00
   283  2.8200000000000D+00  0.0000000000000D+00  0.0000000000000D+00
   284  2.8300000000000D+00  0.0000000000000D+00  0.0000000000000D+00
   285  2.8400000000000D+00  0.0000000000000D+00  0.0000000000000D+00
   286  2.8500000000000D+00  0.0000000000000D+00  0.0000000000000D+00
   287  2.8600000000000D+00  0.0000000000000D+00  0.0000000000000D+00
   288  2.8700000000000D+00  0.0000000000000D+00  0.0000000000000D+00
   289  2.8800000000000D+00  0.0000000000000D+00  0.0000000000000D+00
   290  2.8900000000000D+00  0.0000000000000D+00  0.0000000000000D+00
   291  2.9000000000000D+00  0.0000000000000D+00  0.0000000000000D+00
   292  2.9100000000000D+00  0.0000000000000D+00  0.0000000000000D+00
   293  2.9200000000000D+00  0.0000000000000D+00  0.0000000000000D+00
   294  2.9300000000000D+00  0.0000000000000D+00  0.0000000000000D+00
   295  2.9400000000000D+00  0.0000000000000D+00  0.0000000000000D+00
   296  2.9500000000000D+00  0.0000000000000D+00  0.0000000000000D+00
   297  2.9600000000000D+00  0.0000000000000D+00  0.0000000000000D+00
   298  2.9700000000000D+00  0.0000000000000D+00  0.0000000000000D+00
   299  2.9800000000000D+00  0.0000000000000D+00  0.0000000000000D+00
   300  2.9900000000000D+00  0.0000000000000D+00  0.0000000000000D+00
   301  3.0000000000000D+00  0.0000000000000D+00  0.0000000000000D+00
   302  3.0100000000000D+00  0.0000000000000D+00  0.0000000000000D+00
   303  3.0200000000000D+00  0.0000000000000D+00  0.0000000000000D+00
   304  3.0300000000000D+00  0.0000000000000D+00  0.0000000000000D+00
   305  3.0400000000000D+00  0.0000000000000D+00  0.0000000000000D+00
   306  3.0500000000000D+00  0.0000000000000D+00  0.0000000000000D+00
   307  3.0600000000000D+00  0.0000000000000D+00  0.0000000000000D+00
   308  3.0700000000000D+00  0.0000000000000D+00  0.0000000000000D+00
   309  3.0800000000000D+00  0.0000000000000D+00  0.0000000000000D+00
   310  3.0900000000000D+00  0.0000000000000D+00  0.0000000000000D+00
   311  3.1000000000000D+00  0.0000000000000D+00  0.0000000000000D+00
   312  3.1100000000000D+00  0.0000000000000D+00  0.0000000000000D+00
   313  3.1200000000000D+00  0.0000000000000D+00  0.0000000000000D+00
   314  3.1300000000000D+00  0.0000000000000D+00  0.0000000000000D+00
   315  3.1400000000000D+00  0.0000000000000D+00  0.0000000000000D+00
   316  3.1500000000000D+00  0.0000000000000D+00  0.0000000000000D+00
   317  3.1600000000000D+00  0.0000000000000D+00  0.0000000000000D+00
   318  3.1700000000000D+00  0.0000000000000D+00  0.0000000000000D+00
   319  3.1800000000000D+00  0.0000000000000D+00  0.0000000000000D+00
   320  3.1900000000000D+00  0.0000000000000D+00  0.0000000000000D+00
   321  3.2000000000000D+00  0.0000000000000D+00  0.0000000000000D+00
   322  3.2100000000000D+00  0.0000000000000D+00  0.0000000000000D+00
   323  3.2200000000000D+00  0.0000000000000D+00  0.0000000000000D+00
   324  3.2300000000000D+00  0.0000000000000D+00  0.0000000000000D+00
   325  3.2400000000000D+00  0.0000000000000D+00  0.0000000000000D+00
   326  3.2500000000000D+00  0.0000000000000D+00  0.0000000000000D+00
   327  3.2600000000000D+00  0.0000000000000D+00  0.0000000000000D+00
   328  3.2700000000000D+00  0.0000000000000D+00  0.0000000000000D+00
   329  3.2800000000000D+00  0.0000000000000D+00  0.0000000000000D+00
   330  3.2900000000000D+00  0.0000000000000D+00  0.0000000000000D+00
   331  3.3000000000000D+00  0.0000000000000D+00  0.0000000000000D+00
   332  3.3100000000000D+00  0.0000000000000D+00  0.0000000000000D+00
   333  3.3200000000000D+00  0.0000000000000D+00  0.0000000000000D+00
   334  3.3300000000000D+00  0.0000000000000D+00  0.0000000000000D+00
   335  3.3400000000000D+00  0.0000000000000D+00  0.0000000000000D+00
   336  3.3500000000000D+00  0.0000000000000D+00  0.0000000000000D+00
   337  3.3600000000000D+00  0.0000000000000D+00  0.0000000000000D+00
   338  3.3700000000000D+00  0.0000000000000D+00  0.0000000000000D+00
   339  3.3800000000000D+00  0.0000000000000D+00  0.0000000000000D+00
   340  3.3900000000000D+00  0.0000000000000D+00  0.0000000000000D+00
   341  3.4000000000000D+00  0.0000000000000D+00  0.0000000000000D+00
   342  3.4100000000000D+00  0.0000000000000D+00  0.0000000000000D+00
   343  3.4200000000000D+00  0.0000000000000D+00  0.0000000000000D+00
   344  3.4300000000000D+00  0.0000000000000D+00  0.0000000000000D+00
   345  3.4400000000000D+00  0.0000000000000D+00  0.0000000000000D+00
   346  3.4500000000000D+00  0.0000000000000D+00  0.0000000000000D+00
   347  3.4600000000000D+00  0.0000000000000D+00  0.0000000000000D+00
   348  3.4700000000000D+00  0.0000000000000D+00  0.0000000000000D+00
   349  3.4800000000000D+00  0.0000000000000D+00  0.0000000000000D+00
   350  3.4900000000000D+00  0.0000000000000D+00  0.0000000000000D+00
   351  3.5000000000000D+00  0.0000000000000D+00  0.0000000000000D+00
   352  3.5100000000000D+00  0.0000000000000D+00  0.0000000000000D+00
   353  3.5200000000000D+00  0.0000000000000D+00  0.0000000000000D+00
   354  3.5300000000000D+00  0.0000000000000D+00  0.0000000000000D+00
   355  3.5400000000000D+00  0.0000000000000D+00  0.0000000000000D+00
   356  3.5500000000000D+00  0.0000000000000D+00  0.0000000000000D+00
   357  3.5600000000000D+00  0.0000000000000D+00  0.0000000000000D+00
   358  3.5700000000000D+00  0.0000000000000D+00  0.0000000000000D+00
   359  3.5800000000000D+00  0.0000000000000D+00  0.0000000000000D+00
   360  3.5900000000000D+00  0.0000000000000D+00  0.0000000000000D+00
   361  3.6000000000000D+00  0.0000000000000D+00  0.0000000000000D+00
   362  3.6100000000000D+00  0.0000000000000D+00  0.0000000000000D+00
   363  3.6200000000000D+00  0.0000000000000D+00  0.0000000000000D+00
   364  3.6300000000000D+00  0.0000000000000D+00  0.0000000000000D+00
   365  3.6400000000000D+00  0.0000000000000D+00  0.0000000000000D+00
   366  3.6500000000000D+00  0.0000000000000D+00  0.0000000000000D+00
   367  3.6600000000000D+00  0.0000000000000D+00  0.0000000000000D+00
   368  3.6700000000000D+00  0.0000000000000D+00  0.0000000000000D+00
   369  3.6800000000000D+00  0.0000000000000D+00  0.0000000000000D+00
   370  3.6900000000000D+00  0.0000000000000D+00  0.0000000000000D+00
   371  3.7000000000000D+00  0.0000000000000D+00  0.0000000000000D+00
   372  3.7100000000000D+00  0.0000000000000D+00  0.0000000000000D+00
   373  3.7200000000000D+00  0.0000000000000D+00  0.0000000000000D+00
   374  3.7300000000000D+00  0.0000000000000D+00  0.0000000000000D+00
   375  3.7400000000000D+00  0.0000000000000D+00  0.0000000000000D+00
   376  3.7500000000000D+00  0.0000000000000D+00  0.0000000000000D+00
   377  3.7600000000000D+00  0.0000000000000D+00  0.0000000000000D+00
   378  3.7700000000000D+00  0.0000000000000D+00  0.0000000000000D+00
   379  3.7800000000000D+00  0.0000000000000D+00  0.0000000000000D+00
   380  3.7900000000000D+00  0.0000000000000D+00  0.0000000000000D+00
   381  3.8000000000000D+00  0.0000000000000D+00  0.0000000000000D+00
   382  3.8100000000000D+00  0.0000000000000D+00  0.0000000000000D+00
   383  3.8200000000000D+00  0.0000000000000D+00  0.0000000000000D+00
   384  3.8300000000000D+00  0.0000000000000D+00  0.0000000000000D+00
   385  3.8400000000000D+00  0.0000000000000D+00  0.0000000000000D+00
   386  3.8500000000000D+00  0.0000000000000D+00  0.0000000000000D+00
   387  3.8600000000000D+00  0.0000000000000D+00  0.0000000000000D+00
   388  3.8700000000000D+00  0.0000000000000D+00  0.0000000000000D+00
   389  3.8800000000000D+00  0.0000000000000D+00  0.0000000000000D+00
   390  3.8900000000000D+00  0.0000000000000D+00  0.0000000000000D+00
   391  3.9000000000000D+00  0.0000000000000D+00  0.0000000000000D+00
   392  3.9100000000000D+00  0.0000000000000D+00  0.0000000000000D+00
   393  3.9200000000000D+00  0.0000000000000D+00  0.0000000000000D+00
   394  3.9300000000000D+00  0.0000000000000D+00  0.0000000000000D+00
   395  3.9400000000000D+00  0.0000000000000D+00  0.0000000000000D+00
   396  3.9500000000000D+00  0.0000000000000D+00  0.0000000000000D+00
   397  3.9600000000000D+00  0.0000000000000D+00  0.0000000000000D+00
   398  3.9700000000000D+00  0.0000000000000D+00  0.0000000000000D+00
   399  3.9800000000000D+00  0.0000000000000D+00  0.0000000000000D+00
   400  3.9900000000000D+00  0.0000000000000D+00  0.0000000000000D+00
   401  4.0000000000000D+00  0.0000000000000D+00  0.0000000000000D+00
   402  4.0100000000000D+00  0.0000000000000D+00  0.0000000000000D+00
   403  4.0200000000000D+00  0.0000000000000D+00  0.0000000000000D+00
   404  4.0300000000000D+00  0.0000000000000D+00  0.0000000000000D+00
   405  4.0400000000000D+00  0.0000000000000D+00  0.0000000000000D+00
   406  4.0500000000000D+00  0.0000000000000D+00  0.0000000000000D+00
   407  4.0600000000000D+00  0.0000000000000D+00  0.0000000000000D+00
   408  4.0700000000000D+00  0.0000000000000D+00  0.0000000000000D+00
   409  4.0800000000000D+00  0.0000000000000D+00  0.0000000000000D+00
   410  4.0900000000000D+00  0.0000000000000D+00  0.0000000000000D+00
   411  4.1000000000000D+00  0.0000000000000D+00  0.0000000000000D+00
   412  4.1100000000000D+00  0.0000000000000D+00  0.0000000000000D+00
   413  4.1200000000000D+00  0.0000000000000D+00  0.0000000000000D+00
   414  4.1300000000000D+00  0.0000000000000D+00  0.0000000000000D+00
   415  4.1400000000000D+00  0.0000000000000D+00  0.0000000000000D+00
   416  4.1500000000000D+00  0.0000000000000D+00  0.0000000000000D+00
   417  4.1600000000000D+00  0.0000000000000D+00  0.0000000000000D+00
   418  4.1700000000000D+00  0.0000000000000D+00  0.0000000000000D+00
   419  4.1800000000000D+00  0.0000000000000D+00  0.0000000000000D+00
   420  4.1900000000000D+00  0.0000000000000D+00  0.0000000000000D+00
   421  4.2000000000000D+00  0.0000000000000D+00  0.0000000000000D+00
   422  4.2100000000000D+00  0.0000000000000D+00  0.0000000000000D+00