Rh    ONCVPSP-3.3.1  r_core=   2.40816   2.58683   2.58683
     45.0000     17.0000      210904    zatom,zion,pspd
     8       2   2     4   600     0    pspcod,pspxc,lmax,lloc,mmax,r2well
  5.99000000  0.00000000  0.00000000    rchrg fchrg qchrg
     2     3     3     0    nproj
     3     1           extension_switch
     4     4     0    nprojso
   0                         7.7630643062575D-01  4.2831204894332D+00
     1  0.0000000000000D+00 -8.9458111057761D-12  4.1106007486746D-13
     2  1.0000000000000D-02 -1.2234611955948D-03  5.3818700755962D-02
     3  2.0000000000000D-02 -2.4312063546395D-03  1.0756043969394D-01
     4  3.0000000000000D-02 -3.6074808762860D-03  1.6114837064176D-01
     5  4.0000000000000D-02 -4.7364534777238D-03  2.1450587859649D-01
     6  5.0000000000000D-02 -5.8021789675366D-03  2.6755669500310D-01
     7  6.0000000000000D-02 -6.7885623499854D-03  3.2022501266573D-01
     8  7.0000000000000D-02 -7.6793246934196D-03  3.7243560016849D-01
     9  8.0000000000000D-02 -8.4579711870727D-03  4.2411391568254D-01
    10  9.0000000000000D-02 -9.1077617994507D-03  4.7518622003556D-01
    11  1.0000000000000D-01 -9.6116849381823D-03  5.2557968891910D-01
    12  1.1000000000000D-01 -9.9524344959240D-03  5.7522252410865D-01
    13  1.2000000000000D-01 -1.0112390649362D-02  6.2404406357048D-01
    14  1.3000000000000D-01 -1.0073604758988D-02  6.7197489032829D-01
    15  1.4000000000000D-01 -9.8177886957884D-03  7.1894693996201D-01
    16  1.5000000000000D-01 -9.3263088977226D-03  7.6489360660959D-01
    17  1.6000000000000D-01 -8.5801854336459D-03  8.0974984734190D-01
    18  1.7000000000000D-01 -7.5600963254470D-03  8.5345228477946D-01
    19  1.8000000000000D-01 -6.2463873505100D-03  8.9593930781832D-01
    20  1.9000000000000D-01 -4.6190875165898D-03  9.3715117033130D-01
    21  2.0000000000000D-01 -2.6579303693160D-03  9.7703008770933D-01
    22  2.1000000000000D-01 -3.4238125979828D-04  1.0155203311060D+00
    23  2.2000000000000D-01  2.3483293346025D-03  1.0525683192474D+00
    24  2.3000000000000D-01  5.4351663786453D-03  1.0881227076677D+00
    25  2.4000000000000D-01  8.9392447152658D-03  1.1221344752287D+00
    26  2.5000000000000D-01  1.2881777385180D-02  1.1545570077822D+00
    27  2.6000000000000D-01  1.7284017883772D-02  1.1853461788302D+00
    28  2.7000000000000D-01  2.2167196447417D-02  1.2144604270385D+00
    29  2.8000000000000D-01  2.7552450500242D-02  1.2418608304572D+00
    30  2.9000000000000D-01  3.3460749431378D-02  1.2675111773002D+00
    31  3.0000000000000D-01  3.9912813911776D-02  1.2913780331374D+00
    32  3.1000000000000D-01  4.6929029998686D-02  1.3134308043474D+00
    33  3.2000000000000D-01  5.4529358314330D-02  1.3336417976848D+00
    34  3.3000000000000D-01  6.2733238623526D-02  1.3519862758092D+00
    35  3.4000000000000D-01  7.1559490172245D-02  1.3684425086289D+00
    36  3.5000000000000D-01  8.1026208185527D-02  1.3829918203072D+00
    37  3.6000000000000D-01  9.1150656958418D-02  1.3956186317855D+00
    38  3.7000000000000D-01  1.0194916000763D-01  1.4063104986737D+00
    39  3.8000000000000D-01  1.1343698778396D-01  1.4150581443621D+00
    40  3.9000000000000D-01  1.2562824347617D-01  1.4218554882121D+00
    41  4.0000000000000D-01  1.3853574746576D-01  1.4266996686830D+00
    42  4.1000000000000D-01  1.5217092101870D-01  1.4295910612573D+00
    43  4.2000000000000D-01  1.6654366982426D-01  1.4305332910302D+00
    44  4.3000000000000D-01  1.8166226801309D-01  1.4295332398317D+00
    45  4.4000000000000D-01  1.9753324330519D-01  1.4266010477583D+00
    46  4.5000000000000D-01  2.1416126395510D-01  1.4217501089932D+00
    47  4.6000000000000D-01  2.3154902817408D-01  1.4149970618022D+00
    48  4.7000000000000D-01  2.4969715671932D-01  1.4063617726003D+00
    49  4.8000000000000D-01  2.6860408934644D-01  1.3958673139908D+00
    50  4.9000000000000D-01  2.8826598582446D-01  1.3835399366883D+00
    51  5.0000000000000D-01  3.0867663221187D-01  1.3694090352453D+00
    52  5.1000000000000D-01  3.2982735308799D-01  1.3535071075162D+00
    53  5.2000000000000D-01  3.5170693042561D-01  1.3358697077990D+00
    54  5.3000000000000D-01  3.7430152977890D-01  1.3165353936108D+00
    55  5.4000000000000D-01  3.9759463444452D-01  1.2955456660662D+00
    56  5.5000000000000D-01  4.2156698823399D-01  1.2729449038393D+00
    57  5.6000000000000D-01  4.4619654747159D-01  1.2487802907074D+00
    58  5.7000000000000D-01  4.7145844280399D-01  1.2231017366890D+00
    59  5.8000000000000D-01  4.9732495137652D-01  1.1959617928057D+00
    60  5.9000000000000D-01  5.2376547989488D-01  1.1674155595140D+00
    61  6.0000000000000D-01  5.5074655905239D-01  1.1375205888732D+00
    62  6.1000000000000D-01  5.7823184975924D-01  1.1063367805307D+00
    63  6.2000000000000D-01  6.0618216156442D-01  1.0739262716297D+00
    64  6.3000000000000D-01  6.3455548361048D-01  1.0403533207610D+00
    65  6.4000000000000D-01  6.6330702840865D-01  1.0056841861032D+00
    66  6.5000000000000D-01  6.9238928866567D-01  9.6998699791379D-01
    67  6.6000000000000D-01  7.2175210733470D-01  9.3333162555991D-01
    68  6.7000000000000D-01  7.5134276100171D-01  8.9578953929330D-01
    69  6.8000000000000D-01  7.8110605665478D-01  8.5743366700038D-01
    70  6.9000000000000D-01  8.1098444181828D-01  8.1833824617814D-01
    71  7.0000000000000D-01  8.4091812796675D-01  7.7857867140893D-01
    72  7.1000000000000D-01  8.7084522706474D-01  7.3823133762941D-01
    73  7.2000000000000D-01  9.0070190100906D-01  6.9737347951019D-01
    74  7.3000000000000D-01  9.3042252367990D-01  6.5608300728415D-01
    75  7.4000000000000D-01  9.5993985523654D-01  6.1443833938248D-01
    76  7.5000000000000D-01  9.8918522822320D-01  5.7251823225745D-01
    77  7.6000000000000D-01  1.0180887449804D+00  5.3040160779093D-01
    78  7.7000000000000D-01  1.0465794857881D+00  4.8816737870612D-01
    79  7.8000000000000D-01  1.0745857270995D+00  4.4589427241823D-01
    80  7.9000000000000D-01  1.1020351691570D+00  4.0366065377639D-01
    81  8.0000000000000D-01  1.1288551722203D+00  3.6154434716488D-01
    82  8.1000000000000D-01  1.1549730005710D+00  3.1962245844604D-01
    83  8.2000000000000D-01  1.1803160734032D+00  2.7797119724034D-01
    84  8.3000000000000D-01  1.2048122216524D+00  2.3666570005027D-01
    85  8.4000000000000D-01  1.2283899497613D+00  1.9577985474478D-01
    86  8.5000000000000D-01  1.2509787013363D+00  1.5538612692875D-01
    87  8.6000000000000D-01  1.2725091276035D+00  1.1555538872856D-01
    88  8.7000000000000D-01  1.2929133575310D+00  7.6356750528733D-02
    89  8.8000000000000D-01  1.3121252684560D+00  3.7857396197249D-02
    90  8.9000000000000D-01  1.3300807560205D+00  1.2242233715389D-04
    91  9.0000000000000D-01  1.3467180021990D+00 -3.6785317899753D-02
    92  9.1000000000000D-01  1.3619777401827D+00 -7.2805365905530D-02
    93  9.2000000000000D-01  1.3758035148738D+00 -1.0787980308971D-01
    94  9.3000000000000D-01  1.3881419377355D+00 -1.4195339021726D-01
    95  9.4000000000000D-01  1.3989429347451D+00 -1.7497370010513D-01
    96  9.5000000000000D-01  1.4081599862053D+00 -2.0689124318488D-01
    97  9.6000000000000D-01  1.4157503571775D+00 -2.3765958545426D-01
    98  9.7000000000000D-01  1.4216753173263D+00 -2.6723545835882D-01
    99  9.8000000000000D-01  1.4259003489836D+00 -2.9557886016379D-01
   100  9.9000000000000D-01  1.4283953422788D+00 -3.2265314839965D-01
   101  1.0000000000000D+00  1.4291347762142D+00 -3.4842512298864D-01
   102  1.0100000000000D+00  1.4280978846144D+00 -3.7286509968590D-01
   103  1.0200000000000D+00  1.4252688059255D+00 -3.9594697349764D-01
   104  1.0300000000000D+00  1.4206367158962D+00 -4.1764827176860D-01
   105  1.0400000000000D+00  1.4141959422387D+00 -4.3795019666450D-01
   106  1.0500000000000D+00  1.4059460604264D+00 -4.5683765680591D-01
   107  1.0600000000000D+00  1.3958919698673D+00 -4.7429928784916D-01
   108  1.0700000000000D+00  1.3840439497607D+00 -4.9032746184379D-01
   109  1.0800000000000D+00  1.3704176940289D+00 -5.0491828523477D-01
   110  1.0900000000000D+00  1.3550343248068D+00 -5.1807158541887D-01
   111  1.1000000000000D+00  1.3379203840427D+00 -5.2979088579802D-01
   112  1.1100000000000D+00  1.3191078028771D+00 -5.4008336932167D-01
   113  1.1200000000000D+00  1.2986338485448D+00 -5.4895983054468D-01
   114  1.1300000000000D+00  1.2765410486539D+00 -5.5643461627398D-01
   115  1.1400000000000D+00  1.2528770927745D+00 -5.6252555491167D-01
   116  1.1500000000000D+00  1.2276947113882D+00 -5.6725387465088D-01
   117  1.1600000000000D+00  1.2010515323375D+00 -5.7064411071825D-01
   118  1.1700000000000D+00  1.1730099150251D+00 -5.7272400190240D-01
   119  1.1800000000000D+00  1.1436367626839D+00 -5.7352437663569D-01
   120  1.1900000000000D+00  1.1130033131701D+00 -5.7307902895076D-01
   121  1.2000000000000D+00  1.0811849088101D+00 -5.7142458466409D-01
   122  1.2100000000000D+00  1.0482607459284D+00 -5.6860035817577D-01
   123  1.2200000000000D+00  1.0143136047592D+00 -5.6464820030588D-01
   124  1.2300000000000D+00  9.7942956056333D-01 -5.5961233763236D-01
   125  1.2400000000000D+00  9.4369767684427D-01 -5.5353920382272D-01
   126  1.2500000000000D+00  9.0720968159713D-01 -5.4647726346722D-01
   127  1.2600000000000D+00  8.7005962766630D-01 -5.3847682897384D-01
   128  1.2700000000000D+00  8.3234353832266D-01 -5.2958987109689D-01
   129  1.2800000000000D+00  7.9415903920478D-01 -5.1986982368398D-01
   130  1.2900000000000D+00  7.5560497788987D-01 -5.0937138326834D-01
   131  1.3000000000000D+00  7.1678103237872D-01 -4.9815030413785D-01
   132  1.3100000000000D+00  6.7778730979696D-01 -4.8626318951966D-01
   133  1.3200000000000D+00  6.3872393671597D-01 -4.7376727955046D-01
   134  1.3300000000000D+00  5.9969064247973D-01 -4.6072023669347D-01
   135  1.3400000000000D+00  5.6078633695511D-01 -4.4717992927626D-01
   136  1.3500000000000D+00  5.2210868416618D-01 -4.3320421382802D-01
   137  1.3600000000000D+00  4.8375367324435D-01 -4.1885071688540D-01
   138  1.3700000000000D+00  4.4581518816730D-01 -4.0417661694873D-01
   139  1.3800000000000D+00  4.0838457771228D-01 -3.8923842723875D-01
   140  1.3900000000000D+00  3.7155022707714D-01 -3.7409177992294D-01
   141  1.4000000000000D+00  3.3539713258361D-01 -3.5879121245016D-01
   142  1.4100000000000D+00  3.0000648080993D-01 -3.4338995660278D-01
   143  1.4200000000000D+00  2.6545523358631D-01 -3.2793973091457D-01
   144  1.4300000000000D+00  2.3181572005706D-01 -3.1249053698865D-01
   145  1.4400000000000D+00  1.9915523716382D-01 -2.9709046032495D-01
   146  1.4500000000000D+00  1.6753565971994D-01 -2.8178547617445D-01
   147  1.4600000000000D+00  1.3701306116827D-01 -2.6661926090500D-01
   148  1.4700000000000D+00  1.0763734626368D-01 -2.5163300942875D-01
   149  1.4800000000000D+00  7.9451858773183D-02 -2.3686524842389D-01
   150  1.4900000000000D+00  5.2493172813615D-02 -2.2235170424945D-01
   151  1.5000000000000D+00  2.6791284929905D-02 -2.0812528688330D-01
   152  1.5100000000000D+00  2.3664320703417D-03 -1.9421512689294D-01
   153  1.5200000000000D+00 -2.0770656807101D-02 -1.8064658158402D-01
   154  1.5300000000000D+00 -4.2601892392011D-02 -1.6744593072691D-01
   155  1.5400000000000D+00 -6.3117524994263D-02 -1.5463588550711D-01
   156  1.5500000000000D+00 -8.2362086594854D-02 -1.4222261246415D-01
   157  1.5600000000000D+00 -1.0038012536379D-01 -1.3021094651286D-01
   158  1.5700000000000D+00 -1.1716631159051D-01 -1.1861836503939D-01
   159  1.5800000000000D+00 -1.3271663512352D-01 -1.0746077501634D-01
   160  1.5900000000000D+00 -1.4704946844192D-01 -9.6746714291090D-02
   161  1.6000000000000D+00 -1.6018403470892D-01 -8.6483345421485D-02
   162  1.6100000000000D+00 -1.7213823832395D-01 -7.6677080916578D-02
   163  1.6200000000000D+00 -1.8293313506703D-01 -6.7332376770812D-02
   164  1.6300000000000D+00 -1.9259230969290D-01 -5.8451934930887D-02
   165  1.6400000000000D+00 -2.0114144200112D-01 -5.0036855235715D-02
   166  1.6500000000000D+00 -2.0860831115303D-01 -4.2086666991706D-02
   167  1.6600000000000D+00 -2.1502270166209D-01 -3.4599388748555D-02
   168  1.6700000000000D+00 -2.2041629975728D-01 -2.7571591618094D-02
   169  1.6800000000000D+00 -2.2482258075159D-01 -2.0998465867956D-02
   170  1.6900000000000D+00 -2.2827668800734D-01 -1.4873890541144D-02
   171  1.7000000000000D+00 -2.3081530436514D-01 -9.1905057619852D-03
   172  1.7100000000000D+00 -2.3247651672361D-01 -3.9397874467996D-03
   173  1.7200000000000D+00 -2.3329967463665D-01  8.8787592008834D-04
   174  1.7300000000000D+00 -2.3332524370871D-01  5.3031047594584D-03
   175  1.7400000000000D+00 -2.3259465463930D-01  9.3174484517352D-03
   176  1.7500000000000D+00 -2.3115014878085D-01  1.2943304315971D-02
   177  1.7600000000000D+00 -2.2903462102952D-01  1.6193835833712D-02
   178  1.7700000000000D+00 -2.2629146096118D-01  1.9082890474995D-02
   179  1.7800000000000D+00 -2.2296439301847D-01  2.1624917442945D-02
   180  1.7900000000000D+00 -2.1909731663560D-01  2.3834885679795D-02
   181  1.8000000000000D+00 -2.1473414716567D-01  2.5728202474815D-02
   182  1.8100000000000D+00 -2.0991865832958D-01  2.7320632949059D-02
   183  1.8200000000000D+00 -2.0469432723088D-01  2.8628220827919D-02
   184  1.8300000000000D+00 -1.9910418231822D-01  2.9667210643356D-02
   185  1.8400000000000D+00 -1.9319065567737D-01  3.0453971907179D-02
   186  1.8500000000000D+00 -1.8699543952907D-01  3.1004925202017D-02
   187  1.8600000000000D+00 -1.8055934867720D-01  3.1336470869091D-02
   188  1.8700000000000D+00 -1.7392218843440D-01  3.1464920107182D-02
   189  1.8800000000000D+00 -1.6712262971925D-01  3.1406429138590D-02
   190  1.8900000000000D+00 -1.6019809100866D-01  3.1176936320201D-02
   191  1.9000000000000D+00 -1.5318462827038D-01  3.0792102633317D-02
   192  1.9100000000000D+00 -1.4611683316888D-01  3.0267255666463D-02
   193  1.9200000000000D+00 -1.3902773964295D-01  2.9617337129934D-02
   194  1.9300000000000D+00 -1.3194874018640D-01  2.8856854413953D-02
   195  1.9400000000000D+00 -1.2490951053714D-01  2.7999835696873D-02
   196  1.9500000000000D+00 -1.1793794517786D-01  2.7059789523726D-02
   197  1.9600000000000D+00 -1.1106010160659D-01  2.6049668077679D-02
   198  1.9700000000000D+00 -1.0430015543200D-01  2.4981834930231D-02
   199  1.9800000000000D+00 -9.7680365197099D-02  2.3868036854600D-02
   200  1.9900000000000D+00 -9.1221047247935D-02  2.2719379824849D-02
   201  2.0000000000000D+00 -8.4940561401021D-02  2.1546309489957D-02
   202  2.0100000000000D+00 -7.8855305521443D-02  2.0358595406643D-02
   203  2.0200000000000D+00 -7.2979721431963D-02  1.9165319953577D-02
   204  2.0300000000000D+00 -6.7326309365000D-02  1.7974870869044D-02
   205  2.0400000000000D+00 -6.1905652649123D-02  1.6794938057279D-02
   206  2.0500000000000D+00 -5.6726451546149D-02  1.5632514253603D-02
   207  2.0600000000000D+00 -5.1795565442923D-02  1.4493899247924D-02
   208  2.0700000000000D+00 -4.7118064540527D-02  1.3384708103284D-02
   209  2.0800000000000D+00 -4.2697288521469D-02  1.2309882413447D-02
   210  2.0900000000000D+00 -3.8534913710231D-02  1.1273705178490D-02
   211  2.1000000000000D+00 -3.4631026961826D-02  1.0279818628669D-02
   212  2.1100000000000D+00 -3.0984205911596D-02  9.3312448593616D-03
   213  2.1200000000000D+00 -2.7591605829821D-02  8.4304093730992D-03
   214  2.1300000000000D+00 -2.4449051115198D-02  7.5791667801859D-03
   215  2.1400000000000D+00 -2.1551132111906D-02  6.7788289245754D-03
   216  2.1500000000000D+00 -1.8891305802095D-02  6.0301948827743D-03
   217  2.1600000000000D+00 -1.6461999810103D-02  5.3335826235177D-03
   218  2.1700000000000D+00 -1.4254719408612D-02  4.6888622168422D-03
   219  2.1800000000000D+00 -1.2260156403034D-02  4.0954901580279D-03
   220  2.1900000000000D+00 -1.0468299393448D-02  3.5525446272333D-03
   221  2.2000000000000D+00 -8.8685446806670D-03  3.0587614022804D-03
   222  2.2100000000000D+00 -7.4498073244214D-03  2.6125702335542D-03
   223  2.2200000000000D+00 -6.2006310243986D-03  2.2121311919064D-03
   224  2.2300000000000D+00 -5.1092970805309D-03  1.8553710686678D-03
   225  2.2400000000000D+00 -4.1639310601191D-03  1.5400193188437D-03
   226  2.2500000000000D+00 -3.3526063346354D-03  1.2636432312978D-03
   227  2.2600000000000D+00 -2.6634452976622D-03  1.0236826161273D-03
   228  2.2700000000000D+00 -2.0847154317683D-03  8.1748295860626D-04
   229  2.2800000000000D+00 -1.6049212774281D-03  6.4232742033703D-04
   230  2.2900000000000D+00 -1.2128922277228D-03  4.9546765312599D-04
   231  2.3000000000000D+00 -8.9786287514709D-04  3.7415220785598D-04
   232  2.3100000000000D+00 -6.4954894729370D-04  2.7565365540666D-04
   233  2.3200000000000D+00 -4.5821642944153D-04  1.9729352384093D-04
   234  2.3300000000000D+00 -3.1477694795129D-04  1.3646457159954D-04
   235  2.3400000000000D+00 -2.1072600614736D-04  9.0651449391480D-05
   236  2.3500000000000D+00 -1.3827283894351D-04  5.7448381907280D-05
   237  2.3600000000000D+00 -9.0107482577197D-05  3.4522131213978D-05
   238  2.3700000000000D+00 -6.0738679315981D-05  1.9823391130252D-05
   239  2.3800000000000D+00 -4.5162484420371D-05  1.1403031837452D-05
   240  2.3900000000000D+00 -3.9726113834769D-05  7.6231413184192D-06
   241  2.4000000000000D+00 -3.7072090914313D-05  6.1476904676779D-06
   242  2.4100000000000D+00 -3.1824327725369D-05  5.1533467846454D-06
   243  2.4200000000000D+00 -2.0317367973249D-05  3.3056348925855D-06
   244  2.4300000000000D+00 -7.5784202681383D-06  1.2565982317079D-06
   245  2.4400000000000D+00  1.5332969130953D-06 -2.3929184559384D-07
   246  2.4500000000000D+00  3.5144013605772D-06 -5.4923502923426D-07
   247  2.4600000000000D+00  1.8330246162987D-06 -2.8727256625197D-07
   248  2.4700000000000D+00 -3.5403945441102D-07  5.2226831184003D-08
   249  2.4800000000000D+00 -7.6784355313446D-07  1.1265820670470D-07
   250  2.4900000000000D+00 -4.0886179248878D-07  5.9717973479236D-08
   251  2.5000000000000D+00  4.5064906639354D-08 -7.3162601621411D-09
   252  2.5100000000000D+00  9.5019513682114D-08 -1.5426360208442D-08
   253  2.5200000000000D+00  5.1776238924890D-08 -8.4058408735474D-09
   254  2.5300000000000D+00  0.0000000000000D+00  0.0000000000000D+00
   255  2.5400000000000D+00  0.0000000000000D+00  0.0000000000000D+00
   256  2.5500000000000D+00  0.0000000000000D+00  0.0000000000000D+00
   257  2.5600000000000D+00  0.0000000000000D+00  0.0000000000000D+00
   258  2.5700000000000D+00  0.0000000000000D+00  0.0000000000000D+00
   259  2.5800000000000D+00  0.0000000000000D+00  0.0000000000000D+00
   260  2.5900000000000D+00  0.0000000000000D+00  0.0000000000000D+00
   261  2.6000000000000D+00  0.0000000000000D+00  0.0000000000000D+00
   262  2.6100000000000D+00  0.0000000000000D+00  0.0000000000000D+00
   263  2.6200000000000D+00  0.0000000000000D+00  0.0000000000000D+00
   264  2.6300000000000D+00  0.0000000000000D+00  0.0000000000000D+00
   265  2.6400000000000D+00  0.0000000000000D+00  0.0000000000000D+00
   266  2.6500000000000D+00  0.0000000000000D+00  0.0000000000000D+00
   267  2.6600000000000D+00  0.0000000000000D+00  0.0000000000000D+00
   268  2.6700000000000D+00  0.0000000000000D+00  0.0000000000000D+00
   269  2.6800000000000D+00  0.0000000000000D+00  0.0000000000000D+00
   270  2.6900000000000D+00  0.0000000000000D+00  0.0000000000000D+00
   271  2.7000000000000D+00  0.0000000000000D+00  0.0000000000000D+00
   272  2.7100000000000D+00  0.0000000000000D+00  0.0000000000000D+00
   273  2.7200000000000D+00  0.0000000000000D+00  0.0000000000000D+00
   274  2.7300000000000D+00  0.0000000000000D+00  0.0000000000000D+00
   275  2.7400000000000D+00  0.0000000000000D+00  0.0000000000000D+00
   276  2.7500000000000D+00  0.0000000000000D+00  0.0000000000000D+00
   277  2.7600000000000D+00  0.0000000000000D+00  0.0000000000000D+00
   278  2.7700000000000D+00  0.0000000000000D+00  0.0000000000000D+00
   279  2.7800000000000D+00  0.0000000000000D+00  0.0000000000000D+00
   280  2.7900000000000D+00  0.0000000000000D+00  0.0000000000000D+00
   281  2.8000000000000D+00  0.0000000000000D+00  0.0000000000000D+00
   282  2.8100000000000D+00  0.0000000000000D+00  0.0000000000000D+00
   283  2.8200000000000D+00  0.0000000000000D+00  0.0000000000000D+00
   284  2.8300000000000D+00  0.0000000000000D+00  0.0000000000000D+00
   285  2.8400000000000D+00  0.0000000000000D+00  0.0000000000000D+00
   286  2.8500000000000D+00  0.0000000000000D+00  0.0000000000000D+00
   287  2.8600000000000D+00  0.0000000000000D+00  0.0000000000000D+00
   288  2.8700000000000D+00  0.0000000000000D+00  0.0000000000000D+00
   289  2.8800000000000D+00  0.0000000000000D+00  0.0000000000000D+00
   290  2.8900000000000D+00  0.0000000000000D+00  0.0000000000000D+00
   291  2.9000000000000D+00  0.0000000000000D+00  0.0000000000000D+00
   292  2.9100000000000D+00  0.0000000000000D+00  0.0000000000000D+00
   293  2.9200000000000D+00  0.0000000000000D+00  0.0000000000000D+00
   294  2.9300000000000D+00  0.0000000000000D+00  0.0000000000000D+00
   295  2.9400000000000D+00  0.0000000000000D+00  0.0000000000000D+00
   296  2.9500000000000D+00  0.0000000000000D+00  0.0000000000000D+00
   297  2.9600000000000D+00  0.0000000000000D+00  0.0000000000000D+00
   298  2.9700000000000D+00  0.0000000000000D+00  0.0000000000000D+00
   299  2.9800000000000D+00  0.0000000000000D+00  0.0000000000000D+00
   300  2.9900000000000D+00  0.0000000000000D+00  0.0000000000000D+00
   301  3.0000000000000D+00  0.0000000000000D+00  0.0000000000000D+00
   302  3.0100000000000D+00  0.0000000000000D+00  0.0000000000000D+00
   303  3.0200000000000D+00  0.0000000000000D+00  0.0000000000000D+00
   304  3.0300000000000D+00  0.0000000000000D+00  0.0000000000000D+00
   305  3.0400000000000D+00  0.0000000000000D+00  0.0000000000000D+00
   306  3.0500000000000D+00  0.0000000000000D+00  0.0000000000000D+00
   307  3.0600000000000D+00  0.0000000000000D+00  0.0000000000000D+00
   308  3.0700000000000D+00  0.0000000000000D+00  0.0000000000000D+00
   309  3.0800000000000D+00  0.0000000000000D+00  0.0000000000000D+00
   310  3.0900000000000D+00  0.0000000000000D+00  0.0000000000000D+00
   311  3.1000000000000D+00  0.0000000000000D+00  0.0000000000000D+00
   312  3.1100000000000D+00  0.0000000000000D+00  0.0000000000000D+00
   313  3.1200000000000D+00  0.0000000000000D+00  0.0000000000000D+00
   314  3.1300000000000D+00  0.0000000000000D+00  0.0000000000000D+00
   315  3.1400000000000D+00  0.0000000000000D+00  0.0000000000000D+00
   316  3.1500000000000D+00  0.0000000000000D+00  0.0000000000000D+00
   317  3.1600000000000D+00  0.0000000000000D+00  0.0000000000000D+00
   318  3.1700000000000D+00  0.0000000000000D+00  0.0000000000000D+00
   319  3.1800000000000D+00  0.0000000000000D+00  0.0000000000000D+00
   320  3.1900000000000D+00  0.0000000000000D+00  0.0000000000000D+00
   321  3.2000000000000D+00  0.0000000000000D+00  0.0000000000000D+00
   322  3.2100000000000D+00  0.0000000000000D+00  0.0000000000000D+00
   323  3.2200000000000D+00  0.0000000000000D+00  0.0000000000000D+00
   324  3.2300000000000D+00  0.0000000000000D+00  0.0000000000000D+00
   325  3.2400000000000D+00  0.0000000000000D+00  0.0000000000000D+00
   326  3.2500000000000D+00  0.0000000000000D+00  0.0000000000000D+00
   327  3.2600000000000D+00  0.0000000000000D+00  0.0000000000000D+00
   328  3.2700000000000D+00  0.0000000000000D+00  0.0000000000000D+00
   329  3.2800000000000D+00  0.0000000000000D+00  0.0000000000000D+00
   330  3.2900000000000D+00  0.0000000000000D+00  0.0000000000000D+00
   331  3.3000000000000D+00  0.0000000000000D+00  0.0000000000000D+00
   332  3.3100000000000D+00  0.0000000000000D+00  0.0000000000000D+00
   333  3.3200000000000D+00  0.0000000000000D+00  0.0000000000000D+00
   334  3.3300000000000D+00  0.0000000000000D+00  0.0000000000000D+00
   335  3.3400000000000D+00  0.0000000000000D+00  0.0000000000000D+00
   336  3.3500000000000D+00  0.0000000000000D+00  0.0000000000000D+00
   337  3.3600000000000D+00  0.0000000000000D+00  0.0000000000000D+00
   338  3.3700000000000D+00  0.0000000000000D+00  0.0000000000000D+00
   339  3.3800000000000D+00  0.0000000000000D+00  0.0000000000000D+00
   340  3.3900000000000D+00  0.0000000000000D+00  0.0000000000000D+00
   341  3.4000000000000D+00  0.0000000000000D+00  0.0000000000000D+00
   342  3.4100000000000D+00  0.0000000000000D+00  0.0000000000000D+00
   343  3.4200000000000D+00  0.0000000000000D+00  0.0000000000000D+00
   344  3.4300000000000D+00  0.0000000000000D+00  0.0000000000000D+00
   345  3.4400000000000D+00  0.0000000000000D+00  0.0000000000000D+00
   346  3.4500000000000D+00  0.0000000000000D+00  0.0000000000000D+00
   347  3.4600000000000D+00  0.0000000000000D+00  0.0000000000000D+00
   348  3.4700000000000D+00  0.0000000000000D+00  0.0000000000000D+00
   349  3.4800000000000D+00  0.0000000000000D+00  0.0000000000000D+00
   350  3.4900000000000D+00  0.0000000000000D+00  0.0000000000000D+00
   351  3.5000000000000D+00  0.0000000000000D+00  0.0000000000000D+00
   352  3.5100000000000D+00  0.0000000000000D+00  0.0000000000000D+00
   353  3.5200000000000D+00  0.0000000000000D+00  0.0000000000000D+00
   354  3.5300000000000D+00  0.0000000000000D+00  0.0000000000000D+00
   355  3.5400000000000D+00  0.0000000000000D+00  0.0000000000000D+00
   356  3.5500000000000D+00  0.0000000000000D+00  0.0000000000000D+00
   357  3.5600000000000D+00  0.0000000000000D+00  0.0000000000000D+00
   358  3.5700000000000D+00  0.0000000000000D+00  0.0000000000000D+00
   359  3.5800000000000D+00  0.0000000000000D+00  0.0000000000000D+00
   360  3.5900000000000D+00  0.0000000000000D+00  0.0000000000000D+00
   361  3.6000000000000D+00  0.0000000000000D+00  0.0000000000000D+00
   362  3.6100000000000D+00  0.0000000000000D+00  0.0000000000000D+00
   363  3.6200000000000D+00  0.0000000000000D+00  0.0000000000000D+00
   364  3.6300000000000D+00  0.0000000000000D+00  0.0000000000000D+00
   365  3.6400000000000D+00  0.0000000000000D+00  0.0000000000000D+00
   366  3.6500000000000D+00  0.0000000000000D+00  0.0000000000000D+00
   367  3.6600000000000D+00  0.0000000000000D+00  0.0000000000000D+00
   368  3.6700000000000D+00  0.0000000000000D+00  0.0000000000000D+00
   369  3.6800000000000D+00  0.0000000000000D+00  0.0000000000000D+00
   370  3.6900000000000D+00  0.0000000000000D+00  0.0000000000000D+00
   371  3.7000000000000D+00  0.0000000000000D+00  0.0000000000000D+00
   372  3.7100000000000D+00  0.0000000000000D+00  0.0000000000000D+00
   373  3.7200000000000D+00  0.0000000000000D+00  0.0000000000000D+00
   374  3.7300000000000D+00  0.0000000000000D+00  0.0000000000000D+00
   375  3.7400000000000D+00  0.0000000000000D+00  0.0000000000000D+00
   376  3.7500000000000D+00  0.0000000000000D+00  0.0000000000000D+00
   377  3.7600000000000D+00  0.0000000000000D+00  0.0000000000000D+00
   378  3.7700000000000D+00  0.0000000000000D+00  0.0000000000000D+00
   379  3.7800000000000D+00  0.0000000000000D+00  0.0000000000000D+00
   380  3.7900000000000D+00  0.0000000000000D+00  0.0000000000000D+00
   381  3.8000000000000D+00  0.0000000000000D+00  0.0000000000000D+00
   382  3.8100000000000D+00  0.0000000000000D+00  0.0000000000000D+00
   383  3.8200000000000D+00  0.0000000000000D+00  0.0000000000000D+00
   384  3.8300000000000D+00  0.0000000000000D+00  0.0000000000000D+00
   385  3.8400000000000D+00  0.0000000000000D+00  0.0000000000000D+00
   386  3.8500000000000D+00  0.0000000000000D+00  0.0000000000000D+00
   387  3.8600000000000D+00  0.0000000000000D+00  0.0000000000000D+00
   388  3.8700000000000D+00  0.0000000000000D+00  0.0000000000000D+00
   389  3.8800000000000D+00  0.0000000000000D+00  0.0000000000000D+00
   390  3.8900000000000D+00  0.0000000000000D+00  0.0000000000000D+00
   391  3.9000000000000D+00  0.0000000000000D+00  0.0000000000000D+00
   392  3.9100000000000D+00  0.0000000000000D+00  0.0000000000000D+00
   393  3.9200000000000D+00  0.0000000000000D+00  0.0000000000000D+00
   394  3.9300000000000D+00  0.0000000000000D+00  0.0000000000000D+00
   395  3.9400000000000D+00  0.0000000000000D+00  0.0000000000000D+00
   396  3.9500000000000D+00  0.0000000000000D+00  0.0000000000000D+00
   397  3.9600000000000D+00  0.0000000000000D+00  0.0000000000000D+00
   398  3.9700000000000D+00  0.0000000000000D+00  0.0000000000000D+00
   399  3.9800000000000D+00  0.0000000000000D+00  0.0000000000000D+00
   400  3.9900000000000D+00  0.0000000000000D+00  0.0000000000000D+00
   401  4.0000000000000D+00  0.0000000000000D+00  0.0000000000000D+00
   402  4.0100000000000D+00  0.0000000000000D+00  0.0000000000000D+00
   403  4.0200000000000D+00  0.0000000000000D+00  0.0000000000000D+00
   404  4.0300000000000D+00  0.0000000000000D+00  0.0000000000000D+00
   405  4.0400000000000D+00  0.0000000000000D+00  0.0000000000000D+00
   406  4.0500000000000D+00  0.0000000000000D+00  0.0000000000000D+00
   407  4.0600000000000D+00  0.0000000000000D+00  0.0000000000000D+00
   408  4.0700000000000D+00  0.0000000000000D+00  0.0000000000000D+00
   409  4.0800000000000D+00  0.0000000000000D+00  0.0000000000000D+00
   410  4.0900000000000D+00  0.0000000000000D+00  0.0000000000000D+00
   411  4.1000000000000D+00  0.0000000000000D+00  0.0000000000000D+00
   412  4.1100000000000D+00  0.0000000000000D+00  0.0000000000000D+00
   413  4.1200000000000D+00  0.0000000000000D+00  0.0000000000000D+00
   414  4.1300000000000D+00  0.0000000000000D+00  0.0000000000000D+00
   415  4.1400000000000D+00  0.0000000000000D+00  0.0000000000000D+00
   416  4.1500000000000D+00  0.0000000000000D+00  0.0000000000000D+00
   417  4.1600000000000D+00  0.0000000000000D+00  0.0000000000000D+00
   418  4.1700000000000D+00  0.0000000000000D+00  0.0000000000000D+00
   419  4.1800000000000D+00  0.0000000000000D+00  0.0000000000000D+00
   420  4.1900000000000D+00  0.0000000000000D+00  0.0000000000000D+00
   421  4.2000000000000D+00  0.0000000000000D+00  0.0000000000000D+00
   422  4.2100000000000D+00  0.0000000000000D+00  0.0000000000000D+00