S     ONCVPSP-3.3.1  r_core=   2.12945   1.52480
     16.0000      6.0000      210904    zatom,zion,pspd
     8       2   1     4   600     0    pspcod,pspxc,lmax,lloc,mmax,r2well
  5.99000000  0.00000000  0.00000000    rchrg fchrg qchrg
     2     3     0     0    nproj
     3     1           extension_switch
     4     0     0    nprojso
   0                         6.8060824039891D-01  8.9822634164192D+00
     1  0.0000000000000D+00 -1.0128523020292D-10  5.0236814708171D-11
     2  1.0000000000000D-02 -2.5603192136229D-02  3.8567162645005D-02
     3  2.0000000000000D-02 -5.1177500019626D-02  7.7129529867624D-02
     4  3.0000000000000D-02 -7.6693754210416D-02  1.1568206624101D-01
     5  4.0000000000000D-02 -1.0212221823147D-01  1.5421925827740D-01
     6  5.0000000000000D-02 -1.2743231336527D-01  1.9273488025489D-01
     7  6.0000000000000D-02 -1.5259235335769D-01  2.3122176583722D-01
     8  7.0000000000000D-02 -1.7756929221174D-01  2.6967158735854D-01
     9  8.0000000000000D-02 -2.0232848815277D-01  3.0807464459469D-01
    10  9.0000000000000D-02 -2.2683348672139D-01  3.4641966478031D-01
    11  1.0000000000000D-01 -2.5104582580140D-01  3.8469361555734D-01
    12  1.1000000000000D-01 -2.7492486521859D-01  4.2288153245523D-01
    13  1.2000000000000D-01 -2.9842764335346D-01  4.6096636240727D-01
    14  1.3000000000000D-01 -3.2150876299807D-01  4.9892882470190D-01
    15  1.4000000000000D-01 -3.4412030845481D-01  5.3674729065184D-01
    16  1.5000000000000D-01 -3.6621179562619D-01  5.7439768314017D-01
    17  1.6000000000000D-01 -3.8773015657865D-01  6.1185339706975D-01
    18  1.7000000000000D-01 -4.0861975978447D-01  6.4908524160278D-01
    19  1.8000000000000D-01 -4.2882246695364D-01  6.8606140493147D-01
    20  1.9000000000000D-01 -4.4827772706541D-01  7.2274744216858D-01
    21  2.0000000000000D-01 -4.6692270789748D-01  7.5910628679073D-01
    22  2.1000000000000D-01 -4.8469246503432D-01  7.9509828590704D-01
    23  2.2000000000000D-01 -5.0152014801320D-01  8.3068125946273D-01
    24  2.3000000000000D-01 -5.1733724294247D-01  8.6581058332298D-01
    25  2.4000000000000D-01 -5.3207385060304D-01  9.0043929601675D-01
    26  2.5000000000000D-01 -5.4565899872090D-01  9.3451822875528D-01
    27  2.6000000000000D-01 -5.5802098678154D-01  9.6799615817618D-01
    28  2.7000000000000D-01 -5.6908776144645D-01  1.0008199811025D+00
    29  2.8000000000000D-01 -5.7878732032933D-01  1.0329349104478D+00
    30  2.9000000000000D-01 -5.8704814159949D-01  1.0642846912454D+00
    31  3.0000000000000D-01 -5.9379963660296D-01  1.0948118356293D+00
    32  3.1000000000000D-01 -5.9897262242969D-01  1.1244578754549D+00
    33  3.2000000000000D-01 -6.0249981111207D-01  1.1531636311093D+00
    34  3.3000000000000D-01 -6.0431631191582D-01  1.1808694949384D+00
    35  3.4000000000000D-01 -6.0436014298237D-01  1.2075157275936D+00
    36  3.5000000000000D-01 -6.0257274840276D-01  1.2330427654999D+00
    37  3.6000000000000D-01 -5.9889951665111D-01  1.2573915375439D+00
    38  3.7000000000000D-01 -5.9329029617843D-01  1.2805037889959D+00
    39  3.8000000000000D-01 -5.8569990387122D-01  1.3023224106059D+00
    40  3.9000000000000D-01 -5.7608862201065D-01  1.3227917707497D+00
    41  4.0000000000000D-01 -5.6442267933275D-01  1.3418580484532D+00
    42  4.1000000000000D-01 -5.5067471178519D-01  1.3594695650870D+00
    43  4.2000000000000D-01 -5.3482419860472D-01  1.3755771124995D+00
    44  4.3000000000000D-01 -5.1685786940278D-01  1.3901342753513D+00
    45  4.4000000000000D-01 -4.9677007804263D-01  1.4030977454179D+00
    46  4.5000000000000D-01 -4.7456313922280D-01  1.4144276256478D+00
    47  4.6000000000000D-01 -4.5024762384768D-01  1.4240877218008D+00
    48  4.7000000000000D-01 -4.2384260946605D-01  1.4320458195365D+00
    49  4.8000000000000D-01 -3.9537588229282D-01  1.4382739448914D+00
    50  4.9000000000000D-01 -3.6488408759737D-01  1.4427486061553D+00
    51  5.0000000000000D-01 -3.3241282554258D-01  1.4454510152547D+00
    52  5.1000000000000D-01 -2.9801668989127D-01  1.4463672868516D+00
    53  5.2000000000000D-01 -2.6175924736059D-01  1.4454886134864D+00
    54  5.3000000000000D-01 -2.2371295579692D-01  1.4428114152228D+00
    55  5.4000000000000D-01 -1.8395901976489D-01  1.4383374623956D+00
    56  5.5000000000000D-01 -1.4258718258988D-01  1.4320739702154D+00
    57  5.6000000000000D-01 -9.9695454364209D-02  1.4240336641488D+00
    58  5.7000000000000D-01 -5.5389775918274D-02  1.4142348151645D+00
    59  5.8000000000000D-01 -9.7836192706325D-03  1.4027012441214D+00
    60  5.9000000000000D-01  3.7002474402076D-02  1.3894622947608D+00
    61  6.0000000000000D-01  8.4841417690168D-02  1.3745527749667D+00
    62  6.1000000000000D-01  1.3360015863348D-01  1.3580128661562D+00
    63  6.2000000000000D-01  1.8314031845860D-01  1.3398880008755D+00
    64  6.3000000000000D-01  2.3331888210191D-01  1.3202287088833D+00
    65  6.4000000000000D-01  2.8398893767687D-01  1.2990904322207D+00
    66  6.5000000000000D-01  3.3500046047282D-01  1.2765333099831D+00
    67  6.6000000000000D-01  3.8620113650781D-01  1.2526219337224D+00
    68  6.7000000000000D-01  4.3743722009556D-01  1.2274250746250D+00
    69  6.8000000000000D-01  4.8855441933755D-01  1.2010153838257D+00
    70  6.9000000000000D-01  5.3939880291445D-01  1.1734690674242D+00
    71  7.0000000000000D-01  5.8981772103178D-01  1.1448655379784D+00
    72  7.1000000000000D-01  6.3966073287168D-01  1.1152870444491D+00
    73  7.2000000000000D-01  6.8878053242663D-01  1.0848182827634D+00
    74  7.3000000000000D-01  7.3703386413678D-01  1.0535459893499D+00
    75  7.4000000000000D-01  7.8428241932931D-01  1.0215585201780D+00
    76  7.5000000000000D-01  8.3039370406372D-01  9.8894541799611D-01
    77  7.6000000000000D-01  8.7524186862739D-01  9.5579697062824D-01
    78  7.7000000000000D-01  9.1870848860130D-01  9.2220376332576D-01
    79  7.8000000000000D-01  9.6068328712995D-01  8.8825622831019D-01
    80  7.9000000000000D-01  1.0010647877829D+00  8.5404419475978D-01
    81  8.0000000000000D-01  1.0397608871906D+00  8.1965644260004D-01
    82  8.1000000000000D-01  1.0766893364758D+00  7.8518026355019D-01
    83  8.2000000000000D-01  1.1117781203847D+00  7.5070103295448D-01
    84  8.3000000000000D-01  1.1449657229501D+00  7.1630179598927D-01
    85  8.4000000000000D-01  1.1762012684938D+00  6.8206287188271D-01
    86  8.5000000000000D-01  1.2054445267942D+00  6.4806147981412D-01
    87  8.6000000000000D-01  1.2326657713181D+00  6.1437139017437D-01
    88  8.7000000000000D-01  1.2578454795224D+00  5.8106260486627D-01
    89  8.8000000000000D-01  1.2809738644010D+00  5.4820107030570D-01
    90  8.9000000000000D-01  1.3020502266512D+00  5.1584842675002D-01
    91  9.0000000000000D-01  1.3210821170917D+00  4.8406179752965D-01
    92  9.1000000000000D-01  1.3380842992546D+00  4.5289362169306D-01
    93  9.2000000000000D-01  1.3530775024154D+00  4.2239153349394D-01
    94  9.3000000000000D-01  1.3660869557012D+00  3.9259829205333D-01
    95  9.4000000000000D-01  1.3771406899130D+00  3.6355176391104D-01
    96  9.5000000000000D-01  1.3862676334092D+00  3.3528496593825D-01
    97  9.6000000000000D-01  1.3934953139307D+00  3.0782614931692D-01
    98  9.7000000000000D-01  1.3988480210236D+00  2.8119902364797D-01
    99  9.8000000000000D-01  1.4023444641418D+00  2.5542304310399D-01
   100  9.9000000000000D-01  1.4039975680384D+00  2.3051392786206D-01
   101  1.0000000000000D+00  1.4038599318765D+00  2.0648843552509D-01
   102  1.0100000000000D+00  1.4019253170234D+00  1.8335472256160D-01
   103  1.0200000000000D+00  1.3982029836893D+00  1.6112008790012D-01
   104  1.0300000000000D+00  1.3927386773372D+00  1.3979305101032D-01
   105  1.0400000000000D+00  1.3855621272421D+00  1.1937795761032D-01
   106  1.0500000000000D+00  1.3767108650935D+00  9.9877513567271D-02
   107  1.0600000000000D+00  1.3662256353611D+00  8.1292364160022D-02
   108  1.0700000000000D+00  1.3541506966894D+00  6.3621186398590D-02
   109  1.0800000000000D+00  1.3405337441699D+00  4.6860744776385D-02
   110  1.0900000000000D+00  1.3254257685289D+00  3.1005943868797D-02
   111  1.1000000000000D+00  1.3088809107966D+00  1.6049884145003D-02
   112  1.1100000000000D+00  1.2909563016344D+00  1.9839200831360D-03
   113  1.1200000000000D+00  1.2717118858286D+00 -1.1202279214716D-02
   114  1.1300000000000D+00  1.2512102327071D+00 -2.3520666760047D-02
   115  1.1400000000000D+00  1.2295163334274D+00 -3.4984751673706D-02
   116  1.1500000000000D+00  1.2066973862428D+00 -4.5609530396701D-02
   117  1.1600000000000D+00  1.1828225709967D+00 -5.5411415128332D-02
   118  1.1700000000000D+00  1.1579628141986D+00 -6.4408159560252D-02
   119  1.1800000000000D+00  1.1321905460994D+00 -7.2618782021191D-02
   120  1.1900000000000D+00  1.1055794512373D+00 -8.0063486183144D-02
   121  1.2000000000000D+00  1.0782042139653D+00 -8.6763579531846D-02
   122  1.2100000000000D+00  1.0501402604712D+00 -9.2741389832674D-02
   123  1.2200000000000D+00  1.0214634987960D+00 -9.8020179850686D-02
   124  1.2300000000000D+00  9.9225005835191D-01 -1.0262406060694D-01
   125  1.2400000000000D+00  9.6257603039582D-01 -1.0657790347966D-01
   126  1.2500000000000D+00  9.3251721086288D-01 -1.0990725146528D-01
   127  1.2600000000000D+00  9.0214884696259D-01 -1.1263822992574D-01
   128  1.2700000000000D+00  8.7154538882683D-01 -1.1479745716100D-01
   129  1.2800000000000D+00  8.4078024744272D-01 -1.1641195513828D-01
   130  1.2900000000000D+00  8.0992556010374D-01 -1.1750906071804D-01
   131  1.3000000000000D+00  7.7905196444134D-01 -1.1811633770798D-01
   132  1.3100000000000D+00  7.4822838205128D-01 -1.1826149006474D-01
   133  1.3200000000000D+00  7.1752181273875D-01 -1.1797227657101D-01
   134  1.3300000000000D+00  6.8699714016993D-01 -1.1727642728359D-01
   135  1.3400000000000D+00  6.5671694972526D-01 -1.1620156204430D-01
   136  1.3500000000000D+00  6.2674135930948D-01 -1.1477511134445D-01
   137  1.3600000000000D+00  5.9712786362344D-01 -1.1302423978567D-01
   138  1.3700000000000D+00  5.6793119248915D-01 -1.1097577239524D-01
   139  1.3800000000000D+00  5.3920318365711D-01 -1.0865612402505D-01
   140  1.3900000000000D+00  5.1099267033440D-01 -1.0609123201816D-01
   141  1.4000000000000D+00  4.8334538385036D-01 -1.0330649236910D-01
   142  1.4100000000000D+00  4.5630387146624D-01 -1.0032669951055D-01
   143  1.4200000000000D+00  4.2990742947573D-01 -9.7175989888589D-02
   144  1.4300000000000D+00  4.0419205164087D-01 -9.3877789468771D-02
   145  1.4400000000000D+00  3.7919039271405D-01 -9.0454765236839D-02
   146  1.4500000000000D+00  3.5493174710086D-01 -8.6928780839015D-02
   147  1.4600000000000D+00  3.3144204220941D-01 -8.3320856372251D-02
   148  1.4700000000000D+00  3.0874384629975D-01 -7.9651132403927D-02
   149  1.4800000000000D+00  2.8685639042713D-01 -7.5938838245093D-02
   150  1.4900000000000D+00  2.6579560393526D-01 -7.2202264453812D-02
   151  1.5000000000000D+00  2.4557416316635D-01 -6.8458739615569D-02
   152  1.5100000000000D+00  2.2620155258514D-01 -6.4724611296219D-02
   153  1.5200000000000D+00  2.0768413792894D-01 -6.1015231198995D-02
   154  1.5300000000000D+00  1.9002525051169D-01 -5.7344944395713D-02
   155  1.5400000000000D+00  1.7322528210828D-01 -5.3727082600629D-02
   156  1.5500000000000D+00  1.5728178958960D-01 -5.0173961370980D-02
   157  1.5600000000000D+00  1.4218960854684D-01 -4.6696881127492D-02
   158  1.5700000000000D+00  1.2794097510913D-01 -4.3306131896243D-02
   159  1.5800000000000D+00  1.1452565508223D-01 -4.0011001602413D-02
   160  1.5900000000000D+00  1.0193107960229D-01 -3.6819787826756D-02
   161  1.6000000000000D+00  9.0142486411404D-02 -3.3739812810717D-02
   162  1.6100000000000D+00  7.9143065894579D-02 -3.0777441618196D-02
   163  1.6200000000000D+00  6.8914111041944D-02 -2.7938103219611D-02
   164  1.6300000000000D+00  5.9435170402365D-02 -2.5226314385198D-02
   165  1.6400000000000D+00  5.0684203288881D-02 -2.2645706157237D-02
   166  1.6500000000000D+00  4.2637736250423D-02 -2.0199052758606D-02
   167  1.6600000000000D+00  3.5271020173216D-02 -1.7888302720415D-02
   168  1.6700000000000D+00  2.8558187007720D-02 -1.5714612061227D-02
   169  1.6800000000000D+00  2.2472405596460D-02 -1.3678379314927D-02
   170  1.6900000000000D+00  1.6986035598289D-02 -1.1779282221706D-02
   171  1.7000000000000D+00  1.2070779120012D-02 -1.0016315895450D-02
   172  1.7100000000000D+00  7.6978290478997D-03 -8.3878322679691D-03
   173  1.7200000000000D+00  3.8380138670102D-03 -6.8915806445236D-03
   174  1.7300000000000D+00  4.6193793208962D-04 -5.5247491569196D-03
   175  1.7400000000000D+00 -2.4598827861962D-03 -4.2840069784695D-03
   176  1.7500000000000D+00 -4.9568905918392D-03 -3.1655470681213D-03
   177  1.7600000000000D+00 -7.0583612594187D-03 -2.1651293503337D-03
   178  1.7700000000000D+00 -8.7932857849955D-03 -1.2781240699468D-03
   179  1.7800000000000D+00 -1.0190257982740D-02 -4.9955528551445D-04
   180  1.7900000000000D+00 -1.1277369346949D-02  1.7585579541383D-04
   181  1.8000000000000D+00 -1.2082110128153D-02  7.5364761651677D-04
   182  1.8100000000000D+00 -1.2631278064129D-02  1.2395755241802D-03
   183  1.8200000000000D+00 -1.2950893629660D-02  1.6395694195481D-03
   184  1.8300000000000D+00 -1.3066122952404D-02  1.9596921004825D-03
   185  1.8400000000000D+00 -1.3001207483417D-02  2.2060982615135D-03
   186  1.8500000000000D+00 -1.2779401039785D-02  2.3849943711385D-03
   187  1.8600000000000D+00 -1.2422913713045D-02  2.5025994504246D-03
   188  1.8700000000000D+00 -1.1952862614319D-02  2.5651068682620D-03
   189  1.8800000000000D+00 -1.1389229444341D-02  2.5786472641778D-03
   190  1.8900000000000D+00 -1.0750824197124D-02  2.5492525843489D-03
   191  1.9000000000000D+00 -1.0055255450008D-02  2.4828214479424D-03
   192  1.9100000000000D+00 -9.3189060277856D-03  2.3850856951101D-03
   193  1.9200000000000D+00 -8.5569146983968D-03  2.2615784132018D-03
   194  1.9300000000000D+00 -7.7831626675881D-03  2.1176032489060D-03
   195  1.9400000000000D+00 -7.0102651108451D-03  1.9582052347675D-03
   196  1.9500000000000D+00 -6.2495670356898D-03  1.7881430469794D-03
   197  1.9600000000000D+00 -5.5111431239427D-03  1.6118627602716D-03
   198  1.9700000000000D+00 -4.8038012193386D-03  1.4334731606256D-03
   199  1.9800000000000D+00 -4.1350889260253D-03  1.2567225288642D-03
   200  1.9900000000000D+00 -3.5113028966359D-03  1.0849770574772D-03
   201  2.0000000000000D+00 -2.9375005394896D-03  9.2120075349447D-04
   202  2.0100000000000D+00 -2.4175134176829D-03  7.6793696114454D-04
   203  2.0200000000000D+00 -1.9539622464798D-03  6.2729143193642D-04
   204  2.0300000000000D+00 -1.5482729555518D-03  5.0091696026635D-04
   205  2.0400000000000D+00 -1.2006931521405D-03  3.8999961344259D-04
   206  2.0500000000000D+00 -9.1030946880284D-04  2.9524649277945D-04
   207  2.0600000000000D+00 -6.7523721202441D-04  2.1690928950799D-04
   208  2.0700000000000D+00 -4.9205263402838D-04  1.5465965864223D-04
   209  2.0800000000000D+00 -3.5587069159887D-04  1.0758535759191D-04
   210  2.0900000000000D+00 -2.5972064782302D-04  7.4006086464972D-05
   211  2.1000000000000D+00 -2.0324628441326D-04  5.3515184898203D-05
   212  2.1100000000000D+00 -1.8488512824297D-04  4.5214346908164D-05
   213  2.1200000000000D+00 -1.8241083817310D-04  4.3001548393155D-05
   214  2.1300000000000D+00 -1.6359911505390D-04  3.8265330293343D-05
   215  2.1400000000000D+00 -1.0072272899998D-04  2.3528404461173D-05
   216  2.1500000000000D+00 -2.9533854966303D-05  6.9101349458523D-06
   217  2.1600000000000D+00  1.2719347740086D-05 -2.9526716942733D-06
   218  2.1700000000000D+00  1.5765706849947D-05 -3.6586787406270D-06
   219  2.1800000000000D+00  1.4419552100574D-06 -3.3461088386291D-07
   220  2.1900000000000D+00 -3.6843563984176D-06  8.5169852126563D-07
   221  2.2000000000000D+00 -2.6978073256447D-06  6.2326787162295D-07
   222  2.2100000000000D+00  1.8659171108111D-07 -4.3653764108962D-08
   223  2.2200000000000D+00  4.7038403480378D-07 -1.1004794144912D-07
   224  2.2300000000000D+00  1.8017253432661D-07 -4.2151975920242D-08
   225  2.2400000000000D+00  0.0000000000000D+00  0.0000000000000D+00
   226  2.2500000000000D+00  0.0000000000000D+00  0.0000000000000D+00
   227  2.2600000000000D+00  0.0000000000000D+00  0.0000000000000D+00
   228  2.2700000000000D+00  0.0000000000000D+00  0.0000000000000D+00
   229  2.2800000000000D+00  0.0000000000000D+00  0.0000000000000D+00
   230  2.2900000000000D+00  0.0000000000000D+00  0.0000000000000D+00
   231  2.3000000000000D+00  0.0000000000000D+00  0.0000000000000D+00
   232  2.3100000000000D+00  0.0000000000000D+00  0.0000000000000D+00
   233  2.3200000000000D+00  0.0000000000000D+00  0.0000000000000D+00
   234  2.3300000000000D+00  0.0000000000000D+00  0.0000000000000D+00
   235  2.3400000000000D+00  0.0000000000000D+00  0.0000000000000D+00
   236  2.3500000000000D+00  0.0000000000000D+00  0.0000000000000D+00
   237  2.3600000000000D+00  0.0000000000000D+00  0.0000000000000D+00
   238  2.3700000000000D+00  0.0000000000000D+00  0.0000000000000D+00
   239  2.3800000000000D+00  0.0000000000000D+00  0.0000000000000D+00
   240  2.3900000000000D+00  0.0000000000000D+00  0.0000000000000D+00
   241  2.4000000000000D+00  0.0000000000000D+00  0.0000000000000D+00
   242  2.4100000000000D+00  0.0000000000000D+00  0.0000000000000D+00
   243  2.4200000000000D+00  0.0000000000000D+00  0.0000000000000D+00
   244  2.4300000000000D+00  0.0000000000000D+00  0.0000000000000D+00
   245  2.4400000000000D+00  0.0000000000000D+00  0.0000000000000D+00
   246  2.4500000000000D+00  0.0000000000000D+00  0.0000000000000D+00
   247  2.4600000000000D+00  0.0000000000000D+00  0.0000000000000D+00
   248  2.4700000000000D+00  0.0000000000000D+00  0.0000000000000D+00
   249  2.4800000000000D+00  0.0000000000000D+00  0.0000000000000D+00
   250  2.4900000000000D+00  0.0000000000000D+00  0.0000000000000D+00
   251  2.5000000000000D+00  0.0000000000000D+00  0.0000000000000D+00
   252  2.5100000000000D+00  0.0000000000000D+00  0.0000000000000D+00
   253  2.5200000000000D+00  0.0000000000000D+00  0.0000000000000D+00
   254  2.5300000000000D+00  0.0000000000000D+00  0.0000000000000D+00
   255  2.5400000000000D+00  0.0000000000000D+00  0.0000000000000D+00
   256  2.5500000000000D+00  0.0000000000000D+00  0.0000000000000D+00
   257  2.5600000000000D+00  0.0000000000000D+00  0.0000000000000D+00
   258  2.5700000000000D+00  0.0000000000000D+00  0.0000000000000D+00
   259  2.5800000000000D+00  0.0000000000000D+00  0.0000000000000D+00
   260  2.5900000000000D+00  0.0000000000000D+00  0.0000000000000D+00
   261  2.6000000000000D+00  0.0000000000000D+00  0.0000000000000D+00
   262  2.6100000000000D+00  0.0000000000000D+00  0.0000000000000D+00
   263  2.6200000000000D+00  0.0000000000000D+00  0.0000000000000D+00
   264  2.6300000000000D+00  0.0000000000000D+00  0.0000000000000D+00
   265  2.6400000000000D+00  0.0000000000000D+00  0.0000000000000D+00
   266  2.6500000000000D+00  0.0000000000000D+00  0.0000000000000D+00
   267  2.6600000000000D+00  0.0000000000000D+00  0.0000000000000D+00
   268  2.6700000000000D+00  0.0000000000000D+00  0.0000000000000D+00
   269  2.6800000000000D+00  0.0000000000000D+00  0.0000000000000D+00
   270  2.6900000000000D+00  0.0000000000000D+00  0.0000000000000D+00
   271  2.7000000000000D+00  0.0000000000000D+00  0.0000000000000D+00
   272  2.7100000000000D+00  0.0000000000000D+00  0.0000000000000D+00
   273  2.7200000000000D+00  0.0000000000000D+00  0.0000000000000D+00
   274  2.7300000000000D+00  0.0000000000000D+00  0.0000000000000D+00
   275  2.7400000000000D+00  0.0000000000000D+00  0.0000000000000D+00
   276  2.7500000000000D+00  0.0000000000000D+00  0.0000000000000D+00
   277  2.7600000000000D+00  0.0000000000000D+00  0.0000000000000D+00
   278  2.7700000000000D+00  0.0000000000000D+00  0.0000000000000D+00
   279  2.7800000000000D+00  0.0000000000000D+00  0.0000000000000D+00
   280  2.7900000000000D+00  0.0000000000000D+00  0.0000000000000D+00
   281  2.8000000000000D+00  0.0000000000000D+00  0.0000000000000D+00
   282  2.8100000000000D+00  0.0000000000000D+00  0.0000000000000D+00
   283  2.8200000000000D+00  0.0000000000000D+00  0.0000000000000D+00
   284  2.8300000000000D+00  0.0000000000000D+00  0.0000000000000D+00
   285  2.8400000000000D+00  0.0000000000000D+00  0.0000000000000D+00
   286  2.8500000000000D+00  0.0000000000000D+00  0.0000000000000D+00
   287  2.8600000000000D+00  0.0000000000000D+00  0.0000000000000D+00
   288  2.8700000000000D+00  0.0000000000000D+00  0.0000000000000D+00
   289  2.8800000000000D+00  0.0000000000000D+00  0.0000000000000D+00
   290  2.8900000000000D+00  0.0000000000000D+00  0.0000000000000D+00
   291  2.9000000000000D+00  0.0000000000000D+00  0.0000000000000D+00
   292  2.9100000000000D+00  0.0000000000000D+00  0.0000000000000D+00
   293  2.9200000000000D+00  0.0000000000000D+00  0.0000000000000D+00
   294  2.9300000000000D+00  0.0000000000000D+00  0.0000000000000D+00
   295  2.9400000000000D+00  0.0000000000000D+00  0.0000000000000D+00
   296  2.9500000000000D+00  0.0000000000000D+00  0.0000000000000D+00
   297  2.9600000000000D+00  0.0000000000000D+00  0.0000000000000D+00
   298  2.9700000000000D+00  0.0000000000000D+00  0.0000000000000D+00
   299  2.9800000000000D+00  0.0000000000000D+00  0.0000000000000D+00
   300  2.9900000000000D+00  0.0000000000000D+00  0.0000000000000D+00
   301  3.0000000000000D+00  0.0000000000000D+00  0.0000000000000D+00
   302  3.0100000000000D+00  0.0000000000000D+00  0.0000000000000D+00
   303  3.0200000000000D+00  0.0000000000000D+00  0.0000000000000D+00
   304  3.0300000000000D+00  0.0000000000000D+00  0.0000000000000D+00
   305  3.0400000000000D+00  0.0000000000000D+00  0.0000000000000D+00
   306  3.0500000000000D+00  0.0000000000000D+00  0.0000000000000D+00
   307  3.0600000000000D+00  0.0000000000000D+00  0.0000000000000D+00
   308  3.0700000000000D+00  0.0000000000000D+00  0.0000000000000D+00
   309  3.0800000000000D+00  0.0000000000000D+00  0.0000000000000D+00
   310  3.0900000000000D+00  0.0000000000000D+00  0.0000000000000D+00
   311  3.1000000000000D+00  0.0000000000000D+00  0.0000000000000D+00
   312  3.1100000000000D+00  0.0000000000000D+00  0.0000000000000D+00
   313  3.1200000000000D+00  0.0000000000000D+00  0.0000000000000D+00
   314  3.1300000000000D+00  0.0000000000000D+00  0.0000000000000D+00
   315  3.1400000000000D+00  0.0000000000000D+00  0.0000000000000D+00
   316  3.1500000000000D+00  0.0000000000000D+00  0.0000000000000D+00
   317  3.1600000000000D+00  0.0000000000000D+00  0.0000000000000D+00
   318  3.1700000000000D+00  0.0000000000000D+00  0.0000000000000D+00
   319  3.1800000000000D+00  0.0000000000000D+00  0.0000000000000D+00
   320  3.1900000000000D+00  0.0000000000000D+00  0.0000000000000D+00
   321  3.2000000000000D+00  0.0000000000000D+00  0.0000000000000D+00
   322  3.2100000000000D+00  0.0000000000000D+00  0.0000000000000D+00
   323  3.2200000000000D+00  0.0000000000000D+00  0.0000000000000D+00
   324  3.2300000000000D+00  0.0000000000000D+00  0.0000000000000D+00
   325  3.2400000000000D+00  0.0000000000000D+00  0.0000000000000D+00
   326  3.2500000000000D+00  0.0000000000000D+00  0.0000000000000D+00
   327  3.2600000000000D+00  0.0000000000000D+00  0.0000000000000D+00
   328  3.2700000000000D+00  0.0000000000000D+00  0.0000000000000D+00
   329  3.2800000000000D+00  0.0000000000000D+00  0.0000000000000D+00
   330  3.2900000000000D+00  0.0000000000000D+00  0.0000000000000D+00
   331  3.3000000000000D+00  0.0000000000000D+00  0.0000000000000D+00
   332  3.3100000000000D+00  0.0000000000000D+00  0.0000000000000D+00
   333  3.3200000000000D+00  0.0000000000000D+00  0.0000000000000D+00
   334  3.3300000000000D+00  0.0000000000000D+00  0.0000000000000D+00
   335  3.3400000000000D+00  0.0000000000000D+00  0.0000000000000D+00
   336  3.3500000000000D+00  0.0000000000000D+00  0.0000000000000D+00
   337  3.3600000000000D+00  0.0000000000000D+00  0.0000000000000D+00
   338  3.3700000000000D+00  0.0000000000000D+00  0.0000000000000D+00
   339  3.3800000000000D+00  0.0000000000000D+00  0.0000000000000D+00
   340  3.3900000000000D+00  0.0000000000000D+00  0.0000000000000D+00
   341  3.4000000000000D+00  0.0000000000000D+00  0.0000000000000D+00
   342  3.4100000000000D+00  0.0000000000000D+00  0.0000000000000D+00
   343  3.4200000000000D+00  0.0000000000000D+00  0.0000000000000D+00
   344  3.4300000000000D+00  0.0000000000000D+00  0.0000000000000D+00
   345  3.4400000000000D+00  0.0000000000000D+00  0.0000000000000D+00
   346  3.4500000000000D+00  0.0000000000000D+00  0.0000000000000D+00
   347  3.4600000000000D+00  0.0000000000000D+00  0.0000000000000D+00
   348  3.4700000000000D+00  0.0000000000000D+00  0.0000000000000D+00
   349  3.4800000000000D+00  0.0000000000000D+00  0.0000000000000D+00
   350  3.4900000000000D+00  0.0000000000000D+00  0.0000000000000D+00
   351  3.5000000000000D+00  0.0000000000000D+00  0.0000000000000D+00
   352  3.5100000000000D+00  0.0000000000000D+00  0.0000000000000D+00
   353  3.5200000000000D+00  0.0000000000000D+00  0.0000000000000D+00
   354  3.5300000000000D+00  0.0000000000000D+00  0.0000000000000D+00
   355  3.5400000000000D+00  0.0000000000000D+00  0.0000000000000D+00
   356  3.5500000000000D+00  0.0000000000000D+00  0.0000000000000D+00
   357  3.5600000000000D+00  0.0000000000000D+00  0.0000000000000D+00
   358  3.5700000000000D+00  0.0000000000000D+00  0.0000000000000D+00
   359  3.5800000000000D+00  0.0000000000000D+00  0.0000000000000D+00
   360  3.5900000000000D+00  0.0000000000000D+00  0.0000000000000D+00
   361  3.6000000000000D+00  0.0000000000000D+00  0.0000000000000D+00
   362  3.6100000000000D+00  0.0000000000000D+00  0.0000000000000D+00
   363  3.6200000000000D+00  0.0000000000000D+00  0.0000000000000D+00
   364  3.6300000000000D+00  0.0000000000000D+00  0.0000000000000D+00
   365  3.6400000000000D+00  0.0000000000000D+00  0.0000000000000D+00
   366  3.6500000000000D+00  0.0000000000000D+00  0.0000000000000D+00
   367  3.6600000000000D+00  0.0000000000000D+00  0.0000000000000D+00
   368  3.6700000000000D+00  0.0000000000000D+00  0.0000000000000D+00
   369  3.6800000000000D+00  0.0000000000000D+00  0.0000000000000D+00
   370  3.6900000000000D+00  0.0000000000000D+00  0.0000000000000D+00
   371  3.7000000000000D+00  0.0000000000000D+00  0.0000000000000D+00
   372  3.7100000000000D+00  0.0000000000000D+00  0.0000000000000D+00
   373  3.7200000000000D+00  0.0000000000000D+00  0.0000000000000D+00
   374  3.7300000000000D+00  0.0000000000000D+00  0.0000000000000D+00
   375  3.7400000000000D+00  0.0000000000000D+00  0.0000000000000D+00
   376  3.7500000000000D+00  0.0000000000000D+00  0.0000000000000D+00
   377  3.7600000000000D+00  0.0000000000000D+00  0.0000000000000D+00
   378  3.7700000000000D+00  0.0000000000000D+00  0.0000000000000D+00
   379  3.7800000000000D+00  0.0000000000000D+00  0.0000000000000D+00
   380  3.7900000000000D+00  0.0000000000000D+00  0.0000000000000D+00
   381  3.8000000000000D+00  0.0000000000000D+00  0.0000000000000D+00
   382  3.8100000000000D+00  0.0000000000000D+00  0.0000000000000D+00
   383  3.8200000000000D+00  0.0000000000000D+00  0.0000000000000D+00
   384  3.8300000000000D+00  0.0000000000000D+00  0.0000000000000D+00
   385  3.8400000000000D+00  0.0000000000000D+00  0.0000000000000D+00
   386  3.8500000000000D+00  0.0000000000000D+00  0.0000000000000D+00
   387  3.8600000000000D+00  0.0000000000000D+00  0.0000000000000D+00
   388  3.8700000000000D+00  0.0000000000000D+00  0.0000000000000D+00
   389  3.8800000000000D+00  0.0000000000000D+00  0.0000000000000D+00
   390  3.8900000000000D+00  0.0000000000000D+00  0.0000000000000D+00
   391  3.9000000000000D+00  0.0000000000000D+00  0.0000000000000D+00
   392  3.9100000000000D+00  0.0000000000000D+00  0.0000000000000D+00
   393  3.9200000000000D+00  0.0000000000000D+00  0.0000000000000D+00
   394  3.9300000000000D+00  0.0000000000000D+00  0.0000000000000D+00
   395  3.9400000000000D+00  0.0000000000000D+00  0.0000000000000D+00
   396  3.9500000000000D+00  0.0000000000000D+00  0.0000000000000D+00
   397  3.9600000000000D+00  0.0000000000000D+00  0.0000000000000D+00
   398  3.9700000000000D+00  0.0000000000000D+00  0.0000000000000D+00
   399  3.9800000000000D+00  0.0000000000000D+00  0.0000000000000D+00
   400  3.9900000000000D+00  0.0000000000000D+00  0.0000000000000D+00
   401  4.0000000000000D+00  0.0000000000000D+00  0.0000000000000D+00
   402  4.0100000000000D+00  0.0000000000000D+00  0.0000000000000D+00
   403  4.0200000000000D+00  0.0000000000000D+00  0.0000000000000D+00
   404  4.0300000000000D+00  0.0000000000000D+00  0.0000000000000D+00
   405  4.0400000000000D+00  0.0000000000000D+00  0.0000000000000D+00
   406  4.0500000000000D+00  0.0000000000000D+00  0.0000000000000D+00
   407  4.0600000000000D+00  0.0000000000000D+00  0.0000000000000D+00
   408  4.0700000000000D+00  0.0000000000000D+00  0.0000000000000D+00
   409  4.0800000000000D+00  0.0000000000000D+00  0.0000000000000D+00
   410  4.0900000000000D+00  0.0000000000000D+00  0.0000000000000D+00
   411  4.1000000000000D+00  0.0000000000000D+00  0.0000000000000D+00
   412  4.1100000000000D+00  0.0000000000000D+00  0.0000000000000D+00
   413  4.1200000000000D+00  0.0000000000000D+00  0.0000000000000D+00
   414  4.1300000000000D+00  0.0000000000000D+00  0.0000000000000D+00
   415  4.1400000000000D+00  0.0000000000000D+00  0.0000000000000D+00
   416  4.1500000000000D+00  0.0000000000000D+00  0.0000000000000D+00
   417  4.1600000000000D+00  0.0000000000000D+00  0.0000000000000D+00
   418  4.1700000000000D+00  0.0000000000000D+00  0.0000000000000D+00
   419  4.1800000000000D+00  0.0000000000000D+00  0.0000000000000D+00
   420  4.1900000000000D+00  0.0000000000000D+00  0.0000000000000D+00
   421  4.2000000000000D+00  0.0000000000000D+00  0.0000000000000D+00
   422  4.2100000000000D+00  0.0000000000000D+00  0.0000000000000D+00