Sb    ONCVPSP-3.3.1  r_core=   2.48127   3.00305   3.59145
     51.0000     15.0000      210904    zatom,zion,pspd
     8       2   2     4   600     0    pspcod,pspxc,lmax,lloc,mmax,r2well
  5.99000000  0.00000000  0.00000000    rchrg fchrg qchrg
     2     4     3     0    nproj
     3     1           extension_switch
     4     4     0    nprojso
   0                         1.3477004706885D+00  6.2167303823758D+00
     1  0.0000000000000D+00 -2.5698859706935D-11  4.4444586899672D-12
     2  1.0000000000000D-02  2.7227631772225D-02  8.9515482062771D-03
     3  2.0000000000000D-02  5.4334837840999D-02  1.7936837691347D-02
     4  3.0000000000000D-02  8.1201679770764D-02  2.6989478715593D-02
     5  4.0000000000000D-02  1.0770919182624D-01  3.6142819905868D-02
     6  5.0000000000000D-02  1.3373986274025D-01  4.5429818445855D-02
     7  6.0000000000000D-02  1.5917811200085D-01  5.4882911471845D-02
     8  7.0000000000000D-02  1.8391075886104D-01  6.4533889070579D-02
     9  8.0000000000000D-02  2.0782748229973D-01  7.4413769271327D-02
    10  9.0000000000000D-02  2.3082127019512D-01  8.4552675418903D-02
    11  1.0000000000000D-01  2.5278885600912D-01  9.4979716307670D-02
    12  1.1000000000000D-01  2.7363114132616D-01  1.0572286944895D-01
    13  1.2000000000000D-01  2.9325360263970D-01  1.1680886783555D-01
    14  1.3000000000000D-01  3.1156668083554D-01  1.2826309055736D-01
    15  1.4000000000000D-01  3.2848615188264D-01  1.4010945761117D-01
    16  1.5000000000000D-01  3.4393347730919D-01  1.5237032923626D-01
    17  1.6000000000000D-01  3.5783613311365D-01  1.6506641009446D-01
    18  1.7000000000000D-01  3.7012791583766D-01  1.7821665859979D-01
    19  1.8000000000000D-01  3.8074922460972D-01  1.9183820168829D-01
    20  1.9000000000000D-01  3.8964731805468D-01  2.0594625530334D-01
    21  2.0000000000000D-01  3.9677654505499D-01  2.2055405085510D-01
    22  2.1000000000000D-01  4.0209854844386D-01  2.3567276789634D-01
    23  2.2000000000000D-01  4.0558244080882D-01  2.5131147323853D-01
    24  2.3000000000000D-01  4.0720495168564D-01  2.6747706671373D-01
    25  2.4000000000000D-01  4.0695054552678D-01  2.8417423376895D-01
    26  2.5000000000000D-01  4.0481150993600D-01  3.0140540505927D-01
    27  2.6000000000000D-01  4.0078801376949D-01  3.1917072318605D-01
    28  2.7000000000000D-01  3.9488813481589D-01  3.3746801670557D-01
    29  2.8000000000000D-01  3.8712785687952D-01  3.5629278151190D-01
    30  2.9000000000000D-01  3.7753103620576D-01  3.7563816967609D-01
    31  3.0000000000000D-01  3.6612933730158D-01  3.9549498580179D-01
    32  3.1000000000000D-01  3.5296213831968D-01  4.1585169093448D-01
    33  3.2000000000000D-01  3.3807640628930D-01  4.3669441403943D-01
    34  3.3000000000000D-01  3.2152654259132D-01  4.5800697103998D-01
    35  3.4000000000000D-01  3.0337419918880D-01  4.7977089138521D-01
    36  3.5000000000000D-01  2.8368806623636D-01  5.0196545209287D-01
    37  3.6000000000000D-01  2.6254363180225D-01  5.2456771919032D-01
    38  3.7000000000000D-01  2.4002291454514D-01  5.4755259645345D-01
    39  3.8000000000000D-01  2.1621417029382D-01  5.7089288132077D-01
    40  3.9000000000000D-01  1.9121157358028D-01  5.9455932783712D-01
    41  4.0000000000000D-01  1.6511487527631D-01  6.1852071645945D-01
    42  4.1000000000000D-01  1.3802903757936D-01  6.4274393053504D-01
    43  4.2000000000000D-01  1.1006384768460D-01  6.6719403924116D-01
    44  4.3000000000000D-01  8.1333511567085D-02  6.9183438675426D-01
    45  4.4000000000000D-01  5.1956229379928D-02  7.1662668739617D-01
    46  4.5000000000000D-01  2.2053754050736D-02  7.4153112648547D-01
    47  4.6000000000000D-01 -8.2490652702582D-03  7.6650646660283D-01
    48  4.7000000000000D-01 -3.8824753191903D-02  7.9151015896095D-01
    49  4.8000000000000D-01 -6.9543689716568D-02  8.1649845955253D-01
    50  4.9000000000000D-01 -1.0027460169790D-01  8.4142654973298D-01
    51  5.0000000000000D-01 -1.3088506224701D-01  8.6624866087931D-01
    52  5.1000000000000D-01 -1.6124199617391D-01  8.9091820275188D-01
    53  5.2000000000000D-01 -1.9121218951984D-01  9.1538789517264D-01
    54  5.3000000000000D-01 -2.2066280121253D-01  9.3960990262107D-01
    55  5.4000000000000D-01 -2.4946187486019D-01  9.6353597133795D-01
    56  5.5000000000000D-01 -2.7747884869187D-01  9.8711756851747D-01
    57  5.6000000000000D-01 -3.0458506165137D-01  1.0103060231595D+00
    58  5.7000000000000D-01 -3.3065425365902D-01  1.0330526681470D+00
    59  5.8000000000000D-01 -3.5556305807145D-01  1.0553089831072D+00
    60  5.9000000000000D-01 -3.7919148439247D-01  1.0770267376111D+00
    61  6.0000000000000D-01 -4.0142338931969D-01  1.0981581342637D+00
    62  6.1000000000000D-01 -4.2214693425051D-01  1.1186559512336D+00
    63  6.2000000000000D-01 -4.4125502741834D-01  1.1384736837735D+00
    64  6.3000000000000D-01 -4.5864574888413D-01  1.1575656842818D+00
    65  6.4000000000000D-01 -4.7422275667087D-01  1.1758873004611D+00
    66  6.5000000000000D-01 -4.8789567239785D-01  1.1933950111307D+00
    67  6.6000000000000D-01 -4.9958044484803D-01  1.2100465592601D+00
    68  6.7000000000000D-01 -5.0919968998538D-01  1.2258010817936D+00
    69  6.8000000000000D-01 -5.1668300602893D-01  1.2406192358484D+00
    70  6.9000000000000D-01 -5.2196726228592D-01  1.2544633208778D+00
    71  7.0000000000000D-01 -5.2499686054889D-01  1.2672973964016D+00
    72  7.1000000000000D-01 -5.2572396796883D-01  1.2790873949216D+00
    73  7.2000000000000D-01 -5.2410872042863D-01  1.2898012296517D+00
    74  7.3000000000000D-01 -5.2011939555846D-01  1.2994088967114D+00
    75  7.4000000000000D-01 -5.1373255465557D-01  1.3078825714441D+00
    76  7.5000000000000D-01 -5.0493315289621D-01  1.3151966985453D+00
    77  7.6000000000000D-01 -4.9371461735496D-01  1.3213280757010D+00
    78  7.7000000000000D-01 -4.8007889247752D-01  1.3262559304590D+00
    79  7.8000000000000D-01 -4.6403645278558D-01  1.3299619900774D+00
    80  7.9000000000000D-01 -4.4560628272645D-01  1.3324305441184D+00
    81  8.0000000000000D-01 -4.2481582371543D-01  1.3336484995753D+00
    82  8.1000000000000D-01 -4.0170088855369D-01  1.3336054283498D+00
    83  8.2000000000000D-01 -3.7630554354019D-01  1.3322936069180D+00
    84  8.3000000000000D-01 -3.4868195873001D-01  1.3297080480514D+00
    85  8.4000000000000D-01 -3.1889022692434D-01  1.3258465244831D+00
    86  8.5000000000000D-01 -2.8699815210816D-01  1.3207095844400D+00
    87  8.6000000000000D-01 -2.5308100817958D-01  1.3143005589836D+00
    88  8.7000000000000D-01 -2.1722126893994D-01  1.3066255611345D+00
    89  8.8000000000000D-01 -1.7950831043436D-01  1.2976934767784D+00
    90  8.9000000000000D-01 -1.4003808684958D-01  1.2875159473833D+00
    91  9.0000000000000D-01 -9.8912781287244D-02  1.2761073445816D+00
    92  9.1000000000000D-01 -5.6240432837389D-02  1.2634847366989D+00
    93  9.2000000000000D-01 -1.2134541477065D-02  1.2496678473404D+00
    94  9.3000000000000D-01  3.3286347587384D-02  1.2346790061694D+00
    95  9.4000000000000D-01  7.9899078428187D-02  1.2185430920406D+00
    96  9.5000000000000D-01  1.2757633596894D-01  1.2012874686751D+00
    97  9.6000000000000D-01  1.7618711276495D-01  1.1829419130918D+00
    98  9.7000000000000D-01  2.2559718906978D-01  1.1635385370295D+00
    99  9.8000000000000D-01  2.7566962421148D-01  1.1431117016218D+00
   100  9.9000000000000D-01  3.2626525725498D-01  1.1216979256068D+00
   101  1.0000000000000D+00  3.7724321488930D-01  1.0993357873761D+00
   102  1.0100000000000D+00  4.2846142444984D-01  1.0760658211870D+00
   103  1.0200000000000D+00  4.7977712996647D-01  1.0519304078812D+00
   104  1.0300000000000D+00  5.3104740911787D-01  1.0269736604732D+00
   105  1.0400000000000D+00  5.8212968897253D-01  1.0012413049830D+00
   106  1.0500000000000D+00  6.3288225840550D-01  9.7478055690966D-01
   107  1.0600000000000D+00  6.8316477509932D-01  9.4763999374981D-01
   108  1.0700000000000D+00  7.3283876506483D-01  9.1986942398160D-01
   109  1.0800000000000D+00  7.8176811265349D-01  8.9151975294252D-01
   110  1.0900000000000D+00  8.2981953908254D-01  8.6264284604059D-01
   111  1.1000000000000D+00  8.7686306754566D-01  8.3329138974453D-01
   112  1.1100000000000D+00  9.2277247305365D-01  8.0351875080506D-01
   113  1.1200000000000D+00  9.6742571520748D-01  7.7337883416291D-01
   114  1.1300000000000D+00  1.0107053522018D+00  7.4292594000270D-01
   115  1.1400000000000D+00  1.0524989344360D+00  7.1221462041177D-01
   116  1.1500000000000D+00  1.0926993762160D+00  6.8129953610217D-01
   117  1.1600000000000D+00  1.1312053041112D+00  6.5023531365221D-01
   118  1.1700000000000D+00  1.1679213806601D+00  6.1907640371949D-01
   119  1.1800000000000D+00  1.2027586022239D+00  5.8787694067133D-01
   120  1.1900000000000D+00  1.2356345699228D+00  5.5669060407007D-01
   121  1.2000000000000D+00  1.2664737326628D+00  5.2557048244581D-01
   122  1.2100000000000D+00  1.2952076014569D+00  4.9456893977404D-01
   123  1.2200000000000D+00  1.3217749343477D+00  4.6373748506428D-01
   124  1.2300000000000D+00  1.3461218913430D+00  4.3312664545711D-01
   125  1.2400000000000D+00  1.3682021589487D+00  4.0278584320831D-01
   126  1.2500000000000D+00  1.3879770440350D+00  3.7276327692094D-01
   127  1.2600000000000D+00  1.4054155368617D+00  3.4310580737445D-01
   128  1.2700000000000D+00  1.4204943432393D+00  3.1385884828194D-01
   129  1.2800000000000D+00  1.4331978860009D+00  2.8506626227753D-01
   130  1.2900000000000D+00  1.4435182760147D+00  2.5677026242702D-01
   131  1.3000000000000D+00  1.4514552531142D+00  2.2901131953466D-01
   132  1.3100000000000D+00  1.4570160975465D+00  2.0182807547923D-01
   133  1.3200000000000D+00  1.4602155125338D+00  1.7525726281360D-01
   134  1.3300000000000D+00  1.4610754787319D+00  1.4933363082979D-01
   135  1.3400000000000D+00  1.4596250815678D+00  1.2408987824916D-01
   136  1.3500000000000D+00  1.4559003123613D+00  9.9556592713672D-02
   137  1.3600000000000D+00  1.4499438444281D+00  7.5762197194449D-02
   138  1.3700000000000D+00  1.4418047854256D+00  5.2732903408732D-02
   139  1.3800000000000D+00  1.4315384071437D+00  3.0492672360732D-02
   140  1.3900000000000D+00  1.4192058543022D+00  9.0631820204712D-03
   141  1.4000000000000D+00  1.4048738337557D+00 -1.1536197805238D-02
   142  1.4100000000000D+00  1.3886142856829D+00 -3.1288423396849D-02
   143  1.4200000000000D+00  1.3705040384667D+00 -5.0178787896273D-02
   144  1.4300000000000D+00  1.3506244488347D+00 -6.8194924914943D-02
   145  1.4400000000000D+00  1.3290610291159D+00 -8.5326805094774D-02
   146  1.4500000000000D+00  1.3059030633055D+00 -1.0156672567660D-01
   147  1.4600000000000D+00  1.2812432137824D+00 -1.1690929318159D-01
   148  1.4700000000000D+00  1.2551771204848D+00 -1.3135139937179D-01
   149  1.4800000000000D+00  1.2278029943885D+00 -1.4489219057547D-01
   150  1.4900000000000D+00  1.1992212071032D+00 -1.5753303061876D-01
   151  1.5000000000000D+00  1.1695338784332D+00 -1.6927745748513D-01
   152  1.5100000000000D+00  1.1388444636989D+00 -1.8013113395163D-01
   153  1.5200000000000D+00  1.1072573425691D+00 -1.9010179240223D-01
   154  1.5300000000000D+00  1.0748774112460D+00 -1.9919917404734D-01
   155  1.5400000000000D+00  1.0418096795074D+00 -2.0743496282798D-01
   156  1.5500000000000D+00  1.0081588745622D+00 -2.1482271421805D-01
   157  1.5600000000000D+00  9.7402905287307D-01 -2.2137777925933D-01
   158  1.5700000000000D+00  9.3952322199314D-01 -2.2711722404606D-01
   159  1.5800000000000D+00  9.0474297328706D-01 -2.3205974501456D-01
   160  1.5900000000000D+00  8.6978812744495D-01 -2.3622558028548D-01
   161  1.6000000000000D+00  8.3475639357570D-01 -2.3963641740515D-01
   162  1.6100000000000D+00  7.9974304345610D-01 -2.4231529776874D-01
   163  1.6200000000000D+00  7.6484060171448D-01 -2.4428651806106D-01
   164  1.6300000000000D+00  7.3013855311493D-01 -2.4557552901821D-01
   165  1.6400000000000D+00  6.9572306773275D-01 -2.4620883184115D-01
   166  1.6500000000000D+00  6.6167674474119D-01 -2.4621387256894D-01
   167  1.6600000000000D+00  6.2807837560160D-01 -2.4561893474344D-01
   168  1.6700000000000D+00  5.9500272693639D-01 -2.4445303066376D-01
   169  1.6800000000000D+00  5.6252034383683D-01 -2.4274579156584D-01
   170  1.6900000000000D+00  5.3069737349110D-01 -2.4052735700610D-01
   171  1.7000000000000D+00  4.9959540977364D-01 -2.3782826378684D-01
   172  1.7100000000000D+00  4.6927135837160D-01 -2.3467933467844D-01
   173  1.7200000000000D+00  4.3977732288332D-01 -2.3111156727205D-01
   174  1.7300000000000D+00  4.1116051127055D-01 -2.2715602319579D-01
   175  1.7400000000000D+00  3.8346316278207D-01 -2.2284371801168D-01
   176  1.7500000000000D+00  3.5672249467225D-01 -2.1820551201376D-01
   177  1.7600000000000D+00  3.3097066840111D-01 -2.1327200220905D-01
   178  1.7700000000000D+00  3.0623477471933D-01 -2.0807341570622D-01
   179  1.7800000000000D+00  2.8253683679947D-01 -2.0263950473249D-01
   180  1.7900000000000D+00  2.5989383100954D-01 -1.9699944353261D-01
   181  1.8000000000000D+00  2.3831772307845D-01 -1.9118172705246D-01
   182  1.8100000000000D+00  2.1781552212750D-01 -1.8521407242466D-01
   183  1.8200000000000D+00  1.9838935463519D-01 -1.7912332430141D-01
   184  1.8300000000000D+00  1.8003650584895D-01 -1.7293535008206D-01
   185  1.8400000000000D+00  1.6274963280035D-01 -1.6667498285131D-01
   186  1.8500000000000D+00  1.4651676081684D-01 -1.6036590003750D-01
   187  1.8600000000000D+00  1.3132118235290D-01 -1.5403048492439D-01
   188  1.8700000000000D+00  1.1714206186938D-01 -1.4768987130546D-01
   189  1.8800000000000D+00  1.0395493662640D-01 -1.4136395845955D-01
   190  1.8900000000000D+00  9.1732239715779D-02 -1.3507145587468D-01
   191  1.9000000000000D+00  8.0443978547108D-02 -1.2882997993317D-01
   192  1.9100000000000D+00  7.0058239388471D-02 -1.2265610718927D-01
   193  1.9200000000000D+00  6.0541255839141D-02 -1.1656531981396D-01
   194  1.9300000000000D+00  5.1857574580165D-02 -1.1057198523760D-01
   195  1.9400000000000D+00  4.3970421232044D-02 -1.0468938378325D-01
   196  1.9500000000000D+00  3.6841900439291D-02 -9.8929701675702D-02
   197  1.9600000000000D+00  3.0433250612852D-02 -9.3304041806952D-02
   198  1.9700000000000D+00  2.4705083124165D-02 -8.7822434875744D-02
   199  1.9800000000000D+00  1.9617614680519D-02 -8.2493853628236D-02
   200  1.9900000000000D+00  1.5130893164087D-02 -7.7326230332156D-02
   201  2.0000000000000D+00  1.1205016128451D-02 -7.2326477070457D-02
   202  2.0100000000000D+00  7.8003386238287D-03 -6.7500508819142D-02
   203  2.0200000000000D+00  4.8776727328081D-03 -6.2853269006597D-02
   204  2.0300000000000D+00  2.3984743660818D-03 -5.8388757491807D-02
   205  2.0400000000000D+00  3.2501942635780D-04 -5.4110060733130D-02
   206  2.0500000000000D+00 -1.3794325548713D-03 -5.0019383988204D-02
   207  2.0600000000000D+00 -2.7504890129583D-03 -4.6118085374646D-02
   208  2.0700000000000D+00 -3.8224861145013D-03 -4.2406711635041D-02
   209  2.0800000000000D+00 -4.6283673942769D-03 -3.8885035377671D-02
   210  2.0900000000000D+00 -5.1995743259253D-03 -3.5552093702972D-02
   211  2.1000000000000D+00 -5.5659523688273D-03 -3.2406227978925D-02
   212  2.1100000000000D+00 -5.7556724374254D-03 -2.9445124597929D-02
   213  2.1200000000000D+00 -5.7951646608968D-03 -2.6665856661155D-02
   214  2.1300000000000D+00 -5.7090699533348D-03 -2.4064926212796D-02
   215  2.1400000000000D+00 -5.5202034950447D-03 -2.1638307112900D-02
   216  2.1500000000000D+00 -5.2495334796934D-03 -1.9381488227334D-02
   217  2.1600000000000D+00 -4.9161747250004D-03 -1.7289516782632D-02
   218  2.1700000000000D+00 -4.5373933452066D-03 -1.5357041955650D-02
   219  2.1800000000000D+00 -4.1286275226781D-03 -1.3578358187219D-02
   220  2.1900000000000D+00 -3.7035187743015D-03 -1.1947448447803D-02
   221  2.2000000000000D+00 -3.2739553902652D-03 -1.0458027154055D-02
   222  2.2100000000000D+00 -2.8501284036108D-03 -9.1035825098904D-03
   223  2.2200000000000D+00 -2.4405960831431D-03 -7.8774184831976D-03
   224  2.2300000000000D+00 -2.0523597478199D-03 -6.7726959054567D-03
   225  2.2400000000000D+00 -1.6909479464303D-03 -5.7824728375788D-03
   226  2.2500000000000D+00 -1.3605078100957D-03 -4.8997441738034D-03
   227  2.2600000000000D+00 -1.0639047772928D-03 -4.1174800073454D-03
   228  2.2700000000000D+00 -8.0282739887245D-04 -3.4286631357114D-03
   229  2.2800000000000D+00 -5.7789746412339D-04 -2.8263253375579D-03
   230  2.2900000000000D+00 -3.8878440927418D-04 -2.3035822955585D-03
   231  2.3000000000000D+00 -2.3432266247657D-04 -1.8536674292777D-03
   232  2.3100000000000D+00 -1.1263093866657D-04 -1.4699641447523D-03
   233  2.3200000000000D+00 -2.1232479807292D-05 -1.1460366651437D-03
   234  2.3300000000000D+00  4.2823878125561D-05 -8.7565955438842D-04
   235  2.3400000000000D+00  8.2845006472334D-05 -6.5284538359509D-04
   236  2.3500000000000D+00  1.0237573844617D-04 -4.7187098301735D-04
   237  2.3600000000000D+00  1.0508357945624D-04 -3.2730207702518D-04
   238  2.3700000000000D+00  9.4649083413998D-05 -2.1401603441201D-04
   239  2.3800000000000D+00  7.4658851302423D-05 -1.2722308082786D-04
   240  2.3900000000000D+00  4.8504640656560D-05 -6.2485702353044D-05
   241  2.4000000000000D+00  1.9138036967782D-05 -1.5657055950817D-05
   242  2.4100000000000D+00 -1.0526499660589D-05  1.6847760558345D-05
   243  2.4200000000000D+00 -3.7960921241496D-05  3.8178001154443D-05
   244  2.4300000000000D+00 -6.0377822922484D-05  5.0539253794986D-05
   245  2.4400000000000D+00 -7.8666403591512D-05  5.7628847455746D-05
   246  2.4500000000000D+00 -9.4041278285181D-05  6.2500615520660D-05
   247  2.4600000000000D+00 -1.0986499452429D-04  6.8837444824884D-05
   248  2.4700000000000D+00 -1.1795229696804D-04  7.1957260234091D-05
   249  2.4800000000000D+00 -1.1131198108408D-04  6.7344360164044D-05
   250  2.4900000000000D+00 -8.0369978112832D-05  4.8436443626964D-05
   251  2.5000000000000D+00 -3.9667234939572D-05  2.3870032308563D-05
   252  2.5100000000000D+00 -3.0994186969994D-06  1.8648767064828D-06
   253  2.5200000000000D+00  1.0829506130161D-05 -6.4734860929930D-06
   254  2.5300000000000D+00  9.7077957439339D-06 -5.7963205000664D-06
   255  2.5400000000000D+00  1.1258697818562D-06 -6.7164893509538D-07
   256  2.5500000000000D+00 -2.2790549785729D-06  1.3668538267865D-06
   257  2.5600000000000D+00 -2.3524740758126D-06  1.4103618105824D-06
   258  2.5700000000000D+00 -4.0535621101825D-07  2.4294460775860D-07
   259  2.5800000000000D+00  2.4905924767005D-07 -1.5064221128216D-07
   260  2.5900000000000D+00  2.8865691201744D-07 -1.7459265590409D-07
   261  2.6000000000000D+00  7.4301055907288D-08 -4.4940613396943D-08
   262  2.6100000000000D+00  0.0000000000000D+00  0.0000000000000D+00
   263  2.6200000000000D+00  0.0000000000000D+00  0.0000000000000D+00
   264  2.6300000000000D+00  0.0000000000000D+00  0.0000000000000D+00
   265  2.6400000000000D+00  0.0000000000000D+00  0.0000000000000D+00
   266  2.6500000000000D+00  0.0000000000000D+00  0.0000000000000D+00
   267  2.6600000000000D+00  0.0000000000000D+00  0.0000000000000D+00
   268  2.6700000000000D+00  0.0000000000000D+00  0.0000000000000D+00
   269  2.6800000000000D+00  0.0000000000000D+00  0.0000000000000D+00
   270  2.6900000000000D+00  0.0000000000000D+00  0.0000000000000D+00
   271  2.7000000000000D+00  0.0000000000000D+00  0.0000000000000D+00
   272  2.7100000000000D+00  0.0000000000000D+00  0.0000000000000D+00
   273  2.7200000000000D+00  0.0000000000000D+00  0.0000000000000D+00
   274  2.7300000000000D+00  0.0000000000000D+00  0.0000000000000D+00
   275  2.7400000000000D+00  0.0000000000000D+00  0.0000000000000D+00
   276  2.7500000000000D+00  0.0000000000000D+00  0.0000000000000D+00
   277  2.7600000000000D+00  0.0000000000000D+00  0.0000000000000D+00
   278  2.7700000000000D+00  0.0000000000000D+00  0.0000000000000D+00
   279  2.7800000000000D+00  0.0000000000000D+00  0.0000000000000D+00
   280  2.7900000000000D+00  0.0000000000000D+00  0.0000000000000D+00
   281  2.8000000000000D+00  0.0000000000000D+00  0.0000000000000D+00
   282  2.8100000000000D+00  0.0000000000000D+00  0.0000000000000D+00
   283  2.8200000000000D+00  0.0000000000000D+00  0.0000000000000D+00
   284  2.8300000000000D+00  0.0000000000000D+00  0.0000000000000D+00
   285  2.8400000000000D+00  0.0000000000000D+00  0.0000000000000D+00
   286  2.8500000000000D+00  0.0000000000000D+00  0.0000000000000D+00
   287  2.8600000000000D+00  0.0000000000000D+00  0.0000000000000D+00
   288  2.8700000000000D+00  0.0000000000000D+00  0.0000000000000D+00
   289  2.8800000000000D+00  0.0000000000000D+00  0.0000000000000D+00
   290  2.8900000000000D+00  0.0000000000000D+00  0.0000000000000D+00
   291  2.9000000000000D+00  0.0000000000000D+00  0.0000000000000D+00
   292  2.9100000000000D+00  0.0000000000000D+00  0.0000000000000D+00
   293  2.9200000000000D+00  0.0000000000000D+00  0.0000000000000D+00
   294  2.9300000000000D+00  0.0000000000000D+00  0.0000000000000D+00
   295  2.9400000000000D+00  0.0000000000000D+00  0.0000000000000D+00
   296  2.9500000000000D+00  0.0000000000000D+00  0.0000000000000D+00
   297  2.9600000000000D+00  0.0000000000000D+00  0.0000000000000D+00
   298  2.9700000000000D+00  0.0000000000000D+00  0.0000000000000D+00
   299  2.9800000000000D+00  0.0000000000000D+00  0.0000000000000D+00
   300  2.9900000000000D+00  0.0000000000000D+00  0.0000000000000D+00
   301  3.0000000000000D+00  0.0000000000000D+00  0.0000000000000D+00
   302  3.0100000000000D+00  0.0000000000000D+00  0.0000000000000D+00
   303  3.0200000000000D+00  0.0000000000000D+00  0.0000000000000D+00
   304  3.0300000000000D+00  0.0000000000000D+00  0.0000000000000D+00
   305  3.0400000000000D+00  0.0000000000000D+00  0.0000000000000D+00
   306  3.0500000000000D+00  0.0000000000000D+00  0.0000000000000D+00
   307  3.0600000000000D+00  0.0000000000000D+00  0.0000000000000D+00
   308  3.0700000000000D+00  0.0000000000000D+00  0.0000000000000D+00
   309  3.0800000000000D+00  0.0000000000000D+00  0.0000000000000D+00
   310  3.0900000000000D+00  0.0000000000000D+00  0.0000000000000D+00
   311  3.1000000000000D+00  0.0000000000000D+00  0.0000000000000D+00
   312  3.1100000000000D+00  0.0000000000000D+00  0.0000000000000D+00
   313  3.1200000000000D+00  0.0000000000000D+00  0.0000000000000D+00
   314  3.1300000000000D+00  0.0000000000000D+00  0.0000000000000D+00
   315  3.1400000000000D+00  0.0000000000000D+00  0.0000000000000D+00
   316  3.1500000000000D+00  0.0000000000000D+00  0.0000000000000D+00
   317  3.1600000000000D+00  0.0000000000000D+00  0.0000000000000D+00
   318  3.1700000000000D+00  0.0000000000000D+00  0.0000000000000D+00
   319  3.1800000000000D+00  0.0000000000000D+00  0.0000000000000D+00
   320  3.1900000000000D+00  0.0000000000000D+00  0.0000000000000D+00
   321  3.2000000000000D+00  0.0000000000000D+00  0.0000000000000D+00
   322  3.2100000000000D+00  0.0000000000000D+00  0.0000000000000D+00
   323  3.2200000000000D+00  0.0000000000000D+00  0.0000000000000D+00
   324  3.2300000000000D+00  0.0000000000000D+00  0.0000000000000D+00
   325  3.2400000000000D+00  0.0000000000000D+00  0.0000000000000D+00
   326  3.2500000000000D+00  0.0000000000000D+00  0.0000000000000D+00
   327  3.2600000000000D+00  0.0000000000000D+00  0.0000000000000D+00
   328  3.2700000000000D+00  0.0000000000000D+00  0.0000000000000D+00
   329  3.2800000000000D+00  0.0000000000000D+00  0.0000000000000D+00
   330  3.2900000000000D+00  0.0000000000000D+00  0.0000000000000D+00
   331  3.3000000000000D+00  0.0000000000000D+00  0.0000000000000D+00
   332  3.3100000000000D+00  0.0000000000000D+00  0.0000000000000D+00
   333  3.3200000000000D+00  0.0000000000000D+00  0.0000000000000D+00
   334  3.3300000000000D+00  0.0000000000000D+00  0.0000000000000D+00
   335  3.3400000000000D+00  0.0000000000000D+00  0.0000000000000D+00
   336  3.3500000000000D+00  0.0000000000000D+00  0.0000000000000D+00
   337  3.3600000000000D+00  0.0000000000000D+00  0.0000000000000D+00
   338  3.3700000000000D+00  0.0000000000000D+00  0.0000000000000D+00
   339  3.3800000000000D+00  0.0000000000000D+00  0.0000000000000D+00
   340  3.3900000000000D+00  0.0000000000000D+00  0.0000000000000D+00
   341  3.4000000000000D+00  0.0000000000000D+00  0.0000000000000D+00
   342  3.4100000000000D+00  0.0000000000000D+00  0.0000000000000D+00
   343  3.4200000000000D+00  0.0000000000000D+00  0.0000000000000D+00
   344  3.4300000000000D+00  0.0000000000000D+00  0.0000000000000D+00
   345  3.4400000000000D+00  0.0000000000000D+00  0.0000000000000D+00
   346  3.4500000000000D+00  0.0000000000000D+00  0.0000000000000D+00
   347  3.4600000000000D+00  0.0000000000000D+00  0.0000000000000D+00
   348  3.4700000000000D+00  0.0000000000000D+00  0.0000000000000D+00
   349  3.4800000000000D+00  0.0000000000000D+00  0.0000000000000D+00
   350  3.4900000000000D+00  0.0000000000000D+00  0.0000000000000D+00
   351  3.5000000000000D+00  0.0000000000000D+00  0.0000000000000D+00
   352  3.5100000000000D+00  0.0000000000000D+00  0.0000000000000D+00
   353  3.5200000000000D+00  0.0000000000000D+00  0.0000000000000D+00
   354  3.5300000000000D+00  0.0000000000000D+00  0.0000000000000D+00
   355  3.5400000000000D+00  0.0000000000000D+00  0.0000000000000D+00
   356  3.5500000000000D+00  0.0000000000000D+00  0.0000000000000D+00
   357  3.5600000000000D+00  0.0000000000000D+00  0.0000000000000D+00
   358  3.5700000000000D+00  0.0000000000000D+00  0.0000000000000D+00
   359  3.5800000000000D+00  0.0000000000000D+00  0.0000000000000D+00
   360  3.5900000000000D+00  0.0000000000000D+00  0.0000000000000D+00
   361  3.6000000000000D+00  0.0000000000000D+00  0.0000000000000D+00
   362  3.6100000000000D+00  0.0000000000000D+00  0.0000000000000D+00
   363  3.6200000000000D+00  0.0000000000000D+00  0.0000000000000D+00
   364  3.6300000000000D+00  0.0000000000000D+00  0.0000000000000D+00
   365  3.6400000000000D+00  0.0000000000000D+00  0.0000000000000D+00
   366  3.6500000000000D+00  0.0000000000000D+00  0.0000000000000D+00
   367  3.6600000000000D+00  0.0000000000000D+00  0.0000000000000D+00
   368  3.6700000000000D+00  0.0000000000000D+00  0.0000000000000D+00
   369  3.6800000000000D+00  0.0000000000000D+00  0.0000000000000D+00
   370  3.6900000000000D+00  0.0000000000000D+00  0.0000000000000D+00
   371  3.7000000000000D+00  0.0000000000000D+00  0.0000000000000D+00
   372  3.7100000000000D+00  0.0000000000000D+00  0.0000000000000D+00
   373  3.7200000000000D+00  0.0000000000000D+00  0.0000000000000D+00
   374  3.7300000000000D+00  0.0000000000000D+00  0.0000000000000D+00
   375  3.7400000000000D+00  0.0000000000000D+00  0.0000000000000D+00
   376  3.7500000000000D+00  0.0000000000000D+00  0.0000000000000D+00
   377  3.7600000000000D+00  0.0000000000000D+00  0.0000000000000D+00
   378  3.7700000000000D+00  0.0000000000000D+00  0.0000000000000D+00
   379  3.7800000000000D+00  0.0000000000000D+00  0.0000000000000D+00
   380  3.7900000000000D+00  0.0000000000000D+00  0.0000000000000D+00
   381  3.8000000000000D+00  0.0000000000000D+00  0.0000000000000D+00
   382  3.8100000000000D+00  0.0000000000000D+00  0.0000000000000D+00
   383  3.8200000000000D+00  0.0000000000000D+00  0.0000000000000D+00
   384  3.8300000000000D+00  0.0000000000000D+00  0.0000000000000D+00
   385  3.8400000000000D+00  0.0000000000000D+00  0.0000000000000D+00
   386  3.8500000000000D+00  0.0000000000000D+00  0.0000000000000D+00
   387  3.8600000000000D+00  0.0000000000000D+00  0.0000000000000D+00
   388  3.8700000000000D+00  0.0000000000000D+00  0.0000000000000D+00
   389  3.8800000000000D+00  0.0000000000000D+00  0.0000000000000D+00
   390  3.8900000000000D+00  0.0000000000000D+00  0.0000000000000D+00
   391  3.9000000000000D+00  0.0000000000000D+00  0.0000000000000D+00
   392  3.9100000000000D+00  0.0000000000000D+00  0.0000000000000D+00
   393  3.9200000000000D+00  0.0000000000000D+00  0.0000000000000D+00
   394  3.9300000000000D+00  0.0000000000000D+00  0.0000000000000D+00
   395  3.9400000000000D+00  0.0000000000000D+00  0.0000000000000D+00
   396  3.9500000000000D+00  0.0000000000000D+00  0.0000000000000D+00
   397  3.9600000000000D+00  0.0000000000000D+00  0.0000000000000D+00
   398  3.9700000000000D+00  0.0000000000000D+00  0.0000000000000D+00
   399  3.9800000000000D+00  0.0000000000000D+00  0.0000000000000D+00
   400  3.9900000000000D+00  0.0000000000000D+00  0.0000000000000D+00
   401  4.0000000000000D+00  0.0000000000000D+00  0.0000000000000D+00
   402  4.0100000000000D+00  0.0000000000000D+00  0.0000000000000D+00
   403  4.0200000000000D+00  0.0000000000000D+00  0.0000000000000D+00
   404  4.0300000000000D+00  0.0000000000000D+00  0.0000000000000D+00
   405  4.0400000000000D+00  0.0000000000000D+00  0.0000000000000D+00
   406  4.0500000000000D+00  0.0000000000000D+00  0.0000000000000D+00
   407  4.0600000000000D+00  0.0000000000000D+00  0.0000000000000D+00
   408  4.0700000000000D+00  0.0000000000000D+00  0.0000000000000D+00
   409  4.0800000000000D+00  0.0000000000000D+00  0.0000000000000D+00
   410  4.0900000000000D+00  0.0000000000000D+00  0.0000000000000D+00
   411  4.1000000000000D+00  0.0000000000000D+00  0.0000000000000D+00
   412  4.1100000000000D+00  0.0000000000000D+00  0.0000000000000D+00
   413  4.1200000000000D+00  0.0000000000000D+00  0.0000000000000D+00
   414  4.1300000000000D+00  0.0000000000000D+00  0.0000000000000D+00
   415  4.1400000000000D+00  0.0000000000000D+00  0.0000000000000D+00
   416  4.1500000000000D+00  0.0000000000000D+00  0.0000000000000D+00
   417  4.1600000000000D+00  0.0000000000000D+00  0.0000000000000D+00
   418  4.1700000000000D+00  0.0000000000000D+00  0.0000000000000D+00
   419  4.1800000000000D+00  0.0000000000000D+00  0.0000000000000D+00
   420  4.1900000000000D+00  0.0000000000000D+00  0.0000000000000D+00
   421  4.2000000000000D+00  0.0000000000000D+00  0.0000000000000D+00
   422  4.2100000000000D+00  0.0000000000000D+00  0.0000000000000D+00