Sb    ONCVPSP-3.3.1  r_core=   2.48127   3.00305   3.59145
     51.0000     15.0000      210904    zatom,zion,pspd
     8       2   2     4   600     0    pspcod,pspxc,lmax,lloc,mmax,r2well
  5.99000000  0.00000000  0.00000000    rchrg fchrg qchrg
     2     2     2     0     0    nproj
     1     1           extension_switch
   0                         6.2193339746629D+00  1.3504684848128D+00
     1  0.0000000000000D+00  4.4839826296439D-12 -2.5747931564624D-11
     2  1.0000000000000D-02  8.9229039380740D-03  2.7285803996362D-02
     3  2.0000000000000D-02  1.7879716242375D-02  5.4451021452000D-02
     4  3.0000000000000D-02  2.6904213514852D-02  8.1375553807571D-02
     5  4.0000000000000D-02  3.6029909235160D-02  1.0794027662780D-01
     6  5.0000000000000D-02  4.5289923214070D-02  1.3402752207322D-01
     7  6.0000000000000D-02  5.4716852261179D-02  1.5952155588174D-01
     8  7.0000000000000D-02  6.4342642466476D-02  1.8430904706009D-01
     9  8.0000000000000D-02  7.4198463490820D-02  2.0827952851094D-01
    10  9.0000000000000D-02  8.4314585254811D-02  2.3132584685362D-01
    11  1.0000000000000D-01  9.4720257408890D-02  2.5334459973438D-01
    12  1.1000000000000D-01  1.0544359195975D-01  2.7423655896664D-01
    13  1.2000000000000D-01  1.1651144941932D-01  2.9390707789170D-01
    14  1.3000000000000D-01  1.2794932883286D-01  3.1226648140658D-01
    15  1.4000000000000D-01  1.3978126203162D-01  3.2923043716718D-01
    16  1.5000000000000D-01  1.5202971244391D-01  3.4472030654206D-01
    17  1.6000000000000D-01  1.6471547878551D-01  3.5866347396446D-01
    18  1.7000000000000D-01  1.7785760393644D-01  3.7099365340739D-01
    19  1.8000000000000D-01  1.9147328929681D-01  3.8165117078880D-01
    20  1.9000000000000D-01  2.0557781489833D-01  3.9058322120027D-01
    21  2.0000000000000D-01  2.2018446553240D-01  3.9774409994340D-01
    22  2.1000000000000D-01  2.3530446313782D-01  4.0309540645305D-01
    23  2.2000000000000D-01  2.5094690567360D-01  4.0660622028457D-01
    24  2.3000000000000D-01  2.6711871268361D-01  4.0825324844400D-01
    25  2.4000000000000D-01  2.8382457774025D-01  4.0802094344496D-01
    26  2.5000000000000D-01  3.0106692793463D-01  4.0590159158290D-01
    27  2.6000000000000D-01  3.1884589055987D-01  4.0189537102730D-01
    28  2.7000000000000D-01  3.3715926711335D-01  3.9601037944353D-01
    29  2.8000000000000D-01  3.5600251472184D-01  3.8826263096929D-01
    30  2.9000000000000D-01  3.7536873507169D-01  3.7867602248449D-01
    31  3.0000000000000D-01  3.9524867090387D-01  3.6728226922859D-01
    32  3.1000000000000D-01  4.1563071011081D-01  3.5412080993407D-01
    33  3.2000000000000D-01  4.3650089744937D-01  3.3923868176058D-01
    34  3.3000000000000D-01  4.5784295386109D-01  3.2269036542822D-01
    35  3.4000000000000D-01  4.7963830336751D-01  3.0453760106269D-01
    36  3.5000000000000D-01  5.0186610748545D-01  2.8484917537717D-01
    37  3.6000000000000D-01  5.2450330708375D-01  2.6370068092661D-01
    38  3.7000000000000D-01  5.4752467157978D-01  2.4117424827855D-01
    39  3.8000000000000D-01  5.7090285535136D-01  2.1735825205054D-01
    40  3.9000000000000D-01  5.9460846121667D-01  1.9234699186721D-01
    41  4.0000000000000D-01  6.1861011081260D-01  1.6624034938947D-01
    42  4.1000000000000D-01  6.4287452167974D-01  1.3914342266429D-01
    43  4.2000000000000D-01  6.6736659084076D-01  1.1116613913468D-01
    44  4.3000000000000D-01  6.9204948463772D-01  8.2422848736843D-02
    45  4.4000000000000D-01  7.1688473457343D-01  5.3031898593216D-02
    46  4.5000000000000D-01  7.4183233888207D-01  2.3115190886967D-02
    47  4.6000000000000D-01  7.6685086953523D-01 -7.2022744254132D-03
    48  4.7000000000000D-01  7.9189758437108D-01 -3.7792870341792D-02
    49  4.8000000000000D-01  8.1692854401708D-01 -6.8526825201729D-02
    50  4.9000000000000D-01  8.4189873325982D-01 -9.9272714900668D-02
    51  5.0000000000000D-01  8.6676218650038D-01 -1.2989796305266D-01
    52  5.1000000000000D-01  8.9147211691863D-01 -1.6026934718495D-01
    53  5.2000000000000D-01  9.1598104895693D-01 -1.9025350901663D-01
    54  5.3000000000000D-01  9.4024095372107D-01 -2.1971746684978D-01
    55  5.4000000000000D-01  9.6420338688538D-01 -2.4852912808562D-01
    56  5.5000000000000D-01  9.8781962867921D-01 -2.7655779986988D-01
    57  5.6000000000000D-01  1.0110408255234D+00 -3.0367469587103D-01
    58  5.7000000000000D-01  1.0338181328781D+00 -3.2975343720268D-01
    59  5.8000000000000D-01  1.0561028588580D+00 -3.5467054551692D-01
    60  5.9000000000000D-01  1.0778466081663D+00 -3.7830592631866D-01
    61  6.0000000000000D-01  1.0990014258952D+00 -4.0054334058262D-01
    62  6.1000000000000D-01  1.1195199407411D+00 -4.2127086279382D-01
    63  6.2000000000000D-01  1.1393555071813D+00 -4.4038132357963D-01
    64  6.3000000000000D-01  1.1584623461599D+00 -4.5777273515613D-01
    65  6.4000000000000D-01  1.1767956838361D+00 -4.7334869787372D-01
    66  6.5000000000000D-01  1.1943118879503D+00 -4.8701878621704D-01
    67  6.6000000000000D-01  1.2109686013702D+00 -4.9869891269018D-01
    68  6.7000000000000D-01  1.2267248723879D+00 -5.0831166810251D-01
    69  6.8000000000000D-01  1.2415412813455D+00 -5.1578663686012D-01
    70  6.9000000000000D-01  1.2553800631805D+00 -5.2106068596411D-01
    71  7.0000000000000D-01  1.2682052254906D+00 -5.2407822651938D-01
    72  7.1000000000000D-01  1.2799826617343D+00 -5.2479144666501D-01
    73  7.2000000000000D-01  1.2906802591962D+00 -5.2316051495018D-01
    74  7.3000000000000D-01  1.3002680013628D+00 -5.1915375329663D-01
    75  7.4000000000000D-01  1.3087180643720D+00 -5.1274777881007D-01
    76  7.5000000000000D-01  1.3160049072177D+00 -5.0392761382845D-01
    77  7.6000000000000D-01  1.3221053554110D+00 -4.9268676372279D-01
    78  7.7000000000000D-01  1.3269986778205D+00 -4.7902726209705D-01
    79  7.8000000000000D-01  1.3306666564356D+00 -4.6295968316688D-01
    80  7.9000000000000D-01  1.3330936488198D+00 -4.4450312123090D-01
    81  8.0000000000000D-01  1.3342666430447D+00 -4.2368513728387D-01
    82  8.1000000000000D-01  1.3341753049210D+00 -4.0054167295633D-01
    83  8.2000000000000D-01  1.3328120173655D+00 -3.7511693210098D-01
    84  8.3000000000000D-01  1.3301719117715D+00 -3.4746323048038D-01
    85  8.4000000000000D-01  1.3262528912767D+00 -3.1764081414363D-01
    86  8.5000000000000D-01  1.3210556458457D+00 -2.8571764721041D-01
    87  8.6000000000000D-01  1.3145836591172D+00 -2.5176916990940D-01
    88  8.7000000000000D-01  1.3068432069883D+00 -2.1587802784296D-01
    89  8.8000000000000D-01  1.2978433479394D+00 -1.7813377357089D-01
    90  8.9000000000000D-01  1.2875959051291D+00 -1.3863254172365D-01
    91  9.0000000000000D-01  1.2761154403161D+00 -9.7476698966347D-02
    92  9.1000000000000D-01  1.2634192196944D+00 -5.4774470242074D-02
    93  9.2000000000000D-01  1.2495271717523D+00 -1.0639542823151D-02
    94  9.3000000000000D-01  1.2344618372949D+00  3.4809350207302D-02
    95  9.4000000000000D-01  1.2182483117960D+00  8.1448865333446D-02
    96  9.5000000000000D-01  1.2009141802688D+00  1.2915150105519D-01
    97  9.6000000000000D-01  1.1824894448722D+00  1.7778606554560D-01
    98  9.7000000000000D-01  1.1630064454941D+00  2.2721815759201D-01
    99  9.8000000000000D-01  1.1424997735735D+00  2.7731065883998D-01
   100  9.9000000000000D-01  1.1210061794489D+00  3.2792423531271D-01
   101  1.0000000000000D+00  1.0985644735413D+00  3.7891784614044D-01
   102  1.0100000000000D+00  1.0752154216979D+00  4.3014925740620D-01
   103  1.0200000000000D+00  1.0510016350457D+00  4.8147555899448D-01
   104  1.0300000000000D+00  1.0259674547189D+00  5.3275368231963D-01
   105  1.0400000000000D+00  1.0001588318419D+00  5.8384091681061D-01
   106  1.0500000000000D+00  9.7362320316448D-01  6.3459542303752D-01
   107  1.0600000000000D+00  9.4640936275959D-01  6.8487674038487D-01
   108  1.0700000000000D+00  9.1856733020612D-01  7.3454628720392D-01
   109  1.0800000000000D+00  8.9014821568912D-01  7.8346785141282D-01
   110  1.0900000000000D+00  8.6120408246000D-01  8.3150806956247D-01
   111  1.1000000000000D+00  8.3178780710561D-01  8.7853689243855D-01
   112  1.1100000000000D+00  8.0195293808136D-01  9.2442803534120D-01
   113  1.1200000000000D+00  7.7175355296677D-01  9.6905941124283D-01
   114  1.1300000000000D+00  7.4124411490539D-01  1.0123135451199D+00
   115  1.1400000000000D+00  7.1047932869071D-01  1.0540779678336D+00
   116  1.1500000000000D+00  6.7951399695855D-01  1.0942455880427D+00
   117  1.1600000000000D+00  6.4840287694467D-01  1.1327150407087D+00
   118  1.1700000000000D+00  6.1720053826118D-01  1.1693910108894D+00
   119  1.1800000000000D+00  5.8596122213977D-01  1.2041845316165D+00
   120  1.1900000000000D+00  5.5473870258029D-01  1.2370132547943D+00
   121  1.2000000000000D+00  5.2358614983902D-01  1.2678016941242D+00
   122  1.2100000000000D+00  4.9255599667466D-01  1.2964814392621D+00
   123  1.2200000000000D+00  4.6169980775932D-01  1.3229913405142D+00
   124  1.2300000000000D+00  4.3106815265207D-01  1.3472776634842D+00
   125  1.2400000000000D+00  4.0071048271451D-01  1.3692942132582D+00
   126  1.2500000000000D+00  3.7067501232881D-01  1.3890024278627D+00
   127  1.2600000000000D+00  3.4100860476728D-01  1.4063714408261D+00
   128  1.2700000000000D+00  3.1175666304429D-01  1.4213781128185D+00
   129  1.2800000000000D+00  2.8296302605146D-01  1.4340070325517D+00
   130  1.2900000000000D+00  2.5466987026870D-01  1.4442504871677D+00
   131  1.3000000000000D+00  2.2691761732250D-01  1.4521084024973D+00
   132  1.3100000000000D+00  1.9974484762334D-01  1.4575882537925D+00
   133  1.3200000000000D+00  1.7318822031481D-01  1.4607049475300D+00
   134  1.3300000000000D+00  1.4728239973453D-01  1.4614806750747D+00
   135  1.3400000000000D+00  1.2205998854444D-01  1.4599447391861D+00
   136  1.3500000000000D+00  9.7551467704193D-02  1.4561333542794D+00
   137  1.3600000000000D+00  7.3785143401527D-02  1.4500894216404D+00
   138  1.3700000000000D+00  5.0787101027827D-02  1.4418622808612D+00
   139  1.3800000000000D+00  2.8581166311993D-02  1.4315074387014D+00
   140  1.3900000000000D+00  7.1888736234777D-03  1.4190862769431D+00
   141  1.4000000000000D+00 -1.3370558504212D-02  1.4046657406420D+00
   142  1.4100000000000D+00 -3.3080244619892D-02  1.3883180083589D+00
   143  1.4200000000000D+00 -5.1925642429394D-02  1.3701201460797D+00
   144  1.4300000000000D+00 -6.9894555685486D-02  1.3501537464008D+00
   145  1.4400000000000D+00 -8.6977130015569D-02  1.3285045548373D+00
   146  1.4500000000000D+00 -1.0316584174508D-01  1.3052620849530D+00
   147  1.4600000000000D+00 -1.1845547982561D-01  1.2805192241585D+00
   148  1.4700000000000D+00 -1.3284312103730D-01  1.2543718319897D+00
   149  1.4800000000000D+00 -1.4632809855478D-01  1.2269183327137D+00
   150  1.4900000000000D+00 -1.5891196412135D-01  1.1982593040822D+00
   151  1.5000000000000D+00 -1.7059844395674D-01  1.1684970640823D+00
   152  1.5100000000000D+00 -1.8139338865024D-01  1.1377352574855D+00
   153  1.5200000000000D+00 -1.9130471724321D-01  1.1060784439486D+00
   154  1.5300000000000D+00 -2.0034235573310D-01  1.0736316895103D+00
   155  1.5400000000000D+00 -2.0851817028029D-01  1.0405001629931D+00
   156  1.5500000000000D+00 -2.1584589533476D-01  1.0067887392689D+00
   157  1.5600000000000D+00 -2.2234105701914D-01  9.7260161054447D-01
   158  1.5700000000000D+00 -2.2802089198880D-01  9.3804190771615D-01
   159  1.5800000000000D+00 -2.3290426212570D-01  9.0321133266726D-01
   160  1.5900000000000D+00 -2.3701156531711D-01  8.6820980341787D-01
   161  1.6000000000000D+00 -2.4036464266697D-01  8.3313511291493D-01
   162  1.6100000000000D+00 -2.4298668242500D-01  7.9808260304137D-01
   163  1.6200000000000D+00 -2.4490212097109D-01  7.6314485462307D-01
   164  1.6300000000000D+00 -2.4613654115961D-01  7.2841139460113D-01
   165  1.6400000000000D+00 -2.4671656835627D-01  6.9396842116031D-01
   166  1.6500000000000D+00 -2.4666976447616D-01  6.5989854753373D-01
   167  1.6600000000000D+00 -2.4602452035597D-01  6.2628056527617D-01
   168  1.6700000000000D+00 -2.4480994675897D-01  5.9318922728432D-01
   169  1.6800000000000D+00 -2.4305576434906D-01  5.6069505131596D-01
   170  1.6900000000000D+00 -2.4079219291257D-01  5.2886414389166D-01
   171  1.7000000000000D+00 -2.3804984016591D-01  4.9775804521945D-01
   172  1.7100000000000D+00 -2.3485959040359D-01  4.6743359471584D-01
   173  1.7200000000000D+00 -2.3125249332014D-01  4.3794281755699D-01
   174  1.7300000000000D+00 -2.2725965323791D-01  4.0933283163887D-01
   175  1.7400000000000D+00 -2.2291211905770D-01  3.8164577506228D-01
   176  1.7500000000000D+00 -2.1824077515091D-01  3.5491875346304D-01
   177  1.7600000000000D+00 -2.1327623347419D-01  3.2918380687140D-01
   178  1.7700000000000D+00 -2.0804872712982D-01  3.0446789550110D-01
   179  1.7800000000000D+00 -2.0258800559040D-01  2.8079290362548D-01
   180  1.7900000000000D+00 -1.9692323184079D-01  2.5817566113438D-01
   181  1.8000000000000D+00 -1.9108288133606D-01  2.3662798051726D-01
   182  1.8100000000000D+00 -1.8509464379410D-01  2.1615671174190D-01
   183  1.8200000000000D+00 -1.7898532886660D-01  1.9676381708695D-01
   184  1.8300000000000D+00 -1.7278076170306D-01  1.7844641349059D-01
   185  1.8400000000000D+00 -1.6650572634463D-01  1.6119698635907D-01
   186  1.8500000000000D+00 -1.6018384472619D-01  1.4500338712883D-01
   187  1.8600000000000D+00 -1.5383743847128D-01  1.2984873322993D-01
   188  1.8700000000000D+00 -1.4748757428984D-01  1.1571201346097D-01
   189  1.8800000000000D+00 -1.4115407964244D-01  1.0256858939323D-01
   190  1.8900000000000D+00 -1.3485558814722D-01  9.0390718924465D-02
   191  1.9000000000000D+00 -1.2860963703982D-01  7.9148235110089D-02
   192  1.9100000000000D+00 -1.2243272111611D-01  6.8809051199853D-02
   193  1.9200000000000D+00 -1.1634023855917D-01  5.9339229980849D-02
   194  1.9300000000000D+00 -1.1034647101725D-01  5.0703150272982D-02
   195  1.9400000000000D+00 -1.0446461180210D-01  4.2863873345555D-02
   196  1.9500000000000D+00 -9.8706759346360D-02  3.5783343671722D-02
   197  1.9600000000000D+00 -9.3083928443171D-02  2.9422644255255D-02
   198  1.9700000000000D+00 -8.7606061840627D-02  2.3742236388326D-02
   199  1.9800000000000D+00 -8.2282044920744D-02  1.8702192553579D-02
   200  1.9900000000000D+00 -7.7119723594515D-02  1.4262422750390D-02
   201  2.0000000000000D+00 -7.2125924998766D-02  1.0382893441098D-02
   202  2.0100000000000D+00 -6.7306480953067D-02  7.0238357794732D-03
   203  2.0200000000000D+00 -6.2666253879058D-02  4.1459455117948D-03
   204  2.0300000000000D+00 -5.8209165111025D-02  1.7105700881823D-03
   205  2.0400000000000D+00 -5.3938225373777D-02 -3.2011490034446D-04
   206  2.0500000000000D+00 -4.9855567264956D-02 -1.9829418585470D-03
   207  2.0600000000000D+00 -4.5962479568351D-02 -3.3136016062098D-03
   208  2.0700000000000D+00 -4.2259443247819D-02 -4.3465050069109D-03
   209  2.0800000000000D+00 -3.8746168882592D-02 -5.1146615241910D-03
   210  2.0900000000000D+00 -3.5421635463531D-02 -5.6495697522637D-03
   211  2.1000000000000D+00 -3.2284130307062D-02 -5.9811234718275D-03
   212  2.1100000000000D+00 -2.9331289919630D-02 -6.1375331759942D-03
   213  2.1200000000000D+00 -2.6560141764740D-02 -6.1452599253818D-03
   214  2.1300000000000D+00 -2.3967146544917D-02 -6.0289670650641D-03
   215  2.1400000000000D+00 -2.1548241098415D-02 -5.8114838885573D-03
   216  2.1500000000000D+00 -1.9298881583229D-02 -5.5137846105821D-03
   217  2.1600000000000D+00 -1.7214086797130D-02 -5.1549822442065D-03
   218  2.1700000000000D+00 -1.5288481710762D-02 -4.7523335707961D-03
   219  2.1800000000000D+00 -1.3516340694082D-02 -4.3212602503893D-03
   220  2.1900000000000D+00 -1.1891630674498D-02 -3.8753804545334D-03
   221  2.2000000000000D+00 -1.0408053922790D-02 -3.4265527017276D-03
   222  2.2100000000000D+00 -9.0590902400460D-03 -2.9849322533207D-03
   223  2.2200000000000D+00 -7.8380387640655D-03 -2.5590360531026D-03
   224  2.2300000000000D+00 -6.7380588778415D-03 -2.1558190128076D-03
   225  2.2400000000000D+00 -5.7522103688622D-03 -1.7807586803781D-03
   226  2.2500000000000D+00 -4.8734928133733D-03 -1.4379470951666D-03
   227  2.2600000000000D+00 -4.0948837076089D-03 -1.1301910297440D-03
   228  2.2700000000000D+00 -3.4093757296965D-03 -8.5911731960483D-04
   229  2.2800000000000D+00 -2.8100127641058D-03 -6.2528351993988D-04
   230  2.2900000000000D+00 -2.2899245652376D-03 -4.2829284723548D-04
   231  2.3000000000000D+00 -1.8423603263909D-03 -2.6691205806745D-04
   232  2.3100000000000D+00 -1.4607206632814D-03 -1.3919127234319D-04
   233  2.3200000000000D+00 -1.1385881781898D-03 -4.2584735043840D-05
   234  2.3300000000000D+00 -8.6975671676862D-04  2.5927601588785D-05
   235  2.3400000000000D+00 -6.4825877397044D-04  6.9720883054230D-05
   236  2.3500000000000D+00 -4.6839148873532D-04  9.2407122548668D-05
   237  2.3600000000000D+00 -3.2474102795662D-04  9.7719443869296D-05
   238  2.3700000000000D+00 -2.1220509846178D-04  8.9402018054596D-05
   239  2.3800000000000D+00 -1.2601392764975D-04  7.1102639164076D-05
   240  2.3900000000000D+00 -6.1749448727989D-05  4.6271439191771D-05
   241  2.4000000000000D+00 -1.5284052674618D-05  1.7916425684787D-05
   242  2.4100000000000D+00  1.6950086474938D-05 -1.0997773418757D-05
   243  2.4200000000000D+00  3.8086513418241D-05 -3.7897322139555D-05
   244  2.4300000000000D+00  5.0319737526045D-05 -5.9960651860655D-05
   245  2.4400000000000D+00  5.7325020272302D-05 -7.8019224547522D-05
   246  2.4500000000000D+00  6.2137002686848D-05 -9.3237464100476D-05
   247  2.4600000000000D+00  6.8414488789545D-05 -1.0891797269254D-04
   248  2.4700000000000D+00  7.1503523312999D-05 -1.1693341972183D-04
   249  2.4800000000000D+00  6.6915039847292D-05 -1.1034838580982D-04
   250  2.4900000000000D+00  4.8126205597968D-05 -7.9674235818269D-05
   251  2.5000000000000D+00  2.3716814879026D-05 -3.9323925763939D-05
   252  2.5100000000000D+00  1.8528957195435D-06 -3.0725948237646D-06
   253  2.5200000000000D+00 -6.4317973730688D-06  1.0736019931081D-05
   254  2.5300000000000D+00 -5.7589643755119D-06  9.6240442260295D-06
   255  2.5400000000000D+00 -6.6731795410363D-07  1.1161618307884D-06
   256  2.5500000000000D+00  1.3580597734523D-06 -2.2592972725472D-06
   257  2.5600000000000D+00  1.4012844825370D-06 -2.3320789076797D-06
   258  2.5700000000000D+00  2.4138049129110D-07 -4.0184176708398D-07
   259  2.5800000000000D+00 -1.4968112515976D-07  2.4690244508431D-07
   260  2.5900000000000D+00 -1.7347876772338D-07  2.8615720168726D-07
   261  2.6000000000000D+00 -4.4653895620429D-08  7.3657623828363D-08
   262  2.6100000000000D+00  0.0000000000000D+00  0.0000000000000D+00
   263  2.6200000000000D+00  0.0000000000000D+00  0.0000000000000D+00
   264  2.6300000000000D+00  0.0000000000000D+00  0.0000000000000D+00
   265  2.6400000000000D+00  0.0000000000000D+00  0.0000000000000D+00
   266  2.6500000000000D+00  0.0000000000000D+00  0.0000000000000D+00
   267  2.6600000000000D+00  0.0000000000000D+00  0.0000000000000D+00
   268  2.6700000000000D+00  0.0000000000000D+00  0.0000000000000D+00
   269  2.6800000000000D+00  0.0000000000000D+00  0.0000000000000D+00
   270  2.6900000000000D+00  0.0000000000000D+00  0.0000000000000D+00
   271  2.7000000000000D+00  0.0000000000000D+00  0.0000000000000D+00
   272  2.7100000000000D+00  0.0000000000000D+00  0.0000000000000D+00
   273  2.7200000000000D+00  0.0000000000000D+00  0.0000000000000D+00
   274  2.7300000000000D+00  0.0000000000000D+00  0.0000000000000D+00
   275  2.7400000000000D+00  0.0000000000000D+00  0.0000000000000D+00
   276  2.7500000000000D+00  0.0000000000000D+00  0.0000000000000D+00
   277  2.7600000000000D+00  0.0000000000000D+00  0.0000000000000D+00
   278  2.7700000000000D+00  0.0000000000000D+00  0.0000000000000D+00
   279  2.7800000000000D+00  0.0000000000000D+00  0.0000000000000D+00
   280  2.7900000000000D+00  0.0000000000000D+00  0.0000000000000D+00
   281  2.8000000000000D+00  0.0000000000000D+00  0.0000000000000D+00
   282  2.8100000000000D+00  0.0000000000000D+00  0.0000000000000D+00
   283  2.8200000000000D+00  0.0000000000000D+00  0.0000000000000D+00
   284  2.8300000000000D+00  0.0000000000000D+00  0.0000000000000D+00
   285  2.8400000000000D+00  0.0000000000000D+00  0.0000000000000D+00
   286  2.8500000000000D+00  0.0000000000000D+00  0.0000000000000D+00
   287  2.8600000000000D+00  0.0000000000000D+00  0.0000000000000D+00
   288  2.8700000000000D+00  0.0000000000000D+00  0.0000000000000D+00
   289  2.8800000000000D+00  0.0000000000000D+00  0.0000000000000D+00
   290  2.8900000000000D+00  0.0000000000000D+00  0.0000000000000D+00
   291  2.9000000000000D+00  0.0000000000000D+00  0.0000000000000D+00
   292  2.9100000000000D+00  0.0000000000000D+00  0.0000000000000D+00
   293  2.9200000000000D+00  0.0000000000000D+00  0.0000000000000D+00
   294  2.9300000000000D+00  0.0000000000000D+00  0.0000000000000D+00
   295  2.9400000000000D+00  0.0000000000000D+00  0.0000000000000D+00
   296  2.9500000000000D+00  0.0000000000000D+00  0.0000000000000D+00
   297  2.9600000000000D+00  0.0000000000000D+00  0.0000000000000D+00
   298  2.9700000000000D+00  0.0000000000000D+00  0.0000000000000D+00
   299  2.9800000000000D+00  0.0000000000000D+00  0.0000000000000D+00
   300  2.9900000000000D+00  0.0000000000000D+00  0.0000000000000D+00
   301  3.0000000000000D+00  0.0000000000000D+00  0.0000000000000D+00
   302  3.0100000000000D+00  0.0000000000000D+00  0.0000000000000D+00
   303  3.0200000000000D+00  0.0000000000000D+00  0.0000000000000D+00
   304  3.0300000000000D+00  0.0000000000000D+00  0.0000000000000D+00
   305  3.0400000000000D+00  0.0000000000000D+00  0.0000000000000D+00
   306  3.0500000000000D+00  0.0000000000000D+00  0.0000000000000D+00
   307  3.0600000000000D+00  0.0000000000000D+00  0.0000000000000D+00
   308  3.0700000000000D+00  0.0000000000000D+00  0.0000000000000D+00
   309  3.0800000000000D+00  0.0000000000000D+00  0.0000000000000D+00
   310  3.0900000000000D+00  0.0000000000000D+00  0.0000000000000D+00
   311  3.1000000000000D+00  0.0000000000000D+00  0.0000000000000D+00
   312  3.1100000000000D+00  0.0000000000000D+00  0.0000000000000D+00
   313  3.1200000000000D+00  0.0000000000000D+00  0.0000000000000D+00
   314  3.1300000000000D+00  0.0000000000000D+00  0.0000000000000D+00
   315  3.1400000000000D+00  0.0000000000000D+00  0.0000000000000D+00
   316  3.1500000000000D+00  0.0000000000000D+00  0.0000000000000D+00
   317  3.1600000000000D+00  0.0000000000000D+00  0.0000000000000D+00
   318  3.1700000000000D+00  0.0000000000000D+00  0.0000000000000D+00
   319  3.1800000000000D+00  0.0000000000000D+00  0.0000000000000D+00
   320  3.1900000000000D+00  0.0000000000000D+00  0.0000000000000D+00
   321  3.2000000000000D+00  0.0000000000000D+00  0.0000000000000D+00
   322  3.2100000000000D+00  0.0000000000000D+00  0.0000000000000D+00
   323  3.2200000000000D+00  0.0000000000000D+00  0.0000000000000D+00
   324  3.2300000000000D+00  0.0000000000000D+00  0.0000000000000D+00
   325  3.2400000000000D+00  0.0000000000000D+00  0.0000000000000D+00
   326  3.2500000000000D+00  0.0000000000000D+00  0.0000000000000D+00
   327  3.2600000000000D+00  0.0000000000000D+00  0.0000000000000D+00
   328  3.2700000000000D+00  0.0000000000000D+00  0.0000000000000D+00
   329  3.2800000000000D+00  0.0000000000000D+00  0.0000000000000D+00
   330  3.2900000000000D+00  0.0000000000000D+00  0.0000000000000D+00
   331  3.3000000000000D+00  0.0000000000000D+00  0.0000000000000D+00
   332  3.3100000000000D+00  0.0000000000000D+00  0.0000000000000D+00
   333  3.3200000000000D+00  0.0000000000000D+00  0.0000000000000D+00
   334  3.3300000000000D+00  0.0000000000000D+00  0.0000000000000D+00
   335  3.3400000000000D+00  0.0000000000000D+00  0.0000000000000D+00
   336  3.3500000000000D+00  0.0000000000000D+00  0.0000000000000D+00
   337  3.3600000000000D+00  0.0000000000000D+00  0.0000000000000D+00
   338  3.3700000000000D+00  0.0000000000000D+00  0.0000000000000D+00
   339  3.3800000000000D+00  0.0000000000000D+00  0.0000000000000D+00
   340  3.3900000000000D+00  0.0000000000000D+00  0.0000000000000D+00
   341  3.4000000000000D+00  0.0000000000000D+00  0.0000000000000D+00
   342  3.4100000000000D+00  0.0000000000000D+00  0.0000000000000D+00
   343  3.4200000000000D+00  0.0000000000000D+00  0.0000000000000D+00
   344  3.4300000000000D+00  0.0000000000000D+00  0.0000000000000D+00
   345  3.4400000000000D+00  0.0000000000000D+00  0.0000000000000D+00
   346  3.4500000000000D+00  0.0000000000000D+00  0.0000000000000D+00
   347  3.4600000000000D+00  0.0000000000000D+00  0.0000000000000D+00
   348  3.4700000000000D+00  0.0000000000000D+00  0.0000000000000D+00
   349  3.4800000000000D+00  0.0000000000000D+00  0.0000000000000D+00
   350  3.4900000000000D+00  0.0000000000000D+00  0.0000000000000D+00
   351  3.5000000000000D+00  0.0000000000000D+00  0.0000000000000D+00
   352  3.5100000000000D+00  0.0000000000000D+00  0.0000000000000D+00
   353  3.5200000000000D+00  0.0000000000000D+00  0.0000000000000D+00
   354  3.5300000000000D+00  0.0000000000000D+00  0.0000000000000D+00
   355  3.5400000000000D+00  0.0000000000000D+00  0.0000000000000D+00
   356  3.5500000000000D+00  0.0000000000000D+00  0.0000000000000D+00
   357  3.5600000000000D+00  0.0000000000000D+00  0.0000000000000D+00
   358  3.5700000000000D+00  0.0000000000000D+00  0.0000000000000D+00
   359  3.5800000000000D+00  0.0000000000000D+00  0.0000000000000D+00
   360  3.5900000000000D+00  0.0000000000000D+00  0.0000000000000D+00
   361  3.6000000000000D+00  0.0000000000000D+00  0.0000000000000D+00
   362  3.6100000000000D+00  0.0000000000000D+00  0.0000000000000D+00
   363  3.6200000000000D+00  0.0000000000000D+00  0.0000000000000D+00
   364  3.6300000000000D+00  0.0000000000000D+00  0.0000000000000D+00
   365  3.6400000000000D+00  0.0000000000000D+00  0.0000000000000D+00
   366  3.6500000000000D+00  0.0000000000000D+00  0.0000000000000D+00
   367  3.6600000000000D+00  0.0000000000000D+00  0.0000000000000D+00
   368  3.6700000000000D+00  0.0000000000000D+00  0.0000000000000D+00
   369  3.6800000000000D+00  0.0000000000000D+00  0.0000000000000D+00
   370  3.6900000000000D+00  0.0000000000000D+00  0.0000000000000D+00
   371  3.7000000000000D+00  0.0000000000000D+00  0.0000000000000D+00
   372  3.7100000000000D+00  0.0000000000000D+00  0.0000000000000D+00
   373  3.7200000000000D+00  0.0000000000000D+00  0.0000000000000D+00
   374  3.7300000000000D+00  0.0000000000000D+00  0.0000000000000D+00
   375  3.7400000000000D+00  0.0000000000000D+00  0.0000000000000D+00
   376  3.7500000000000D+00  0.0000000000000D+00  0.0000000000000D+00
   377  3.7600000000000D+00  0.0000000000000D+00  0.0000000000000D+00
   378  3.7700000000000D+00  0.0000000000000D+00  0.0000000000000D+00
   379  3.7800000000000D+00  0.0000000000000D+00  0.0000000000000D+00
   380  3.7900000000000D+00  0.0000000000000D+00  0.0000000000000D+00
   381  3.8000000000000D+00  0.0000000000000D+00  0.0000000000000D+00
   382  3.8100000000000D+00  0.0000000000000D+00  0.0000000000000D+00
   383  3.8200000000000D+00  0.0000000000000D+00  0.0000000000000D+00
   384  3.8300000000000D+00  0.0000000000000D+00  0.0000000000000D+00
   385  3.8400000000000D+00  0.0000000000000D+00  0.0000000000000D+00
   386  3.8500000000000D+00  0.0000000000000D+00  0.0000000000000D+00
   387  3.8600000000000D+00  0.0000000000000D+00  0.0000000000000D+00
   388  3.8700000000000D+00  0.0000000000000D+00  0.0000000000000D+00
   389  3.8800000000000D+00  0.0000000000000D+00  0.0000000000000D+00
   390  3.8900000000000D+00  0.0000000000000D+00  0.0000000000000D+00
   391  3.9000000000000D+00  0.0000000000000D+00  0.0000000000000D+00
   392  3.9100000000000D+00  0.0000000000000D+00  0.0000000000000D+00
   393  3.9200000000000D+00  0.0000000000000D+00  0.0000000000000D+00
   394  3.9300000000000D+00  0.0000000000000D+00  0.0000000000000D+00
   395  3.9400000000000D+00  0.0000000000000D+00  0.0000000000000D+00
   396  3.9500000000000D+00  0.0000000000000D+00  0.0000000000000D+00
   397  3.9600000000000D+00  0.0000000000000D+00  0.0000000000000D+00
   398  3.9700000000000D+00  0.0000000000000D+00  0.0000000000000D+00
   399  3.9800000000000D+00  0.0000000000000D+00  0.0000000000000D+00
   400  3.9900000000000D+00  0.0000000000000D+00  0.0000000000000D+00
   401  4.0000000000000D+00  0.0000000000000D+00  0.0000000000000D+00
   402  4.0100000000000D+00  0.0000000000000D+00  0.0000000000000D+00
   403  4.0200000000000D+00  0.0000000000000D+00  0.0000000000000D+00
   404  4.0300000000000D+00  0.0000000000000D+00  0.0000000000000D+00
   405  4.0400000000000D+00  0.0000000000000D+00  0.0000000000000D+00
   406  4.0500000000000D+00  0.0000000000000D+00  0.0000000000000D+00
   407  4.0600000000000D+00  0.0000000000000D+00  0.0000000000000D+00
   408  4.0700000000000D+00  0.0000000000000D+00  0.0000000000000D+00
   409  4.0800000000000D+00  0.0000000000000D+00  0.0000000000000D+00
   410  4.0900000000000D+00  0.0000000000000D+00  0.0000000000000D+00
   411  4.1000000000000D+00  0.0000000000000D+00  0.0000000000000D+00
   412  4.1100000000000D+00  0.0000000000000D+00  0.0000000000000D+00
   413  4.1200000000000D+00  0.0000000000000D+00  0.0000000000000D+00
   414  4.1300000000000D+00  0.0000000000000D+00  0.0000000000000D+00
   415  4.1400000000000D+00  0.0000000000000D+00  0.0000000000000D+00
   416  4.1500000000000D+00  0.0000000000000D+00  0.0000000000000D+00
   417  4.1600000000000D+00  0.0000000000000D+00  0.0000000000000D+00
   418  4.1700000000000D+00  0.0000000000000D+00  0.0000000000000D+00
   419  4.1800000000000D+00  0.0000000000000D+00  0.0000000000000D+00
   420  4.1900000000000D+00  0.0000000000000D+00  0.0000000000000D+00
   421  4.2000000000000D+00  0.0000000000000D+00  0.0000000000000D+00
   422  4.2100000000000D+00  0.0000000000000D+00  0.0000000000000D+00