Sc    ONCVPSP-3.3.1  r_core=   2.91081   2.94574   2.37654
     21.0000     11.0000      210904    zatom,zion,pspd
     8       2   2     4   600     0    pspcod,pspxc,lmax,lloc,mmax,r2well
  5.99000000  0.00000000  0.00000000    rchrg fchrg qchrg
     2     2     2     0     0    nproj
     1     1           extension_switch
   0                         1.2771402236677D+00 -3.7141652206634D-01
     1  0.0000000000000D+00 -1.2301271112847D-12 -2.3101798252156D-12
     2  1.0000000000000D-02  4.8078516149608D-02  1.5984127390324D-02
     3  2.0000000000000D-02  9.6091467317902D-02  3.1950753689004D-02
     4  3.0000000000000D-02  1.4397339258028D-01  4.7882435548014D-02
     5  4.0000000000000D-02  1.9165903894630D-01  6.3761844913921D-02
     6  5.0000000000000D-02  2.3908346487885D-01  7.9571826194177D-02
     7  6.0000000000000D-02  2.8618214327675D-01  9.5295452847828D-02
     8  7.0000000000000D-02  3.3289106374336D-01  1.1091608321149D-01
     9  8.0000000000000D-02  3.7914683396491D-01  1.2641741537378D-01
    10  9.0000000000000D-02  4.2488678002411D-01  1.4178354091416D-01
    11  1.0000000000000D-01  4.7004904547608D-01  1.5699899732584D-01
    12  1.1000000000000D-01  5.1457268901601D-01  1.7204881894605D-01
    13  1.2000000000000D-01  5.5839778057044D-01  1.8691858622181D-01
    14  1.3000000000000D-01  6.0146549564657D-01  2.0159447314422D-01
    15  1.4000000000000D-01  6.4371820777727D-01  2.1606329268993D-01
    16  1.5000000000000D-01  6.8509957890266D-01  2.3031254011455D-01
    17  1.6000000000000D-01  7.2555464753275D-01  2.4433043394932D-01
    18  1.7000000000000D-01  7.6502991453946D-01  2.5810595455927D-01
    19  1.8000000000000D-01  8.0347342643064D-01  2.7162888012890D-01
    20  1.9000000000000D-01  8.4083485596283D-01  2.8488981994886D-01
    21  2.0000000000000D-01  8.7706557995441D-01  2.9788024488603D-01
    22  2.1000000000000D-01  9.1211875416561D-01  3.1059251492740D-01
    23  2.2000000000000D-01  9.4594938511705D-01  3.2301990369798D-01
    24  2.3000000000000D-01  9.7851439872355D-01  3.3515661986180D-01
    25  2.4000000000000D-01  1.0097727056262D+00  3.4699782532508D-01
    26  2.5000000000000D-01  1.0396852631108D+00  3.5853965017061D-01
    27  2.6000000000000D-01  1.0682151335072D+00  3.6977920426267D-01
    28  2.7000000000000D-01  1.0953275389703D+00  3.8071458547229D-01
    29  2.8000000000000D-01  1.1209899125495D+00  3.9134488448340D-01
    30  2.9000000000000D-01  1.1451719454608D+00  4.0167018615130D-01
    31  3.0000000000000D-01  1.1678456304816D+00  4.1169156739588D-01
    32  3.1000000000000D-01  1.1889853013948D+00  4.2141109162326D-01
    33  3.2000000000000D-01  1.2085676684186D+00  4.3083179968048D-01
    34  3.3000000000000D-01  1.2265718495610D+00  4.3995769735945D-01
    35  3.4000000000000D-01  1.2429793978496D+00  4.4879373947744D-01
    36  3.5000000000000D-01  1.2577743243922D+00  4.5734581057255D-01
    37  3.6000000000000D-01  1.2709431172326D+00  4.6562070226410D-01
    38  3.7000000000000D-01  1.2824747559713D+00  4.7362608733864D-01
    39  3.8000000000000D-01  1.2923607221316D+00  4.8137049063339D-01
    40  3.9000000000000D-01  1.3005950052577D+00  4.8886325679982D-01
    41  4.0000000000000D-01  1.3071741047375D+00  4.9611451504054D-01
    42  4.1000000000000D-01  1.3120970273542D+00  5.0313514092314D-01
    43  4.2000000000000D-01  1.3153652805747D+00  5.0993671538466D-01
    44  4.3000000000000D-01  1.3169828615944D+00  5.1653148105046D-01
    45  4.4000000000000D-01  1.3169562421615D+00  5.2293229600036D-01
    46  4.5000000000000D-01  1.3152943492157D+00  5.2915258512440D-01
    47  4.6000000000000D-01  1.3120085413815D+00  5.3520628921924D-01
    48  4.7000000000000D-01  1.3071125813631D+00  5.4110781198437D-01
    49  4.8000000000000D-01  1.3006226042994D+00  5.4687196508552D-01
    50  4.9000000000000D-01  1.2925570821395D+00  5.5251391145969D-01
    51  5.0000000000000D-01  1.2829367841112D+00  5.5804910704336D-01
    52  5.1000000000000D-01  1.2717847333597D+00  5.6349324111177D-01
    53  5.2000000000000D-01  1.2591261598414D+00  5.6886217542274D-01
    54  5.3000000000000D-01  1.2449884495641D+00  5.7417188236407D-01
    55  5.4000000000000D-01  1.2294010902734D+00  5.7943838230779D-01
    56  5.5000000000000D-01  1.2123956136888D+00  5.8467768037874D-01
    57  5.6000000000000D-01  1.1940055344025D+00  5.8990570284823D-01
    58  5.7000000000000D-01  1.1742662855578D+00  5.9513823336626D-01
    59  5.8000000000000D-01  1.1532151514305D+00  6.0039084924746D-01
    60  5.9000000000000D-01  1.1308911970442D+00  6.0567885802776D-01
    61  6.0000000000000D-01  1.1073351949520D+00  6.1101723450886D-01
    62  6.1000000000000D-01  1.0825895493273D+00  6.1642055850772D-01
    63  6.2000000000000D-01  1.0566982175072D+00  6.2190295352747D-01
    64  6.3000000000000D-01  1.0297066291387D+00  6.2747802656448D-01
    65  6.4000000000000D-01  1.0016616030822D+00  6.3315880926404D-01
    66  6.5000000000000D-01  9.7261126223043D-01  6.3895770063426D-01
    67  6.6000000000000D-01  9.4260494640484D-01  6.4488641152385D-01
    68  6.7000000000000D-01  9.1169312349552D-01  6.5095591106520D-01
    69  6.8000000000000D-01  8.7992729901295D-01  6.5717637527882D-01
    70  6.9000000000000D-01  8.4735992422342D-01  6.6355713802961D-01
    71  7.0000000000000D-01  8.1404430304227D-01  6.7010664451861D-01
    72  7.1000000000000D-01  7.8003449786109D-01  6.7683240748692D-01
    73  7.2000000000000D-01  7.4538523448685D-01  6.8374096630048D-01
    74  7.3000000000000D-01  7.1015180637259D-01  6.9083784907583D-01
    75  7.4000000000000D-01  6.7438997832001D-01  6.9812753799826D-01
    76  7.5000000000000D-01  6.3815588983520D-01  7.0561343797341D-01
    77  7.6000000000000D-01  6.0150595831915D-01  7.1329784874388D-01
    78  7.7000000000000D-01  5.6449678227439D-01  7.2118194059100D-01
    79  7.8000000000000D-01  5.2718504470893D-01  7.2926573373099D-01
    80  7.9000000000000D-01  4.8962741691784D-01  7.3754808150305D-01
    81  8.0000000000000D-01  4.5188046282150D-01  7.4602665743434D-01
    82  8.1000000000000D-01  4.1400054403823D-01  7.5469794625478D-01
    83  8.2000000000000D-01  3.7604372586707D-01  7.6355723892142D-01
    84  8.3000000000000D-01  3.3806568435412D-01  7.7259863169880D-01
    85  8.4000000000000D-01  3.0012161461327D-01  7.8181502932863D-01
    86  8.5000000000000D-01  2.6226614056943D-01  7.9119815230794D-01
    87  8.6000000000000D-01  2.2455322628859D-01  8.0073854828154D-01
    88  8.7000000000000D-01  1.8703608905583D-01  8.1042560753995D-01
    89  8.8000000000000D-01  1.4976711435818D-01  8.2024758260060D-01
    90  8.9000000000000D-01  1.1279777292485D-01  8.3019161183540D-01
    91  9.0000000000000D-01  7.6178539973021D-02  8.4024374709407D-01
    92  9.1000000000000D-01  3.9958816802043D-02  8.5038898525835D-01
    93  9.2000000000000D-01  4.1868548740003D-03  8.6061130364851D-01
    94  9.3000000000000D-01 -3.1090317487117D-02  8.7089369918972D-01
    95  9.4000000000000D-01 -6.5826965651128D-02  8.8121823123228D-01
    96  9.5000000000000D-01 -9.9978716371812D-02  8.9156606790665D-01
    97  9.6000000000000D-01 -1.3350262249730D-01  9.0191753588113D-01
    98  9.7000000000000D-01 -1.6635722459310D-01  9.1225217337761D-01
    99  9.8000000000000D-01 -1.9850260937694D-01  9.2254878628840D-01
   100  9.9000000000000D-01 -2.2990046487127D-01  9.3278550722604D-01
   101  1.0000000000000D+00 -2.6051413218683D-01  9.4293985732622D-01
   102  1.0100000000000D+00 -2.9030865385759D-01  9.5298881061360D-01
   103  1.0200000000000D+00 -3.1925081865511D-01  9.6290886073046D-01
   104  1.0300000000000D+00 -3.4730920281757D-01  9.7267608981854D-01
   105  1.0400000000000D+00 -3.7445420763702D-01  9.8226623933567D-01
   106  1.0500000000000D+00 -4.0065809335543D-01  9.9165478258115D-01
   107  1.0600000000000D+00 -4.2589500932855D-01  1.0008169986965D+00
   108  1.0700000000000D+00 -4.5014102042430D-01  1.0097280479013D+00
   109  1.0800000000000D+00 -4.7337412963033D-01  1.0183630477193D+00
   110  1.0900000000000D+00 -4.9557429685371D-01  1.0266971499437D+00
   111  1.1000000000000D+00 -5.1672345390303D-01  1.0347056180885D+00
   112  1.1100000000000D+00 -5.3680551565172D-01  1.0423639050672D+00
   113  1.1200000000000D+00 -5.5580638738912D-01  1.0496477308419D+00
   114  1.1300000000000D+00 -5.7371396837394D-01  1.0565331597793D+00
   115  1.1400000000000D+00 -5.9051815161239D-01  1.0629966774562D+00
   116  1.1500000000000D+00 -6.0621081989007D-01  1.0690152666506D+00
   117  1.1600000000000D+00 -6.2078583809620D-01  1.0745664822643D+00
   118  1.1700000000000D+00 -6.3423904188498D-01  1.0796285249168D+00
   119  1.1800000000000D+00 -6.4656822272595D-01  1.0841803129619D+00
   120  1.1900000000000D+00 -6.5777310940277D-01  1.0882015526760D+00
   121  1.2000000000000D+00 -6.6785534602715D-01  1.0916728063767D+00
   122  1.2100000000000D+00 -6.7681846664186D-01  1.0945755582377D+00
   123  1.2200000000000D+00 -6.8466786649021D-01  1.0968922775658D+00
   124  1.2300000000000D+00 -6.9141077004014D-01  1.0986064793233D+00
   125  1.2400000000000D+00 -6.9705619585483D-01  1.0997027816825D+00
   126  1.2500000000000D+00 -7.0161491840628D-01  1.1001669604091D+00
   127  1.2600000000000D+00 -7.0509942693615D-01  1.0999859998812D+00
   128  1.2700000000000D+00 -7.0752388147324D-01  1.0991481405685D+00
   129  1.2800000000000D+00 -7.0890406611975D-01  1.0976429227969D+00
   130  1.2900000000000D+00 -7.0925733972470D-01  1.0954612266439D+00
   131  1.3000000000000D+00 -7.0860258406866D-01  1.0925953078269D+00
   132  1.3100000000000D+00 -7.0696014968392D-01  1.0890388294492D+00
   133  1.3200000000000D+00 -7.0435179944124D-01  1.0847868894893D+00
   134  1.3300000000000D+00 -7.0080065003767D-01  1.0798360439446D+00
   135  1.3400000000000D+00 -6.9633111151929D-01  1.0741843255279D+00
   136  1.3500000000000D+00 -6.9096882497963D-01  1.0678312578611D+00
   137  1.3600000000000D+00 -6.8474059857486D-01  1.0607778651159D+00
   138  1.3700000000000D+00 -6.7767434199693D-01  1.0530266770480D+00
   139  1.3800000000000D+00 -6.6979899955127D-01  1.0445817294263D+00
   140  1.3900000000000D+00 -6.6114448198289D-01  1.0354485598433D+00
   141  1.4000000000000D+00 -6.5174159719799D-01  1.0256341989126D+00
   142  1.4100000000000D+00 -6.4162198002708D-01  1.0151471569112D+00
   143  1.4200000000000D+00 -6.3081802117673D-01  1.0039974058752D+00
   144  1.4300000000000D+00 -6.1936279551580D-01  9.9219635724709D-01
   145  1.4400000000000D+00 -6.0728998984093D-01  9.7975683513933D-01
   146  1.4500000000000D+00 -5.9463383026826D-01  9.6669304529962D-01
   147  1.4600000000000D+00 -5.8142900938885D-01  9.5302053992662D-01
   148  1.4700000000000D+00 -5.6771061333667D-01  9.3875617840962D-01
   149  1.4800000000000D+00 -5.5351404889989D-01  9.2391808419080D-01
   150  1.4900000000000D+00 -5.3887497081800D-01  9.0852559786496D-01
   151  1.5000000000000D+00 -5.2382920939652D-01  8.9259922670848D-01
   152  1.5100000000000D+00 -5.0841269856630D-01  8.7616059082509D-01
   153  1.5200000000000D+00 -4.9266140452475D-01  8.5923236608063D-01
   154  1.5300000000000D+00 -4.7661125506522D-01  8.4183822408112D-01
   155  1.5400000000000D+00 -4.6029806973752D-01  8.2400276935657D-01
   156  1.5500000000000D+00 -4.4375749092823D-01  8.0575147404422D-01
   157  1.5600000000000D+00 -4.2702491599787D-01  7.8711061025535D-01
   158  1.5700000000000D+00 -4.1013543055836D-01  7.6810718042134D-01
   159  1.5800000000000D+00 -3.9312374300924D-01  7.4876884584311D-01
   160  1.5900000000000D+00 -3.7602412041842D-01  7.2912385373066D-01
   161  1.6000000000000D+00 -3.5887032584104D-01  7.0920096299040D-01
   162  1.6100000000000D+00 -3.4169555716720D-01  6.8902936904187D-01
   163  1.6200000000000D+00 -3.2453238756463D-01  6.6863862794104D-01
   164  1.6300000000000D+00 -3.0741270761248D-01  6.4805858009355D-01
   165  1.6400000000000D+00 -2.9036766916378D-01  6.2731927383898D-01
   166  1.6500000000000D+00 -2.7342763103786D-01  6.0645088919885D-01
   167  1.6600000000000D+00 -2.5662210655169D-01  5.8548366205717D-01
   168  1.6700000000000D+00 -2.3997971299513D-01  5.6444780908262D-01
   169  1.6800000000000D+00 -2.2352812303231D-01  5.4337345363471D-01
   170  1.6900000000000D+00 -2.0729401813471D-01  5.2229055298335D-01
   171  1.7000000000000D+00 -1.9130304400489D-01  5.0122882704697D-01
   172  1.7100000000000D+00 -1.7557976809293D-01  4.8021768899949D-01
   173  1.7200000000000D+00 -1.6014763914608D-01  4.5928617790731D-01
   174  1.7300000000000D+00 -1.4502894888472D-01  4.3846289376368D-01
   175  1.7400000000000D+00 -1.3024479573304D-01  4.1777593503684D-01
   176  1.7500000000000D+00 -1.1581505068242D-01  3.9725283910515D-01
   177  1.7600000000000D+00 -1.0175832521092D-01  3.7692052565915D-01
   178  1.7700000000000D+00 -8.8091941314675D-02  3.5680524342956D-01
   179  1.7800000000000D+00 -7.4831903578515D-02  3.3693252030289D-01
   180  1.7900000000000D+00 -6.1992873310749D-02  3.1732711713875D-01
   181  1.8000000000000D+00 -4.9588144683279D-02  2.9801298536349D-01
   182  1.8100000000000D+00 -3.7629622862867D-02  2.7901322856554D-01
   183  1.8200000000000D+00 -2.6127804097480D-02  2.6035006822480D-01
   184  1.8300000000000D+00 -1.5091757697870D-02  2.4204481365755D-01
   185  1.8400000000000D+00 -4.5291099078339D-03  2.2411783642176D-01
   186  1.8500000000000D+00  5.5539704454336D-03  2.0658854905928D-01
   187  1.8600000000000D+00  1.5152784495805D-02  1.8947538858963D-01
   188  1.8700000000000D+00  2.4264114230695D-02  1.7279580437711D-01
   189  1.8800000000000D+00  3.2886233682747D-02  1.5656625292073D-01
   190  1.8900000000000D+00  4.1018908188099D-02  1.4080218682328D-01
   191  1.9000000000000D+00  4.8663422817110D-02  1.2551807851871D-01
   192  1.9100000000000D+00  5.5822545183208D-02  1.1072738744260D-01
   193  1.9200000000000D+00  6.2500535643352D-02  9.6442576862764D-02
   194  1.9300000000000D+00  6.8703230482090D-02  8.2675208697365D-02
   195  1.9400000000000D+00  7.4438074534903D-02  6.9435998866953D-02
   196  1.9500000000000D+00  7.9713769816453D-02  5.6734496870354D-02
   197  1.9600000000000D+00  8.4540080907982D-02  4.4578914043385D-02
   198  1.9700000000000D+00  8.8927622313292D-02  3.2975989387596D-02
   199  1.9800000000000D+00  9.2887491252229D-02  2.1930694963401D-02
   200  1.9900000000000D+00  9.6431199837002D-02  1.1446247360877D-02
   201  2.0000000000000D+00  9.9570713583194D-02  1.5242330878642D-03
   202  2.0100000000000D+00  1.0231844948668D-01 -7.8352992180948D-03
   203  2.0200000000000D+00  1.0468716401850D-01 -1.6633864204058D-02
   204  2.0300000000000D+00  1.0668994285677D-01 -2.4874454405318D-02
   205  2.0400000000000D+00  1.0834015002851D-01 -3.2561494938385D-02
   206  2.0500000000000D+00  1.0965138801226D-01 -3.9700785041039D-02
   207  2.0600000000000D+00  1.1063745803072D-01 -4.6299437653579D-02
   208  2.0700000000000D+00  1.1131232085789D-01 -5.2365816958021D-02
   209  2.0800000000000D+00  1.1169005848970D-01 -5.7909473910587D-02
   210  2.0900000000000D+00  1.1178483685110D-01 -6.2941079701652D-02
   211  2.1000000000000D+00  1.1161086945487D-01 -6.7472357633551D-02
   212  2.1100000000000D+00  1.1118238215566D-01 -7.1516013492189D-02
   213  2.1200000000000D+00  1.1051357902402D-01 -7.5085664676550D-02
   214  2.1300000000000D+00  1.0961860930518D-01 -7.8195768365446D-02
   215  2.1400000000000D+00  1.0851153565948D-01 -8.0861548906968D-02
   216  2.1500000000000D+00  1.0720630354306D-01 -8.3098924681793D-02
   217  2.1600000000000D+00  1.0571671188503D-01 -8.4924434699329D-02
   218  2.1700000000000D+00  1.0405638508410D-01 -8.6355165172882D-02
   219  2.1800000000000D+00  1.0223874622446D-01 -8.7408676181405D-02
   220  2.1900000000000D+00  1.0027699176294D-01 -8.8102928910921D-02
   221  2.2000000000000D+00  9.8184067488324D-02 -8.8456213413416D-02
   222  2.2100000000000D+00  9.5972645877328D-02 -8.8487077255579D-02
   223  2.2200000000000D+00  9.3655104921389D-02 -8.8214255395780D-02
   224  2.2300000000000D+00  9.1243508248763D-02 -8.7656601106161D-02
   225  2.2400000000000D+00  8.8749586776939D-02 -8.6833018658652D-02
   226  2.2500000000000D+00  8.6184721768649D-02 -8.5762397655437D-02
   227  2.2600000000000D+00  8.3559929238491D-02 -8.4463549018428D-02
   228  2.2700000000000D+00  8.0885845943887D-02 -8.2955143502910D-02
   229  2.2800000000000D+00  7.8172716683784D-02 -8.1255652076899D-02
   230  2.2900000000000D+00  7.5430383051512D-02 -7.9383288804873D-02
   231  2.3000000000000D+00  7.2668273681140D-02 -7.7355956570625D-02
   232  2.3100000000000D+00  6.9895395765669D-02 -7.5191195004708D-02
   233  2.3200000000000D+00  6.7120328072618D-02 -7.2906131671948D-02
   234  2.3300000000000D+00  6.4351215331312D-02 -7.0517436222302D-02
   235  2.3400000000000D+00  6.1595763843901D-02 -6.8041277035214D-02
   236  2.3500000000000D+00  5.8861238599185D-02 -6.5493281816653D-02
   237  2.3600000000000D+00  5.6154461591053D-02 -6.2888500990928D-02
   238  2.3700000000000D+00  5.3481811357600D-02 -6.0241374126478D-02
   239  2.3800000000000D+00  5.0849223902225D-02 -5.7565700462955D-02
   240  2.3900000000000D+00  4.8262194702667D-02 -5.4874612211994D-02
   241  2.4000000000000D+00  4.5725781895789D-02 -5.2180551320551D-02
   242  2.4100000000000D+00  4.3244610680201D-02 -4.9495250214196D-02
   243  2.4200000000000D+00  4.0822878698614D-02 -4.6829715309526D-02
   244  2.4300000000000D+00  3.8464362506677D-02 -4.4194214242830D-02
   245  2.4400000000000D+00  3.6172425085106D-02 -4.1598266831733D-02
   246  2.4500000000000D+00  3.3950024212965D-02 -3.9050638729867D-02
   247  2.4600000000000D+00  3.1799721801983D-02 -3.6559338879809D-02
   248  2.4700000000000D+00  2.9723694096013D-02 -3.4131620360404D-02
   249  2.4800000000000D+00  2.7723742603535D-02 -3.1773983778480D-02
   250  2.4900000000000D+00  2.5801305833401D-02 -2.9492184351777D-02
   251  2.5000000000000D+00  2.3957471719180D-02 -2.7291241990861D-02
   252  2.5100000000000D+00  2.2192990640514D-02 -2.5175453705928D-02
   253  2.5200000000000D+00  2.0508289064337D-02 -2.3148409406543D-02
   254  2.5300000000000D+00  1.8903483702052D-02 -2.1213010274263D-02
   255  2.5400000000000D+00  1.7378396122181D-02 -1.9371489175665D-02
   256  2.5500000000000D+00  1.5932567783158D-02 -1.7625433992676D-02
   257  2.5600000000000D+00  1.4565275412889D-02 -1.5975813083888D-02
   258  2.5700000000000D+00  1.3275546699622D-02 -1.4423002446302D-02
   259  2.5800000000000D+00  1.2062176198578D-02 -1.2966815173780D-02
   260  2.5900000000000D+00  1.0923741416493D-02 -1.1606532589249D-02
   261  2.6000000000000D+00  9.8586190635542D-03 -1.0340936693472D-02
   262  2.6100000000000D+00  8.8650013262129D-03 -9.1683441993609D-03
   263  2.6200000000000D+00  7.9409121437515D-03 -8.0866417501952D-03
   264  2.6300000000000D+00  7.0842235109096D-03 -7.0933220380750D-03
   265  2.6400000000000D+00  6.2926716326342D-03 -6.1855207856808D-03
   266  2.6500000000000D+00  5.5638728952215D-03 -5.3600543525786D-03
   267  2.6600000000000D+00  4.8953397263594D-03 -4.6134578014809D-03
   268  2.6700000000000D+00  4.2844961828792D-03 -3.9420231994728D-03
   269  2.6800000000000D+00  3.7286931453367D-03 -3.3418378597936D-03
   270  2.6900000000000D+00  3.2252232691606D-03 -2.8088225838703D-03
   271  2.7000000000000D+00  2.7713356013600D-03 -2.3387697263503D-03
   272  2.7100000000000D+00  2.3642495642835D-03 -1.9273803281922D-03
   273  2.7200000000000D+00  2.0011685684713D-03 -1.5703007720384D-03
   274  2.7300000000000D+00  1.6792933051582D-03 -1.2631591847007D-03
   275  2.7400000000000D+00  1.3958341174081D-03 -1.0015997420897D-03
   276  2.7500000000000D+00  1.1480229675087D-03 -7.8131631668459D-04
   277  2.7600000000000D+00  9.3312495475482D-04 -5.9808542589816D-04
   278  2.7700000000000D+00  7.4844888640303D-04 -4.4779667352178D-04
   279  2.7800000000000D+00  5.9135724354796D-04 -3.2648183274396D-04
   280  2.7900000000000D+00  4.5927560334179D-04 -2.3034282319353D-04
   281  2.8000000000000D+00  3.4970122776346D-04 -1.5577743104483D-04
   282  2.8100000000000D+00  2.6020989616971D-04 -9.9399564267536D-05
   283  2.8200000000000D+00  1.8846166577638D-04 -5.8056494933600D-05
   284  2.8300000000000D+00  1.3222049411052D-04 -2.8893976625689D-05
   285  2.8400000000000D+00  8.9341985747638D-05 -9.3129707396529D-06
   286  2.8500000000000D+00  5.7744601165373D-05  2.8523421480019D-06
   287  2.8600000000000D+00  3.5536854725259D-05  9.8362907819969D-06
   288  2.8700000000000D+00  2.0916545408521D-05  1.3487456618074D-05
   289  2.8800000000000D+00  1.2273310660978D-05  1.5417692677541D-05
   290  2.8900000000000D+00  7.9752281642661D-06  1.6511192395425D-05
   291  2.9000000000000D+00  6.1408524652208D-06  1.6390967447987D-05
   292  2.9100000000000D+00  5.3442465534401D-06  1.4895466014028D-05
   293  2.9200000000000D+00  4.0301624907454D-06  1.1057270697172D-05
   294  2.9300000000000D+00  2.4451653196093D-06  6.4175139453548D-06
   295  2.9400000000000D+00  8.1776474455509D-07  2.0368830734693D-06
   296  2.9500000000000D+00 -2.6358895277962D-07 -7.6790966905591D-07
   297  2.9600000000000D+00 -5.2168255631084D-07 -1.5039108854119D-06
   298  2.9700000000000D+00 -3.8139477186570D-07 -1.0864944155216D-06
   299  2.9800000000000D+00 -3.9845142236960D-08 -1.1213136961140D-07
   300  2.9900000000000D+00  7.8919554752794D-08  2.7675364828112D-07
   301  3.0000000000000D+00  9.6989122322983D-08  3.4366103120356D-07
   302  3.0100000000000D+00  5.0671546886755D-08  1.8116043505280D-07
   303  3.0200000000000D+00 -4.6957915722008D-09 -1.3056181618378D-08
   304  3.0300000000000D+00 -1.4134449367363D-08 -3.9299431241487D-08
   305  3.0400000000000D+00 -1.3126461762618D-08 -3.6496821919016D-08
   306  3.0500000000000D+00 -3.7083978967672D-09 -1.0310831668943D-08
   307  3.0600000000000D+00  0.0000000000000D+00  0.0000000000000D+00
   308  3.0700000000000D+00  0.0000000000000D+00  0.0000000000000D+00
   309  3.0800000000000D+00  0.0000000000000D+00  0.0000000000000D+00
   310  3.0900000000000D+00  0.0000000000000D+00  0.0000000000000D+00
   311  3.1000000000000D+00  0.0000000000000D+00  0.0000000000000D+00
   312  3.1100000000000D+00  0.0000000000000D+00  0.0000000000000D+00
   313  3.1200000000000D+00  0.0000000000000D+00  0.0000000000000D+00
   314  3.1300000000000D+00  0.0000000000000D+00  0.0000000000000D+00
   315  3.1400000000000D+00  0.0000000000000D+00  0.0000000000000D+00
   316  3.1500000000000D+00  0.0000000000000D+00  0.0000000000000D+00
   317  3.1600000000000D+00  0.0000000000000D+00  0.0000000000000D+00
   318  3.1700000000000D+00  0.0000000000000D+00  0.0000000000000D+00
   319  3.1800000000000D+00  0.0000000000000D+00  0.0000000000000D+00
   320  3.1900000000000D+00  0.0000000000000D+00  0.0000000000000D+00
   321  3.2000000000000D+00  0.0000000000000D+00  0.0000000000000D+00
   322  3.2100000000000D+00  0.0000000000000D+00  0.0000000000000D+00
   323  3.2200000000000D+00  0.0000000000000D+00  0.0000000000000D+00
   324  3.2300000000000D+00  0.0000000000000D+00  0.0000000000000D+00
   325  3.2400000000000D+00  0.0000000000000D+00  0.0000000000000D+00
   326  3.2500000000000D+00  0.0000000000000D+00  0.0000000000000D+00
   327  3.2600000000000D+00  0.0000000000000D+00  0.0000000000000D+00
   328  3.2700000000000D+00  0.0000000000000D+00  0.0000000000000D+00
   329  3.2800000000000D+00  0.0000000000000D+00  0.0000000000000D+00
   330  3.2900000000000D+00  0.0000000000000D+00  0.0000000000000D+00
   331  3.3000000000000D+00  0.0000000000000D+00  0.0000000000000D+00
   332  3.3100000000000D+00  0.0000000000000D+00  0.0000000000000D+00
   333  3.3200000000000D+00  0.0000000000000D+00  0.0000000000000D+00
   334  3.3300000000000D+00  0.0000000000000D+00  0.0000000000000D+00
   335  3.3400000000000D+00  0.0000000000000D+00  0.0000000000000D+00
   336  3.3500000000000D+00  0.0000000000000D+00  0.0000000000000D+00
   337  3.3600000000000D+00  0.0000000000000D+00  0.0000000000000D+00
   338  3.3700000000000D+00  0.0000000000000D+00  0.0000000000000D+00
   339  3.3800000000000D+00  0.0000000000000D+00  0.0000000000000D+00
   340  3.3900000000000D+00  0.0000000000000D+00  0.0000000000000D+00
   341  3.4000000000000D+00  0.0000000000000D+00  0.0000000000000D+00
   342  3.4100000000000D+00  0.0000000000000D+00  0.0000000000000D+00
   343  3.4200000000000D+00  0.0000000000000D+00  0.0000000000000D+00
   344  3.4300000000000D+00  0.0000000000000D+00  0.0000000000000D+00
   345  3.4400000000000D+00  0.0000000000000D+00  0.0000000000000D+00
   346  3.4500000000000D+00  0.0000000000000D+00  0.0000000000000D+00
   347  3.4600000000000D+00  0.0000000000000D+00  0.0000000000000D+00
   348  3.4700000000000D+00  0.0000000000000D+00  0.0000000000000D+00
   349  3.4800000000000D+00  0.0000000000000D+00  0.0000000000000D+00
   350  3.4900000000000D+00  0.0000000000000D+00  0.0000000000000D+00
   351  3.5000000000000D+00  0.0000000000000D+00  0.0000000000000D+00
   352  3.5100000000000D+00  0.0000000000000D+00  0.0000000000000D+00
   353  3.5200000000000D+00  0.0000000000000D+00  0.0000000000000D+00
   354  3.5300000000000D+00  0.0000000000000D+00  0.0000000000000D+00
   355  3.5400000000000D+00  0.0000000000000D+00  0.0000000000000D+00
   356  3.5500000000000D+00  0.0000000000000D+00  0.0000000000000D+00
   357  3.5600000000000D+00  0.0000000000000D+00  0.0000000000000D+00
   358  3.5700000000000D+00  0.0000000000000D+00  0.0000000000000D+00
   359  3.5800000000000D+00  0.0000000000000D+00  0.0000000000000D+00
   360  3.5900000000000D+00  0.0000000000000D+00  0.0000000000000D+00
   361  3.6000000000000D+00  0.0000000000000D+00  0.0000000000000D+00
   362  3.6100000000000D+00  0.0000000000000D+00  0.0000000000000D+00
   363  3.6200000000000D+00  0.0000000000000D+00  0.0000000000000D+00
   364  3.6300000000000D+00  0.0000000000000D+00  0.0000000000000D+00
   365  3.6400000000000D+00  0.0000000000000D+00  0.0000000000000D+00
   366  3.6500000000000D+00  0.0000000000000D+00  0.0000000000000D+00
   367  3.6600000000000D+00  0.0000000000000D+00  0.0000000000000D+00
   368  3.6700000000000D+00  0.0000000000000D+00  0.0000000000000D+00
   369  3.6800000000000D+00  0.0000000000000D+00  0.0000000000000D+00
   370  3.6900000000000D+00  0.0000000000000D+00  0.0000000000000D+00
   371  3.7000000000000D+00  0.0000000000000D+00  0.0000000000000D+00
   372  3.7100000000000D+00  0.0000000000000D+00  0.0000000000000D+00
   373  3.7200000000000D+00  0.0000000000000D+00  0.0000000000000D+00
   374  3.7300000000000D+00  0.0000000000000D+00  0.0000000000000D+00
   375  3.7400000000000D+00  0.0000000000000D+00  0.0000000000000D+00
   376  3.7500000000000D+00  0.0000000000000D+00  0.0000000000000D+00
   377  3.7600000000000D+00  0.0000000000000D+00  0.0000000000000D+00
   378  3.7700000000000D+00  0.0000000000000D+00  0.0000000000000D+00
   379  3.7800000000000D+00  0.0000000000000D+00  0.0000000000000D+00
   380  3.7900000000000D+00  0.0000000000000D+00  0.0000000000000D+00
   381  3.8000000000000D+00  0.0000000000000D+00  0.0000000000000D+00
   382  3.8100000000000D+00  0.0000000000000D+00  0.0000000000000D+00
   383  3.8200000000000D+00  0.0000000000000D+00  0.0000000000000D+00
   384  3.8300000000000D+00  0.0000000000000D+00  0.0000000000000D+00
   385  3.8400000000000D+00  0.0000000000000D+00  0.0000000000000D+00
   386  3.8500000000000D+00  0.0000000000000D+00  0.0000000000000D+00
   387  3.8600000000000D+00  0.0000000000000D+00  0.0000000000000D+00
   388  3.8700000000000D+00  0.0000000000000D+00  0.0000000000000D+00
   389  3.8800000000000D+00  0.0000000000000D+00  0.0000000000000D+00
   390  3.8900000000000D+00  0.0000000000000D+00  0.0000000000000D+00
   391  3.9000000000000D+00  0.0000000000000D+00  0.0000000000000D+00
   392  3.9100000000000D+00  0.0000000000000D+00  0.0000000000000D+00
   393  3.9200000000000D+00  0.0000000000000D+00  0.0000000000000D+00
   394  3.9300000000000D+00  0.0000000000000D+00  0.0000000000000D+00
   395  3.9400000000000D+00  0.0000000000000D+00  0.0000000000000D+00
   396  3.9500000000000D+00  0.0000000000000D+00  0.0000000000000D+00
   397  3.9600000000000D+00  0.0000000000000D+00  0.0000000000000D+00
   398  3.9700000000000D+00  0.0000000000000D+00  0.0000000000000D+00
   399  3.9800000000000D+00  0.0000000000000D+00  0.0000000000000D+00
   400  3.9900000000000D+00  0.0000000000000D+00  0.0000000000000D+00
   401  4.0000000000000D+00  0.0000000000000D+00  0.0000000000000D+00
   402  4.0100000000000D+00  0.0000000000000D+00  0.0000000000000D+00
   403  4.0200000000000D+00  0.0000000000000D+00  0.0000000000000D+00
   404  4.0300000000000D+00  0.0000000000000D+00  0.0000000000000D+00
   405  4.0400000000000D+00  0.0000000000000D+00  0.0000000000000D+00
   406  4.0500000000000D+00  0.0000000000000D+00  0.0000000000000D+00
   407  4.0600000000000D+00  0.0000000000000D+00  0.0000000000000D+00
   408  4.0700000000000D+00  0.0000000000000D+00  0.0000000000000D+00
   409  4.0800000000000D+00  0.0000000000000D+00  0.0000000000000D+00
   410  4.0900000000000D+00  0.0000000000000D+00  0.0000000000000D+00
   411  4.1000000000000D+00  0.0000000000000D+00  0.0000000000000D+00
   412  4.1100000000000D+00  0.0000000000000D+00  0.0000000000000D+00
   413  4.1200000000000D+00  0.0000000000000D+00  0.0000000000000D+00
   414  4.1300000000000D+00  0.0000000000000D+00  0.0000000000000D+00
   415  4.1400000000000D+00  0.0000000000000D+00  0.0000000000000D+00
   416  4.1500000000000D+00  0.0000000000000D+00  0.0000000000000D+00
   417  4.1600000000000D+00  0.0000000000000D+00  0.0000000000000D+00
   418  4.1700000000000D+00  0.0000000000000D+00  0.0000000000000D+00
   419  4.1800000000000D+00  0.0000000000000D+00  0.0000000000000D+00
   420  4.1900000000000D+00  0.0000000000000D+00  0.0000000000000D+00
   421  4.2000000000000D+00  0.0000000000000D+00  0.0000000000000D+00
   422  4.2100000000000D+00  0.0000000000000D+00  0.0000000000000D+00