Sn    ONCVPSP-3.3.1  r_core=   2.81773   2.95543   3.36982
     50.0000     14.0000      210904    zatom,zion,pspd
     8       2   2     4   600     0    pspcod,pspxc,lmax,lloc,mmax,r2well
  5.99000000  0.00000000  0.00000000    rchrg fchrg qchrg
     2     3     2     0    nproj
     3     1           extension_switch
     3     4     0    nprojso
   0                         1.3889435205412D+00  5.2664525607262D+00
     1  0.0000000000000D+00 -6.7509609014138D-12  1.8844439897414D-12
     2  1.0000000000000D-02  2.6134910435548D-02  7.3813070314181D-03
     3  2.0000000000000D-02  5.2188843680021D-02  1.4790749332201D-02
     4  3.0000000000000D-02  7.8081072710636D-02  2.2256370090208D-02
     5  4.0000000000000D-02  1.0373137013789D-01  2.9806028562137D-02
     6  5.0000000000000D-02  1.2906025626569D-01  3.7467308687068D-02
     7  6.0000000000000D-02  1.5398924504830D-01  4.5267428393652D-02
     8  7.0000000000000D-02  1.7844108725118D-01  5.3233149829954D-02
     9  8.0000000000000D-02  2.0234001012906D-01  6.1390690743079D-02
    10  9.0000000000000D-02  2.2561195294349D-01  6.9765637233371D-02
    11  1.0000000000000D-01  2.4818479765188D-01  7.8382858105136D-02
    12  1.1000000000000D-01  2.6998859411200D-01  8.7266421032591D-02
    13  1.2000000000000D-01  2.9095577915891D-01  9.6439510755972D-02
    14  1.3000000000000D-01  3.1102138892682D-01  1.0592434951852D-01
    15  1.4000000000000D-01  3.3012326380434D-01  1.1574211995048D-01
    16  1.5000000000000D-01  3.4820224543009D-01  1.2591289060098D-01
    17  1.6000000000000D-01  3.6520236515526D-01  1.3645554431335D-01
    18  1.7000000000000D-01  3.8107102342064D-01  1.4738770963313D-01
    19  1.8000000000000D-01  3.9575915951862D-01  1.5872569543186D-01
    20  1.9000000000000D-01  4.0922141123444D-01  1.7048442892270D-01
    21  2.0000000000000D-01  4.2141626388661D-01  1.8267739723676D-01
    22  2.1000000000000D-01  4.3230618831339D-01  1.9531659272112D-01
    23  2.2000000000000D-01  4.4185776737984D-01  2.0841246211171D-01
    24  2.3000000000000D-01  4.5004181061018D-01  2.2197385972539D-01
    25  2.4000000000000D-01  4.5683345657996D-01  2.3600800480694D-01
    26  2.5000000000000D-01  4.6221226273503D-01  2.5052044315721D-01
    27  2.6000000000000D-01  4.6616228233656D-01  2.6551501315915D-01
    28  2.7000000000000D-01  4.6867212826582D-01  2.8099381630839D-01
    29  2.8000000000000D-01  4.6973502345678D-01  2.9695719234495D-01
    30  2.9000000000000D-01  4.6934883776064D-01  3.1340369907152D-01
    31  3.0000000000000D-01  4.6751611108287D-01  3.3033009693351D-01
    32  3.1000000000000D-01  4.6424406267059D-01  3.4773133842424D-01
    33  3.2000000000000D-01  4.5954458646606D-01  3.6560056236755D-01
    34  3.3000000000000D-01  4.5343423248075D-01  3.8392909311825D-01
    35  3.4000000000000D-01  4.4593417418297D-01  4.0270644470884D-01
    36  3.5000000000000D-01  4.3707016193209D-01  4.2192032995901D-01
    37  3.6000000000000D-01  4.2687246253139D-01  4.4155667455179D-01
    38  3.7000000000000D-01  4.1537578501170D-01  4.6159963606825D-01
    39  3.8000000000000D-01  4.0261919279811D-01  4.8203162795945D-01
    40  3.9000000000000D-01  3.8864600245140D-01  5.0283334842240D-01
    41  4.0000000000000D-01  3.7350366921618D-01  5.2398381413338D-01
    42  4.1000000000000D-01  3.5724365964673D-01  5.4546039877977D-01
    43  4.2000000000000D-01  3.3992131162119D-01  5.6723887631846D-01
    44  4.3000000000000D-01  3.2159568209297D-01  5.8929346887630D-01
    45  4.4000000000000D-01  3.0232938296666D-01  6.1159689919543D-01
    46  4.5000000000000D-01  2.8218840552305D-01  6.3412044751367D-01
    47  4.6000000000000D-01  2.6124193385433D-01  6.5683401275785D-01
    48  4.7000000000000D-01  2.3956214780624D-01  6.7970617791566D-01
    49  4.8000000000000D-01  2.1722401595856D-01  7.0270427943950D-01
    50  4.9000000000000D-01  1.9430507920860D-01  7.2579448052405D-01
    51  5.0000000000000D-01  1.7088522555433D-01  7.4894184808793D-01
    52  5.1000000000000D-01  1.4704645670481D-01  7.7211043327817D-01
    53  5.2000000000000D-01  1.2287264717422D-01  7.9526335530583D-01
    54  5.3000000000000D-01  9.8449296543603D-02  8.1836288841037D-01
    55  5.4000000000000D-01  7.3863275599980D-02  8.4137055174036D-01
    56  5.5000000000000D-01  4.9202567086437D-02  8.6424720192860D-01
    57  5.6000000000000D-01  2.4556001818554D-02  8.8695312813056D-01
    58  5.7000000000000D-01  1.2990942420043D-05  9.0944814928655D-01
    59  5.8000000000000D-01 -2.4336744872849D-02  9.3169171336000D-01
    60  5.9000000000000D-01 -4.8403448499902D-02  9.5364299829676D-01
    61  6.0000000000000D-01 -7.2097600853888D-02  9.7526101444385D-01
    62  6.1000000000000D-01 -9.5330195997214D-02  9.9650470815952D-01
    63  6.2000000000000D-01 -1.1801301600823D-01  1.0173330663415D+00
    64  6.3000000000000D-01 -1.4005890476812D-01  1.0377052215954D+00
    65  6.4000000000000D-01 -1.6138203981741D-01  1.0575805577611D+00
    66  6.5000000000000D-01 -1.8189820143293D-01  1.0769188155125D+00
    67  6.6000000000000D-01 -2.0152503807871D-01  1.0956801977425D+00
    68  6.7000000000000D-01 -2.2018232738923D-01  1.1138254744440D+00
    69  6.8000000000000D-01 -2.3779223185127D-01  1.1313160867978D+00
    70  6.9000000000000D-01 -2.5427954836123D-01  1.1481142501763D+00
    71  7.0000000000000D-01 -2.6957195084833D-01  1.1641830557755D+00
    72  7.1000000000000D-01 -2.8360022517000D-01  1.1794865705865D+00
    73  7.2000000000000D-01 -2.9629849550474D-01  1.1939899354232D+00
    74  7.3000000000000D-01 -3.0760444148941D-01  1.2076594607246D+00
    75  7.4000000000000D-01 -3.1745950537225D-01  1.2204627198550D+00
    76  7.5000000000000D-01 -3.2580908847945D-01  1.2323686396310D+00
    77  7.6000000000000D-01 -3.3260273632327D-01  1.2433475878099D+00
    78  7.7000000000000D-01 -3.3779431171110D-01  1.2533714572809D+00
    79  7.8000000000000D-01 -3.4134215524954D-01  1.2624137467086D+00
    80  7.9000000000000D-01 -3.4320923267456D-01  1.2704496373876D+00
    81  8.0000000000000D-01 -3.4336326847735D-01  1.2774560660751D+00
    82  8.1000000000000D-01 -3.4177686533710D-01  1.2834117935790D+00
    83  8.2000000000000D-01 -3.3842760891493D-01  1.2882974688919D+00
    84  8.3000000000000D-01 -3.3329815760805D-01  1.2920956886694D+00
    85  8.4000000000000D-01 -3.2637631691047D-01  1.2947910518674D+00
    86  8.5000000000000D-01 -3.1765509807451D-01  1.2963702093645D+00
    87  8.6000000000000D-01 -3.0713276081763D-01  1.2968219084080D+00
    88  8.7000000000000D-01 -2.9481283986993D-01  1.2961370317392D+00
    89  8.8000000000000D-01 -2.8070415521010D-01  1.2943086312675D+00
    90  8.9000000000000D-01 -2.6482080589062D-01  1.2913319561764D+00
    91  9.0000000000000D-01 -2.4718214740728D-01  1.2872044753633D+00
    92  9.1000000000000D-01 -2.2781275262215D-01  1.2819258941300D+00
    93  9.2000000000000D-01 -2.0674235630446D-01  1.2754981650566D+00
    94  9.3000000000000D-01 -1.8400578340855D-01  1.2679254930108D+00
    95  9.4000000000000D-01 -1.5964286126353D-01  1.2592143342591D+00
    96  9.5000000000000D-01 -1.3369831590362D-01  1.2493733896668D+00
    97  9.6000000000000D-01 -1.0622165282321D-01  1.2384135919882D+00
    98  9.7000000000000D-01 -7.7267022493439D-02  1.2263480872692D+00
    99  9.8000000000000D-01 -4.6893071031310D-02  1.2131922104001D+00
   100  9.9000000000000D-01 -1.5162776463403D-02  1.1989634548745D+00
   101  1.0000000000000D+00  1.7856728922886D-02  1.1836814368292D+00
   102  1.0100000000000D+00  5.2094349598227D-02  1.1673678534549D+00
   103  1.0200000000000D+00  8.7475230590697D-02  1.1500464358875D+00
   104  1.0300000000000D+00  1.2392097342894D-01  1.1317428967049D+00
   105  1.0400000000000D+00  1.6134986355180D-01  1.1124848721717D+00
   106  1.0500000000000D+00  1.9967710846128D-01  1.0923018593891D+00
   107  1.0600000000000D+00  2.3881508585948D-01  1.0712251485263D+00
   108  1.0700000000000D+00  2.7867360097259D-01  1.0492877503203D+00
   109  1.0800000000000D+00  3.1916015222977D-01  1.0265243190513D+00
   110  1.0900000000000D+00  3.6018020443670D-01  1.0029710712075D+00
   111  1.1000000000000D+00  4.0163746855157D-01  9.7866570007643D-01
   112  1.1100000000000D+00  4.4343418714839D-01  9.5364728650161D-01
   113  1.1200000000000D+00  4.8547142462957D-01  9.2795620606568D-01
   114  1.1300000000000D+00  5.2764936123227D-01  9.0163403296404D-01
   115  1.1400000000000D+00  5.6986758985678D-01  8.7472344084769D-01
   116  1.1500000000000D+00  6.1202541473297D-01  8.4726810092268D-01
   117  1.1600000000000D+00  6.5402215093367D-01  8.1931257760134D-01
   118  1.1700000000000D+00  6.9575742373953D-01  7.9090222200789D-01
   119  1.1800000000000D+00  7.3713146685685D-01  7.6208306364786D-01
   120  1.1900000000000D+00  7.7804541849394D-01  7.3290170055665D-01
   121  1.2000000000000D+00  8.1840161431035D-01  7.0340518824628D-01
   122  1.2100000000000D+00  8.5810387625629D-01  6.7364092777248D-01
   123  1.2200000000000D+00  8.9705779633943D-01  6.4365655324793D-01
   124  1.2300000000000D+00  9.3517101437392D-01  6.1349981912748D-01
   125  1.2400000000000D+00  9.7235348878142D-01  5.8321848759139D-01
   126  1.2500000000000D+00  1.0085177595387D+00  5.5286021635297D-01
   127  1.2600000000000D+00  1.0435792024041D+00  5.2247244721322D-01
   128  1.2700000000000D+00  1.0774562735750D+00  4.9210229568266D-01
   129  1.2800000000000D+00  1.1100707439557D+00  4.6179644198856D-01
   130  1.2900000000000D+00  1.1413479222800D+00  4.3160102377600D-01
   131  1.3000000000000D+00  1.1712168663454D+00  4.0156153080861D-01
   132  1.3100000000000D+00  1.1996105816549D+00  3.7172270196961D-01
   133  1.3200000000000D+00  1.2264662068509D+00  3.4212842484682D-01
   134  1.3300000000000D+00  1.2517251853166D+00  3.1282163818708D-01
   135  1.3400000000000D+00  1.2753334223930D+00  2.8384423749176D-01
   136  1.3500000000000D+00  1.2972414277588D+00  2.5523698400331D-01
   137  1.3600000000000D+00  1.3174044424642D+00  2.2703941734518D-01
   138  1.3700000000000D+00  1.3357825502777D+00  1.9928977204119D-01
   139  1.3800000000000D+00  1.3523407730271D+00  1.7202489813214D-01
   140  1.3900000000000D+00  1.3670491495873D+00  1.4528018611765D-01
   141  1.4000000000000D+00  1.3798827984044D+00  1.1908949639112D-01
   142  1.4100000000000D+00  1.3908219633198D+00  9.3485093366998D-02
   143  1.4200000000000D+00  1.3998520426180D+00  6.8497584460520D-02
   144  1.4300000000000D+00  1.4069636013315D+00  4.4155864047504D-02
   145  1.4400000000000D+00  1.4121523666884D+00  2.0487062575134D-02
   146  1.4500000000000D+00  1.4154192069569D+00 -2.4834991092691D-03
   147  1.4600000000000D+00  1.4167700936925D+00 -2.4732350075109D-02
   148  1.4700000000000D+00  1.4162160476614D+00 -4.6237904209209D-02
   149  1.4800000000000D+00  1.4137730687249D+00 -6.6980489646445D-02
   150  1.4900000000000D+00  1.4094620498850D+00 -8.6942372646241D-02
   151  1.5000000000000D+00  1.4033086760630D+00 -1.0610777595097D-01
   152  1.5100000000000D+00  1.3953433077936D+00 -1.2446289153528D-01
   153  1.5200000000000D+00  1.3856008505508D+00 -1.4199588783140D-01
   154  1.5300000000000D+00  1.3741206100458D+00 -1.5869691139102D-01
   155  1.5400000000000D+00  1.3609461341857D+00 -1.7455808306067D-01
   156  1.5500000000000D+00  1.3461250422712D+00 -1.8957348871661D-01
   157  1.5600000000000D+00  1.3297088420644D+00 -2.0373916461372D-01
   158  1.5700000000000D+00  1.3117527355179D+00 -2.1705307747938D-01
   159  1.5800000000000D+00  1.2923154137558D+00 -2.2951509938655D-01
   160  1.5900000000000D+00  1.2714588422597D+00 -2.4112697761275D-01
   161  1.6000000000000D+00  1.2492480368476D+00 -2.5189229950884D-01
   162  1.6100000000000D+00  1.2257508314843D+00 -2.6181645263730D-01
   163  1.6200000000000D+00  1.2010376385687D+00 -2.7090658021967D-01
   164  1.6300000000000D+00  1.1751812027367D+00 -2.7917153217158D-01
   165  1.6400000000000D+00  1.1482563489216D+00 -2.8662181180441D-01
   166  1.6500000000000D+00  1.1203397256692D+00 -2.9326951847111D-01
   167  1.6600000000000D+00  1.0915095445359D+00 -2.9912828627717D-01
   168  1.6700000000000D+00  1.0618453165191D+00 -3.0421321913169D-01
   169  1.6800000000000D+00  1.0314275864077D+00 -3.0854082229330D-01
   170  1.6900000000000D+00  1.0003376659480D+00 -3.1212893068475D-01
   171  1.7000000000000D+00  9.6865736675521D-01 -3.1499663415673D-01
   172  1.7100000000000D+00  9.3646873379264D-01 -3.1716419997326D-01
   173  1.7200000000000D+00  9.0385378038846D-01 -3.1865299271922D-01
   174  1.7300000000000D+00  8.7089422550342D-01 -3.1948539189747D-01
   175  1.7400000000000D+00  8.3767123427763D-01 -3.1968470743423D-01
   176  1.7500000000000D+00  8.0426516240311D-01 -3.1927509334706D-01
   177  1.7600000000000D+00  7.7075530545279D-01 -3.1828145981589D-01
   178  1.7700000000000D+00  7.3721965346238D-01 -3.1672938388385D-01
   179  1.7800000000000D+00  7.0373465207004D-01 -3.1464501906109D-01
   180  1.7900000000000D+00  6.7037497015885D-01 -3.1205500400927D-01
   181  1.8000000000000D+00  6.3721327553924D-01 -3.0898637062670D-01
   182  1.8100000000000D+00  6.0432001825701D-01 -3.0546645164932D-01
   183  1.8200000000000D+00  5.7176322317495D-01 -3.0152278812670D-01
   184  1.8300000000000D+00  5.3960829126353D-01 -2.9718303684415D-01
   185  1.8400000000000D+00  5.0791781106922D-01 -2.9247487804961D-01
   186  1.8500000000000D+00  4.7675137993626D-01 -2.8742592355605D-01
   187  1.8600000000000D+00  4.4616543598425D-01 -2.8206362552277D-01
   188  1.8700000000000D+00  4.1621310081702D-01 -2.7641518604022D-01
   189  1.8800000000000D+00  3.8694403268505D-01 -2.7050746752849D-01
   190  1.8900000000000D+00  3.5840429204420D-01 -2.6436690460736D-01
   191  1.9000000000000D+00  3.3063622464771D-01 -2.5801941927783D-01
   192  1.9100000000000D+00  3.0367831618722D-01 -2.5149032439311D-01
   193  1.9200000000000D+00  2.7756518179268D-01 -2.4480427019229D-01
   194  1.9300000000000D+00  2.5232740614497D-01 -2.3798513630186D-01
   195  1.9400000000000D+00  2.2799133817240D-01 -2.3105591373674D-01
   196  1.9500000000000D+00  2.0457921666121D-01 -2.2403868641930D-01
   197  1.9600000000000D+00  1.8210940247069D-01 -2.1695464296259D-01
   198  1.9700000000000D+00  1.6059657111923D-01 -2.0982408064457D-01
   199  1.9800000000000D+00  1.4005191035150D-01 -2.0266642947972D-01
   200  1.9900000000000D+00  1.2048357618992D-01 -1.9550035131075D-01
   201  2.0000000000000D+00  1.0189656458205D-01 -1.8834365969800D-01
   202  2.0100000000000D+00  8.4292753658507D-02 -1.8121329819186D-01
   203  2.0200000000000D+00  6.7670998083274D-02 -1.7412533087940D-01
   204  2.0300000000000D+00  5.2027242928625D-02 -1.6709493864952D-01
   205  2.0400000000000D+00  3.7354601049145D-02 -1.6013640621324D-01
   206  2.0500000000000D+00  2.3643469854658D-02 -1.5326312109796D-01
   207  2.0600000000000D+00  1.0881643068379D-02 -1.4648757182794D-01
   208  2.0700000000000D+00 -9.4556744274128D-04 -1.3982134992950D-01
   209  2.0800000000000D+00 -1.1855203483104D-02 -1.3327515465058D-01
   210  2.0900000000000D+00 -2.1866526468590D-02 -1.2685880037211D-01
   211  2.1000000000000D+00 -3.1000877950122D-02 -1.2058122671983D-01
   212  2.1100000000000D+00 -3.9281535771472D-02 -1.1445051098051D-01
   213  2.1200000000000D+00 -4.6733566225292D-02 -1.0847388300956D-01
   214  2.1300000000000D+00 -5.3383673048578D-02 -1.0265774225659D-01
   215  2.1400000000000D+00 -5.9260043921146D-02 -9.7007676858772D-02
   216  2.1500000000000D+00 -6.4392195237288D-02 -9.1528484717771D-02
   217  2.1600000000000D+00 -6.8810815512018D-02 -8.6224196282837D-02
   218  2.1700000000000D+00 -7.2547608667859D-02 -8.1098099020256D-02
   219  2.1800000000000D+00 -7.5635137343515D-02 -7.6152763347681D-02
   220  2.1900000000000D+00 -7.8106666947597D-02 -7.1390069900598D-02
   221  2.2000000000000D+00 -7.9996011743704D-02 -6.6811237975695D-02
   222  2.2100000000000D+00 -8.1337382362539D-02 -6.2416855038553D-02
   223  2.2200000000000D+00 -8.2165236621531D-02 -5.8206907077650D-02
   224  2.2300000000000D+00 -8.2514133735442D-02 -5.4180809685717D-02
   225  2.2400000000000D+00 -8.2418591499944D-02 -5.0337439826149D-02
   226  2.2500000000000D+00 -8.1912949310947D-02 -4.6675167887758D-02
   227  2.2600000000000D+00 -8.1031235012925D-02 -4.3191890175316D-02
   228  2.2700000000000D+00 -7.9807037266434D-02 -3.9885061556050D-02
   229  2.2800000000000D+00 -7.8273384673495D-02 -3.6751728014913D-02
   230  2.2900000000000D+00 -7.6462629683948D-02 -3.3788559333957D-02
   231  2.3000000000000D+00 -7.4406340261418D-02 -3.0991881384491D-02
   232  2.3100000000000D+00 -7.2135198623065D-02 -2.8357708067390D-02
   233  2.3200000000000D+00 -6.9678905581843D-02 -2.5881773085980D-02
   234  2.3300000000000D+00 -6.7066094700880D-02 -2.3559560786070D-02
   235  2.3400000000000D+00 -6.4324252910904D-02 -2.1386336567324D-02
   236  2.3500000000000D+00 -6.1479648388849D-02 -1.9357176678910D-02
   237  2.3600000000000D+00 -5.8557268563756D-02 -1.7466996821469D-02
   238  2.3700000000000D+00 -5.5580764483353D-02 -1.5710580182351D-02
   239  2.3800000000000D+00 -5.2572403749288D-02 -1.4082604441158D-02
   240  2.3900000000000D+00 -4.9553033064564D-02 -1.2577667484485D-02
   241  2.4000000000000D+00 -4.6542047117261D-02 -1.1190312407520D-02
   242  2.4100000000000D+00 -4.3557366799818D-02 -9.9150511549394D-03
   243  2.4200000000000D+00 -4.0615426153357D-02 -8.7463868608003D-03
   244  2.4300000000000D+00 -3.7731165436588D-02 -7.6788353656791D-03
   245  2.4400000000000D+00 -3.4918033758785D-02 -6.7069451348619D-03
   246  2.4500000000000D+00 -3.2187999306144D-02 -5.8253159287116D-03
   247  2.4600000000000D+00 -2.9551565287520D-02 -5.0286165799771D-03
   248  2.4700000000000D+00 -2.7017795084034D-02 -4.3116010447050D-03
   249  2.4800000000000D+00 -2.4594343740134D-02 -3.6691232968719D-03
   250  2.4900000000000D+00 -2.2287494578384D-02 -3.0961513005160D-03
   251  2.5000000000000D+00 -2.0102204070140D-02 -2.5877792465939D-03
   252  2.5100000000000D+00 -1.8042151769271D-02 -2.1392387429467D-03
   253  2.5200000000000D+00 -1.6109794601138D-02 -1.7459090921836D-03
   254  2.5300000000000D+00 -1.4306427922245D-02 -1.4033259415194D-03
   255  2.5400000000000D+00 -1.2632250395248D-02 -1.1071889987535D-03
   256  2.5500000000000D+00 -1.1086432310349D-02 -8.5336888246378D-04
   257  2.5600000000000D+00 -9.6671887563784D-03 -6.3791255446536D-04
   258  2.5700000000000D+00 -8.3718554049957D-03 -4.5704792874416D-04
   259  2.5800000000000D+00 -7.1969667343612D-03 -3.0718769038868D-04
   260  2.5900000000000D+00 -6.1383369044398D-03 -1.8493198554163D-04
   261  2.6000000000000D+00 -5.1911420533373D-03 -8.7070398602622D-05
   262  2.6100000000000D+00 -4.3500039728089D-03 -1.0583237223539D-05
   263  2.6200000000000D+00 -3.6090741842758D-03  4.7357982238205D-05
   264  2.6300000000000D+00 -2.9621181624796D-03  8.9390636758464D-05
   265  2.6400000000000D+00 -2.4025998625223D-03  1.1796167798251D-04
   266  2.6500000000000D+00 -1.9237646360309D-03  1.3532879456430D-04
   267  2.6600000000000D+00 -1.5187207933137D-03  1.4356199720732D-04
   268  2.6700000000000D+00 -1.1805204024774D-03  1.4454566003248D-04
   269  2.6800000000000D+00 -9.0223705345641D-04  1.3998079820605D-04
   270  2.6900000000000D+00 -6.7704035412205D-04  1.3138753101813D-04
   271  2.7000000000000D+00 -4.9826861713335D-04  1.2010787114719D-04
   272  2.7100000000000D+00 -3.5949803155465D-04  1.0730864521870D-04
   273  2.7200000000000D+00 -2.5461855098852D-04  9.3991171688444D-05
   274  2.7300000000000D+00 -1.7792304753787D-04  8.1010043464658D-05
   275  2.7400000000000D+00 -1.2393502496306D-04  6.8948885274476D-05
   276  2.7500000000000D+00 -8.7758528757729D-05  5.8289670418608D-05
   277  2.7600000000000D+00 -6.4627501768008D-05  4.9016856855389D-05
   278  2.7700000000000D+00 -5.1539489238902D-05  4.1941658781883D-05
   279  2.7800000000000D+00 -4.5702440427120D-05  3.7396311632492D-05
   280  2.7900000000000D+00 -4.5433485232946D-05  3.6035871808063D-05
   281  2.8000000000000D+00 -4.7309856221480D-05  3.6331973283126D-05
   282  2.8100000000000D+00 -4.7192760572036D-05  3.5531186042309D-05
   283  2.8200000000000D+00 -4.1900304051110D-05  3.1263332570020D-05
   284  2.8300000000000D+00 -2.9379918968160D-05  2.1754443278264D-05
   285  2.8400000000000D+00 -1.4778817094791D-05  1.0894082158938D-05
   286  2.8500000000000D+00 -1.6697632484728D-06  1.2277671621684D-06
   287  2.8600000000000D+00  4.0212531632145D-06 -2.9381833721628D-06
   288  2.8700000000000D+00  4.5082007601065D-06 -3.2848983785301D-06
   289  2.8800000000000D+00  1.9725116762046D-06 -1.4340058844673D-06
   290  2.8900000000000D+00 -4.7614401030610D-07  3.5280489384616D-07
   291  2.9000000000000D+00 -1.0420125198747D-06  7.7176903279244D-07
   292  2.9100000000000D+00 -7.9283204394326D-07  5.8700435669242D-07
   293  2.9200000000000D+00 -3.3015426667644D-08  2.4436809989965D-08
   294  2.9300000000000D+00  1.0169284797095D-07 -7.6055703825045D-08
   295  2.9400000000000D+00  1.2064329653276D-07 -9.0228674018391D-08
   296  2.9500000000000D+00  5.5223038039352D-08 -4.1301105330830D-08
   297  2.9600000000000D+00  0.0000000000000D+00  0.0000000000000D+00
   298  2.9700000000000D+00  0.0000000000000D+00  0.0000000000000D+00
   299  2.9800000000000D+00  0.0000000000000D+00  0.0000000000000D+00
   300  2.9900000000000D+00  0.0000000000000D+00  0.0000000000000D+00
   301  3.0000000000000D+00  0.0000000000000D+00  0.0000000000000D+00
   302  3.0100000000000D+00  0.0000000000000D+00  0.0000000000000D+00
   303  3.0200000000000D+00  0.0000000000000D+00  0.0000000000000D+00
   304  3.0300000000000D+00  0.0000000000000D+00  0.0000000000000D+00
   305  3.0400000000000D+00  0.0000000000000D+00  0.0000000000000D+00
   306  3.0500000000000D+00  0.0000000000000D+00  0.0000000000000D+00
   307  3.0600000000000D+00  0.0000000000000D+00  0.0000000000000D+00
   308  3.0700000000000D+00  0.0000000000000D+00  0.0000000000000D+00
   309  3.0800000000000D+00  0.0000000000000D+00  0.0000000000000D+00
   310  3.0900000000000D+00  0.0000000000000D+00  0.0000000000000D+00
   311  3.1000000000000D+00  0.0000000000000D+00  0.0000000000000D+00
   312  3.1100000000000D+00  0.0000000000000D+00  0.0000000000000D+00
   313  3.1200000000000D+00  0.0000000000000D+00  0.0000000000000D+00
   314  3.1300000000000D+00  0.0000000000000D+00  0.0000000000000D+00
   315  3.1400000000000D+00  0.0000000000000D+00  0.0000000000000D+00
   316  3.1500000000000D+00  0.0000000000000D+00  0.0000000000000D+00
   317  3.1600000000000D+00  0.0000000000000D+00  0.0000000000000D+00
   318  3.1700000000000D+00  0.0000000000000D+00  0.0000000000000D+00
   319  3.1800000000000D+00  0.0000000000000D+00  0.0000000000000D+00
   320  3.1900000000000D+00  0.0000000000000D+00  0.0000000000000D+00
   321  3.2000000000000D+00  0.0000000000000D+00  0.0000000000000D+00
   322  3.2100000000000D+00  0.0000000000000D+00  0.0000000000000D+00
   323  3.2200000000000D+00  0.0000000000000D+00  0.0000000000000D+00
   324  3.2300000000000D+00  0.0000000000000D+00  0.0000000000000D+00
   325  3.2400000000000D+00  0.0000000000000D+00  0.0000000000000D+00
   326  3.2500000000000D+00  0.0000000000000D+00  0.0000000000000D+00
   327  3.2600000000000D+00  0.0000000000000D+00  0.0000000000000D+00
   328  3.2700000000000D+00  0.0000000000000D+00  0.0000000000000D+00
   329  3.2800000000000D+00  0.0000000000000D+00  0.0000000000000D+00
   330  3.2900000000000D+00  0.0000000000000D+00  0.0000000000000D+00
   331  3.3000000000000D+00  0.0000000000000D+00  0.0000000000000D+00
   332  3.3100000000000D+00  0.0000000000000D+00  0.0000000000000D+00
   333  3.3200000000000D+00  0.0000000000000D+00  0.0000000000000D+00
   334  3.3300000000000D+00  0.0000000000000D+00  0.0000000000000D+00
   335  3.3400000000000D+00  0.0000000000000D+00  0.0000000000000D+00
   336  3.3500000000000D+00  0.0000000000000D+00  0.0000000000000D+00
   337  3.3600000000000D+00  0.0000000000000D+00  0.0000000000000D+00
   338  3.3700000000000D+00  0.0000000000000D+00  0.0000000000000D+00
   339  3.3800000000000D+00  0.0000000000000D+00  0.0000000000000D+00
   340  3.3900000000000D+00  0.0000000000000D+00  0.0000000000000D+00
   341  3.4000000000000D+00  0.0000000000000D+00  0.0000000000000D+00
   342  3.4100000000000D+00  0.0000000000000D+00  0.0000000000000D+00
   343  3.4200000000000D+00  0.0000000000000D+00  0.0000000000000D+00
   344  3.4300000000000D+00  0.0000000000000D+00  0.0000000000000D+00
   345  3.4400000000000D+00  0.0000000000000D+00  0.0000000000000D+00
   346  3.4500000000000D+00  0.0000000000000D+00  0.0000000000000D+00
   347  3.4600000000000D+00  0.0000000000000D+00  0.0000000000000D+00
   348  3.4700000000000D+00  0.0000000000000D+00  0.0000000000000D+00
   349  3.4800000000000D+00  0.0000000000000D+00  0.0000000000000D+00
   350  3.4900000000000D+00  0.0000000000000D+00  0.0000000000000D+00
   351  3.5000000000000D+00  0.0000000000000D+00  0.0000000000000D+00
   352  3.5100000000000D+00  0.0000000000000D+00  0.0000000000000D+00
   353  3.5200000000000D+00  0.0000000000000D+00  0.0000000000000D+00
   354  3.5300000000000D+00  0.0000000000000D+00  0.0000000000000D+00
   355  3.5400000000000D+00  0.0000000000000D+00  0.0000000000000D+00
   356  3.5500000000000D+00  0.0000000000000D+00  0.0000000000000D+00
   357  3.5600000000000D+00  0.0000000000000D+00  0.0000000000000D+00
   358  3.5700000000000D+00  0.0000000000000D+00  0.0000000000000D+00
   359  3.5800000000000D+00  0.0000000000000D+00  0.0000000000000D+00
   360  3.5900000000000D+00  0.0000000000000D+00  0.0000000000000D+00
   361  3.6000000000000D+00  0.0000000000000D+00  0.0000000000000D+00
   362  3.6100000000000D+00  0.0000000000000D+00  0.0000000000000D+00
   363  3.6200000000000D+00  0.0000000000000D+00  0.0000000000000D+00
   364  3.6300000000000D+00  0.0000000000000D+00  0.0000000000000D+00
   365  3.6400000000000D+00  0.0000000000000D+00  0.0000000000000D+00
   366  3.6500000000000D+00  0.0000000000000D+00  0.0000000000000D+00
   367  3.6600000000000D+00  0.0000000000000D+00  0.0000000000000D+00
   368  3.6700000000000D+00  0.0000000000000D+00  0.0000000000000D+00
   369  3.6800000000000D+00  0.0000000000000D+00  0.0000000000000D+00
   370  3.6900000000000D+00  0.0000000000000D+00  0.0000000000000D+00
   371  3.7000000000000D+00  0.0000000000000D+00  0.0000000000000D+00
   372  3.7100000000000D+00  0.0000000000000D+00  0.0000000000000D+00
   373  3.7200000000000D+00  0.0000000000000D+00  0.0000000000000D+00
   374  3.7300000000000D+00  0.0000000000000D+00  0.0000000000000D+00
   375  3.7400000000000D+00  0.0000000000000D+00  0.0000000000000D+00
   376  3.7500000000000D+00  0.0000000000000D+00  0.0000000000000D+00
   377  3.7600000000000D+00  0.0000000000000D+00  0.0000000000000D+00
   378  3.7700000000000D+00  0.0000000000000D+00  0.0000000000000D+00
   379  3.7800000000000D+00  0.0000000000000D+00  0.0000000000000D+00
   380  3.7900000000000D+00  0.0000000000000D+00  0.0000000000000D+00
   381  3.8000000000000D+00  0.0000000000000D+00  0.0000000000000D+00
   382  3.8100000000000D+00  0.0000000000000D+00  0.0000000000000D+00
   383  3.8200000000000D+00  0.0000000000000D+00  0.0000000000000D+00
   384  3.8300000000000D+00  0.0000000000000D+00  0.0000000000000D+00
   385  3.8400000000000D+00  0.0000000000000D+00  0.0000000000000D+00
   386  3.8500000000000D+00  0.0000000000000D+00  0.0000000000000D+00
   387  3.8600000000000D+00  0.0000000000000D+00  0.0000000000000D+00
   388  3.8700000000000D+00  0.0000000000000D+00  0.0000000000000D+00
   389  3.8800000000000D+00  0.0000000000000D+00  0.0000000000000D+00
   390  3.8900000000000D+00  0.0000000000000D+00  0.0000000000000D+00
   391  3.9000000000000D+00  0.0000000000000D+00  0.0000000000000D+00
   392  3.9100000000000D+00  0.0000000000000D+00  0.0000000000000D+00
   393  3.9200000000000D+00  0.0000000000000D+00  0.0000000000000D+00
   394  3.9300000000000D+00  0.0000000000000D+00  0.0000000000000D+00
   395  3.9400000000000D+00  0.0000000000000D+00  0.0000000000000D+00
   396  3.9500000000000D+00  0.0000000000000D+00  0.0000000000000D+00
   397  3.9600000000000D+00  0.0000000000000D+00  0.0000000000000D+00
   398  3.9700000000000D+00  0.0000000000000D+00  0.0000000000000D+00
   399  3.9800000000000D+00  0.0000000000000D+00  0.0000000000000D+00
   400  3.9900000000000D+00  0.0000000000000D+00  0.0000000000000D+00
   401  4.0000000000000D+00  0.0000000000000D+00  0.0000000000000D+00
   402  4.0100000000000D+00  0.0000000000000D+00  0.0000000000000D+00
   403  4.0200000000000D+00  0.0000000000000D+00  0.0000000000000D+00
   404  4.0300000000000D+00  0.0000000000000D+00  0.0000000000000D+00
   405  4.0400000000000D+00  0.0000000000000D+00  0.0000000000000D+00
   406  4.0500000000000D+00  0.0000000000000D+00  0.0000000000000D+00
   407  4.0600000000000D+00  0.0000000000000D+00  0.0000000000000D+00
   408  4.0700000000000D+00  0.0000000000000D+00  0.0000000000000D+00
   409  4.0800000000000D+00  0.0000000000000D+00  0.0000000000000D+00
   410  4.0900000000000D+00  0.0000000000000D+00  0.0000000000000D+00
   411  4.1000000000000D+00  0.0000000000000D+00  0.0000000000000D+00
   412  4.1100000000000D+00  0.0000000000000D+00  0.0000000000000D+00
   413  4.1200000000000D+00  0.0000000000000D+00  0.0000000000000D+00
   414  4.1300000000000D+00  0.0000000000000D+00  0.0000000000000D+00
   415  4.1400000000000D+00  0.0000000000000D+00  0.0000000000000D+00
   416  4.1500000000000D+00  0.0000000000000D+00  0.0000000000000D+00
   417  4.1600000000000D+00  0.0000000000000D+00  0.0000000000000D+00
   418  4.1700000000000D+00  0.0000000000000D+00  0.0000000000000D+00
   419  4.1800000000000D+00  0.0000000000000D+00  0.0000000000000D+00
   420  4.1900000000000D+00  0.0000000000000D+00  0.0000000000000D+00
   421  4.2000000000000D+00  0.0000000000000D+00  0.0000000000000D+00
   422  4.2100000000000D+00  0.0000000000000D+00  0.0000000000000D+00