Sn    ONCVPSP-3.3.1  r_core=   2.81773   2.95543   3.36982
     50.0000     14.0000      210904    zatom,zion,pspd
     8       2   2     4   600     0    pspcod,pspxc,lmax,lloc,mmax,r2well
  5.99000000  0.00000000  0.00000000    rchrg fchrg qchrg
     2     2     2     0     0    nproj
     1     1           extension_switch
   0                         5.2662767916071D+00  1.3897708639320D+00
     1  0.0000000000000D+00  1.9007434515217D-12 -6.7763572531021D-12
     2  1.0000000000000D-02  7.3717361765052D-03  2.6154286818913D-02
     3  2.0000000000000D-02  1.4771659179575D-02  5.2227569018805D-02
     4  3.0000000000000D-02  2.2227863558709D-02  7.8139092257505D-02
     5  4.0000000000000D-02  2.9768259541744D-02  1.0380860204279D-01
     6  5.0000000000000D-02  3.7420481454716D-02  1.2915659189967D-01
     7  6.0000000000000D-02  4.5211796837221D-02  1.5410454943316D-01
     8  7.0000000000000D-02  5.3169016482925D-02  1.7857519959303D-01
     9  8.0000000000000D-02  6.1318405632935D-02  2.0249274445356D-01
    10  9.0000000000000D-02  6.9685596547432D-02  2.2578309883005D-01
    11  1.0000000000000D-01  7.8295502678114D-02  2.4837412106369D-01
    12  1.1000000000000D-01  8.7172234660708D-02  2.7019583831822D-01
    13  1.2000000000000D-01  9.6339018343050D-02  2.9118066574530D-01
    14  1.3000000000000D-01  1.0581811506003D-01  3.1126361889020D-01
    15  1.4000000000000D-01  1.1563074436200D-01  3.3038251872636D-01
    16  1.5000000000000D-01  1.2579700939811D-01  3.4847818872524D-01
    17  1.6000000000000D-01  1.3633582515056D-01  3.6549464338770D-01
    18  1.7000000000000D-01  1.4726484970948D-01  3.8137926768418D-01
    19  1.8000000000000D-01  1.5860041877207D-01  3.9608298687393D-01
    20  1.9000000000000D-01  1.7035748354237D-01  4.0956042619729D-01
    21  2.0000000000000D-01  1.8254955220091D-01  4.2177005996065D-01
    22  2.1000000000000D-01  1.9518863510582D-01  4.3267434956081D-01
    23  2.2000000000000D-01  2.0828519387856D-01  4.4223987002322D-01
    24  2.3000000000000D-01  2.2184809451927D-01  4.5043742465837D-01
    25  2.4000000000000D-01  2.3588456468747D-01  4.5724214747106D-01
    26  2.5000000000000D-01  2.5040015527479D-01  4.6263359298913D-01
    27  2.6000000000000D-01  2.6539870638653D-01  4.6659581321121D-01
    28  2.7000000000000D-01  2.8088231783909D-01  4.6911742140668D-01
    29  2.8000000000000D-01  2.9685132426972D-01  4.7019164253640D-01
    30  2.9000000000000D-01  3.1330427494455D-01  4.6981635009799D-01
    31  3.0000000000000D-01  3.3023791833974D-01  4.6799408923645D-01
    32  3.1000000000000D-01  3.4764719155954D-01  4.6473208599803D-01
    33  3.2000000000000D-01  3.6552521464334D-01  4.6004224264321D-01
    34  3.3000000000000D-01  3.8386328980215D-01  4.5394111897335D-01
    35  3.4000000000000D-01  4.0265090561299D-01  4.4644989966440D-01
    36  3.5000000000000D-01  4.2187574618743D-01  4.3759434764050D-01
    37  3.6000000000000D-01  4.4152370531820D-01  4.2740474356015D-01
    38  3.7000000000000D-01  4.6157890559539D-01  4.1591581152714D-01
    39  3.8000000000000D-01  4.8202372247102D-01  4.0316663117881D-01
    40  3.9000000000000D-01  5.0283881323821D-01  3.8920053634369D-01
    41  4.0000000000000D-01  5.2400315087826D-01  3.7406500050075D-01
    42  4.1000000000000D-01  5.4549406271635D-01  3.5781150931173D-01
    43  4.2000000000000D-01  5.6728727381361D-01  3.4049542053733D-01
    44  4.3000000000000D-01  5.8935695501067D-01  3.2217581168680D-01
    45  4.4000000000000D-01  6.1167577552519D-01  3.0291531578850D-01
    46  4.5000000000000D-01  6.3421495999291D-01  2.8277994570639D-01
    47  4.6000000000000D-01  6.5694434982988D-01  2.6183890746406D-01
    48  4.7000000000000D-01  6.7983246878076D-01  2.4016440307358D-01
    49  4.8000000000000D-01  7.0284659250628D-01  2.1783142340083D-01
    50  4.9000000000000D-01  7.2595282205099D-01  1.9491753163261D-01
    51  5.0000000000000D-01  7.4911616102093D-01  1.7150263794264D-01
    52  5.1000000000000D-01  7.7230059628970D-01  1.4766876598451D-01
    53  5.2000000000000D-01  7.9546918204028D-01  1.2349981186841D-01
    54  5.3000000000000D-01  8.1858412693983D-01  9.9081296306355D-02
    55  5.4000000000000D-01  8.4160688423421D-01  7.4500110635814D-02
    56  5.5000000000000D-01  8.6449824453979D-01  4.9844257456102D-02
    57  5.6000000000000D-01  8.8721843110059D-01  2.5202586633213D-02
    58  5.7000000000000D-01  9.0972719727064D-01  6.6452744889963D-04
    59  5.8000000000000D-01  9.3198392597307D-01 -2.3680182312671D-02
    60  5.9000000000000D-01  9.5394773088033D-01 -4.7741769531968D-02
    61  6.0000000000000D-01  9.7557755905298D-01 -7.1430700353071D-02
    62  6.1000000000000D-01  9.9683229476838D-01 -9.4657955382219D-02
    63  6.2000000000000D-01  1.0176708642655D+00 -1.1733530464541D-01
    64  6.3000000000000D-01  1.0380523411266D+00 -1.3937558145892D-01
    65  6.4000000000000D-01  1.0579360520139D+00 -1.6069295436373D-01
    66  6.5000000000000D-01  1.0772816824749D+00 -1.8120319627442D-01
    67  6.6000000000000D-01  1.0960493825272D+00 -2.0082394999564D-01
    68  6.7000000000000D-01  1.1141998717353D+00 -2.1947498926414D-01
    69  6.8000000000000D-01  1.1316945434861D+00 -2.3707847448246D-01
    70  6.9000000000000D-01  1.1484955681746D+00 -2.5355920232089D-01
    71  7.0000000000000D-01  1.1645659950089D+00 -2.6884484837770D-01
    72  7.1000000000000D-01  1.1798698521471D+00 -2.8286620210388D-01
    73  7.2000000000000D-01  1.1943722448815D+00 -2.9555739321749D-01
    74  7.3000000000000D-01  1.2080394515877D+00 -3.0685610885435D-01
    75  7.4000000000000D-01  1.2208390171612D+00 -3.1670380072621D-01
    76  7.5000000000000D-01  1.2327398436711D+00 -3.2504588158438D-01
    77  7.6000000000000D-01  1.2437122779631D+00 -3.3183191031644D-01
    78  7.7000000000000D-01  1.2537281959545D+00 -3.3701576503552D-01
    79  7.8000000000000D-01  1.2627610833694D+00 -3.4055580355638D-01
    80  7.9000000000000D-01  1.2707861126726D+00 -3.4241501068913D-01
    81  8.0000000000000D-01  1.2777802159688D+00 -3.4256113182049D-01
    82  8.1000000000000D-01  1.2837221536444D+00 -3.4096679229381D-01
    83  8.2000000000000D-01  1.2885925785423D+00 -3.3760960214226D-01
    84  8.3000000000000D-01  1.2923740954671D+00 -3.3247224577439D-01
    85  8.4000000000000D-01  1.2950513158357D+00 -3.2554255625867D-01
    86  8.5000000000000D-01  1.2966109072999D+00 -3.1681357390141D-01
    87  8.6000000000000D-01  1.2970416381777D+00 -3.0628358886289D-01
    88  8.7000000000000D-01  1.2963344165517D+00 -2.9395616760727D-01
    89  8.8000000000000D-01  1.2944823239004D+00 -2.7984016303453D-01
    90  8.9000000000000D-01  1.2914806431493D+00 -2.6394970819540D-01
    91  9.0000000000000D-01  1.2873268810414D+00 -2.4630419354486D-01
    92  9.1000000000000D-01  1.2820207847447D+00 -2.2692822774375D-01
    93  9.2000000000000D-01  1.2755643526307D+00 -2.0585158207315D-01
    94  9.3000000000000D-01  1.2679618391741D+00 -1.8310911858159D-01
    95  9.4000000000000D-01  1.2592197539423D+00 -1.5874070213957D-01
    96  9.5000000000000D-01  1.2493468546607D+00 -1.3279109663146D-01
    97  9.6000000000000D-01  1.2383541343572D+00 -1.0530984556890D-01
    98  9.7000000000000D-01  1.2262548026064D+00 -7.6351137463213D-02
    99  9.8000000000000D-01  1.2130642609131D+00 -4.5973656348320D-02
   100  9.9000000000000D-01  1.1988000722918D+00 -1.4240417896708D-02
   101  1.0000000000000D+00  1.1834819251160D+00  1.8781408377926D-02
   102  1.0100000000000D+00  1.1671315913302D+00  5.3020690288607D-02
   103  1.0200000000000D+00  1.1497728791322D+00  8.8402536923262D-02
   104  1.0300000000000D+00  1.1314315802539D+00  1.2484851473601D-01
   105  1.0400000000000D+00  1.1121354119812D+00  1.6227687510358D-01
   106  1.0500000000000D+00  1.0919139540736D+00  2.0060279262319D-01
   107  1.0600000000000D+00  1.0707985807579D+00  2.3973861339202D-01
   108  1.0700000000000D+00  1.0488223879866D+00  2.7959411247072D-01
   109  1.0800000000000D+00  1.0260201161648D+00  3.2007675969823D-01
   110  1.0900000000000D+00  1.0024280685662D+00  3.6109199299731D-01
   111  1.1000000000000D+00  9.7808402566959D-01  4.0254349827782D-01
   112  1.1100000000000D+00  9.5302715566062D-01  4.4433349502225D-01
   113  1.1200000000000D+00  9.2729792135793D-01  4.8636302661496D-01
   114  1.1300000000000D+00  9.0093798382971D-01  5.2853225445903D-01
   115  1.1400000000000D+00  8.7399010298004D-01  5.7074075490872D-01
   116  1.1500000000000D+00  8.4649803539308D-01  6.1288781803294D-01
   117  1.1600000000000D+00  8.1850642973136D-01  6.5487274721832D-01
   118  1.1700000000000D+00  7.9006071999155D-01  6.9659515861601D-01
   119  1.1800000000000D+00  7.6120701692796D-01  7.3795527943328D-01
   120  1.1900000000000D+00  7.3199199795995D-01  7.7885424407528D-01
   121  1.2000000000000D+00  7.0246279588322D-01  8.1919438715083D-01
   122  1.2100000000000D+00  6.7266688670769D-01  8.5887953235945D-01
   123  1.2200000000000D+00  6.4265197694889D-01  8.9781527629649D-01
   124  1.2300000000000D+00  6.1246589069913D-01  9.3590926623096D-01
   125  1.2400000000000D+00  5.8215645680547D-01  9.7307147092582D-01
   126  1.2500000000000D+00  5.5177139648144D-01  1.0092144435951D+00
   127  1.2600000000000D+00  5.2135821167576D-01  1.0442535761298D+00
   128  1.2700000000000D+00  4.9096407451903D-01  1.0781073437452D+00
   129  1.2800000000000D+00  4.6063571816702D-01  1.1106975392282D+00
   130  1.2900000000000D+00  4.3041932934972D-01  1.1419494960299D+00
   131  1.3000000000000D+00  4.0036044293234D-01  1.1717922994594D+00
   132  1.3100000000000D+00  3.7050383878951D-01  1.2001589852757D+00
   133  1.3200000000000D+00  3.4089344127675D-01  1.2269867250622D+00
   134  1.3300000000000D+00  3.1157222158484D-01  1.2522169977581D+00
   135  1.3400000000000D+00  2.8258210324947D-01  1.2757957467976D+00
   136  1.3500000000000D+00  2.5396387106602D-01  1.2976735224016D+00
   137  1.3600000000000D+00  2.2575708367232D-01  1.3178056085152D+00
   138  1.3700000000000D+00  1.9799999002544D-01  1.3361521340490D+00
   139  1.3800000000000D+00  1.7072944999058D-01  1.3526781681067D+00
   140  1.3900000000000D+00  1.4398085927004D-01  1.3673537988522D+00
   141  1.4000000000000D+00  1.1778807884019D-01  1.3801541959043D+00
   142  1.4100000000000D+00  9.2183369095652D-02  1.3910596560249D+00
   143  1.4200000000000D+00  6.7197328860629D-02  1.4000556320247D+00
   144  1.4300000000000D+00  4.2858839395005D-02  1.4071327449193D+00
   145  1.4400000000000D+00  1.9195013565837D-02  1.4122867792226D+00
   146  1.4500000000000D+00 -3.7688497490060D-03  1.4155186616318D+00
   147  1.4600000000000D+00 -2.6009305888921D-02  1.4168344231106D+00
   148  1.4700000000000D+00 -4.7504799208942D-02  1.4162451446450D+00
   149  1.4800000000000D+00 -6.8235692394937D-02  1.4137668869556D+00
   150  1.4900000000000D+00 -8.8184290211901D-02  1.4094206043694D+00
   151  1.5000000000000D+00 -1.0733485772203D-01  1.4032320434220D+00
   152  1.5100000000000D+00 -1.2567363288196D-01  1.3952316263732D+00
   153  1.5200000000000D+00 -1.4318883360492D-01  1.3854543203540D+00
   154  1.5300000000000D+00 -1.5987065924893D-01  1.3739394924854D+00
   155  1.5400000000000D+00 -1.7571128660873D-01  1.3607307516572D+00
   156  1.5500000000000D+00 -1.9070486045795D-01  1.3458757775484D+00
   157  1.5600000000000D+00 -2.0484747869687D-01  1.3294261375178D+00
   158  1.5700000000000D+00 -2.1813717223751D-01  1.3114370921586D+00
   159  1.5800000000000D+00 -2.3057387966088D-01  1.2919673901085D+00
   160  1.5900000000000D+00 -2.4215941685413D-01  1.2710790530668D+00
   161  1.6000000000000D+00 -2.5289744165193D-01  1.2488371516101D+00
   162  1.6100000000000D+00 -2.6279341374313D-01  1.2253095728432D+00
   163  1.6200000000000D+00 -2.7185454988260D-01  1.2005667805320D+00
   164  1.6300000000000D+00 -2.8008977468809D-01  1.1746815687589D+00
   165  1.6400000000000D+00 -2.8750966710155D-01  1.1477288098413D+00
   166  1.6500000000000D+00 -2.9412640279366D-01  1.1197851975122D+00
   167  1.6600000000000D+00 -2.9995369263313D-01  1.0909289861910D+00
   168  1.6700000000000D+00 -3.0500671749674D-01  1.0612397272949D+00
   169  1.6800000000000D+00 -3.0930205957571D-01  1.0307980034784D+00
   170  1.6900000000000D+00 -3.1285763045294D-01  9.9968516169800D-01
   171  1.7000000000000D+00 -3.1569259613269D-01  9.6798304603068D-01
   172  1.7100000000000D+00 -3.1782729929561D-01  9.3577373107088D-01
   173  1.7200000000000D+00 -3.1928317898072D-01  9.0313925687429D-01
   174  1.7300000000000D+00 -3.2008268796235D-01  8.7016136616348D-01
   175  1.7400000000000D+00 -3.2024920804164D-01  8.3692124482320D-01
   176  1.7500000000000D+00 -3.1980696350734D-01  8.0349926623220D-01
   177  1.7600000000000D+00 -3.1878093300762D-01  7.6997474056297D-01
   178  1.7700000000000D+00 -3.1719676005937D-01  7.3642566934539D-01
   179  1.7800000000000D+00 -3.1508066246994D-01  7.0292850660012D-01
   180  1.7900000000000D+00 -3.1245934084833D-01  6.6955792648588D-01
   181  1.8000000000000D+00 -3.0935988652761D-01  6.3638659899896D-01
   182  1.8100000000000D+00 -3.0580968901295D-01  6.0348497330954D-01
   183  1.8200000000000D+00 -3.0183634331620D-01  5.7092107038387D-01
   184  1.8300000000000D+00 -2.9746755724724D-01  5.3876028432675D-01
   185  1.8400000000000D+00 -2.9273105902225D-01  5.0706519391378D-01
   186  1.8500000000000D+00 -2.8765450525904D-01  4.7589538388817D-01
   187  1.8600000000000D+00 -2.8226538966378D-01  4.4530727702512D-01
   188  1.8700000000000D+00 -2.7659095253345D-01  4.1535397693858D-01
   189  1.8800000000000D+00 -2.7065809108427D-01  3.8608512135273D-01
   190  1.8900000000000D+00 -2.6449327126504D-01  3.5754674778053D-01
   191  1.9000000000000D+00 -2.5812244289702D-01  3.2978117674256D-01
   192  1.9100000000000D+00 -2.5157094309931D-01  3.0282686656577D-01
   193  1.9200000000000D+00 -2.4486344284067D-01  2.7671840298628D-01
   194  1.9300000000000D+00 -2.3802383890726D-01  2.5148633946372D-01
   195  1.9400000000000D+00 -2.3107513585084D-01  2.2715699210153D-01
   196  1.9500000000000D+00 -2.2403942761088D-01  2.0375256534643D-01
   197  1.9600000000000D+00 -2.1693790945586D-01  1.8129138425902D-01
   198  1.9700000000000D+00 -2.0979088209906D-01  1.5978808717363D-01
   199  1.9800000000000D+00 -2.0261777590218D-01  1.3925382330834D-01
   200  1.9900000000000D+00 -1.9543725022367D-01  1.1969670876092D-01
   201  2.0000000000000D+00 -1.8826711330576D-01  1.0112169836872D-01
   202  2.0100000000000D+00 -1.8112430062004D-01  8.3530628097938D-02
   203  2.0200000000000D+00 -1.7402486551769D-01  6.6922309517334D-02
   204  2.0300000000000D+00 -1.6698397561068D-01  5.1292643794996D-02
   205  2.0400000000000D+00 -1.6001589989342D-01  3.6634699212415D-02
   206  2.0500000000000D+00 -1.5313400785930D-01  2.2938828065772D-02
   207  2.0600000000000D+00 -1.4635076780343D-01  1.0192778558114D-02
   208  2.0700000000000D+00 -1.3967774895676D-01 -1.6181832375751D-03
   209  2.0800000000000D+00 -1.3312562633913D-01 -1.2511145061247D-02
   210  2.0900000000000D+00 -1.2670418830839D-01 -2.2505414274726D-02
   211  2.1000000000000D+00 -1.2042234681334D-01 -3.1622378255696D-02
   212  2.1100000000000D+00 -1.1428814995412D-01 -3.9885360427550D-02
   213  2.1200000000000D+00 -1.0830879703609D-01 -4.7319472290127D-02
   214  2.1300000000000D+00 -1.0249065574352D-01 -5.3951462292370D-02
   215  2.1400000000000D+00 -9.6839281381946D-02 -5.9809562211119D-02
   216  2.1500000000000D+00 -9.1359438104630D-02 -6.4923331806882D-02
   217  2.1600000000000D+00 -8.6055121845116D-02 -6.9323502117533D-02
   218  2.1700000000000D+00 -8.0929584935134D-02 -7.3041818637341D-02
   219  2.1800000000000D+00 -7.5985362186237D-02 -7.6110884522132D-02
   220  2.1900000000000D+00 -7.1224298301824D-02 -7.8564004544195D-02
   221  2.2000000000000D+00 -6.6647576463081D-02 -8.0435031084311D-02
   222  2.2100000000000D+00 -6.2255747977004D-02 -8.1758211555476D-02
   223  2.2200000000000D+00 -5.8048762766692D-02 -8.2568039140373D-02
   224  2.2300000000000D+00 -5.4026000584946D-02 -8.2899106925793D-02
   225  2.2400000000000D+00 -5.0186302909384D-02 -8.2785965015341D-02
   226  2.2500000000000D+00 -4.6528005119657D-02 -8.2262983485418D-02
   227  2.2600000000000D+00 -4.3048969106204D-02 -8.1364219175754D-02
   228  2.2700000000000D+00 -3.9746616029168D-02 -8.0123288005842D-02
   229  2.2800000000000D+00 -3.6617958979211D-02 -7.8573244056657D-02
   230  2.2900000000000D+00 -3.3659635757431D-02 -7.6746463439067D-02
   231  2.3000000000000D+00 -3.0867941260369D-02 -7.4674535929537D-02
   232  2.3100000000000D+00 -2.8238859506178D-02 -7.2388163686588D-02
   233  2.3200000000000D+00 -2.5768095487724D-02 -6.9917065575569D-02
   234  2.3300000000000D+00 -2.3451106083467D-02 -6.7289891313958D-02
   235  2.3400000000000D+00 -2.1283130533358D-02 -6.4534142085714D-02
   236  2.3500000000000D+00 -1.9259220292004D-02 -6.1676098423210D-02
   237  2.3600000000000D+00 -1.7374267678667D-02 -5.8740758224411D-02
   238  2.3700000000000D+00 -1.5623033954396D-02 -5.5751781136209D-02
   239  2.3800000000000D+00 -1.4000176361440D-02 -5.2731441513071D-02
   240  2.3900000000000D+00 -1.2500273862957D-02 -4.9700590994929D-02
   241  2.4000000000000D+00 -1.1117852163583D-02 -4.6678627426387D-02
   242  2.4100000000000D+00 -9.8474073607245D-03 -4.3683473117994D-02
   243  2.4200000000000D+00 -8.6834282868595D-03 -4.0731561838571D-02
   244  2.4300000000000D+00 -7.6204180233640D-03 -3.7837831936556D-02
   245  2.4400000000000D+00 -6.6529138067697D-03 -3.5015729031472D-02
   246  2.4500000000000D+00 -5.7755056803066D-03 -3.2277216303619D-02
   247  2.4600000000000D+00 -4.9828542471241D-03 -2.9632790506944D-02
   248  2.4700000000000D+00 -4.2697066889522D-03 -2.7091507190991D-02
   249  2.4800000000000D+00 -3.6309116227846D-03 -2.4661012267999D-02
   250  2.4900000000000D+00 -3.0614330304156D-03 -2.2347578706756D-02
   251  2.5000000000000D+00 -2.5563624455028D-03 -2.0156151486422D-02
   252  2.5100000000000D+00 -2.1109300892462D-03 -1.8090397615958D-02
   253  2.5200000000000D+00 -1.7205150901013D-03 -1.6152760511018D-02
   254  2.5300000000000D+00 -1.3806540696688D-03 -1.4344521144173D-02
   255  2.5400000000000D+00 -1.0870487914025D-03 -1.2665863012008D-02
   256  2.5500000000000D+00 -8.3557294052865D-04 -1.1115940549894D-02
   257  2.5600000000000D+00 -6.2227748223089D-04 -9.6929523975686D-03
   258  2.5700000000000D+00 -4.4339519411554D-04 -8.3942172782900D-03
   259  2.5800000000000D+00 -2.9534440662624D-04 -7.2162523178884D-03
   260  2.5900000000000D+00 -1.7473161248007D-04 -6.1548540148960D-03
   261  2.6000000000000D+00 -7.8353362279125D-05 -5.2051806311727D-03
   262  2.6100000000000D+00 -3.1974668446207D-06 -4.3618359612603D-03
   263  2.6200000000000D+00  5.3556599946818D-05 -3.6189535000997D-03
   264  2.6300000000000D+00  9.4537885725074D-05 -2.9702807568211D-03
   265  2.6400000000000D+00  1.2218472351871D-04 -2.4092638705535D-03
   266  2.6500000000000D+00  1.3874597488028D-04 -1.9291306120388D-03
   267  2.6600000000000D+00  1.4628269420464D-04 -1.5229720284212D-03
   268  2.6700000000000D+00  1.4667024847216D-04 -1.1838233229115D-03
   269  2.6800000000000D+00  1.4160067017494D-04 -9.0474169513013D-04
   270  2.6900000000000D+00  1.3258519243385D-04 -6.7888090924638D-04
   271  2.7000000000000D+00  1.2095710843914D-04 -4.9956405001126D-04
   272  2.7100000000000D+00  1.0787475872772D-04 -3.6035275924562D-04
   273  2.7200000000000D+00  9.4331198654345D-05 -2.5512306893027D-04
   274  2.7300000000000D+00  8.1172875402072D-05 -1.7815434967104D-04
   275  2.7400000000000D+00  6.8976761508882D-05 -1.2395917455105D-04
   276  2.7500000000000D+00  5.8217990379831D-05 -8.7630525035542D-05
   277  2.7600000000000D+00  4.8877376757468D-05 -6.4396513009683D-05
   278  2.7700000000000D+00  4.1754849926813D-05 -5.1236766076465D-05
   279  2.7800000000000D+00  3.7174558931828D-05 -4.5346497042258D-05
   280  2.7900000000000D+00  3.5780763183450D-05 -4.5025814480841D-05
   281  2.8000000000000D+00  3.6050817932563D-05 -4.6861338680696D-05
   282  2.8100000000000D+00  3.5246549420146D-05 -4.6738894348268D-05
   283  2.8200000000000D+00  3.1010620990500D-05 -4.1497327062978D-05
   284  2.8300000000000D+00  2.1578121817897D-05 -2.9098730890078D-05
   285  2.8400000000000D+00  1.0805897737844D-05 -1.4638166094284D-05
   286  2.8500000000000D+00  1.2178574837118D-06 -1.6539553273297D-06
   287  2.8600000000000D+00 -2.9140779426843D-06  3.9828196970487D-06
   288  2.8700000000000D+00 -3.2579360978496D-06  4.4652117367379D-06
   289  2.8800000000000D+00 -1.4222342059405D-06  1.9537424321000D-06
   290  2.8900000000000D+00  3.4988732461165D-07 -4.7149356371699D-07
   291  2.9000000000000D+00  7.6537982962361D-07 -1.0318286637235D-06
   292  2.9100000000000D+00  5.8214026780734D-07 -7.8507921250031D-07
   293  2.9200000000000D+00  2.4234158953021D-08 -3.2692427125784D-08
   294  2.9300000000000D+00 -7.5441914134892D-08  1.0071409486913D-07
   295  2.9400000000000D+00 -8.9500504701912D-08  1.1948215292186D-07
   296  2.9500000000000D+00 -4.0967794463018D-08  5.4691538323774D-08
   297  2.9600000000000D+00  0.0000000000000D+00  0.0000000000000D+00
   298  2.9700000000000D+00  0.0000000000000D+00  0.0000000000000D+00
   299  2.9800000000000D+00  0.0000000000000D+00  0.0000000000000D+00
   300  2.9900000000000D+00  0.0000000000000D+00  0.0000000000000D+00
   301  3.0000000000000D+00  0.0000000000000D+00  0.0000000000000D+00
   302  3.0100000000000D+00  0.0000000000000D+00  0.0000000000000D+00
   303  3.0200000000000D+00  0.0000000000000D+00  0.0000000000000D+00
   304  3.0300000000000D+00  0.0000000000000D+00  0.0000000000000D+00
   305  3.0400000000000D+00  0.0000000000000D+00  0.0000000000000D+00
   306  3.0500000000000D+00  0.0000000000000D+00  0.0000000000000D+00
   307  3.0600000000000D+00  0.0000000000000D+00  0.0000000000000D+00
   308  3.0700000000000D+00  0.0000000000000D+00  0.0000000000000D+00
   309  3.0800000000000D+00  0.0000000000000D+00  0.0000000000000D+00
   310  3.0900000000000D+00  0.0000000000000D+00  0.0000000000000D+00
   311  3.1000000000000D+00  0.0000000000000D+00  0.0000000000000D+00
   312  3.1100000000000D+00  0.0000000000000D+00  0.0000000000000D+00
   313  3.1200000000000D+00  0.0000000000000D+00  0.0000000000000D+00
   314  3.1300000000000D+00  0.0000000000000D+00  0.0000000000000D+00
   315  3.1400000000000D+00  0.0000000000000D+00  0.0000000000000D+00
   316  3.1500000000000D+00  0.0000000000000D+00  0.0000000000000D+00
   317  3.1600000000000D+00  0.0000000000000D+00  0.0000000000000D+00
   318  3.1700000000000D+00  0.0000000000000D+00  0.0000000000000D+00
   319  3.1800000000000D+00  0.0000000000000D+00  0.0000000000000D+00
   320  3.1900000000000D+00  0.0000000000000D+00  0.0000000000000D+00
   321  3.2000000000000D+00  0.0000000000000D+00  0.0000000000000D+00
   322  3.2100000000000D+00  0.0000000000000D+00  0.0000000000000D+00
   323  3.2200000000000D+00  0.0000000000000D+00  0.0000000000000D+00
   324  3.2300000000000D+00  0.0000000000000D+00  0.0000000000000D+00
   325  3.2400000000000D+00  0.0000000000000D+00  0.0000000000000D+00
   326  3.2500000000000D+00  0.0000000000000D+00  0.0000000000000D+00
   327  3.2600000000000D+00  0.0000000000000D+00  0.0000000000000D+00
   328  3.2700000000000D+00  0.0000000000000D+00  0.0000000000000D+00
   329  3.2800000000000D+00  0.0000000000000D+00  0.0000000000000D+00
   330  3.2900000000000D+00  0.0000000000000D+00  0.0000000000000D+00
   331  3.3000000000000D+00  0.0000000000000D+00  0.0000000000000D+00
   332  3.3100000000000D+00  0.0000000000000D+00  0.0000000000000D+00
   333  3.3200000000000D+00  0.0000000000000D+00  0.0000000000000D+00
   334  3.3300000000000D+00  0.0000000000000D+00  0.0000000000000D+00
   335  3.3400000000000D+00  0.0000000000000D+00  0.0000000000000D+00
   336  3.3500000000000D+00  0.0000000000000D+00  0.0000000000000D+00
   337  3.3600000000000D+00  0.0000000000000D+00  0.0000000000000D+00
   338  3.3700000000000D+00  0.0000000000000D+00  0.0000000000000D+00
   339  3.3800000000000D+00  0.0000000000000D+00  0.0000000000000D+00
   340  3.3900000000000D+00  0.0000000000000D+00  0.0000000000000D+00
   341  3.4000000000000D+00  0.0000000000000D+00  0.0000000000000D+00
   342  3.4100000000000D+00  0.0000000000000D+00  0.0000000000000D+00
   343  3.4200000000000D+00  0.0000000000000D+00  0.0000000000000D+00
   344  3.4300000000000D+00  0.0000000000000D+00  0.0000000000000D+00
   345  3.4400000000000D+00  0.0000000000000D+00  0.0000000000000D+00
   346  3.4500000000000D+00  0.0000000000000D+00  0.0000000000000D+00
   347  3.4600000000000D+00  0.0000000000000D+00  0.0000000000000D+00
   348  3.4700000000000D+00  0.0000000000000D+00  0.0000000000000D+00
   349  3.4800000000000D+00  0.0000000000000D+00  0.0000000000000D+00
   350  3.4900000000000D+00  0.0000000000000D+00  0.0000000000000D+00
   351  3.5000000000000D+00  0.0000000000000D+00  0.0000000000000D+00
   352  3.5100000000000D+00  0.0000000000000D+00  0.0000000000000D+00
   353  3.5200000000000D+00  0.0000000000000D+00  0.0000000000000D+00
   354  3.5300000000000D+00  0.0000000000000D+00  0.0000000000000D+00
   355  3.5400000000000D+00  0.0000000000000D+00  0.0000000000000D+00
   356  3.5500000000000D+00  0.0000000000000D+00  0.0000000000000D+00
   357  3.5600000000000D+00  0.0000000000000D+00  0.0000000000000D+00
   358  3.5700000000000D+00  0.0000000000000D+00  0.0000000000000D+00
   359  3.5800000000000D+00  0.0000000000000D+00  0.0000000000000D+00
   360  3.5900000000000D+00  0.0000000000000D+00  0.0000000000000D+00
   361  3.6000000000000D+00  0.0000000000000D+00  0.0000000000000D+00
   362  3.6100000000000D+00  0.0000000000000D+00  0.0000000000000D+00
   363  3.6200000000000D+00  0.0000000000000D+00  0.0000000000000D+00
   364  3.6300000000000D+00  0.0000000000000D+00  0.0000000000000D+00
   365  3.6400000000000D+00  0.0000000000000D+00  0.0000000000000D+00
   366  3.6500000000000D+00  0.0000000000000D+00  0.0000000000000D+00
   367  3.6600000000000D+00  0.0000000000000D+00  0.0000000000000D+00
   368  3.6700000000000D+00  0.0000000000000D+00  0.0000000000000D+00
   369  3.6800000000000D+00  0.0000000000000D+00  0.0000000000000D+00
   370  3.6900000000000D+00  0.0000000000000D+00  0.0000000000000D+00
   371  3.7000000000000D+00  0.0000000000000D+00  0.0000000000000D+00
   372  3.7100000000000D+00  0.0000000000000D+00  0.0000000000000D+00
   373  3.7200000000000D+00  0.0000000000000D+00  0.0000000000000D+00
   374  3.7300000000000D+00  0.0000000000000D+00  0.0000000000000D+00
   375  3.7400000000000D+00  0.0000000000000D+00  0.0000000000000D+00
   376  3.7500000000000D+00  0.0000000000000D+00  0.0000000000000D+00
   377  3.7600000000000D+00  0.0000000000000D+00  0.0000000000000D+00
   378  3.7700000000000D+00  0.0000000000000D+00  0.0000000000000D+00
   379  3.7800000000000D+00  0.0000000000000D+00  0.0000000000000D+00
   380  3.7900000000000D+00  0.0000000000000D+00  0.0000000000000D+00
   381  3.8000000000000D+00  0.0000000000000D+00  0.0000000000000D+00
   382  3.8100000000000D+00  0.0000000000000D+00  0.0000000000000D+00
   383  3.8200000000000D+00  0.0000000000000D+00  0.0000000000000D+00
   384  3.8300000000000D+00  0.0000000000000D+00  0.0000000000000D+00
   385  3.8400000000000D+00  0.0000000000000D+00  0.0000000000000D+00
   386  3.8500000000000D+00  0.0000000000000D+00  0.0000000000000D+00
   387  3.8600000000000D+00  0.0000000000000D+00  0.0000000000000D+00
   388  3.8700000000000D+00  0.0000000000000D+00  0.0000000000000D+00
   389  3.8800000000000D+00  0.0000000000000D+00  0.0000000000000D+00
   390  3.8900000000000D+00  0.0000000000000D+00  0.0000000000000D+00
   391  3.9000000000000D+00  0.0000000000000D+00  0.0000000000000D+00
   392  3.9100000000000D+00  0.0000000000000D+00  0.0000000000000D+00
   393  3.9200000000000D+00  0.0000000000000D+00  0.0000000000000D+00
   394  3.9300000000000D+00  0.0000000000000D+00  0.0000000000000D+00
   395  3.9400000000000D+00  0.0000000000000D+00  0.0000000000000D+00
   396  3.9500000000000D+00  0.0000000000000D+00  0.0000000000000D+00
   397  3.9600000000000D+00  0.0000000000000D+00  0.0000000000000D+00
   398  3.9700000000000D+00  0.0000000000000D+00  0.0000000000000D+00
   399  3.9800000000000D+00  0.0000000000000D+00  0.0000000000000D+00
   400  3.9900000000000D+00  0.0000000000000D+00  0.0000000000000D+00
   401  4.0000000000000D+00  0.0000000000000D+00  0.0000000000000D+00
   402  4.0100000000000D+00  0.0000000000000D+00  0.0000000000000D+00
   403  4.0200000000000D+00  0.0000000000000D+00  0.0000000000000D+00
   404  4.0300000000000D+00  0.0000000000000D+00  0.0000000000000D+00
   405  4.0400000000000D+00  0.0000000000000D+00  0.0000000000000D+00
   406  4.0500000000000D+00  0.0000000000000D+00  0.0000000000000D+00
   407  4.0600000000000D+00  0.0000000000000D+00  0.0000000000000D+00
   408  4.0700000000000D+00  0.0000000000000D+00  0.0000000000000D+00
   409  4.0800000000000D+00  0.0000000000000D+00  0.0000000000000D+00
   410  4.0900000000000D+00  0.0000000000000D+00  0.0000000000000D+00
   411  4.1000000000000D+00  0.0000000000000D+00  0.0000000000000D+00
   412  4.1100000000000D+00  0.0000000000000D+00  0.0000000000000D+00
   413  4.1200000000000D+00  0.0000000000000D+00  0.0000000000000D+00
   414  4.1300000000000D+00  0.0000000000000D+00  0.0000000000000D+00
   415  4.1400000000000D+00  0.0000000000000D+00  0.0000000000000D+00
   416  4.1500000000000D+00  0.0000000000000D+00  0.0000000000000D+00
   417  4.1600000000000D+00  0.0000000000000D+00  0.0000000000000D+00
   418  4.1700000000000D+00  0.0000000000000D+00  0.0000000000000D+00
   419  4.1800000000000D+00  0.0000000000000D+00  0.0000000000000D+00
   420  4.1900000000000D+00  0.0000000000000D+00  0.0000000000000D+00
   421  4.2000000000000D+00  0.0000000000000D+00  0.0000000000000D+00
   422  4.2100000000000D+00  0.0000000000000D+00  0.0000000000000D+00