Sr    ONCVPSP-3.3.1  r_core=   2.81795   2.68665   2.38455
     38.0000     10.0000      210904    zatom,zion,pspd
     8       2   2     4   600     0    pspcod,pspxc,lmax,lloc,mmax,r2well
  5.99000000  0.00000000  0.00000000    rchrg fchrg qchrg
     2     2     2     0     0    nproj
     1     1           extension_switch
   0                         3.0174485076488D+00  4.8129213075028D-01
     1  0.0000000000000D+00  1.1280421041704D-12 -2.5960553151627D-12
     2  1.0000000000000D-02  3.8575458395053D-02 -4.1592082553701D-03
     3  2.0000000000000D-02  7.7117354015916D-02 -8.3054722974683D-03
     4  3.0000000000000D-02  1.1559214504211D-01 -1.2425836638004D-02
     5  4.0000000000000D-02  1.5396633160121D-01 -1.6507323382951D-02
     6  5.0000000000000D-02  1.9220647684423D-01 -2.0536921389775D-02
     7  6.0000000000000D-02  2.3027922814176D-01 -2.4501575854927D-02
     8  7.0000000000000D-02  2.6815133843988D-01 -2.8388178471957D-02
     9  8.0000000000000D-02  3.0578968781357D-01 -3.2183558297999D-02
    10  9.0000000000000D-02  3.4316130525411D-01 -3.5874473463103D-02
    11  1.0000000000000D-01  3.8023339072515D-01 -3.9447603853018D-02
    12  1.1000000000000D-01  4.1697333752026D-01 -4.2889544891574D-02
    13  1.2000000000000D-01  4.5334875495252D-01 -4.6186802543696D-02
    14  1.3000000000000D-01  4.8932749140439D-01 -4.9325789654413D-02
    15  1.4000000000000D-01  5.2487765776333D-01 -5.2292823733067D-02
    16  1.5000000000000D-01  5.5996765126573D-01 -5.5074126285114D-02
    17  1.6000000000000D-01  5.9456617976867D-01 -5.7655823786710D-02
    18  1.7000000000000D-01  6.2864228646566D-01 -6.0023950389472D-02
    19  1.8000000000000D-01  6.6216537505904D-01 -6.2164452434683D-02
    20  1.9000000000000D-01  6.9510523539803D-01 -6.4063194847514D-02
    21  2.0000000000000D-01  7.2743206958750D-01 -6.5705969472877D-02
    22  2.1000000000000D-01  7.5911651856876D-01 -6.7078505405172D-02
    23  2.2000000000000D-01  7.9012968916930D-01 -6.8166481354360D-02
    24  2.3000000000000D-01  8.2044318161431D-01 -6.8955540081001D-02
    25  2.4000000000000D-01  8.5002911748865D-01 -6.9431304922522D-02
    26  2.5000000000000D-01  8.7886016813316D-01 -6.9579398422507D-02
    27  2.6000000000000D-01  9.0690958345511D-01 -6.9385463064341D-02
    28  2.7000000000000D-01  9.3415122112803D-01 -6.8835184099561D-02
    29  2.8000000000000D-01  9.6055957615143D-01 -6.7914314450579D-02
    30  2.9000000000000D-01  9.8610981073668D-01 -6.6608701656477D-02
    31  3.0000000000000D-01  1.0107777844807D+00 -6.4904316819627D-02
    32  3.1000000000000D-01  1.0345400847847D+00 -6.2787285500066D-02
    33  3.2000000000000D-01  1.0573740574707D+00 -6.0243920493748D-02
    34  3.3000000000000D-01  1.0792578375446D+00 -5.7260756420095D-02
    35  3.4000000000000D-01  1.1001703800497D+00 -5.3824586033682D-02
    36  3.5000000000000D-01  1.1200914909514D+00 -4.9922498164794D-02
    37  3.6000000000000D-01  1.1390018579885D+00 -4.5541917183178D-02
    38  3.7000000000000D-01  1.1568830814246D+00 -4.0670643869988D-02
    39  3.8000000000000D-01  1.1737177046278D+00 -3.5296897572938D-02
    40  3.9000000000000D-01  1.1894892444035D+00 -2.9409359511190D-02
    41  4.0000000000000D-01  1.2041822210041D+00 -2.2997217087246D-02
    42  4.1000000000000D-01  1.2177821877328D+00 -1.6050209055493D-02
    43  4.2000000000000D-01  1.2302757600593D+00 -8.5586713887363D-03
    44  4.3000000000000D-01  1.2416506441605D+00 -5.1358367738489D-04
    45  4.4000000000000D-01  1.2518956647988D+00  8.0933841111303D-03
    46  4.5000000000000D-01  1.2610007924463D+00  1.7269824690879D-02
    47  4.6000000000000D-01  1.2689571695643D+00  2.7022546517682D-02
    48  4.7000000000000D-01  1.2757571359447D+00  3.7357527039633D-02
    49  4.8000000000000D-01  1.2813942530188D+00  4.8279866330423D-02
    50  4.9000000000000D-01  1.2858633270383D+00  5.9793741301754D-02
    51  5.0000000000000D-01  1.2891604310348D+00  7.1902360693306D-02
    52  5.1000000000000D-01  1.2912829254614D+00  8.4607921041239D-02
    53  5.2000000000000D-01  1.2922294774223D+00  9.7911563826936D-02
    54  5.3000000000000D-01  1.2920000783967D+00  1.1181333400840D-01
    55  5.4000000000000D-01  1.2905960603644D+00  1.2631214013625D-01
    56  5.5000000000000D-01  1.2880201102409D+00  1.4140571625507D-01
    57  5.6000000000000D-01  1.2842762825352D+00  1.5709058578895D-01
    58  5.7000000000000D-01  1.2793700101401D+00  1.7336202760725D-01
    59  5.8000000000000D-01  1.2733081131737D+00  1.9021404446309D-01
    60  5.9000000000000D-01  1.2660988057894D+00  2.0763933399255D-01
    61  6.0000000000000D-01  1.2577517008764D+00  2.2562926245759D-01
    62  6.1000000000000D-01  1.2482778125778D+00  2.4417384140947D-01
    63  6.2000000000000D-01  1.2376895565553D+00  2.6326170744296D-01
    64  6.3000000000000D-01  1.2260007479357D+00  2.8288010520384D-01
    65  6.4000000000000D-01  1.2132265968786D+00  3.0301487380408D-01
    66  6.5000000000000D-01  1.1993837017094D+00  3.2365043679016D-01
    67  6.6000000000000D-01  1.1844900395682D+00  3.4476979579998D-01
    68  6.7000000000000D-01  1.1685649545299D+00  3.6635452803379D-01
    69  6.8000000000000D-01  1.1516291431584D+00  3.8838478765333D-01
    70  6.9000000000000D-01  1.1337046374612D+00  4.1083931121164D-01
    71  7.0000000000000D-01  1.1148147852211D+00  4.3369542720410D-01
    72  7.1000000000000D-01  1.0949842276858D+00  4.5692906981814D-01
    73  7.2000000000000D-01  1.0742388746037D+00  4.8051479694583D-01
    74  7.3000000000000D-01  1.0526058766027D+00  5.0442581251015D-01
    75  7.4000000000000D-01  1.0301135949141D+00  5.2863399314110D-01
    76  7.5000000000000D-01  1.0067915684533D+00  5.5310991922357D-01
    77  7.6000000000000D-01  9.8267047827612D-01  5.7782291032403D-01
    78  7.7000000000000D-01  9.5778210943545D-01  6.0274106498791D-01
    79  7.8000000000000D-01  9.3215931027413D-01  6.2783130488409D-01
    80  7.9000000000000D-01  9.0583594919499D-01  6.5305942325773D-01
    81  8.0000000000000D-01  8.7884686895846D-01  6.7839013763670D-01
    82  8.1000000000000D-01  8.5122783856533D-01  7.0378714672145D-01
    83  8.2000000000000D-01  8.2301550279072D-01  7.2921319137235D-01
    84  8.3000000000000D-01  7.9424732944253D-01  7.5463011959306D-01
    85  8.4000000000000D-01  7.6496155442580D-01  7.7999895539287D-01
    86  8.5000000000000D-01  7.3519712470189D-01  8.0527997139578D-01
    87  8.6000000000000D-01  7.0499363923886D-01  8.3043276504897D-01
    88  8.7000000000000D-01  6.7439128805655D-01  8.5541633826848D-01
    89  8.8000000000000D-01  6.4343078947738D-01  8.8018918034581D-01
    90  8.9000000000000D-01  6.1215332570028D-01  9.0470935392463D-01
    91  9.0000000000000D-01  5.8060047682206D-01  9.2893458384393D-01
    92  9.1000000000000D-01  5.4881415343674D-01  9.5282234863039D-01
    93  9.2000000000000D-01  5.1683652794947D-01  9.7632997441070D-01
    94  9.3000000000000D-01  4.8470996474713D-01  9.9941473100260D-01
    95  9.4000000000000D-01  4.5247694937339D-01  1.0220339299325D+00
    96  9.5000000000000D-01  4.2018001686058D-01  1.0441450241168D+00
    97  9.6000000000000D-01  3.8786167937549D-01  1.0657057089354D+00
    98  9.7000000000000D-01  3.5556435334029D-01  1.0866740244160D+00
    99  9.8000000000000D-01  3.2333028619335D-01  1.1070084582402D+00
   100  9.9000000000000D-01  2.9120148295814D-01  1.1266680492768D+00
   101  1.0000000000000D+00  2.5921963279089D-01  1.1456124913391D+00
   102  1.0100000000000D+00  2.2742603568009D-01  1.1638022368617D+00
   103  1.0200000000000D+00  1.9586152947264D-01  1.1811986001829D+00
   104  1.0300000000000D+00  1.6456641740260D-01  1.1977638601225D+00
   105  1.0400000000000D+00  1.3358039629917D-01  1.2134613615368D+00
   106  1.0500000000000D+00  1.0294248565081D-01  1.2282556155357D+00
   107  1.0600000000000D+00  7.2690957701892D-02  1.2421123980451D+00
   108  1.0700000000000D+00  4.2863268757301D-02  1.2549988463998D+00
   109  1.0800000000000D+00  1.3495991868950D-02  1.2668835536554D+00
   110  1.0900000000000D+00 -1.5375248923729D-02  1.2777366603088D+00
   111  1.1000000000000D+00 -4.3715842630137D-02  1.2875299431248D+00
   112  1.1100000000000D+00 -7.1492253455464D-02  1.2962369007689D+00
   113  1.1200000000000D+00 -9.8672080895881D-02  1.3038328359568D+00
   114  1.1300000000000D+00 -1.2522411762374D-01  1.3102949338352D+00
   115  1.1400000000000D+00 -1.5111840500900D-01  1.3156023363209D+00
   116  1.1500000000000D+00 -1.7632628612893D-01  1.3197362121320D+00
   117  1.1600000000000D+00 -2.0082045612394D-01  1.3226798222609D+00
   118  1.1700000000000D+00 -2.2457500976293D-01  1.3244185806451D+00
   119  1.1800000000000D+00 -2.4756548608856D-01  1.3249401098078D+00
   120  1.1900000000000D+00 -2.6976891002046D-01  1.3242342912547D+00
   121  1.2000000000000D+00 -2.9116383080290D-01  1.3222933104300D+00
   122  1.2100000000000D+00 -3.1173035718756D-01  1.3191116960403D+00
   123  1.2200000000000D+00 -3.3145018925530D-01  1.3146863535855D+00
   124  1.2300000000000D+00 -3.5030664678771D-01  1.3090165929444D+00
   125  1.2400000000000D+00 -3.6828469410666D-01  1.3021041498801D+00
   126  1.2500000000000D+00 -3.8537096131063D-01  1.2939532013501D+00
   127  1.2600000000000D+00 -4.0155376184884D-01  1.2845703745290D+00
   128  1.2700000000000D+00 -4.1682310637994D-01  1.2739647494642D+00
   129  1.2800000000000D+00 -4.3117071287228D-01  1.2621478553047D+00
   130  1.2900000000000D+00 -4.4459001291903D-01  1.2491336600728D+00
   131  1.3000000000000D+00 -4.5707615424444D-01  1.2349385539576D+00
   132  1.3100000000000D+00 -4.6862599938916D-01  1.2195813261289D+00
   133  1.3200000000000D+00 -4.7923812058153D-01  1.2030831351078D+00
   134  1.3300000000000D+00 -4.8891279079934D-01  1.1854674727274D+00
   135  1.3400000000000D+00 -4.9765197104450D-01  1.1667601217474D+00
   136  1.3500000000000D+00 -5.0545929387035D-01  1.1469891072248D+00
   137  1.3600000000000D+00 -5.1234004319161D-01  1.1261846417192D+00
   138  1.3700000000000D+00 -5.1830113043974D-01  1.1043790644792D+00
   139  1.3800000000000D+00 -5.2335106712726D-01  1.0816067747515D+00
   140  1.3900000000000D+00 -5.2749993388303D-01  1.0579041593584D+00
   141  1.4000000000000D+00 -5.3075934605807D-01  1.0333095147533D+00
   142  1.4100000000000D+00 -5.3314241598057D-01  1.0078629637315D+00
   143  1.4200000000000D+00 -5.3466371196674D-01  9.8160636701940D-01
   144  1.4300000000000D+00 -5.3533921420564D-01  9.5458322999101D-01
   145  1.4400000000000D+00 -5.3518626761929D-01  9.2683860472801D-01
   146  1.4500000000000D+00 -5.3422353184774D-01  8.9841898772778D-01
   147  1.4600000000000D+00 -5.3247092847520D-01  8.6937221350309D-01
   148  1.4700000000000D+00 -5.2994958565045D-01  8.3974734438467D-01
   149  1.4800000000000D+00 -5.2668178025056D-01  8.0959455682802D-01
   150  1.4900000000000D+00 -5.2269087773351D-01  7.7896502452302D-01
   151  1.5000000000000D+00 -5.1800126985936D-01  7.4791079865917D-01
   152  1.5100000000000D+00 -5.1263831042390D-01  7.1648468564327D-01
   153  1.5200000000000D+00 -5.0662824919831D-01  6.8474012264371D-01
   154  1.5300000000000D+00 -4.9999816423273D-01  6.5273105128096D-01
   155  1.5400000000000D+00 -4.9277589271418D-01  6.2051178983282D-01
   156  1.5500000000000D+00 -4.8498996055451D-01  5.8813690429828D-01
   157  1.5600000000000D+00 -4.7666951089503D-01  5.5566107868506D-01
   158  1.5700000000000D+00 -4.6784423171291D-01  5.2313898486987D-01
   159  1.5800000000000D+00 -4.5854428271718D-01  4.9062515240344D-01
   160  1.5900000000000D+00 -4.4880022171824D-01  4.5817383859355D-01
   161  1.6000000000000D+00 -4.3864293066533D-01  4.2583889925428D-01
   162  1.6100000000000D+00 -4.2810354152541D-01  3.9367366042258D-01
   163  1.6200000000000D+00 -4.1721336220611D-01  3.6173079144649D-01
   164  1.6300000000000D+00 -4.0600380268243D-01  3.3006217971113D-01
   165  1.6400000000000D+00 -3.9450630153373D-01  2.9871880740920D-01
   166  1.6500000000000D+00 -3.8275225303729D-01  2.6775063059262D-01
   167  1.6600000000000D+00 -3.7077293502396D-01  2.3720646090184D-01
   168  1.6700000000000D+00 -3.5859943762815D-01  2.0713385017881D-01
   169  1.6800000000000D+00 -3.4626259313360D-01  1.7757897834507D-01
   170  1.6900000000000D+00 -3.3379290703047D-01  1.4858654471359D-01
   171  1.7000000000000D+00 -3.2122049048091D-01  1.2019966310179D-01
   172  1.7100000000000D+00 -3.0857499428633D-01  9.2459760864292D-02
   173  1.7200000000000D+00 -2.9588554455265D-01  6.5406482207590D-02
   174  1.7300000000000D+00 -2.8318068011543D-01  3.9077595835285D-02
   175  1.7400000000000D+00 -2.7048829192755D-01  1.3508907297612D-02
   176  1.7500000000000D+00 -2.5783556442745D-01 -1.1265824002521D-02
   177  1.7600000000000D+00 -2.4524891910842D-01 -3.5214962737551D-02
   178  1.7700000000000D+00 -2.3275396024728D-01 -5.8309070693742D-02
   179  1.7800000000000D+00 -2.2037542304496D-01 -8.0520974444838D-02
   180  1.7900000000000D+00 -2.0813712406172D-01 -1.0182582799840D-01
   181  1.8000000000000D+00 -1.9606191423818D-01 -1.2220116986127D-01
   182  1.8100000000000D+00 -1.8417163432050D-01 -1.4162697499454D-01
   183  1.8200000000000D+00 -1.7248707298078D-01 -1.6008570111238D-01
   184  1.8300000000000D+00 -1.6102792744261D-01 -1.7756232980524D-01
   185  1.8400000000000D+00 -1.4981276684199D-01 -1.9404440207878D-01
   186  1.8500000000000D+00 -1.3885899818001D-01 -2.0952204868392D-01
   187  1.8600000000000D+00 -1.2818283498933D-01 -2.2398801506223D-01
   188  1.8700000000000D+00 -1.1779926865893D-01 -2.3743768109427D-01
   189  1.8800000000000D+00 -1.0772204239333D-01 -2.4986907577788D-01
   190  1.8900000000000D+00 -9.7963627873662D-02 -2.6128288677416D-01
   191  1.9000000000000D+00 -8.8535204424993D-02 -2.7168246529061D-01
   192  1.9100000000000D+00 -7.9446640887574D-02 -2.8107382598727D-01
   193  1.9200000000000D+00 -7.0706479859080D-02 -2.8946564263514D-01
   194  1.9300000000000D+00 -6.2321924545960D-02 -2.9686923914800D-01
   195  1.9400000000000D+00 -5.4298827902207D-02 -3.0329857668006D-01
   196  1.9500000000000D+00 -4.6641683354393D-02 -3.0877023895281D-01
   197  1.9600000000000D+00 -3.9353620461280D-02 -3.1330340629322D-01
   198  1.9700000000000D+00 -3.2436403335552D-02 -3.1691982448564D-01
   199  1.9800000000000D+00 -2.5890402488587D-02 -3.1964385032321D-01
   200  1.9900000000000D+00 -1.9714670398903D-02 -3.2150221251134D-01
   201  2.0000000000000D+00 -1.3906880120573D-02 -3.2252414983981D-01
   202  2.0100000000000D+00 -8.4632355997590D-03 -3.2274164463120D-01
   203  2.0200000000000D+00 -3.3786051476962D-03 -3.2218902265226D-01
   204  2.0300000000000D+00  1.3532578993208D-03 -3.2090230819436D-01
   205  2.0400000000000D+00  5.7395489607570D-03 -3.1891873507018D-01
   206  2.0500000000000D+00  9.7882545277566D-03 -3.1627633516145D-01
   207  2.0600000000000D+00  1.3507820791380D-02 -3.1301302194284D-01
   208  2.0700000000000D+00  1.6907177934946D-02 -3.0916668844633D-01
   209  2.0800000000000D+00  1.9995733159853D-02 -3.0477522625977D-01
   210  2.0900000000000D+00  2.2783356215966D-02 -2.9987652618584D-01
   211  2.1000000000000D+00  2.5280281304754D-02 -2.9450823099003D-01
   212  2.1100000000000D+00  2.7497088835648D-02 -2.8870772441559D-01
   213  2.1200000000000D+00  2.9444653919071D-02 -2.8251202409625D-01
   214  2.1300000000000D+00  3.1134103066996D-02 -2.7595769900231D-01
   215  2.1400000000000D+00  3.2576771327069D-02 -2.6908078886280D-01
   216  2.1500000000000D+00  3.3784159749354D-02 -2.6191672514619D-01
   217  2.1600000000000D+00  3.4767893482223D-02 -2.5450025442228D-01
   218  2.1700000000000D+00  3.5539680924204D-02 -2.4686536514010D-01
   219  2.1800000000000D+00  3.6111273809130D-02 -2.3904521744799D-01
   220  2.1900000000000D+00  3.6494428354200D-02 -2.3107207632754D-01
   221  2.2000000000000D+00  3.6700867812330D-02 -2.2297724884135D-01
   222  2.2100000000000D+00  3.6742246122164D-02 -2.1479102467548D-01
   223  2.2200000000000D+00  3.6630113124097D-02 -2.0654262108565D-01
   224  2.2300000000000D+00  3.6375881299283D-02 -1.9826013208727D-01
   225  2.2400000000000D+00  3.5990793833537D-02 -1.8997048135517D-01
   226  2.2500000000000D+00  3.5485894688564D-02 -1.8169938044912D-01
   227  2.2600000000000D+00  3.4872000116524D-02 -1.7347129094159D-01
   228  2.2700000000000D+00  3.4159671958735D-02 -1.6530939122793D-01
   229  2.2800000000000D+00  3.3359192975026D-02 -1.5723554856408D-01
   230  2.2900000000000D+00  3.2480543709651D-02 -1.4927029509558D-01
   231  2.3000000000000D+00  3.1533381476338D-02 -1.4143280922730D-01
   232  2.3100000000000D+00  3.0527021292577D-02 -1.3374090187864D-01
   233  2.3200000000000D+00  2.9470418416989D-02 -1.2621100675601D-01
   234  2.3300000000000D+00  2.8372153270542D-02 -1.1885817644634D-01
   235  2.3400000000000D+00  2.7240418076008D-02 -1.1169608270837D-01
   236  2.3500000000000D+00  2.6083005298932D-02 -1.0473702111559D-01
   237  2.3600000000000D+00  2.4907298413323D-02 -9.7991921229007D-02
   238  2.3700000000000D+00  2.3720264252527D-02 -9.1470360522067D-02
   239  2.3800000000000D+00  2.2528447292404D-02 -8.5180582821883D-02
   240  2.3900000000000D+00  2.1337966034752D-02 -7.9129521605577D-02
   241  2.4000000000000D+00  2.0154510881170D-02 -7.3322826697499D-02
   242  2.4100000000000D+00  1.8983343948879D-02 -6.7764895355788D-02
   243  2.4200000000000D+00  1.7829300713892D-02 -6.2458907434440D-02
   244  2.4300000000000D+00  1.6696793019188D-02 -5.7406863526459D-02
   245  2.4400000000000D+00  1.5589813930708D-02 -5.2609627121882D-02
   246  2.4500000000000D+00  1.4511944121866D-02 -4.8066970010897D-02
   247  2.4600000000000D+00  1.3466359467205D-02 -4.3777620181402D-02
   248  2.4700000000000D+00  1.2455840285850D-02 -3.9739313112686D-02
   249  2.4800000000000D+00  1.1482781809490D-02 -3.5948845482075D-02
   250  2.4900000000000D+00  1.0549205675619D-02 -3.2402130819659D-02
   251  2.5000000000000D+00  9.6567727776769D-03 -2.9094257721083D-02
   252  2.5100000000000D+00  8.8067970441772D-03 -2.6019549670945D-02
   253  2.5200000000000D+00  8.0002600363702D-03 -2.3171626221831D-02
   254  2.5300000000000D+00  7.2378265322311D-03 -2.0543465718996D-02
   255  2.5400000000000D+00  6.5198607585400D-03 -1.8127468876130D-02
   256  2.5500000000000D+00  5.8464432194269D-03 -1.5915523087473D-02
   257  2.5600000000000D+00  5.2173880882741D-03 -1.3899067163163D-02
   258  2.5700000000000D+00  4.6322609798103D-03 -1.2069156192916D-02
   259  2.5800000000000D+00  4.0903970897499D-03 -1.0416526521106D-02
   260  2.5900000000000D+00  3.5909194568521D-03 -8.9316599995589D-03
   261  2.6000000000000D+00  3.1327573399134D-03 -7.6048476550979D-03
   262  2.6100000000000D+00  2.7146647349133D-03 -6.4262528584115D-03
   263  2.6200000000000D+00  2.3352385993328D-03 -5.3859727115855D-03
   264  2.6300000000000D+00  1.9929369098386D-03 -4.4740980972803D-03
   265  2.6400000000000D+00  1.6860966406069D-03 -3.6807726491467D-03
   266  2.6500000000000D+00  1.4129511123861D-03 -2.9962491011251D-03
   267  2.6600000000000D+00  1.1716468503798D-03 -2.4109434381885D-03
   268  2.6700000000000D+00  9.6026015500131D-04 -1.9154874270048D-03
   269  2.6800000000000D+00  7.7681284383917D-04 -1.5007780495695D-03
   270  2.6900000000000D+00  6.1928710531637D-04 -1.1580236967814D-03
   271  2.7000000000000D+00  4.8563987067276D-04 -8.7878824196421D-04
   272  2.7100000000000D+00  3.7381634851155D-04 -6.5503203903390D-04
   273  2.7200000000000D+00  2.8176348568200D-04 -4.7915652240735D-04
   274  2.7300000000000D+00  2.0744617160175D-04 -3.4406738186353D-04
   275  2.7400000000000D+00  1.4882756018164D-04 -2.4301625372348D-04
   276  2.7500000000000D+00  1.0391659748148D-04 -1.6986614388189D-04
   277  2.7600000000000D+00  7.0608414901296D-05 -1.1864145225873D-04
   278  2.7700000000000D+00  4.7261604095597D-05 -8.5077516008290D-05
   279  2.7800000000000D+00  3.2158146752744D-05 -6.5155784442067D-05
   280  2.7900000000000D+00  2.3917922159211D-05 -5.6007768884148D-05
   281  2.8000000000000D+00  2.0247572045254D-05 -5.2984661137247D-05
   282  2.8100000000000D+00  1.8354108037352D-05 -5.0520453739942D-05
   283  2.8200000000000D+00  1.5929268610710D-05 -4.4275813820200D-05
   284  2.8300000000000D+00  1.1120954267348D-05 -3.0979481548797D-05
   285  2.8400000000000D+00  5.6713345868010D-06 -1.5728810646270D-05
   286  2.8500000000000D+00  7.2845282834542D-07 -2.0064322714664D-06
   287  2.8600000000000D+00 -1.4279413937087D-06  4.0707351021027D-06
   288  2.8700000000000D+00 -1.6335229883530D-06  4.6598155336171D-06
   289  2.8800000000000D+00 -7.3671167195277D-07  2.1017033371270D-06
   290  2.8900000000000D+00  1.6002210220231D-07 -4.6339075995161D-07
   291  2.9000000000000D+00  3.6530029708373D-07 -1.0599925174123D-06
   292  2.9100000000000D+00  2.8271052022443D-07 -8.2176697073012D-07
   293  2.9200000000000D+00  1.8463467434756D-08 -5.3748917712721D-08
   294  2.9300000000000D+00 -3.8021861162751D-08  1.0547622117525D-07
   295  2.9400000000000D+00 -4.6064553699577D-08  1.2778740718553D-07
   296  2.9500000000000D+00 -2.1813548464424D-08  6.0512836354912D-08
   297  2.9600000000000D+00  0.0000000000000D+00  0.0000000000000D+00
   298  2.9700000000000D+00  0.0000000000000D+00  0.0000000000000D+00
   299  2.9800000000000D+00  0.0000000000000D+00  0.0000000000000D+00
   300  2.9900000000000D+00  0.0000000000000D+00  0.0000000000000D+00
   301  3.0000000000000D+00  0.0000000000000D+00  0.0000000000000D+00
   302  3.0100000000000D+00  0.0000000000000D+00  0.0000000000000D+00
   303  3.0200000000000D+00  0.0000000000000D+00  0.0000000000000D+00
   304  3.0300000000000D+00  0.0000000000000D+00  0.0000000000000D+00
   305  3.0400000000000D+00  0.0000000000000D+00  0.0000000000000D+00
   306  3.0500000000000D+00  0.0000000000000D+00  0.0000000000000D+00
   307  3.0600000000000D+00  0.0000000000000D+00  0.0000000000000D+00
   308  3.0700000000000D+00  0.0000000000000D+00  0.0000000000000D+00
   309  3.0800000000000D+00  0.0000000000000D+00  0.0000000000000D+00
   310  3.0900000000000D+00  0.0000000000000D+00  0.0000000000000D+00
   311  3.1000000000000D+00  0.0000000000000D+00  0.0000000000000D+00
   312  3.1100000000000D+00  0.0000000000000D+00  0.0000000000000D+00
   313  3.1200000000000D+00  0.0000000000000D+00  0.0000000000000D+00
   314  3.1300000000000D+00  0.0000000000000D+00  0.0000000000000D+00
   315  3.1400000000000D+00  0.0000000000000D+00  0.0000000000000D+00
   316  3.1500000000000D+00  0.0000000000000D+00  0.0000000000000D+00
   317  3.1600000000000D+00  0.0000000000000D+00  0.0000000000000D+00
   318  3.1700000000000D+00  0.0000000000000D+00  0.0000000000000D+00
   319  3.1800000000000D+00  0.0000000000000D+00  0.0000000000000D+00
   320  3.1900000000000D+00  0.0000000000000D+00  0.0000000000000D+00
   321  3.2000000000000D+00  0.0000000000000D+00  0.0000000000000D+00
   322  3.2100000000000D+00  0.0000000000000D+00  0.0000000000000D+00
   323  3.2200000000000D+00  0.0000000000000D+00  0.0000000000000D+00
   324  3.2300000000000D+00  0.0000000000000D+00  0.0000000000000D+00
   325  3.2400000000000D+00  0.0000000000000D+00  0.0000000000000D+00
   326  3.2500000000000D+00  0.0000000000000D+00  0.0000000000000D+00
   327  3.2600000000000D+00  0.0000000000000D+00  0.0000000000000D+00
   328  3.2700000000000D+00  0.0000000000000D+00  0.0000000000000D+00
   329  3.2800000000000D+00  0.0000000000000D+00  0.0000000000000D+00
   330  3.2900000000000D+00  0.0000000000000D+00  0.0000000000000D+00
   331  3.3000000000000D+00  0.0000000000000D+00  0.0000000000000D+00
   332  3.3100000000000D+00  0.0000000000000D+00  0.0000000000000D+00
   333  3.3200000000000D+00  0.0000000000000D+00  0.0000000000000D+00
   334  3.3300000000000D+00  0.0000000000000D+00  0.0000000000000D+00
   335  3.3400000000000D+00  0.0000000000000D+00  0.0000000000000D+00
   336  3.3500000000000D+00  0.0000000000000D+00  0.0000000000000D+00
   337  3.3600000000000D+00  0.0000000000000D+00  0.0000000000000D+00
   338  3.3700000000000D+00  0.0000000000000D+00  0.0000000000000D+00
   339  3.3800000000000D+00  0.0000000000000D+00  0.0000000000000D+00
   340  3.3900000000000D+00  0.0000000000000D+00  0.0000000000000D+00
   341  3.4000000000000D+00  0.0000000000000D+00  0.0000000000000D+00
   342  3.4100000000000D+00  0.0000000000000D+00  0.0000000000000D+00
   343  3.4200000000000D+00  0.0000000000000D+00  0.0000000000000D+00
   344  3.4300000000000D+00  0.0000000000000D+00  0.0000000000000D+00
   345  3.4400000000000D+00  0.0000000000000D+00  0.0000000000000D+00
   346  3.4500000000000D+00  0.0000000000000D+00  0.0000000000000D+00
   347  3.4600000000000D+00  0.0000000000000D+00  0.0000000000000D+00
   348  3.4700000000000D+00  0.0000000000000D+00  0.0000000000000D+00
   349  3.4800000000000D+00  0.0000000000000D+00  0.0000000000000D+00
   350  3.4900000000000D+00  0.0000000000000D+00  0.0000000000000D+00
   351  3.5000000000000D+00  0.0000000000000D+00  0.0000000000000D+00
   352  3.5100000000000D+00  0.0000000000000D+00  0.0000000000000D+00
   353  3.5200000000000D+00  0.0000000000000D+00  0.0000000000000D+00
   354  3.5300000000000D+00  0.0000000000000D+00  0.0000000000000D+00
   355  3.5400000000000D+00  0.0000000000000D+00  0.0000000000000D+00
   356  3.5500000000000D+00  0.0000000000000D+00  0.0000000000000D+00
   357  3.5600000000000D+00  0.0000000000000D+00  0.0000000000000D+00
   358  3.5700000000000D+00  0.0000000000000D+00  0.0000000000000D+00
   359  3.5800000000000D+00  0.0000000000000D+00  0.0000000000000D+00
   360  3.5900000000000D+00  0.0000000000000D+00  0.0000000000000D+00
   361  3.6000000000000D+00  0.0000000000000D+00  0.0000000000000D+00
   362  3.6100000000000D+00  0.0000000000000D+00  0.0000000000000D+00
   363  3.6200000000000D+00  0.0000000000000D+00  0.0000000000000D+00
   364  3.6300000000000D+00  0.0000000000000D+00  0.0000000000000D+00
   365  3.6400000000000D+00  0.0000000000000D+00  0.0000000000000D+00
   366  3.6500000000000D+00  0.0000000000000D+00  0.0000000000000D+00
   367  3.6600000000000D+00  0.0000000000000D+00  0.0000000000000D+00
   368  3.6700000000000D+00  0.0000000000000D+00  0.0000000000000D+00
   369  3.6800000000000D+00  0.0000000000000D+00  0.0000000000000D+00
   370  3.6900000000000D+00  0.0000000000000D+00  0.0000000000000D+00
   371  3.7000000000000D+00  0.0000000000000D+00  0.0000000000000D+00
   372  3.7100000000000D+00  0.0000000000000D+00  0.0000000000000D+00
   373  3.7200000000000D+00  0.0000000000000D+00  0.0000000000000D+00
   374  3.7300000000000D+00  0.0000000000000D+00  0.0000000000000D+00
   375  3.7400000000000D+00  0.0000000000000D+00  0.0000000000000D+00
   376  3.7500000000000D+00  0.0000000000000D+00  0.0000000000000D+00
   377  3.7600000000000D+00  0.0000000000000D+00  0.0000000000000D+00
   378  3.7700000000000D+00  0.0000000000000D+00  0.0000000000000D+00
   379  3.7800000000000D+00  0.0000000000000D+00  0.0000000000000D+00
   380  3.7900000000000D+00  0.0000000000000D+00  0.0000000000000D+00
   381  3.8000000000000D+00  0.0000000000000D+00  0.0000000000000D+00
   382  3.8100000000000D+00  0.0000000000000D+00  0.0000000000000D+00
   383  3.8200000000000D+00  0.0000000000000D+00  0.0000000000000D+00
   384  3.8300000000000D+00  0.0000000000000D+00  0.0000000000000D+00
   385  3.8400000000000D+00  0.0000000000000D+00  0.0000000000000D+00
   386  3.8500000000000D+00  0.0000000000000D+00  0.0000000000000D+00
   387  3.8600000000000D+00  0.0000000000000D+00  0.0000000000000D+00
   388  3.8700000000000D+00  0.0000000000000D+00  0.0000000000000D+00
   389  3.8800000000000D+00  0.0000000000000D+00  0.0000000000000D+00
   390  3.8900000000000D+00  0.0000000000000D+00  0.0000000000000D+00
   391  3.9000000000000D+00  0.0000000000000D+00  0.0000000000000D+00
   392  3.9100000000000D+00  0.0000000000000D+00  0.0000000000000D+00
   393  3.9200000000000D+00  0.0000000000000D+00  0.0000000000000D+00
   394  3.9300000000000D+00  0.0000000000000D+00  0.0000000000000D+00
   395  3.9400000000000D+00  0.0000000000000D+00  0.0000000000000D+00
   396  3.9500000000000D+00  0.0000000000000D+00  0.0000000000000D+00
   397  3.9600000000000D+00  0.0000000000000D+00  0.0000000000000D+00
   398  3.9700000000000D+00  0.0000000000000D+00  0.0000000000000D+00
   399  3.9800000000000D+00  0.0000000000000D+00  0.0000000000000D+00
   400  3.9900000000000D+00  0.0000000000000D+00  0.0000000000000D+00
   401  4.0000000000000D+00  0.0000000000000D+00  0.0000000000000D+00
   402  4.0100000000000D+00  0.0000000000000D+00  0.0000000000000D+00
   403  4.0200000000000D+00  0.0000000000000D+00  0.0000000000000D+00
   404  4.0300000000000D+00  0.0000000000000D+00  0.0000000000000D+00
   405  4.0400000000000D+00  0.0000000000000D+00  0.0000000000000D+00
   406  4.0500000000000D+00  0.0000000000000D+00  0.0000000000000D+00
   407  4.0600000000000D+00  0.0000000000000D+00  0.0000000000000D+00
   408  4.0700000000000D+00  0.0000000000000D+00  0.0000000000000D+00
   409  4.0800000000000D+00  0.0000000000000D+00  0.0000000000000D+00
   410  4.0900000000000D+00  0.0000000000000D+00  0.0000000000000D+00
   411  4.1000000000000D+00  0.0000000000000D+00  0.0000000000000D+00
   412  4.1100000000000D+00  0.0000000000000D+00  0.0000000000000D+00
   413  4.1200000000000D+00  0.0000000000000D+00  0.0000000000000D+00
   414  4.1300000000000D+00  0.0000000000000D+00  0.0000000000000D+00
   415  4.1400000000000D+00  0.0000000000000D+00  0.0000000000000D+00
   416  4.1500000000000D+00  0.0000000000000D+00  0.0000000000000D+00
   417  4.1600000000000D+00  0.0000000000000D+00  0.0000000000000D+00
   418  4.1700000000000D+00  0.0000000000000D+00  0.0000000000000D+00
   419  4.1800000000000D+00  0.0000000000000D+00  0.0000000000000D+00
   420  4.1900000000000D+00  0.0000000000000D+00  0.0000000000000D+00
   421  4.2000000000000D+00  0.0000000000000D+00  0.0000000000000D+00
   422  4.2100000000000D+00  0.0000000000000D+00  0.0000000000000D+00