Ta    ONCVPSP-3.3.1  r_core=   2.25368   2.17446   2.04856   3.00072
     73.0000     27.0000      210904    zatom,zion,pspd
     8       2   3     4   600     0    pspcod,pspxc,lmax,lloc,mmax,r2well
  5.99000000  0.00000000  0.00000000    rchrg fchrg qchrg
     2     2     2     2     0    nproj
     1     1           extension_switch
   0                         4.2273928399677D+00 -1.2510547898470D-01
     1  0.0000000000000D+00 -6.5358829459683D-13  6.2724547778004D-12
     2  1.0000000000000D-02  5.6594879682593D-02  2.0897551809604D-02
     3  2.0000000000000D-02  1.1310184702268D-01  4.1746139490246D-02
     4  3.0000000000000D-02  1.6943315187615D-01  6.2496926336384D-02
     5  4.0000000000000D-02  2.2550136821193D-01  8.3101330363817D-02
     6  5.0000000000000D-02  2.8121955545929D-01  1.0351115135504D-01
     7  6.0000000000000D-02  3.3650141900463D-01  1.2367869752172D-01
     8  7.0000000000000D-02  3.9126146955476D-01  1.4355691164933D-01
     9  8.0000000000000D-02  4.4541518108478D-01  1.6309949658268D-01
    10  9.0000000000000D-02  4.9887914708899D-01  1.8226103990350D-01
    11  1.0000000000000D-01  5.5157123485477D-01  2.0099713764216D-01
    12  1.1000000000000D-01  6.0341073748028D-01  2.1926451685553D-01
    13  1.2000000000000D-01  6.5431852335846D-01  2.3702115689164D-01
    14  1.3000000000000D-01  7.0421718285153D-01  2.5422640914925D-01
    15  1.4000000000000D-01  7.5303117188224D-01  2.7084111512781D-01
    16  1.5000000000000D-01  8.0068695217036D-01  2.8682772254897D-01
    17  1.6000000000000D-01  8.4711312784560D-01  3.0215039931693D-01
    18  1.7000000000000D-01  8.9224057817136D-01  3.1677514506989D-01
    19  1.8000000000000D-01  9.3600258611661D-01  3.3066990006059D-01
    20  1.9000000000000D-01  9.7833496251777D-01  3.4380465108871D-01
    21  2.0000000000000D-01  1.0191761655760D+00  3.5615153419400D-01
    22  2.1000000000000D-01  1.0584674154407D+00  3.6768493380455D-01
    23  2.2000000000000D-01  1.0961528036345D+00  3.7838157802181D-01
    24  2.3000000000000D-01  1.1321793970822D+00  3.8822062971106D-01
    25  2.4000000000000D-01  1.1664973365105D+00  3.9718377305515D-01
    26  2.5000000000000D-01  1.1990599289948D+00  4.0525529521901D-01
    27  2.6000000000000D-01  1.2298237344338D+00  4.1242216276394D-01
    28  2.7000000000000D-01  1.2587486457446D+00  4.1867409244384D-01
    29  2.8000000000000D-01  1.2857979625767D+00  4.2400361601039D-01
    30  2.9000000000000D-01  1.3109384583541D+00  4.2840613865142D-01
    31  3.0000000000000D-01  1.3341404404660D+00  4.3187999068555D-01
    32  3.1000000000000D-01  1.3553778034351D+00  4.3442647213787D-01
    33  3.2000000000000D-01  1.3746280749069D+00  4.3604988982568D-01
    34  3.3000000000000D-01  1.3918724543136D+00  4.3675758658924D-01
    35  3.4000000000000D-01  1.4070958440817D+00  4.3655996231239D-01
    36  3.5000000000000D-01  1.4202868732624D+00  4.3547048638965D-01
    37  3.6000000000000D-01  1.4314379134835D+00  4.3350570131125D-01
    38  3.7000000000000D-01  1.4405450871324D+00  4.3068521705552D-01
    39  3.8000000000000D-01  1.4476082676985D+00  4.2703169599858D-01
    40  3.9000000000000D-01  1.4526310722179D+00  4.2257082807503D-01
    41  4.0000000000000D-01  1.4556208457821D+00  4.1733129594963D-01
    42  4.1000000000000D-01  1.4565886380901D+00  4.1134472998964D-01
    43  4.2000000000000D-01  1.4555491720392D+00  4.0464565285950D-01
    44  4.3000000000000D-01  1.4525208043738D+00  3.9727141359418D-01
    45  4.4000000000000D-01  1.4475254784242D+00  3.8926211104541D-01
    46  4.5000000000000D-01  1.4405886689936D+00  3.8066050663488D-01
    47  4.6000000000000D-01  1.4317393194674D+00  3.7151192639023D-01
    48  4.7000000000000D-01  1.4210097712410D+00  3.6186415228517D-01
    49  4.8000000000000D-01  1.4084356855828D+00  3.5176730295005D-01
    50  4.9000000000000D-01  1.3940559580701D+00  3.4127370386871D-01
    51  5.0000000000000D-01  1.3779126257564D+00  3.3043774722602D-01
    52  5.1000000000000D-01  1.3600507672493D+00  3.1931574162188D-01
    53  5.2000000000000D-01  1.3405183959010D+00  3.0796575191951D-01
    54  5.3000000000000D-01  1.3193663463300D+00  2.9644742954779D-01
    55  5.4000000000000D-01  1.2966481545197D+00  2.8482183363136D-01
    56  5.5000000000000D-01  1.2724199317527D+00  2.7315124337431D-01
    57  5.6000000000000D-01  1.2467402326661D+00  2.6149896217726D-01
    58  5.7000000000000D-01  1.2196699177273D+00  2.4992911401917D-01
    59  5.8000000000000D-01  1.1912720104526D+00  2.3850643268717D-01
    60  5.9000000000000D-01  1.1616115497071D+00  2.2729604448836D-01
    61  6.0000000000000D-01  1.1307554374415D+00  2.1636324512558D-01
    62  6.1000000000000D-01  1.0987722822411D+00  2.0577327146715D-01
    63  6.2000000000000D-01  1.0657322390739D+00  1.9559106898445D-01
    64  6.3000000000000D-01  1.0317068456432D+00  1.8588105567416D-01
    65  6.4000000000000D-01  9.9676885576128D-01  1.7670688332119D-01
    66  6.5000000000000D-01  9.6099207017520D-01  1.6813119699453D-01
    67  6.6000000000000D-01  9.2445116528543D-01  1.6021539370126D-01
    68  6.7000000000000D-01  8.8722152020968D-01  1.5301938115314D-01
    69  6.8000000000000D-01  8.4937904265161D-01  1.4660133762479D-01
    70  6.9000000000000D-01  8.1099999404246D-01  1.4101747390419D-01
    71  7.0000000000000D-01  7.7216081442846D-01  1.3632179835155D-01
    72  7.1000000000000D-01  7.3293794758201D-01  1.3256588609516D-01
    73  7.2000000000000D-01  6.9340766681656D-01  1.2979865339837D-01
    74  7.3000000000000D-01  6.5364590198652D-01  1.2806613823500D-01
    75  7.4000000000000D-01  6.1372806815288D-01  1.2741128810534D-01
    76  7.5000000000000D-01  5.7372889639275D-01  1.2787375611708D-01
    77  7.6000000000000D-01  5.3372226722712D-01  1.2948970634040D-01
    78  7.7000000000000D-01  4.9378104713545D-01  1.3229162942755D-01
    79  7.8000000000000D-01  4.5397692861824D-01  1.3630816946089D-01
    80  7.9000000000000D-01  4.1438027425951D-01  1.4156396296352D-01
    81  8.0000000000000D-01  3.7505996523031D-01  1.4807949096981D-01
    82  8.1000000000000D-01  3.3608325466197D-01  1.5587094501214D-01
    83  8.2000000000000D-01  2.9751562630346D-01  1.6495010783286D-01
    84  8.3000000000000D-01  2.5942065886155D-01  1.7532424957874D-01
    85  8.4000000000000D-01  2.2185989640510D-01  1.8699604017854D-01
    86  8.5000000000000D-01  1.8489272519583D-01  1.9996347854250D-01
    87  8.6000000000000D-01  1.4857625728784D-01  2.1421983915650D-01
    88  8.7000000000000D-01  1.1296522121626D-01  2.2975363657349D-01
    89  8.8000000000000D-01  7.8111860072320D-02  2.4654860823036D-01
    90  8.9000000000000D-01  4.4065837238182D-02  2.6458371594081D-01
    91  9.0000000000000D-01  1.0874150029151D-02  2.8383316633351D-01
    92  9.1000000000000D-01 -2.1418948535268D-02  3.0426645042091D-01
    93  9.2000000000000D-01 -5.2772019637609D-02  3.2584840239786D-01
    94  9.3000000000000D-01 -8.3146500080201D-02  3.4853927768019D-01
    95  9.4000000000000D-01 -1.1250675507752D-01  3.7229485010418D-01
    96  9.5000000000000D-01 -1.4082012231604D-01  3.9706652811591D-01
    97  9.6000000000000D-01 -1.6805694720421D-01  4.2280148968765D-01
    98  9.7000000000000D-01 -1.9419060926586D-01  4.4944283560690D-01
    99  9.8000000000000D-01 -2.1919753966073D-01  4.7692976069153D-01
   100  9.9000000000000D-01 -2.4305722984676D-01  5.0519774239346D-01
   101  1.0000000000000D+00 -2.6575223142937D-01  5.3417874616450D-01
   102  1.0100000000000D+00 -2.8726814727395D-01  5.6380144686802D-01
   103  1.0200000000000D+00 -3.0759361398716D-01  5.9399146543873D-01
   104  1.0300000000000D+00 -3.2672027590347D-01  6.2467161990621D-01
   105  1.0400000000000D+00 -3.4464275074232D-01  6.5576218982035D-01
   106  1.0500000000000D+00 -3.6135858713003D-01  6.8718119304176D-01
   107  1.0600000000000D+00 -3.7686821420815D-01  7.1884467378844D-01
   108  1.0700000000000D+00 -3.9117488357808D-01  7.5066700076272D-01
   109  1.0800000000000D+00 -4.0428460385486D-01  7.8256117412560D-01
   110  1.0900000000000D+00 -4.1620606813176D-01  8.1443914002300D-01
   111  1.1000000000000D+00 -4.2695057467747D-01  8.4621211132445D-01
   112  1.1100000000000D+00 -4.3653194121212D-01  8.7779089318813D-01
   113  1.1200000000000D+00 -4.4496641312680D-01  9.0908621203253D-01
   114  1.1300000000000D+00 -4.5227256603206D-01  9.4000904646230D-01
   115  1.1400000000000D+00 -4.5847120303797D-01  9.7047095867352D-01
   116  1.1500000000000D+00 -4.6358524718424D-01  1.0003844248503D+00
   117  1.1600000000000D+00 -4.6763962945141D-01  1.0296631630564D+00
   118  1.1700000000000D+00 -4.7066117279783D-01  1.0582224571239D+00
   119  1.1800000000000D+00 -4.7267847267715D-01  1.0859794750491D+00
   120  1.1900000000000D+00 -4.7372177449894D-01  1.1128535804287D+00
   121  1.2000000000000D+00 -4.7382284850016D-01  1.1387666354795D+00
   122  1.2100000000000D+00 -4.7301486250236D-01  1.1636432942259D+00
   123  1.2200000000000D+00 -4.7133225302896D-01  1.1874112844829D+00
   124  1.2300000000000D+00 -4.6881059525801D-01  1.2100016773002D+00
   125  1.2400000000000D+00 -4.6548647228575D-01  1.2313491425810D+00
   126  1.2500000000000D+00 -4.6139734416988D-01  1.2513921896766D+00
   127  1.2600000000000D+00 -4.5658141721565D-01  1.2700733918132D+00
   128  1.2700000000000D+00 -4.5107751396573D-01  1.2873395932498D+00
   129  1.2800000000000D+00 -4.4492494433688D-01  1.3031420982154D+00
   130  1.2900000000000D+00 -4.3816337833775D-01  1.3174368407257D+00
   131  1.3000000000000D+00 -4.3083272079865D-01  1.3301845344220D+00
   132  1.3100000000000D+00 -4.2297298851095D-01  1.3413508017932D+00
   133  1.3200000000000D+00 -4.1462419016966D-01  1.3509062821493D+00
   134  1.3300000000000D+00 -4.0582620950192D-01  1.3588267178071D+00
   135  1.3400000000000D+00 -3.9661869191703D-01  1.3650930181959D+00
   136  1.3500000000000D+00 -3.8704093502512D-01  1.3696913015343D+00
   137  1.3600000000000D+00 -3.7713178333669D-01  1.3726129139228D+00
   138  1.3700000000000D+00 -3.6692952740645D-01  1.3738544259309D+00
   139  1.3800000000000D+00 -3.5647180772302D-01  1.3734176065780D+00
   140  1.3900000000000D+00 -3.4579552355030D-01  1.3713093750733D+00
   141  1.4000000000000D+00 -3.3493674693836D-01  1.3675417306036D+00
   142  1.4100000000000D+00 -3.2393064211757D-01  1.3621316605012D+00
   143  1.4200000000000D+00 -3.1281139038257D-01  1.3551010275781D+00
   144  1.4300000000000D+00 -3.0161212065538D-01  1.3464764370592D+00
   145  1.4400000000000D+00 -2.9036484579168D-01  1.3362890840866D+00
   146  1.4500000000000D+00 -2.7910040471129D-01  1.3245745826616D+00
   147  1.4600000000000D+00 -2.6784841044048D-01  1.3113727769081D+00
   148  1.4700000000000D+00 -2.5663720401188D-01  1.2967275360318D+00
   149  1.4800000000000D+00 -2.4549381431425D-01  1.2806865338474D+00
   150  1.4900000000000D+00 -2.3444392376766D-01  1.2633010144920D+00
   151  1.5000000000000D+00 -2.2351183983174D-01  1.2446255454783D+00
   152  1.5100000000000D+00 -2.1272047223949D-01  1.2247177596534D+00
   153  1.5200000000000D+00 -2.0209131583230D-01  1.2036380876060D+00
   154  1.5300000000000D+00 -1.9164443892434D-01  1.1814494820027D+00
   155  1.5400000000000D+00 -1.8139847694909D-01  1.1582171356837D+00
   156  1.5500000000000D+00 -1.7137063133429D-01  1.1340081949915D+00
   157  1.5600000000000D+00 -1.6157667328427D-01  1.1088914702739D+00
   158  1.5700000000000D+00 -1.5203095237464D-01  1.0829371451476D+00
   159  1.5800000000000D+00 -1.4274640963329D-01  1.0562164864199D+00
   160  1.5900000000000D+00 -1.3373459493602D-01  1.0288015563737D+00
   161  1.6000000000000D+00 -1.2500568840664D-01  1.0007649292591D+00
   162  1.6100000000000D+00 -1.1656852558186D-01  9.7217941371029D-01
   163  1.6200000000000D+00 -1.0843062604172D-01  9.4311778292327D-01
   164  1.6300000000000D+00 -1.0059822521988D-01  9.1365251419653D-01
   165  1.6400000000000D+00 -9.3076309094978D-02  8.8385553971702D-01
   166  1.6500000000000D+00 -8.5868651456227D-02  8.5379800995195D-01
   167  1.6600000000000D+00 -7.8977853433633D-02  8.2355007161460D-01
   168  1.6700000000000D+00 -7.2405384989133D-02  7.9318066122531D-01
   169  1.6800000000000D+00 -6.6151628039342D-02  7.6275731633228D-01
   170  1.6900000000000D+00 -6.0215920929710D-02  7.3234600501182D-01
   171  1.7000000000000D+00 -5.4596603906927D-02  7.0201097578452D-01
   172  1.7100000000000D+00 -4.9291065347252D-02  6.7181462815015D-01
   173  1.7200000000000D+00 -4.4295788366115D-02  6.4181740587880D-01
   174  1.7300000000000D+00 -3.9606397610577D-02  6.1207771288816D-01
   175  1.7400000000000D+00 -3.5217705849673D-02  5.8265185371783D-01
   176  1.7500000000000D+00 -3.1123760203117D-02  5.5359399817179D-01
   177  1.7600000000000D+00 -2.7317887635474D-02  5.2495617182109D-01
   178  1.7700000000000D+00 -2.3792739576696D-02  4.9678827186936D-01
   179  1.7800000000000D+00 -2.0540335343542D-02  4.6913810949665D-01
   180  1.7900000000000D+00 -1.7552104210049D-02  4.4205147837846D-01
   181  1.8000000000000D+00 -1.4818925475352D-02  4.1557225614884D-01
   182  1.8100000000000D+00 -1.2331168331252D-02  3.8974250779630D-01
   183  1.8200000000000D+00 -1.0078727557926D-02  3.6460264908770D-01
   184  1.8300000000000D+00 -8.0510546030316D-03  3.4019167644393D-01
   185  1.8400000000000D+00 -6.2372135328449D-03  3.1654701754580D-01
   186  1.8500000000000D+00 -4.6258862710317D-03  2.9370509661786D-01
   187  1.8600000000000D+00 -3.2053284506850D-03  2.7170274959920D-01
   188  1.8700000000000D+00 -1.9635741276747D-03  2.5057469120977D-01
   189  1.8800000000000D+00 -8.8855340816364D-04  2.3035227234027D-01
   190  1.8900000000000D+00  3.1770852448276D-05  2.1106224357413D-01
   191  1.9000000000000D+00  8.0921142023935D-04  1.9272466104527D-01
   192  1.9100000000000D+00  1.4552765491066D-03  1.7535250702803D-01
   193  1.9200000000000D+00  1.9811795268992D-03  1.5895272176797D-01
   194  1.9300000000000D+00  2.3978195112817D-03  1.4352678191841D-01
   195  1.9400000000000D+00  2.7157222771726D-03  1.2907051927378D-01
   196  1.9500000000000D+00  2.9450270204879D-03  1.1557468030153D-01
   197  1.9600000000000D+00  3.0954577524770D-03  1.0302518148014D-01
   198  1.9700000000000D+00  3.1763040335096D-03  9.1403476649786D-02
   199  1.9800000000000D+00  3.1964039702411D-03  8.0686916297464D-02
   200  1.9900000000000D+00  3.1641302494186D-03  7.0849114669925D-02
   201  2.0000000000000D+00  3.0873790571238D-03  6.1860322809825D-02
   202  2.0100000000000D+00  2.9735618724826D-03  5.3687805869284D-02
   203  2.0200000000000D+00  2.8295997024723D-03  4.6296222690599D-02
   204  2.0300000000000D+00  2.6619198588079D-03  3.9648005438299D-02
   205  2.0400000000000D+00  2.4764548702989D-03  3.3703738069804D-02
   206  2.0500000000000D+00  2.2786434491219D-03  2.8422531012676D-02
   207  2.0600000000000D+00  2.0734333006389D-03  2.3762390453151D-02
   208  2.0700000000000D+00  1.8652855759086D-03  1.9680581240246D-02
   209  2.0800000000000D+00  1.6581807360259D-03  1.6133979471714D-02
   210  2.0900000000000D+00  1.4556257444729D-03  1.3079416147674D-02
   211  2.1000000000000D+00  1.2606622455351D-03  1.0474007162473D-02
   212  2.1100000000000D+00  1.0758756439503D-03  8.2754697498733D-03
   213  2.1200000000000D+00  9.0340496790365D-04  6.4424247245155D-03
   214  2.1300000000000D+00  7.4495305309573D-04  4.9346793771089D-03
   215  2.1400000000000D+00  6.0179733601854D-04  3.7134952268793D-03
   216  2.1500000000000D+00  4.7480063733897D-04  2.7418341040695D-03
   217  2.1600000000000D+00  3.6442201319393D-04  1.9845839675829D-03
   218  2.1700000000000D+00  2.7072773852113D-04  1.4087655344568D-03
   219  2.1800000000000D+00  1.9339602875957D-04  9.8392825171689D-04
   220  2.1900000000000D+00  1.3174596914867D-04  6.8159940880436D-04
   221  2.2000000000000D+00  8.4738188205809D-05  4.7576796891319D-04
   222  2.2100000000000D+00  5.0860621779033D-05  3.4132299194660D-04
   223  2.2200000000000D+00  2.8557678834120D-05  2.6408228533371D-04
   224  2.2300000000000D+00  1.5955411501389D-05  2.3155427389004D-04
   225  2.2400000000000D+00  1.0529798826092D-05  2.2612323306574D-04
   226  2.2500000000000D+00  8.4516980506411D-06  2.1228479038178D-04
   227  2.2600000000000D+00  6.1869152585027D-06  1.5878392755560D-04
   228  2.2700000000000D+00  3.0757335421715D-06  7.7950352151926D-05
   229  2.2800000000000D+00  1.7461891329346D-07  4.3033757142243D-06
   230  2.2900000000000D+00 -7.3701989549838D-07 -2.0394683083892D-05
   231  2.3000000000000D+00 -5.2686794798019D-07 -1.4592502835305D-05
   232  2.3100000000000D+00  4.2933480733278D-08  1.2571427089323D-06
   233  2.3200000000000D+00  1.5823546584992D-07  4.6761469454815D-06
   234  2.3300000000000D+00  8.7739890479839D-08  2.6125783519025D-06
   235  2.3400000000000D+00 -1.1525266788249D-08 -2.9160759924017D-07
   236  2.3500000000000D+00 -2.2328990245380D-08 -5.6495900342638D-07
   237  2.3600000000000D+00 -8.7972191458001D-09 -2.2258365053310D-07
   238  2.3700000000000D+00  0.0000000000000D+00  0.0000000000000D+00
   239  2.3800000000000D+00  0.0000000000000D+00  0.0000000000000D+00
   240  2.3900000000000D+00  0.0000000000000D+00  0.0000000000000D+00
   241  2.4000000000000D+00  0.0000000000000D+00  0.0000000000000D+00
   242  2.4100000000000D+00  0.0000000000000D+00  0.0000000000000D+00
   243  2.4200000000000D+00  0.0000000000000D+00  0.0000000000000D+00
   244  2.4300000000000D+00  0.0000000000000D+00  0.0000000000000D+00
   245  2.4400000000000D+00  0.0000000000000D+00  0.0000000000000D+00
   246  2.4500000000000D+00  0.0000000000000D+00  0.0000000000000D+00
   247  2.4600000000000D+00  0.0000000000000D+00  0.0000000000000D+00
   248  2.4700000000000D+00  0.0000000000000D+00  0.0000000000000D+00
   249  2.4800000000000D+00  0.0000000000000D+00  0.0000000000000D+00
   250  2.4900000000000D+00  0.0000000000000D+00  0.0000000000000D+00
   251  2.5000000000000D+00  0.0000000000000D+00  0.0000000000000D+00
   252  2.5100000000000D+00  0.0000000000000D+00  0.0000000000000D+00
   253  2.5200000000000D+00  0.0000000000000D+00  0.0000000000000D+00
   254  2.5300000000000D+00  0.0000000000000D+00  0.0000000000000D+00
   255  2.5400000000000D+00  0.0000000000000D+00  0.0000000000000D+00
   256  2.5500000000000D+00  0.0000000000000D+00  0.0000000000000D+00
   257  2.5600000000000D+00  0.0000000000000D+00  0.0000000000000D+00
   258  2.5700000000000D+00  0.0000000000000D+00  0.0000000000000D+00
   259  2.5800000000000D+00  0.0000000000000D+00  0.0000000000000D+00
   260  2.5900000000000D+00  0.0000000000000D+00  0.0000000000000D+00
   261  2.6000000000000D+00  0.0000000000000D+00  0.0000000000000D+00
   262  2.6100000000000D+00  0.0000000000000D+00  0.0000000000000D+00
   263  2.6200000000000D+00  0.0000000000000D+00  0.0000000000000D+00
   264  2.6300000000000D+00  0.0000000000000D+00  0.0000000000000D+00
   265  2.6400000000000D+00  0.0000000000000D+00  0.0000000000000D+00
   266  2.6500000000000D+00  0.0000000000000D+00  0.0000000000000D+00
   267  2.6600000000000D+00  0.0000000000000D+00  0.0000000000000D+00
   268  2.6700000000000D+00  0.0000000000000D+00  0.0000000000000D+00
   269  2.6800000000000D+00  0.0000000000000D+00  0.0000000000000D+00
   270  2.6900000000000D+00  0.0000000000000D+00  0.0000000000000D+00
   271  2.7000000000000D+00  0.0000000000000D+00  0.0000000000000D+00
   272  2.7100000000000D+00  0.0000000000000D+00  0.0000000000000D+00
   273  2.7200000000000D+00  0.0000000000000D+00  0.0000000000000D+00
   274  2.7300000000000D+00  0.0000000000000D+00  0.0000000000000D+00
   275  2.7400000000000D+00  0.0000000000000D+00  0.0000000000000D+00
   276  2.7500000000000D+00  0.0000000000000D+00  0.0000000000000D+00
   277  2.7600000000000D+00  0.0000000000000D+00  0.0000000000000D+00
   278  2.7700000000000D+00  0.0000000000000D+00  0.0000000000000D+00
   279  2.7800000000000D+00  0.0000000000000D+00  0.0000000000000D+00
   280  2.7900000000000D+00  0.0000000000000D+00  0.0000000000000D+00
   281  2.8000000000000D+00  0.0000000000000D+00  0.0000000000000D+00
   282  2.8100000000000D+00  0.0000000000000D+00  0.0000000000000D+00
   283  2.8200000000000D+00  0.0000000000000D+00  0.0000000000000D+00
   284  2.8300000000000D+00  0.0000000000000D+00  0.0000000000000D+00
   285  2.8400000000000D+00  0.0000000000000D+00  0.0000000000000D+00
   286  2.8500000000000D+00  0.0000000000000D+00  0.0000000000000D+00
   287  2.8600000000000D+00  0.0000000000000D+00  0.0000000000000D+00
   288  2.8700000000000D+00  0.0000000000000D+00  0.0000000000000D+00
   289  2.8800000000000D+00  0.0000000000000D+00  0.0000000000000D+00
   290  2.8900000000000D+00  0.0000000000000D+00  0.0000000000000D+00
   291  2.9000000000000D+00  0.0000000000000D+00  0.0000000000000D+00
   292  2.9100000000000D+00  0.0000000000000D+00  0.0000000000000D+00
   293  2.9200000000000D+00  0.0000000000000D+00  0.0000000000000D+00
   294  2.9300000000000D+00  0.0000000000000D+00  0.0000000000000D+00
   295  2.9400000000000D+00  0.0000000000000D+00  0.0000000000000D+00
   296  2.9500000000000D+00  0.0000000000000D+00  0.0000000000000D+00
   297  2.9600000000000D+00  0.0000000000000D+00  0.0000000000000D+00
   298  2.9700000000000D+00  0.0000000000000D+00  0.0000000000000D+00
   299  2.9800000000000D+00  0.0000000000000D+00  0.0000000000000D+00
   300  2.9900000000000D+00  0.0000000000000D+00  0.0000000000000D+00
   301  3.0000000000000D+00  0.0000000000000D+00  0.0000000000000D+00
   302  3.0100000000000D+00  0.0000000000000D+00  0.0000000000000D+00
   303  3.0200000000000D+00  0.0000000000000D+00  0.0000000000000D+00
   304  3.0300000000000D+00  0.0000000000000D+00  0.0000000000000D+00
   305  3.0400000000000D+00  0.0000000000000D+00  0.0000000000000D+00
   306  3.0500000000000D+00  0.0000000000000D+00  0.0000000000000D+00
   307  3.0600000000000D+00  0.0000000000000D+00  0.0000000000000D+00
   308  3.0700000000000D+00  0.0000000000000D+00  0.0000000000000D+00
   309  3.0800000000000D+00  0.0000000000000D+00  0.0000000000000D+00
   310  3.0900000000000D+00  0.0000000000000D+00  0.0000000000000D+00
   311  3.1000000000000D+00  0.0000000000000D+00  0.0000000000000D+00
   312  3.1100000000000D+00  0.0000000000000D+00  0.0000000000000D+00
   313  3.1200000000000D+00  0.0000000000000D+00  0.0000000000000D+00
   314  3.1300000000000D+00  0.0000000000000D+00  0.0000000000000D+00
   315  3.1400000000000D+00  0.0000000000000D+00  0.0000000000000D+00
   316  3.1500000000000D+00  0.0000000000000D+00  0.0000000000000D+00
   317  3.1600000000000D+00  0.0000000000000D+00  0.0000000000000D+00
   318  3.1700000000000D+00  0.0000000000000D+00  0.0000000000000D+00
   319  3.1800000000000D+00  0.0000000000000D+00  0.0000000000000D+00
   320  3.1900000000000D+00  0.0000000000000D+00  0.0000000000000D+00
   321  3.2000000000000D+00  0.0000000000000D+00  0.0000000000000D+00
   322  3.2100000000000D+00  0.0000000000000D+00  0.0000000000000D+00
   323  3.2200000000000D+00  0.0000000000000D+00  0.0000000000000D+00
   324  3.2300000000000D+00  0.0000000000000D+00  0.0000000000000D+00
   325  3.2400000000000D+00  0.0000000000000D+00  0.0000000000000D+00
   326  3.2500000000000D+00  0.0000000000000D+00  0.0000000000000D+00
   327  3.2600000000000D+00  0.0000000000000D+00  0.0000000000000D+00
   328  3.2700000000000D+00  0.0000000000000D+00  0.0000000000000D+00
   329  3.2800000000000D+00  0.0000000000000D+00  0.0000000000000D+00
   330  3.2900000000000D+00  0.0000000000000D+00  0.0000000000000D+00
   331  3.3000000000000D+00  0.0000000000000D+00  0.0000000000000D+00
   332  3.3100000000000D+00  0.0000000000000D+00  0.0000000000000D+00
   333  3.3200000000000D+00  0.0000000000000D+00  0.0000000000000D+00
   334  3.3300000000000D+00  0.0000000000000D+00  0.0000000000000D+00
   335  3.3400000000000D+00  0.0000000000000D+00  0.0000000000000D+00
   336  3.3500000000000D+00  0.0000000000000D+00  0.0000000000000D+00
   337  3.3600000000000D+00  0.0000000000000D+00  0.0000000000000D+00
   338  3.3700000000000D+00  0.0000000000000D+00  0.0000000000000D+00
   339  3.3800000000000D+00  0.0000000000000D+00  0.0000000000000D+00
   340  3.3900000000000D+00  0.0000000000000D+00  0.0000000000000D+00
   341  3.4000000000000D+00  0.0000000000000D+00  0.0000000000000D+00
   342  3.4100000000000D+00  0.0000000000000D+00  0.0000000000000D+00
   343  3.4200000000000D+00  0.0000000000000D+00  0.0000000000000D+00
   344  3.4300000000000D+00  0.0000000000000D+00  0.0000000000000D+00
   345  3.4400000000000D+00  0.0000000000000D+00  0.0000000000000D+00
   346  3.4500000000000D+00  0.0000000000000D+00  0.0000000000000D+00
   347  3.4600000000000D+00  0.0000000000000D+00  0.0000000000000D+00
   348  3.4700000000000D+00  0.0000000000000D+00  0.0000000000000D+00
   349  3.4800000000000D+00  0.0000000000000D+00  0.0000000000000D+00
   350  3.4900000000000D+00  0.0000000000000D+00  0.0000000000000D+00
   351  3.5000000000000D+00  0.0000000000000D+00  0.0000000000000D+00
   352  3.5100000000000D+00  0.0000000000000D+00  0.0000000000000D+00
   353  3.5200000000000D+00  0.0000000000000D+00  0.0000000000000D+00
   354  3.5300000000000D+00  0.0000000000000D+00  0.0000000000000D+00
   355  3.5400000000000D+00  0.0000000000000D+00  0.0000000000000D+00
   356  3.5500000000000D+00  0.0000000000000D+00  0.0000000000000D+00
   357  3.5600000000000D+00  0.0000000000000D+00  0.0000000000000D+00
   358  3.5700000000000D+00  0.0000000000000D+00  0.0000000000000D+00
   359  3.5800000000000D+00  0.0000000000000D+00  0.0000000000000D+00
   360  3.5900000000000D+00  0.0000000000000D+00  0.0000000000000D+00
   361  3.6000000000000D+00  0.0000000000000D+00  0.0000000000000D+00
   362  3.6100000000000D+00  0.0000000000000D+00  0.0000000000000D+00
   363  3.6200000000000D+00  0.0000000000000D+00  0.0000000000000D+00
   364  3.6300000000000D+00  0.0000000000000D+00  0.0000000000000D+00
   365  3.6400000000000D+00  0.0000000000000D+00  0.0000000000000D+00
   366  3.6500000000000D+00  0.0000000000000D+00  0.0000000000000D+00
   367  3.6600000000000D+00  0.0000000000000D+00  0.0000000000000D+00
   368  3.6700000000000D+00  0.0000000000000D+00  0.0000000000000D+00
   369  3.6800000000000D+00  0.0000000000000D+00  0.0000000000000D+00
   370  3.6900000000000D+00  0.0000000000000D+00  0.0000000000000D+00
   371  3.7000000000000D+00  0.0000000000000D+00  0.0000000000000D+00
   372  3.7100000000000D+00  0.0000000000000D+00  0.0000000000000D+00
   373  3.7200000000000D+00  0.0000000000000D+00  0.0000000000000D+00
   374  3.7300000000000D+00  0.0000000000000D+00  0.0000000000000D+00
   375  3.7400000000000D+00  0.0000000000000D+00  0.0000000000000D+00
   376  3.7500000000000D+00  0.0000000000000D+00  0.0000000000000D+00
   377  3.7600000000000D+00  0.0000000000000D+00  0.0000000000000D+00
   378  3.7700000000000D+00  0.0000000000000D+00  0.0000000000000D+00
   379  3.7800000000000D+00  0.0000000000000D+00  0.0000000000000D+00
   380  3.7900000000000D+00  0.0000000000000D+00  0.0000000000000D+00
   381  3.8000000000000D+00  0.0000000000000D+00  0.0000000000000D+00
   382  3.8100000000000D+00  0.0000000000000D+00  0.0000000000000D+00
   383  3.8200000000000D+00  0.0000000000000D+00  0.0000000000000D+00
   384  3.8300000000000D+00  0.0000000000000D+00  0.0000000000000D+00
   385  3.8400000000000D+00  0.0000000000000D+00  0.0000000000000D+00
   386  3.8500000000000D+00  0.0000000000000D+00  0.0000000000000D+00
   387  3.8600000000000D+00  0.0000000000000D+00  0.0000000000000D+00
   388  3.8700000000000D+00  0.0000000000000D+00  0.0000000000000D+00
   389  3.8800000000000D+00  0.0000000000000D+00  0.0000000000000D+00
   390  3.8900000000000D+00  0.0000000000000D+00  0.0000000000000D+00
   391  3.9000000000000D+00  0.0000000000000D+00  0.0000000000000D+00
   392  3.9100000000000D+00  0.0000000000000D+00  0.0000000000000D+00
   393  3.9200000000000D+00  0.0000000000000D+00  0.0000000000000D+00
   394  3.9300000000000D+00  0.0000000000000D+00  0.0000000000000D+00
   395  3.9400000000000D+00  0.0000000000000D+00  0.0000000000000D+00
   396  3.9500000000000D+00  0.0000000000000D+00  0.0000000000000D+00
   397  3.9600000000000D+00  0.0000000000000D+00  0.0000000000000D+00
   398  3.9700000000000D+00  0.0000000000000D+00  0.0000000000000D+00
   399  3.9800000000000D+00  0.0000000000000D+00  0.0000000000000D+00
   400  3.9900000000000D+00  0.0000000000000D+00  0.0000000000000D+00
   401  4.0000000000000D+00  0.0000000000000D+00  0.0000000000000D+00
   402  4.0100000000000D+00  0.0000000000000D+00  0.0000000000000D+00
   403  4.0200000000000D+00  0.0000000000000D+00  0.0000000000000D+00
   404  4.0300000000000D+00  0.0000000000000D+00  0.0000000000000D+00
   405  4.0400000000000D+00  0.0000000000000D+00  0.0000000000000D+00
   406  4.0500000000000D+00  0.0000000000000D+00  0.0000000000000D+00
   407  4.0600000000000D+00  0.0000000000000D+00  0.0000000000000D+00
   408  4.0700000000000D+00  0.0000000000000D+00  0.0000000000000D+00
   409  4.0800000000000D+00  0.0000000000000D+00  0.0000000000000D+00
   410  4.0900000000000D+00  0.0000000000000D+00  0.0000000000000D+00
   411  4.1000000000000D+00  0.0000000000000D+00  0.0000000000000D+00
   412  4.1100000000000D+00  0.0000000000000D+00  0.0000000000000D+00
   413  4.1200000000000D+00  0.0000000000000D+00  0.0000000000000D+00
   414  4.1300000000000D+00  0.0000000000000D+00  0.0000000000000D+00
   415  4.1400000000000D+00  0.0000000000000D+00  0.0000000000000D+00
   416  4.1500000000000D+00  0.0000000000000D+00  0.0000000000000D+00
   417  4.1600000000000D+00  0.0000000000000D+00  0.0000000000000D+00
   418  4.1700000000000D+00  0.0000000000000D+00  0.0000000000000D+00
   419  4.1800000000000D+00  0.0000000000000D+00  0.0000000000000D+00
   420  4.1900000000000D+00  0.0000000000000D+00  0.0000000000000D+00
   421  4.2000000000000D+00  0.0000000000000D+00  0.0000000000000D+00
   422  4.2100000000000D+00  0.0000000000000D+00  0.0000000000000D+00