Te    ONCVPSP-3.3.1  r_core=   2.49231   3.16383   2.80807
     52.0000     16.0000      210904    zatom,zion,pspd
     8       2   2     4   600     0    pspcod,pspxc,lmax,lloc,mmax,r2well
  5.99000000  0.00000000  0.00000000    rchrg fchrg qchrg
     2     2     2     0     0    nproj
     1     1           extension_switch
   0                         6.3192228734445D+00  1.3957962284773D+00
     1  0.0000000000000D+00  3.6113334545007D-12 -2.1523616222652D-11
     2  1.0000000000000D-02  1.1921008967755D-02  2.4751341124280D-02
     3  2.0000000000000D-02  2.3869795995424D-02  4.9391416468267D-02
     4  3.0000000000000D-02  3.5874022958820D-02  7.3809409888456D-02
     5  4.0000000000000D-02  4.7961119719805D-02  9.7895402866287D-02
     6  5.0000000000000D-02  6.0158169004042D-02  1.2154081920447D-01
     7  6.0000000000000D-02  7.2491792337866D-02  1.4463886479909D-01
     8  7.0000000000000D-02  8.4988037393100D-02  1.6708496087126D-01
     9  8.0000000000000D-02  9.7672267084996D-02  1.8877716906379D-01
    10  9.0000000000000D-02  1.1056905076397D-01  2.0961660683484D-01
    11  1.0000000000000D-01  1.2370205783641D-01  2.2950785161296D-01
    12  1.1000000000000D-01  1.3709395414358D-01  2.4835933221483D-01
    13  1.2000000000000D-01  1.5076630142033D-01  2.6608370606938D-01
    14  1.3000000000000D-01  1.6473946014763D-01  2.8259822083903D-01
    15  1.4000000000000D-01  1.7903249610367D-01  2.9782505908101D-01
    16  1.5000000000000D-01  1.9366309090891D-01  3.1169166464829D-01
    17  1.6000000000000D-01  2.0864745684984D-01  3.2413104959083D-01
    18  1.7000000000000D-01  2.2400025625481D-01  3.3508208038379D-01
    19  1.8000000000000D-01  2.3973452568326D-01  3.4448974237891D-01
    20  1.9000000000000D-01  2.5586160517691D-01  3.5230538144944D-01
    21  2.0000000000000D-01  2.7239107280779D-01  3.5848692187650D-01
    22  2.1000000000000D-01  2.8933068474359D-01  3.6299905960642D-01
    23  2.2000000000000D-01  3.0668632103606D-01  3.6581343009306D-01
    24  2.3000000000000D-01  3.2446193732234D-01  3.6690875002730D-01
    25  2.4000000000000D-01  3.4265952261293D-01  3.6627093234656D-01
    26  2.5000000000000D-01  3.6127906332305D-01  3.6389317401082D-01
    27  2.6000000000000D-01  3.8031851368692D-01  3.5977601612727D-01
    28  2.7000000000000D-01  3.9977377267627D-01  3.5392737610385D-01
    29  2.8000000000000D-01  4.1963866752614D-01  3.4636255161153D-01
    30  2.9000000000000D-01  4.3990494395227D-01  3.3710419623633D-01
    31  3.0000000000000D-01  4.6056226312473D-01  3.2618226680432D-01
    32  3.1000000000000D-01  4.8159820544335D-01  3.1363394246626D-01
    33  3.2000000000000D-01  5.0299828114024D-01  2.9950351573161D-01
    34  3.3000000000000D-01  5.2474594771452D-01  2.8384225574590D-01
    35  3.4000000000000D-01  5.4682263418432D-01  2.6670824420846D-01
    36  3.5000000000000D-01  5.6920777212037D-01  2.4816618443072D-01
    37  3.6000000000000D-01  5.9187883340476D-01  2.2828718413690D-01
    38  3.7000000000000D-01  6.1481137463836D-01  2.0714851270979D-01
    39  3.8000000000000D-01  6.3797908809909D-01  1.8483333368297D-01
    40  3.9000000000000D-01  6.6135385913332D-01  1.6143041337744D-01
    41  4.0000000000000D-01  6.8490582984192D-01  1.3703380667556D-01
    42  4.1000000000000D-01  7.0860346890255D-01  1.1174252101573D-01
    43  4.2000000000000D-01  7.3241364734971D-01  8.5660159780426D-02
    44  4.3000000000000D-01  7.5630172011482D-01  5.8894546334167D-02
    45  4.4000000000000D-01  7.8023161310902D-01  3.1557330049148D-02
    46  4.5000000000000D-01  8.0416591561327D-01  3.7635757325224D-03
    47  4.6000000000000D-01  8.2806597772160D-01 -2.4368662058856D-02
    48  4.7000000000000D-01  8.5189201256640D-01 -5.2718778263592D-02
    49  4.8000000000000D-01  8.7560320303733D-01 -8.1164068506643D-02
    50  4.9000000000000D-01  8.9915781268951D-01 -1.0958019056593D-01
    51  5.0000000000000D-01  9.2251330052127D-01 -1.3784163439454D-01
    52  5.1000000000000D-01  9.4562643928724D-01 -1.6582219893460D-01
    53  5.2000000000000D-01  9.6845343699888D-01 -1.9339547392152D-01
    54  5.3000000000000D-01  9.9095006125216D-01 -2.2043532484641D-01
    55  5.4000000000000D-01  1.0130717660103D+00 -2.4681637922078D-01
    56  5.5000000000000D-01  1.0347738204589D+00 -2.7241451227041D-01
    57  5.6000000000000D-01  1.0560114395419D+00 -2.9710733017621D-01
    58  5.7000000000000D-01  1.0767399157783D+00 -3.2077464897702D-01
    59  5.8000000000000D-01  1.0969147519516D+00 -3.4329896725472D-01
    60  5.9000000000000D-01  1.1164917942606D+00 -3.6456593073485D-01
    61  6.0000000000000D-01  1.1354273655139D+00 -3.8446478695576D-01
    62  6.1000000000000D-01  1.1536783979467D+00 -4.0288882818760D-01
    63  6.2000000000000D-01  1.1712025652399D+00 -4.1973582081747D-01
    64  6.3000000000000D-01  1.1879584133175D+00 -4.3490841946020D-01
    65  6.4000000000000D-01  1.2039054895017D+00 -4.4831456410432D-01
    66  6.5000000000000D-01  1.2190044696075D+00 -4.5986785866058D-01
    67  6.6000000000000D-01  1.2332172825606D+00 -4.6948792934513D-01
    68  6.7000000000000D-01  1.2465072321307D+00 -4.7710076140081D-01
    69  6.8000000000000D-01  1.2588391153765D+00 -4.8263901273908D-01
    70  6.9000000000000D-01  1.2701793374076D+00 -4.8604230316948D-01
    71  7.0000000000000D-01  1.2804960220803D+00 -4.8725747797494D-01
    72  7.1000000000000D-01  1.2897591182505D+00 -4.8623884468798D-01
    73  7.2000000000000D-01  1.2979405012257D+00 -4.8294838202564D-01
    74  7.3000000000000D-01  1.3050140690648D+00 -4.7735592004827D-01
    75  7.4000000000000D-01  1.3109558333958D+00 -4.6943929071996D-01
    76  7.5000000000000D-01  1.3157440044332D+00 -4.5918444816475D-01
    77  7.6000000000000D-01  1.3193590698970D+00 -4.4658555803312D-01
    78  7.7000000000000D-01  1.3217838675528D+00 -4.3164505551746D-01
    79  7.8000000000000D-01  1.3230036511116D+00 -4.1437367168121D-01
    80  7.9000000000000D-01  1.3230061492511D+00 -3.9479042789551D-01
    81  8.0000000000000D-01  1.3217816175391D+00 -3.7292259830780D-01
    82  8.1000000000000D-01  1.3193228830642D+00 -3.4880564039826D-01
    83  8.2000000000000D-01  1.3156253816024D+00 -3.2248309381249D-01
    84  8.3000000000000D-01  1.3106871871714D+00 -2.9400644779120D-01
    85  8.4000000000000D-01  1.3045090338497D+00 -2.6343497764916D-01
    86  8.5000000000000D-01  1.2970943297648D+00 -2.3083555088640D-01
    87  8.6000000000000D-01  1.2884491631769D+00 -1.9628240364327D-01
    88  8.7000000000000D-01  1.2785823006159D+00 -1.5985688833724D-01
    89  8.8000000000000D-01  1.2675051770510D+00 -1.2164719344294D-01
    90  8.9000000000000D-01  1.2552318781032D+00 -8.1748036496371D-02
    91  9.0000000000000D-01  1.2417791143349D+00 -4.0260331520102D-02
    92  9.1000000000000D-01  1.2271661876805D+00  2.7091678227906D-03
    93  9.2000000000000D-01  1.2114149501051D+00  4.7048247932790D-02
    94  9.3000000000000D-01  1.1945497546091D+00  9.2639636322614D-02
    95  9.4000000000000D-01  1.1765973987188D+00  1.3936142240354D-01
    96  9.5000000000000D-01  1.1575870606326D+00  1.8708749631553D-01
    97  9.6000000000000D-01  1.1375502282142D+00  2.3568800402756D-01
    98  9.7000000000000D-01  1.1165206210512D+00  2.8502981686240D-01
    99  9.8000000000000D-01  1.0945341058220D+00  3.3497701353565D-01
   100  9.9000000000000D-01  1.0716286052327D+00  3.8539137274413D-01
   101  1.0000000000000D+00  1.0478440008153D+00  4.3613287428996D-01
   102  1.0100000000000D+00  1.0232220298912D+00  4.8706020668936D-01
   103  1.0200000000000D+00  9.9780617703187D-01  5.3803127918593D-01
   104  1.0300000000000D+00  9.7164156036210D-01  5.8890373606790D-01
   105  1.0400000000000D+00  9.4477481307173D-01  6.3953547117884D-01
   106  1.0500000000000D+00  9.1725396051754D-01  6.8978514051055D-01
   107  1.0600000000000D+00  8.8912829331150D-01  7.3951267077410D-01
   108  1.0700000000000D+00  8.6044823680633D-01  7.8857976186516D-01
   109  1.0800000000000D+00  8.3126521740030D-01  8.3685038116550D-01
   110  1.0900000000000D+00  8.0163152609483D-01  8.8419124766210D-01
   111  1.1000000000000D+00  7.7160017974646D-01  9.3047230390955D-01
   112  1.1100000000000D+00  7.4122478046289D-01  9.7556717391501D-01
   113  1.1200000000000D+00  7.1055937359856D-01  1.0193536050942D+00
   114  1.1300000000000D+00  6.7965830480896D-01  1.0617138925160D+00
   115  1.1400000000000D+00  6.4857607662520D-01  1.1025352837389D+00
   116  1.1500000000000D+00  6.1736720501179D-01  1.1417103626157D+00
   117  1.1600000000000D+00  5.8608607636917D-01  1.1791374105607D+00
   118  1.1700000000000D+00  5.5478680543964D-01  1.2147207438662D+00
   119  1.1800000000000D+00  5.2352309457115D-01  1.2483710257620D+00
   120  1.1900000000000D+00  4.9234809478894D-01  1.2800055520199D+00
   121  1.2000000000000D+00  4.6131426911533D-01  1.3095485090452D+00
   122  1.2100000000000D+00  4.3047325856815D-01  1.3369312035287D+00
   123  1.2200000000000D+00  3.9987575126317D-01  1.3620922627995D+00
   124  1.2300000000000D+00  3.6957135502734D-01  1.3849778052338D+00
   125  1.2400000000000D+00  3.3960847391692D-01  1.4055415801814D+00
   126  1.2500000000000D+00  3.1003418902507D-01  1.4237450769685D+00
   127  1.2600000000000D+00  2.8089414394319D-01  1.4395576027179D+00
   128  1.2700000000000D+00  2.5223243521839D-01  1.4529563288919D+00
   129  1.2800000000000D+00  2.2409150814078D-01  1.4639263065246D+00
   130  1.2900000000000D+00  1.9651205817123D-01  1.4724604502944D+00
   131  1.3000000000000D+00  1.6953293828814D-01  1.4785594917788D+00
   132  1.3100000000000D+00  1.4319107253042D-01  1.4822319022493D+00
   133  1.3200000000000D+00  1.1752137598086D-01  1.4834937855736D+00
   134  1.3300000000000D+00  9.2556681396720D-02  1.4823687419814D+00
   135  1.3400000000000D+00  6.8327672707260D-02  1.4788877033901D+00
   136  1.3500000000000D+00  4.4862825539824D-02  1.4730887412952D+00
   137  1.3600000000000D+00  2.2188354911531D-02  1.4650168483062D+00
   138  1.3700000000000D+00  3.2817024549910D-04  1.4547236943493D+00
   139  1.3800000000000D+00 -2.0696162227092D-02  1.4422673589519D+00
   140  1.3900000000000D+00 -4.0865449585173D-02  1.4277120408705D+00
   141  1.4000000000000D+00 -6.0162894796585D-02  1.4111277464969D+00
   142  1.4100000000000D+00 -7.8574111771560D-02  1.3925899586639D+00
   143  1.4200000000000D+00 -9.6087132838523D-02  1.3721792873040D+00
   144  1.4300000000000D+00 -1.1269240871221D-01  1.3499811037501D+00
   145  1.4400000000000D+00 -1.2838280098490D-01  1.3260851603222D+00
   146  1.4500000000000D+00 -1.4315356719427D-01  1.3005851969640D+00
   147  1.4600000000000D+00 -1.5700233861601D-01  1.2735785367716D+00
   148  1.4700000000000D+00 -1.6992909082318D-01  1.2451656721726D+00
   149  1.4800000000000D+00 -1.8193610722615D-01  1.2154498436598D+00
   150  1.4900000000000D+00 -1.9302793569725D-01  1.1845366128785D+00
   151  1.5000000000000D+00 -2.0321133848262D-01  1.1525334319642D+00
   152  1.5100000000000D+00 -2.1249523560690D-01  1.1195492108945D+00
   153  1.5200000000000D+00 -2.2089064194644D-01  1.0856938847958D+00
   154  1.5300000000000D+00 -2.2841059826712D-01  1.0510779827919D+00
   155  1.5400000000000D+00 -2.3507009639127D-01  1.0158122004156D+00
   156  1.5500000000000D+00 -2.4088599883832D-01  9.8000697696542D-01
   157  1.5600000000000D+00 -2.4587695313864D-01  9.4377207976692D-01
   158  1.5700000000000D+00 -2.5006330116189D-01  9.0721619664754D-01
   159  1.5800000000000D+00 -2.5346698371509D-01  8.7044653832828D-01
   160  1.5900000000000D+00 -2.5611144073856D-01  8.3356845207011D-01
   161  1.6000000000000D+00 -2.5802150739812D-01  7.9668504788911D-01
   162  1.6100000000000D+00 -2.5922330639539D-01  7.5989683876400D-01
   163  1.6200000000000D+00 -2.5974413681798D-01  7.2330139566993D-01
   164  1.6300000000000D+00 -2.5961235985482D-01  6.8699301897627D-01
   165  1.6400000000000D+00 -2.5885728170154D-01  6.5106242650797D-01
   166  1.6500000000000D+00 -2.5750903399357D-01  6.1559645992178D-01
   167  1.6600000000000D+00 -2.5559845207617D-01  5.8067780914837D-01
   168  1.6700000000000D+00 -2.5315695146892D-01  5.4638475663429D-01
   169  1.6800000000000D+00 -2.5021640280214D-01  5.1279094061280D-01
   170  1.6900000000000D+00 -2.4680900560665D-01  4.7996513915994D-01
   171  1.7000000000000D+00 -2.4296716119145D-01  4.4797107380827D-01
   172  1.7100000000000D+00 -2.3872334501403D-01  4.1686723440961D-01
   173  1.7200000000000D+00 -2.3410997872946D-01  3.8670672366611D-01
   174  1.7300000000000D+00 -2.2915930234034D-01  3.5753712284168D-01
   175  1.7400000000000D+00 -2.2390324658680D-01  3.2940037685934D-01
   176  1.7500000000000D+00 -2.1837330523263D-01  3.0233269700423D-01
   177  1.7600000000000D+00 -2.1260041223498D-01  2.7636449826295D-01
   178  1.7700000000000D+00 -2.0661480631616D-01  2.5152030453923D-01
   179  1.7800000000000D+00 -2.0044593181246D-01  2.2781879861314D-01
   180  1.7900000000000D+00 -1.9412230407893D-01  2.0527276318950D-01
   181  1.8000000000000D+00 -1.8767133252228D-01  1.8388885265379D-01
   182  1.8100000000000D+00 -1.8111926944580D-01  1.6366786150263D-01
   183  1.8200000000000D+00 -1.7449123932684D-01  1.4460533203963D-01
   184  1.8300000000000D+00 -1.6781125343954D-01  1.2669205112854D-01
   185  1.8400000000000D+00 -1.6110228546437D-01  1.0991469087771D-01
   186  1.8500000000000D+00 -1.5438635591294D-01  9.4256496601159D-02
   187  1.8600000000000D+00 -1.4768444262785D-01  7.9697269703243D-02
   188  1.8700000000000D+00 -1.4101643301163D-01  6.6213475922721D-02
   189  1.8800000000000D+00 -1.3440113441564D-01  5.3778619269667D-02
   190  1.8900000000000D+00 -1.2785624568423D-01  4.2363430342975D-02
   191  1.9000000000000D+00 -1.2139834746692D-01  3.1936123337097D-02
   192  1.9100000000000D+00 -1.1504289417230D-01  2.2462647967719D-02
   193  1.9200000000000D+00 -1.0880420945026D-01  1.3906942170508D-02
   194  1.9300000000000D+00 -1.0269548574746D-01  6.2311872317120D-03
   195  1.9400000000000D+00 -9.6728787521289D-02 -6.0393693185202D-04
   196  1.9500000000000D+00 -9.0915058168720D-02 -6.6389983394987D-03
   197  1.9600000000000D+00 -8.5264130282172D-02 -1.1915561340433D-02
   198  1.9700000000000D+00 -7.9784739404442D-02 -1.6475940108665D-02
   199  1.9800000000000D+00 -7.4484540860758D-02 -2.0362956218301D-02
   200  1.9900000000000D+00 -6.9370129716229D-02 -2.3619703419466D-02
   201  2.0000000000000D+00 -6.4447063619145D-02 -2.6289319593903D-02
   202  2.0100000000000D+00 -5.9719888361986D-02 -2.8414766854911D-02
   203  2.0200000000000D+00 -5.5192166079743D-02 -3.0038622337499D-02
   204  2.0300000000000D+00 -5.0866505805435D-02 -3.1202877522492D-02
   205  2.0400000000000D+00 -4.6744596325726D-02 -3.1948750915317D-02
   206  2.0500000000000D+00 -4.2827241092902D-02 -3.2316511008032D-02
   207  2.0600000000000D+00 -3.9114395050757D-02 -3.2345312542267D-02
   208  2.0700000000000D+00 -3.5605203200962D-02 -3.2073046598621D-02
   209  2.0800000000000D+00 -3.2298040749473D-02 -3.1536202384231D-02
   210  2.0900000000000D+00 -2.9190554616540D-02 -3.0769745807138D-02
   211  2.1000000000000D+00 -2.6279706217487D-02 -2.9807009883540D-02
   212  2.1100000000000D+00 -2.3561815268811D-02 -2.8679601080369D-02
   213  2.1200000000000D+00 -2.1032604479470D-02 -2.7417320565968D-02
   214  2.1300000000000D+00 -1.8687245038398D-02 -2.6048098190304D-02
   215  2.1400000000000D+00 -1.6520402556029D-02 -2.4597943985076D-02
   216  2.1500000000000D+00 -1.4526283533300D-02 -2.3090911485786D-02
   217  2.1600000000000D+00 -1.2698682025538D-02 -2.1549076525529D-02
   218  2.1700000000000D+00 -1.1031026378834D-02 -1.9992530525801D-02
   219  2.1800000000000D+00 -9.5164260835800D-03 -1.8439384862413D-02
   220  2.1900000000000D+00 -8.1477182394366D-03 -1.6905791329162D-02
   221  2.2000000000000D+00 -6.9175138760526D-03 -1.5405972784395D-02
   222  2.2100000000000D+00 -5.8182437974543D-03 -1.3952266073256D-02
   223  2.2200000000000D+00 -4.8422037534939D-03 -1.2555177218455D-02
   224  2.2300000000000D+00 -3.9815991324820D-03 -1.1223445066714D-02
   225  2.2400000000000D+00 -3.2285886561554D-03 -9.9641161914525D-03
   226  2.2500000000000D+00 -2.5753272369663D-03 -8.7826279793021D-03
   227  2.2600000000000D+00 -2.0140079505657D-03 -7.6828988611906D-03
   228  2.2700000000000D+00 -1.5369026544545D-03 -6.6674267666235D-03
   229  2.2800000000000D+00 -1.1364016274937D-03 -5.7373926182864D-03
   230  2.2900000000000D+00 -8.0505186056517D-04 -4.8927690626204D-03
   231  2.3000000000000D+00 -5.3559386638406D-04 -4.1324334078913D-03
   232  2.3100000000000D+00 -3.2099727774892D-04 -3.4542834984530D-03
   233  2.3200000000000D+00 -1.5449473694443D-04 -2.8553554754370D-03
   234  2.3300000000000D+00 -2.9614227461450D-05 -2.3319424571493D-03
   235  2.3400000000000D+00  5.9790017550003D-05 -1.8797141206051D-03
   236  2.3500000000000D+00  1.1950860777105D-04 -1.4938338787837D-03
   237  2.3600000000000D+00  1.5494964360855D-04 -1.1690750878153D-03
   238  2.3700000000000D+00  1.7111309197869D-04 -8.9993506131832D-04
   239  2.3800000000000D+00  1.7256721490204D-04 -6.8074329231115D-04
   240  2.3900000000000D+00  1.6342666642365D-04 -5.0576712052491D-04
   241  2.4000000000000D+00  1.4733251899776D-04 -3.6931172242900D-04
   242  2.4100000000000D+00  1.2746179654084D-04 -2.6587640926067D-04
   243  2.4200000000000D+00  1.0642840712226D-04 -1.9004779080104D-04
   244  2.4300000000000D+00  8.6296052062693D-05 -1.3664197553913D-04
   245  2.4400000000000D+00  6.8304430281262D-05 -1.0044297174510D-04
   246  2.4500000000000D+00  5.4038657770831D-05 -7.8092897196328D-05
   247  2.4600000000000D+00  4.4598657740309D-05 -6.6842383858026D-05
   248  2.4700000000000D+00  4.1142322115011D-05 -6.5261252987680D-05
   249  2.4800000000000D+00  4.0157311348769D-05 -6.6262488223497D-05
   250  2.4900000000000D+00  3.7433509514271D-05 -6.2782431653510D-05
   251  2.5000000000000D+00  2.7873428650688D-05 -4.7114778085795D-05
   252  2.5100000000000D+00  1.4629666601208D-05 -2.4831761550836D-05
   253  2.5200000000000D+00  2.2402253102653D-06 -3.8080958366539D-06
   254  2.5300000000000D+00 -3.2655528755310D-06  5.6018821073601D-06
   255  2.5400000000000D+00 -3.3611159510000D-06  5.7797266098914D-06
   256  2.5500000000000D+00 -7.6456026472318D-07  1.3171899671084D-06
   257  2.5600000000000D+00  6.6088560692830D-07 -1.1242152767697D-06
   258  2.5700000000000D+00  7.9806012562143D-07 -1.3583671665387D-06
   259  2.5800000000000D+00  2.3834838974836D-07 -4.0589173123825D-07
   260  2.5900000000000D+00 -7.2204028884579D-08  1.2125665408555D-07
   261  2.6000000000000D+00 -1.0016621139371D-07  1.6821526213507D-07
   262  2.6100000000000D+00 -3.9174806859554D-08  6.5788655807984D-08
   263  2.6200000000000D+00  0.0000000000000D+00  0.0000000000000D+00
   264  2.6300000000000D+00  0.0000000000000D+00  0.0000000000000D+00
   265  2.6400000000000D+00  0.0000000000000D+00  0.0000000000000D+00
   266  2.6500000000000D+00  0.0000000000000D+00  0.0000000000000D+00
   267  2.6600000000000D+00  0.0000000000000D+00  0.0000000000000D+00
   268  2.6700000000000D+00  0.0000000000000D+00  0.0000000000000D+00
   269  2.6800000000000D+00  0.0000000000000D+00  0.0000000000000D+00
   270  2.6900000000000D+00  0.0000000000000D+00  0.0000000000000D+00
   271  2.7000000000000D+00  0.0000000000000D+00  0.0000000000000D+00
   272  2.7100000000000D+00  0.0000000000000D+00  0.0000000000000D+00
   273  2.7200000000000D+00  0.0000000000000D+00  0.0000000000000D+00
   274  2.7300000000000D+00  0.0000000000000D+00  0.0000000000000D+00
   275  2.7400000000000D+00  0.0000000000000D+00  0.0000000000000D+00
   276  2.7500000000000D+00  0.0000000000000D+00  0.0000000000000D+00
   277  2.7600000000000D+00  0.0000000000000D+00  0.0000000000000D+00
   278  2.7700000000000D+00  0.0000000000000D+00  0.0000000000000D+00
   279  2.7800000000000D+00  0.0000000000000D+00  0.0000000000000D+00
   280  2.7900000000000D+00  0.0000000000000D+00  0.0000000000000D+00
   281  2.8000000000000D+00  0.0000000000000D+00  0.0000000000000D+00
   282  2.8100000000000D+00  0.0000000000000D+00  0.0000000000000D+00
   283  2.8200000000000D+00  0.0000000000000D+00  0.0000000000000D+00
   284  2.8300000000000D+00  0.0000000000000D+00  0.0000000000000D+00
   285  2.8400000000000D+00  0.0000000000000D+00  0.0000000000000D+00
   286  2.8500000000000D+00  0.0000000000000D+00  0.0000000000000D+00
   287  2.8600000000000D+00  0.0000000000000D+00  0.0000000000000D+00
   288  2.8700000000000D+00  0.0000000000000D+00  0.0000000000000D+00
   289  2.8800000000000D+00  0.0000000000000D+00  0.0000000000000D+00
   290  2.8900000000000D+00  0.0000000000000D+00  0.0000000000000D+00
   291  2.9000000000000D+00  0.0000000000000D+00  0.0000000000000D+00
   292  2.9100000000000D+00  0.0000000000000D+00  0.0000000000000D+00
   293  2.9200000000000D+00  0.0000000000000D+00  0.0000000000000D+00
   294  2.9300000000000D+00  0.0000000000000D+00  0.0000000000000D+00
   295  2.9400000000000D+00  0.0000000000000D+00  0.0000000000000D+00
   296  2.9500000000000D+00  0.0000000000000D+00  0.0000000000000D+00
   297  2.9600000000000D+00  0.0000000000000D+00  0.0000000000000D+00
   298  2.9700000000000D+00  0.0000000000000D+00  0.0000000000000D+00
   299  2.9800000000000D+00  0.0000000000000D+00  0.0000000000000D+00
   300  2.9900000000000D+00  0.0000000000000D+00  0.0000000000000D+00
   301  3.0000000000000D+00  0.0000000000000D+00  0.0000000000000D+00
   302  3.0100000000000D+00  0.0000000000000D+00  0.0000000000000D+00
   303  3.0200000000000D+00  0.0000000000000D+00  0.0000000000000D+00
   304  3.0300000000000D+00  0.0000000000000D+00  0.0000000000000D+00
   305  3.0400000000000D+00  0.0000000000000D+00  0.0000000000000D+00
   306  3.0500000000000D+00  0.0000000000000D+00  0.0000000000000D+00
   307  3.0600000000000D+00  0.0000000000000D+00  0.0000000000000D+00
   308  3.0700000000000D+00  0.0000000000000D+00  0.0000000000000D+00
   309  3.0800000000000D+00  0.0000000000000D+00  0.0000000000000D+00
   310  3.0900000000000D+00  0.0000000000000D+00  0.0000000000000D+00
   311  3.1000000000000D+00  0.0000000000000D+00  0.0000000000000D+00
   312  3.1100000000000D+00  0.0000000000000D+00  0.0000000000000D+00
   313  3.1200000000000D+00  0.0000000000000D+00  0.0000000000000D+00
   314  3.1300000000000D+00  0.0000000000000D+00  0.0000000000000D+00
   315  3.1400000000000D+00  0.0000000000000D+00  0.0000000000000D+00
   316  3.1500000000000D+00  0.0000000000000D+00  0.0000000000000D+00
   317  3.1600000000000D+00  0.0000000000000D+00  0.0000000000000D+00
   318  3.1700000000000D+00  0.0000000000000D+00  0.0000000000000D+00
   319  3.1800000000000D+00  0.0000000000000D+00  0.0000000000000D+00
   320  3.1900000000000D+00  0.0000000000000D+00  0.0000000000000D+00
   321  3.2000000000000D+00  0.0000000000000D+00  0.0000000000000D+00
   322  3.2100000000000D+00  0.0000000000000D+00  0.0000000000000D+00
   323  3.2200000000000D+00  0.0000000000000D+00  0.0000000000000D+00
   324  3.2300000000000D+00  0.0000000000000D+00  0.0000000000000D+00
   325  3.2400000000000D+00  0.0000000000000D+00  0.0000000000000D+00
   326  3.2500000000000D+00  0.0000000000000D+00  0.0000000000000D+00
   327  3.2600000000000D+00  0.0000000000000D+00  0.0000000000000D+00
   328  3.2700000000000D+00  0.0000000000000D+00  0.0000000000000D+00
   329  3.2800000000000D+00  0.0000000000000D+00  0.0000000000000D+00
   330  3.2900000000000D+00  0.0000000000000D+00  0.0000000000000D+00
   331  3.3000000000000D+00  0.0000000000000D+00  0.0000000000000D+00
   332  3.3100000000000D+00  0.0000000000000D+00  0.0000000000000D+00
   333  3.3200000000000D+00  0.0000000000000D+00  0.0000000000000D+00
   334  3.3300000000000D+00  0.0000000000000D+00  0.0000000000000D+00
   335  3.3400000000000D+00  0.0000000000000D+00  0.0000000000000D+00
   336  3.3500000000000D+00  0.0000000000000D+00  0.0000000000000D+00
   337  3.3600000000000D+00  0.0000000000000D+00  0.0000000000000D+00
   338  3.3700000000000D+00  0.0000000000000D+00  0.0000000000000D+00
   339  3.3800000000000D+00  0.0000000000000D+00  0.0000000000000D+00
   340  3.3900000000000D+00  0.0000000000000D+00  0.0000000000000D+00
   341  3.4000000000000D+00  0.0000000000000D+00  0.0000000000000D+00
   342  3.4100000000000D+00  0.0000000000000D+00  0.0000000000000D+00
   343  3.4200000000000D+00  0.0000000000000D+00  0.0000000000000D+00
   344  3.4300000000000D+00  0.0000000000000D+00  0.0000000000000D+00
   345  3.4400000000000D+00  0.0000000000000D+00  0.0000000000000D+00
   346  3.4500000000000D+00  0.0000000000000D+00  0.0000000000000D+00
   347  3.4600000000000D+00  0.0000000000000D+00  0.0000000000000D+00
   348  3.4700000000000D+00  0.0000000000000D+00  0.0000000000000D+00
   349  3.4800000000000D+00  0.0000000000000D+00  0.0000000000000D+00
   350  3.4900000000000D+00  0.0000000000000D+00  0.0000000000000D+00
   351  3.5000000000000D+00  0.0000000000000D+00  0.0000000000000D+00
   352  3.5100000000000D+00  0.0000000000000D+00  0.0000000000000D+00
   353  3.5200000000000D+00  0.0000000000000D+00  0.0000000000000D+00
   354  3.5300000000000D+00  0.0000000000000D+00  0.0000000000000D+00
   355  3.5400000000000D+00  0.0000000000000D+00  0.0000000000000D+00
   356  3.5500000000000D+00  0.0000000000000D+00  0.0000000000000D+00
   357  3.5600000000000D+00  0.0000000000000D+00  0.0000000000000D+00
   358  3.5700000000000D+00  0.0000000000000D+00  0.0000000000000D+00
   359  3.5800000000000D+00  0.0000000000000D+00  0.0000000000000D+00
   360  3.5900000000000D+00  0.0000000000000D+00  0.0000000000000D+00
   361  3.6000000000000D+00  0.0000000000000D+00  0.0000000000000D+00
   362  3.6100000000000D+00  0.0000000000000D+00  0.0000000000000D+00
   363  3.6200000000000D+00  0.0000000000000D+00  0.0000000000000D+00
   364  3.6300000000000D+00  0.0000000000000D+00  0.0000000000000D+00
   365  3.6400000000000D+00  0.0000000000000D+00  0.0000000000000D+00
   366  3.6500000000000D+00  0.0000000000000D+00  0.0000000000000D+00
   367  3.6600000000000D+00  0.0000000000000D+00  0.0000000000000D+00
   368  3.6700000000000D+00  0.0000000000000D+00  0.0000000000000D+00
   369  3.6800000000000D+00  0.0000000000000D+00  0.0000000000000D+00
   370  3.6900000000000D+00  0.0000000000000D+00  0.0000000000000D+00
   371  3.7000000000000D+00  0.0000000000000D+00  0.0000000000000D+00
   372  3.7100000000000D+00  0.0000000000000D+00  0.0000000000000D+00
   373  3.7200000000000D+00  0.0000000000000D+00  0.0000000000000D+00
   374  3.7300000000000D+00  0.0000000000000D+00  0.0000000000000D+00
   375  3.7400000000000D+00  0.0000000000000D+00  0.0000000000000D+00
   376  3.7500000000000D+00  0.0000000000000D+00  0.0000000000000D+00
   377  3.7600000000000D+00  0.0000000000000D+00  0.0000000000000D+00
   378  3.7700000000000D+00  0.0000000000000D+00  0.0000000000000D+00
   379  3.7800000000000D+00  0.0000000000000D+00  0.0000000000000D+00
   380  3.7900000000000D+00  0.0000000000000D+00  0.0000000000000D+00
   381  3.8000000000000D+00  0.0000000000000D+00  0.0000000000000D+00
   382  3.8100000000000D+00  0.0000000000000D+00  0.0000000000000D+00
   383  3.8200000000000D+00  0.0000000000000D+00  0.0000000000000D+00
   384  3.8300000000000D+00  0.0000000000000D+00  0.0000000000000D+00
   385  3.8400000000000D+00  0.0000000000000D+00  0.0000000000000D+00
   386  3.8500000000000D+00  0.0000000000000D+00  0.0000000000000D+00
   387  3.8600000000000D+00  0.0000000000000D+00  0.0000000000000D+00
   388  3.8700000000000D+00  0.0000000000000D+00  0.0000000000000D+00
   389  3.8800000000000D+00  0.0000000000000D+00  0.0000000000000D+00
   390  3.8900000000000D+00  0.0000000000000D+00  0.0000000000000D+00
   391  3.9000000000000D+00  0.0000000000000D+00  0.0000000000000D+00
   392  3.9100000000000D+00  0.0000000000000D+00  0.0000000000000D+00
   393  3.9200000000000D+00  0.0000000000000D+00  0.0000000000000D+00
   394  3.9300000000000D+00  0.0000000000000D+00  0.0000000000000D+00
   395  3.9400000000000D+00  0.0000000000000D+00  0.0000000000000D+00
   396  3.9500000000000D+00  0.0000000000000D+00  0.0000000000000D+00
   397  3.9600000000000D+00  0.0000000000000D+00  0.0000000000000D+00
   398  3.9700000000000D+00  0.0000000000000D+00  0.0000000000000D+00
   399  3.9800000000000D+00  0.0000000000000D+00  0.0000000000000D+00
   400  3.9900000000000D+00  0.0000000000000D+00  0.0000000000000D+00
   401  4.0000000000000D+00  0.0000000000000D+00  0.0000000000000D+00
   402  4.0100000000000D+00  0.0000000000000D+00  0.0000000000000D+00
   403  4.0200000000000D+00  0.0000000000000D+00  0.0000000000000D+00
   404  4.0300000000000D+00  0.0000000000000D+00  0.0000000000000D+00
   405  4.0400000000000D+00  0.0000000000000D+00  0.0000000000000D+00
   406  4.0500000000000D+00  0.0000000000000D+00  0.0000000000000D+00
   407  4.0600000000000D+00  0.0000000000000D+00  0.0000000000000D+00
   408  4.0700000000000D+00  0.0000000000000D+00  0.0000000000000D+00
   409  4.0800000000000D+00  0.0000000000000D+00  0.0000000000000D+00
   410  4.0900000000000D+00  0.0000000000000D+00  0.0000000000000D+00
   411  4.1000000000000D+00  0.0000000000000D+00  0.0000000000000D+00
   412  4.1100000000000D+00  0.0000000000000D+00  0.0000000000000D+00
   413  4.1200000000000D+00  0.0000000000000D+00  0.0000000000000D+00
   414  4.1300000000000D+00  0.0000000000000D+00  0.0000000000000D+00
   415  4.1400000000000D+00  0.0000000000000D+00  0.0000000000000D+00
   416  4.1500000000000D+00  0.0000000000000D+00  0.0000000000000D+00
   417  4.1600000000000D+00  0.0000000000000D+00  0.0000000000000D+00
   418  4.1700000000000D+00  0.0000000000000D+00  0.0000000000000D+00
   419  4.1800000000000D+00  0.0000000000000D+00  0.0000000000000D+00
   420  4.1900000000000D+00  0.0000000000000D+00  0.0000000000000D+00
   421  4.2000000000000D+00  0.0000000000000D+00  0.0000000000000D+00
   422  4.2100000000000D+00  0.0000000000000D+00  0.0000000000000D+00