Te    ONCVPSP-3.3.1  r_core=   2.49231   3.16383   2.80807
     52.0000     16.0000      210904    zatom,zion,pspd
     8       2   2     4   600     0    pspcod,pspxc,lmax,lloc,mmax,r2well
  5.99000000  0.00000000  0.00000000    rchrg fchrg qchrg
     2     4     2     0    nproj
     3     1           extension_switch
     4     3     0    nprojso
   0                         1.3933116143944D+00  6.3174759269878D+00
     1  0.0000000000000D+00 -2.1525919935428D-11  3.6053243723799D-12
     2  1.0000000000000D-02  2.4702513689106D-02  1.1936917864880D-02
     3  2.0000000000000D-02  4.9293883227050D-02  2.3901494915469D-02
     4  3.0000000000000D-02  7.3663413568982D-02  3.5921274710257D-02
     5  4.0000000000000D-02  9.7701306236413D-02  4.8023569905350D-02
     6  5.0000000000000D-02  1.2129910349010D-01  6.0235347682515D-02
     7  6.0000000000000D-02  1.4435012758577D-01  7.2583116229775D-02
     8  7.0000000000000D-02  1.6674991349865D-01  8.5092812621227D-02
     9  8.0000000000000D-02  1.8839663352463D-01  9.7789692439140D-02
    10  9.0000000000000D-02  2.0919151219215D-01  1.1069822147692D-01
    11  1.0000000000000D-01  2.2903922995146D-01  1.2384196985618D-01
    12  1.1000000000000D-01  2.4784831414454D-01  1.3724350888488D-01
    13  1.2000000000000D-01  2.6553151580146D-01  1.5092431097654D-01
    14  1.3000000000000D-01  2.8200617085579D-01  1.6490465294230D-01
    15  1.4000000000000D-01  2.9719454442402D-01  1.7920352295917D-01
    16  1.5000000000000D-01  3.1102415684988D-01  1.9383853150793D-01
    17  1.6000000000000D-01  3.2342809027650D-01  2.0882582656379D-01
    18  1.7000000000000D-01  3.3434527457389D-01  2.2418001331175D-01
    19  1.8000000000000D-01  3.4372075151999D-01  2.3991407864652D-01
    20  1.9000000000000D-01  3.5150591620644D-01  2.5603932070414D-01
    21  2.0000000000000D-01  3.5765873471848D-01  2.7256528365909D-01
    22  2.1000000000000D-01  3.6214393721921D-01  2.8949969800610D-01
    23  2.2000000000000D-01  3.6493318565339D-01  3.0684842653162D-01
    24  2.3000000000000D-01  3.6600521537344D-01  3.2461541616364D-01
    25  2.4000000000000D-01  3.6534595008122D-01  3.4280265587318D-01
    26  2.5000000000000D-01  3.6294858957239D-01  3.6141014078327D-01
    27  2.6000000000000D-01  3.5881366986583D-01  3.8043584262469D-01
    28  2.7000000000000D-01  3.5294909539846D-01  3.9987568665929D-01
    29  2.8000000000000D-01  3.4537014306514D-01  4.1972353517388D-01
    30  2.9000000000000D-01  3.3609943798463D-01  4.3997117762869D-01
    31  3.0000000000000D-01  3.2516690097439D-01  4.6060832752543D-01
    32  3.1000000000000D-01  3.1260966782023D-01  4.8162262604048D-01
    33  3.2000000000000D-01  2.9847198053016D-01  5.0299965244890D-01
    34  3.3000000000000D-01  2.8280505086521D-01  5.2472294134500D-01
    35  3.4000000000000D-01  2.6566689654352D-01  5.4677400664505D-01
    36  3.5000000000000D-01  2.4712215061662D-01  5.6913237233721D-01
    37  3.6000000000000D-01  2.2724184461846D-01  5.9177560992339D-01
    38  3.7000000000000D-01  2.0610316618847D-01  6.1467938247719D-01
    39  3.8000000000000D-01  1.8378919196835D-01  6.3781749522181D-01
    40  3.9000000000000D-01  1.6038859666904D-01  6.6116195251108D-01
    41  4.0000000000000D-01  1.3599533929872D-01  6.8468302107683D-01
    42  4.1000000000000D-01  1.1070832763344D-01  7.0834929938570D-01
    43  4.2000000000000D-01  8.4631062101015D-02  7.3212779292857D-01
    44  4.3000000000000D-01  5.7871260332381D-02  7.5598399524676D-01
    45  4.4000000000000D-01  3.0540463716194D-02  7.7988197447947D-01
    46  4.5000000000000D-01  2.7536273680175D-03  8.0378446519919D-01
    47  4.6000000000000D-01 -2.5371305002259D-02  8.2765296528295D-01
    48  4.7000000000000D-01 -5.3713839774780D-02  8.5144783755051D-01
    49  4.8000000000000D-01 -8.2151384044086D-02  8.7512841588331D-01
    50  4.9000000000000D-01 -1.1055970651615D-01  8.9865311552224D-01
    51  5.0000000000000D-01 -1.3881340696050D-01  9.2197954722684D-01
    52  5.1000000000000D-01 -1.6678639245616D-01  9.4506463496422D-01
    53  5.2000000000000D-01 -1.9435235863276D-01  9.6786473678225D-01
    54  5.3000000000000D-01 -2.2138527407720D-01  9.9033576850931D-01
    55  5.4000000000000D-01 -2.4775986605268D-01  1.0124333299109D+00
    56  5.5000000000000D-01 -2.7335210565958D-01  1.0341128329234D+00
    57  5.6000000000000D-01 -2.9803969055848D-01  1.0553296315755D+00
    58  5.7000000000000D-01 -3.2170252337284D-01  1.0760391531997D+00
    59  5.8000000000000D-01 -3.4422318389427D-01  1.0961970305297D+00
    60  5.9000000000000D-01 -3.6548739322573D-01  1.1157592342728D+00
    61  6.0000000000000D-01 -3.8538446801828D-01  1.1346822057437D+00
    62  6.1000000000000D-01 -4.0380776298460D-01  1.1529229891398D+00
    63  6.2000000000000D-01 -4.2065509990787D-01  1.1704393630412D+00
    64  6.3000000000000D-01 -4.3582918140748D-01  1.1871899707130D+00
    65  6.4000000000000D-01 -4.4923798777289D-01  1.2031344487919D+00
    66  6.5000000000000D-01 -4.6079515523471D-01  1.2182335539403D+00
    67  6.6000000000000D-01 -4.7042033410680D-01  1.2324492870551D+00
    68  6.7000000000000D-01 -4.7803952530417D-01  1.2457450146240D+00
    69  6.8000000000000D-01 -4.8358539382042D-01  1.2580855868277D+00
    70  6.9000000000000D-01 -4.8699755783287D-01  1.2694374519952D+00
    71  7.0000000000000D-01 -4.8822285219439D-01  1.2797687670299D+00
    72  7.1000000000000D-01 -4.8721556516789D-01  1.2890495034327D+00
    73  7.2000000000000D-01 -4.8393764736169D-01  1.2972515485627D+00
    74  7.3000000000000D-01 -4.7835889193139D-01  1.3043488017886D+00
    75  7.4000000000000D-01 -4.7045708522609D-01  1.3103172651983D+00
    76  7.5000000000000D-01 -4.6021812717301D-01  1.3151351285524D+00
    77  7.6000000000000D-01 -4.4763612081497D-01  1.3187828481812D+00
    78  7.7000000000000D-01 -4.3271343053864D-01  1.3212432195474D+00
    79  7.8000000000000D-01 -4.1546070865798D-01  1.3225014432121D+00
    80  7.9000000000000D-01 -3.9589689014564D-01  1.3225451839661D+00
    81  8.0000000000000D-01 -3.7404915543570D-01  1.3213646229064D+00
    82  8.1000000000000D-01 -3.4995286135256D-01  1.3189525022644D+00
    83  8.2000000000000D-01 -3.2365144035280D-01  1.3153041628114D+00
    84  8.3000000000000D-01 -2.9519626839931D-01  1.3104175736945D+00
    85  8.4000000000000D-01 -2.6464650191798D-01  1.3042933545783D+00
    86  8.5000000000000D-01 -2.3206888441815D-01  1.2969347899949D+00
    87  8.6000000000000D-01 -1.9753752348614D-01  1.2883478358290D+00
    88  8.7000000000000D-01 -1.6113363898759D-01  1.2785411178925D+00
    89  8.8000000000000D-01 -1.2294528343762D-01  1.2675259225674D+00
    90  8.9000000000000D-01 -8.3067035617126D-02  1.2553161795255D+00
    91  9.0000000000000D-01 -4.1599668629487D-02  1.2419284365567D+00
    92  9.1000000000000D-01  1.3502062976358D-03  1.2273818265674D+00
    93  9.2000000000000D-01  4.5670518854740D-02  1.2116980268357D+00
    94  9.3000000000000D-01  9.1244140027025D-02  1.1949012106352D+00
    95  9.4000000000000D-01  1.3794930220104D-01  1.1770179913699D+00
    96  9.5000000000000D-01  1.8566003731069D-01  1.1580773593819D+00
    97  9.6000000000000D-01  2.3424663125225D-01  1.1381106116252D+00
    98  9.7000000000000D-01  2.8357609272584D-01  1.1171512744182D+00
    99  9.8000000000000D-01  3.3351263459633D-01  1.0952350195160D+00
   100  9.9000000000000D-01  3.8391816581203D-01  1.0723995737619D+00
   101  1.0000000000000D+00  4.3465279187079D-01  1.0486846226040D+00
   102  1.0100000000000D+00  4.8557532178558D-01  1.0241317077823D+00
   103  1.0200000000000D+00  5.3654377947251D-01  9.9878411950956D-01
   104  1.0300000000000D+00  5.8741591746392D-01  9.7268678349309D-01
   105  1.0400000000000D+00  6.3804973083887D-01  9.4588614315758D-01
   106  1.0500000000000D+00  6.8830396926278D-01  9.1843003744850D-01
   107  1.0600000000000D+00  7.3803864503503D-01  8.9036757460941D-01
   108  1.0700000000000D+00  7.8711553506300D-01  8.6174900234068D-01
   109  1.0800000000000D+00  8.3539867470744D-01  8.3262557475932D-01
   110  1.0900000000000D+00  8.8275484148269D-01  8.0304941659005D-01
   111  1.1000000000000D+00  9.2905402663961D-01  7.7307338502697D-01
   112  1.1100000000000D+00  9.7416989271282D-01  7.4275092971259D-01
   113  1.1200000000000D+00  1.0179802151824D+00  7.1213595128737D-01
   114  1.1300000000000D+00  1.0603673064689D+00  6.8128265896654D-01
   115  1.1400000000000D+00  1.1012184205678D+00  6.5024542760355D-01
   116  1.1500000000000D+00  1.1404261366987D+00  6.1907865470091D-01
   117  1.1600000000000D+00  1.1778887204667D+00  5.8783661782821D-01
   118  1.1700000000000D+00  1.2135104611226D+00  5.5657333290399D-01
   119  1.1800000000000D+00  1.2472019836164D+00  5.2534241379472D-01
   120  1.1900000000000D+00  1.2788805342457D+00  4.9419693367900D-01
   121  1.2000000000000D+00  1.3084702388428D+00  4.6318928861657D-01
   122  1.2100000000000D+00  1.3359023325715D+00  4.3237106375128D-01
   123  1.2200000000000D+00  1.3611153604757D+00  4.0179290257278D-01
   124  1.2300000000000D+00  1.3840553481333D+00  3.7150437964310D-01
   125  1.2400000000000D+00  1.4046759418755D+00  3.4155387718176D-01
   126  1.2500000000000D+00  1.4229385181309D+00  3.1198846589395D-01
   127  1.2600000000000D+00  1.4388122616323D+00  2.8285379040601D-01
   128  1.2700000000000D+00  1.4522742123910D+00  2.5419395965093D-01
   129  1.2800000000000D+00  1.4633092814026D+00  2.2605144253794D-01
   130  1.2900000000000D+00  1.4719102352342D+00  1.9846696921760D-01
   131  1.3000000000000D+00  1.4780776498323D+00  1.7147943822183D-01
   132  1.3100000000000D+00  1.4818198339056D+00  1.4512582975716D-01
   133  1.3200000000000D+00  1.4831527224501D+00  1.1944112539642D-01
   134  1.3300000000000D+00  1.4820997411670D+00  9.4458234377782D-02
   135  1.3400000000000D+00  1.4786916424685D+00  7.0207926731725D-02
   136  1.3500000000000D+00  1.4729663140731D+00  4.6718773400009D-02
   137  1.3600000000000D+00  1.4649685612672D+00  2.4017093485452D-02
   138  1.3700000000000D+00  1.4547498638514D+00  2.1269087934550D-03
   139  1.3800000000000D+00  1.4423681091832D+00 -1.8930094270879D-02
   140  1.3900000000000D+00  1.4278873025747D+00 -3.9134595353864D-02
   141  1.4000000000000D+00  1.4113772564741D+00 -5.8469663290442D-02
   142  1.4100000000000D+00  1.3929132600526D+00 -7.6920771738772D-02
   143  1.4200000000000D+00  1.3725757306427D+00 -9.4475807257294D-02
   144  1.4300000000000D+00  1.3504498488159D+00 -1.1112506989129D-01
   145  1.4400000000000D+00  1.3266251787376D+00 -1.2686126629696D-01
   146  1.4500000000000D+00  1.3011952755627D+00 -1.4167949545360D-01
   147  1.4600000000000D+00  1.2742572817072D+00 -1.5557722710902D-01
   148  1.4700000000000D+00  1.2459115137528D+00 -1.6855427299721D-01
   149  1.4800000000000D+00  1.2162610418835D+00 -1.8061275103917D-01
   150  1.4900000000000D+00  1.1854112636518D+00 -1.9175704262808D-01
   151  1.5000000000000D+00  1.1534694739660D+00 -2.0199374319812D-01
   152  1.5100000000000D+00  1.1205444330602D+00 -2.1133160628011D-01
   153  1.5200000000000D+00  1.0867459343853D+00 -2.1978148121631D-01
   154  1.5300000000000D+00  1.0521843740031D+00 -2.2735624482816D-01
   155  1.5400000000000D+00  1.0169703235040D+00 -2.3407072719825D-01
   156  1.5500000000000D+00  9.8121410782777D-01 -2.3994163190910D-01
   157  1.5600000000000D+00  9.4502538994189D-01 -2.4498745093517D-01
   158  1.5700000000000D+00  9.0851276368841D-01 -2.4922837452746D-01
   159  1.5800000000000D+00  8.7178335649725D-01 -2.5268619634341D-01
   160  1.5900000000000D+00  8.3494244330400D-01 -2.5538421414826D-01
   161  1.6000000000000D+00  7.9809307298417D-01 -2.5734712638435D-01
   162  1.6100000000000D+00  7.6133570872631D-01 -2.5860092492805D-01
   163  1.6200000000000D+00  7.2476788317739D-01 -2.5917278435524D-01
   164  1.6300000000000D+00  6.8848386989658D-01 -2.5909094803804D-01
   165  1.6400000000000D+00  6.5257437141778D-01 -2.5838461139771D-01
   166  1.6500000000000D+00  6.1712622557040D-01 -2.5708380264891D-01
   167  1.6600000000000D+00  5.8222212981136D-01 -2.5521926134516D-01
   168  1.6700000000000D+00  5.4794038530045D-01 -2.5282231508052D-01
   169  1.6800000000000D+00  5.1435465995085D-01 -2.4992475462659D-01
   170  1.6900000000000D+00  4.8153377220964D-01 -2.4655870788351D-01
   171  1.7000000000000D+00  4.4954149434426D-01 -2.4275651288196D-01
   172  1.7100000000000D+00  4.1843637692478D-01 -2.3855059023831D-01
   173  1.7200000000000D+00  3.8827159292575D-01 -2.3397331525200D-01
   174  1.7300000000000D+00  3.5909480295834D-01 -2.2905689006500D-01
   175  1.7400000000000D+00  3.3094803984317D-01 -2.2383321602573D-01
   176  1.7500000000000D+00  3.0386761074085D-01 -2.1833376591373D-01
   177  1.7600000000000D+00  2.7788403388942D-01 -2.1258946100433D-01
   178  1.7700000000000D+00  2.5302194313762D-01 -2.0663053553099D-01
   179  1.7800000000000D+00  2.2930013728798D-01 -2.0048643731935D-01
   180  1.7900000000000D+00  2.0673152038339D-01 -1.9418569301591D-01
   181  1.8000000000000D+00  1.8532287254747D-01 -1.8775573103295D-01
   182  1.8100000000000D+00  1.6507511782523D-01 -1.8122282998671D-01
   183  1.8200000000000D+00  1.4598393148502D-01 -1.7461214733988D-01
   184  1.8300000000000D+00  1.2804023632150D-01 -1.6794773346063D-01
   185  1.8400000000000D+00  1.1123084305831D-01 -1.6125260659699D-01
   186  1.8500000000000D+00  9.5539138031702D-02 -1.5454883662426D-01
   187  1.8600000000000D+00  8.0945065297479D-02 -1.4785745529702D-01
   188  1.8700000000000D+00  6.7425234209133D-02 -1.4119840815685D-01
   189  1.8800000000000D+00  5.4953292837555D-02 -1.3459056442232D-01
   190  1.8900000000000D+00  4.3500115660604D-02 -1.2805168815153D-01
   191  1.9000000000000D+00  3.3034059993206D-02 -1.2159842812904D-01
   192  1.9100000000000D+00  2.3521217341566D-02 -1.1524630939787D-01
   193  1.9200000000000D+00  1.4925665544826D-02 -1.0900972832173D-01
   194  1.9300000000000D+00  7.2097233667422D-03 -1.0290195172195D-01
   195  1.9400000000000D+00  3.3420525598946D-04 -9.6935119677244D-02
   196  1.9500000000000D+00 -5.7413257164161D-03 -9.1120252045605D-02
   197  1.9600000000000D+00 -1.1058306725109D-02 -8.5467258320241D-02
   198  1.9700000000000D+00 -1.5658929129975D-02 -7.9984950996812D-02
   199  1.9800000000000D+00 -1.9585896471045D-02 -7.4681062028015D-02
   200  1.9900000000000D+00 -2.2882189632056D-02 -6.9562262418763D-02
   201  2.0000000000000D+00 -2.5590839153067D-02 -6.4634184722117D-02
   202  2.0100000000000D+00 -2.7754705655633D-02 -5.9901448269137D-02
   203  2.0200000000000D+00 -2.9416270921478D-02 -5.5367687056220D-02
   204  2.0300000000000D+00 -3.0617437474481D-02 -5.1035580006052D-02
   205  2.0400000000000D+00 -3.1399341476773D-02 -4.6906883552649D-02
   206  2.0500000000000D+00 -3.1802175875369D-02 -4.2982466301605D-02
   207  2.0600000000000D+00 -3.1865026811361D-02 -3.9262345627703D-02
   208  2.0700000000000D+00 -3.1625723817020D-02 -3.5745726037100D-02
   209  2.0800000000000D+00 -3.1120701677952D-02 -3.2431039130098D-02
   210  2.0900000000000D+00 -3.0384879039269D-02 -2.9315984955843D-02
   211  2.1000000000000D+00 -2.9451548812918D-02 -2.6397574658213D-02
   212  2.1100000000000D+00 -2.8352284481198D-02 -2.3672174173633D-02
   213  2.1200000000000D+00 -2.7116861272202D-02 -2.1135548838904D-02
   214  2.1300000000000D+00 -2.5773190033745D-02 -1.8782908816580D-02
   215  2.1400000000000D+00 -2.4347268587790D-02 -1.6608955002801D-02
   216  2.1500000000000D+00 -2.2863144879172D-02 -1.4607925482193D-02
   217  2.1600000000000D+00 -2.1342895562437D-02 -1.2773642202619D-02
   218  2.1700000000000D+00 -1.9806619054814D-02 -1.1099557745687D-02
   219  2.1800000000000D+00 -1.8272439640444D-02 -9.5788022323964D-03
   220  2.1900000000000D+00 -1.6756527640625D-02 -8.2042298655033D-03
   221  2.2000000000000D+00 -1.5273129746403D-02 -6.9684653439165D-03
   222  2.2100000000000D+00 -1.3834611603691D-02 -5.8639498199560D-03
   223  2.2200000000000D+00 -1.2451512644864D-02 -4.8829862026417D-03
   224  2.2300000000000D+00 -1.1132609360938D-02 -4.0177839953559D-03
   225  2.2400000000000D+00 -9.8849898118987D-03 -3.2605031528708D-03
   226  2.2500000000000D+00 -8.7141363083187D-03 -2.6032971130677D-03
   227  2.2600000000000D+00 -7.6240152274523D-03 -2.0383549545351D-03
   228  2.2700000000000D+00 -6.6171750428484D-03 -1.5579422122126D-03
   229  2.2800000000000D+00 -5.6948493890874D-03 -1.1544407211631D-03
   230  2.2900000000000D+00 -4.8570653590302D-03 -8.2038711867820D-04
   231  2.3000000000000D+00 -4.1027560080256D-03 -5.4850987096538D-04
   232  2.3100000000000D+00 -3.4298757947496D-03 -3.3176509196667D-04
   233  2.3200000000000D+00 -2.8355179141414D-03 -1.6337065486968D-04
   234  2.3300000000000D+00 -2.3160325567590D-03 -3.6838746099171D-05
   235  2.3400000000000D+00 -1.8671460750666D-03  5.3993003706468D-05
   236  2.3500000000000D+00 -1.4840777618677D-03  1.1493239517041D-04
   237  2.3600000000000D+00 -1.1616556691004D-03  1.5140509389516D-04
   238  2.3700000000000D+00 -8.9443024781812D-04  1.6842879700790D-04
   239  2.3800000000000D+00 -6.7678221945872D-04  1.7058946342258D-04
   240  2.3900000000000D+00 -5.0302790673590D-04  1.6201921790542D-04
   241  2.4000000000000D+00 -3.6751890971335D-04  1.4637619524099D-04
   242  2.4100000000000D+00 -2.6479859030456D-04  1.2685410806034D-04
   243  2.4200000000000D+00 -1.8949354179199D-04  1.0608240809747D-04
   244  2.4300000000000D+00 -1.3645601536863D-04  8.6139250595149D-05
   245  2.4400000000000D+00 -1.0049973307410D-04  6.8276661196449D-05
   246  2.4500000000000D+00 -7.8303140707840D-05  5.4095142904127D-05
   247  2.4600000000000D+00 -6.7150223113809D-05  4.4709167691667D-05
   248  2.4700000000000D+00 -6.5644881487939D-05  4.1291613452136D-05
   249  2.4800000000000D+00 -6.6687484264151D-05  4.0326939022888D-05
   250  2.4900000000000D+00 -6.3193087767718D-05  3.7598372215855D-05
   251  2.5000000000000D+00 -4.7422784441968D-05  2.7997179520464D-05
   252  2.5100000000000D+00 -2.4993123461687D-05  1.4694453974152D-05
   253  2.5200000000000D+00 -3.8326585913151D-06  2.2500737596690D-06
   254  2.5300000000000D+00  5.6386980463506D-06 -3.2803980748673D-06
   255  2.5400000000000D+00  5.8176394376807D-06 -3.3764042914485D-06
   256  2.5500000000000D+00  1.3258131783840D-06 -7.6803741183836D-07
   257  2.5600000000000D+00 -1.1317828323860D-06  6.6394575762025D-07
   258  2.5700000000000D+00 -1.3675226651165D-06  8.0176358175867D-07
   259  2.5800000000000D+00 -4.0863041686969D-07  2.3945649910627D-07
   260  2.5900000000000D+00  1.2205004203462D-07 -7.2522573793496D-08
   261  2.6000000000000D+00  1.6931590244907D-07 -1.0060811799059D-07
   262  2.6100000000000D+00  6.6219114054560D-08 -3.9347635654231D-08
   263  2.6200000000000D+00  0.0000000000000D+00  0.0000000000000D+00
   264  2.6300000000000D+00  0.0000000000000D+00  0.0000000000000D+00
   265  2.6400000000000D+00  0.0000000000000D+00  0.0000000000000D+00
   266  2.6500000000000D+00  0.0000000000000D+00  0.0000000000000D+00
   267  2.6600000000000D+00  0.0000000000000D+00  0.0000000000000D+00
   268  2.6700000000000D+00  0.0000000000000D+00  0.0000000000000D+00
   269  2.6800000000000D+00  0.0000000000000D+00  0.0000000000000D+00
   270  2.6900000000000D+00  0.0000000000000D+00  0.0000000000000D+00
   271  2.7000000000000D+00  0.0000000000000D+00  0.0000000000000D+00
   272  2.7100000000000D+00  0.0000000000000D+00  0.0000000000000D+00
   273  2.7200000000000D+00  0.0000000000000D+00  0.0000000000000D+00
   274  2.7300000000000D+00  0.0000000000000D+00  0.0000000000000D+00
   275  2.7400000000000D+00  0.0000000000000D+00  0.0000000000000D+00
   276  2.7500000000000D+00  0.0000000000000D+00  0.0000000000000D+00
   277  2.7600000000000D+00  0.0000000000000D+00  0.0000000000000D+00
   278  2.7700000000000D+00  0.0000000000000D+00  0.0000000000000D+00
   279  2.7800000000000D+00  0.0000000000000D+00  0.0000000000000D+00
   280  2.7900000000000D+00  0.0000000000000D+00  0.0000000000000D+00
   281  2.8000000000000D+00  0.0000000000000D+00  0.0000000000000D+00
   282  2.8100000000000D+00  0.0000000000000D+00  0.0000000000000D+00
   283  2.8200000000000D+00  0.0000000000000D+00  0.0000000000000D+00
   284  2.8300000000000D+00  0.0000000000000D+00  0.0000000000000D+00
   285  2.8400000000000D+00  0.0000000000000D+00  0.0000000000000D+00
   286  2.8500000000000D+00  0.0000000000000D+00  0.0000000000000D+00
   287  2.8600000000000D+00  0.0000000000000D+00  0.0000000000000D+00
   288  2.8700000000000D+00  0.0000000000000D+00  0.0000000000000D+00
   289  2.8800000000000D+00  0.0000000000000D+00  0.0000000000000D+00
   290  2.8900000000000D+00  0.0000000000000D+00  0.0000000000000D+00
   291  2.9000000000000D+00  0.0000000000000D+00  0.0000000000000D+00
   292  2.9100000000000D+00  0.0000000000000D+00  0.0000000000000D+00
   293  2.9200000000000D+00  0.0000000000000D+00  0.0000000000000D+00
   294  2.9300000000000D+00  0.0000000000000D+00  0.0000000000000D+00
   295  2.9400000000000D+00  0.0000000000000D+00  0.0000000000000D+00
   296  2.9500000000000D+00  0.0000000000000D+00  0.0000000000000D+00
   297  2.9600000000000D+00  0.0000000000000D+00  0.0000000000000D+00
   298  2.9700000000000D+00  0.0000000000000D+00  0.0000000000000D+00
   299  2.9800000000000D+00  0.0000000000000D+00  0.0000000000000D+00
   300  2.9900000000000D+00  0.0000000000000D+00  0.0000000000000D+00
   301  3.0000000000000D+00  0.0000000000000D+00  0.0000000000000D+00
   302  3.0100000000000D+00  0.0000000000000D+00  0.0000000000000D+00
   303  3.0200000000000D+00  0.0000000000000D+00  0.0000000000000D+00
   304  3.0300000000000D+00  0.0000000000000D+00  0.0000000000000D+00
   305  3.0400000000000D+00  0.0000000000000D+00  0.0000000000000D+00
   306  3.0500000000000D+00  0.0000000000000D+00  0.0000000000000D+00
   307  3.0600000000000D+00  0.0000000000000D+00  0.0000000000000D+00
   308  3.0700000000000D+00  0.0000000000000D+00  0.0000000000000D+00
   309  3.0800000000000D+00  0.0000000000000D+00  0.0000000000000D+00
   310  3.0900000000000D+00  0.0000000000000D+00  0.0000000000000D+00
   311  3.1000000000000D+00  0.0000000000000D+00  0.0000000000000D+00
   312  3.1100000000000D+00  0.0000000000000D+00  0.0000000000000D+00
   313  3.1200000000000D+00  0.0000000000000D+00  0.0000000000000D+00
   314  3.1300000000000D+00  0.0000000000000D+00  0.0000000000000D+00
   315  3.1400000000000D+00  0.0000000000000D+00  0.0000000000000D+00
   316  3.1500000000000D+00  0.0000000000000D+00  0.0000000000000D+00
   317  3.1600000000000D+00  0.0000000000000D+00  0.0000000000000D+00
   318  3.1700000000000D+00  0.0000000000000D+00  0.0000000000000D+00
   319  3.1800000000000D+00  0.0000000000000D+00  0.0000000000000D+00
   320  3.1900000000000D+00  0.0000000000000D+00  0.0000000000000D+00
   321  3.2000000000000D+00  0.0000000000000D+00  0.0000000000000D+00
   322  3.2100000000000D+00  0.0000000000000D+00  0.0000000000000D+00
   323  3.2200000000000D+00  0.0000000000000D+00  0.0000000000000D+00
   324  3.2300000000000D+00  0.0000000000000D+00  0.0000000000000D+00
   325  3.2400000000000D+00  0.0000000000000D+00  0.0000000000000D+00
   326  3.2500000000000D+00  0.0000000000000D+00  0.0000000000000D+00
   327  3.2600000000000D+00  0.0000000000000D+00  0.0000000000000D+00
   328  3.2700000000000D+00  0.0000000000000D+00  0.0000000000000D+00
   329  3.2800000000000D+00  0.0000000000000D+00  0.0000000000000D+00
   330  3.2900000000000D+00  0.0000000000000D+00  0.0000000000000D+00
   331  3.3000000000000D+00  0.0000000000000D+00  0.0000000000000D+00
   332  3.3100000000000D+00  0.0000000000000D+00  0.0000000000000D+00
   333  3.3200000000000D+00  0.0000000000000D+00  0.0000000000000D+00
   334  3.3300000000000D+00  0.0000000000000D+00  0.0000000000000D+00
   335  3.3400000000000D+00  0.0000000000000D+00  0.0000000000000D+00
   336  3.3500000000000D+00  0.0000000000000D+00  0.0000000000000D+00
   337  3.3600000000000D+00  0.0000000000000D+00  0.0000000000000D+00
   338  3.3700000000000D+00  0.0000000000000D+00  0.0000000000000D+00
   339  3.3800000000000D+00  0.0000000000000D+00  0.0000000000000D+00
   340  3.3900000000000D+00  0.0000000000000D+00  0.0000000000000D+00
   341  3.4000000000000D+00  0.0000000000000D+00  0.0000000000000D+00
   342  3.4100000000000D+00  0.0000000000000D+00  0.0000000000000D+00
   343  3.4200000000000D+00  0.0000000000000D+00  0.0000000000000D+00
   344  3.4300000000000D+00  0.0000000000000D+00  0.0000000000000D+00
   345  3.4400000000000D+00  0.0000000000000D+00  0.0000000000000D+00
   346  3.4500000000000D+00  0.0000000000000D+00  0.0000000000000D+00
   347  3.4600000000000D+00  0.0000000000000D+00  0.0000000000000D+00
   348  3.4700000000000D+00  0.0000000000000D+00  0.0000000000000D+00
   349  3.4800000000000D+00  0.0000000000000D+00  0.0000000000000D+00
   350  3.4900000000000D+00  0.0000000000000D+00  0.0000000000000D+00
   351  3.5000000000000D+00  0.0000000000000D+00  0.0000000000000D+00
   352  3.5100000000000D+00  0.0000000000000D+00  0.0000000000000D+00
   353  3.5200000000000D+00  0.0000000000000D+00  0.0000000000000D+00
   354  3.5300000000000D+00  0.0000000000000D+00  0.0000000000000D+00
   355  3.5400000000000D+00  0.0000000000000D+00  0.0000000000000D+00
   356  3.5500000000000D+00  0.0000000000000D+00  0.0000000000000D+00
   357  3.5600000000000D+00  0.0000000000000D+00  0.0000000000000D+00
   358  3.5700000000000D+00  0.0000000000000D+00  0.0000000000000D+00
   359  3.5800000000000D+00  0.0000000000000D+00  0.0000000000000D+00
   360  3.5900000000000D+00  0.0000000000000D+00  0.0000000000000D+00
   361  3.6000000000000D+00  0.0000000000000D+00  0.0000000000000D+00
   362  3.6100000000000D+00  0.0000000000000D+00  0.0000000000000D+00
   363  3.6200000000000D+00  0.0000000000000D+00  0.0000000000000D+00
   364  3.6300000000000D+00  0.0000000000000D+00  0.0000000000000D+00
   365  3.6400000000000D+00  0.0000000000000D+00  0.0000000000000D+00
   366  3.6500000000000D+00  0.0000000000000D+00  0.0000000000000D+00
   367  3.6600000000000D+00  0.0000000000000D+00  0.0000000000000D+00
   368  3.6700000000000D+00  0.0000000000000D+00  0.0000000000000D+00
   369  3.6800000000000D+00  0.0000000000000D+00  0.0000000000000D+00
   370  3.6900000000000D+00  0.0000000000000D+00  0.0000000000000D+00
   371  3.7000000000000D+00  0.0000000000000D+00  0.0000000000000D+00
   372  3.7100000000000D+00  0.0000000000000D+00  0.0000000000000D+00
   373  3.7200000000000D+00  0.0000000000000D+00  0.0000000000000D+00
   374  3.7300000000000D+00  0.0000000000000D+00  0.0000000000000D+00
   375  3.7400000000000D+00  0.0000000000000D+00  0.0000000000000D+00
   376  3.7500000000000D+00  0.0000000000000D+00  0.0000000000000D+00
   377  3.7600000000000D+00  0.0000000000000D+00  0.0000000000000D+00
   378  3.7700000000000D+00  0.0000000000000D+00  0.0000000000000D+00
   379  3.7800000000000D+00  0.0000000000000D+00  0.0000000000000D+00
   380  3.7900000000000D+00  0.0000000000000D+00  0.0000000000000D+00
   381  3.8000000000000D+00  0.0000000000000D+00  0.0000000000000D+00
   382  3.8100000000000D+00  0.0000000000000D+00  0.0000000000000D+00
   383  3.8200000000000D+00  0.0000000000000D+00  0.0000000000000D+00
   384  3.8300000000000D+00  0.0000000000000D+00  0.0000000000000D+00
   385  3.8400000000000D+00  0.0000000000000D+00  0.0000000000000D+00
   386  3.8500000000000D+00  0.0000000000000D+00  0.0000000000000D+00
   387  3.8600000000000D+00  0.0000000000000D+00  0.0000000000000D+00
   388  3.8700000000000D+00  0.0000000000000D+00  0.0000000000000D+00
   389  3.8800000000000D+00  0.0000000000000D+00  0.0000000000000D+00
   390  3.8900000000000D+00  0.0000000000000D+00  0.0000000000000D+00
   391  3.9000000000000D+00  0.0000000000000D+00  0.0000000000000D+00
   392  3.9100000000000D+00  0.0000000000000D+00  0.0000000000000D+00
   393  3.9200000000000D+00  0.0000000000000D+00  0.0000000000000D+00
   394  3.9300000000000D+00  0.0000000000000D+00  0.0000000000000D+00
   395  3.9400000000000D+00  0.0000000000000D+00  0.0000000000000D+00
   396  3.9500000000000D+00  0.0000000000000D+00  0.0000000000000D+00
   397  3.9600000000000D+00  0.0000000000000D+00  0.0000000000000D+00
   398  3.9700000000000D+00  0.0000000000000D+00  0.0000000000000D+00
   399  3.9800000000000D+00  0.0000000000000D+00  0.0000000000000D+00
   400  3.9900000000000D+00  0.0000000000000D+00  0.0000000000000D+00
   401  4.0000000000000D+00  0.0000000000000D+00  0.0000000000000D+00
   402  4.0100000000000D+00  0.0000000000000D+00  0.0000000000000D+00
   403  4.0200000000000D+00  0.0000000000000D+00  0.0000000000000D+00
   404  4.0300000000000D+00  0.0000000000000D+00  0.0000000000000D+00
   405  4.0400000000000D+00  0.0000000000000D+00  0.0000000000000D+00
   406  4.0500000000000D+00  0.0000000000000D+00  0.0000000000000D+00
   407  4.0600000000000D+00  0.0000000000000D+00  0.0000000000000D+00
   408  4.0700000000000D+00  0.0000000000000D+00  0.0000000000000D+00
   409  4.0800000000000D+00  0.0000000000000D+00  0.0000000000000D+00
   410  4.0900000000000D+00  0.0000000000000D+00  0.0000000000000D+00
   411  4.1000000000000D+00  0.0000000000000D+00  0.0000000000000D+00
   412  4.1100000000000D+00  0.0000000000000D+00  0.0000000000000D+00
   413  4.1200000000000D+00  0.0000000000000D+00  0.0000000000000D+00
   414  4.1300000000000D+00  0.0000000000000D+00  0.0000000000000D+00
   415  4.1400000000000D+00  0.0000000000000D+00  0.0000000000000D+00
   416  4.1500000000000D+00  0.0000000000000D+00  0.0000000000000D+00
   417  4.1600000000000D+00  0.0000000000000D+00  0.0000000000000D+00
   418  4.1700000000000D+00  0.0000000000000D+00  0.0000000000000D+00
   419  4.1800000000000D+00  0.0000000000000D+00  0.0000000000000D+00
   420  4.1900000000000D+00  0.0000000000000D+00  0.0000000000000D+00
   421  4.2000000000000D+00  0.0000000000000D+00  0.0000000000000D+00
   422  4.2100000000000D+00  0.0000000000000D+00  0.0000000000000D+00