Ti    ONCVPSP-3.3.1  r_core=   2.46607   2.35117   2.29574
     22.0000     12.0000      210904    zatom,zion,pspd
     8       2   2     4   600     0    pspcod,pspxc,lmax,lloc,mmax,r2well
  5.99000000  0.00000000  0.00000000    rchrg fchrg qchrg
     2     2     2     0    nproj
     3     1           extension_switch
     4     2     0    nprojso
   0                        -1.0571409036490D-01  2.0457421769432D+00
     1  0.0000000000000D+00 -2.3642809932056D-11  3.7325698087898D-12
     2  1.0000000000000D-02  3.3060298013061D-02  4.8164152442322D-02
     3  2.0000000000000D-02  6.6024068961521D-02  9.6270782845345D-02
     4  3.0000000000000D-02  9.8795168208484D-02  1.4426241812310D-01
     5  4.0000000000000D-02  1.3127821444921D-01  1.9208168320481D-01
     6  5.0000000000000D-02  1.6337896757499D-01  2.3967135031297D-01
     7  6.0000000000000D-02  1.9500470199096D-01  2.8697438856316D-01
     8  7.0000000000000D-02  2.2606457390009D-01  3.3393401398879D-01
     9  8.0000000000000D-02  2.5646998108913D-01  3.8049374008963D-01
    10  9.0000000000000D-02  2.8613491378153D-01  4.2659742899877D-01
    11  1.0000000000000D-01  3.1497629515711D-01  4.7218934335691D-01
    12  1.1000000000000D-01  3.4291431017881D-01  5.1721419897658D-01
    13  1.2000000000000D-01  3.6987272141243D-01  5.6161721837142D-01
    14  1.3000000000000D-01  3.9577917057610D-01  6.0534418521791D-01
    15  1.4000000000000D-01  4.2056546461233D-01  6.4834149980778D-01
    16  1.5000000000000D-01  4.4416784513585D-01  6.9055623553993D-01
    17  1.6000000000000D-01  4.6652724017608D-01  7.3193619649046D-01
    18  1.7000000000000D-01  4.8758949720241D-01  7.7242997608814D-01
    19  1.8000000000000D-01  5.0730559649419D-01  8.1198701691153D-01
    20  1.9000000000000D-01  5.2563184399504D-01  8.5055767161159D-01
    21  2.0000000000000D-01  5.4253004287185D-01  8.8809326495091D-01
    22  2.1000000000000D-01  5.5796764308318D-01  9.2454615693796D-01
    23  2.2000000000000D-01  5.7191786834919D-01  9.5986980702105D-01
    24  2.3000000000000D-01  5.8435982000454D-01  9.9401883929277D-01
    25  2.4000000000000D-01  5.9527855730801D-01  1.0269491086421D+00
    26  2.5000000000000D-01  6.0466515387656D-01  1.0586177677769D+00
    27  2.6000000000000D-01  6.1251673000656D-01  1.0889833350243D+00
    28  2.7000000000000D-01  6.1883646074214D-01  1.1180057628045D+00
    29  2.8000000000000D-01  6.2363355964729D-01  1.1456465066555D+00
    30  2.9000000000000D-01  6.2692323833698D-01  1.1718685946755D+00
    31  3.0000000000000D-01  6.2872664191968D-01  1.1966366972333D+00
    32  3.1000000000000D-01  6.2907076060153D-01  1.2199171967844D+00
    33  3.2000000000000D-01  6.2798831779926D-01  1.2416782576153D+00
    34  3.3000000000000D-01  6.2551763520408D-01  1.2618898953284D+00
    35  3.4000000000000D-01  6.2170247533359D-01  1.2805240458638D+00
    36  3.5000000000000D-01  6.1659186220018D-01  1.2975546338441D+00
    37  3.6000000000000D-01  6.1023988081474D-01  1.3129576400179D+00
    38  3.7000000000000D-01  6.0270545633166D-01  1.3267111675635D+00
    39  3.8000000000000D-01  5.9405211372508D-01  1.3387955070086D+00
    40  3.9000000000000D-01  5.8434771896738D-01  1.3491931995098D+00
    41  4.0000000000000D-01  5.7366420275778D-01  1.3578890982291D+00
    42  4.1000000000000D-01  5.6207726792182D-01  1.3648704275367D+00
    43  4.2000000000000D-01  5.4966608167126D-01  1.3701268397641D+00
    44  4.3000000000000D-01  5.3651295397750D-01  1.3736504692267D+00
    45  4.4000000000000D-01  5.2270300337064D-01  1.3754359832315D+00
    46  4.5000000000000D-01  5.0832381152967D-01  1.3754806297819D+00
    47  4.6000000000000D-01  4.9346506807735D-01  1.3737842816936D+00
    48  4.7000000000000D-01  4.7821820703545D-01  1.3703494768327D+00
    49  4.8000000000000D-01  4.6267603643267D-01  1.3651814541911D+00
    50  4.9000000000000D-01  4.4693236258676D-01  1.3582881855169D+00
    51  5.0000000000000D-01  4.3108161060697D-01  1.3496804022221D+00
    52  5.1000000000000D-01  4.1521844267963D-01  1.3393716172966D+00
    53  5.2000000000000D-01  3.9943737571060D-01  1.3273781419646D+00
    54  5.3000000000000D-01  3.8383239990192D-01  1.3137190968302D+00
    55  5.4000000000000D-01  3.6849659983783D-01  1.2984164172677D+00
    56  5.5000000000000D-01  3.5352177964516D-01  1.2814948528267D+00
    57  5.6000000000000D-01  3.3899809377707D-01  1.2629819604349D+00
    58  5.7000000000000D-01  3.2501368494650D-01  1.2429080911969D+00
    59  5.8000000000000D-01  3.1165433070517D-01  1.2213063706044D+00
    60  5.9000000000000D-01  2.9900310012842D-01  1.1982126719920D+00
    61  6.0000000000000D-01  2.8714002202348D-01  1.1736655830908D+00
    62  6.1000000000000D-01  2.7614176602902D-01  1.1477063655565D+00
    63  6.2000000000000D-01  2.6608133791985D-01  1.1203789073661D+00
    64  6.3000000000000D-01  2.5702779036868D-01  1.0917296680056D+00
    65  6.4000000000000D-01  2.4904595035064D-01  1.0618076163931D+00
    66  6.5000000000000D-01  2.4219616430429D-01  1.0306641615073D+00
    67  6.6000000000000D-01  2.3653406208541D-01  9.9835307571976D-01
    68  6.7000000000000D-01  2.3211034066814D-01  9.6493041085485D-01
    69  6.8000000000000D-01  2.2897056846178D-01  9.3045440703097D-01
    70  6.9000000000000D-01  2.2715501102114D-01  8.9498539436460D-01
    71  7.0000000000000D-01  2.2669847883408D-01  8.5858568764842D-01
    72  7.1000000000000D-01  2.2763019777317D-01  8.2131947414439D-01
    73  7.2000000000000D-01  2.2997370269785D-01  7.8325269466265D-01
    74  7.3000000000000D-01  2.3374675459143D-01  7.4445291812719D-01
    75  7.4000000000000D-01  2.3896128151271D-01  7.0498920985916D-01
    76  7.5000000000000D-01  2.4562334353663D-01  6.6493199383870D-01
    77  7.6000000000000D-01  2.5373312175163D-01  6.2435290923545D-01
    78  7.7000000000000D-01  2.6328493127470D-01  5.8332466152732D-01
    79  7.8000000000000D-01  2.7426725813767D-01  5.4192086855515D-01
    80  7.9000000000000D-01  2.8666281979263D-01  5.0021590188876D-01
    81  8.0000000000000D-01  3.0044864887909D-01  4.5828472390652D-01
    82  8.1000000000000D-01  3.1559619979172D-01  4.1620272101641D-01
    83  8.2000000000000D-01  3.3207147748666D-01  3.7404553347068D-01
    84  8.3000000000000D-01  3.4983518786502D-01  3.3188888224951D-01
    85  8.4000000000000D-01  3.6884290897744D-01  2.8980839351065D-01
    86  8.5000000000000D-01  3.8904528220090D-01  2.4787942112177D-01
    87  8.6000000000000D-01  4.1038822245130D-01  2.0617686781071D-01
    88  8.7000000000000D-01  4.3281314641226D-01  1.6477500548467D-01
    89  8.8000000000000D-01  4.5625721768176D-01  1.2374729528413D-01
    90  8.9000000000000D-01  4.8065360766531D-01  8.3166207949015D-02
    91  9.0000000000000D-01  5.0593177097719D-01  4.3103045084838D-02
    92  9.1000000000000D-01  5.3201773404983D-01  3.6277619239030D-03
    93  9.2000000000000D-01  5.5883439559682D-01 -3.5191207817849D-02
    94  9.3000000000000D-01  5.8630183752674D-01 -7.3287124385260D-02
    95  9.4000000000000D-01  6.1433764486421D-01 -1.1059511112615D-01
    96  9.5000000000000D-01  6.4285723320033D-01 -1.4705231973022D-01
    97  9.6000000000000D-01  6.7177418216855D-01 -1.8259809096847D-01
    98  9.7000000000000D-01  7.0100057342312D-01 -2.1717411034464D-01
    99  9.8000000000000D-01  7.3044733158571D-01 -2.5072455808018D-01
   100  9.9000000000000D-01  7.6002456662295D-01 -2.8319625286716D-01
   101  1.0000000000000D+00  7.8964191612164D-01 -3.1453878883915D-01
   102  1.0100000000000D+00  8.1920888594085D-01 -3.4470466522790D-01
   103  1.0200000000000D+00  8.4863518773994D-01 -3.7364940819434D-01
   104  1.0300000000000D+00  8.7783107190937D-01 -4.0133168434528D-01
   105  1.0400000000000D+00  9.0670765446797D-01 -4.2771340547375D-01
   106  1.0500000000000D+00  9.3517723652877D-01 -4.5275982408589D-01
   107  1.0600000000000D+00  9.6315361499089D-01 -4.7643961931105D-01
   108  1.0700000000000D+00  9.9055238316846D-01 -4.9872497282095D-01
   109  1.0800000000000D+00  1.0172912201313D+00 -5.1959163441881D-01
   110  1.0900000000000D+00  1.0432901676080D+00 -5.3901897699764D-01
   111  1.1000000000000D+00  1.0684718933639D+00 -5.5699004059776D-01
   112  1.1100000000000D+00  1.0927619400660D+00 -5.7349156534146D-01
   113  1.1200000000000D+00  1.1160889587195D+00 -5.8851401305668D-01
   114  1.1300000000000D+00  1.1383849258674D+00 -6.0205157744882D-01
   115  1.1400000000000D+00  1.1595853438188D+00 -6.1410218271529D-01
   116  1.1500000000000D+00  1.1796294232929D+00 -6.2466747054736D-01
   117  1.1600000000000D+00  1.1984602479562D+00 -6.3375277550558D-01
   118  1.1700000000000D+00  1.2160249204536D+00 -6.4136708880392D-01
   119  1.1800000000000D+00  1.2322746896052D+00 -6.4752301056962D-01
   120  1.1900000000000D+00  1.2471650585939D+00 -6.5223669070635D-01
   121  1.2000000000000D+00  1.2606558740562D+00 -6.5552775852527D-01
   122  1.2100000000000D+00  1.2727113961103D+00 -6.5741924135411D-01
   123  1.2200000000000D+00  1.2833003494385D+00 -6.5793747236924D-01
   124  1.2300000000000D+00  1.2923959556965D+00 -6.5711198795449D-01
   125  1.2400000000000D+00  1.2999759476218D+00 -6.5497541492761D-01
   126  1.2500000000000D+00  1.3060225652557D+00 -6.5156334799212D-01
   127  1.2600000000000D+00  1.3105225348993D+00 -6.4691421784804D-01
   128  1.2700000000000D+00  1.3134670314781D+00 -6.4106915041378D-01
   129  1.2800000000000D+00  1.3148516250387D+00 -6.3407181762948D-01
   130  1.2900000000000D+00  1.3146762122862D+00 -6.2596828037767D-01
   131  1.3000000000000D+00  1.3129449341277D+00 -6.1680682407474D-01
   132  1.3100000000000D+00  1.3096660802008D+00 -6.0663778749285D-01
   133  1.3200000000000D+00  1.3048519815639D+00 -5.9551338543673D-01
   134  1.3300000000000D+00  1.2985188927317D+00 -5.8348752589980D-01
   135  1.3400000000000D+00  1.2906868642633D+00 -5.7061562233380D-01
   136  1.3500000000000D+00  1.2813796072848D+00 -5.5695440171690D-01
   137  1.3600000000000D+00  1.2706243512759D+00 -5.4256170908670D-01
   138  1.3700000000000D+00  1.2584516965295D+00 -5.2749630923174D-01
   139  1.3800000000000D+00  1.2448954627694D+00 -5.1181768624431D-01
   140  1.3900000000000D+00  1.2299925353610D+00 -4.9558584163089D-01
   141  1.4000000000000D+00  1.2137827106542D+00 -4.7886109169438D-01
   142  1.4100000000000D+00  1.1963085419441D+00 -4.6170386487746D-01
   143  1.4200000000000D+00  1.1776151875906D+00 -4.4417449978544D-01
   144  1.4300000000000D+00  1.1577502627920D+00 -4.2633304455475D-01
   145  1.4400000000000D+00  1.1367636965290D+00 -4.0823905826471D-01
   146  1.4500000000000D+00  1.1147075951743D+00 -3.8995141505401D-01
   147  1.4600000000000D+00  1.0916361141675D+00 -3.7152811156285D-01
   148  1.4700000000000D+00  1.0676053392918D+00 -3.5302607838566D-01
   149  1.4800000000000D+00  1.0426731787569D+00 -3.3450099604834D-01
   150  1.4900000000000D+00  1.0168992676162D+00 -3.1600711618864D-01
   151  1.5000000000000D+00  9.9034488560441D-01 -2.9759708839609D-01
   152  1.5100000000000D+00  9.6307288970702D-01 -2.7932179328264D-01
   153  1.5200000000000D+00  9.3514766260047D-01 -2.6123018226640D-01
   154  1.5300000000000D+00  9.0663507786747D-01 -2.4336912445175D-01
   155  1.5400000000000D+00  8.7760248327190D-01 -2.2578326115183D-01
   156  1.5500000000000D+00  8.4811870249260D-01 -2.0851486821465D-01
   157  1.5600000000000D+00  8.1825405673450D-01 -1.9160372675384D-01
   158  1.5700000000000D+00  7.8808040620545D-01 -1.7508700227050D-01
   159  1.5800000000000D+00  7.5767121274946D-01 -1.5899913270886D-01
   160  1.5900000000000D+00  7.2710163115700D-01 -1.4337172474119D-01
   161  1.6000000000000D+00  6.9644858753947D-01 -1.2823346220687D-01
   162  1.6100000000000D+00  6.6579098811408D-01 -1.1361001430397D-01
   163  1.6200000000000D+00  6.3520966066298D-01 -9.9523979165214D-02
   164  1.6300000000000D+00  6.0478746322953D-01 -8.5994821304153D-02
   165  1.6400000000000D+00  5.7461074930914D-01 -7.3038709475607D-02
   166  1.6500000000000D+00  5.4476788301972D-01 -6.0668613062175D-02
   167  1.6600000000000D+00  5.1534594572251D-01 -4.8894550528993D-02
   168  1.6700000000000D+00  4.8642834440627D-01 -3.7723813665855D-02
   169  1.6800000000000D+00  4.5809128929099D-01 -2.7161318609324D-02
   170  1.6900000000000D+00  4.3040316127845D-01 -1.7209726613145D-02
   171  1.7000000000000D+00  4.0342574307890D-01 -7.8694321146531D-03
   172  1.7100000000000D+00  3.7721412563415D-01  8.6133898983060D-04
   173  1.7200000000000D+00  3.5181673066405D-01  8.9864351892232D-03
   174  1.7300000000000D+00  3.2727554309975D-01  1.6511693571605D-02
   175  1.7400000000000D+00  3.0362626198595D-01  2.3444842083136D-02
   176  1.7500000000000D+00  2.8089850614849D-01  2.9795400547723D-02
   177  1.7600000000000D+00  2.5911602573114D-01  3.5574577183345D-02
   178  1.7700000000000D+00  2.3829692750723D-01  4.0795161762482D-02
   179  1.7800000000000D+00  2.1845391284060D-01  4.5471415853679D-02
   180  1.7900000000000D+00  1.9959452692287D-01  4.9618960658102D-02
   181  1.8000000000000D+00  1.8172141825192D-01  5.3254662862197D-02
   182  1.8100000000000D+00  1.6483260678858D-01  5.6396519046082D-02
   183  1.8200000000000D+00  1.4892175976036D-01  5.9063539094111D-02
   184  1.8300000000000D+00  1.3397847354828D-01  6.1275629095493D-02
   185  1.8400000000000D+00  1.1998856044491D-01  6.3053474281054D-02
   186  1.8500000000000D+00  1.0693433899532D-01  6.4418422330703D-02
   187  1.8600000000000D+00  9.4794926322129D-02  6.5392367761285D-02
   188  1.8700000000000D+00  8.3546531573575D-02  6.5997637555669D-02
   189  1.8800000000000D+00  7.3162748596282D-02  6.6256878819618D-02
   190  1.8900000000000D+00  6.3614847174075D-02  6.6192948593763D-02
   191  1.9000000000000D+00  5.4872061066490D-02  6.5828806486969D-02
   192  1.9100000000000D+00  4.6901871887676D-02  6.5187410430485D-02
   193  1.9200000000000D+00  3.9670287842860D-02  6.4291615851745D-02
   194  1.9300000000000D+00  3.3142115386603D-02  6.3164078990499D-02
   195  1.9400000000000D+00  2.7281224309487D-02  6.1827164035872D-02
   196  1.9500000000000D+00  2.2050802983108D-02  6.0302855341296D-02
   197  1.9600000000000D+00  1.7413605383638D-02  5.8612673963535D-02
   198  1.9700000000000D+00  1.3332186667414D-02  5.6777599737386D-02
   199  1.9800000000000D+00  9.7691281247262D-03  5.4817998475561D-02
   200  1.9900000000000D+00  6.6872502451485D-03  5.2753554710481D-02
   201  2.0000000000000D+00  4.0498123431484D-03  5.0603210506680D-02
   202  2.0100000000000D+00  1.8207006198533D-03  4.8385109543142D-02
   203  2.0200000000000D+00 -3.5399531422639D-05  4.6116548000478D-02
   204  2.0300000000000D+00 -1.5528433870894D-03  4.3813930811965D-02
   205  2.0400000000000D+00 -2.7648824441744D-03  4.1492734540710D-02
   206  2.0500000000000D+00 -3.7035343941321D-03  3.9167476335623D-02
   207  2.0600000000000D+00 -4.3994670819349D-03  3.6851688731774D-02
   208  2.0700000000000D+00 -4.8818991650116D-03  3.4557901234352D-02
   209  2.0800000000000D+00 -5.1785135018754D-03  3.2297627148300D-02
   210  2.0900000000000D+00 -5.3153872893005D-03  3.0081357060480D-02
   211  2.1000000000000D+00 -5.3169359111538D-03  2.7918557793572D-02
   212  2.1100000000000D+00 -5.2058708625498D-03  2.5817676893488D-02
   213  2.1200000000000D+00 -5.0031732699054D-03  2.3786153126843D-02
   214  2.1300000000000D+00 -4.7280790490631D-03  2.1830431497720D-02
   215  2.1400000000000D+00 -4.3980791865646D-03  1.9955983949589D-02
   216  2.1500000000000D+00 -4.0289318500554D-03  1.8167334513495D-02
   217  2.1600000000000D+00 -3.6346862287565D-03  1.6468088793215D-02
   218  2.1700000000000D+00 -3.2277192231909D-03  1.4860968092828D-02
   219  2.1800000000000D+00 -2.8187813287196D-03  1.3347846858165D-02
   220  2.1900000000000D+00 -2.4170536837756D-03  1.1929794006448D-02
   221  2.2000000000000D+00 -2.0302141595052D-03  1.0607117350461D-02
   222  2.2100000000000D+00 -1.6645111850399D-03  9.3794106099618D-03
   223  2.2200000000000D+00 -1.3248461952614D-03  8.2456031644197D-03
   224  2.2300000000000D+00 -1.0148619760009D-03  7.2040116324929D-03
   225  2.2400000000000D+00 -7.3703699607506D-04  6.2523931596183D-03
   226  2.2500000000000D+00 -4.9278470083588D-04  5.3879999779567D-03
   227  2.2600000000000D+00 -2.8255664029449D-04  4.6076348973400D-03
   228  2.2700000000000D+00 -1.0594845210368D-04  3.9077071320203D-03
   229  2.2800000000000D+00  3.8192047682489D-05  3.2842882820533D-03
   230  2.2900000000000D+00  1.5165528503140D-04  2.7331682120801D-03
   231  2.3000000000000D+00  2.3676105910970D-04  2.2499098036882D-03
   232  2.3100000000000D+00  2.9624941075697D-04  1.8299031280558D-03
   233  2.3200000000000D+00  3.3317332829565D-04  1.4684180968307D-03
   234  2.3300000000000D+00  3.5079477930783D-04  1.1606549669614D-03
   235  2.3400000000000D+00  3.5248213425488D-04  9.0179357769783D-04
   236  2.3500000000000D+00  3.4161315127329D-04  6.8703953151274D-04
   237  2.3600000000000D+00  3.2148289054875D-04  5.1166761707441D-04
   238  2.3700000000000D+00  2.9521447273893D-04  3.7106336639660D-04
   239  2.3800000000000D+00  2.6569236525170D-04  2.6075978761897D-04
   240  2.3900000000000D+00  2.3560886838692D-04  1.7646942711181D-04
   241  2.4000000000000D+00  2.0676707654459D-04  1.1412630906214D-04
   242  2.4100000000000D+00  1.8045385242420D-04  6.9886783637297D-05
   243  2.4200000000000D+00  1.5744243030966D-04  4.0158741896355D-05
   244  2.4300000000000D+00  1.4133986432175D-04  2.1730154552247D-05
   245  2.4400000000000D+00  1.3447950584258D-04  1.1711830031922D-05
   246  2.4500000000000D+00  1.3482350791613D-04  7.3831048867839D-06
   247  2.4600000000000D+00  1.2916582686692D-04  5.8472174388865D-06
   248  2.4700000000000D+00  1.0578619628807D-04  4.7561442453154D-06
   249  2.4800000000000D+00  6.3590929987464D-05  2.9534060760694D-06
   250  2.4900000000000D+00  2.0146170767423D-05  9.8163024481530D-07
   251  2.5000000000000D+00 -7.3194192146421D-06 -3.1533651072895D-07
   252  2.5100000000000D+00 -1.2283980980500D-05 -5.3430126861533D-07
   253  2.5200000000000D+00 -5.6645712706782D-06 -2.4906827053873D-07
   254  2.5300000000000D+00  1.4662917096032D-06  5.4589695769366D-08
   255  2.5400000000000D+00  2.8041205060187D-06  1.0330543755577D-07
   256  2.5500000000000D+00  1.4693170814808D-06  5.3654743576436D-08
   257  2.5600000000000D+00 -1.5627804606456D-07 -7.0257436366389D-09
   258  2.5700000000000D+00 -3.3762298699279D-07 -1.5178411889458D-08
   259  2.5800000000000D+00 -2.0015970106095D-07 -8.9985175874260D-09
   260  2.5900000000000D+00  0.0000000000000D+00  0.0000000000000D+00
   261  2.6000000000000D+00  0.0000000000000D+00  0.0000000000000D+00
   262  2.6100000000000D+00  0.0000000000000D+00  0.0000000000000D+00
   263  2.6200000000000D+00  0.0000000000000D+00  0.0000000000000D+00
   264  2.6300000000000D+00  0.0000000000000D+00  0.0000000000000D+00
   265  2.6400000000000D+00  0.0000000000000D+00  0.0000000000000D+00
   266  2.6500000000000D+00  0.0000000000000D+00  0.0000000000000D+00
   267  2.6600000000000D+00  0.0000000000000D+00  0.0000000000000D+00
   268  2.6700000000000D+00  0.0000000000000D+00  0.0000000000000D+00
   269  2.6800000000000D+00  0.0000000000000D+00  0.0000000000000D+00
   270  2.6900000000000D+00  0.0000000000000D+00  0.0000000000000D+00
   271  2.7000000000000D+00  0.0000000000000D+00  0.0000000000000D+00
   272  2.7100000000000D+00  0.0000000000000D+00  0.0000000000000D+00
   273  2.7200000000000D+00  0.0000000000000D+00  0.0000000000000D+00
   274  2.7300000000000D+00  0.0000000000000D+00  0.0000000000000D+00
   275  2.7400000000000D+00  0.0000000000000D+00  0.0000000000000D+00
   276  2.7500000000000D+00  0.0000000000000D+00  0.0000000000000D+00
   277  2.7600000000000D+00  0.0000000000000D+00  0.0000000000000D+00
   278  2.7700000000000D+00  0.0000000000000D+00  0.0000000000000D+00
   279  2.7800000000000D+00  0.0000000000000D+00  0.0000000000000D+00
   280  2.7900000000000D+00  0.0000000000000D+00  0.0000000000000D+00
   281  2.8000000000000D+00  0.0000000000000D+00  0.0000000000000D+00
   282  2.8100000000000D+00  0.0000000000000D+00  0.0000000000000D+00
   283  2.8200000000000D+00  0.0000000000000D+00  0.0000000000000D+00
   284  2.8300000000000D+00  0.0000000000000D+00  0.0000000000000D+00
   285  2.8400000000000D+00  0.0000000000000D+00  0.0000000000000D+00
   286  2.8500000000000D+00  0.0000000000000D+00  0.0000000000000D+00
   287  2.8600000000000D+00  0.0000000000000D+00  0.0000000000000D+00
   288  2.8700000000000D+00  0.0000000000000D+00  0.0000000000000D+00
   289  2.8800000000000D+00  0.0000000000000D+00  0.0000000000000D+00
   290  2.8900000000000D+00  0.0000000000000D+00  0.0000000000000D+00
   291  2.9000000000000D+00  0.0000000000000D+00  0.0000000000000D+00
   292  2.9100000000000D+00  0.0000000000000D+00  0.0000000000000D+00
   293  2.9200000000000D+00  0.0000000000000D+00  0.0000000000000D+00
   294  2.9300000000000D+00  0.0000000000000D+00  0.0000000000000D+00
   295  2.9400000000000D+00  0.0000000000000D+00  0.0000000000000D+00
   296  2.9500000000000D+00  0.0000000000000D+00  0.0000000000000D+00
   297  2.9600000000000D+00  0.0000000000000D+00  0.0000000000000D+00
   298  2.9700000000000D+00  0.0000000000000D+00  0.0000000000000D+00
   299  2.9800000000000D+00  0.0000000000000D+00  0.0000000000000D+00
   300  2.9900000000000D+00  0.0000000000000D+00  0.0000000000000D+00
   301  3.0000000000000D+00  0.0000000000000D+00  0.0000000000000D+00
   302  3.0100000000000D+00  0.0000000000000D+00  0.0000000000000D+00
   303  3.0200000000000D+00  0.0000000000000D+00  0.0000000000000D+00
   304  3.0300000000000D+00  0.0000000000000D+00  0.0000000000000D+00
   305  3.0400000000000D+00  0.0000000000000D+00  0.0000000000000D+00
   306  3.0500000000000D+00  0.0000000000000D+00  0.0000000000000D+00
   307  3.0600000000000D+00  0.0000000000000D+00  0.0000000000000D+00
   308  3.0700000000000D+00  0.0000000000000D+00  0.0000000000000D+00
   309  3.0800000000000D+00  0.0000000000000D+00  0.0000000000000D+00
   310  3.0900000000000D+00  0.0000000000000D+00  0.0000000000000D+00
   311  3.1000000000000D+00  0.0000000000000D+00  0.0000000000000D+00
   312  3.1100000000000D+00  0.0000000000000D+00  0.0000000000000D+00
   313  3.1200000000000D+00  0.0000000000000D+00  0.0000000000000D+00
   314  3.1300000000000D+00  0.0000000000000D+00  0.0000000000000D+00
   315  3.1400000000000D+00  0.0000000000000D+00  0.0000000000000D+00
   316  3.1500000000000D+00  0.0000000000000D+00  0.0000000000000D+00
   317  3.1600000000000D+00  0.0000000000000D+00  0.0000000000000D+00
   318  3.1700000000000D+00  0.0000000000000D+00  0.0000000000000D+00
   319  3.1800000000000D+00  0.0000000000000D+00  0.0000000000000D+00
   320  3.1900000000000D+00  0.0000000000000D+00  0.0000000000000D+00
   321  3.2000000000000D+00  0.0000000000000D+00  0.0000000000000D+00
   322  3.2100000000000D+00  0.0000000000000D+00  0.0000000000000D+00
   323  3.2200000000000D+00  0.0000000000000D+00  0.0000000000000D+00
   324  3.2300000000000D+00  0.0000000000000D+00  0.0000000000000D+00
   325  3.2400000000000D+00  0.0000000000000D+00  0.0000000000000D+00
   326  3.2500000000000D+00  0.0000000000000D+00  0.0000000000000D+00
   327  3.2600000000000D+00  0.0000000000000D+00  0.0000000000000D+00
   328  3.2700000000000D+00  0.0000000000000D+00  0.0000000000000D+00
   329  3.2800000000000D+00  0.0000000000000D+00  0.0000000000000D+00
   330  3.2900000000000D+00  0.0000000000000D+00  0.0000000000000D+00
   331  3.3000000000000D+00  0.0000000000000D+00  0.0000000000000D+00
   332  3.3100000000000D+00  0.0000000000000D+00  0.0000000000000D+00
   333  3.3200000000000D+00  0.0000000000000D+00  0.0000000000000D+00
   334  3.3300000000000D+00  0.0000000000000D+00  0.0000000000000D+00
   335  3.3400000000000D+00  0.0000000000000D+00  0.0000000000000D+00
   336  3.3500000000000D+00  0.0000000000000D+00  0.0000000000000D+00
   337  3.3600000000000D+00  0.0000000000000D+00  0.0000000000000D+00
   338  3.3700000000000D+00  0.0000000000000D+00  0.0000000000000D+00
   339  3.3800000000000D+00  0.0000000000000D+00  0.0000000000000D+00
   340  3.3900000000000D+00  0.0000000000000D+00  0.0000000000000D+00
   341  3.4000000000000D+00  0.0000000000000D+00  0.0000000000000D+00
   342  3.4100000000000D+00  0.0000000000000D+00  0.0000000000000D+00
   343  3.4200000000000D+00  0.0000000000000D+00  0.0000000000000D+00
   344  3.4300000000000D+00  0.0000000000000D+00  0.0000000000000D+00
   345  3.4400000000000D+00  0.0000000000000D+00  0.0000000000000D+00
   346  3.4500000000000D+00  0.0000000000000D+00  0.0000000000000D+00
   347  3.4600000000000D+00  0.0000000000000D+00  0.0000000000000D+00
   348  3.4700000000000D+00  0.0000000000000D+00  0.0000000000000D+00
   349  3.4800000000000D+00  0.0000000000000D+00  0.0000000000000D+00
   350  3.4900000000000D+00  0.0000000000000D+00  0.0000000000000D+00
   351  3.5000000000000D+00  0.0000000000000D+00  0.0000000000000D+00
   352  3.5100000000000D+00  0.0000000000000D+00  0.0000000000000D+00
   353  3.5200000000000D+00  0.0000000000000D+00  0.0000000000000D+00
   354  3.5300000000000D+00  0.0000000000000D+00  0.0000000000000D+00
   355  3.5400000000000D+00  0.0000000000000D+00  0.0000000000000D+00
   356  3.5500000000000D+00  0.0000000000000D+00  0.0000000000000D+00
   357  3.5600000000000D+00  0.0000000000000D+00  0.0000000000000D+00
   358  3.5700000000000D+00  0.0000000000000D+00  0.0000000000000D+00
   359  3.5800000000000D+00  0.0000000000000D+00  0.0000000000000D+00
   360  3.5900000000000D+00  0.0000000000000D+00  0.0000000000000D+00
   361  3.6000000000000D+00  0.0000000000000D+00  0.0000000000000D+00
   362  3.6100000000000D+00  0.0000000000000D+00  0.0000000000000D+00
   363  3.6200000000000D+00  0.0000000000000D+00  0.0000000000000D+00
   364  3.6300000000000D+00  0.0000000000000D+00  0.0000000000000D+00
   365  3.6400000000000D+00  0.0000000000000D+00  0.0000000000000D+00
   366  3.6500000000000D+00  0.0000000000000D+00  0.0000000000000D+00
   367  3.6600000000000D+00  0.0000000000000D+00  0.0000000000000D+00
   368  3.6700000000000D+00  0.0000000000000D+00  0.0000000000000D+00
   369  3.6800000000000D+00  0.0000000000000D+00  0.0000000000000D+00
   370  3.6900000000000D+00  0.0000000000000D+00  0.0000000000000D+00
   371  3.7000000000000D+00  0.0000000000000D+00  0.0000000000000D+00
   372  3.7100000000000D+00  0.0000000000000D+00  0.0000000000000D+00
   373  3.7200000000000D+00  0.0000000000000D+00  0.0000000000000D+00
   374  3.7300000000000D+00  0.0000000000000D+00  0.0000000000000D+00
   375  3.7400000000000D+00  0.0000000000000D+00  0.0000000000000D+00
   376  3.7500000000000D+00  0.0000000000000D+00  0.0000000000000D+00
   377  3.7600000000000D+00  0.0000000000000D+00  0.0000000000000D+00
   378  3.7700000000000D+00  0.0000000000000D+00  0.0000000000000D+00
   379  3.7800000000000D+00  0.0000000000000D+00  0.0000000000000D+00
   380  3.7900000000000D+00  0.0000000000000D+00  0.0000000000000D+00
   381  3.8000000000000D+00  0.0000000000000D+00  0.0000000000000D+00
   382  3.8100000000000D+00  0.0000000000000D+00  0.0000000000000D+00
   383  3.8200000000000D+00  0.0000000000000D+00  0.0000000000000D+00
   384  3.8300000000000D+00  0.0000000000000D+00  0.0000000000000D+00
   385  3.8400000000000D+00  0.0000000000000D+00  0.0000000000000D+00
   386  3.8500000000000D+00  0.0000000000000D+00  0.0000000000000D+00
   387  3.8600000000000D+00  0.0000000000000D+00  0.0000000000000D+00
   388  3.8700000000000D+00  0.0000000000000D+00  0.0000000000000D+00
   389  3.8800000000000D+00  0.0000000000000D+00  0.0000000000000D+00
   390  3.8900000000000D+00  0.0000000000000D+00  0.0000000000000D+00
   391  3.9000000000000D+00  0.0000000000000D+00  0.0000000000000D+00
   392  3.9100000000000D+00  0.0000000000000D+00  0.0000000000000D+00
   393  3.9200000000000D+00  0.0000000000000D+00  0.0000000000000D+00
   394  3.9300000000000D+00  0.0000000000000D+00  0.0000000000000D+00
   395  3.9400000000000D+00  0.0000000000000D+00  0.0000000000000D+00
   396  3.9500000000000D+00  0.0000000000000D+00  0.0000000000000D+00
   397  3.9600000000000D+00  0.0000000000000D+00  0.0000000000000D+00
   398  3.9700000000000D+00  0.0000000000000D+00  0.0000000000000D+00
   399  3.9800000000000D+00  0.0000000000000D+00  0.0000000000000D+00
   400  3.9900000000000D+00  0.0000000000000D+00  0.0000000000000D+00
   401  4.0000000000000D+00  0.0000000000000D+00  0.0000000000000D+00
   402  4.0100000000000D+00  0.0000000000000D+00  0.0000000000000D+00
   403  4.0200000000000D+00  0.0000000000000D+00  0.0000000000000D+00
   404  4.0300000000000D+00  0.0000000000000D+00  0.0000000000000D+00
   405  4.0400000000000D+00  0.0000000000000D+00  0.0000000000000D+00
   406  4.0500000000000D+00  0.0000000000000D+00  0.0000000000000D+00
   407  4.0600000000000D+00  0.0000000000000D+00  0.0000000000000D+00
   408  4.0700000000000D+00  0.0000000000000D+00  0.0000000000000D+00
   409  4.0800000000000D+00  0.0000000000000D+00  0.0000000000000D+00
   410  4.0900000000000D+00  0.0000000000000D+00  0.0000000000000D+00
   411  4.1000000000000D+00  0.0000000000000D+00  0.0000000000000D+00
   412  4.1100000000000D+00  0.0000000000000D+00  0.0000000000000D+00
   413  4.1200000000000D+00  0.0000000000000D+00  0.0000000000000D+00
   414  4.1300000000000D+00  0.0000000000000D+00  0.0000000000000D+00
   415  4.1400000000000D+00  0.0000000000000D+00  0.0000000000000D+00
   416  4.1500000000000D+00  0.0000000000000D+00  0.0000000000000D+00
   417  4.1600000000000D+00  0.0000000000000D+00  0.0000000000000D+00
   418  4.1700000000000D+00  0.0000000000000D+00  0.0000000000000D+00
   419  4.1800000000000D+00  0.0000000000000D+00  0.0000000000000D+00
   420  4.1900000000000D+00  0.0000000000000D+00  0.0000000000000D+00
   421  4.2000000000000D+00  0.0000000000000D+00  0.0000000000000D+00
   422  4.2100000000000D+00  0.0000000000000D+00  0.0000000000000D+00