Tl    ONCVPSP-3.3.1  r_core=   3.35206   3.68771   3.15798   3.35206
     81.0000     13.0000      210904    zatom,zion,pspd
     8       2   3     4   600     0    pspcod,pspxc,lmax,lloc,mmax,r2well
  5.99000000  0.00000000  0.00000000    rchrg fchrg qchrg
     2     3     3     2    nproj
     3     1           extension_switch
     4     4     3    nprojso
   0                         2.9009333780789D-01  2.9738204974569D+00
     1  0.0000000000000D+00 -2.6778024242446D-12  5.9367788463049D-13
     2  1.0000000000000D-02  3.6001906143623D-02  1.3137907542617D-02
     3  2.0000000000000D-02  7.1933581496814D-02  2.6283215795922D-02
     4  3.0000000000000D-02  1.0772494330362D-01  3.9443296348551D-02
     5  4.0000000000000D-02  1.4330620456190D-01  5.2625462613643D-02
     6  5.0000000000000D-02  1.7860802111289D-01  6.5836940912479D-02
     7  6.0000000000000D-02  2.1356163778800D-01  7.9084841763349D-02
     8  7.0000000000000D-02  2.4809903330150D-01  9.2376131443385D-02
     9  8.0000000000000D-02  2.8215306358074D-01  1.0571760389048D-01
    10  9.0000000000000D-02  3.1565760322868D-01  1.1911585301168D-01
    11  1.0000000000000D-01  3.4854768481754D-01  1.3257724546355D-01
    12  1.1000000000000D-01  3.8075963571698D-01  1.4610789396906D-01
    13  1.2000000000000D-01  4.1223121216563D-01  1.5971363123413D-01
    14  1.3000000000000D-01  4.4290173030027D-01  1.7339998452613D-01
    15  1.4000000000000D-01  4.7271219386402D-01  1.8717215097461D-01
    16  1.5000000000000D-01  5.0160541832140D-01  2.0103497365352D-01
    17  1.6000000000000D-01  5.2952615111618D-01  2.1499291850198D-01
    18  1.7000000000000D-01  5.5642118781599D-01  2.2905005213935D-01
    19  1.8000000000000D-01  5.8223948389648D-01  2.4321002062791D-01
    20  1.9000000000000D-01  6.0693226192712D-01  2.5747602923470D-01
    21  2.0000000000000D-01  6.3045311393061D-01  2.7185082324185D-01
    22  2.1000000000000D-01  6.5275809869792D-01  2.8633666985234D-01
    23  2.2000000000000D-01  6.7380583385223D-01  3.0093534123583D-01
    24  2.3000000000000D-01  6.9355758246574D-01  3.1564809875668D-01
    25  2.4000000000000D-01  7.1197733404534D-01  3.3047567842374D-01
    26  2.5000000000000D-01  7.2903187971497D-01  3.4541827759865D-01
    27  2.6000000000000D-01  7.4469088143507D-01  3.6047554299695D-01
    28  2.7000000000000D-01  7.5892693511207D-01  3.7564656001312D-01
    29  2.8000000000000D-01  7.7171562746422D-01  3.9092984339797D-01
    30  2.9000000000000D-01  7.8303558652324D-01  4.0632332931384D-01
    31  3.0000000000000D-01  7.9286852566493D-01  4.2182436878998D-01
    32  3.1000000000000D-01  8.0119928107590D-01  4.3742972259724D-01
    33  3.2000000000000D-01  8.0801584257753D-01  4.5313555755860D-01
    34  3.3000000000000D-01  8.1330937774248D-01  4.6893744430809D-01
    35  3.4000000000000D-01  8.1707424925371D-01  4.8483035650840D-01
    36  3.5000000000000D-01  8.1930802547031D-01  5.0080867153328D-01
    37  3.6000000000000D-01  8.2001148417896D-01  5.1686617261854D-01
    38  3.7000000000000D-01  8.1918860952483D-01  5.3299605248133D-01
    39  3.8000000000000D-01  8.1684658213008D-01  5.4919091840485D-01
    40  3.9000000000000D-01  8.1299576242295D-01  5.6544279878186D-01
    41  4.0000000000000D-01  8.0764966721512D-01  5.8174315110742D-01
    42  4.1000000000000D-01  8.0082493957935D-01  5.9808287140789D-01
    43  4.2000000000000D-01  7.9254131209419D-01  6.1445230509015D-01
    44  4.3000000000000D-01  7.8282156353662D-01  6.3084125919167D-01
    45  4.4000000000000D-01  7.7169146911766D-01  6.4723901600902D-01
    46  4.5000000000000D-01  7.5917974437018D-01  6.6363434807929D-01
    47  4.6000000000000D-01  7.4531798281146D-01  6.8001553448583D-01
    48  4.7000000000000D-01  7.3014058751699D-01  6.9637037845674D-01
    49  4.8000000000000D-01  7.1368469675479D-01  7.1268622622158D-01
    50  4.9000000000000D-01  6.9599010384267D-01  7.2894998708901D-01
    51  5.0000000000000D-01  6.7709917140313D-01  7.4514815470506D-01
    52  5.1000000000000D-01  6.5705674020308D-01  7.6126682944948D-01
    53  5.2000000000000D-01  6.3591003277689D-01  7.7729174192434D-01
    54  5.3000000000000D-01  6.1370855204305D-01  7.9320827748733D-01
    55  5.4000000000000D-01  5.9050397513515D-01  8.0900150177902D-01
    56  5.5000000000000D-01  5.6635004267870D-01  8.2465618719165D-01
    57  5.6000000000000D-01  5.4130244375489D-01  8.4015684022451D-01
    58  5.7000000000000D-01  5.1541869680189D-01  8.5548772966887D-01
    59  5.8000000000000D-01  4.8875802671318D-01  8.7063291556365D-01
    60  5.9000000000000D-01  4.6138123840054D-01  8.8557627886103D-01
    61  6.0000000000000D-01  4.3335058709705D-01  9.0030155173962D-01
    62  6.1000000000000D-01  4.0472964568265D-01  9.1479234850100D-01
    63  6.2000000000000D-01  3.7558316932102D-01  9.2903219698442D-01
    64  6.3000000000000D-01  3.4597695770262D-01  9.4300457043271D-01
    65  6.4000000000000D-01  3.1597771519382D-01  9.5669291974167D-01
    66  6.5000000000000D-01  2.8565290919647D-01  9.7008070602388D-01
    67  6.6000000000000D-01  2.5507062702626D-01  9.8315143341744D-01
    68  6.7000000000000D-01  2.2429943162138D-01  9.9588868206894D-01
    69  6.8000000000000D-01  1.9340821639524D-01  1.0082761412199D+00
    70  6.9000000000000D-01  1.6246605954919D-01  1.0202976423253D+00
    71  7.0000000000000D-01  1.3154207816189D-01  1.0319371921322D+00
    72  7.1000000000000D-01  1.0070528237259D-01  1.0431790056478D+00
    73  7.2000000000000D-01  7.0024429975124D-02  1.0540075389238D+00
    74  7.3000000000000D-01  3.9567881738444D-02  1.0644075215877D+00
    75  7.4000000000000D-01  9.4034577678534D-03  1.0743639890478D+00
    76  7.5000000000000D-01 -2.0401704781532D-02  1.0838623143040D+00
    77  7.6000000000000D-01 -4.9781292330576D-02  1.0928882392922D+00
    78  7.7000000000000D-01 -7.8669953536479D-02  1.1014279056962D+00
    79  7.8000000000000D-01 -1.0700343568756D-01  1.1094678851566D+00
    80  7.9000000000000D-01 -1.3471871853759D-01  1.1169952088127D+00
    81  8.0000000000000D-01 -1.6175414529055D-01  1.1239973961094D+00
    82  8.1000000000000D-01 -1.8804955045325D-01  1.1304624828085D+00
    83  8.2000000000000D-01 -2.1354638428039D-01  1.1363790481394D+00
    84  8.3000000000000D-01 -2.3818783354450D-01  1.1417362410299D+00
    85  8.4000000000000D-01 -2.6191893837151D-01  1.1465238053595D+00
    86  8.5000000000000D-01 -2.8468670489147D-01  1.1507321041769D+00
    87  8.6000000000000D-01 -3.0644021346405D-01  1.1543521428289D+00
    88  8.7000000000000D-01 -3.2713072224794D-01  1.1573755909476D+00
    89  8.8000000000000D-01 -3.4671176589403D-01  1.1597948032471D+00
    90  8.9000000000000D-01 -3.6513924915387D-01  1.1616028390818D+00
    91  9.0000000000000D-01 -3.8237153520558D-01  1.1627934807226D+00
    92  9.1000000000000D-01 -3.9836952851233D-01  1.1633612503083D+00
    93  9.2000000000000D-01 -4.1309675204045D-01  1.1633014254341D+00
    94  9.3000000000000D-01 -4.2651941867716D-01  1.1626100533407D+00
    95  9.4000000000000D-01 -4.3860649670127D-01  1.1612839636704D+00
    96  9.5000000000000D-01 -4.4932976917378D-01  1.1593207797624D+00
    97  9.6000000000000D-01 -4.5866388712893D-01  1.1567189284568D+00
    98  9.7000000000000D-01 -4.6658641646066D-01  1.1534776483878D+00
    99  9.8000000000000D-01 -4.7307787841351D-01  1.1495969967425D+00
   100  9.9000000000000D-01 -4.7812178360228D-01  1.1450778544699D+00
   101  1.0000000000000D+00 -4.8170465949828D-01  1.1399219299263D+00
   102  1.0100000000000D+00 -4.8381607133618D-01  1.1341317609460D+00
   103  1.0200000000000D+00 -4.8444863640960D-01  1.1277107153317D+00
   104  1.0300000000000D+00 -4.8359803173913D-01  1.1206629897596D+00
   105  1.0400000000000D+00 -4.8126299511118D-01  1.1129936071011D+00
   106  1.0500000000000D+00 -4.7744531950160D-01  1.1047084121621D+00
   107  1.0600000000000D+00 -4.7214984091249D-01  1.0958140658498D+00
   108  1.0700000000000D+00 -4.6538441966594D-01  1.0863180377747D+00
   109  1.0800000000000D+00 -4.5715991521334D-01  1.0762285973024D+00
   110  1.0900000000000D+00 -4.4749015453349D-01  1.0655548030733D+00
   111  1.1000000000000D+00 -4.3639189420758D-01  1.0543064910092D+00
   112  1.1100000000000D+00 -4.2388477627234D-01  1.0424942608315D+00
   113  1.1200000000000D+00 -4.0999127796810D-01  1.0301294611171D+00
   114  1.1300000000000D+00 -3.9473665551152D-01  1.0172241729232D+00
   115  1.1400000000000D+00 -3.7814888203691D-01  1.0037911920136D+00
   116  1.1500000000000D+00 -3.6025857986153D-01  9.8984400972300D-01
   117  1.1600000000000D+00 -3.4109894724457D-01  9.7539679249849D-01
   118  1.1700000000000D+00 -3.2070567982139D-01  9.6046436016035D-01
   119  1.1800000000000D+00 -2.9911688690731D-01  9.4506216292747D-01
   120  1.1900000000000D+00 -2.7637300287326D-01  9.2920625725423D-01
   121  1.2000000000000D+00 -2.5251669381090D-01  9.1291328052953D-01
   122  1.2100000000000D+00 -2.2759275971316D-01  8.9620042469047D-01
   123  1.2200000000000D+00 -2.0164803240540D-01  8.7908540880542D-01
   124  1.2300000000000D+00 -1.7473126947137D-01  8.6158645068346D-01
   125  1.2400000000000D+00 -1.4689304442955D-01  8.4372223756965D-01
   126  1.2500000000000D+00 -1.1818563342101D-01  8.2551189598726D-01
   127  1.2600000000000D+00 -8.8662898675835D-02  8.0697496078910D-01
   128  1.2700000000000D+00 -5.8380169036471D-02  7.8813134348335D-01
   129  1.2800000000000D+00 -2.7394117819545D-02  7.6900129989952D-01
   130  1.2900000000000D+00  4.2373616993726D-03  7.4960539726154D-01
   131  1.3000000000000D+00  3.6455282882874D-02  7.2996448073694D-01
   132  1.3100000000000D+00  6.9199694116428D-02  7.1009963953160D-01
   133  1.3200000000000D+00  1.0240980868270D-01  6.9003217260002D-01
   134  1.3300000000000D+00  1.3602413582188D-01  6.6978355404284D-01
   135  1.3400000000000D+00  1.6998061267673D-01  6.4937539826260D-01
   136  1.3500000000000D+00  2.0421673681693D-01  6.2882942495020D-01
   137  1.3600000000000D+00  2.3866969903885D-01  6.0816742397393D-01
   138  1.3700000000000D+00  2.7327651613684D-01  5.8741122024335D-01
   139  1.3800000000000D+00  3.0797416334147D-01  5.6658263862036D-01
   140  1.3900000000000D+00  3.4269970612840D-01  5.4570346894845D-01
   141  1.4000000000000D+00  3.7739043109269D-01  5.2479543127270D-01
   142  1.4100000000000D+00  4.1198397560054D-01  5.0388014131986D-01
   143  1.4200000000000D+00  4.4641845592504D-01  4.8297907630901D-01
   144  1.4300000000000D+00  4.8063259357554D-01  4.6211354116249D-01
   145  1.4400000000000D+00  5.1456583955379D-01  4.4130463518232D-01
   146  1.4500000000000D+00  5.4815849624191D-01  4.2057321926268D-01
   147  1.4600000000000D+00  5.8135183667677D-01  3.9993988369925D-01
   148  1.4700000000000D+00  6.1408822093547D-01  3.7942491666191D-01
   149  1.4800000000000D+00  6.4631120938342D-01  3.5904827339218D-01
   150  1.4900000000000D+00  6.7796567255405D-01  3.3882954618258D-01
   151  1.5000000000000D+00  7.0899789739776D-01  3.1878793520211D-01
   152  1.5100000000000D+00  7.3935568971952D-01  2.9894222021434D-01
   153  1.5200000000000D+00  7.6898847253898D-01  2.7931073325300D-01
   154  1.5300000000000D+00  7.9784738022223D-01  2.5991133229516D-01
   155  1.5400000000000D+00  8.2588534815194D-01  2.4076137598973D-01
   156  1.5500000000000D+00  8.5305719778152D-01  2.2187769948202D-01
   157  1.5600000000000D+00  8.7931971689969D-01  2.0327659137909D-01
   158  1.5700000000000D+00  9.0463173493492D-01  1.8497377190011D-01
   159  1.5800000000000D+00  9.2895419319584D-01  1.6698437224109D-01
   160  1.5900000000000D+00  9.5225020985635D-01  1.4932291520275D-01
   161  1.6000000000000D+00  9.7448513965620D-01  1.3200329709410D-01
   162  1.6100000000000D+00  9.9562662810439D-01  1.1503877096558D-01
   163  1.6200000000000D+00  1.0156446602312D+00  9.8441931167213D-02
   164  1.6300000000000D+00  1.0345116036621D+00  8.2224699288847D-02
   165  1.6400000000000D+00  1.0522022461163D+00  6.6398311465142D-02
   166  1.6500000000000D+00  1.0686938271206D+00  5.0973307098456D-02
   167  1.6600000000000D+00  1.0839660640673D+00  3.5959518975966D-02
   168  1.6700000000000D+00  1.0980011724425D+00  2.1366064826673D-02
   169  1.6800000000000D+00  1.1107838803770D+00  7.2013402887477D-03
   170  1.6900000000000D+00  1.1223014373758D+00 -6.5269866737624D-03
   171  1.7000000000000D+00  1.1325436174095D+00 -1.9811979941698D-02
   172  1.7100000000000D+00  1.1415027162447D+00 -3.2647437964755D-02
   173  1.7200000000000D+00  1.1491735432364D+00 -4.5027895084879D-02
   174  1.7300000000000D+00  1.1555534074699D+00 -5.6948621427058D-02
   175  1.7400000000000D+00  1.1606420985242D+00 -6.8405621415537D-02
   176  1.7500000000000D+00  1.1644418617429D+00 -7.9395630882843D-02
   177  1.7600000000000D+00  1.1669573683437D+00 -8.9916112843824D-02
   178  1.7700000000000D+00  1.1681956802428D+00 -9.9965251899236D-02
   179  1.7800000000000D+00  1.1681662099798D+00 -1.0954194735544D-01
   180  1.7900000000000D+00  1.1668806756250D+00 -1.1864580502449D-01
   181  1.8000000000000D+00  1.1643530510749D+00 -1.2727712779720D-01
   182  1.8100000000000D+00  1.1605995116682D+00 -1.3543690496538D-01
   183  1.8200000000000D+00  1.1556383754964D+00 -1.4312680037843D-01
   184  1.8300000000000D+00  1.1494900404316D+00 -1.5034913943181D-01
   185  1.8400000000000D+00  1.1421769171813D+00 -1.5710689495826D-01
   186  1.8500000000000D+00  1.1337233585016D+00 -1.6340367204516D-01
   187  1.8600000000000D+00  1.1241555848005D+00 -1.6924369182990D-01
   188  1.8700000000000D+00  1.1135016063719D+00 -1.7463177432490D-01
   189  1.8800000000000D+00  1.1017911424168D+00 -1.7957332030367D-01
   190  1.8900000000000D+00  1.0890555371843D+00 -1.8407429232601D-01
   191  1.9000000000000D+00  1.0753276733392D+00 -1.8814119491732D-01
   192  1.9100000000000D+00  1.0606418829321D+00 -1.9178105399587D-01
   193  1.9200000000000D+00  1.0450338560909D+00 -1.9500139556305D-01
   194  1.9300000000000D+00  1.0285405477750D+00 -1.9781022374348D-01
   195  1.9400000000000D+00  1.0112000827884D+00 -2.0021599821120D-01
   196  1.9500000000000D+00  9.9305165931929D-01 -2.0222761106713D-01
   197  1.9600000000000D+00  9.7413545126580D-01 -2.0385436322674D-01
   198  1.9700000000000D+00  9.5449250959404D-01 -2.0510594036955D-01
   199  1.9800000000000D+00  9.3416466296605D-01 -2.0599238851593D-01
   200  1.9900000000000D+00  9.1319441794301D-01 -2.0652408928675D-01
   201  2.0000000000000D+00  8.9162485893037D-01 -2.0671173490168D-01
   202  2.0100000000000D+00  8.6949954820615D-01 -2.0656630298238D-01
   203  2.0200000000000D+00  8.4686242621405D-01 -2.0609903121145D-01
   204  2.0300000000000D+00  8.2375771235923D-01 -2.0532139190464D-01
   205  2.0400000000000D+00  8.0022980665268D-01 -2.0424506656903D-01
   206  2.0500000000000D+00  7.7632319221735D-01 -2.0288192046959D-01
   207  2.0600000000000D+00  7.5208233917989D-01 -2.0124397730796D-01
   208  2.0700000000000D+00  7.2755160989031D-01 -1.9934339402108D-01
   209  2.0800000000000D+00  7.0277516583803D-01 -1.9719243577950D-01
   210  2.0900000000000D+00  6.7779687653791D-01 -1.9480345124989D-01
   211  2.1000000000000D+00  6.5266023026079D-01 -1.9218884811242D-01
   212  2.1100000000000D+00  6.2740824732919D-01 -1.8936106898113D-01
   213  2.1200000000000D+00  6.0208339561906D-01 -1.8633256767252D-01
   214  2.1300000000000D+00  5.7672750877618D-01 -1.8311578593207D-01
   215  2.1400000000000D+00  5.5138170734490D-01 -1.7972313066964D-01
   216  2.1500000000000D+00  5.2608632252173D-01 -1.7616695165865D-01
   217  2.1600000000000D+00  5.0088082341026D-01 -1.7245951988463D-01
   218  2.1700000000000D+00  4.7580374720149D-01 -1.6861300643929D-01
   219  2.1800000000000D+00  4.5089263275874D-01 -1.6463946206750D-01
   220  2.1900000000000D+00  4.2618395788574D-01 -1.6055079743505D-01
   221  2.2000000000000D+00  4.0171307975275D-01 -1.5635876401991D-01
   222  2.2100000000000D+00  3.7751417939096D-01 -1.5207493582567D-01
   223  2.2200000000000D+00  3.5362020974018D-01 -1.4771069182064D-01
   224  2.2300000000000D+00  3.3006284732145D-01 -1.4327719912755D-01
   225  2.2400000000000D+00  3.0687244820674D-01 -1.3878539711606D-01
   226  2.2500000000000D+00  2.8407800743142D-01 -1.3424598222680D-01
   227  2.2600000000000D+00  2.6170712256337D-01 -1.2966939368958D-01
   228  2.2700000000000D+00  2.3978596136661D-01 -1.2506580013282D-01
   229  2.2800000000000D+00  2.1833923294349D-01 -1.2044508695991D-01
   230  2.2900000000000D+00  1.9739016338086D-01 -1.1581684472705D-01
   231  2.3000000000000D+00  1.7696047508024D-01 -1.1119035835262D-01
   232  2.3100000000000D+00  1.5707036976939D-01 -1.0657459716642D-01
   233  2.3200000000000D+00  1.3773851592574D-01 -1.0197820597298D-01
   234  2.3300000000000D+00  1.1898203955774D-01 -9.7409496901823D-02
   235  2.3400000000000D+00  1.0081651884895D-01 -9.2876442169075D-02
   236  2.3500000000000D+00  8.3255982783425D-02 -8.8386667788706D-02
   237  2.3600000000000D+00  6.6312912926564D-02 -8.3947448052319D-02
   238  2.3700000000000D+00  4.9998249042711D-02 -7.9565700947858D-02
   239  2.3800000000000D+00  3.4321398195532D-02 -7.5247984445433D-02
   240  2.3900000000000D+00  1.9290246758710D-02 -7.1000493522586D-02
   241  2.4000000000000D+00  4.9111760785021D-03 -6.6829058122237D-02
   242  2.4100000000000D+00 -8.8109189116811D-03 -6.2739141884292D-02
   243  2.4200000000000D+00 -2.1872608458224D-02 -5.8735841576002D-02
   244  2.4300000000000D+00 -3.4271903440385D-02 -5.4823887415410D-02
   245  2.4400000000000D+00 -4.6008228432791D-02 -5.1007644062353D-02
   246  2.4500000000000D+00 -5.7082392406512D-02 -4.7291112278557D-02
   247  2.4600000000000D+00 -6.7496556712372D-02 -4.3677931376686D-02
   248  2.4700000000000D+00 -7.7254201106703D-02 -4.0171382259736D-02
   249  2.4800000000000D+00 -8.6360087801692D-02 -3.6774391069079D-02
   250  2.4900000000000D+00 -9.4820223444567D-02 -3.3489533501943D-02
   251  2.5000000000000D+00 -1.0264181955991D-01 -3.0319039643319D-02
   252  2.5100000000000D+00 -1.0983325148306D-01 -2.7264799324454D-02
   253  2.5200000000000D+00 -1.1640401587721D-01 -2.4328368026861D-02
   254  2.5300000000000D+00 -1.2236468714295D-01 -2.1510973220212D-02
   255  2.5400000000000D+00 -1.2772687281930D-01 -1.8813521132402D-02
   256  2.5500000000000D+00 -1.3250316823063D-01 -1.6236603937488D-02
   257  2.5600000000000D+00 -1.3670711045669D-01 -1.3780507293808D-02
   258  2.5700000000000D+00 -1.4035313178186D-01 -1.1445218216310D-02
   259  2.5800000000000D+00 -1.4345651306761D-01 -9.2304332343443D-03
   260  2.5900000000000D+00 -1.4603333687312D-01 -7.1355668142059D-03
   261  2.6000000000000D+00 -1.4810044047452D-01 -5.1597600252929D-03
   262  2.6100000000000D+00 -1.4967536951614D-01 -3.3018893515977D-03
   263  2.6200000000000D+00 -1.5077633182318D-01 -1.5605756820918D-03
   264  2.6300000000000D+00 -1.5142215140440D-01  6.5806526323196D-05
   265  2.6400000000000D+00 -1.5163222385566D-01  1.5791200937689D-03
   266  2.6500000000000D+00 -1.5142647851219D-01  2.9814567794314D-03
   267  2.6600000000000D+00 -1.5082531155734D-01  4.2751244929201D-03
   268  2.6700000000000D+00 -1.4984956915185D-01  5.4626417146904D-03
   269  2.6800000000000D+00 -1.4852054792953D-01  6.5467344825206D-03
   270  2.6900000000000D+00 -1.4685980559580D-01  7.5303045614694D-03
   271  2.7000000000000D+00 -1.4488924901300D-01  8.4164393752578D-03
   272  2.7100000000000D+00 -1.4263103640274D-01  9.2083943128204D-03
   273  2.7200000000000D+00 -1.4010776989595D-01  9.9096166222561D-03
   274  2.7300000000000D+00 -1.3734233156099D-01  1.0523717637255D-02
   275  2.7400000000000D+00 -1.3435756695551D-01  1.1054422270211D-02
   276  2.7500000000000D+00 -1.3117617578482D-01  1.1505549173419D-02
   277  2.7600000000000D+00 -1.2782052821663D-01  1.1880980557380D-02
   278  2.7700000000000D+00 -1.2431251171584D-01  1.2184631389494D-02
   279  2.7800000000000D+00 -1.2067348812590D-01  1.2420438104096D-02
   280  2.7900000000000D+00 -1.1692366277921D-01  1.2592259396965D-02
   281  2.8000000000000D+00 -1.1308254682549D-01  1.2703938267682D-02
   282  2.8100000000000D+00 -1.0916875306953D-01  1.2759265960257D-02
   283  2.8200000000000D+00 -1.0520014865505D-01  1.2761996748952D-02
   284  2.8300000000000D+00 -1.0119374465952D-01  1.2715826340685D-02
   285  2.8400000000000D+00 -9.7165651340858D-02  1.2624379503990D-02
   286  2.8500000000000D+00 -9.3131094937014D-02  1.2491206384553D-02
   287  2.8600000000000D+00 -8.9104420713090D-02  1.2319777049367D-02
   288  2.8700000000000D+00 -8.5099071031238D-02  1.2113472639508D-02
   289  2.8800000000000D+00 -8.1127589130084D-02  1.1875580298907D-02
   290  2.8900000000000D+00 -7.7201619160554D-02  1.1609287626953D-02
   291  2.9000000000000D+00 -7.3331911377906D-02  1.1317678142872D-02
   292  2.9100000000000D+00 -6.9528329135975D-02  1.1003727085346D-02
   293  2.9200000000000D+00 -6.5799858288436D-02  1.0670297676188D-02
   294  2.9300000000000D+00 -6.2154619779296D-02  1.0320138022364D-02
   295  2.9400000000000D+00 -5.8599885340437D-02  9.9558786485455D-03
   296  2.9500000000000D+00 -5.5142095342334D-02  9.5800304712710D-03
   297  2.9600000000000D+00 -5.1786878019455D-02  9.1949830502210D-03
   298  2.9700000000000D+00 -4.8539072921474D-02  8.8030037470267D-03
   299  2.9800000000000D+00 -4.5402755438645D-02  8.4062371187609D-03
   300  2.9900000000000D+00 -4.2381263203654D-02  8.0067047242709D-03
   301  3.0000000000000D+00 -3.9477224663557D-02  7.6063054255597D-03
   302  3.0100000000000D+00 -3.6692589774723D-02  7.2068161851726D-03
   303  3.0200000000000D+00 -3.4028661990517D-02  6.8098931848550D-03
   304  3.0300000000000D+00 -3.1486131243348D-02  6.4170731870461D-03
   305  3.0400000000000D+00 -2.9065109110685D-02  6.0297754692620D-03
   306  3.0500000000000D+00 -2.6765164658034D-02  5.6493039574908D-03
   307  3.0600000000000D+00 -2.4585361296423D-02  5.2768496547094D-03
   308  3.0700000000000D+00 -2.2524294435374D-02  4.9134933226520D-03
   309  3.0800000000000D+00 -2.0580129980429D-02  4.5602084823578D-03
   310  3.0900000000000D+00 -1.8750643151652D-02  4.2178645724069D-03
   311  3.1000000000000D+00 -1.7033257868265D-02  3.8872303155686D-03
   312  3.1100000000000D+00 -1.5425086088024D-02  3.5689772447917D-03
   313  3.1200000000000D+00 -1.3922967185364D-02  3.2636833676415D-03
   314  3.1300000000000D+00 -1.2523507080206D-02  2.9718369203592D-03
   315  3.1400000000000D+00 -1.1223117903643D-02  2.6938403153237D-03
   316  3.1500000000000D+00 -1.0018055873159D-02  2.4300139788568D-03
   317  3.1600000000000D+00 -8.9044592662390D-03  2.1806003099759D-03
   318  3.1700000000000D+00 -7.8783855767431D-03  1.9457676413660D-03
   319  3.1800000000000D+00 -6.9358485131120D-03  1.7256142959967D-03
   320  3.1900000000000D+00 -6.0728522370199D-03  1.5201723453265D-03
   321  3.2000000000000D+00 -5.2854254239122D-03  1.3294114521337D-03
   322  3.2100000000000D+00 -4.5696544380403D-03  1.1532426981843D-03
   323  3.2200000000000D+00 -3.9217149126267D-03  9.9152227846780D-04
   324  3.2300000000000D+00 -3.3379005358068D-03  8.4405486788601D-04
   325  3.2400000000000D+00 -2.8151306810475D-03  7.1069797821012D-04
   326  3.2500000000000D+00 -2.3496492868515D-03  5.9108560399272D-04
   327  3.2600000000000D+00 -1.9375561244178D-03  4.8473798739693D-04
   328  3.2700000000000D+00 -1.5757663676804D-03  3.9126179846886D-04
   329  3.2800000000000D+00 -1.2586065959209D-03  3.0957611761161D-04
   330  3.2900000000000D+00 -9.8752746074384D-04  2.4012569519859D-04
   331  3.3000000000000D+00 -7.6441261681827D-04  1.8335535256436D-04
   332  3.3100000000000D+00 -5.8860145930810D-04  1.3903452202956D-04
   333  3.3200000000000D+00 -4.6565624860286D-04  1.0835346841612D-04
   334  3.3300000000000D+00 -3.8023454659101D-04  8.7463832477052D-05
   335  3.3400000000000D+00 -3.1692601037228D-04  7.2475128223648D-05
   336  3.3500000000000D+00 -2.6329733574764D-04  6.0201773814497D-05
   337  3.3600000000000D+00 -1.9764833559881D-04  4.5232392545598D-05
   338  3.3700000000000D+00 -1.2828683699098D-04  2.9406575395697D-05
   339  3.3800000000000D+00 -6.3487874321275D-05  1.4586232477640D-05
   340  3.3900000000000D+00 -9.9703897045125D-06  2.2964350686504D-06
   341  3.4000000000000D+00  1.6097499201205D-05 -3.6687579751622D-06
   342  3.4100000000000D+00  2.2222825744084D-05 -5.0649671975861D-06
   343  3.4200000000000D+00  1.6154753700768D-05 -3.6823958843939D-06
   344  3.4300000000000D+00  3.9260688527152D-06 -8.9508210905142D-07
   345  3.4400000000000D+00 -3.1040775260938D-06  7.0422521809370D-07
   346  3.4500000000000D+00 -5.1340837015384D-06  1.1643587370445D-06
   347  3.4600000000000D+00 -4.2904275698507D-06  9.7271998544975D-07
   348  3.4700000000000D+00 -1.4470976877455D-06  3.2799251308911D-07
   349  3.4800000000000D+00  3.4424613888192D-07 -7.8752725260860D-08
   350  3.4900000000000D+00  6.8569918449198D-07 -1.5686647833809D-07
   351  3.5000000000000D+00  6.4593530461298D-07 -1.4776974912687D-07
   352  3.5100000000000D+00  2.8927774254936D-07 -6.6177679311273D-08
   353  3.5200000000000D+00  0.0000000000000D+00  0.0000000000000D+00
   354  3.5300000000000D+00  0.0000000000000D+00  0.0000000000000D+00
   355  3.5400000000000D+00  0.0000000000000D+00  0.0000000000000D+00
   356  3.5500000000000D+00  0.0000000000000D+00  0.0000000000000D+00
   357  3.5600000000000D+00  0.0000000000000D+00  0.0000000000000D+00
   358  3.5700000000000D+00  0.0000000000000D+00  0.0000000000000D+00
   359  3.5800000000000D+00  0.0000000000000D+00  0.0000000000000D+00
   360  3.5900000000000D+00  0.0000000000000D+00  0.0000000000000D+00
   361  3.6000000000000D+00  0.0000000000000D+00  0.0000000000000D+00
   362  3.6100000000000D+00  0.0000000000000D+00  0.0000000000000D+00
   363  3.6200000000000D+00  0.0000000000000D+00  0.0000000000000D+00
   364  3.6300000000000D+00  0.0000000000000D+00  0.0000000000000D+00
   365  3.6400000000000D+00  0.0000000000000D+00  0.0000000000000D+00
   366  3.6500000000000D+00  0.0000000000000D+00  0.0000000000000D+00
   367  3.6600000000000D+00  0.0000000000000D+00  0.0000000000000D+00
   368  3.6700000000000D+00  0.0000000000000D+00  0.0000000000000D+00
   369  3.6800000000000D+00  0.0000000000000D+00  0.0000000000000D+00
   370  3.6900000000000D+00  0.0000000000000D+00  0.0000000000000D+00
   371  3.7000000000000D+00  0.0000000000000D+00  0.0000000000000D+00
   372  3.7100000000000D+00  0.0000000000000D+00  0.0000000000000D+00
   373  3.7200000000000D+00  0.0000000000000D+00  0.0000000000000D+00
   374  3.7300000000000D+00  0.0000000000000D+00  0.0000000000000D+00
   375  3.7400000000000D+00  0.0000000000000D+00  0.0000000000000D+00
   376  3.7500000000000D+00  0.0000000000000D+00  0.0000000000000D+00
   377  3.7600000000000D+00  0.0000000000000D+00  0.0000000000000D+00
   378  3.7700000000000D+00  0.0000000000000D+00  0.0000000000000D+00
   379  3.7800000000000D+00  0.0000000000000D+00  0.0000000000000D+00
   380  3.7900000000000D+00  0.0000000000000D+00  0.0000000000000D+00
   381  3.8000000000000D+00  0.0000000000000D+00  0.0000000000000D+00
   382  3.8100000000000D+00  0.0000000000000D+00  0.0000000000000D+00
   383  3.8200000000000D+00  0.0000000000000D+00  0.0000000000000D+00
   384  3.8300000000000D+00  0.0000000000000D+00  0.0000000000000D+00
   385  3.8400000000000D+00  0.0000000000000D+00  0.0000000000000D+00
   386  3.8500000000000D+00  0.0000000000000D+00  0.0000000000000D+00
   387  3.8600000000000D+00  0.0000000000000D+00  0.0000000000000D+00
   388  3.8700000000000D+00  0.0000000000000D+00  0.0000000000000D+00
   389  3.8800000000000D+00  0.0000000000000D+00  0.0000000000000D+00
   390  3.8900000000000D+00  0.0000000000000D+00  0.0000000000000D+00
   391  3.9000000000000D+00  0.0000000000000D+00  0.0000000000000D+00
   392  3.9100000000000D+00  0.0000000000000D+00  0.0000000000000D+00
   393  3.9200000000000D+00  0.0000000000000D+00  0.0000000000000D+00
   394  3.9300000000000D+00  0.0000000000000D+00  0.0000000000000D+00
   395  3.9400000000000D+00  0.0000000000000D+00  0.0000000000000D+00
   396  3.9500000000000D+00  0.0000000000000D+00  0.0000000000000D+00
   397  3.9600000000000D+00  0.0000000000000D+00  0.0000000000000D+00
   398  3.9700000000000D+00  0.0000000000000D+00  0.0000000000000D+00
   399  3.9800000000000D+00  0.0000000000000D+00  0.0000000000000D+00
   400  3.9900000000000D+00  0.0000000000000D+00  0.0000000000000D+00
   401  4.0000000000000D+00  0.0000000000000D+00  0.0000000000000D+00
   402  4.0100000000000D+00  0.0000000000000D+00  0.0000000000000D+00
   403  4.0200000000000D+00  0.0000000000000D+00  0.0000000000000D+00
   404  4.0300000000000D+00  0.0000000000000D+00  0.0000000000000D+00
   405  4.0400000000000D+00  0.0000000000000D+00  0.0000000000000D+00
   406  4.0500000000000D+00  0.0000000000000D+00  0.0000000000000D+00
   407  4.0600000000000D+00  0.0000000000000D+00  0.0000000000000D+00
   408  4.0700000000000D+00  0.0000000000000D+00  0.0000000000000D+00
   409  4.0800000000000D+00  0.0000000000000D+00  0.0000000000000D+00
   410  4.0900000000000D+00  0.0000000000000D+00  0.0000000000000D+00
   411  4.1000000000000D+00  0.0000000000000D+00  0.0000000000000D+00
   412  4.1100000000000D+00  0.0000000000000D+00  0.0000000000000D+00
   413  4.1200000000000D+00  0.0000000000000D+00  0.0000000000000D+00
   414  4.1300000000000D+00  0.0000000000000D+00  0.0000000000000D+00
   415  4.1400000000000D+00  0.0000000000000D+00  0.0000000000000D+00
   416  4.1500000000000D+00  0.0000000000000D+00  0.0000000000000D+00
   417  4.1600000000000D+00  0.0000000000000D+00  0.0000000000000D+00
   418  4.1700000000000D+00  0.0000000000000D+00  0.0000000000000D+00
   419  4.1800000000000D+00  0.0000000000000D+00  0.0000000000000D+00
   420  4.1900000000000D+00  0.0000000000000D+00  0.0000000000000D+00
   421  4.2000000000000D+00  0.0000000000000D+00  0.0000000000000D+00
   422  4.2100000000000D+00  0.0000000000000D+00  0.0000000000000D+00