W     ONCVPSP-3.3.1  r_core=   2.17082   2.22323   1.90387   3.06802
     74.0000     28.0000      210904    zatom,zion,pspd
     8       2   3     4   600     0    pspcod,pspxc,lmax,lloc,mmax,r2well
  5.99000000  0.00000000  0.00000000    rchrg fchrg qchrg
     2     2     2     2     0    nproj
     1     1           extension_switch
   0                         7.9070787893130D+00  9.3737246898400D-01
     1  0.0000000000000D+00  9.6095353896430D-12 -1.9968235398515D-11
     2  1.0000000000000D-02  6.1109613265441D-02 -1.4778620636602D-02
     3  2.0000000000000D-02  1.2211805829972D-01 -2.9486276077644D-02
     4  3.0000000000000D-02  1.8292433214055D-01 -4.4052132713066D-02
     5  4.0000000000000D-02  2.4342776233732D-01 -5.8405620343708D-02
     6  5.0000000000000D-02  3.0352817213942D-01 -7.2476564481362D-02
     7  6.0000000000000D-02  3.6312604559664D-01 -8.6195319348102D-02
     8  7.0000000000000D-02  4.2212269253084D-01 -9.9492901784253D-02
     9  8.0000000000000D-02  4.8042041332870D-01 -1.1230112625443D-01
    10  9.0000000000000D-02  5.3792266349328D-01 -1.2455274111635D-01
    11  1.0000000000000D-01  5.9453421787807D-01 -1.3618156628799D-01
    12  1.1000000000000D-01  6.5016133451163D-01 -1.4712263241542D-01
    13  1.2000000000000D-01  7.0471191790262D-01 -1.5731232160639D-01
    14  1.3000000000000D-01  7.5809568169604D-01 -1.6668850975411D-01
    15  1.4000000000000D-01  8.1022431053020D-01 -1.7519071043181D-01
    16  1.5000000000000D-01  8.6101162092231D-01 -1.8276022029181D-01
    17  1.6000000000000D-01  9.1037372098675D-01 -1.8934026585440D-01
    18  1.7000000000000D-01  9.5822916876673D-01 -1.9487615152032D-01
    19  1.8000000000000D-01  1.0044991289353D+00 -1.9931540858896D-01
    20  1.9000000000000D-01  1.0491075275966D+00 -2.0260794501113D-01
    21  2.0000000000000D-01  1.0919812048944D+00 -2.0470619555161D-01
    22  2.1000000000000D-01  1.1330500651085D+00 -2.0556527198353D-01
    23  2.2000000000000D-01  1.1722472238985D+00 -2.0514311288378D-01
    24  2.3000000000000D-01  1.2095091523277D+00 -2.0340063254722D-01
    25  2.4000000000000D-01  1.2447758172799D+00 -2.0030186848751D-01
    26  2.5000000000000D-01  1.2779908178622D+00 -1.9581412694498D-01
    27  2.6000000000000D-01  1.3091015173620D+00 -1.8990812577670D-01
    28  2.7000000000000D-01  1.3380591703176D+00 -1.8255813406273D-01
    29  2.8000000000000D-01  1.3648190442372D+00 -1.7374210772399D-01
    30  2.9000000000000D-01  1.3893405354953D+00 -1.6344182041382D-01
    31  3.0000000000000D-01  1.4115872789207D+00 -1.5164298891562D-01
    32  3.1000000000000D-01  1.4315272505838D+00 -1.3833539225471D-01
    33  3.2000000000000D-01  1.4491328632865D+00 -1.2351298371358D-01
    34  3.3000000000000D-01  1.4643810542551D+00 -1.0717399492600D-01
    35  3.4000000000000D-01  1.4772533645381D+00 -8.9321031218142D-02
    36  3.5000000000000D-01  1.4877360096164D+00 -6.9961157363324D-02
    37  3.6000000000000D-01  1.4958199407402D+00 -4.9105972921885D-02
    38  3.7000000000000D-01  1.5015008965207D+00 -2.6771676349275D-02
    39  3.8000000000000D-01  1.5047794443159D+00 -2.9791170732779D-03
    40  3.9000000000000D-01  1.5056610109737D+00  2.2246165233958D-02
    41  4.0000000000000D-01  1.5041559025144D+00  4.8873914932149D-02
    42  4.1000000000000D-01  1.5002793123604D+00  7.6869148942400D-02
    43  4.2000000000000D-01  1.4940513177544D+00  1.0619216019090D-01
    44  4.3000000000000D-01  1.4854968640340D+00  1.3679853657649D-01
    45  4.4000000000000D-01  1.4746457364738D+00  1.6863919601538D-01
    46  4.5000000000000D-01  1.4615325194387D+00  2.0166043805278D-01
    47  4.6000000000000D-01  1.4461965426408D+00  2.3580401246349D-01
    48  4.7000000000000D-01  1.4286818143321D+00  2.7100720518894D-01
    49  4.8000000000000D-01  1.4090369413173D+00  3.0720294188031D-01
    50  4.9000000000000D-01  1.3873150357189D+00  3.4431990923338D-01
    51  5.0000000000000D-01  1.3635736084807D+00  3.8228269421467D-01
    52  5.1000000000000D-01  1.3378744496480D+00  4.2101194118657D-01
    53  5.2000000000000D-01  1.3102834955221D+00  4.6042452684677D-01
    54  5.3000000000000D-01  1.2808706828413D+00  5.0043375280057D-01
    55  5.4000000000000D-01  1.2497097901998D+00  5.4094955548708D-01
    56  5.5000000000000D-01  1.2168782669740D+00  5.8187873308126D-01
    57  5.6000000000000D-01  1.1824570500872D+00  6.2312518889467D-01
    58  5.7000000000000D-01  1.1465303690000D+00  6.6459019069751D-01
    59  5.8000000000000D-01  1.1091855393736D+00  7.0617264528686D-01
    60  5.9000000000000D-01  1.0705127459129D+00  7.4776938752788D-01
    61  6.0000000000000D-01  1.0306048149490D+00  7.8927548300009D-01
    62  6.1000000000000D-01  9.8955697738129D-01  8.3058454328831D-01
    63  6.2000000000000D-01  9.4746662264863D-01  8.7158905286828D-01
    64  6.3000000000000D-01  9.0443304445246D-01  9.1218070645290D-01
    65  6.4000000000000D-01  8.6055717900360D-01  9.5225075558332D-01
    66  6.5000000000000D-01  8.1594133660959D-01  9.9169036317522D-01
    67  6.6000000000000D-01  7.7068892746299D-01  1.0303909646602D+00
    68  6.7000000000000D-01  7.2490418253006D-01  1.0682446342997D+00
    69  6.8000000000000D-01  6.7869187047488D-01  1.1051444551926D+00
    70  6.9000000000000D-01  6.3215701158553D-01  1.1409848914485D+00
    71  7.0000000000000D-01  5.8540458969628D-01  1.1756621609581D+00
    72  7.1000000000000D-01  5.3853926312256D-01  1.2090746071575D+00
    73  7.2000000000000D-01  4.9166507564334D-01  1.2411230681619D+00
    74  7.3000000000000D-01  4.4488516857929D-01  1.2717112416237D+00
    75  7.4000000000000D-01  3.9830149502284D-01  1.3007460436670D+00
    76  7.5000000000000D-01  3.5201453727977D-01  1.3281379602511D+00
    77  7.6000000000000D-01  3.0612302857986D-01  1.3538013893260D+00
    78  7.7000000000000D-01  2.6072368010669D-01  1.3776549721658D+00
    79  7.8000000000000D-01  2.1591091438436D-01  1.3996219122934D+00
    80  7.9000000000000D-01  1.7177660604103D-01  1.4196302804513D+00
    81  8.0000000000000D-01  1.2840983094614D-01  1.4376133041191D+00
    82  8.1000000000000D-01  8.5896624690014D-02  1.4535096401376D+00
    83  8.2000000000000D-01  4.4319751341597D-02  1.4672636290639D+00
    84  8.3000000000000D-01  3.7584833816895D-03  1.4788255299556D+00
    85  8.4000000000000D-01 -3.5711606333441D-02  1.4881517343654D+00
    86  8.5000000000000D-01 -7.4018839770694D-02  1.4952049584165D+00
    87  8.6000000000000D-01 -1.1109561532517D-01  1.4999544119247D+00
    88  8.7000000000000D-01 -1.4687857513144D-01  1.5023759436392D+00
    89  8.8000000000000D-01 -1.8130875744029D-01  1.5024521617793D+00
    90  8.9000000000000D-01 -2.1433173348320D-01  1.5001725291644D+00
    91  9.0000000000000D-01 -2.4589772831273D-01  1.4955334323472D+00
    92  9.1000000000000D-01 -2.7596172517582D-01  1.4885382242908D+00
    93  9.2000000000000D-01 -3.0448355304848D-01  1.4791972402523D+00
    94  9.3000000000000D-01 -3.3142795703332D-01  1.4675277866666D+00
    95  9.4000000000000D-01 -3.5676465139691D-01  1.4535541029569D+00
    96  9.5000000000000D-01 -3.8046835509948D-01  1.4373072963286D+00
    97  9.6000000000000D-01 -4.0251880974682D-01  1.4188252497382D+00
    98  9.7000000000000D-01 -4.2290077997213D-01  1.3981525033606D+00
    99  9.8000000000000D-01 -4.4160403633222D-01  1.3753401100082D+00
   100  9.9000000000000D-01 -4.5862332088008D-01  1.3504454650868D+00
   101  1.0000000000000D+00 -4.7395829565160D-01  1.3235321117965D+00
   102  1.0100000000000D+00 -4.8761347437875D-01  1.2946695224108D+00
   103  1.0200000000000D+00 -4.9959813781670D-01  1.2639328565852D+00
   104  1.0300000000000D+00 -5.0992623313855D-01  1.2314026977558D+00
   105  1.0400000000000D+00 -5.1861625792554D-01  1.1971647688011D+00
   106  1.0500000000000D+00 -5.2569112934227D-01  1.1613096282381D+00
   107  1.0600000000000D+00 -5.3117803915001D-01  1.1239323483166D+00
   108  1.0700000000000D+00 -5.3510829527037D-01  1.0851321764642D+00
   109  1.0800000000000D+00 -5.3751715066491D-01  1.0450121816084D+00
   110  1.0900000000000D+00 -5.3844362034679D-01  1.0036788869733D+00
   111  1.1000000000000D+00 -5.3793028738913D-01  9.6124189100906D-01
   112  1.1100000000000D+00 -5.3602309883243D-01  9.1781347815971D-01
   113  1.1200000000000D+00 -5.3277115243320D-01  8.7350822121728D-01
   114  1.1300000000000D+00 -5.2822647522105D-01  8.2844257703604D-01
   115  1.1400000000000D+00 -5.2244379486517D-01  7.8273447740688D-01
   116  1.1500000000000D+00 -5.1548030486546D-01  7.3650291689605D-01
   117  1.1600000000000D+00 -5.0739542459997D-01  6.8986753944809D-01
   118  1.1700000000000D+00 -4.9825055526890D-01  6.4294822555064D-01
   119  1.1800000000000D+00 -4.8810883278093D-01  5.9586468172683D-01
   120  1.1900000000000D+00 -4.7703487862228D-01  5.4873603408961D-01
   121  1.2000000000000D+00 -4.6509454974105D-01  5.0168042764819D-01
   122  1.2100000000000D+00 -4.5235468847188D-01  4.5481463301677D-01
   123  1.2200000000000D+00 -4.3888287350032D-01  4.0825366209383D-01
   124  1.2300000000000D+00 -4.2474717283694D-01  3.6211039419888D-01
   125  1.2400000000000D+00 -4.1001589976625D-01  3.1649521413218D-01
   126  1.2500000000000D+00 -3.9475737267302D-01  2.7151566345946D-01
   127  1.2600000000000D+00 -3.7903967961424D-01  2.2727610624487D-01
   128  1.2700000000000D+00 -3.6293044849043D-01  1.8387741041542D-01
   129  1.2800000000000D+00 -3.4649662358925D-01  1.4141664574888D-01
   130  1.2900000000000D+00 -3.2980424921870D-01  9.9986799358701D-02
   131  1.3000000000000D+00 -3.1291826114540D-01  5.9676509540201D-02
   132  1.3100000000000D+00 -2.9590228643854D-01  2.0569818590118D-02
   133  1.3200000000000D+00 -2.7881845225460D-01 -1.7254054919506D-02
   134  1.3300000000000D+00 -2.6172720412638D-01 -5.3720923879010D-02
   135  1.3400000000000D+00 -2.4468713413104D-01 -8.8761820246805D-02
   136  1.3500000000000D+00 -2.2775481930642D-01 -1.2231316237998D-01
   137  1.3600000000000D+00 -2.1098467067590D-01 -1.5431690197605D-01
   138  1.3700000000000D+00 -1.9442879302437D-01 -1.8472065093344D-01
   139  1.3800000000000D+00 -1.7813685564906D-01 -2.1347778827696D-01
   140  1.3900000000000D+00 -1.6215597418354D-01 -2.4054754754457D-01
   141  1.4000000000000D+00 -1.4653060343571D-01 -2.6589508530954D-01
   142  1.4100000000000D+00 -1.3130244133620D-01 -2.8949153123773D-01
   143  1.4200000000000D+00 -1.1651034375733D-01 -3.1131402068454D-01
   144  1.4300000000000D+00 -1.0219025009825D-01 -3.3134571058154D-01
   145  1.4400000000000D+00 -8.8375119429047D-02 -3.4957577956493D-01
   146  1.4500000000000D+00 -7.5094876784249D-02 -3.6599941360710D-01
   147  1.4600000000000D+00 -6.2376369431363D-02 -3.8061777805240D-01
   148  1.4700000000000D+00 -5.0243332532803D-02 -3.9343797759135D-01
   149  1.4800000000000D+00 -3.8716363877768D-02 -4.0447300530084D-01
   150  1.4900000000000D+00 -2.7812907127519D-02 -4.1374168224795D-01
   151  1.5000000000000D+00 -1.7547243017666D-02 -4.2126858910235D-01
   152  1.5100000000000D+00 -7.9304880128058D-03 -4.2708399119874D-01
   153  1.5200000000000D+00  1.0294003187700D-03 -4.3122375867673D-01
   154  1.5300000000000D+00  9.3276117146376D-03 -4.3372928316468D-01
   155  1.5400000000000D+00  1.6962466209839D-02 -4.3464739265743D-01
   156  1.5500000000000D+00  2.3935392294627D-02 -4.3403026612513D-01
   157  1.5600000000000D+00  3.0250901011323D-02 -4.3193534945596D-01
   158  1.5700000000000D+00  3.5916556653013D-02 -4.2842527425667D-01
   159  1.5800000000000D+00  4.0942944819566D-02 -4.2356778111755D-01
   160  1.5900000000000D+00  4.5343638504117D-02 -4.1743564869664D-01
   161  1.6000000000000D+00  4.9135166817220D-02 -4.1010664215182D-01
   162  1.6100000000000D+00  5.2336960970133D-02 -4.0166340169619D-01
   163  1.6200000000000D+00  5.4971378785674D-02 -3.9219358210155D-01
   164  1.6300000000000D+00  5.7063512527036D-02 -3.8178933894409D-01
   165  1.6400000000000D+00  5.8641297891972D-02 -3.7054773522639D-01
   166  1.6500000000000D+00  5.9735834888169D-02 -3.5857183296711D-01
   167  1.6600000000000D+00  6.0380280244833D-02 -3.4596736418704D-01
   168  1.6700000000000D+00  6.0608989796735D-02 -3.3284017159311D-01
   169  1.6800000000000D+00  6.0456657480847D-02 -3.1929377481052D-01
   170  1.6900000000000D+00  5.9957079279085D-02 -3.0542576865995D-01
   171  1.7000000000000D+00  5.9143345819634D-02 -2.9132865417803D-01
   172  1.7100000000000D+00  5.8047906154913D-02 -2.7709029993085D-01
   173  1.7200000000000D+00  5.6702257680896D-02 -2.6279320468827D-01
   174  1.7300000000000D+00  5.5136917711821D-02 -2.4851464612817D-01
   175  1.7400000000000D+00  5.3381303056545D-02 -2.3432653404735D-01
   176  1.7500000000000D+00  5.1463648154631D-02 -2.2029537852151D-01
   177  1.7600000000000D+00  4.9410929190151D-02 -2.0648226948736D-01
   178  1.7700000000000D+00  4.7248797775492D-02 -1.9294287959482D-01
   179  1.7800000000000D+00  4.5001525276612D-02 -1.7972749221222D-01
   180  1.7900000000000D+00  4.2691956743075D-02 -1.6688105196404D-01
   181  1.8000000000000D+00  4.0341475156132D-02 -1.5444323883617D-01
   182  1.8100000000000D+00  3.7969975111306D-02 -1.4244856358812D-01
   183  1.8200000000000D+00  3.5595846236288D-02 -1.3092648461972D-01
   184  1.8300000000000D+00  3.3235965723558D-02 -1.1990154459795D-01
   185  1.8400000000000D+00  3.0905699786703D-02 -1.0939352597982D-01
   186  1.8500000000000D+00  2.8618913758220D-02 -9.9417624417405D-02
   187  1.8600000000000D+00  2.6387990120966D-02 -8.9984638179108D-02
   188  1.8700000000000D+00  2.4223854536409D-02 -8.1101173205412D-02
   189  1.8800000000000D+00  2.2136008713322D-02 -7.2769861149558D-02
   190  1.8900000000000D+00  2.0132570397090D-02 -6.4989590330447D-02
   191  1.9000000000000D+00  1.8220319155417D-02 -5.7755746767871D-02
   192  1.9100000000000D+00  1.6404748082423D-02 -5.1060464817506D-02
   193  1.9200000000000D+00  1.4690120357512D-02 -4.4892885153080D-02
   194  1.9300000000000D+00  1.3079530326904D-02 -3.9239418785399D-02
   195  1.9400000000000D+00  1.1574968434631D-02 -3.4084015503181D-02
   196  1.9500000000000D+00  1.0177389333146D-02 -2.9408435043860D-02
   197  1.9600000000000D+00  8.8867826228093D-03 -2.5192519279922D-02
   198  1.9700000000000D+00  7.7022456208821D-03 -2.1414464351344D-02
   199  1.9800000000000D+00  6.6220573531464D-03 -1.8051090105730D-02
   200  1.9900000000000D+00  5.6437534893141D-03 -1.5078106707259D-02
   201  2.0000000000000D+00  4.7642012267068D-03 -1.2470375498930D-02
   202  2.0100000000000D+00  3.9796738143455D-03 -1.0202163562185D-02
   203  2.0200000000000D+00  3.2859241486324D-03 -8.2473905887708D-03
   204  2.0300000000000D+00  2.6782564154697D-03 -6.5798653232223D-03
   205  2.0400000000000D+00  2.1515962388944D-03 -5.1735130965772D-03
   206  2.0500000000000D+00  1.7005574539111D-03 -4.0025894259782D-03
   207  2.0600000000000D+00  1.3195063684185D-03 -3.0418821865610D-03
   208  2.0700000000000D+00  1.0026222481620D-03 -2.2668991036372D-03
   209  2.0800000000000D+00  7.4395347872792D-04 -1.6540392508513D-03
   210  2.0900000000000D+00  5.3747031049882D-04 -1.1807510176728D-03
   211  2.1000000000000D+00  3.7714865317123D-04 -8.2582480846851D-04
   212  2.1100000000000D+00  2.5688843061264D-04 -5.6899592010398D-04
   213  2.1200000000000D+00  1.7058619852799D-04 -3.9122431968771D-04
   214  2.1300000000000D+00  1.1181831507277D-04 -2.7381141364822D-04
   215  2.1400000000000D+00  7.6293635187101D-05 -2.0620610770119D-04
   216  2.1500000000000D+00  5.9804161893622D-05 -1.7904167581864D-04
   217  2.1600000000000D+00  5.4137859845835D-05 -1.7164322600590D-04
   218  2.1700000000000D+00  4.8177616425199D-05 -1.5488437210394D-04
   219  2.1800000000000D+00  3.1562924714476D-05 -1.0164455040950D-04
   220  2.1900000000000D+00  1.1604699120450D-05 -3.7270422403280D-05
   221  2.2000000000000D+00 -2.4674258434541D-06  8.0186159239934D-06
   222  2.2100000000000D+00 -4.7944707297238D-06  1.5586781873624D-05
   223  2.2200000000000D+00 -1.4773120103093D-06  4.8024657053909D-06
   224  2.2300000000000D+00  8.6409149948973D-07 -2.8295724595417D-06
   225  2.2400000000000D+00  9.4433281671851D-07 -3.0953689669911D-06
   226  2.2500000000000D+00 -1.7655341381329D-09  5.6759856282145D-09
   227  2.2600000000000D+00 -1.2820828338256D-07  4.1217462646575D-07
   228  2.2700000000000D+00 -9.2101652964131D-08  2.9609603534036D-07
   229  2.2800000000000D+00  0.0000000000000D+00  0.0000000000000D+00
   230  2.2900000000000D+00  0.0000000000000D+00  0.0000000000000D+00
   231  2.3000000000000D+00  0.0000000000000D+00  0.0000000000000D+00
   232  2.3100000000000D+00  0.0000000000000D+00  0.0000000000000D+00
   233  2.3200000000000D+00  0.0000000000000D+00  0.0000000000000D+00
   234  2.3300000000000D+00  0.0000000000000D+00  0.0000000000000D+00
   235  2.3400000000000D+00  0.0000000000000D+00  0.0000000000000D+00
   236  2.3500000000000D+00  0.0000000000000D+00  0.0000000000000D+00
   237  2.3600000000000D+00  0.0000000000000D+00  0.0000000000000D+00
   238  2.3700000000000D+00  0.0000000000000D+00  0.0000000000000D+00
   239  2.3800000000000D+00  0.0000000000000D+00  0.0000000000000D+00
   240  2.3900000000000D+00  0.0000000000000D+00  0.0000000000000D+00
   241  2.4000000000000D+00  0.0000000000000D+00  0.0000000000000D+00
   242  2.4100000000000D+00  0.0000000000000D+00  0.0000000000000D+00
   243  2.4200000000000D+00  0.0000000000000D+00  0.0000000000000D+00
   244  2.4300000000000D+00  0.0000000000000D+00  0.0000000000000D+00
   245  2.4400000000000D+00  0.0000000000000D+00  0.0000000000000D+00
   246  2.4500000000000D+00  0.0000000000000D+00  0.0000000000000D+00
   247  2.4600000000000D+00  0.0000000000000D+00  0.0000000000000D+00
   248  2.4700000000000D+00  0.0000000000000D+00  0.0000000000000D+00
   249  2.4800000000000D+00  0.0000000000000D+00  0.0000000000000D+00
   250  2.4900000000000D+00  0.0000000000000D+00  0.0000000000000D+00
   251  2.5000000000000D+00  0.0000000000000D+00  0.0000000000000D+00
   252  2.5100000000000D+00  0.0000000000000D+00  0.0000000000000D+00
   253  2.5200000000000D+00  0.0000000000000D+00  0.0000000000000D+00
   254  2.5300000000000D+00  0.0000000000000D+00  0.0000000000000D+00
   255  2.5400000000000D+00  0.0000000000000D+00  0.0000000000000D+00
   256  2.5500000000000D+00  0.0000000000000D+00  0.0000000000000D+00
   257  2.5600000000000D+00  0.0000000000000D+00  0.0000000000000D+00
   258  2.5700000000000D+00  0.0000000000000D+00  0.0000000000000D+00
   259  2.5800000000000D+00  0.0000000000000D+00  0.0000000000000D+00
   260  2.5900000000000D+00  0.0000000000000D+00  0.0000000000000D+00
   261  2.6000000000000D+00  0.0000000000000D+00  0.0000000000000D+00
   262  2.6100000000000D+00  0.0000000000000D+00  0.0000000000000D+00
   263  2.6200000000000D+00  0.0000000000000D+00  0.0000000000000D+00
   264  2.6300000000000D+00  0.0000000000000D+00  0.0000000000000D+00
   265  2.6400000000000D+00  0.0000000000000D+00  0.0000000000000D+00
   266  2.6500000000000D+00  0.0000000000000D+00  0.0000000000000D+00
   267  2.6600000000000D+00  0.0000000000000D+00  0.0000000000000D+00
   268  2.6700000000000D+00  0.0000000000000D+00  0.0000000000000D+00
   269  2.6800000000000D+00  0.0000000000000D+00  0.0000000000000D+00
   270  2.6900000000000D+00  0.0000000000000D+00  0.0000000000000D+00
   271  2.7000000000000D+00  0.0000000000000D+00  0.0000000000000D+00
   272  2.7100000000000D+00  0.0000000000000D+00  0.0000000000000D+00
   273  2.7200000000000D+00  0.0000000000000D+00  0.0000000000000D+00
   274  2.7300000000000D+00  0.0000000000000D+00  0.0000000000000D+00
   275  2.7400000000000D+00  0.0000000000000D+00  0.0000000000000D+00
   276  2.7500000000000D+00  0.0000000000000D+00  0.0000000000000D+00
   277  2.7600000000000D+00  0.0000000000000D+00  0.0000000000000D+00
   278  2.7700000000000D+00  0.0000000000000D+00  0.0000000000000D+00
   279  2.7800000000000D+00  0.0000000000000D+00  0.0000000000000D+00
   280  2.7900000000000D+00  0.0000000000000D+00  0.0000000000000D+00
   281  2.8000000000000D+00  0.0000000000000D+00  0.0000000000000D+00
   282  2.8100000000000D+00  0.0000000000000D+00  0.0000000000000D+00
   283  2.8200000000000D+00  0.0000000000000D+00  0.0000000000000D+00
   284  2.8300000000000D+00  0.0000000000000D+00  0.0000000000000D+00
   285  2.8400000000000D+00  0.0000000000000D+00  0.0000000000000D+00
   286  2.8500000000000D+00  0.0000000000000D+00  0.0000000000000D+00
   287  2.8600000000000D+00  0.0000000000000D+00  0.0000000000000D+00
   288  2.8700000000000D+00  0.0000000000000D+00  0.0000000000000D+00
   289  2.8800000000000D+00  0.0000000000000D+00  0.0000000000000D+00
   290  2.8900000000000D+00  0.0000000000000D+00  0.0000000000000D+00
   291  2.9000000000000D+00  0.0000000000000D+00  0.0000000000000D+00
   292  2.9100000000000D+00  0.0000000000000D+00  0.0000000000000D+00
   293  2.9200000000000D+00  0.0000000000000D+00  0.0000000000000D+00
   294  2.9300000000000D+00  0.0000000000000D+00  0.0000000000000D+00
   295  2.9400000000000D+00  0.0000000000000D+00  0.0000000000000D+00
   296  2.9500000000000D+00  0.0000000000000D+00  0.0000000000000D+00
   297  2.9600000000000D+00  0.0000000000000D+00  0.0000000000000D+00
   298  2.9700000000000D+00  0.0000000000000D+00  0.0000000000000D+00
   299  2.9800000000000D+00  0.0000000000000D+00  0.0000000000000D+00
   300  2.9900000000000D+00  0.0000000000000D+00  0.0000000000000D+00
   301  3.0000000000000D+00  0.0000000000000D+00  0.0000000000000D+00
   302  3.0100000000000D+00  0.0000000000000D+00  0.0000000000000D+00
   303  3.0200000000000D+00  0.0000000000000D+00  0.0000000000000D+00
   304  3.0300000000000D+00  0.0000000000000D+00  0.0000000000000D+00
   305  3.0400000000000D+00  0.0000000000000D+00  0.0000000000000D+00
   306  3.0500000000000D+00  0.0000000000000D+00  0.0000000000000D+00
   307  3.0600000000000D+00  0.0000000000000D+00  0.0000000000000D+00
   308  3.0700000000000D+00  0.0000000000000D+00  0.0000000000000D+00
   309  3.0800000000000D+00  0.0000000000000D+00  0.0000000000000D+00
   310  3.0900000000000D+00  0.0000000000000D+00  0.0000000000000D+00
   311  3.1000000000000D+00  0.0000000000000D+00  0.0000000000000D+00
   312  3.1100000000000D+00  0.0000000000000D+00  0.0000000000000D+00
   313  3.1200000000000D+00  0.0000000000000D+00  0.0000000000000D+00
   314  3.1300000000000D+00  0.0000000000000D+00  0.0000000000000D+00
   315  3.1400000000000D+00  0.0000000000000D+00  0.0000000000000D+00
   316  3.1500000000000D+00  0.0000000000000D+00  0.0000000000000D+00
   317  3.1600000000000D+00  0.0000000000000D+00  0.0000000000000D+00
   318  3.1700000000000D+00  0.0000000000000D+00  0.0000000000000D+00
   319  3.1800000000000D+00  0.0000000000000D+00  0.0000000000000D+00
   320  3.1900000000000D+00  0.0000000000000D+00  0.0000000000000D+00
   321  3.2000000000000D+00  0.0000000000000D+00  0.0000000000000D+00
   322  3.2100000000000D+00  0.0000000000000D+00  0.0000000000000D+00
   323  3.2200000000000D+00  0.0000000000000D+00  0.0000000000000D+00
   324  3.2300000000000D+00  0.0000000000000D+00  0.0000000000000D+00
   325  3.2400000000000D+00  0.0000000000000D+00  0.0000000000000D+00
   326  3.2500000000000D+00  0.0000000000000D+00  0.0000000000000D+00
   327  3.2600000000000D+00  0.0000000000000D+00  0.0000000000000D+00
   328  3.2700000000000D+00  0.0000000000000D+00  0.0000000000000D+00
   329  3.2800000000000D+00  0.0000000000000D+00  0.0000000000000D+00
   330  3.2900000000000D+00  0.0000000000000D+00  0.0000000000000D+00
   331  3.3000000000000D+00  0.0000000000000D+00  0.0000000000000D+00
   332  3.3100000000000D+00  0.0000000000000D+00  0.0000000000000D+00
   333  3.3200000000000D+00  0.0000000000000D+00  0.0000000000000D+00
   334  3.3300000000000D+00  0.0000000000000D+00  0.0000000000000D+00
   335  3.3400000000000D+00  0.0000000000000D+00  0.0000000000000D+00
   336  3.3500000000000D+00  0.0000000000000D+00  0.0000000000000D+00
   337  3.3600000000000D+00  0.0000000000000D+00  0.0000000000000D+00
   338  3.3700000000000D+00  0.0000000000000D+00  0.0000000000000D+00
   339  3.3800000000000D+00  0.0000000000000D+00  0.0000000000000D+00
   340  3.3900000000000D+00  0.0000000000000D+00  0.0000000000000D+00
   341  3.4000000000000D+00  0.0000000000000D+00  0.0000000000000D+00
   342  3.4100000000000D+00  0.0000000000000D+00  0.0000000000000D+00
   343  3.4200000000000D+00  0.0000000000000D+00  0.0000000000000D+00
   344  3.4300000000000D+00  0.0000000000000D+00  0.0000000000000D+00
   345  3.4400000000000D+00  0.0000000000000D+00  0.0000000000000D+00
   346  3.4500000000000D+00  0.0000000000000D+00  0.0000000000000D+00
   347  3.4600000000000D+00  0.0000000000000D+00  0.0000000000000D+00
   348  3.4700000000000D+00  0.0000000000000D+00  0.0000000000000D+00
   349  3.4800000000000D+00  0.0000000000000D+00  0.0000000000000D+00
   350  3.4900000000000D+00  0.0000000000000D+00  0.0000000000000D+00
   351  3.5000000000000D+00  0.0000000000000D+00  0.0000000000000D+00
   352  3.5100000000000D+00  0.0000000000000D+00  0.0000000000000D+00
   353  3.5200000000000D+00  0.0000000000000D+00  0.0000000000000D+00
   354  3.5300000000000D+00  0.0000000000000D+00  0.0000000000000D+00
   355  3.5400000000000D+00  0.0000000000000D+00  0.0000000000000D+00
   356  3.5500000000000D+00  0.0000000000000D+00  0.0000000000000D+00
   357  3.5600000000000D+00  0.0000000000000D+00  0.0000000000000D+00
   358  3.5700000000000D+00  0.0000000000000D+00  0.0000000000000D+00
   359  3.5800000000000D+00  0.0000000000000D+00  0.0000000000000D+00
   360  3.5900000000000D+00  0.0000000000000D+00  0.0000000000000D+00
   361  3.6000000000000D+00  0.0000000000000D+00  0.0000000000000D+00
   362  3.6100000000000D+00  0.0000000000000D+00  0.0000000000000D+00
   363  3.6200000000000D+00  0.0000000000000D+00  0.0000000000000D+00
   364  3.6300000000000D+00  0.0000000000000D+00  0.0000000000000D+00
   365  3.6400000000000D+00  0.0000000000000D+00  0.0000000000000D+00
   366  3.6500000000000D+00  0.0000000000000D+00  0.0000000000000D+00
   367  3.6600000000000D+00  0.0000000000000D+00  0.0000000000000D+00
   368  3.6700000000000D+00  0.0000000000000D+00  0.0000000000000D+00
   369  3.6800000000000D+00  0.0000000000000D+00  0.0000000000000D+00
   370  3.6900000000000D+00  0.0000000000000D+00  0.0000000000000D+00
   371  3.7000000000000D+00  0.0000000000000D+00  0.0000000000000D+00
   372  3.7100000000000D+00  0.0000000000000D+00  0.0000000000000D+00
   373  3.7200000000000D+00  0.0000000000000D+00  0.0000000000000D+00
   374  3.7300000000000D+00  0.0000000000000D+00  0.0000000000000D+00
   375  3.7400000000000D+00  0.0000000000000D+00  0.0000000000000D+00
   376  3.7500000000000D+00  0.0000000000000D+00  0.0000000000000D+00
   377  3.7600000000000D+00  0.0000000000000D+00  0.0000000000000D+00
   378  3.7700000000000D+00  0.0000000000000D+00  0.0000000000000D+00
   379  3.7800000000000D+00  0.0000000000000D+00  0.0000000000000D+00
   380  3.7900000000000D+00  0.0000000000000D+00  0.0000000000000D+00
   381  3.8000000000000D+00  0.0000000000000D+00  0.0000000000000D+00
   382  3.8100000000000D+00  0.0000000000000D+00  0.0000000000000D+00
   383  3.8200000000000D+00  0.0000000000000D+00  0.0000000000000D+00
   384  3.8300000000000D+00  0.0000000000000D+00  0.0000000000000D+00
   385  3.8400000000000D+00  0.0000000000000D+00  0.0000000000000D+00
   386  3.8500000000000D+00  0.0000000000000D+00  0.0000000000000D+00
   387  3.8600000000000D+00  0.0000000000000D+00  0.0000000000000D+00
   388  3.8700000000000D+00  0.0000000000000D+00  0.0000000000000D+00
   389  3.8800000000000D+00  0.0000000000000D+00  0.0000000000000D+00
   390  3.8900000000000D+00  0.0000000000000D+00  0.0000000000000D+00
   391  3.9000000000000D+00  0.0000000000000D+00  0.0000000000000D+00
   392  3.9100000000000D+00  0.0000000000000D+00  0.0000000000000D+00
   393  3.9200000000000D+00  0.0000000000000D+00  0.0000000000000D+00
   394  3.9300000000000D+00  0.0000000000000D+00  0.0000000000000D+00
   395  3.9400000000000D+00  0.0000000000000D+00  0.0000000000000D+00
   396  3.9500000000000D+00  0.0000000000000D+00  0.0000000000000D+00
   397  3.9600000000000D+00  0.0000000000000D+00  0.0000000000000D+00
   398  3.9700000000000D+00  0.0000000000000D+00  0.0000000000000D+00
   399  3.9800000000000D+00  0.0000000000000D+00  0.0000000000000D+00
   400  3.9900000000000D+00  0.0000000000000D+00  0.0000000000000D+00
   401  4.0000000000000D+00  0.0000000000000D+00  0.0000000000000D+00
   402  4.0100000000000D+00  0.0000000000000D+00  0.0000000000000D+00
   403  4.0200000000000D+00  0.0000000000000D+00  0.0000000000000D+00
   404  4.0300000000000D+00  0.0000000000000D+00  0.0000000000000D+00
   405  4.0400000000000D+00  0.0000000000000D+00  0.0000000000000D+00
   406  4.0500000000000D+00  0.0000000000000D+00  0.0000000000000D+00
   407  4.0600000000000D+00  0.0000000000000D+00  0.0000000000000D+00
   408  4.0700000000000D+00  0.0000000000000D+00  0.0000000000000D+00
   409  4.0800000000000D+00  0.0000000000000D+00  0.0000000000000D+00
   410  4.0900000000000D+00  0.0000000000000D+00  0.0000000000000D+00
   411  4.1000000000000D+00  0.0000000000000D+00  0.0000000000000D+00
   412  4.1100000000000D+00  0.0000000000000D+00  0.0000000000000D+00
   413  4.1200000000000D+00  0.0000000000000D+00  0.0000000000000D+00
   414  4.1300000000000D+00  0.0000000000000D+00  0.0000000000000D+00
   415  4.1400000000000D+00  0.0000000000000D+00  0.0000000000000D+00
   416  4.1500000000000D+00  0.0000000000000D+00  0.0000000000000D+00
   417  4.1600000000000D+00  0.0000000000000D+00  0.0000000000000D+00
   418  4.1700000000000D+00  0.0000000000000D+00  0.0000000000000D+00
   419  4.1800000000000D+00  0.0000000000000D+00  0.0000000000000D+00
   420  4.1900000000000D+00  0.0000000000000D+00  0.0000000000000D+00
   421  4.2000000000000D+00  0.0000000000000D+00  0.0000000000000D+00
   422  4.2100000000000D+00  0.0000000000000D+00  0.0000000000000D+00