Xe    ONCVPSP-3.3.1  r_core=   3.01052   3.01052   2.70406
     54.0000     18.0000      210904    zatom,zion,pspd
     8       2   2     4   600     0    pspcod,pspxc,lmax,lloc,mmax,r2well
  5.99000000  0.00000000  0.00000000    rchrg fchrg qchrg
     2     2     2     0     0    nproj
     1     1           extension_switch
   0                         4.5560076181675D+00  4.9854041611052D-01
     1  0.0000000000000D+00  3.6598502006768D-13 -7.6441630803004D-13
     2  1.0000000000000D-02  3.2140772720971D-02 -1.5559585192895D-02
     3  2.0000000000000D-02  6.4259954071733D-02 -3.1094524033761D-02
     4  3.0000000000000D-02  9.6335965610125D-02 -4.6580190703198D-02
     5  4.0000000000000D-02  1.2834725476069D-01 -6.1992000466424D-02
     6  5.0000000000000D-02  1.6027230777445D-01 -7.7305430263785D-02
     7  6.0000000000000D-02  1.9208966272015D-01 -9.2496039358569D-02
     8  7.0000000000000D-02  2.2377792251703D-01 -1.0753949006032D-01
     9  8.0000000000000D-02  2.5531576801879D-01 -1.2241156854115D-01
    10  9.0000000000000D-02  2.8668197115800D-01 -1.3708820576140D-01
    11  1.0000000000000D-01  3.1785540815977D-01 -1.5154549852030D-01
    12  1.1000000000000D-01  3.4881507283255D-01 -1.6575973064535D-01
    13  1.2000000000000D-01  3.7954008994365D-01 -1.7970739433333D-01
    14  1.3000000000000D-01  4.1000972868596D-01 -1.9336521165373D-01
    15  1.4000000000000D-01  4.4020341624166D-01 -2.0671015622388D-01
    16  1.5000000000000D-01  4.7010075144775D-01 -2.1971947506291D-01
    17  1.6000000000000D-01  4.9968151856709D-01 -2.3237071062984D-01
    18  1.7000000000000D-01  5.2892570116792D-01 -2.4464172304870D-01
    19  1.8000000000000D-01  5.5781349611329D-01 -2.5651071252124D-01
    20  1.9000000000000D-01  5.8632532766096D-01 -2.6795624192564D-01
    21  2.0000000000000D-01  6.1444186167295D-01 -2.7895725959660D-01
    22  2.1000000000000D-01  6.4214401993273D-01 -2.8949312228008D-01
    23  2.2000000000000D-01  6.6941299456666D-01 -2.9954361825291D-01
    24  2.3000000000000D-01  6.9623026256501D-01 -3.0908899059494D-01
    25  2.4000000000000D-01  7.2257760039640D-01 -3.1810996059831D-01
    26  2.5000000000000D-01  7.4843709870828D-01 -3.2658775129598D-01
    27  2.6000000000000D-01  7.7379117710447D-01 -3.3450411108843D-01
    28  2.7000000000000D-01  7.9862259898945D-01 -3.4184133744460D-01
    29  2.8000000000000D-01  8.2291448646770D-01 -3.4858230065052D-01
    30  2.9000000000000D-01  8.4665033528480D-01 -3.5471046757585D-01
    31  3.0000000000000D-01  8.6981402979571D-01 -3.6020992542593D-01
    32  3.1000000000000D-01  8.9238985794428D-01 -3.6506540544413D-01
    33  3.2000000000000D-01  9.1436252623641D-01 -3.6926230652640D-01
    34  3.3000000000000D-01  9.3571717468824D-01 -3.7278671870747D-01
    35  3.4000000000000D-01  9.5643939172908D-01 -3.7562544647539D-01
    36  3.5000000000000D-01  9.7651522903786D-01 -3.7776603186862D-01
    37  3.6000000000000D-01  9.9593121629026D-01 -3.7919677730767D-01
    38  3.7000000000000D-01  1.0146743757927D+00 -3.7990676811077D-01
    39  3.8000000000000D-01  1.0327322369782D+00 -3.7988589464118D-01
    40  3.9000000000000D-01  1.0500928507380D+00 -3.7912487403158D-01
    41  4.0000000000000D-01  1.0667448035617D+00 -3.7761527142938D-01
    42  4.1000000000000D-01  1.0826772314583D+00 -3.7534952070479D-01
    43  4.2000000000000D-01  1.0978798336281D+00 -3.7232094456250D-01
    44  4.3000000000000D-01  1.1123428858575D+00 -3.6852377399614D-01
    45  4.4000000000000D-01  1.1260572536041D+00 -3.6395316702376D-01
    46  4.5000000000000D-01  1.1390144047432D+00 -3.5860522664180D-01
    47  4.6000000000000D-01  1.1512064219425D+00 -3.5247701793422D-01
    48  4.7000000000000D-01  1.1626260146334D+00 -3.4556658427304D-01
    49  4.8000000000000D-01  1.1732665305476D+00 -3.3787296254649D-01
    50  4.9000000000000D-01  1.1831219667849D+00 -3.2939619735081D-01
    51  5.0000000000000D-01  1.1921869803804D+00 -3.2013735408210D-01
    52  5.1000000000000D-01  1.2004568983386D+00 -3.1009853086524D-01
    53  5.2000000000000D-01  1.2079277271011D+00 -2.9928286925741D-01
    54  5.3000000000000D-01  1.2145961614167D+00 -2.8769456366501D-01
    55  5.4000000000000D-01  1.2204595925804D+00 -2.7533886941392D-01
    56  5.5000000000000D-01  1.2255161160110D+00 -2.6222210941450D-01
    57  5.6000000000000D-01  1.2297645381358D+00 -2.4835167936465D-01
    58  5.7000000000000D-01  1.2332043825521D+00 -2.3373605143605D-01
    59  5.8000000000000D-01  1.2358358954355D+00 -2.1838477639122D-01
    60  5.9000000000000D-01  1.2376600501674D+00 -2.0230848408125D-01
    61  6.0000000000000D-01  1.2386785511531D+00 -1.8551888227693D-01
    62  6.1000000000000D-01  1.2388938368041D+00 -1.6802875378908D-01
    63  6.2000000000000D-01  1.2383090816597D+00 -1.4985195183684D-01
    64  6.3000000000000D-01  1.2369281976240D+00 -1.3100339362626D-01
    65  6.4000000000000D-01  1.2347558342944D+00 -1.1149905210502D-01
    66  6.5000000000000D-01  1.2317973783629D+00 -9.1355945863231D-02
    67  6.6000000000000D-01  1.2280589520688D+00 -7.0592127153800D-02
    68  6.7000000000000D-01  1.2235474106860D+00 -4.9226668010483D-02
    69  6.8000000000000D-01  1.2182703390290D+00 -2.7279644445922D-02
    70  6.9000000000000D-01  1.2122360469635D+00 -4.7721187165067D-03
    71  7.0000000000000D-01  1.2054535639097D+00  1.8273880354430D-02
    72  7.1000000000000D-01  1.1979326323286D+00  4.1835378998686D-02
    73  7.2000000000000D-01  1.1896837001823D+00  6.5888482069276D-02
    74  7.3000000000000D-01  1.1807179123645D+00  9.0408398544297D-02
    75  7.4000000000000D-01  1.1710471010962D+00  1.1536946895702D-01
    76  7.5000000000000D-01  1.1606837752862D+00  1.4074519473568D-01
    77  7.6000000000000D-01  1.1496411088568D+00  1.6650826943111D-01
    78  7.7000000000000D-01  1.1379329280396D+00  1.9263061180488D-01
    79  7.8000000000000D-01  1.1255736976457D+00  2.1908340074567D-01
    80  7.9000000000000D-01  1.1125785063199D+00  2.4583711197591D-01
    81  8.0000000000000D-01  1.0989630507884D+00  2.7286155650561D-01
    82  8.1000000000000D-01  1.0847436191145D+00  3.0012592078485D-01
    83  8.2000000000000D-01  1.0699370729771D+00  3.2759880850148D-01
    84  8.3000000000000D-01  1.0545608289897D+00  3.5524828396495D-01
    85  8.4000000000000D-01  1.0386328390813D+00  3.8304191701233D-01
    86  8.5000000000000D-01  1.0221715699615D+00  4.1094682936780D-01
    87  8.6000000000000D-01  1.0051959816951D+00  4.3892974238139D-01
    88  8.7000000000000D-01  9.8772550541336D-01  4.6695702606866D-01
    89  8.8000000000000D-01  9.6978002019265D-01  4.9499474936791D-01
    90  8.9000000000000D-01  9.5137982913165D-01  5.2300873152740D-01
    91  9.0000000000000D-01  9.3254563466195D-01  5.5096459453047D-01
    92  9.1000000000000D-01  9.1329851312808D-01  5.7882781646276D-01
    93  9.2000000000000D-01  8.9365988867568D-01  6.0656378572153D-01
    94  9.3000000000000D-01  8.7365150648797D-01  6.3413785596376D-01
    95  9.4000000000000D-01  8.5329540541293D-01  6.6151540168600D-01
    96  9.5000000000000D-01  8.3261389002529D-01  6.8866187432615D-01
    97  9.6000000000000D-01  8.1162950216906D-01  7.1554285877431D-01
    98  9.7000000000000D-01  7.9036499202800D-01  7.4212413017720D-01
    99  9.8000000000000D-01  7.6884328877298D-01  7.6837171091856D-01
   100  9.9000000000000D-01  7.4708747083640D-01  7.9425192765575D-01
   101  1.0000000000000D+00  7.2512073586532D-01  8.1973146829138D-01
   102  1.0100000000000D+00  7.0296637040588D-01  8.4477743875696D-01
   103  1.0200000000000D+00  6.8064771937279D-01  8.6935741948521D-01
   104  1.0300000000000D+00  6.5818815535838D-01  8.9343952144628D-01
   105  1.0400000000000D+00  6.3561104783675D-01  9.1699244162330D-01
   106  1.0500000000000D+00  6.1293973231882D-01  9.3998551780251D-01
   107  1.0600000000000D+00  5.9019747951481D-01  9.6238878255335D-01
   108  1.0700000000000D+00  5.6740746456095D-01  9.8417301627497D-01
   109  1.0800000000000D+00  5.4459273636756D-01  1.0053097991863D+00
   110  1.0900000000000D+00  5.2177618714531D-01  1.0257715621387D+00
   111  1.1000000000000D+00  4.9898052216701D-01  1.0455316361309D+00
   112  1.1100000000000D+00  4.7622822982137D-01  1.0645643004098D+00
   113  1.1200000000000D+00  4.5354155201540D-01  1.0828448290414D+00
   114  1.1300000000000D+00  4.3094245498119D-01  1.1003495358395D+00
   115  1.1400000000000D+00  4.0845260054236D-01  1.1170558175438D+00
   116  1.1500000000000D+00  3.8609331789462D-01  1.1329421951410D+00
   117  1.1600000000000D+00  3.6388557595397D-01  1.1479883532275D+00
   118  1.1700000000000D+00  3.4184995632494D-01  1.1621751773149D+00
   119  1.1800000000000D+00  3.2000662694003D-01  1.1754847889865D+00
   120  1.1900000000000D+00  2.9837531642041D-01  1.1879005788148D+00
   121  1.2000000000000D+00  2.7697528920618D-01  1.1994072369556D+00
   122  1.2100000000000D+00  2.5582532150290D-01  1.2099907813423D+00
   123  1.2200000000000D+00  2.3494367808966D-01  1.2196385834048D+00
   124  1.2300000000000D+00  2.1434809003201D-01  1.2283393912468D+00
   125  1.2400000000000D+00  1.9405573334100D-01  1.2360833502193D+00
   126  1.2500000000000D+00  1.7408320861717D-01  1.2428620208376D+00
   127  1.2600000000000D+00  1.5444652171777D-01  1.2486683939868D+00
   128  1.2700000000000D+00  1.3516106548105D-01  1.2534969033793D+00
   129  1.2800000000000D+00  1.1624160254004D-01  1.2573434352263D+00
   130  1.2900000000000D+00  9.7702249257490D-02  1.2602053350917D+00
   131  1.3000000000000D+00  7.9556460808127D-02  1.2620814119088D+00
   132  1.3100000000000D+00  6.1817017433214D-02  1.2629719391460D+00
   133  1.3200000000000D+00  4.4496011891938D-02  1.2628786531065D+00
   134  1.3300000000000D+00  2.7604838127089D-02  1.2618047483690D+00
   135  1.3400000000000D+00  1.1154181162997D-02  1.2597548703710D+00
   136  1.3500000000000D+00 -4.8459917484264D-03  1.2567351051454D+00
   137  1.3600000000000D+00 -2.0386438724912D-02  1.2527529662376D+00
   138  1.3700000000000D+00 -3.5458649582839D-02  1.2478173788236D+00
   139  1.3800000000000D+00 -5.0054850892502D-02  1.2419386610651D+00
   140  1.3900000000000D+00 -6.4168009759426D-02  1.2351285027481D+00
   141  1.4000000000000D+00 -7.7791836325730D-02  1.2273999412428D+00
   142  1.4100000000000D+00 -9.0920784999865D-02  1.2187673348493D+00
   143  1.4200000000000D+00 -1.0355005441677D-01  1.2092463335863D+00
   144  1.4300000000000D+00 -1.1567558613559D-01  1.1988538474870D+00
   145  1.4400000000000D+00 -1.2729406209087D-01  1.1876080124875D+00
   146  1.4500000000000D+00 -1.3840290080273D-01  1.1755281539706D+00
   147  1.4600000000000D+00 -1.4900025237027D-01  1.1626347480689D+00
   148  1.4700000000000D+00 -1.5908499226138D-01  1.1489493808048D+00
   149  1.4800000000000D+00 -1.6865671392180D-01  1.1344947051710D+00
   150  1.4900000000000D+00 -1.7771572022974D-01  1.1192943962536D+00
   151  1.5000000000000D+00 -1.8626301381583D-01  1.1033731044968D+00
   152  1.5100000000000D+00 -1.9430028628589D-01  1.0867564072336D+00
   153  1.5200000000000D+00 -2.0182990636689D-01  1.0694707585807D+00
   154  1.5300000000000D+00 -2.0885490701833D-01  1.0515434378323D+00
   155  1.5400000000000D+00 -2.1537897153662D-01  1.0330024964637D+00
   156  1.5500000000000D+00 -2.2140641869339D-01  1.0138767038753D+00
   157  1.5600000000000D+00 -2.2694218694476D-01  9.9419549200489D-01
   158  1.5700000000000D+00 -2.3199181775060D-01  9.7398889893566D-01
   159  1.5800000000000D+00 -2.3656143804900D-01  9.5328751163592D-01
   160  1.5900000000000D+00 -2.4065774192350D-01  9.3212240796084D-01
   161  1.6000000000000D+00 -2.4428797151488D-01  9.1052509805442D-01
   162  1.6100000000000D+00 -2.4745989721477D-01  8.8852746528527D-01
   163  1.6200000000000D+00 -2.5018179719672D-01  8.6616170685219D-01
   164  1.6300000000000D+00 -2.5246243632353D-01  8.4346027419909D-01
   165  1.6400000000000D+00 -2.5431104448743D-01  8.2045581336784D-01
   166  1.6500000000000D+00 -2.5573729442530D-01  7.9718110543444D-01
   167  1.6600000000000D+00 -2.5675127906389D-01  7.7366900714799D-01
   168  1.6700000000000D+00 -2.5736348844112D-01  7.4995239192197D-01
   169  1.6800000000000D+00 -2.5758478625610D-01  7.2606409128644D-01
   170  1.6900000000000D+00 -2.5742638609717D-01  7.0203683695386D-01
   171  1.7000000000000D+00 -2.5689982739763D-01  6.7790320359356D-01
   172  1.7100000000000D+00 -2.5601695117146D-01  6.5369555247121D-01
   173  1.7200000000000D+00 -2.5478987557476D-01  6.2944597603030D-01
   174  1.7300000000000D+00 -2.5323097134820D-01  6.0518624357846D-01
   175  1.7400000000000D+00 -2.5135283718090D-01  5.8094774813045D-01
   176  1.7500000000000D+00 -2.4916827505495D-01  5.5676145458308D-01
   177  1.7600000000000D+00 -2.4669026560306D-01  5.3265784923915D-01
   178  1.7700000000000D+00 -2.4393194354459D-01  5.0866689087592D-01
   179  1.7800000000000D+00 -2.4090657322127D-01  4.8481796333040D-01
   180  1.7900000000000D+00 -2.3762752430531D-01  4.6113982982021D-01
   181  1.8000000000000D+00 -2.3410824769062D-01  4.3766058893569D-01
   182  1.8100000000000D+00 -2.3036225164195D-01  4.1440763251904D-01
   183  1.8200000000000D+00 -2.2640307820898D-01  3.9140760536163D-01
   184  1.8300000000000D+00 -2.2224427997426D-01  3.6868636690114D-01
   185  1.8400000000000D+00 -2.1789939714557D-01  3.4626895487078D-01
   186  1.8500000000000D+00 -2.1338193504733D-01  3.2417955102127D-01
   187  1.8600000000000D+00 -2.0870534203350D-01  3.0244144891694D-01
   188  1.8700000000000D+00 -2.0388298785272D-01  2.8107702383504D-01
   189  1.8800000000000D+00 -1.9892814250988D-01  2.6010770484873D-01
   190  1.8900000000000D+00 -1.9385395562053D-01  2.3955394900300D-01
   191  1.9000000000000D+00 -1.8867343633188D-01  2.1943521776260D-01
   192  1.9100000000000D+00 -1.8339943377042D-01  1.9976995552242D-01
   193  1.9200000000000D+00 -1.7804461810962D-01  1.8057557041816D-01
   194  1.9300000000000D+00 -1.7262146220761D-01  1.6186841720282D-01
   195  1.9400000000000D+00 -1.6714222388690D-01  1.4366378234847D-01
   196  1.9500000000000D+00 -1.6161892883934D-01  1.2597587125267D-01
   197  1.9600000000000D+00 -1.5606335417319D-01  1.0881779753147D-01
   198  1.9700000000000D+00 -1.5048701264084D-01  9.2201574448418D-02
   199  1.9800000000000D+00 -1.4490113749638D-01  7.6138108262788D-02
   200  1.9900000000000D+00 -1.3931666807331D-01  6.0637193690454D-02
   201  2.0000000000000D+00 -1.3374423599826D-01  4.5707511174435D-02
   202  2.0100000000000D+00 -1.2819415211610D-01  3.1356626105993D-02
   203  2.0200000000000D+00 -1.2267639408638D-01  1.7590989824186D-02
   204  2.0300000000000D+00 -1.1720059465102D-01  4.4159423270034D-03
   205  2.0400000000000D+00 -1.1177603060955D-01 -8.1642832804053D-03
   206  2.0500000000000D+00 -1.0641161242528D-01 -2.0146554851729D-02
   207  2.0600000000000D+00 -1.0111587454227D-01 -3.1528833661974D-02
   208  2.0700000000000D+00 -9.5896966330330D-02 -4.2310165517253D-02
   209  2.0800000000000D+00 -9.0762643687585D-02 -5.2490670518742D-02
   210  2.0900000000000D+00 -8.5720261296309D-02 -6.2071531560310D-02
   211  2.1000000000000D+00 -8.0776765469125D-02 -7.1054981743313D-02
   212  2.1100000000000D+00 -7.5938687648253D-02 -7.9444290682428D-02
   213  2.1200000000000D+00 -7.1212138469320D-02 -8.7243749908207D-02
   214  2.1300000000000D+00 -6.6602802416217D-02 -9.4458657412470D-02
   215  2.1400000000000D+00 -6.2115933048014D-02 -1.0109530144467D-01
   216  2.1500000000000D+00 -5.7756348746210D-02 -1.0716094367173D-01
   217  2.1600000000000D+00 -5.3528429014710D-02 -1.1266380180711D-01
   218  2.1700000000000D+00 -4.9436111267418D-02 -1.1761303178915D-01
   219  2.1800000000000D+00 -4.5482888104837D-02 -1.2201870963148D-01
   220  2.1900000000000D+00 -4.1671805061382D-02 -1.2589181306676D-01
   221  2.2000000000000D+00 -3.8005458788020D-02 -1.2924420299147D-01
   222  2.2100000000000D+00 -3.4485995661621D-02 -1.3208860495807D-01
   223  2.2200000000000D+00 -3.1115110793620D-02 -1.3443859068417D-01
   224  2.2300000000000D+00 -2.7894047419226D-02 -1.3630855967714D-01
   225  2.2400000000000D+00 -2.4823596637225D-02 -1.3771372122106D-01
   226  2.2500000000000D+00 -2.1904097497056D-02 -1.3867007655372D-01
   227  2.2600000000000D+00 -1.9135437392445D-02 -1.3919440154291D-01
   228  2.2700000000000D+00 -1.6517051201207D-02 -1.3930423549617D-01
   229  2.2800000000000D+00 -1.4047928340487D-02 -1.3901784273370D-01
   230  2.2900000000000D+00 -1.1726604248271D-02 -1.3835423209854D-01
   231  2.3000000000000D+00 -9.5511614672856D-03 -1.3733314335784D-01
   232  2.3100000000000D+00 -7.5192666058348D-03 -1.3597490749604D-01
   233  2.3200000000000D+00 -5.6281347071588D-03 -1.3430056443055D-01
   234  2.3300000000000D+00 -3.8744966955203D-03 -1.3233197903406D-01
   235  2.3400000000000D+00 -2.2546097629353D-03 -1.3009180081618D-01
   236  2.3500000000000D+00 -7.6439079293478D-04 -1.2760297874612D-01
   237  2.3600000000000D+00  6.0053224781259D-04 -1.2488856442646D-01
   238  2.3700000000000D+00  1.8447395477703D-03 -1.2197143698418D-01
   239  2.3800000000000D+00  2.9729730985501D-03 -1.1887415725051D-01
   240  2.3900000000000D+00  3.9899458586283D-03 -1.1561829563752D-01
   241  2.4000000000000D+00  4.9004115225335D-03 -1.1222470968326D-01
   242  2.4100000000000D+00  5.7091309550910D-03 -1.0871344730007D-01
   243  2.4200000000000D+00  6.4209207512233D-03 -1.0510396177770D-01
   244  2.4300000000000D+00  7.0405793882757D-03 -1.0141486246531D-01
   245  2.4400000000000D+00  7.5728890041974D-03 -9.7663952393869D-02
   246  2.4500000000000D+00  8.0226101083477D-03 -9.3868238991923D-02
   247  2.4600000000000D+00  8.3944628109767D-03 -9.0043895312516D-02
   248  2.4700000000000D+00  8.6931172190516D-03 -8.6206255628692D-02
   249  2.4800000000000D+00  8.9231826207303D-03 -8.2369806908495D-02
   250  2.4900000000000D+00  9.0891974488905D-03 -7.8548183439459D-02
   251  2.5000000000000D+00  9.1956197642326D-03 -7.4754163657491D-02
   252  2.5100000000000D+00  9.2468183531753D-03 -7.0999669460752D-02
   253  2.5200000000000D+00  9.2470646003026D-03 -6.7295768494607D-02
   254  2.5300000000000D+00  9.2005248833996D-03 -6.3652678510598D-02
   255  2.5400000000000D+00  9.1112535832421D-03 -6.0079774061495D-02
   256  2.5500000000000D+00  8.9831868512599D-03 -5.6585595948265D-02
   257  2.5600000000000D+00  8.8201368895178D-03 -5.3177862566519D-02
   258  2.5700000000000D+00  8.6257868172407D-03 -4.9863483348112D-02
   259  2.5800000000000D+00  8.4036862680508D-03 -4.6648574699236D-02
   260  2.5900000000000D+00  8.1572474767261D-03 -4.3538477622679D-02
   261  2.6000000000000D+00  7.8897419000148D-03 -4.0537777121251D-02
   262  2.6100000000000D+00  7.6042975301282D-03 -3.7650323802437D-02
   263  2.6200000000000D+00  7.3038966633376D-03 -3.4879256914958D-02
   264  2.6300000000000D+00  6.9913741330595D-03 -3.2227028810272D-02
   265  2.6400000000000D+00  6.6694161844825D-03 -2.9695431259278D-02
   266  2.6500000000000D+00  6.3405597554938D-03 -2.7285622906214D-02
   267  2.6600000000000D+00  6.0071921551413D-03 -2.4998157813885D-02
   268  2.6700000000000D+00  5.6715513029283D-03 -2.2833015417454D-02
   269  2.6800000000000D+00  5.3357263159797D-03 -2.0789631303209D-02
   270  2.6900000000000D+00  5.0016584514396D-03 -1.8866928808321D-02
   271  2.7000000000000D+00  4.6711424735665D-03 -1.7063351451315D-02
   272  2.7100000000000D+00  4.3458283347025D-03 -1.5376895923993D-02
   273  2.7200000000000D+00  4.0272231489795D-03 -1.3805145579718D-02
   274  2.7300000000000D+00  3.7166934654282D-03 -1.2345304248963D-02
   275  2.7400000000000D+00  3.4154677985063D-03 -1.0994230256530D-02
   276  2.7500000000000D+00  3.1246393832383D-03 -9.7484705958273D-03
   277  2.7600000000000D+00  2.8451691352972D-03 -8.6042950822029D-03
   278  2.7700000000000D+00  2.5778887742734D-03 -7.5577301936986D-03
   279  2.7800000000000D+00  2.3235040972870D-03 -6.6045927118941D-03
   280  2.7900000000000D+00  2.0825984151968D-03 -5.7405232294618D-03
   281  2.8000000000000D+00  1.8556360068023D-03 -4.9610186165231D-03
   282  2.8100000000000D+00  1.6429656732249D-03 -4.2614640890085D-03
   283  2.8200000000000D+00  1.4448244015803D-03 -3.6371648667906D-03
   284  2.8300000000000D+00  1.2613409447417D-03 -3.0833764278575D-03
   285  2.8400000000000D+00  1.0925394145028D-03 -2.5953339056126D-03
   286  2.8500000000000D+00  9.3834290026304D-04 -2.1682806987333D-03
   287  2.8600000000000D+00  7.9857703013435D-04 -1.7974958872567D-03
   288  2.8700000000000D+00  6.7297336079566D-04 -1.4783199049203D-03
   289  2.8800000000000D+00  5.6117271796952D-04 -1.2061791030294D-03
   290  2.8900000000000D+00  4.6272859931376D-04 -9.7660971104260D-04
   291  2.9000000000000D+00  3.7711013395818D-04 -7.8527883106182D-04
   292  2.9100000000000D+00  3.0374558282338D-04 -6.2813657774993D-04
   293  2.9200000000000D+00  2.4191404317145D-04 -5.0107296147425D-04
   294  2.9300000000000D+00  1.9077431242605D-04 -4.0002012711115D-04
   295  2.9400000000000D+00  1.4944853088452D-04 -3.2124832079918D-04
   296  2.9500000000000D+00  1.1650964475568D-04 -2.5996176193646D-04
   297  2.9600000000000D+00  9.2059963735839D-05 -2.1597584049701D-04
   298  2.9700000000000D+00  7.5361939827885D-05 -1.8724201023284D-04
   299  2.9800000000000D+00  6.6392976768645D-05 -1.7391469190784D-04
   300  2.9900000000000D+00  6.2612488846073D-05 -1.6988838452447D-04
   301  3.0000000000000D+00  5.9471567306362D-05 -1.6405261540934D-04
   302  3.0100000000000D+00  5.3911255698965D-05 -1.4930799833571D-04
   303  3.0200000000000D+00  4.0570302574841D-05 -1.1254149872288D-04
   304  3.0300000000000D+00  2.4422516082359D-05 -6.7717636652350D-05
   305  3.0400000000000D+00  8.6750061140515D-06 -2.4018645917821D-05
   306  3.0500000000000D+00 -2.2334948184032D-06  6.2381447250859D-06
   307  3.0600000000000D+00 -5.4447588628838D-06  1.5214424545730D-05
   308  3.0700000000000D+00 -4.4705317353724D-06  1.2495373214827D-05
   309  3.0800000000000D+00 -1.1881425557012D-06  3.3213336250853D-06
   310  3.0900000000000D+00  7.8105137609207D-07 -2.1891430601618D-06
   311  3.1000000000000D+00  1.2331170967719D-06 -3.4579110001759D-06
   312  3.1100000000000D+00  8.6835521851325D-07 -2.4360817692904D-06
   313  3.1200000000000D+00  1.9000315960760D-08 -5.3323185792600D-08
   314  3.1300000000000D+00 -1.1960856789597D-07  3.3125319139158D-07
   315  3.1400000000000D+00 -1.4936090875926D-07  4.1365161849179D-07
   316  3.1500000000000D+00 -8.5925604779138D-08  2.3796899591756D-07
   317  3.1600000000000D+00  0.0000000000000D+00  0.0000000000000D+00
   318  3.1700000000000D+00  0.0000000000000D+00  0.0000000000000D+00
   319  3.1800000000000D+00  0.0000000000000D+00  0.0000000000000D+00
   320  3.1900000000000D+00  0.0000000000000D+00  0.0000000000000D+00
   321  3.2000000000000D+00  0.0000000000000D+00  0.0000000000000D+00
   322  3.2100000000000D+00  0.0000000000000D+00  0.0000000000000D+00
   323  3.2200000000000D+00  0.0000000000000D+00  0.0000000000000D+00
   324  3.2300000000000D+00  0.0000000000000D+00  0.0000000000000D+00
   325  3.2400000000000D+00  0.0000000000000D+00  0.0000000000000D+00
   326  3.2500000000000D+00  0.0000000000000D+00  0.0000000000000D+00
   327  3.2600000000000D+00  0.0000000000000D+00  0.0000000000000D+00
   328  3.2700000000000D+00  0.0000000000000D+00  0.0000000000000D+00
   329  3.2800000000000D+00  0.0000000000000D+00  0.0000000000000D+00
   330  3.2900000000000D+00  0.0000000000000D+00  0.0000000000000D+00
   331  3.3000000000000D+00  0.0000000000000D+00  0.0000000000000D+00
   332  3.3100000000000D+00  0.0000000000000D+00  0.0000000000000D+00
   333  3.3200000000000D+00  0.0000000000000D+00  0.0000000000000D+00
   334  3.3300000000000D+00  0.0000000000000D+00  0.0000000000000D+00
   335  3.3400000000000D+00  0.0000000000000D+00  0.0000000000000D+00
   336  3.3500000000000D+00  0.0000000000000D+00  0.0000000000000D+00
   337  3.3600000000000D+00  0.0000000000000D+00  0.0000000000000D+00
   338  3.3700000000000D+00  0.0000000000000D+00  0.0000000000000D+00
   339  3.3800000000000D+00  0.0000000000000D+00  0.0000000000000D+00
   340  3.3900000000000D+00  0.0000000000000D+00  0.0000000000000D+00
   341  3.4000000000000D+00  0.0000000000000D+00  0.0000000000000D+00
   342  3.4100000000000D+00  0.0000000000000D+00  0.0000000000000D+00
   343  3.4200000000000D+00  0.0000000000000D+00  0.0000000000000D+00
   344  3.4300000000000D+00  0.0000000000000D+00  0.0000000000000D+00
   345  3.4400000000000D+00  0.0000000000000D+00  0.0000000000000D+00
   346  3.4500000000000D+00  0.0000000000000D+00  0.0000000000000D+00
   347  3.4600000000000D+00  0.0000000000000D+00  0.0000000000000D+00
   348  3.4700000000000D+00  0.0000000000000D+00  0.0000000000000D+00
   349  3.4800000000000D+00  0.0000000000000D+00  0.0000000000000D+00
   350  3.4900000000000D+00  0.0000000000000D+00  0.0000000000000D+00
   351  3.5000000000000D+00  0.0000000000000D+00  0.0000000000000D+00
   352  3.5100000000000D+00  0.0000000000000D+00  0.0000000000000D+00
   353  3.5200000000000D+00  0.0000000000000D+00  0.0000000000000D+00
   354  3.5300000000000D+00  0.0000000000000D+00  0.0000000000000D+00
   355  3.5400000000000D+00  0.0000000000000D+00  0.0000000000000D+00
   356  3.5500000000000D+00  0.0000000000000D+00  0.0000000000000D+00
   357  3.5600000000000D+00  0.0000000000000D+00  0.0000000000000D+00
   358  3.5700000000000D+00  0.0000000000000D+00  0.0000000000000D+00
   359  3.5800000000000D+00  0.0000000000000D+00  0.0000000000000D+00
   360  3.5900000000000D+00  0.0000000000000D+00  0.0000000000000D+00
   361  3.6000000000000D+00  0.0000000000000D+00  0.0000000000000D+00
   362  3.6100000000000D+00  0.0000000000000D+00  0.0000000000000D+00
   363  3.6200000000000D+00  0.0000000000000D+00  0.0000000000000D+00
   364  3.6300000000000D+00  0.0000000000000D+00  0.0000000000000D+00
   365  3.6400000000000D+00  0.0000000000000D+00  0.0000000000000D+00
   366  3.6500000000000D+00  0.0000000000000D+00  0.0000000000000D+00
   367  3.6600000000000D+00  0.0000000000000D+00  0.0000000000000D+00
   368  3.6700000000000D+00  0.0000000000000D+00  0.0000000000000D+00
   369  3.6800000000000D+00  0.0000000000000D+00  0.0000000000000D+00
   370  3.6900000000000D+00  0.0000000000000D+00  0.0000000000000D+00
   371  3.7000000000000D+00  0.0000000000000D+00  0.0000000000000D+00
   372  3.7100000000000D+00  0.0000000000000D+00  0.0000000000000D+00
   373  3.7200000000000D+00  0.0000000000000D+00  0.0000000000000D+00
   374  3.7300000000000D+00  0.0000000000000D+00  0.0000000000000D+00
   375  3.7400000000000D+00  0.0000000000000D+00  0.0000000000000D+00
   376  3.7500000000000D+00  0.0000000000000D+00  0.0000000000000D+00
   377  3.7600000000000D+00  0.0000000000000D+00  0.0000000000000D+00
   378  3.7700000000000D+00  0.0000000000000D+00  0.0000000000000D+00
   379  3.7800000000000D+00  0.0000000000000D+00  0.0000000000000D+00
   380  3.7900000000000D+00  0.0000000000000D+00  0.0000000000000D+00
   381  3.8000000000000D+00  0.0000000000000D+00  0.0000000000000D+00
   382  3.8100000000000D+00  0.0000000000000D+00  0.0000000000000D+00
   383  3.8200000000000D+00  0.0000000000000D+00  0.0000000000000D+00
   384  3.8300000000000D+00  0.0000000000000D+00  0.0000000000000D+00
   385  3.8400000000000D+00  0.0000000000000D+00  0.0000000000000D+00
   386  3.8500000000000D+00  0.0000000000000D+00  0.0000000000000D+00
   387  3.8600000000000D+00  0.0000000000000D+00  0.0000000000000D+00
   388  3.8700000000000D+00  0.0000000000000D+00  0.0000000000000D+00
   389  3.8800000000000D+00  0.0000000000000D+00  0.0000000000000D+00
   390  3.8900000000000D+00  0.0000000000000D+00  0.0000000000000D+00
   391  3.9000000000000D+00  0.0000000000000D+00  0.0000000000000D+00
   392  3.9100000000000D+00  0.0000000000000D+00  0.0000000000000D+00
   393  3.9200000000000D+00  0.0000000000000D+00  0.0000000000000D+00
   394  3.9300000000000D+00  0.0000000000000D+00  0.0000000000000D+00
   395  3.9400000000000D+00  0.0000000000000D+00  0.0000000000000D+00
   396  3.9500000000000D+00  0.0000000000000D+00  0.0000000000000D+00
   397  3.9600000000000D+00  0.0000000000000D+00  0.0000000000000D+00
   398  3.9700000000000D+00  0.0000000000000D+00  0.0000000000000D+00
   399  3.9800000000000D+00  0.0000000000000D+00  0.0000000000000D+00
   400  3.9900000000000D+00  0.0000000000000D+00  0.0000000000000D+00
   401  4.0000000000000D+00  0.0000000000000D+00  0.0000000000000D+00
   402  4.0100000000000D+00  0.0000000000000D+00  0.0000000000000D+00
   403  4.0200000000000D+00  0.0000000000000D+00  0.0000000000000D+00
   404  4.0300000000000D+00  0.0000000000000D+00  0.0000000000000D+00
   405  4.0400000000000D+00  0.0000000000000D+00  0.0000000000000D+00
   406  4.0500000000000D+00  0.0000000000000D+00  0.0000000000000D+00
   407  4.0600000000000D+00  0.0000000000000D+00  0.0000000000000D+00
   408  4.0700000000000D+00  0.0000000000000D+00  0.0000000000000D+00
   409  4.0800000000000D+00  0.0000000000000D+00  0.0000000000000D+00
   410  4.0900000000000D+00  0.0000000000000D+00  0.0000000000000D+00
   411  4.1000000000000D+00  0.0000000000000D+00  0.0000000000000D+00
   412  4.1100000000000D+00  0.0000000000000D+00  0.0000000000000D+00
   413  4.1200000000000D+00  0.0000000000000D+00  0.0000000000000D+00
   414  4.1300000000000D+00  0.0000000000000D+00  0.0000000000000D+00
   415  4.1400000000000D+00  0.0000000000000D+00  0.0000000000000D+00
   416  4.1500000000000D+00  0.0000000000000D+00  0.0000000000000D+00
   417  4.1600000000000D+00  0.0000000000000D+00  0.0000000000000D+00
   418  4.1700000000000D+00  0.0000000000000D+00  0.0000000000000D+00
   419  4.1800000000000D+00  0.0000000000000D+00  0.0000000000000D+00
   420  4.1900000000000D+00  0.0000000000000D+00  0.0000000000000D+00
   421  4.2000000000000D+00  0.0000000000000D+00  0.0000000000000D+00
   422  4.2100000000000D+00  0.0000000000000D+00  0.0000000000000D+00