Y     ONCVPSP-3.3.1  r_core=   2.32341   2.11194   1.85223
     39.0000     11.0000      210904    zatom,zion,pspd
     8       2   2     4   600     0    pspcod,pspxc,lmax,lloc,mmax,r2well
  5.99000000  0.00000000  0.00000000    rchrg fchrg qchrg
     2     4     3     0    nproj
     3     1           extension_switch
     4     4     0    nprojso
   0                         8.3962492308656D-01  5.2360231822993D+00
     1  0.0000000000000D+00 -2.7826574378054D-11  1.0769440894620D-11
     2  1.0000000000000D-02 -3.3133378032898D-03  4.2062236467818D-02
     3  2.0000000000000D-02 -6.6362895671188D-03  8.4092974831869D-02
     4  3.0000000000000D-02 -9.9782670245245D-03  1.2606067308590D-01
     5  4.0000000000000D-02 -1.3348278788062D-02  1.6793370190953D-01
     6  5.0000000000000D-02 -1.6754732118832D-02  2.0968030223562D-01
     7  6.0000000000000D-02 -2.0205238670978D-02  2.5126854427933D-01
     8  7.0000000000000D-02 -2.3706425504125D-02  2.9266628850345D-01
     9  8.0000000000000D-02 -2.7263752628446D-02  3.3384114898388D-01
    10  9.0000000000000D-02 -3.0881338312505D-02  3.7476045962575D-01
    11  1.0000000000000D-01 -3.4561793342932D-02  4.1539124366468D-01
    12  1.1000000000000D-01 -3.8306065377600D-02  4.5570018686954D-01
    13  1.2000000000000D-01 -4.2113294480292D-02  4.9565361484216D-01
    14  1.3000000000000D-01 -4.5980680865473D-02  5.3521747478649D-01
    15  1.4000000000000D-01 -4.9903365816555D-02  5.7435732209455D-01
    16  1.5000000000000D-01 -5.3874326670715D-02  6.1303831206919D-01
    17  1.6000000000000D-01 -5.7884286687854D-02  6.5122519707464D-01
    18  1.7000000000000D-01 -6.1921640541200D-02  6.8888232937464D-01
    19  1.8000000000000D-01 -6.5972396082844D-02  7.2597366988556D-01
    20  1.9000000000000D-01 -7.0020132949153D-02  7.6246280303765D-01
    21  2.0000000000000D-01 -7.4045978479573D-02  7.9831295790213D-01
    22  2.1000000000000D-01 -7.8028601327508D-02  8.3348703570526D-01
    23  2.2000000000000D-01 -8.1944223044883D-02  8.6794764381288D-01
    24  2.3000000000000D-01 -8.5766647822778D-02  9.0165713623054D-01
    25  2.4000000000000D-01 -8.9467310469426D-02  9.3457766062524D-01
    26  2.5000000000000D-01 -9.3015342605138D-02  9.6667121183539D-01
    27  2.6000000000000D-01 -9.6377656950972D-02  9.9789969179587D-01
    28  2.7000000000000D-01 -9.9519049485275D-02  1.0282249757654D+00
    29  2.8000000000000D-01 -1.0240231913999D-01  1.0576089847034D+00
    30  2.9000000000000D-01 -1.0498840460724D-01  1.0860137636054D+00
    31  3.0000000000000D-01 -1.0723653772679D-01  1.1134015655661D+00
    32  3.1000000000000D-01 -1.0910441282705D-01  1.1397349413011D+00
    33  3.2000000000000D-01 -1.1054837129679D-01  1.1649768338240D+00
    34  3.3000000000000D-01 -1.1152360057215D-01  1.1890906779360D+00
    35  3.4000000000000D-01 -1.1198434663463D-01  1.2120405041529D+00
    36  3.5000000000000D-01 -1.1188413903046D-01  1.2337910466613D+00
    37  3.6000000000000D-01 -1.1117602734109D-01  1.2543078548646D+00
    38  3.7000000000000D-01 -1.0981282795870D-01  1.2735574080479D+00
    39  3.8000000000000D-01 -1.0774737995011D-01  1.2915072326676D+00
    40  3.9000000000000D-01 -1.0493280872732D-01  1.3081260217423D+00
    41  4.0000000000000D-01 -1.0132279618453D-01  1.3233837558020D+00
    42  4.1000000000000D-01 -9.6871855908630D-02  1.3372518248291D+00
    43  4.2000000000000D-01 -9.1535612024999D-02  1.3497031506113D+00
    44  4.3000000000000D-01 -8.5271080201517D-02  1.3607123089070D+00
    45  4.4000000000000D-01 -7.8036949302819D-02  1.3702556508154D+00
    46  4.5000000000000D-01 -6.9793862162924D-02  1.3783114227321D+00
    47  4.6000000000000D-01 -6.0504693928727D-02  1.3848598842662D+00
    48  4.7000000000000D-01 -5.0134826418712D-02  1.3898834234917D+00
    49  4.8000000000000D-01 -3.8652416941693D-02  1.3933666689050D+00
    50  4.9000000000000D-01 -2.6028660028233D-02  1.3952965974662D+00
    51  5.0000000000000D-01 -1.2238040544387D-02  1.3956626381047D+00
    52  5.1000000000000D-01  2.7414233183653D-03  1.3944567700844D+00
    53  5.2000000000000D-01  1.8927948649950D-02  1.3916736156309D+00
    54  5.3000000000000D-01  3.6335769457425D-02  1.3873105262442D+00
    55  5.4000000000000D-01  5.4974932713101D-02  1.3813676621376D+00
    56  5.5000000000000D-01  7.4851110141336D-02  1.3738480642649D+00
    57  5.6000000000000D-01  9.5965427006564D-02  1.3647577184255D+00
    58  5.7000000000000D-01  1.1831430909324D-01  1.3541056109644D+00
    59  5.8000000000000D-01  1.4188934898973D-01  1.3419037756133D+00
    60  5.9000000000000D-01  1.6667719270295D-01  1.3281673310566D+00
    61  6.0000000000000D-01  1.9265944753874D-01  1.3129145088396D+00
    62  6.1000000000000D-01  2.1981261208525D-01  1.2961666712738D+00
    63  6.2000000000000D-01  2.4810802903389D-01  1.2779483190402D+00
    64  6.3000000000000D-01  2.7751186146348D-01  1.2582870882279D+00
    65  6.4000000000000D-01  3.0798509310144D-01  1.2372137365962D+00
    66  6.5000000000000D-01  3.3948355295866D-01  1.2147621188890D+00
    67  6.6000000000000D-01  3.7195796461492D-01  1.1909691510853D+00
    68  6.7000000000000D-01  4.0535402030885D-01  1.1658747635105D+00
    69  6.8000000000000D-01  4.3961247986162D-01  1.1395218427914D+00
    70  6.9000000000000D-01  4.7466929433691D-01  1.1119561626820D+00
    71  7.0000000000000D-01  5.1045575421189D-01  1.0832263038432D+00
    72  7.1000000000000D-01  5.4689866170748D-01  1.0533835627090D+00
    73  7.2000000000000D-01  5.8392052679751D-01  1.0224818496231D+00
    74  7.3000000000000D-01  6.2143978629148D-01  9.9057757648227D-01
    75  7.4000000000000D-01  6.5937104526069D-01  9.5772953417377D-01
    76  7.5000000000000D-01  6.9762533995623D-01  9.2399876014176D-01
    77  7.6000000000000D-01  7.3611042124832D-01  8.8944839646977D-01
    78  7.7000000000000D-01  7.7473105750213D-01  8.5414353891160D-01
    79  7.8000000000000D-01  8.1338935569464D-01  8.1815107734973D-01
    80  7.9000000000000D-01  8.5198509947191D-01  7.8153952820476D-01
    81  8.0000000000000D-01  8.9041610274708D-01  7.4437885936107D-01
    82  8.1000000000000D-01  9.2857857734592D-01  7.0674030821398D-01
    83  8.2000000000000D-01  9.6636751312070D-01  6.6869619348096D-01
    84  8.3000000000000D-01  1.0036770688743D+00  6.3031972145381D-01
    85  8.4000000000000D-01  1.0404009723659D+00  5.9168478740063D-01
    86  8.5000000000000D-01  1.0764329276058D+00  5.5286577285468D-01
    87  8.6000000000000D-01  1.1116670275958D+00  5.1393733955257D-01
    88  8.7000000000000D-01  1.1459981706237D+00  4.7497422080589D-01
    89  8.8000000000000D-01  1.1793224781875D+00  4.3605101110857D-01
    90  8.9000000000000D-01  1.2115377125993D+00  3.9724195479684D-01
    91  9.0000000000000D-01  1.2425436923024D+00  3.5862073458911D-01
    92  9.1000000000000D-01  1.2722427029316D+00  3.2026026083993D-01
    93  9.2000000000000D-01  1.3005399021490D+00  2.8223246234505D-01
    94  9.3000000000000D-01  1.3273437163065D+00  2.4460807953331D-01
    95  9.4000000000000D-01  1.3525662270075D+00  2.0745646087577D-01
    96  9.5000000000000D-01  1.3761235456808D+00  1.7084536333348D-01
    97  9.6000000000000D-01  1.3979361743214D+00  1.3484075765179D-01
    98  9.7000000000000D-01  1.4179293506124D+00  9.9506639291844D-02
    99  9.8000000000000D-01  1.4360333757046D+00  6.4904845769312D-02
   100  9.9000000000000D-01  1.4521839230088D+00  3.1094881144802D-02
   101  1.0000000000000D+00  1.4663223264363D+00 -1.8662516177434D-03
   102  1.0100000000000D+00  1.4783958466212D+00 -3.3924209740660D-02
   103  1.0200000000000D+00  1.4883579137525D+00 -6.5027460521749D-02
   104  1.0300000000000D+00  1.4961683457589D+00 -9.5127421413270D-02
   105  1.0400000000000D+00  1.5017935407047D+00 -1.2417858972429D-01
   106  1.0500000000000D+00  1.5052066423694D+00 -1.5213866142082D-01
   107  1.0600000000000D+00  1.5063876781258D+00 -1.7896863855065D-01
   108  1.0700000000000D+00  1.5053236683546D+00 -2.0463292486596D-01
   109  1.0800000000000D+00  1.5020087067757D+00 -2.2909940926935D-01
   110  1.0900000000000D+00  1.4964440112260D+00 -2.5233953676665D-01
   111  1.1000000000000D+00  1.4886379445346D+00 -2.7432836665514D-01
   112  1.1100000000000D+00  1.4786060053275D+00 -2.9504461774537D-01
   113  1.1200000000000D+00  1.4663707887157D+00 -3.1447070046297D-01
   114  1.1300000000000D+00  1.4519619169906D+00 -3.3259273574251D-01
   115  1.1400000000000D+00  1.4354159405766D+00 -3.4940056067473D-01
   116  1.1500000000000D+00  1.4167762096580D+00 -3.6488772093664D-01
   117  1.1600000000000D+00  1.3960927170390D+00 -3.7905145008840D-01
   118  1.1700000000000D+00  1.3734219129479D+00 -3.9189263588523D-01
   119  1.1800000000000D+00  1.3488264925994D+00 -4.0341577379302D-01
   120  1.1900000000000D+00  1.3223751575155D+00 -4.1362890797363D-01
   121  1.2000000000000D+00  1.2941423517078D+00 -4.2254356005032D-01
   122  1.2100000000000D+00  1.2642079739541D+00 -4.3017464601769D-01
   123  1.2200000000000D+00  1.2326570675011D+00 -4.3654038170410D-01
   124  1.2300000000000D+00  1.1995794886774D+00 -4.4166217726056D-01
   125  1.2400000000000D+00  1.1650695559836D+00 -4.4556452118957D-01
   126  1.2500000000000D+00  1.1292256812773D+00 -4.4827485444914D-01
   127  1.2600000000000D+00  1.0921499848390D+00 -4.4982343524526D-01
   128  1.2700000000000D+00  1.0539478961254D+00 -4.5024319514280D-01
   129  1.2800000000000D+00  1.0147277420686D+00 -4.4956958714419D-01
   130  1.2900000000000D+00  9.7460032488999D-01 -4.4784042644768D-01
   131  1.3000000000000D+00  9.3367849139889D-01 -4.4509572460533D-01
   132  1.3100000000000D+00  8.9207669577858D-01 -4.4137751781125D-01
   133  1.3200000000000D+00  8.4991055791862D-01 -4.3672969009924D-01
   134  1.3300000000000D+00  8.0729641931500D-01 -4.3119779221823D-01
   135  1.3400000000000D+00  7.6435089860561D-01 -4.2482885697142D-01
   136  1.3500000000000D+00  7.2119044875989D-01 -4.1767121181889D-01
   137  1.3600000000000D+00  6.7793091791908D-01 -4.0977428952924D-01
   138  1.3700000000000D+00  6.3468711590753D-01 -4.0118843768537D-01
   139  1.3800000000000D+00  5.9157238826130D-01 -3.9196472781406D-01
   140  1.3900000000000D+00  5.4869819972257D-01 -3.8215476492923D-01
   141  1.4000000000000D+00  5.0617372897328D-01 -3.7181049824770D-01
   142  1.4100000000000D+00  4.6410547625732D-01 -3.6098403379567D-01
   143  1.4200000000000D+00  4.2259688570656D-01 -3.4972744967618D-01
   144  1.4300000000000D+00  3.8174798367605D-01 -3.3809261462565D-01
   145  1.4400000000000D+00  3.4165503472617D-01 -3.2613101057947D-01
   146  1.4500000000000D+00  3.0241021648664D-01 -3.1389355985575D-01
   147  1.4600000000000D+00  2.6410131451079D-01 -3.0143045751946D-01
   148  1.4700000000000D+00  2.2681143848735D-01 -2.8879100957759D-01
   149  1.4800000000000D+00  1.9061876030014D-01 -2.7602347737459D-01
   150  1.4900000000000D+00  1.5559627526770D-01 -2.6317492882866D-01
   151  1.5000000000000D+00  1.2181158675669D-01 -2.5029109678195D-01
   152  1.5100000000000D+00  8.9326714995045D-02 -2.3741624494008D-01
   153  1.5200000000000D+00  5.8197930392030D-02 -2.2459304171139D-01
   154  1.5300000000000D+00  2.8475611400843D-02 -2.1186244215407D-01
   155  1.5400000000000D+00  2.0412746445448D-04 -1.9926357842359D-01
   156  1.5500000000000D+00 -2.6578253740085D-02 -1.8683365864026D-01
   157  1.5600000000000D+00 -5.1839434056439D-02 -1.7460787463082D-01
   158  1.5700000000000D+00 -7.5553528968789D-02 -1.6261931825139D-01
   159  1.5800000000000D+00 -9.7700887608870D-02 -1.5089890667020D-01
   160  1.5900000000000D+00 -1.1826809015128D-01 -1.3947531626123D-01
   161  1.6000000000000D+00 -1.3724792265792D-01 -1.2837492529290D-01
   162  1.6100000000000D+00 -1.5463933081185D-01 -1.1762176507983D-01
   163  1.6200000000000D+00 -1.7044735317318D-01 -1.0723747956609D-01
   164  1.6300000000000D+00 -1.8468303533085D-01 -9.7241293030706D-02
   165  1.6400000000000D+00 -1.9736332606803D-01 -8.7649985689898D-02
   166  1.6500000000000D+00 -2.0851095689701D-01 -7.8477876894960D-02
   167  1.6600000000000D+00 -2.1815430644100D-01 -6.9736815544450D-02
   168  1.6700000000000D+00 -2.2632725106596D-01 -6.1436177394451D-02
   169  1.6800000000000D+00 -2.3306900345753D-01 -5.3582868776638D-02
   170  1.6900000000000D+00 -2.3842394529475D-01 -4.6181334883397D-02
   171  1.7000000000000D+00 -2.4244142706205D-01 -3.9233581265673D-02
   172  1.7100000000000D+00 -2.4517563784893D-01 -3.2739175448711D-02
   173  1.7200000000000D+00 -2.4668527796377D-01 -2.6695315958207D-02
   174  1.7300000000000D+00 -2.4703340322650D-01 -2.1096846358044D-02
   175  1.7400000000000D+00 -2.4628766953852D-01 -1.5936146696652D-02
   176  1.7500000000000D+00 -2.4451956437060D-01 -1.1203351986167D-02
   177  1.7600000000000D+00 -2.4180307189693D-01 -6.8867497979375D-03
   178  1.7700000000000D+00 -2.3821360502306D-01 -2.9731123136575D-03
   179  1.7800000000000D+00 -2.3382662531218D-01  5.5185316657727D-04
   180  1.7900000000000D+00 -2.2871669096487D-01  3.7031892054659D-03
   181  1.8000000000000D+00 -2.2295756783950D-01  6.4967045037673D-03
   182  1.8100000000000D+00 -2.1662203774461D-01  8.9488887436048D-03
   183  1.8200000000000D+00 -2.0978141738884D-01  1.1076739445146D-02
   184  1.8300000000000D+00 -2.0250536965266D-01  1.2897675914870D-02
   185  1.8400000000000D+00 -1.9486161492272D-01  1.4429420484907D-02
   186  1.8500000000000D+00 -1.8691569410838D-01  1.5689894118361D-02
   187  1.8600000000000D+00 -1.7873074439876D-01  1.6697114284705D-02
   188  1.8700000000000D+00 -1.7036729193029D-01  1.7469096586322D-02
   189  1.8800000000000D+00 -1.6188306530664D-01  1.8023761446438D-02
   190  1.8900000000000D+00 -1.5333282814648D-01  1.8378845437506D-02
   191  1.9000000000000D+00 -1.4476823283468D-01  1.8551818045674D-02
   192  1.9100000000000D+00 -1.3623769538849D-01  1.8559803968524D-02
   193  1.9200000000000D+00 -1.2778629095740D-01  1.8419510927696D-02
   194  1.9300000000000D+00 -1.1945567237212D-01  1.8147163876465D-02
   195  1.9400000000000D+00 -1.1128400806099D-01  1.7758444568138D-02
   196  1.9500000000000D+00 -1.0330594404877D-01  1.7268438110766D-02
   197  1.9600000000000D+00 -9.5552584851153D-02  1.6691584973531D-02
   198  1.9700000000000D+00 -8.8051497038563D-02  1.6041639791631D-02
   199  1.9800000000000D+00 -8.0826732463840D-02  1.5331636117993D-02
   200  1.9900000000000D+00 -7.3898871201546D-02  1.4573857270167D-02
   201  2.0000000000000D+00 -6.7285084917916D-02  1.3779813641942D-02
   202  2.0100000000000D+00 -6.0999216576629D-02  1.2960225241884D-02
   203  2.0200000000000D+00 -5.5051880079958D-02  1.2125010817312D-02
   204  2.0300000000000D+00 -4.9450574379228D-02  1.1283281831951D-02
   205  2.0400000000000D+00 -4.4199814165900D-02  1.0443342178201D-02
   206  2.0500000000000D+00 -3.9301274673456D-02  9.6126929039719D-03
   207  2.0600000000000D+00 -3.4753948749968D-02  8.7980414530364D-03
   208  2.0700000000000D+00 -3.0554316883180D-02  8.0053158468256D-03
   209  2.0800000000000D+00 -2.6696526280150D-02  7.2396825054405D-03
   210  2.0900000000000D+00 -2.3172579744645D-02  6.5055682245295D-03
   211  2.1000000000000D+00 -1.9972531687237D-02  5.8066854247779D-03
   212  2.1100000000000D+00 -1.7084689970785D-02  5.1460603772429D-03
   213  2.1200000000000D+00 -1.4495822451661D-02  4.5260642387833D-03
   214  2.1300000000000D+00 -1.2191366442611D-02  3.9484462005654D-03
   215  2.1400000000000D+00 -1.0155639328365D-02  3.4143685208532D-03
   216  2.1500000000000D+00 -8.3720493151082D-03  2.9244430077313D-03
   217  2.1600000000000D+00 -6.8233047992353D-03  2.4787685650744D-03
   218  2.1700000000000D+00 -5.4916197179773D-03  2.0769691912754D-03
   219  2.1800000000000D+00 -4.3589159034730D-03  1.7182325320619D-03
   220  2.1900000000000D+00 -3.4070181313196D-03  1.4013479606302D-03
   221  2.2000000000000D+00 -2.6178421272895D-03  1.1247441766883D-03
   222  2.2100000000000D+00 -1.9735757502356D-03  8.8652634151749D-04
   223  2.2200000000000D+00 -1.4568473115514D-03  6.8451119297972D-04
   224  2.2300000000000D+00 -1.0508859730899D-03  5.1626136554347D-04
   225  2.2400000000000D+00 -7.3966908595485D-04  3.7911755898735D-04
   226  2.2500000000000D+00 -5.0816119460616D-04  2.7025409821357D-04
   227  2.2600000000000D+00 -3.4202883536059D-04  1.8660741292974D-04
   228  2.2700000000000D+00 -2.2800660499899D-04  1.2493831915106D-04
   229  2.2800000000000D+00 -1.5381848744965D-04  8.1772293569593D-05
   230  2.2900000000000D+00 -1.1104570095300D-04  5.4569913689974D-05
   231  2.3000000000000D+00 -9.2368554065903D-05  4.0684013875730D-05
   232  2.3100000000000D+00 -8.7470444864004D-05  3.5568620861278D-05
   233  2.3200000000000D+00 -8.1524210654336D-05  3.2210441050530D-05
   234  2.3300000000000D+00 -6.1282911841593D-05  2.4067478728749D-05
   235  2.3400000000000D+00 -3.1049907458355D-05  1.2193743207611D-05
   236  2.3500000000000D+00 -2.9361883679309D-06  1.1568789009558D-06
   237  2.3600000000000D+00  7.6458123533763D-06 -2.9539048158898D-06
   238  2.3700000000000D+00  6.2832650849514D-06 -2.4247852579267D-06
   239  2.3800000000000D+00 -1.2696979193683D-07  4.8877873800540D-08
   240  2.3900000000000D+00 -1.7273709873755D-06  6.6398857488301D-07
   241  2.4000000000000D+00 -1.2895471613301D-06  4.9509664394318D-07
   242  2.4100000000000D+00  5.4120060151989D-08 -2.1346916296642D-08
   243  2.4200000000000D+00  2.1595359221317D-07 -8.5179935942185D-08
   244  2.4300000000000D+00  1.4319566288501D-07 -5.6481567482813D-08
   245  2.4400000000000D+00  0.0000000000000D+00  0.0000000000000D+00
   246  2.4500000000000D+00  0.0000000000000D+00  0.0000000000000D+00
   247  2.4600000000000D+00  0.0000000000000D+00  0.0000000000000D+00
   248  2.4700000000000D+00  0.0000000000000D+00  0.0000000000000D+00
   249  2.4800000000000D+00  0.0000000000000D+00  0.0000000000000D+00
   250  2.4900000000000D+00  0.0000000000000D+00  0.0000000000000D+00
   251  2.5000000000000D+00  0.0000000000000D+00  0.0000000000000D+00
   252  2.5100000000000D+00  0.0000000000000D+00  0.0000000000000D+00
   253  2.5200000000000D+00  0.0000000000000D+00  0.0000000000000D+00
   254  2.5300000000000D+00  0.0000000000000D+00  0.0000000000000D+00
   255  2.5400000000000D+00  0.0000000000000D+00  0.0000000000000D+00
   256  2.5500000000000D+00  0.0000000000000D+00  0.0000000000000D+00
   257  2.5600000000000D+00  0.0000000000000D+00  0.0000000000000D+00
   258  2.5700000000000D+00  0.0000000000000D+00  0.0000000000000D+00
   259  2.5800000000000D+00  0.0000000000000D+00  0.0000000000000D+00
   260  2.5900000000000D+00  0.0000000000000D+00  0.0000000000000D+00
   261  2.6000000000000D+00  0.0000000000000D+00  0.0000000000000D+00
   262  2.6100000000000D+00  0.0000000000000D+00  0.0000000000000D+00
   263  2.6200000000000D+00  0.0000000000000D+00  0.0000000000000D+00
   264  2.6300000000000D+00  0.0000000000000D+00  0.0000000000000D+00
   265  2.6400000000000D+00  0.0000000000000D+00  0.0000000000000D+00
   266  2.6500000000000D+00  0.0000000000000D+00  0.0000000000000D+00
   267  2.6600000000000D+00  0.0000000000000D+00  0.0000000000000D+00
   268  2.6700000000000D+00  0.0000000000000D+00  0.0000000000000D+00
   269  2.6800000000000D+00  0.0000000000000D+00  0.0000000000000D+00
   270  2.6900000000000D+00  0.0000000000000D+00  0.0000000000000D+00
   271  2.7000000000000D+00  0.0000000000000D+00  0.0000000000000D+00
   272  2.7100000000000D+00  0.0000000000000D+00  0.0000000000000D+00
   273  2.7200000000000D+00  0.0000000000000D+00  0.0000000000000D+00
   274  2.7300000000000D+00  0.0000000000000D+00  0.0000000000000D+00
   275  2.7400000000000D+00  0.0000000000000D+00  0.0000000000000D+00
   276  2.7500000000000D+00  0.0000000000000D+00  0.0000000000000D+00
   277  2.7600000000000D+00  0.0000000000000D+00  0.0000000000000D+00
   278  2.7700000000000D+00  0.0000000000000D+00  0.0000000000000D+00
   279  2.7800000000000D+00  0.0000000000000D+00  0.0000000000000D+00
   280  2.7900000000000D+00  0.0000000000000D+00  0.0000000000000D+00
   281  2.8000000000000D+00  0.0000000000000D+00  0.0000000000000D+00
   282  2.8100000000000D+00  0.0000000000000D+00  0.0000000000000D+00
   283  2.8200000000000D+00  0.0000000000000D+00  0.0000000000000D+00
   284  2.8300000000000D+00  0.0000000000000D+00  0.0000000000000D+00
   285  2.8400000000000D+00  0.0000000000000D+00  0.0000000000000D+00
   286  2.8500000000000D+00  0.0000000000000D+00  0.0000000000000D+00
   287  2.8600000000000D+00  0.0000000000000D+00  0.0000000000000D+00
   288  2.8700000000000D+00  0.0000000000000D+00  0.0000000000000D+00
   289  2.8800000000000D+00  0.0000000000000D+00  0.0000000000000D+00
   290  2.8900000000000D+00  0.0000000000000D+00  0.0000000000000D+00
   291  2.9000000000000D+00  0.0000000000000D+00  0.0000000000000D+00
   292  2.9100000000000D+00  0.0000000000000D+00  0.0000000000000D+00
   293  2.9200000000000D+00  0.0000000000000D+00  0.0000000000000D+00
   294  2.9300000000000D+00  0.0000000000000D+00  0.0000000000000D+00
   295  2.9400000000000D+00  0.0000000000000D+00  0.0000000000000D+00
   296  2.9500000000000D+00  0.0000000000000D+00  0.0000000000000D+00
   297  2.9600000000000D+00  0.0000000000000D+00  0.0000000000000D+00
   298  2.9700000000000D+00  0.0000000000000D+00  0.0000000000000D+00
   299  2.9800000000000D+00  0.0000000000000D+00  0.0000000000000D+00
   300  2.9900000000000D+00  0.0000000000000D+00  0.0000000000000D+00
   301  3.0000000000000D+00  0.0000000000000D+00  0.0000000000000D+00
   302  3.0100000000000D+00  0.0000000000000D+00  0.0000000000000D+00
   303  3.0200000000000D+00  0.0000000000000D+00  0.0000000000000D+00
   304  3.0300000000000D+00  0.0000000000000D+00  0.0000000000000D+00
   305  3.0400000000000D+00  0.0000000000000D+00  0.0000000000000D+00
   306  3.0500000000000D+00  0.0000000000000D+00  0.0000000000000D+00
   307  3.0600000000000D+00  0.0000000000000D+00  0.0000000000000D+00
   308  3.0700000000000D+00  0.0000000000000D+00  0.0000000000000D+00
   309  3.0800000000000D+00  0.0000000000000D+00  0.0000000000000D+00
   310  3.0900000000000D+00  0.0000000000000D+00  0.0000000000000D+00
   311  3.1000000000000D+00  0.0000000000000D+00  0.0000000000000D+00
   312  3.1100000000000D+00  0.0000000000000D+00  0.0000000000000D+00
   313  3.1200000000000D+00  0.0000000000000D+00  0.0000000000000D+00
   314  3.1300000000000D+00  0.0000000000000D+00  0.0000000000000D+00
   315  3.1400000000000D+00  0.0000000000000D+00  0.0000000000000D+00
   316  3.1500000000000D+00  0.0000000000000D+00  0.0000000000000D+00
   317  3.1600000000000D+00  0.0000000000000D+00  0.0000000000000D+00
   318  3.1700000000000D+00  0.0000000000000D+00  0.0000000000000D+00
   319  3.1800000000000D+00  0.0000000000000D+00  0.0000000000000D+00
   320  3.1900000000000D+00  0.0000000000000D+00  0.0000000000000D+00
   321  3.2000000000000D+00  0.0000000000000D+00  0.0000000000000D+00
   322  3.2100000000000D+00  0.0000000000000D+00  0.0000000000000D+00
   323  3.2200000000000D+00  0.0000000000000D+00  0.0000000000000D+00
   324  3.2300000000000D+00  0.0000000000000D+00  0.0000000000000D+00
   325  3.2400000000000D+00  0.0000000000000D+00  0.0000000000000D+00
   326  3.2500000000000D+00  0.0000000000000D+00  0.0000000000000D+00
   327  3.2600000000000D+00  0.0000000000000D+00  0.0000000000000D+00
   328  3.2700000000000D+00  0.0000000000000D+00  0.0000000000000D+00
   329  3.2800000000000D+00  0.0000000000000D+00  0.0000000000000D+00
   330  3.2900000000000D+00  0.0000000000000D+00  0.0000000000000D+00
   331  3.3000000000000D+00  0.0000000000000D+00  0.0000000000000D+00
   332  3.3100000000000D+00  0.0000000000000D+00  0.0000000000000D+00
   333  3.3200000000000D+00  0.0000000000000D+00  0.0000000000000D+00
   334  3.3300000000000D+00  0.0000000000000D+00  0.0000000000000D+00
   335  3.3400000000000D+00  0.0000000000000D+00  0.0000000000000D+00
   336  3.3500000000000D+00  0.0000000000000D+00  0.0000000000000D+00
   337  3.3600000000000D+00  0.0000000000000D+00  0.0000000000000D+00
   338  3.3700000000000D+00  0.0000000000000D+00  0.0000000000000D+00
   339  3.3800000000000D+00  0.0000000000000D+00  0.0000000000000D+00
   340  3.3900000000000D+00  0.0000000000000D+00  0.0000000000000D+00
   341  3.4000000000000D+00  0.0000000000000D+00  0.0000000000000D+00
   342  3.4100000000000D+00  0.0000000000000D+00  0.0000000000000D+00
   343  3.4200000000000D+00  0.0000000000000D+00  0.0000000000000D+00
   344  3.4300000000000D+00  0.0000000000000D+00  0.0000000000000D+00
   345  3.4400000000000D+00  0.0000000000000D+00  0.0000000000000D+00
   346  3.4500000000000D+00  0.0000000000000D+00  0.0000000000000D+00
   347  3.4600000000000D+00  0.0000000000000D+00  0.0000000000000D+00
   348  3.4700000000000D+00  0.0000000000000D+00  0.0000000000000D+00
   349  3.4800000000000D+00  0.0000000000000D+00  0.0000000000000D+00
   350  3.4900000000000D+00  0.0000000000000D+00  0.0000000000000D+00
   351  3.5000000000000D+00  0.0000000000000D+00  0.0000000000000D+00
   352  3.5100000000000D+00  0.0000000000000D+00  0.0000000000000D+00
   353  3.5200000000000D+00  0.0000000000000D+00  0.0000000000000D+00
   354  3.5300000000000D+00  0.0000000000000D+00  0.0000000000000D+00
   355  3.5400000000000D+00  0.0000000000000D+00  0.0000000000000D+00
   356  3.5500000000000D+00  0.0000000000000D+00  0.0000000000000D+00
   357  3.5600000000000D+00  0.0000000000000D+00  0.0000000000000D+00
   358  3.5700000000000D+00  0.0000000000000D+00  0.0000000000000D+00
   359  3.5800000000000D+00  0.0000000000000D+00  0.0000000000000D+00
   360  3.5900000000000D+00  0.0000000000000D+00  0.0000000000000D+00
   361  3.6000000000000D+00  0.0000000000000D+00  0.0000000000000D+00
   362  3.6100000000000D+00  0.0000000000000D+00  0.0000000000000D+00
   363  3.6200000000000D+00  0.0000000000000D+00  0.0000000000000D+00
   364  3.6300000000000D+00  0.0000000000000D+00  0.0000000000000D+00
   365  3.6400000000000D+00  0.0000000000000D+00  0.0000000000000D+00
   366  3.6500000000000D+00  0.0000000000000D+00  0.0000000000000D+00
   367  3.6600000000000D+00  0.0000000000000D+00  0.0000000000000D+00
   368  3.6700000000000D+00  0.0000000000000D+00  0.0000000000000D+00
   369  3.6800000000000D+00  0.0000000000000D+00  0.0000000000000D+00
   370  3.6900000000000D+00  0.0000000000000D+00  0.0000000000000D+00
   371  3.7000000000000D+00  0.0000000000000D+00  0.0000000000000D+00
   372  3.7100000000000D+00  0.0000000000000D+00  0.0000000000000D+00
   373  3.7200000000000D+00  0.0000000000000D+00  0.0000000000000D+00
   374  3.7300000000000D+00  0.0000000000000D+00  0.0000000000000D+00
   375  3.7400000000000D+00  0.0000000000000D+00  0.0000000000000D+00
   376  3.7500000000000D+00  0.0000000000000D+00  0.0000000000000D+00
   377  3.7600000000000D+00  0.0000000000000D+00  0.0000000000000D+00
   378  3.7700000000000D+00  0.0000000000000D+00  0.0000000000000D+00
   379  3.7800000000000D+00  0.0000000000000D+00  0.0000000000000D+00
   380  3.7900000000000D+00  0.0000000000000D+00  0.0000000000000D+00
   381  3.8000000000000D+00  0.0000000000000D+00  0.0000000000000D+00
   382  3.8100000000000D+00  0.0000000000000D+00  0.0000000000000D+00
   383  3.8200000000000D+00  0.0000000000000D+00  0.0000000000000D+00
   384  3.8300000000000D+00  0.0000000000000D+00  0.0000000000000D+00
   385  3.8400000000000D+00  0.0000000000000D+00  0.0000000000000D+00
   386  3.8500000000000D+00  0.0000000000000D+00  0.0000000000000D+00
   387  3.8600000000000D+00  0.0000000000000D+00  0.0000000000000D+00
   388  3.8700000000000D+00  0.0000000000000D+00  0.0000000000000D+00
   389  3.8800000000000D+00  0.0000000000000D+00  0.0000000000000D+00
   390  3.8900000000000D+00  0.0000000000000D+00  0.0000000000000D+00
   391  3.9000000000000D+00  0.0000000000000D+00  0.0000000000000D+00
   392  3.9100000000000D+00  0.0000000000000D+00  0.0000000000000D+00
   393  3.9200000000000D+00  0.0000000000000D+00  0.0000000000000D+00
   394  3.9300000000000D+00  0.0000000000000D+00  0.0000000000000D+00
   395  3.9400000000000D+00  0.0000000000000D+00  0.0000000000000D+00
   396  3.9500000000000D+00  0.0000000000000D+00  0.0000000000000D+00
   397  3.9600000000000D+00  0.0000000000000D+00  0.0000000000000D+00
   398  3.9700000000000D+00  0.0000000000000D+00  0.0000000000000D+00
   399  3.9800000000000D+00  0.0000000000000D+00  0.0000000000000D+00
   400  3.9900000000000D+00  0.0000000000000D+00  0.0000000000000D+00
   401  4.0000000000000D+00  0.0000000000000D+00  0.0000000000000D+00
   402  4.0100000000000D+00  0.0000000000000D+00  0.0000000000000D+00
   403  4.0200000000000D+00  0.0000000000000D+00  0.0000000000000D+00
   404  4.0300000000000D+00  0.0000000000000D+00  0.0000000000000D+00
   405  4.0400000000000D+00  0.0000000000000D+00  0.0000000000000D+00
   406  4.0500000000000D+00  0.0000000000000D+00  0.0000000000000D+00
   407  4.0600000000000D+00  0.0000000000000D+00  0.0000000000000D+00
   408  4.0700000000000D+00  0.0000000000000D+00  0.0000000000000D+00
   409  4.0800000000000D+00  0.0000000000000D+00  0.0000000000000D+00
   410  4.0900000000000D+00  0.0000000000000D+00  0.0000000000000D+00
   411  4.1000000000000D+00  0.0000000000000D+00  0.0000000000000D+00
   412  4.1100000000000D+00  0.0000000000000D+00  0.0000000000000D+00
   413  4.1200000000000D+00  0.0000000000000D+00  0.0000000000000D+00
   414  4.1300000000000D+00  0.0000000000000D+00  0.0000000000000D+00
   415  4.1400000000000D+00  0.0000000000000D+00  0.0000000000000D+00
   416  4.1500000000000D+00  0.0000000000000D+00  0.0000000000000D+00
   417  4.1600000000000D+00  0.0000000000000D+00  0.0000000000000D+00
   418  4.1700000000000D+00  0.0000000000000D+00  0.0000000000000D+00
   419  4.1800000000000D+00  0.0000000000000D+00  0.0000000000000D+00
   420  4.1900000000000D+00  0.0000000000000D+00  0.0000000000000D+00
   421  4.2000000000000D+00  0.0000000000000D+00  0.0000000000000D+00
   422  4.2100000000000D+00  0.0000000000000D+00  0.0000000000000D+00