Y     ONCVPSP-3.3.1  r_core=   2.32341   2.11194   1.85223
     39.0000     11.0000      210904    zatom,zion,pspd
     8       2   2     4   600     0    pspcod,pspxc,lmax,lloc,mmax,r2well
  5.99000000  0.00000000  0.00000000    rchrg fchrg qchrg
     2     2     2     0     0    nproj
     1     1           extension_switch
   0                         5.2336777723022D+00  8.3951304958664D-01
     1  0.0000000000000D+00  1.0760503599272D-11 -2.7811267178102D-11
     2  1.0000000000000D-02  4.2070839034460D-02 -3.3002640139205D-03
     3  2.0000000000000D-02  8.4110156772401D-02 -6.6101496625200D-03
     4  3.0000000000000D-02  1.2608638803650D-01 -9.9390763428427D-03
     5  4.0000000000000D-02  1.6796788037879D-01 -1.3296060311305D-02
     6  5.0000000000000D-02  2.0972285167009D-01 -1.6689516442945D-02
     7  6.0000000000000D-02  2.5131934915151D-01 -2.0127063966496D-02
     8  7.0000000000000D-02  2.9272521042270D-01 -2.3615337467866D-02
     9  8.0000000000000D-02  3.3390802683086D-01 -2.7159804426823D-02
    10  9.0000000000000D-02  3.7483510971114D-01 -3.0764590517126D-02
    11  1.0000000000000D-01  4.1547345991298D-01 -3.4432313859284D-02
    12  1.1000000000000D-01  4.5578974102887D-01 -3.8163929367665D-02
    13  1.2000000000000D-01  4.9575025672106D-01 -4.1958584280076D-02
    14  1.3000000000000D-01  5.3532093251882D-01 -4.5813485898448D-02
    15  1.4000000000000D-01  5.7446730243358D-01 -4.9723782504155D-02
    16  1.5000000000000D-01  6.1315450071219D-01 -5.3682458341010D-02
    17  1.6000000000000D-01  6.5134725901906D-01 -5.7680243483615D-02
    18  1.7000000000000D-01  6.8900990930730D-01 -6.1705539328641D-02
    19  1.8000000000000D-01  7.2610639260602D-01 -6.5744360362245D-02
    20  1.9000000000000D-01  7.6260027391712D-01 -6.9780292768720D-02
    21  2.0000000000000D-01  7.9845476337919D-01 -7.3794470353781D-02
    22  2.1000000000000D-01  8.3363274381954D-01 -7.7765568161221D-02
    23  2.2000000000000D-01  8.6809680477807D-01 -8.1669814064562D-02
    24  2.3000000000000D-01  9.0180928304772D-01 -8.5481018515903D-02
    25  2.4000000000000D-01  9.3473230973770D-01 -8.9170622533424D-02
    26  2.5000000000000D-01  9.6682786382583D-01 -9.2707763906890D-02
    27  2.6000000000000D-01  9.9805783212698D-01 -9.6059361497966D-02
    28  2.7000000000000D-01  1.0283840755644D+00 -9.9190217409354D-02
    29  2.8000000000000D-01  1.0577685015915D+00 -1.0206313669464D-01
    30  2.9000000000000D-01  1.0861731425722D+00 -1.0463906417911D-01
    31  3.0000000000000D-01  1.1135602398893D+00 -1.0687723786223D-01
    32  3.1000000000000D-01  1.1398923335122D+00 -1.0873535827401D-01
    33  3.2000000000000D-01  1.1651323567194D+00 -1.1016977306270D-01
    34  3.3000000000000D-01  1.1892437356332D+00 -1.1113567599785D-01
    35  3.4000000000000D-01  1.2121904931917D+00 -1.1158731948458D-01
    36  3.5000000000000D-01  1.2339373571493D+00 -1.1147823959910D-01
    37  3.6000000000000D-01  1.2544498716653D+00 -1.1076149257520D-01
    38  3.7000000000000D-01  1.2736945120113D+00 -1.0938990159526D-01
    39  3.8000000000000D-01  1.2916388019014D+00 -1.0731631266923D-01
    40  3.9000000000000D-01  1.3082514329222D+00 -1.0449385831935D-01
    41  4.0000000000000D-01  1.3235023855182D+00 -1.0087622773055D-01
    42  4.1000000000000D-01  1.3373630509690D+00 -9.6417941973148D-02
    43  4.2000000000000D-01  1.3498063537736D+00 -9.1074632859576D-02
    44  4.3000000000000D-01  1.3608068738458D+00 -8.4803323957875D-02
    45  4.4000000000000D-01  1.3703409679116D+00 -7.7562712253768D-02
    46  4.5000000000000D-01  1.3783868894875D+00 -6.9313448929339D-02
    47  4.6000000000000D-01  1.3849249068189D+00 -6.0018417710511D-02
    48  4.7000000000000D-01  1.3899374181469D+00 -4.9643009227755D-02
    49  4.8000000000000D-01  1.3934090636789D+00 -3.8155389834357D-02
    50  4.9000000000000D-01  1.3953268336382D+00 -2.5526763335095D-02
    51  5.0000000000000D-01  1.3956801717738D+00 -1.1731624094589D-02
    52  5.1000000000000D-01  1.3944610737247D+00  3.2519999807805D-03
    53  5.2000000000000D-01  1.3916641796420D+00  1.9442316060532D-02
    54  5.3000000000000D-01  1.3872868604917D+00  3.6853548039540D-02
    55  5.4000000000000D-01  1.3813292974779D+00  5.5495732602743D-02
    56  5.5000000000000D-01  1.3737945540497D+00  7.5374531031620D-02
    57  5.6000000000000D-01  1.3646886399811D+00  9.6491058014941D-02
    58  5.7000000000000D-01  1.3540205670385D+00  1.1884172865447D-01
    59  5.8000000000000D-01  1.3418023957866D+00  1.4241812477772D-01
    60  5.9000000000000D-01  1.3280492731116D+00  1.6720688158456D-01
    61  6.0000000000000D-01  1.3127794600813D+00  1.9318959556252D-01
    62  6.1000000000000D-01  1.2960143497979D+00  2.2034275450818D-01
    63  6.2000000000000D-01  1.2777784749423D+00  2.4863769038894D-01
    64  6.3000000000000D-01  1.2580995047483D+00  2.7804055567092D-01
    65  6.4000000000000D-01  1.2370082311951D+00  3.0851232362643D-01
    66  6.5000000000000D-01  1.2145385442474D+00  3.4000881301793D-01
    67  6.6000000000000D-01  1.1907273960254D+00  3.7248073743462D-01
    68  6.7000000000000D-01  1.1656147538314D+00  4.0587377943613D-01
    69  6.8000000000000D-01  1.1392435420152D+00  4.4012868953178D-01
    70  6.9000000000000D-01  1.1116595727055D+00  4.7518140989785D-01
    71  7.0000000000000D-01  1.0829114654918D+00  5.1096322260770D-01
    72  7.1000000000000D-01  1.0530505561869D+00  5.4740092202222D-01
    73  7.2000000000000D-01  1.0221307948583D+00  5.8441701086041D-01
    74  7.3000000000000D-01  9.9020863336176D-01  6.2192991934419D-01
    75  7.4000000000000D-01  9.5734290266574D-01  6.5985424668716D-01
    76  7.5000000000000D-01  9.2359468030270D-01  6.9810102407523D-01
    77  7.6000000000000D-01  8.8902714833400D-01  7.3657799816851D-01
    78  7.7000000000000D-01  8.5370544226121D-01  7.7518993403911D-01
    79  7.8000000000000D-01  8.1769649136369D-01  8.1383893634906D-01
    80  7.9000000000000D-01  7.8106885098603D-01  8.5242478746755D-01
    81  8.0000000000000D-01  7.4389252734129D-01  8.9084530112714D-01
    82  8.1000000000000D-01  7.0623879543568D-01  9.2899669012565D-01
    83  8.2000000000000D-01  6.6818001075756D-01  9.6677394649409D-01
    84  8.3000000000000D-01  6.2978941540855D-01  1.0040712324720D+00
    85  8.4000000000000D-01  5.9114093938565D-01  1.0407822805614D+00
    86  8.5000000000000D-01  5.5230899775228D-01  1.0768008008668D+00
    87  8.6000000000000D-01  5.1336828446094D-01  1.1120208938761D+00
    88  8.7000000000000D-01  4.7439356361237D-01  1.1463374667926D+00
    89  8.8000000000000D-01  4.3545945895376D-01  1.1796466514915D+00
    90  8.9000000000000D-01  3.9664024243348D-01  1.2118462221518D+00
    91  9.0000000000000D-01  3.5800962264011D-01  1.2428360105962D+00
    92  9.1000000000000D-01  3.1964053396042D-01  1.2725183173686D+00
    93  9.2000000000000D-01  2.8160492729381D-01  1.3007983165820D+00
    94  9.3000000000000D-01  2.4397356315922D-01  1.3275844525868D+00
    95  9.4000000000000D-01  2.0681580802561D-01  1.3527888265326D+00
    96  9.5000000000000D-01  1.7019943468749D-01  1.3763275709360D+00
    97  9.6000000000000D-01  1.3419042749414D-01  1.3981212104081D+00
    98  9.7000000000000D-01  9.8852793223183D-02  1.4180950067574D+00
    99  9.8000000000000D-01  6.4248378369055D-02  1.4361792867437D+00
   100  9.9000000000000D-01  3.0436693591159D-02  1.4523097508368D+00
   101  1.0000000000000D+00 -2.5252539618705D-03  1.4664277614187D+00
   102  1.0100000000000D+00 -3.4583119767471D-02  1.4784806089581D+00
   103  1.0200000000000D+00 -6.5685371835410D-02  1.4884217547908D+00
   104  1.0300000000000D+00 -9.5783430795050D-02  1.4962110492434D+00
   105  1.0400000000000D+00 -1.2483179959711D-01  1.5018149239631D+00
   106  1.0500000000000D+00 -1.5278818230421D-01  1.5052065574245D+00
   107  1.0600000000000D+00 -1.7961359149710D-01  1.5063660127276D+00
   108  1.0700000000000D+00 -2.0527244386963D-01  1.5052803469275D+00
   109  1.0800000000000D+00 -2.2973264363819D-01  1.5019436912734D+00
   110  1.0900000000000D+00 -2.5296565344900D-01  1.4963573018897D+00
   111  1.1000000000000D+00 -2.7494655251200D-01  1.4885295805484D+00
   112  1.1100000000000D+00 -2.9565408175982D-01  1.4784760653662D+00
   113  1.1200000000000D+00 -3.1507067587821D-01  1.4662193913798D+00
   114  1.1300000000000D+00 -3.3318248212042D-01  1.4517892211260D+00
   115  1.1400000000000D+00 -3.4997936586702D-01  1.4352221454720D+00
   116  1.1500000000000D+00 -3.6545490296108D-01  1.4165615551201D+00
   117  1.1600000000000D+00 -3.7960635890285D-01  1.3958574833398D+00
   118  1.1700000000000D+00 -3.9243465505270D-01  1.3731664206435D+00
   119  1.1800000000000D+00 -4.0394432203134D-01  1.3485511022175D+00
   120  1.1900000000000D+00 -4.1414344058380D-01  1.3220802691100D+00
   121  1.2000000000000D+00 -4.2304357021814D-01  1.2938284042809D+00
   122  1.2100000000000D+00 -4.3065966598366D-01  1.2638754447443D+00
   123  1.2200000000000D+00 -4.3700998379728D-01  1.2323064711384D+00
   124  1.2300000000000D+00 -4.4211597479249D-01  1.1992113762063D+00
   125  1.2400000000000D+00 -4.4600216920512D-01  1.1646845137553D+00
   126  1.2500000000000D+00 -4.4869605033148D-01  1.1288243297138D+00
   127  1.2600000000000D+00 -4.5022791917312D-01  1.0917329770706D+00
   128  1.2700000000000D+00 -4.5063075039846D-01  1.0535159165071D+00
   129  1.2800000000000D+00 -4.4994004027148D-01  1.0142815045771D+00
   130  1.2900000000000D+00 -4.4819364725993D-01  9.7414057140647D-01
   131  1.3000000000000D+00 -4.4543162604370D-01  9.3320598988411D-01
   132  1.3100000000000D+00 -4.4169605565459D-01  8.9159223834358D-01
   133  1.3200000000000D+00 -4.3703086252730D-01  8.4941495879880D-01
   134  1.3300000000000D+00 -4.3148163923062D-01  8.0679051275371D-01
   135  1.3400000000000D+00 -4.2509545966532D-01  7.6383553665440D-01
   136  1.3500000000000D+00 -4.1792069152916D-01  7.2066649900308D-01
   137  1.3600000000000D+00 -4.1000680683506D-01  6.7739926113073D-01
   138  1.3700000000000D+00 -4.0140419128830D-01  6.3414864364906D-01
   139  1.3800000000000D+00 -3.9216395329269D-01  5.9102800042885D-01
   140  1.3900000000000D+00 -3.8233773337629D-01  5.4814880205292D-01
   141  1.4000000000000D+00 -3.7197751479591D-01  5.0562023051794D-01
   142  1.4100000000000D+00 -3.6113543603909D-01  4.6354878683427D-01
   143  1.4200000000000D+00 -3.4986360599418D-01  4.2203791333970D-01
   144  1.4300000000000D+00 -3.3821392241706D-01  3.8118763203215D-01
   145  1.4400000000000D+00 -3.2623789441481D-01  3.4109420055966D-01
   146  1.4500000000000D+00 -3.1398646955564D-01  3.0184978710222D-01
   147  1.4600000000000D+00 -3.0150986616778D-01  2.6354216525430D-01
   148  1.4700000000000D+00 -2.8885741147793D-01  2.2625443027505D-01
   149  1.4800000000000D+00 -2.7607738595891D-01  1.9006473719643D-01
   150  1.4900000000000D+00 -2.6321687452705D-01  1.5504606212144D-01
   151  1.5000000000000D+00 -2.5032162486265D-01  1.2126598690602D-01
   152  1.5100000000000D+00 -2.3743591332877D-01  8.8786508050265D-02
   153  1.5200000000000D+00 -2.2460241879883D-01  5.7663870106125D-02
   154  1.5300000000000D+00 -2.1186210460119D-01  2.7948423636641D-02
   155  1.5400000000000D+00 -1.9925410897298D-01 -3.1549173258933D-04
   156  1.5500000000000D+00 -1.8681564394274D-01 -2.7089639955149D-02
   157  1.5600000000000D+00 -1.7458190309590D-01 -5.2341956196471D-02
   158  1.5700000000000D+00 -1.6258597792990D-01 -7.6046590824016D-02
   159  1.5800000000000D+00 -1.5085878317725D-01 -9.8183929277414D-02
   160  1.5900000000000D+00 -1.3942899074735D-01 -1.1874058932032D-01
   161  1.6000000000000D+00 -1.2832297247085D-01 -1.3770939573523D-01
   162  1.6100000000000D+00 -1.1756475131426D-01 -1.5508933390213D-01
   163  1.6200000000000D+00 -1.0717596103267D-01 -1.7088548289426D-01
   164  1.6300000000000D+00 -9.7175813951057D-02 -1.8510892946528D-01
   165  1.6400000000000D+00 -8.7581076648228D-02 -1.9777666404635D-01
   166  1.6500000000000D+00 -7.8406053241589D-02 -2.0891146010938D-01
   167  1.6600000000000D+00 -6.9662575891165D-02 -2.1854173837489D-01
   168  1.6700000000000D+00 -6.1360002205955D-02 -2.2670141726771D-01
   169  1.6800000000000D+00 -5.3505219061846D-02 -2.3342975131673D-01
   170  1.6900000000000D+00 -4.6102650988985D-02 -2.3877116365082D-01
   171  1.7000000000000D+00 -3.9154281778733D-02 -2.4277504563232D-01
   172  1.7100000000000D+00 -3.2659656197392D-02 -2.4549562648012D-01
   173  1.7200000000000D+00 -2.6615949143848D-02 -2.4699164570770D-01
   174  1.7300000000000D+00 -2.1017979792122D-02 -2.4732619723681D-01
   175  1.7400000000000D+00 -1.5858103069973D-02 -2.4656697381088D-01
   176  1.7500000000000D+00 -1.1126428347532D-02 -2.4478549829980D-01
   177  1.7600000000000D+00 -6.8112173451106D-03 -2.4205578862266D-01
   178  1.7700000000000D+00 -2.8992164329764D-03 -2.3845328963142D-01
   179  1.7800000000000D+00  6.2389257260125D-04 -2.3405349293756D-01
   180  1.7900000000000D+00  3.7731771796666D-03 -2.2893098480990D-01
   181  1.8000000000000D+00  6.5644704817990D-03 -2.2315955717706D-01
   182  1.8100000000000D+00  9.0142859382313D-03 -2.1681201590478D-01
   183  1.8200000000000D+00  1.1139644111391D-02 -2.0995969970006D-01
   184  1.8300000000000D+00  1.2957986553978D-02 -2.0267229136623D-01
   185  1.8400000000000D+00  1.4487056976186D-02 -1.9501752913454D-01
   186  1.8500000000000D+00  1.5744796791555D-02 -1.8706096968790D-01
   187  1.8600000000000D+00  1.6749242933302D-02 -1.7886576391722D-01
   188  1.8700000000000D+00  1.7518429428741D-02 -1.7049244959816D-01
   189  1.8800000000000D+00  1.8070294044253D-02 -1.6199876493460D-01
   190  1.8900000000000D+00  1.8422589577136D-02 -1.5343948113715D-01
   191  1.9000000000000D+00  1.8592800589963D-02 -1.4486625621084D-01
   192  1.9100000000000D+00  1.8598065684885D-02 -1.3632750986441D-01
   193  1.9200000000000D+00  1.8455105299712D-02 -1.2786831906099D-01
   194  1.9300000000000D+00  1.8180155906230D-02 -1.1953033662500D-01
   195  1.9400000000000D+00  1.7788909575428D-02 -1.1135172922258D-01
   196  1.9500000000000D+00  1.7296460536410D-02 -1.0336713943121D-01
   197  1.9600000000000D+00  1.6717257192821D-02 -9.5607666710541D-02
   198  1.9700000000000D+00  1.6065060944563D-02 -8.8100871048463D-02
   199  1.9800000000000D+00  1.5352910962213D-02 -8.0870796276162D-02
   200  1.9900000000000D+00  1.4593095062430D-02 -7.3938013099542D-02
   201  2.0000000000000D+00  1.3797127053980D-02 -6.7319682565953D-02
   202  2.0100000000000D+00  1.2975729315434D-02 -6.1029635870273D-02
   203  2.0200000000000D+00  1.2138821963855D-02 -5.5078474100247D-02
   204  2.0300000000000D+00  1.1295516881248D-02 -4.9473682453784D-02
   205  2.0400000000000D+00  1.0454117480122D-02 -4.4219761039483D-02
   206  2.0500000000000D+00  9.6221234874080D-03 -3.9318369789908D-02
   207  2.0600000000000D+00  8.8062402451204D-03 -3.4768485646862D-02
   208  2.0700000000000D+00  8.0123929557193D-03 -3.0566572700146D-02
   209  2.0800000000000D+00  7.2457445689600D-03 -2.6706761381191D-02
   210  2.0900000000000D+00  6.5107178268464D-03 -2.3181037454179D-02
   211  2.1000000000000D+00  5.8110205827734D-03 -1.9979438139176D-02
   212  2.1100000000000D+00  5.1496740976554D-03 -1.7090254069413D-02
   213  2.1200000000000D+00  4.5290441468248D-03 -1.4500235942284D-02
   214  2.1300000000000D+00  3.9508742403477D-03 -1.2194804090055D-02
   215  2.1400000000000D+00  3.4163207272009D-03 -1.0158259200038D-02
   216  2.1500000000000D+00  2.9259893488088D-03 -8.3739931655595D-03
   217  2.1600000000000D+00  2.4799728547792D-03 -6.8246985525794D-03
   218  2.1700000000000D+00  2.0778890694534D-03 -5.4925740433328D-03
   219  2.1800000000000D+00  1.7189195110943D-03 -4.3595268795931D-03
   220  2.1900000000000D+00  1.4018475355003D-03 -3.4073679946276D-03
   221  2.2000000000000D+00  1.1250959958034D-03 -2.6180000979709D-03
   222  2.2100000000000D+00  8.8676443568307D-04 -1.9735989313379D-03
   223  2.2200000000000D+00  6.8466425800389D-04 -1.4567816536344D-03
   224  2.2300000000000D+00  5.1635309558570D-04 -1.0507672992362D-03
   225  2.2400000000000D+00  3.7916702617314D-04 -7.3952417003970D-04
   226  2.2500000000000D+00  2.7027617904589D-04 -5.0800876986413D-04
   227  2.2600000000000D+00  1.8661323184141D-04 -3.4188108723153D-04
   228  2.2700000000000D+00  1.2493574961220D-04 -2.2787043264441D-04
   229  2.2800000000000D+00  8.1766496955641D-05 -1.5369700827567D-04
   230  2.2900000000000D+00  5.4563822686216D-05 -1.1093634430154D-04
   231  2.3000000000000D+00  4.0678875869088D-05 -9.2264655737359D-05
   232  2.3100000000000D+00  3.5564681508685D-05 -8.7367701022164D-05
   233  2.3200000000000D+00  3.2207639969275D-05 -8.1428872279710D-05
   234  2.3300000000000D+00  2.4065791125202D-05 -6.1212245390631D-05
   235  2.3400000000000D+00  1.2193022014102D-05 -3.1014574481610D-05
   236  2.3500000000000D+00  1.1568190706325D-06 -2.9328849677894D-06
   237  2.3600000000000D+00 -2.9537377688919D-06  7.6370703129736D-06
   238  2.3700000000000D+00 -2.4246560404064D-06  6.2761099074173D-06
   239  2.3800000000000D+00  4.8874335824099D-08 -1.2682052977024D-07
   240  2.3900000000000D+00  6.6394082145398D-07 -1.7253390712904D-06
   241  2.4000000000000D+00  4.9506122606381D-07 -1.2880294855346D-06
   242  2.4100000000000D+00 -2.1345208586540D-08  5.4057104963601D-08
   243  2.4200000000000D+00 -8.5173121719696D-08  2.1570238408364D-07
   244  2.4300000000000D+00 -5.6477049071722D-08  1.4302909045498D-07
   245  2.4400000000000D+00  0.0000000000000D+00  0.0000000000000D+00
   246  2.4500000000000D+00  0.0000000000000D+00  0.0000000000000D+00
   247  2.4600000000000D+00  0.0000000000000D+00  0.0000000000000D+00
   248  2.4700000000000D+00  0.0000000000000D+00  0.0000000000000D+00
   249  2.4800000000000D+00  0.0000000000000D+00  0.0000000000000D+00
   250  2.4900000000000D+00  0.0000000000000D+00  0.0000000000000D+00
   251  2.5000000000000D+00  0.0000000000000D+00  0.0000000000000D+00
   252  2.5100000000000D+00  0.0000000000000D+00  0.0000000000000D+00
   253  2.5200000000000D+00  0.0000000000000D+00  0.0000000000000D+00
   254  2.5300000000000D+00  0.0000000000000D+00  0.0000000000000D+00
   255  2.5400000000000D+00  0.0000000000000D+00  0.0000000000000D+00
   256  2.5500000000000D+00  0.0000000000000D+00  0.0000000000000D+00
   257  2.5600000000000D+00  0.0000000000000D+00  0.0000000000000D+00
   258  2.5700000000000D+00  0.0000000000000D+00  0.0000000000000D+00
   259  2.5800000000000D+00  0.0000000000000D+00  0.0000000000000D+00
   260  2.5900000000000D+00  0.0000000000000D+00  0.0000000000000D+00
   261  2.6000000000000D+00  0.0000000000000D+00  0.0000000000000D+00
   262  2.6100000000000D+00  0.0000000000000D+00  0.0000000000000D+00
   263  2.6200000000000D+00  0.0000000000000D+00  0.0000000000000D+00
   264  2.6300000000000D+00  0.0000000000000D+00  0.0000000000000D+00
   265  2.6400000000000D+00  0.0000000000000D+00  0.0000000000000D+00
   266  2.6500000000000D+00  0.0000000000000D+00  0.0000000000000D+00
   267  2.6600000000000D+00  0.0000000000000D+00  0.0000000000000D+00
   268  2.6700000000000D+00  0.0000000000000D+00  0.0000000000000D+00
   269  2.6800000000000D+00  0.0000000000000D+00  0.0000000000000D+00
   270  2.6900000000000D+00  0.0000000000000D+00  0.0000000000000D+00
   271  2.7000000000000D+00  0.0000000000000D+00  0.0000000000000D+00
   272  2.7100000000000D+00  0.0000000000000D+00  0.0000000000000D+00
   273  2.7200000000000D+00  0.0000000000000D+00  0.0000000000000D+00
   274  2.7300000000000D+00  0.0000000000000D+00  0.0000000000000D+00
   275  2.7400000000000D+00  0.0000000000000D+00  0.0000000000000D+00
   276  2.7500000000000D+00  0.0000000000000D+00  0.0000000000000D+00
   277  2.7600000000000D+00  0.0000000000000D+00  0.0000000000000D+00
   278  2.7700000000000D+00  0.0000000000000D+00  0.0000000000000D+00
   279  2.7800000000000D+00  0.0000000000000D+00  0.0000000000000D+00
   280  2.7900000000000D+00  0.0000000000000D+00  0.0000000000000D+00
   281  2.8000000000000D+00  0.0000000000000D+00  0.0000000000000D+00
   282  2.8100000000000D+00  0.0000000000000D+00  0.0000000000000D+00
   283  2.8200000000000D+00  0.0000000000000D+00  0.0000000000000D+00
   284  2.8300000000000D+00  0.0000000000000D+00  0.0000000000000D+00
   285  2.8400000000000D+00  0.0000000000000D+00  0.0000000000000D+00
   286  2.8500000000000D+00  0.0000000000000D+00  0.0000000000000D+00
   287  2.8600000000000D+00  0.0000000000000D+00  0.0000000000000D+00
   288  2.8700000000000D+00  0.0000000000000D+00  0.0000000000000D+00
   289  2.8800000000000D+00  0.0000000000000D+00  0.0000000000000D+00
   290  2.8900000000000D+00  0.0000000000000D+00  0.0000000000000D+00
   291  2.9000000000000D+00  0.0000000000000D+00  0.0000000000000D+00
   292  2.9100000000000D+00  0.0000000000000D+00  0.0000000000000D+00
   293  2.9200000000000D+00  0.0000000000000D+00  0.0000000000000D+00
   294  2.9300000000000D+00  0.0000000000000D+00  0.0000000000000D+00
   295  2.9400000000000D+00  0.0000000000000D+00  0.0000000000000D+00
   296  2.9500000000000D+00  0.0000000000000D+00  0.0000000000000D+00
   297  2.9600000000000D+00  0.0000000000000D+00  0.0000000000000D+00
   298  2.9700000000000D+00  0.0000000000000D+00  0.0000000000000D+00
   299  2.9800000000000D+00  0.0000000000000D+00  0.0000000000000D+00
   300  2.9900000000000D+00  0.0000000000000D+00  0.0000000000000D+00
   301  3.0000000000000D+00  0.0000000000000D+00  0.0000000000000D+00
   302  3.0100000000000D+00  0.0000000000000D+00  0.0000000000000D+00
   303  3.0200000000000D+00  0.0000000000000D+00  0.0000000000000D+00
   304  3.0300000000000D+00  0.0000000000000D+00  0.0000000000000D+00
   305  3.0400000000000D+00  0.0000000000000D+00  0.0000000000000D+00
   306  3.0500000000000D+00  0.0000000000000D+00  0.0000000000000D+00
   307  3.0600000000000D+00  0.0000000000000D+00  0.0000000000000D+00
   308  3.0700000000000D+00  0.0000000000000D+00  0.0000000000000D+00
   309  3.0800000000000D+00  0.0000000000000D+00  0.0000000000000D+00
   310  3.0900000000000D+00  0.0000000000000D+00  0.0000000000000D+00
   311  3.1000000000000D+00  0.0000000000000D+00  0.0000000000000D+00
   312  3.1100000000000D+00  0.0000000000000D+00  0.0000000000000D+00
   313  3.1200000000000D+00  0.0000000000000D+00  0.0000000000000D+00
   314  3.1300000000000D+00  0.0000000000000D+00  0.0000000000000D+00
   315  3.1400000000000D+00  0.0000000000000D+00  0.0000000000000D+00
   316  3.1500000000000D+00  0.0000000000000D+00  0.0000000000000D+00
   317  3.1600000000000D+00  0.0000000000000D+00  0.0000000000000D+00
   318  3.1700000000000D+00  0.0000000000000D+00  0.0000000000000D+00
   319  3.1800000000000D+00  0.0000000000000D+00  0.0000000000000D+00
   320  3.1900000000000D+00  0.0000000000000D+00  0.0000000000000D+00
   321  3.2000000000000D+00  0.0000000000000D+00  0.0000000000000D+00
   322  3.2100000000000D+00  0.0000000000000D+00  0.0000000000000D+00
   323  3.2200000000000D+00  0.0000000000000D+00  0.0000000000000D+00
   324  3.2300000000000D+00  0.0000000000000D+00  0.0000000000000D+00
   325  3.2400000000000D+00  0.0000000000000D+00  0.0000000000000D+00
   326  3.2500000000000D+00  0.0000000000000D+00  0.0000000000000D+00
   327  3.2600000000000D+00  0.0000000000000D+00  0.0000000000000D+00
   328  3.2700000000000D+00  0.0000000000000D+00  0.0000000000000D+00
   329  3.2800000000000D+00  0.0000000000000D+00  0.0000000000000D+00
   330  3.2900000000000D+00  0.0000000000000D+00  0.0000000000000D+00
   331  3.3000000000000D+00  0.0000000000000D+00  0.0000000000000D+00
   332  3.3100000000000D+00  0.0000000000000D+00  0.0000000000000D+00
   333  3.3200000000000D+00  0.0000000000000D+00  0.0000000000000D+00
   334  3.3300000000000D+00  0.0000000000000D+00  0.0000000000000D+00
   335  3.3400000000000D+00  0.0000000000000D+00  0.0000000000000D+00
   336  3.3500000000000D+00  0.0000000000000D+00  0.0000000000000D+00
   337  3.3600000000000D+00  0.0000000000000D+00  0.0000000000000D+00
   338  3.3700000000000D+00  0.0000000000000D+00  0.0000000000000D+00
   339  3.3800000000000D+00  0.0000000000000D+00  0.0000000000000D+00
   340  3.3900000000000D+00  0.0000000000000D+00  0.0000000000000D+00
   341  3.4000000000000D+00  0.0000000000000D+00  0.0000000000000D+00
   342  3.4100000000000D+00  0.0000000000000D+00  0.0000000000000D+00
   343  3.4200000000000D+00  0.0000000000000D+00  0.0000000000000D+00
   344  3.4300000000000D+00  0.0000000000000D+00  0.0000000000000D+00
   345  3.4400000000000D+00  0.0000000000000D+00  0.0000000000000D+00
   346  3.4500000000000D+00  0.0000000000000D+00  0.0000000000000D+00
   347  3.4600000000000D+00  0.0000000000000D+00  0.0000000000000D+00
   348  3.4700000000000D+00  0.0000000000000D+00  0.0000000000000D+00
   349  3.4800000000000D+00  0.0000000000000D+00  0.0000000000000D+00
   350  3.4900000000000D+00  0.0000000000000D+00  0.0000000000000D+00
   351  3.5000000000000D+00  0.0000000000000D+00  0.0000000000000D+00
   352  3.5100000000000D+00  0.0000000000000D+00  0.0000000000000D+00
   353  3.5200000000000D+00  0.0000000000000D+00  0.0000000000000D+00
   354  3.5300000000000D+00  0.0000000000000D+00  0.0000000000000D+00
   355  3.5400000000000D+00  0.0000000000000D+00  0.0000000000000D+00
   356  3.5500000000000D+00  0.0000000000000D+00  0.0000000000000D+00
   357  3.5600000000000D+00  0.0000000000000D+00  0.0000000000000D+00
   358  3.5700000000000D+00  0.0000000000000D+00  0.0000000000000D+00
   359  3.5800000000000D+00  0.0000000000000D+00  0.0000000000000D+00
   360  3.5900000000000D+00  0.0000000000000D+00  0.0000000000000D+00
   361  3.6000000000000D+00  0.0000000000000D+00  0.0000000000000D+00
   362  3.6100000000000D+00  0.0000000000000D+00  0.0000000000000D+00
   363  3.6200000000000D+00  0.0000000000000D+00  0.0000000000000D+00
   364  3.6300000000000D+00  0.0000000000000D+00  0.0000000000000D+00
   365  3.6400000000000D+00  0.0000000000000D+00  0.0000000000000D+00
   366  3.6500000000000D+00  0.0000000000000D+00  0.0000000000000D+00
   367  3.6600000000000D+00  0.0000000000000D+00  0.0000000000000D+00
   368  3.6700000000000D+00  0.0000000000000D+00  0.0000000000000D+00
   369  3.6800000000000D+00  0.0000000000000D+00  0.0000000000000D+00
   370  3.6900000000000D+00  0.0000000000000D+00  0.0000000000000D+00
   371  3.7000000000000D+00  0.0000000000000D+00  0.0000000000000D+00
   372  3.7100000000000D+00  0.0000000000000D+00  0.0000000000000D+00
   373  3.7200000000000D+00  0.0000000000000D+00  0.0000000000000D+00
   374  3.7300000000000D+00  0.0000000000000D+00  0.0000000000000D+00
   375  3.7400000000000D+00  0.0000000000000D+00  0.0000000000000D+00
   376  3.7500000000000D+00  0.0000000000000D+00  0.0000000000000D+00
   377  3.7600000000000D+00  0.0000000000000D+00  0.0000000000000D+00
   378  3.7700000000000D+00  0.0000000000000D+00  0.0000000000000D+00
   379  3.7800000000000D+00  0.0000000000000D+00  0.0000000000000D+00
   380  3.7900000000000D+00  0.0000000000000D+00  0.0000000000000D+00
   381  3.8000000000000D+00  0.0000000000000D+00  0.0000000000000D+00
   382  3.8100000000000D+00  0.0000000000000D+00  0.0000000000000D+00
   383  3.8200000000000D+00  0.0000000000000D+00  0.0000000000000D+00
   384  3.8300000000000D+00  0.0000000000000D+00  0.0000000000000D+00
   385  3.8400000000000D+00  0.0000000000000D+00  0.0000000000000D+00
   386  3.8500000000000D+00  0.0000000000000D+00  0.0000000000000D+00
   387  3.8600000000000D+00  0.0000000000000D+00  0.0000000000000D+00
   388  3.8700000000000D+00  0.0000000000000D+00  0.0000000000000D+00
   389  3.8800000000000D+00  0.0000000000000D+00  0.0000000000000D+00
   390  3.8900000000000D+00  0.0000000000000D+00  0.0000000000000D+00
   391  3.9000000000000D+00  0.0000000000000D+00  0.0000000000000D+00
   392  3.9100000000000D+00  0.0000000000000D+00  0.0000000000000D+00
   393  3.9200000000000D+00  0.0000000000000D+00  0.0000000000000D+00
   394  3.9300000000000D+00  0.0000000000000D+00  0.0000000000000D+00
   395  3.9400000000000D+00  0.0000000000000D+00  0.0000000000000D+00
   396  3.9500000000000D+00  0.0000000000000D+00  0.0000000000000D+00
   397  3.9600000000000D+00  0.0000000000000D+00  0.0000000000000D+00
   398  3.9700000000000D+00  0.0000000000000D+00  0.0000000000000D+00
   399  3.9800000000000D+00  0.0000000000000D+00  0.0000000000000D+00
   400  3.9900000000000D+00  0.0000000000000D+00  0.0000000000000D+00
   401  4.0000000000000D+00  0.0000000000000D+00  0.0000000000000D+00
   402  4.0100000000000D+00  0.0000000000000D+00  0.0000000000000D+00
   403  4.0200000000000D+00  0.0000000000000D+00  0.0000000000000D+00
   404  4.0300000000000D+00  0.0000000000000D+00  0.0000000000000D+00
   405  4.0400000000000D+00  0.0000000000000D+00  0.0000000000000D+00
   406  4.0500000000000D+00  0.0000000000000D+00  0.0000000000000D+00
   407  4.0600000000000D+00  0.0000000000000D+00  0.0000000000000D+00
   408  4.0700000000000D+00  0.0000000000000D+00  0.0000000000000D+00
   409  4.0800000000000D+00  0.0000000000000D+00  0.0000000000000D+00
   410  4.0900000000000D+00  0.0000000000000D+00  0.0000000000000D+00
   411  4.1000000000000D+00  0.0000000000000D+00  0.0000000000000D+00
   412  4.1100000000000D+00  0.0000000000000D+00  0.0000000000000D+00
   413  4.1200000000000D+00  0.0000000000000D+00  0.0000000000000D+00
   414  4.1300000000000D+00  0.0000000000000D+00  0.0000000000000D+00
   415  4.1400000000000D+00  0.0000000000000D+00  0.0000000000000D+00
   416  4.1500000000000D+00  0.0000000000000D+00  0.0000000000000D+00
   417  4.1600000000000D+00  0.0000000000000D+00  0.0000000000000D+00
   418  4.1700000000000D+00  0.0000000000000D+00  0.0000000000000D+00
   419  4.1800000000000D+00  0.0000000000000D+00  0.0000000000000D+00
   420  4.1900000000000D+00  0.0000000000000D+00  0.0000000000000D+00
   421  4.2000000000000D+00  0.0000000000000D+00  0.0000000000000D+00
   422  4.2100000000000D+00  0.0000000000000D+00  0.0000000000000D+00