Zn    ONCVPSP-3.3.1  r_core=   1.96594   2.08676   2.08676
     30.0000     20.0000      210904    zatom,zion,pspd
     8       2   2     4   600     0    pspcod,pspxc,lmax,lloc,mmax,r2well
  5.99000000  0.00000000  0.00000000    rchrg fchrg qchrg
     2     2     2     0    nproj
     3     1           extension_switch
     3     3     0    nprojso
   0                        -3.7865432615060D+00 -2.8772660592946D-01
     1  0.0000000000000D+00 -7.4263373228689D-12 -1.9384242821996D-10
     2  1.0000000000000D-02  4.2334126452335D-02 -6.0862898999110D-03
     3  2.0000000000000D-02  8.4622891098194D-02 -1.2264187331608D-02
     4  3.0000000000000D-02  1.2682100963014D-01 -1.8624359543847D-02
     5  4.0000000000000D-02  1.6888335246387D-01 -2.5255600241655D-02
     6  5.0000000000000D-02  2.1076502141425D-01 -3.2243910320904D-02
     7  6.0000000000000D-02  2.5242142555410D-01 -3.9671599472848D-02
     8  7.0000000000000D-02  2.9380835599198D-01 -4.7616415386507D-02
     9  8.0000000000000D-02  3.3488205931280D-01 -5.6150707082982D-02
    10  9.0000000000000D-02  3.7559930943417D-01 -6.5340628675662D-02
    11  1.0000000000000D-01  4.1591747764235D-01 -7.5245389566227D-02
    12  1.1000000000000D-01  4.5579460058389D-01 -8.5916556759598D-02
    13  1.2000000000000D-01  4.9518944600319D-01 -9.7397414614525D-02
    14  1.3000000000000D-01  5.3406157603119D-01 -1.0972238694212D-01
    15  1.4000000000000D-01  5.7237140784709D-01 -1.2291652592589D-01
    16  1.5000000000000D-01  6.1008027155255D-01 -1.3699507186622D-01
    17  1.6000000000000D-01  6.4715046511617D-01 -1.5196308725297D-01
    18  1.7000000000000D-01  6.8354530626562D-01 -1.6781516814626D-01
    19  1.8000000000000D-01  7.1922918122468D-01 -1.8453523529983D-01
    20  1.9000000000000D-01  7.5416759021270D-01 -2.0209640689863D-01
    21  2.0000000000000D-01  7.8832718964500D-01 -2.2046095420581D-01
    22  2.1000000000000D-01  8.2167583099349D-01 -2.3958034082802D-01
    23  2.2000000000000D-01  8.5418259628755D-01 -2.5939534571630D-01
    24  2.3000000000000D-01  8.8581783025585D-01 -2.7983626942677D-01
    25  2.4000000000000D-01  9.1655316913012D-01 -3.0082322257462D-01
    26  2.5000000000000D-01  9.4636156615135D-01 -3.2226649483152D-01
    27  2.6000000000000D-01  9.7521731383811D-01 -3.4406700224363D-01
    28  2.7000000000000D-01  1.0030960630944D+00 -3.6611681008952D-01
    29  2.8000000000000D-01  1.0299748392515D+00 -3.8829972795808D-01
    30  2.9000000000000D-01  1.0558320551555D+00 -4.1049197320991D-01
    31  3.0000000000000D-01  1.0806475214232D+00 -4.3256289849526D-01
    32  3.1000000000000D-01  1.1044024540073D+00 -4.5437577854041D-01
    33  3.2000000000000D-01  1.1270794792190D+00 -4.7578865098661D-01
    34  3.3000000000000D-01  1.1486626363682D+00 -4.9665520567317D-01
    35  3.4000000000000D-01  1.1691373781898D+00 -5.1682571640248D-01
    36  3.5000000000000D-01  1.1884905692300D+00 -5.3614800891232D-01
    37  3.6000000000000D-01  1.2067104823728D+00 -5.5446845851129D-01
    38  3.7000000000000D-01  1.2237867936881D+00 -5.7163301060872D-01
    39  3.8000000000000D-01  1.2397105757843D+00 -5.8748821719350D-01
    40  3.9000000000000D-01  1.2544742898483D+00 -6.0188228218625D-01
    41  4.0000000000000D-01  1.2680717765512D+00 -6.1466610850909D-01
    42  4.1000000000000D-01  1.2804982459953D+00 -6.2569433968645D-01
    43  4.2000000000000D-01  1.2917502668693D+00 -6.3482638880893D-01
    44  4.3000000000000D-01  1.3018257549724D+00 -6.4192744776117D-01
    45  4.4000000000000D-01  1.3107239612574D+00 -6.4686946973234D-01
    46  4.5000000000000D-01  1.3184454595310D+00 -6.4953211819403D-01
    47  4.6000000000000D-01  1.3249921339375D+00 -6.4980367574442D-01
    48  4.7000000000000D-01  1.3303671663367D+00 -6.4758190647638D-01
    49  4.8000000000000D-01  1.3345750236740D+00 -6.4277486583129D-01
    50  4.9000000000000D-01  1.3376214454200D+00 -6.3530165224537D-01
    51  5.0000000000000D-01  1.3395134311437D+00 -6.2509309528059D-01
    52  5.1000000000000D-01  1.3402592282643D+00 -6.1209237535386D-01
    53  5.2000000000000D-01  1.3398683200051D+00 -5.9625557063434D-01
    54  5.3000000000000D-01  1.3383514135592D+00 -5.7755212716480D-01
    55  5.4000000000000D-01  1.3357204284524D+00 -5.5596524877730D-01
    56  5.5000000000000D-01  1.3319884850740D+00 -5.3149220391091D-01
    57  5.6000000000000D-01  1.3271698933239D+00 -5.0414454699670D-01
    58  5.7000000000000D-01  1.3212801413082D+00 -4.7394825264943D-01
    59  5.8000000000000D-01  1.3143358839965D+00 -4.4094376149082D-01
    60  5.9000000000000D-01  1.3063549317369D+00 -4.0518593702330D-01
    61  6.0000000000000D-01  1.2973562385102D+00 -3.6674393357050D-01
    62  6.1000000000000D-01  1.2873598897865D+00 -3.2570097589900D-01
    63  6.2000000000000D-01  1.2763870898383D+00 -2.8215405172663D-01
    64  6.3000000000000D-01  1.2644601483472D+00 -2.3621351890950D-01
    65  6.4000000000000D-01  1.2516024661347D+00 -1.8800262966827D-01
    66  6.5000000000000D-01  1.2378385198363D+00 -1.3765697477056D-01
    67  6.6000000000000D-01  1.2231938453324D+00 -8.5323851120376D-02
    68  6.7000000000000D-01  1.2076950197443D+00 -3.1161556713260D-02
    69  6.8000000000000D-01  1.1913696418009D+00  2.4661382600825D-02
    70  6.9000000000000D-01  1.1742463103795D+00  8.1967049655221D-02
    71  7.0000000000000D-01  1.1563546010301D+00  1.4056903049679D-01
    72  7.1000000000000D-01  1.1377250402900D+00  2.0027336122318D-01
    73  7.2000000000000D-01  1.1183890776073D+00  2.6087952110078D-01
    74  7.3000000000000D-01  1.0983790546976D+00  3.2218146564136D-01
    75  7.4000000000000D-01  1.0777281721686D+00  3.8396869306292D-01
    76  7.5000000000000D-01  1.0564704532616D+00  4.4602733735266D-01
    77  7.6000000000000D-01  1.0346407045736D+00  5.0814128099132D-01
    78  7.7000000000000D-01  1.0122744736389D+00  5.7009328028583D-01
    79  7.8000000000000D-01  9.8940800327191D-01  6.3166609619511D-01
    80  7.9000000000000D-01  9.6607818259008D-01  6.9264362352043D-01
    81  8.0000000000000D-01  9.4232249466085D-01  7.5281201136731D-01
    82  8.1000000000000D-01  9.1817896073999D-01  8.1196076787023D-01
    83  8.2000000000000D-01  8.9368608109451D-01  8.6988384230419D-01
    84  8.3000000000000D-01  8.6888277242991D-01  9.2638067788571D-01
    85  8.4000000000000D-01  8.4380830196966D-01  9.8125722879109D-01
    86  8.5000000000000D-01  8.1850221826342D-01  1.0343269351875D+00
    87  8.6000000000000D-01  7.9300427882945D-01  1.0854116503826D+00
    88  8.7000000000000D-01  7.6735437476650D-01  1.1343425145472D+00
    89  8.8000000000000D-01  7.4159245249992D-01  1.1809607698511D+00
    90  8.9000000000000D-01  7.1575843285621D-01  1.2251185122711D+00
    91  9.0000000000000D-01  6.8989212768936D-01  1.2666793757803D+00
    92  9.1000000000000D-01  6.6403315431060D-01  1.3055191451045D+00
    93  9.2000000000000D-01  6.3822084800088D-01  1.3415262937309D+00
    94  9.3000000000000D-01  6.1249417291139D-01  1.3746024443760D+00
    95  9.4000000000000D-01  5.8689163168276D-01  1.4046627496542D+00
    96  9.5000000000000D-01  5.6145117413653D-01  1.4316361912382D+00
    97  9.6000000000000D-01  5.3621010541401D-01  1.4554657963575D+00
    98  9.7000000000000D-01  5.1120499395712D-01  1.4761087710462D+00
    99  9.8000000000000D-01  4.8647157974250D-01  1.4935365501001D+00
   100  9.9000000000000D-01  4.6204468319494D-01  1.5077347642741D+00
   101  1.0000000000000D+00  4.3795811521819D-01  1.5187031257891D+00
   102  1.0100000000000D+00  4.1424458878997D-01  1.5264552337583D+00
   103  1.0200000000000D+00  3.9093563257441D-01  1.5310183016612D+00
   104  1.0300000000000D+00  3.6806150700793D-01  1.5324328094934D+00
   105  1.0400000000000D+00  3.4565112331465D-01  1.5307520837135D+00
   106  1.0500000000000D+00  3.2373196590412D-01  1.5260418085211D+00
   107  1.0600000000000D+00  3.0233001859751D-01  1.5183794724745D+00
   108  1.0700000000000D+00  2.8146969511832D-01  1.5078537548103D+00
   109  1.0800000000000D+00  2.6117377427108D-01  1.4945638561935D+00
   110  1.0900000000000D+00  2.4146334021299D-01  1.4786187789589D+00
   111  1.1000000000000D+00  2.2235772820825D-01  1.4601365621448D+00
   112  1.1100000000000D+00  2.0387447622674D-01  1.4392434769140D+00
   113  1.1200000000000D+00  1.8602928272702D-01  1.4160731881128D+00
   114  1.1300000000000D+00  1.6883597093098D-01  1.3907658878904D+00
   115  1.1400000000000D+00  1.5230645987151D-01  1.3634674073977D+00
   116  1.1500000000000D+00  1.3645074245648D-01  1.3343283126716D+00
   117  1.1600000000000D+00  1.2127687075716D-01  1.3035029908172D+00
   118  1.1700000000000D+00  1.0679094868717D-01  1.2711487325686D+00
   119  1.1800000000000D+00  9.2997132209727D-02  1.2374248172738D+00
   120  1.1900000000000D+00  7.9897637155085D-02  1.2024916062212D+00
   121  1.2000000000000D+00  6.7492754693018D-02  1.1665096500702D+00
   122  1.2100000000000D+00  5.5780874459651D-02  1.1296388159520D+00
   123  1.2200000000000D+00  4.4758515302960D-02  1.0920374396615D+00
   124  1.2300000000000D+00  3.4420363548350D-02  1.0538615079910D+00
   125  1.2400000000000D+00  2.4759318643652D-02  1.0152638759418D+00
   126  1.2500000000000D+00  1.5766546025320D-02  9.7639352347432D-01
   127  1.2600000000000D+00  7.4315369611547D-03  9.3739485578482D-01
   128  1.2700000000000D+00 -2.5782490063715D-04  8.9840705080313D-01
   129  1.2800000000000D+00 -7.3151905652120D-03  8.5956345749533D-01
   130  1.2900000000000D+00 -1.3755666678241D-02  8.2099104775122D-01
   131  1.3000000000000D+00 -1.9595730862120D-02  7.8280992425513D-01
   132  1.3100000000000D+00 -2.4853141802384D-02  7.4513288676805D-01
   133  1.3200000000000D+00 -2.9546844571950D-02  7.0806505815543D-01
   134  1.3300000000000D+00 -3.3696871684269D-02  6.7170357127703D-01
   135  1.3400000000000D+00 -3.7324240376384D-02  6.3613731789279D-01
   136  1.3500000000000D+00 -4.0450846698906D-02  6.0144675936637D-01
   137  1.3600000000000D+00 -4.3099356965119D-02  5.6770379923281D-01
   138  1.3700000000000D+00 -4.5293097148652D-02  5.3497171722887D-01
   139  1.3800000000000D+00 -4.7055940844389D-02  5.0330516328174D-01
   140  1.3900000000000D+00 -4.8412196391225D-02  4.7275021060227D-01
   141  1.4000000000000D+00 -4.9386493792514D-02  4.4334446577422D-01
   142  1.4100000000000D+00 -5.0003672042494D-02  4.1511723359790D-01
   143  1.4200000000000D+00 -5.0288667498089D-02  3.8808973469659D-01
   144  1.4300000000000D+00 -5.0266403892759D-02  3.6227537243254D-01
   145  1.4400000000000D+00 -4.9961684613204D-02  3.3768004665470D-01
   146  1.4500000000000D+00 -4.9399087832918D-02  3.1430251062294D-01
   147  1.4600000000000D+00 -4.8602865045194D-02  2.9213476761745D-01
   148  1.4700000000000D+00 -4.7596843615276D-02  2.7116250373366D-01
   149  1.4800000000000D+00 -4.6404333777104D-02  2.5136555264333D-01
   150  1.4900000000000D+00 -4.5048040687126D-02  2.3271838871899D-01
   151  1.5000000000000D+00 -4.3549981895297D-02  2.1519064414563D-01
   152  1.5100000000000D+00 -4.1931410721598D-02  1.9874764615261D-01
   153  1.5200000000000D+00 -4.0212745927988D-02  1.8335097003781D-01
   154  1.5300000000000D+00 -3.8413507953577D-02  1.6895900415793D-01
   155  1.5400000000000D+00 -3.6552262177704D-02  1.5552752241303D-01
   156  1.5500000000000D+00 -3.4646569215817D-02  1.4301026093870D-01
   157  1.5600000000000D+00 -3.2712942776996D-02  1.3135949423528D-01
   158  1.5700000000000D+00 -3.0766814882848D-02  1.2052660815569D-01
   159  1.5800000000000D+00 -2.8822508904118D-02  1.1046266503516D-01
   160  1.5900000000000D+00 -2.6893220157204D-02  1.0111895877256D-01
   161  1.6000000000000D+00 -2.4991004322071D-02  9.2447555742997D-02
   162  1.6100000000000D+00 -2.3126773434493D-02  8.4401819456637D-02
   163  1.6200000000000D+00 -2.1310299488207D-02  7.6936915793666D-02
   164  1.6300000000000D+00 -1.9550225533160D-02  7.0010302549627D-02
   165  1.6400000000000D+00 -1.7854083395136D-02  6.3582165505312D-02
   166  1.6500000000000D+00 -1.6228320283654D-02  5.7615925502477D-02
   167  1.6600000000000D+00 -1.4678326997374D-02  5.2078467672915D-02
   168  1.6700000000000D+00 -1.3208477268715D-02  4.6940572608335D-02
   169  1.6800000000000D+00 -1.1822185196657D-02  4.2177960426691D-02
   170  1.6900000000000D+00 -1.0521933465474D-02  3.7770512829625D-02
   171  1.7000000000000D+00 -9.3092943322950D-03  3.3700808532248D-02
   172  1.7100000000000D+00 -8.1849614385695D-03  2.9953063315985D-02
   173  1.7200000000000D+00 -7.1487726833867D-03  2.6511426518790D-02
   174  1.7300000000000D+00 -6.1997656184213D-03  2.3359727098648D-02
   175  1.7400000000000D+00 -5.3362545363338D-03  2.0482183870644D-02
   176  1.7500000000000D+00 -4.5558977601253D-03  1.7863429951741D-02
   177  1.7600000000000D+00 -3.8557664863241D-03  1.5488473690542D-02
   178  1.7700000000000D+00 -3.2324182151756D-03  1.3342809241268D-02
   179  1.7800000000000D+00 -2.6819696030289D-03  1.1412426026062D-02
   180  1.7900000000000D+00 -2.2001701640657D-03  9.6838311214726D-03
   181  1.8000000000000D+00 -1.7824755364329D-03  8.1440491361634D-03
   182  1.8100000000000D+00 -1.4241198963262D-03  6.7806085215003D-03
   183  1.8200000000000D+00 -1.1201867680733D-03  5.5815151616775D-03
   184  1.8300000000000D+00 -8.6567798996189D-04  4.5352157548021D-03
   185  1.8400000000000D+00 -6.5557977446231D-04  3.6305525338883D-03
   186  1.8500000000000D+00 -4.8492610045916D-04  2.8567107784441D-03
   187  1.8600000000000D+00 -3.4885800099403D-04  2.2031620477963D-03
   188  1.8700000000000D+00 -2.4267935478393D-04  1.6596030985829D-03
   189  1.8800000000000D+00 -1.6190774581746D-04  1.2158943464538D-03
   190  1.8900000000000D+00 -1.0232088825450D-04  8.6199727564232D-04
   191  1.9000000000000D+00 -5.9992742098919D-05  5.8792976506720D-04
   192  1.9100000000000D+00 -3.1341302120850D-05  3.8366966629012D-04
   193  1.9200000000000D+00 -1.3177407759303D-05  2.3902023987919D-04
   194  1.9300000000000D+00 -2.7332577832695D-06  1.4325095477061D-04
   195  1.9400000000000D+00  2.6527195441583D-06  8.7743510395355D-05
   196  1.9500000000000D+00  5.1715409465491D-06  6.3999575119383D-05
   197  1.9600000000000D+00  5.7024835218161D-06  5.4826856243875D-05
   198  1.9700000000000D+00  4.4321144459805D-06  4.1771853205776D-05
   199  1.9800000000000D+00  2.0148555606427D-06  1.9429646622556D-05
   200  1.9900000000000D+00 -5.2604271843048D-08 -4.7941857075476D-07
   201  2.0000000000000D+00 -5.4788000752217D-07 -5.0142624175155D-06
   202  2.0100000000000D+00 -1.9025944956413D-07 -1.7522085595664D-06
   203  2.0200000000000D+00  1.0804411909493D-07  9.1610283750829D-07
   204  2.0300000000000D+00  1.0105152864816D-07  8.5160778700486D-07
   205  2.0400000000000D+00 -5.2698830009073D-09 -4.9783752698432D-08
   206  2.0500000000000D+00 -1.4713662980757D-08 -1.3899765118049D-07
   207  2.0600000000000D+00 -3.5737907294711D-09 -3.3761036789870D-08
   208  2.0700000000000D+00  0.0000000000000D+00  0.0000000000000D+00
   209  2.0800000000000D+00  0.0000000000000D+00  0.0000000000000D+00
   210  2.0900000000000D+00  0.0000000000000D+00  0.0000000000000D+00
   211  2.1000000000000D+00  0.0000000000000D+00  0.0000000000000D+00
   212  2.1100000000000D+00  0.0000000000000D+00  0.0000000000000D+00
   213  2.1200000000000D+00  0.0000000000000D+00  0.0000000000000D+00
   214  2.1300000000000D+00  0.0000000000000D+00  0.0000000000000D+00
   215  2.1400000000000D+00  0.0000000000000D+00  0.0000000000000D+00
   216  2.1500000000000D+00  0.0000000000000D+00  0.0000000000000D+00
   217  2.1600000000000D+00  0.0000000000000D+00  0.0000000000000D+00
   218  2.1700000000000D+00  0.0000000000000D+00  0.0000000000000D+00
   219  2.1800000000000D+00  0.0000000000000D+00  0.0000000000000D+00
   220  2.1900000000000D+00  0.0000000000000D+00  0.0000000000000D+00
   221  2.2000000000000D+00  0.0000000000000D+00  0.0000000000000D+00
   222  2.2100000000000D+00  0.0000000000000D+00  0.0000000000000D+00
   223  2.2200000000000D+00  0.0000000000000D+00  0.0000000000000D+00
   224  2.2300000000000D+00  0.0000000000000D+00  0.0000000000000D+00
   225  2.2400000000000D+00  0.0000000000000D+00  0.0000000000000D+00
   226  2.2500000000000D+00  0.0000000000000D+00  0.0000000000000D+00
   227  2.2600000000000D+00  0.0000000000000D+00  0.0000000000000D+00
   228  2.2700000000000D+00  0.0000000000000D+00  0.0000000000000D+00
   229  2.2800000000000D+00  0.0000000000000D+00  0.0000000000000D+00
   230  2.2900000000000D+00  0.0000000000000D+00  0.0000000000000D+00
   231  2.3000000000000D+00  0.0000000000000D+00  0.0000000000000D+00
   232  2.3100000000000D+00  0.0000000000000D+00  0.0000000000000D+00
   233  2.3200000000000D+00  0.0000000000000D+00  0.0000000000000D+00
   234  2.3300000000000D+00  0.0000000000000D+00  0.0000000000000D+00
   235  2.3400000000000D+00  0.0000000000000D+00  0.0000000000000D+00
   236  2.3500000000000D+00  0.0000000000000D+00  0.0000000000000D+00
   237  2.3600000000000D+00  0.0000000000000D+00  0.0000000000000D+00
   238  2.3700000000000D+00  0.0000000000000D+00  0.0000000000000D+00
   239  2.3800000000000D+00  0.0000000000000D+00  0.0000000000000D+00
   240  2.3900000000000D+00  0.0000000000000D+00  0.0000000000000D+00
   241  2.4000000000000D+00  0.0000000000000D+00  0.0000000000000D+00
   242  2.4100000000000D+00  0.0000000000000D+00  0.0000000000000D+00
   243  2.4200000000000D+00  0.0000000000000D+00  0.0000000000000D+00
   244  2.4300000000000D+00  0.0000000000000D+00  0.0000000000000D+00
   245  2.4400000000000D+00  0.0000000000000D+00  0.0000000000000D+00
   246  2.4500000000000D+00  0.0000000000000D+00  0.0000000000000D+00
   247  2.4600000000000D+00  0.0000000000000D+00  0.0000000000000D+00
   248  2.4700000000000D+00  0.0000000000000D+00  0.0000000000000D+00
   249  2.4800000000000D+00  0.0000000000000D+00  0.0000000000000D+00
   250  2.4900000000000D+00  0.0000000000000D+00  0.0000000000000D+00
   251  2.5000000000000D+00  0.0000000000000D+00  0.0000000000000D+00
   252  2.5100000000000D+00  0.0000000000000D+00  0.0000000000000D+00
   253  2.5200000000000D+00  0.0000000000000D+00  0.0000000000000D+00
   254  2.5300000000000D+00  0.0000000000000D+00  0.0000000000000D+00
   255  2.5400000000000D+00  0.0000000000000D+00  0.0000000000000D+00
   256  2.5500000000000D+00  0.0000000000000D+00  0.0000000000000D+00
   257  2.5600000000000D+00  0.0000000000000D+00  0.0000000000000D+00
   258  2.5700000000000D+00  0.0000000000000D+00  0.0000000000000D+00
   259  2.5800000000000D+00  0.0000000000000D+00  0.0000000000000D+00
   260  2.5900000000000D+00  0.0000000000000D+00  0.0000000000000D+00
   261  2.6000000000000D+00  0.0000000000000D+00  0.0000000000000D+00
   262  2.6100000000000D+00  0.0000000000000D+00  0.0000000000000D+00
   263  2.6200000000000D+00  0.0000000000000D+00  0.0000000000000D+00
   264  2.6300000000000D+00  0.0000000000000D+00  0.0000000000000D+00
   265  2.6400000000000D+00  0.0000000000000D+00  0.0000000000000D+00
   266  2.6500000000000D+00  0.0000000000000D+00  0.0000000000000D+00
   267  2.6600000000000D+00  0.0000000000000D+00  0.0000000000000D+00
   268  2.6700000000000D+00  0.0000000000000D+00  0.0000000000000D+00
   269  2.6800000000000D+00  0.0000000000000D+00  0.0000000000000D+00
   270  2.6900000000000D+00  0.0000000000000D+00  0.0000000000000D+00
   271  2.7000000000000D+00  0.0000000000000D+00  0.0000000000000D+00
   272  2.7100000000000D+00  0.0000000000000D+00  0.0000000000000D+00
   273  2.7200000000000D+00  0.0000000000000D+00  0.0000000000000D+00
   274  2.7300000000000D+00  0.0000000000000D+00  0.0000000000000D+00
   275  2.7400000000000D+00  0.0000000000000D+00  0.0000000000000D+00
   276  2.7500000000000D+00  0.0000000000000D+00  0.0000000000000D+00
   277  2.7600000000000D+00  0.0000000000000D+00  0.0000000000000D+00
   278  2.7700000000000D+00  0.0000000000000D+00  0.0000000000000D+00
   279  2.7800000000000D+00  0.0000000000000D+00  0.0000000000000D+00
   280  2.7900000000000D+00  0.0000000000000D+00  0.0000000000000D+00
   281  2.8000000000000D+00  0.0000000000000D+00  0.0000000000000D+00
   282  2.8100000000000D+00  0.0000000000000D+00  0.0000000000000D+00
   283  2.8200000000000D+00  0.0000000000000D+00  0.0000000000000D+00
   284  2.8300000000000D+00  0.0000000000000D+00  0.0000000000000D+00
   285  2.8400000000000D+00  0.0000000000000D+00  0.0000000000000D+00
   286  2.8500000000000D+00  0.0000000000000D+00  0.0000000000000D+00
   287  2.8600000000000D+00  0.0000000000000D+00  0.0000000000000D+00
   288  2.8700000000000D+00  0.0000000000000D+00  0.0000000000000D+00
   289  2.8800000000000D+00  0.0000000000000D+00  0.0000000000000D+00
   290  2.8900000000000D+00  0.0000000000000D+00  0.0000000000000D+00
   291  2.9000000000000D+00  0.0000000000000D+00  0.0000000000000D+00
   292  2.9100000000000D+00  0.0000000000000D+00  0.0000000000000D+00
   293  2.9200000000000D+00  0.0000000000000D+00  0.0000000000000D+00
   294  2.9300000000000D+00  0.0000000000000D+00  0.0000000000000D+00
   295  2.9400000000000D+00  0.0000000000000D+00  0.0000000000000D+00
   296  2.9500000000000D+00  0.0000000000000D+00  0.0000000000000D+00
   297  2.9600000000000D+00  0.0000000000000D+00  0.0000000000000D+00
   298  2.9700000000000D+00  0.0000000000000D+00  0.0000000000000D+00
   299  2.9800000000000D+00  0.0000000000000D+00  0.0000000000000D+00
   300  2.9900000000000D+00  0.0000000000000D+00  0.0000000000000D+00
   301  3.0000000000000D+00  0.0000000000000D+00  0.0000000000000D+00
   302  3.0100000000000D+00  0.0000000000000D+00  0.0000000000000D+00
   303  3.0200000000000D+00  0.0000000000000D+00  0.0000000000000D+00
   304  3.0300000000000D+00  0.0000000000000D+00  0.0000000000000D+00
   305  3.0400000000000D+00  0.0000000000000D+00  0.0000000000000D+00
   306  3.0500000000000D+00  0.0000000000000D+00  0.0000000000000D+00
   307  3.0600000000000D+00  0.0000000000000D+00  0.0000000000000D+00
   308  3.0700000000000D+00  0.0000000000000D+00  0.0000000000000D+00
   309  3.0800000000000D+00  0.0000000000000D+00  0.0000000000000D+00
   310  3.0900000000000D+00  0.0000000000000D+00  0.0000000000000D+00
   311  3.1000000000000D+00  0.0000000000000D+00  0.0000000000000D+00
   312  3.1100000000000D+00  0.0000000000000D+00  0.0000000000000D+00
   313  3.1200000000000D+00  0.0000000000000D+00  0.0000000000000D+00
   314  3.1300000000000D+00  0.0000000000000D+00  0.0000000000000D+00
   315  3.1400000000000D+00  0.0000000000000D+00  0.0000000000000D+00
   316  3.1500000000000D+00  0.0000000000000D+00  0.0000000000000D+00
   317  3.1600000000000D+00  0.0000000000000D+00  0.0000000000000D+00
   318  3.1700000000000D+00  0.0000000000000D+00  0.0000000000000D+00
   319  3.1800000000000D+00  0.0000000000000D+00  0.0000000000000D+00
   320  3.1900000000000D+00  0.0000000000000D+00  0.0000000000000D+00
   321  3.2000000000000D+00  0.0000000000000D+00  0.0000000000000D+00
   322  3.2100000000000D+00  0.0000000000000D+00  0.0000000000000D+00
   323  3.2200000000000D+00  0.0000000000000D+00  0.0000000000000D+00
   324  3.2300000000000D+00  0.0000000000000D+00  0.0000000000000D+00
   325  3.2400000000000D+00  0.0000000000000D+00  0.0000000000000D+00
   326  3.2500000000000D+00  0.0000000000000D+00  0.0000000000000D+00
   327  3.2600000000000D+00  0.0000000000000D+00  0.0000000000000D+00
   328  3.2700000000000D+00  0.0000000000000D+00  0.0000000000000D+00
   329  3.2800000000000D+00  0.0000000000000D+00  0.0000000000000D+00
   330  3.2900000000000D+00  0.0000000000000D+00  0.0000000000000D+00
   331  3.3000000000000D+00  0.0000000000000D+00  0.0000000000000D+00
   332  3.3100000000000D+00  0.0000000000000D+00  0.0000000000000D+00
   333  3.3200000000000D+00  0.0000000000000D+00  0.0000000000000D+00
   334  3.3300000000000D+00  0.0000000000000D+00  0.0000000000000D+00
   335  3.3400000000000D+00  0.0000000000000D+00  0.0000000000000D+00
   336  3.3500000000000D+00  0.0000000000000D+00  0.0000000000000D+00
   337  3.3600000000000D+00  0.0000000000000D+00  0.0000000000000D+00
   338  3.3700000000000D+00  0.0000000000000D+00  0.0000000000000D+00
   339  3.3800000000000D+00  0.0000000000000D+00  0.0000000000000D+00
   340  3.3900000000000D+00  0.0000000000000D+00  0.0000000000000D+00
   341  3.4000000000000D+00  0.0000000000000D+00  0.0000000000000D+00
   342  3.4100000000000D+00  0.0000000000000D+00  0.0000000000000D+00
   343  3.4200000000000D+00  0.0000000000000D+00  0.0000000000000D+00
   344  3.4300000000000D+00  0.0000000000000D+00  0.0000000000000D+00
   345  3.4400000000000D+00  0.0000000000000D+00  0.0000000000000D+00
   346  3.4500000000000D+00  0.0000000000000D+00  0.0000000000000D+00
   347  3.4600000000000D+00  0.0000000000000D+00  0.0000000000000D+00
   348  3.4700000000000D+00  0.0000000000000D+00  0.0000000000000D+00
   349  3.4800000000000D+00  0.0000000000000D+00  0.0000000000000D+00
   350  3.4900000000000D+00  0.0000000000000D+00  0.0000000000000D+00
   351  3.5000000000000D+00  0.0000000000000D+00  0.0000000000000D+00
   352  3.5100000000000D+00  0.0000000000000D+00  0.0000000000000D+00
   353  3.5200000000000D+00  0.0000000000000D+00  0.0000000000000D+00
   354  3.5300000000000D+00  0.0000000000000D+00  0.0000000000000D+00
   355  3.5400000000000D+00  0.0000000000000D+00  0.0000000000000D+00
   356  3.5500000000000D+00  0.0000000000000D+00  0.0000000000000D+00
   357  3.5600000000000D+00  0.0000000000000D+00  0.0000000000000D+00
   358  3.5700000000000D+00  0.0000000000000D+00  0.0000000000000D+00
   359  3.5800000000000D+00  0.0000000000000D+00  0.0000000000000D+00
   360  3.5900000000000D+00  0.0000000000000D+00  0.0000000000000D+00
   361  3.6000000000000D+00  0.0000000000000D+00  0.0000000000000D+00
   362  3.6100000000000D+00  0.0000000000000D+00  0.0000000000000D+00
   363  3.6200000000000D+00  0.0000000000000D+00  0.0000000000000D+00
   364  3.6300000000000D+00  0.0000000000000D+00  0.0000000000000D+00
   365  3.6400000000000D+00  0.0000000000000D+00  0.0000000000000D+00
   366  3.6500000000000D+00  0.0000000000000D+00  0.0000000000000D+00
   367  3.6600000000000D+00  0.0000000000000D+00  0.0000000000000D+00
   368  3.6700000000000D+00  0.0000000000000D+00  0.0000000000000D+00
   369  3.6800000000000D+00  0.0000000000000D+00  0.0000000000000D+00
   370  3.6900000000000D+00  0.0000000000000D+00  0.0000000000000D+00
   371  3.7000000000000D+00  0.0000000000000D+00  0.0000000000000D+00
   372  3.7100000000000D+00  0.0000000000000D+00  0.0000000000000D+00
   373  3.7200000000000D+00  0.0000000000000D+00  0.0000000000000D+00
   374  3.7300000000000D+00  0.0000000000000D+00  0.0000000000000D+00
   375  3.7400000000000D+00  0.0000000000000D+00  0.0000000000000D+00
   376  3.7500000000000D+00  0.0000000000000D+00  0.0000000000000D+00
   377  3.7600000000000D+00  0.0000000000000D+00  0.0000000000000D+00
   378  3.7700000000000D+00  0.0000000000000D+00  0.0000000000000D+00
   379  3.7800000000000D+00  0.0000000000000D+00  0.0000000000000D+00
   380  3.7900000000000D+00  0.0000000000000D+00  0.0000000000000D+00
   381  3.8000000000000D+00  0.0000000000000D+00  0.0000000000000D+00
   382  3.8100000000000D+00  0.0000000000000D+00  0.0000000000000D+00
   383  3.8200000000000D+00  0.0000000000000D+00  0.0000000000000D+00
   384  3.8300000000000D+00  0.0000000000000D+00  0.0000000000000D+00
   385  3.8400000000000D+00  0.0000000000000D+00  0.0000000000000D+00
   386  3.8500000000000D+00  0.0000000000000D+00  0.0000000000000D+00
   387  3.8600000000000D+00  0.0000000000000D+00  0.0000000000000D+00
   388  3.8700000000000D+00  0.0000000000000D+00  0.0000000000000D+00
   389  3.8800000000000D+00  0.0000000000000D+00  0.0000000000000D+00
   390  3.8900000000000D+00  0.0000000000000D+00  0.0000000000000D+00
   391  3.9000000000000D+00  0.0000000000000D+00  0.0000000000000D+00
   392  3.9100000000000D+00  0.0000000000000D+00  0.0000000000000D+00
   393  3.9200000000000D+00  0.0000000000000D+00  0.0000000000000D+00
   394  3.9300000000000D+00  0.0000000000000D+00  0.0000000000000D+00
   395  3.9400000000000D+00  0.0000000000000D+00  0.0000000000000D+00
   396  3.9500000000000D+00  0.0000000000000D+00  0.0000000000000D+00
   397  3.9600000000000D+00  0.0000000000000D+00  0.0000000000000D+00
   398  3.9700000000000D+00  0.0000000000000D+00  0.0000000000000D+00
   399  3.9800000000000D+00  0.0000000000000D+00  0.0000000000000D+00
   400  3.9900000000000D+00  0.0000000000000D+00  0.0000000000000D+00
   401  4.0000000000000D+00  0.0000000000000D+00  0.0000000000000D+00
   402  4.0100000000000D+00  0.0000000000000D+00  0.0000000000000D+00
   403  4.0200000000000D+00  0.0000000000000D+00  0.0000000000000D+00
   404  4.0300000000000D+00  0.0000000000000D+00  0.0000000000000D+00
   405  4.0400000000000D+00  0.0000000000000D+00  0.0000000000000D+00
   406  4.0500000000000D+00  0.0000000000000D+00  0.0000000000000D+00
   407  4.0600000000000D+00  0.0000000000000D+00  0.0000000000000D+00
   408  4.0700000000000D+00  0.0000000000000D+00  0.0000000000000D+00
   409  4.0800000000000D+00  0.0000000000000D+00  0.0000000000000D+00
   410  4.0900000000000D+00  0.0000000000000D+00  0.0000000000000D+00
   411  4.1000000000000D+00  0.0000000000000D+00  0.0000000000000D+00
   412  4.1100000000000D+00  0.0000000000000D+00  0.0000000000000D+00
   413  4.1200000000000D+00  0.0000000000000D+00  0.0000000000000D+00
   414  4.1300000000000D+00  0.0000000000000D+00  0.0000000000000D+00
   415  4.1400000000000D+00  0.0000000000000D+00  0.0000000000000D+00
   416  4.1500000000000D+00  0.0000000000000D+00  0.0000000000000D+00
   417  4.1600000000000D+00  0.0000000000000D+00  0.0000000000000D+00
   418  4.1700000000000D+00  0.0000000000000D+00  0.0000000000000D+00
   419  4.1800000000000D+00  0.0000000000000D+00  0.0000000000000D+00
   420  4.1900000000000D+00  0.0000000000000D+00  0.0000000000000D+00
   421  4.2000000000000D+00  0.0000000000000D+00  0.0000000000000D+00
   422  4.2100000000000D+00  0.0000000000000D+00  0.0000000000000D+00