Zn    ONCVPSP-3.3.1  r_core=   1.96594   2.08676   2.08676
     30.0000     20.0000      210904    zatom,zion,pspd
     8       2   2     4   600     0    pspcod,pspxc,lmax,lloc,mmax,r2well
  5.99000000  0.00000000  0.00000000    rchrg fchrg qchrg
     2     2     2     0     0    nproj
     1     1           extension_switch
   0                        -3.7890234719544D+00 -2.8870673997568D-01
     1  0.0000000000000D+00 -7.4328876387142D-12 -1.9413223806275D-10
     2  1.0000000000000D-02  4.2340786693064D-02 -6.1408871645983D-03
     3  2.0000000000000D-02  8.4636198947830D-02 -1.2373202523872D-02
     4  3.0000000000000D-02  1.2684093982149D-01 -1.8787434345680D-02
     5  4.0000000000000D-02  1.6890986708752D-01 -2.5472198067878D-02
     6  5.0000000000000D-02  2.1079806990893D-01 -3.2513317393064D-02
     7  6.0000000000000D-02  2.5246094469500D-01 -3.9992926257072D-02
     8  7.0000000000000D-02  2.9385426987799D-01 -4.7988598400398D-02
     9  8.0000000000000D-02  3.3493427935392D-01 -5.6572511077578D-02
    10  9.0000000000000D-02  3.7565773434053D-01 -6.5810649199507D-02
    11  1.0000000000000D-01  4.1598199341643D-01 -7.5762055919283D-02
    12  1.1000000000000D-01  4.5586508051780D-01 -8.6478135345476D-02
    13  1.2000000000000D-01  4.9526575068300D-01 -9.8002012699759D-02
    14  1.3000000000000D-01  5.3414355335048D-01 -1.1036795683160D-01
    15  1.4000000000000D-01  5.7245889303198D-01 -1.2360086956344D-01
    16  1.5000000000000D-01  6.1017308720055D-01 -1.3771584586906D-01
    17  1.6000000000000D-01  6.4724842125144D-01 -1.5271780838843D-01
    18  1.7000000000000D-01  6.8364820041308D-01 -1.6860121925824D-01
    19  1.8000000000000D-01  7.1933679850558D-01 -1.8534987169156D-01
    20  1.9000000000000D-01  7.5427970346418D-01 -2.0293676317698D-01
    21  2.0000000000000D-01  7.8844355956630D-01 -2.2132405159099D-01
    22  2.1000000000000D-01  8.2179620632123D-01 -2.4046309493057D-01
    23  2.2000000000000D-01  8.5430671400256D-01 -2.6029457478138D-01
    24  2.3000000000000D-01  8.8594541582392D-01 -2.8074870304341D-01
    25  2.4000000000000D-01  9.1668393677883D-01 -3.0174551084510D-01
    26  2.5000000000000D-01  9.4649521918518D-01 -3.2319521799348D-01
    27  2.6000000000000D-01  9.7535354499352D-01 -3.4499868073437D-01
    28  2.7000000000000D-01  1.0032345549367D+00 -3.6704791503900D-01
    29  2.8000000000000D-01  1.0301152646153D+00 -3.8922669209400D-01
    30  2.9000000000000D-01  1.0559740776289D+00 -4.1141120215474D-01
    31  3.0000000000000D-01  1.0807907958782D+00 -4.3347078243158D-01
    32  3.1000000000000D-01  1.1045466271760D+00 -4.5526870421770D-01
    33  3.2000000000000D-01  1.1272241903162D+00 -4.7666301403875D-01
    34  3.3000000000000D-01  1.1488075177608D+00 -4.9750742321228D-01
    35  3.4000000000000D-01  1.1692820561124D+00 -5.1765223985169D-01
    36  3.5000000000000D-01  1.1886346645460D+00 -5.3694533703591D-01
    37  3.6000000000000D-01  1.2068536113809D+00 -5.5523315059764D-01
    38  3.7000000000000D-01  1.2239285689715D+00 -5.7236169975819D-01
    39  3.8000000000000D-01  1.2398506071023D+00 -5.8817762366010D-01
    40  3.9000000000000D-01  1.2546121850678D+00 -6.0252922671906D-01
    41  4.0000000000000D-01  1.2682071426156D+00 -6.1526752563703D-01
    42  4.1000000000000D-01  1.2806306899281D+00 -6.2624729088697D-01
    43  4.2000000000000D-01  1.2918793968100D+00 -6.3532807549965D-01
    44  4.3000000000000D-01  1.3019511812406D+00 -6.4237522405132D-01
    45  4.4000000000000D-01  1.3108452974422D+00 -6.4726085486938D-01
    46  4.5000000000000D-01  1.3185623236011D+00 -6.4986480864014D-01
    47  4.6000000000000D-01  1.3251041493682D+00 -6.5007555681630D-01
    48  4.7000000000000D-01  1.3304739632497D+00 -6.4779106348200D-01
    49  4.8000000000000D-01  1.3346762399840D+00 -6.4291959463704D-01
    50  4.9000000000000D-01  1.3377167279849D+00 -6.3538046920805D-01
    51  5.0000000000000D-01  1.3396024369127D+00 -6.2510474647948D-01
    52  5.1000000000000D-01  1.3403416254178D+00 -6.1203584505967D-01
    53  5.2000000000000D-01  1.3399437890823D+00 -5.9613008895412D-01
    54  5.3000000000000D-01  1.3384196485678D+00 -5.7735717680429D-01
    55  5.4000000000000D-01  1.3357811379542D+00 -5.5570057086487D-01
    56  5.5000000000000D-01  1.3320413932416D+00 -5.3115780283130D-01
    57  5.6000000000000D-01  1.3272147409631D+00 -5.0374069418610D-01
    58  5.7000000000000D-01  1.3213166868400D+00 -4.7347548930829D-01
    59  5.8000000000000D-01  1.3143639043940D+00 -4.4040290017492D-01
    60  5.9000000000000D-01  1.3063742234120D+00 -4.0457806207959D-01
    61  6.0000000000000D-01  1.2973666181441D+00 -3.6607040038899D-01
    62  6.1000000000000D-01  1.2873611951004D+00 -3.2496340895841D-01
    63  6.2000000000000D-01  1.2763791802986D+00 -2.8135434141745D-01
    64  6.3000000000000D-01  1.2644429058017D+00 -2.3535381712456D-01
    65  6.4000000000000D-01  1.2515757953748D+00 -1.8708534415787D-01
    66  6.5000000000000D-01  1.2378023490822D+00 -1.3668476226583D-01
    67  6.6000000000000D-01  1.2231481266376D+00 -8.4299609235823D-02
    68  6.7000000000000D-01  1.2076397293162D+00 -3.0088414646450D-02
    69  6.8000000000000D-01  1.1913047802345D+00  2.5780074547212D-02
    70  6.9000000000000D-01  1.1741719028034D+00  8.3127731696401D-02
    71  7.0000000000000D-01  1.1562706971609D+00  1.4176794609448D-01
    72  7.1000000000000D-01  1.1376317143953D+00  2.0150657087293D-01
    73  7.2000000000000D-01  1.1182864283761D+00  2.6214291712439D-01
    74  7.3000000000000D-01  1.0982672050171D+00  3.2347078792402D-01
    75  7.4000000000000D-01  1.0776072688080D+00  3.8527954566811D-01
    76  7.5000000000000D-01  1.0563406664635D+00  4.4735520594177D-01
    77  7.6000000000000D-01  1.0345022275534D+00  5.0948155096893D-01
    78  7.7000000000000D-01  1.0121275219950D+00  5.7144125558635D-01
    79  7.8000000000000D-01  9.8925281430731D-01  6.3301701862133D-01
    80  7.9000000000000D-01  9.6591501454854D-01  6.9399269254000D-01
    81  8.0000000000000D-01  9.4215162588099D-01  7.5415440426920D-01
    82  8.1000000000000D-01  9.1800068873006D-01  8.1329166017977D-01
    83  8.2000000000000D-01  8.9350072153207D-01  8.7119842835239D-01
    84  8.3000000000000D-01  8.6869065809055D-01  9.2767419142635D-01
    85  8.4000000000000D-01  8.4360978158959D-01  9.8252496355749D-01
    86  8.5000000000000D-01  8.1829765534079D-01  1.0355642652800D+00
    87  8.6000000000000D-01  7.9279405036993D-01  1.0866140503772D+00
    88  8.7000000000000D-01  7.6713886997874D-01  1.1355055792171D+00
    89  8.8000000000000D-01  7.4137207144685D-01  1.1820802333929D+00
    90  8.9000000000000D-01  7.1553358506846D-01  1.2261902669299D+00
    91  9.0000000000000D-01  6.8966323074713D-01  1.2676994897714D+00
    92  9.1000000000000D-01  6.6380063240067D-01  1.3064838797303D+00
    93  9.2000000000000D-01  6.3798513045541D-01  1.3424321195979D+00
    94  9.3000000000000D-01  6.1225569273534D-01  1.3754460566203D+00
    95  9.4000000000000D-01  5.8665082407683D-01  1.4054410820891D+00
    96  9.5000000000000D-01  5.6120847502247D-01  1.4323464293436D+00
    97  9.6000000000000D-01  5.3596594996914D-01  1.4561053890373D+00
    98  9.7000000000000D-01  5.1095981516489D-01  1.4766754410860D+00
    99  9.8000000000000D-01  4.8622580696569D-01  1.4940283032669D+00
   100  9.9000000000000D-01  4.6179874077810D-01  1.5081498970044D+00
   101  1.0000000000000D+00  4.3771242112562D-01  1.5190402314240D+00
   102  1.0100000000000D+00  4.1399955328533D-01  1.5267132072895D+00
   103  1.0200000000000D+00  3.9069165694784D-01  1.5311963429615D+00
   104  1.0300000000000D+00  3.6781898235626D-01  1.5325304250170D+00
   105  1.0400000000000D+00  3.4541042937992D-01  1.5307690866559D+00
   106  1.0500000000000D+00  3.2349346997524D-01  1.5259783174424D+00
   107  1.0600000000000D+00  3.0209407447969D-01  1.5182359083966D+00
   108  1.0700000000000D+00  2.8123664217420D-01  1.5076308368088D+00
   109  1.0800000000000D+00  2.6094393653737D-01  1.4942625955141D+00
   110  1.0900000000000D+00  2.4123702559579D-01  1.4782404716976D+00
   111  1.1000000000000D+00  2.2213522775975D-01  1.4596827805393D+00
   112  1.1100000000000D+00  2.0365606350573D-01  1.4387160593037D+00
   113  1.1200000000000D+00  1.8581521324484D-01  1.4154742276311D+00
   114  1.1300000000000D+00  1.6862648168430D-01  1.3900977199630D+00
   115  1.1400000000000D+00  1.5210176896287D-01  1.3627325961258D+00
   116  1.1500000000000D+00  1.3625104880264D-01  1.3335296361867D+00
   117  1.1600000000000D+00  1.2108235388538D-01  1.3026434257020D+00
   118  1.1700000000000D+00  1.0660176861860D-01  1.2702314374400D+00
   119  1.1800000000000D+00  9.2813429428761D-02  1.2364531156332D+00
   120  1.1900000000000D+00  7.9719532663269D-02  1.2014689686795D+00
   121  1.2000000000000D+00  6.7320350145285D-02  1.1654396760574D+00
   122  1.2100000000000D+00  5.5614252380552D-02  1.1285252150267D+00
   123  1.2200000000000D+00  4.4597739379976D-02  1.0908840125344D+00
   124  1.2300000000000D+00  3.4265478999069D-02  1.0526721273802D+00
   125  1.2400000000000D+00  2.4610352653198D-02  1.0140424673758D+00
   126  1.2500000000000D+00  1.5623508250128D-02  9.7514404615983D-01
   127  1.2600000000000D+00  7.2944200948594D-03  9.3612128365338D-01
   128  1.2700000000000D+00 -3.8904450367062D-04  8.9711335384983D-01
   129  1.2800000000000D+00 -7.4405522134390D-03  8.5825358351864D-01
   130  1.2900000000000D+00 -1.3875224618483D-02  8.1966890459992D-01
   131  1.3000000000000D+00 -1.9709553512166D-02  7.8147936268296D-01
   132  1.3100000000000D+00 -2.4961310945869D-02  7.4379768399226D-01
   133  1.3200000000000D+00 -2.9649454520791D-02  7.0672890220866D-01
   134  1.3300000000000D+00 -3.3794028414002D-02  6.7037004623533D-01
   135  1.3400000000000D+00 -3.7416060639787D-02  6.3480989005585D-01
   136  1.3500000000000D+00 -4.0537457123240D-02  6.0012876445743D-01
   137  1.3600000000000D+00 -4.3180893138291D-02  5.6639843067799D-01
   138  1.3700000000000D+00 -4.5369702699529D-02  5.3368201556670D-01
   139  1.3800000000000D+00 -4.7127766522333D-02  5.0203400674420D-01
   140  1.3900000000000D+00 -4.8479399149825D-02  4.7150030689988D-01
   141  1.4000000000000D+00 -4.9449235882281D-02  4.4211834510756D-01
   142  1.4100000000000D+00 -5.0062120117072D-02  4.1391724290814D-01
   143  1.4200000000000D+00 -5.0342991738350D-02  3.8691803315801D-01
   144  1.4300000000000D+00 -5.0316777152829D-02  3.6113392817979D-01
   145  1.4400000000000D+00 -5.0008281592268D-02  3.3657063472783D-01
   146  1.4500000000000D+00 -4.9442084276291D-02  3.1322671210349D-01
   147  1.4600000000000D+00 -4.8642436977888D-02  2.9109396991954D-01
   148  1.4700000000000D+00 -4.7633166610941D-02  2.7015790200415D-01
   149  1.4800000000000D+00 -4.6437582264897D-02  2.5039815221757D-01
   150  1.4900000000000D+00 -4.5078387298728D-02  2.3178900856842D-01
   151  1.5000000000000D+00 -4.3577596853952D-02  2.1429992124716D-01
   152  1.5100000000000D+00 -4.1956461274682D-02  1.9789604070146D-01
   153  1.5200000000000D+00 -4.0235395824297D-02  1.8253877141840D-01
   154  1.5300000000000D+00 -3.8433916966169D-02  1.6818633758253D-01
   155  1.5400000000000D+00 -3.6570585672768D-02  1.5479435612993D-01
   156  1.5500000000000D+00 -3.4662957767774D-02  1.4231641391092D-01
   157  1.5600000000000D+00 -3.2727541829619D-02  1.3070464418139D-01
   158  1.5700000000000D+00 -3.0779764456003D-02  1.1991029984734D-01
   159  1.5800000000000D+00 -2.8833943345311D-02  1.0988431873765D-01
   160  1.5900000000000D+00 -2.6903267936966D-02  1.0057787871855D-01
   161  1.6000000000000D+00 -2.4999787871836D-02  9.1942938524465D-02
   162  1.6100000000000D+00 -2.3134409025491D-02  8.3932762223716D-02
   163  1.6200000000000D+00 -2.1316897149611D-02  7.6502424148005D-02
   164  1.6300000000000D+00 -1.9555889007550D-02  6.9609298005630D-02
   165  1.6400000000000D+00 -1.7858910129256D-02  6.3213492501168D-02
   166  1.6500000000000D+00 -1.6232401451904D-02  5.7278357570012D-02
   167  1.6600000000000D+00 -1.4681747556614D-02  5.1770713415879D-02
   168  1.6700000000000D+00 -1.3211316040764D-02  4.6661280705165D-02
   169  1.6800000000000D+00 -1.1824514974681D-02  4.1925721674508D-02
   170  1.6900000000000D+00 -1.0523821146538D-02  3.7543864458251D-02
   171  1.7000000000000D+00 -9.3108010744515D-03  3.3498242655103D-02
   172  1.7100000000000D+00 -8.1861428426060D-03  2.9773038201897D-02
   173  1.7200000000000D+00 -7.1496790001944D-03  2.6352382467718D-02
   174  1.7300000000000D+00 -6.2004419751430D-03  2.3220102485668D-02
   175  1.7400000000000D+00 -5.3367411771848D-03  2.0360428388789D-02
   176  1.7500000000000D+00 -4.5562303003673D-03  1.7758016964037D-02
   177  1.7600000000000D+00 -3.8559761765561D-03  1.5397911773815D-02
   178  1.7700000000000D+00 -3.2325322133570D-03  1.3265652393551D-02
   179  1.7800000000000D+00 -2.6820112519839D-03  1.1347282760453D-02
   180  1.7900000000000D+00 -2.2001592722582D-03  9.6293723496820D-03
   181  1.8000000000000D+00 -1.7824286599738D-03  8.0990148620604D-03
   182  1.8100000000000D+00 -1.4240506204148D-03  6.7438133553147D-03
   183  1.8200000000000D+00 -1.1201059861852D-03  5.5518526779636D-03
   184  1.8300000000000D+00 -8.6559417933602D-04  4.5116617214891D-03
   185  1.8400000000000D+00 -6.5549926660626D-04  3.6121670573490D-03
   186  1.8500000000000D+00 -4.8485334555022D-04  2.8426394057711D-03
   187  1.8600000000000D+00 -3.4879582532983D-04  2.1926358913976D-03
   188  1.8700000000000D+00 -2.4262921047215D-04  1.6519380382087D-03
   189  1.8800000000000D+00 -1.6186995225050D-04  1.2104893877818D-03
   190  1.8900000000000D+00 -1.0229486490121D-04  8.5833213631266D-04
   191  1.9000000000000D+00 -5.9977241202435D-05  5.8556181077260D-04
   192  1.9100000000000D+00 -3.1334610927366D-05  3.8223015986876D-04
   193  1.9200000000000D+00 -1.3177510012474D-05  2.3820999829000D-04
   194  1.9300000000000D+00 -2.7379948531624D-06  1.4283633396323D-04
   195  1.9400000000000D+00  2.6449952131409D-06  8.7550282915229D-05
   196  1.9500000000000D+00  5.1618507003319D-06  6.3906210495598D-05
   197  1.9600000000000D+00  5.6924471318993D-06  5.4767386090090D-05
   198  1.9700000000000D+00  4.4242930002924D-06  4.1729088471503D-05
   199  1.9800000000000D+00  2.0112511540505D-06  1.9409389255141D-05
   200  1.9900000000000D+00 -5.2511214624962D-08 -4.7895955130931D-07
   201  2.0000000000000D+00 -5.4690572576307D-07 -5.0094511794161D-06
   202  2.0100000000000D+00 -1.8991943336154D-07 -1.7505158320974D-06
   203  2.0200000000000D+00  1.0785901667493D-07  9.1532682445401D-07
   204  2.0300000000000D+00  1.0087865017333D-07  8.5089602481699D-07
   205  2.0400000000000D+00 -5.2606153203151D-09 -4.9732156616135D-08
   206  2.0500000000000D+00 -1.4687787353381D-08 -1.3885359345361D-07
   207  2.0600000000000D+00 -3.5675058174573D-09 -3.3726046715031D-08
   208  2.0700000000000D+00  0.0000000000000D+00  0.0000000000000D+00
   209  2.0800000000000D+00  0.0000000000000D+00  0.0000000000000D+00
   210  2.0900000000000D+00  0.0000000000000D+00  0.0000000000000D+00
   211  2.1000000000000D+00  0.0000000000000D+00  0.0000000000000D+00
   212  2.1100000000000D+00  0.0000000000000D+00  0.0000000000000D+00
   213  2.1200000000000D+00  0.0000000000000D+00  0.0000000000000D+00
   214  2.1300000000000D+00  0.0000000000000D+00  0.0000000000000D+00
   215  2.1400000000000D+00  0.0000000000000D+00  0.0000000000000D+00
   216  2.1500000000000D+00  0.0000000000000D+00  0.0000000000000D+00
   217  2.1600000000000D+00  0.0000000000000D+00  0.0000000000000D+00
   218  2.1700000000000D+00  0.0000000000000D+00  0.0000000000000D+00
   219  2.1800000000000D+00  0.0000000000000D+00  0.0000000000000D+00
   220  2.1900000000000D+00  0.0000000000000D+00  0.0000000000000D+00
   221  2.2000000000000D+00  0.0000000000000D+00  0.0000000000000D+00
   222  2.2100000000000D+00  0.0000000000000D+00  0.0000000000000D+00
   223  2.2200000000000D+00  0.0000000000000D+00  0.0000000000000D+00
   224  2.2300000000000D+00  0.0000000000000D+00  0.0000000000000D+00
   225  2.2400000000000D+00  0.0000000000000D+00  0.0000000000000D+00
   226  2.2500000000000D+00  0.0000000000000D+00  0.0000000000000D+00
   227  2.2600000000000D+00  0.0000000000000D+00  0.0000000000000D+00
   228  2.2700000000000D+00  0.0000000000000D+00  0.0000000000000D+00
   229  2.2800000000000D+00  0.0000000000000D+00  0.0000000000000D+00
   230  2.2900000000000D+00  0.0000000000000D+00  0.0000000000000D+00
   231  2.3000000000000D+00  0.0000000000000D+00  0.0000000000000D+00
   232  2.3100000000000D+00  0.0000000000000D+00  0.0000000000000D+00
   233  2.3200000000000D+00  0.0000000000000D+00  0.0000000000000D+00
   234  2.3300000000000D+00  0.0000000000000D+00  0.0000000000000D+00
   235  2.3400000000000D+00  0.0000000000000D+00  0.0000000000000D+00
   236  2.3500000000000D+00  0.0000000000000D+00  0.0000000000000D+00
   237  2.3600000000000D+00  0.0000000000000D+00  0.0000000000000D+00
   238  2.3700000000000D+00  0.0000000000000D+00  0.0000000000000D+00
   239  2.3800000000000D+00  0.0000000000000D+00  0.0000000000000D+00
   240  2.3900000000000D+00  0.0000000000000D+00  0.0000000000000D+00
   241  2.4000000000000D+00  0.0000000000000D+00  0.0000000000000D+00
   242  2.4100000000000D+00  0.0000000000000D+00  0.0000000000000D+00
   243  2.4200000000000D+00  0.0000000000000D+00  0.0000000000000D+00
   244  2.4300000000000D+00  0.0000000000000D+00  0.0000000000000D+00
   245  2.4400000000000D+00  0.0000000000000D+00  0.0000000000000D+00
   246  2.4500000000000D+00  0.0000000000000D+00  0.0000000000000D+00
   247  2.4600000000000D+00  0.0000000000000D+00  0.0000000000000D+00
   248  2.4700000000000D+00  0.0000000000000D+00  0.0000000000000D+00
   249  2.4800000000000D+00  0.0000000000000D+00  0.0000000000000D+00
   250  2.4900000000000D+00  0.0000000000000D+00  0.0000000000000D+00
   251  2.5000000000000D+00  0.0000000000000D+00  0.0000000000000D+00
   252  2.5100000000000D+00  0.0000000000000D+00  0.0000000000000D+00
   253  2.5200000000000D+00  0.0000000000000D+00  0.0000000000000D+00
   254  2.5300000000000D+00  0.0000000000000D+00  0.0000000000000D+00
   255  2.5400000000000D+00  0.0000000000000D+00  0.0000000000000D+00
   256  2.5500000000000D+00  0.0000000000000D+00  0.0000000000000D+00
   257  2.5600000000000D+00  0.0000000000000D+00  0.0000000000000D+00
   258  2.5700000000000D+00  0.0000000000000D+00  0.0000000000000D+00
   259  2.5800000000000D+00  0.0000000000000D+00  0.0000000000000D+00
   260  2.5900000000000D+00  0.0000000000000D+00  0.0000000000000D+00
   261  2.6000000000000D+00  0.0000000000000D+00  0.0000000000000D+00
   262  2.6100000000000D+00  0.0000000000000D+00  0.0000000000000D+00
   263  2.6200000000000D+00  0.0000000000000D+00  0.0000000000000D+00
   264  2.6300000000000D+00  0.0000000000000D+00  0.0000000000000D+00
   265  2.6400000000000D+00  0.0000000000000D+00  0.0000000000000D+00
   266  2.6500000000000D+00  0.0000000000000D+00  0.0000000000000D+00
   267  2.6600000000000D+00  0.0000000000000D+00  0.0000000000000D+00
   268  2.6700000000000D+00  0.0000000000000D+00  0.0000000000000D+00
   269  2.6800000000000D+00  0.0000000000000D+00  0.0000000000000D+00
   270  2.6900000000000D+00  0.0000000000000D+00  0.0000000000000D+00
   271  2.7000000000000D+00  0.0000000000000D+00  0.0000000000000D+00
   272  2.7100000000000D+00  0.0000000000000D+00  0.0000000000000D+00
   273  2.7200000000000D+00  0.0000000000000D+00  0.0000000000000D+00
   274  2.7300000000000D+00  0.0000000000000D+00  0.0000000000000D+00
   275  2.7400000000000D+00  0.0000000000000D+00  0.0000000000000D+00
   276  2.7500000000000D+00  0.0000000000000D+00  0.0000000000000D+00
   277  2.7600000000000D+00  0.0000000000000D+00  0.0000000000000D+00
   278  2.7700000000000D+00  0.0000000000000D+00  0.0000000000000D+00
   279  2.7800000000000D+00  0.0000000000000D+00  0.0000000000000D+00
   280  2.7900000000000D+00  0.0000000000000D+00  0.0000000000000D+00
   281  2.8000000000000D+00  0.0000000000000D+00  0.0000000000000D+00
   282  2.8100000000000D+00  0.0000000000000D+00  0.0000000000000D+00
   283  2.8200000000000D+00  0.0000000000000D+00  0.0000000000000D+00
   284  2.8300000000000D+00  0.0000000000000D+00  0.0000000000000D+00
   285  2.8400000000000D+00  0.0000000000000D+00  0.0000000000000D+00
   286  2.8500000000000D+00  0.0000000000000D+00  0.0000000000000D+00
   287  2.8600000000000D+00  0.0000000000000D+00  0.0000000000000D+00
   288  2.8700000000000D+00  0.0000000000000D+00  0.0000000000000D+00
   289  2.8800000000000D+00  0.0000000000000D+00  0.0000000000000D+00
   290  2.8900000000000D+00  0.0000000000000D+00  0.0000000000000D+00
   291  2.9000000000000D+00  0.0000000000000D+00  0.0000000000000D+00
   292  2.9100000000000D+00  0.0000000000000D+00  0.0000000000000D+00
   293  2.9200000000000D+00  0.0000000000000D+00  0.0000000000000D+00
   294  2.9300000000000D+00  0.0000000000000D+00  0.0000000000000D+00
   295  2.9400000000000D+00  0.0000000000000D+00  0.0000000000000D+00
   296  2.9500000000000D+00  0.0000000000000D+00  0.0000000000000D+00
   297  2.9600000000000D+00  0.0000000000000D+00  0.0000000000000D+00
   298  2.9700000000000D+00  0.0000000000000D+00  0.0000000000000D+00
   299  2.9800000000000D+00  0.0000000000000D+00  0.0000000000000D+00
   300  2.9900000000000D+00  0.0000000000000D+00  0.0000000000000D+00
   301  3.0000000000000D+00  0.0000000000000D+00  0.0000000000000D+00
   302  3.0100000000000D+00  0.0000000000000D+00  0.0000000000000D+00
   303  3.0200000000000D+00  0.0000000000000D+00  0.0000000000000D+00
   304  3.0300000000000D+00  0.0000000000000D+00  0.0000000000000D+00
   305  3.0400000000000D+00  0.0000000000000D+00  0.0000000000000D+00
   306  3.0500000000000D+00  0.0000000000000D+00  0.0000000000000D+00
   307  3.0600000000000D+00  0.0000000000000D+00  0.0000000000000D+00
   308  3.0700000000000D+00  0.0000000000000D+00  0.0000000000000D+00
   309  3.0800000000000D+00  0.0000000000000D+00  0.0000000000000D+00
   310  3.0900000000000D+00  0.0000000000000D+00  0.0000000000000D+00
   311  3.1000000000000D+00  0.0000000000000D+00  0.0000000000000D+00
   312  3.1100000000000D+00  0.0000000000000D+00  0.0000000000000D+00
   313  3.1200000000000D+00  0.0000000000000D+00  0.0000000000000D+00
   314  3.1300000000000D+00  0.0000000000000D+00  0.0000000000000D+00
   315  3.1400000000000D+00  0.0000000000000D+00  0.0000000000000D+00
   316  3.1500000000000D+00  0.0000000000000D+00  0.0000000000000D+00
   317  3.1600000000000D+00  0.0000000000000D+00  0.0000000000000D+00
   318  3.1700000000000D+00  0.0000000000000D+00  0.0000000000000D+00
   319  3.1800000000000D+00  0.0000000000000D+00  0.0000000000000D+00
   320  3.1900000000000D+00  0.0000000000000D+00  0.0000000000000D+00
   321  3.2000000000000D+00  0.0000000000000D+00  0.0000000000000D+00
   322  3.2100000000000D+00  0.0000000000000D+00  0.0000000000000D+00
   323  3.2200000000000D+00  0.0000000000000D+00  0.0000000000000D+00
   324  3.2300000000000D+00  0.0000000000000D+00  0.0000000000000D+00
   325  3.2400000000000D+00  0.0000000000000D+00  0.0000000000000D+00
   326  3.2500000000000D+00  0.0000000000000D+00  0.0000000000000D+00
   327  3.2600000000000D+00  0.0000000000000D+00  0.0000000000000D+00
   328  3.2700000000000D+00  0.0000000000000D+00  0.0000000000000D+00
   329  3.2800000000000D+00  0.0000000000000D+00  0.0000000000000D+00
   330  3.2900000000000D+00  0.0000000000000D+00  0.0000000000000D+00
   331  3.3000000000000D+00  0.0000000000000D+00  0.0000000000000D+00
   332  3.3100000000000D+00  0.0000000000000D+00  0.0000000000000D+00
   333  3.3200000000000D+00  0.0000000000000D+00  0.0000000000000D+00
   334  3.3300000000000D+00  0.0000000000000D+00  0.0000000000000D+00
   335  3.3400000000000D+00  0.0000000000000D+00  0.0000000000000D+00
   336  3.3500000000000D+00  0.0000000000000D+00  0.0000000000000D+00
   337  3.3600000000000D+00  0.0000000000000D+00  0.0000000000000D+00
   338  3.3700000000000D+00  0.0000000000000D+00  0.0000000000000D+00
   339  3.3800000000000D+00  0.0000000000000D+00  0.0000000000000D+00
   340  3.3900000000000D+00  0.0000000000000D+00  0.0000000000000D+00
   341  3.4000000000000D+00  0.0000000000000D+00  0.0000000000000D+00
   342  3.4100000000000D+00  0.0000000000000D+00  0.0000000000000D+00
   343  3.4200000000000D+00  0.0000000000000D+00  0.0000000000000D+00
   344  3.4300000000000D+00  0.0000000000000D+00  0.0000000000000D+00
   345  3.4400000000000D+00  0.0000000000000D+00  0.0000000000000D+00
   346  3.4500000000000D+00  0.0000000000000D+00  0.0000000000000D+00
   347  3.4600000000000D+00  0.0000000000000D+00  0.0000000000000D+00
   348  3.4700000000000D+00  0.0000000000000D+00  0.0000000000000D+00
   349  3.4800000000000D+00  0.0000000000000D+00  0.0000000000000D+00
   350  3.4900000000000D+00  0.0000000000000D+00  0.0000000000000D+00
   351  3.5000000000000D+00  0.0000000000000D+00  0.0000000000000D+00
   352  3.5100000000000D+00  0.0000000000000D+00  0.0000000000000D+00
   353  3.5200000000000D+00  0.0000000000000D+00  0.0000000000000D+00
   354  3.5300000000000D+00  0.0000000000000D+00  0.0000000000000D+00
   355  3.5400000000000D+00  0.0000000000000D+00  0.0000000000000D+00
   356  3.5500000000000D+00  0.0000000000000D+00  0.0000000000000D+00
   357  3.5600000000000D+00  0.0000000000000D+00  0.0000000000000D+00
   358  3.5700000000000D+00  0.0000000000000D+00  0.0000000000000D+00
   359  3.5800000000000D+00  0.0000000000000D+00  0.0000000000000D+00
   360  3.5900000000000D+00  0.0000000000000D+00  0.0000000000000D+00
   361  3.6000000000000D+00  0.0000000000000D+00  0.0000000000000D+00
   362  3.6100000000000D+00  0.0000000000000D+00  0.0000000000000D+00
   363  3.6200000000000D+00  0.0000000000000D+00  0.0000000000000D+00
   364  3.6300000000000D+00  0.0000000000000D+00  0.0000000000000D+00
   365  3.6400000000000D+00  0.0000000000000D+00  0.0000000000000D+00
   366  3.6500000000000D+00  0.0000000000000D+00  0.0000000000000D+00
   367  3.6600000000000D+00  0.0000000000000D+00  0.0000000000000D+00
   368  3.6700000000000D+00  0.0000000000000D+00  0.0000000000000D+00
   369  3.6800000000000D+00  0.0000000000000D+00  0.0000000000000D+00
   370  3.6900000000000D+00  0.0000000000000D+00  0.0000000000000D+00
   371  3.7000000000000D+00  0.0000000000000D+00  0.0000000000000D+00
   372  3.7100000000000D+00  0.0000000000000D+00  0.0000000000000D+00
   373  3.7200000000000D+00  0.0000000000000D+00  0.0000000000000D+00
   374  3.7300000000000D+00  0.0000000000000D+00  0.0000000000000D+00
   375  3.7400000000000D+00  0.0000000000000D+00  0.0000000000000D+00
   376  3.7500000000000D+00  0.0000000000000D+00  0.0000000000000D+00
   377  3.7600000000000D+00  0.0000000000000D+00  0.0000000000000D+00
   378  3.7700000000000D+00  0.0000000000000D+00  0.0000000000000D+00
   379  3.7800000000000D+00  0.0000000000000D+00  0.0000000000000D+00
   380  3.7900000000000D+00  0.0000000000000D+00  0.0000000000000D+00
   381  3.8000000000000D+00  0.0000000000000D+00  0.0000000000000D+00
   382  3.8100000000000D+00  0.0000000000000D+00  0.0000000000000D+00
   383  3.8200000000000D+00  0.0000000000000D+00  0.0000000000000D+00
   384  3.8300000000000D+00  0.0000000000000D+00  0.0000000000000D+00
   385  3.8400000000000D+00  0.0000000000000D+00  0.0000000000000D+00
   386  3.8500000000000D+00  0.0000000000000D+00  0.0000000000000D+00
   387  3.8600000000000D+00  0.0000000000000D+00  0.0000000000000D+00
   388  3.8700000000000D+00  0.0000000000000D+00  0.0000000000000D+00
   389  3.8800000000000D+00  0.0000000000000D+00  0.0000000000000D+00
   390  3.8900000000000D+00  0.0000000000000D+00  0.0000000000000D+00
   391  3.9000000000000D+00  0.0000000000000D+00  0.0000000000000D+00
   392  3.9100000000000D+00  0.0000000000000D+00  0.0000000000000D+00
   393  3.9200000000000D+00  0.0000000000000D+00  0.0000000000000D+00
   394  3.9300000000000D+00  0.0000000000000D+00  0.0000000000000D+00
   395  3.9400000000000D+00  0.0000000000000D+00  0.0000000000000D+00
   396  3.9500000000000D+00  0.0000000000000D+00  0.0000000000000D+00
   397  3.9600000000000D+00  0.0000000000000D+00  0.0000000000000D+00
   398  3.9700000000000D+00  0.0000000000000D+00  0.0000000000000D+00
   399  3.9800000000000D+00  0.0000000000000D+00  0.0000000000000D+00
   400  3.9900000000000D+00  0.0000000000000D+00  0.0000000000000D+00
   401  4.0000000000000D+00  0.0000000000000D+00  0.0000000000000D+00
   402  4.0100000000000D+00  0.0000000000000D+00  0.0000000000000D+00
   403  4.0200000000000D+00  0.0000000000000D+00  0.0000000000000D+00
   404  4.0300000000000D+00  0.0000000000000D+00  0.0000000000000D+00
   405  4.0400000000000D+00  0.0000000000000D+00  0.0000000000000D+00
   406  4.0500000000000D+00  0.0000000000000D+00  0.0000000000000D+00
   407  4.0600000000000D+00  0.0000000000000D+00  0.0000000000000D+00
   408  4.0700000000000D+00  0.0000000000000D+00  0.0000000000000D+00
   409  4.0800000000000D+00  0.0000000000000D+00  0.0000000000000D+00
   410  4.0900000000000D+00  0.0000000000000D+00  0.0000000000000D+00
   411  4.1000000000000D+00  0.0000000000000D+00  0.0000000000000D+00
   412  4.1100000000000D+00  0.0000000000000D+00  0.0000000000000D+00
   413  4.1200000000000D+00  0.0000000000000D+00  0.0000000000000D+00
   414  4.1300000000000D+00  0.0000000000000D+00  0.0000000000000D+00
   415  4.1400000000000D+00  0.0000000000000D+00  0.0000000000000D+00
   416  4.1500000000000D+00  0.0000000000000D+00  0.0000000000000D+00
   417  4.1600000000000D+00  0.0000000000000D+00  0.0000000000000D+00
   418  4.1700000000000D+00  0.0000000000000D+00  0.0000000000000D+00
   419  4.1800000000000D+00  0.0000000000000D+00  0.0000000000000D+00
   420  4.1900000000000D+00  0.0000000000000D+00  0.0000000000000D+00
   421  4.2000000000000D+00  0.0000000000000D+00  0.0000000000000D+00
   422  4.2100000000000D+00  0.0000000000000D+00  0.0000000000000D+00