Zr    ONCVPSP-3.3.1  r_core=   2.49215   1.91692   2.18569
     40.0000     12.0000      210904    zatom,zion,pspd
     8       2   2     4   600     0    pspcod,pspxc,lmax,lloc,mmax,r2well
  5.99000000  0.00000000  0.00000000    rchrg fchrg qchrg
     2     3     4     0    nproj
     3     1           extension_switch
     4     4     0    nprojso
   0                         1.0414697922286D+00  5.4447931027481D+00
     1  0.0000000000000D+00 -8.3601875422445D-12  3.2871483313102D-12
     2  1.0000000000000D-02 -7.9181816914433D-03  4.3134327127872D-02
     3  2.0000000000000D-02 -1.5823360829121D-02  8.6228536471410D-02
     4  3.0000000000000D-02 -2.3702474290799D-02  1.2924252552280D-01
     5  4.0000000000000D-02 -3.1542338293709D-02  1.7213622247256D-01
     6  5.0000000000000D-02 -3.9329589253163D-02  2.1486960192094D-01
     7  6.0000000000000D-02 -4.7050626061947D-02  2.5740270102190D-01
     8  7.0000000000000D-02 -5.4691554254242D-02  2.9969563619976D-01
     9  8.0000000000000D-02 -6.2238132509515D-02  3.4170862057553D-01
    10  9.0000000000000D-02 -6.9675721941291D-02  3.8340198223599D-01
    11  1.0000000000000D-01 -7.6989238603391D-02  4.2473618347329D-01
    12  1.1000000000000D-01 -8.4163109631653D-02  4.6567184111762D-01
    13  1.2000000000000D-01 -9.1181233422852D-02  5.0616974807872D-01
    14  1.3000000000000D-01 -9.8026944234185D-02  5.4619089620511D-01
    15  1.4000000000000D-01 -1.0468298156656D-01  5.8569650056184D-01
    16  1.5000000000000D-01 -1.1113146467297D-01  6.2464802521927D-01
    17  1.6000000000000D-01 -1.1735387250958D-01  6.6300721063584D-01
    18  1.7000000000000D-01 -1.2333102942175D-01  7.0073610270832D-01
    19  1.8000000000000D-01 -1.2904309683042D-01  7.3779708355230D-01
    20  1.9000000000000D-01 -1.3446957115571D-01  7.7415290406503D-01
    21  2.0000000000000D-01 -1.3958928818491D-01  8.0976671831084D-01
    22  2.1000000000000D-01 -1.4438043406071D-01  8.4460211975786D-01
    23  2.2000000000000D-01 -1.4882056303328D-01  8.7862317938204D-01
    24  2.3000000000000D-01 -1.5288662208642D-01  9.1179448564178D-01
    25  2.4000000000000D-01 -1.5655498251320D-01  9.4408118631370D-01
    26  2.5000000000000D-01 -1.5980147848162D-01  9.7544903216612D-01
    27  2.6000000000000D-01 -1.6260145259439D-01  1.0058644224339D+00
    28  2.7000000000000D-01 -1.6492980841049D-01  1.0352944520440D+00
    29  2.8000000000000D-01 -1.6676106985877D-01  1.0637069605277D+00
    30  2.9000000000000D-01 -1.6806944743665D-01  1.0910705825407D+00
    31  3.0000000000000D-01 -1.6882891104910D-01  1.1173547999005D+00
    32  3.1000000000000D-01 -1.6901326930548D-01  1.1425299950323D+00
    33  3.2000000000000D-01 -1.6859625505428D-01  1.1665675057078D+00
    34  3.3000000000000D-01 -1.6755161689843D-01  1.1894396809392D+00
    35  3.4000000000000D-01 -1.6585321639737D-01  1.2111199378868D+00
    36  3.5000000000000D-01 -1.6347513062541D-01  1.2315828196164D+00
    37  3.6000000000000D-01 -1.6039175972106D-01  1.2508040535390D+00
    38  3.7000000000000D-01 -1.5657793902733D-01  1.2687606103456D+00
    39  3.8000000000000D-01 -1.5200905538968D-01  1.2854307632445D+00
    40  3.9000000000000D-01 -1.4666116714679D-01  1.3007941472936D+00
    41  4.0000000000000D-01 -1.4051112731841D-01  1.3148318186120D+00
    42  4.1000000000000D-01 -1.3353670946608D-01  1.3275263132448D+00
    43  4.2000000000000D-01 -1.2571673567549D-01  1.3388617054477D+00
    44  4.3000000000000D-01 -1.1703120608433D-01  1.3488236651474D+00
    45  4.4000000000000D-01 -1.0746142935668D-01  1.3573995143306D+00
    46  4.5000000000000D-01 -9.6990153484522D-02  1.3645782821055D+00
    47  4.6000000000000D-01 -8.5601696279011D-02  1.3703507581760D+00
    48  4.7000000000000D-01 -7.3282074898663D-02  1.3747095444645D+00
    49  4.8000000000000D-01 -6.0019133748998D-02  1.3776491046177D+00
    50  4.9000000000000D-01 -4.5802670078515D-02  1.3791658111266D+00
    51  5.0000000000000D-01 -3.0624556588758D-02  1.3792579897927D+00
    52  5.1000000000000D-01 -1.4478860372871D-02  1.3779259612721D+00
    53  5.2000000000000D-01  2.6380425036975D-03  1.3751720794338D+00
    54  5.3000000000000D-01  2.0727357463999D-02  1.3710007662689D+00
    55  5.4000000000000D-01  3.9787767599341D-02  1.3654185430940D+00
    56  5.5000000000000D-01  5.9815336236161D-02  1.3584340577980D+00
    57  5.6000000000000D-01  8.0803416545304D-02  1.3500581078888D+00
    58  5.7000000000000D-01  1.0274256883269D-01  1.3403036591049D+00
    59  5.8000000000000D-01  1.2562048613070D-01  1.3291858593671D+00
    60  5.9000000000000D-01  1.4942192868638D-01  1.3167220478567D+00
    61  6.0000000000000D-01  1.7412866791626D-01  1.3029317590207D+00
    62  6.1000000000000D-01  1.9971944036726D-01  1.2878367213153D+00
    63  6.2000000000000D-01  2.2616991219060D-01  1.2714608505188D+00
    64  6.3000000000000D-01  2.5345265459862D-01  1.2538302374561D+00
    65  6.4000000000000D-01  2.8153713073551D-01  1.2349731299985D+00
    66  6.5000000000000D-01  3.1038969435018D-01  1.2149199092209D+00
    67  6.6000000000000D-01  3.3997360061429D-01  1.1937030596148D+00
    68  6.7000000000000D-01  3.7024902938062D-01  1.1713571332801D+00
    69  6.8000000000000D-01  4.0117312112642D-01  1.1479187080383D+00
    70  6.9000000000000D-01  4.3270002577364D-01  1.1234263394323D+00
    71  7.0000000000000D-01  4.6478096452288D-01  1.0979205066013D+00
    72  7.1000000000000D-01  4.9736430478165D-01  1.0714435520420D+00
    73  7.2000000000000D-01  5.3039564820852D-01  1.0440396152948D+00
    74  7.3000000000000D-01  5.6381793183529D-01  1.0157545606135D+00
    75  7.4000000000000D-01  5.9757154216843D-01  9.8663589870666D-01
    76  7.5000000000000D-01  6.3159444210908D-01  9.5673270266180D-01
    77  7.6000000000000D-01  6.6582231046871D-01  9.2609551818874D-01
    78  7.7000000000000D-01  7.0018869379503D-01  8.9477626834572D-01
    79  7.8000000000000D-01  7.3462517015982D-01  8.6282815293540D-01
    80  7.9000000000000D-01  7.6906152449871D-01  8.3030554278410D-01
    81  8.0000000000000D-01  8.0342593503098D-01  7.9726386914172D-01
    82  8.1000000000000D-01  8.3764517022690D-01  7.6375950846464D-01
    83  8.2000000000000D-01  8.7164479573136D-01  7.2984966286709D-01
    84  8.3000000000000D-01  9.0534939059416D-01  6.9559223654975D-01
    85  8.4000000000000D-01  9.3868277210234D-01  6.6104570853627D-01
    86  8.5000000000000D-01  9.7156822845606D-01  6.2626900206976D-01
    87  8.6000000000000D-01  1.0039287584788D+00  5.9132135104116D-01
    88  8.7000000000000D-01  1.0356873175044D+00  5.5626216384039D-01
    89  8.8000000000000D-01  1.0667670685391D+00  5.2115088503883D-01
    90  8.9000000000000D-01  1.0970916377546D+00  4.8604685532791D-01
    91  9.0000000000000D-01  1.1265853733305D+00  4.5100917015289D-01
    92  9.1000000000000D-01  1.1551736066308D+00  4.1609653749469D-01
    93  9.2000000000000D-01  1.1827829146694D+00  3.8136713526335D-01
    94  9.3000000000000D-01  1.2093413827942D+00  3.4687846877682D-01
    95  9.4000000000000D-01  1.2347788664974D+00  3.1268722880642D-01
    96  9.5000000000000D-01  1.2590272512462D+00  2.7884915067619D-01
    97  9.6000000000000D-01  1.2820207092131D+00  2.4541887490750D-01
    98  9.7000000000000D-01  1.3036959517831D+00  2.1244980990197D-01
    99  9.8000000000000D-01  1.3239924767104D+00  1.7999399715606D-01
   100  9.9000000000000D-01  1.3428528088021D+00  1.4810197949826D-01
   101  1.0000000000000D+00  1.3602227330178D+00  1.1682267283563D-01
   102  1.0100000000000D+00  1.3760515188860D+00  8.6203241890500D-02
   103  1.0200000000000D+00  1.3902921351584D+00  5.6288980399224D-02
   104  1.0300000000000D+00  1.4029014536492D+00  2.7123196234932D-02
   105  1.0400000000000D+00  1.4138404412359D+00 -1.2528980966377D-03
   106  1.0500000000000D+00  1.4230743390337D+00 -2.8800289153491D-02
   107  1.0600000000000D+00  1.4305728277930D+00 -5.5482260027088D-02
   108  1.0700000000000D+00  1.4363101786196D+00 -8.1264481186046D-02
   109  1.0800000000000D+00  1.4402653881597D+00 -1.0611509431354D-01
   110  1.0900000000000D+00  1.4424222974537D+00 -1.3000478878115D-01
   111  1.1000000000000D+00  1.4427696937128D+00 -1.5290687042454D-01
   112  1.1100000000000D+00  1.4413013943362D+00 -1.7479732231111D-01
   113  1.1200000000000D+00  1.4380163125583D+00 -1.9565485721833D-01
   114  1.1300000000000D+00  1.4329185041741D+00 -2.1546096156781D-01
   115  1.1400000000000D+00  1.4260171948754D+00 -2.3419993059140D-01
   116  1.1500000000000D+00  1.4173267877835D+00 -2.5185889453035D-01
   117  1.1600000000000D+00  1.4068668508674D+00 -2.6842783570799D-01
   118  1.1700000000000D+00  1.3946620839971D+00 -2.8389959634380D-01
   119  1.1800000000000D+00  1.3807422654681D+00 -2.9826987700982D-01
   120  1.1900000000000D+00  1.3651421779054D+00 -3.1153722566144D-01
   121  1.2000000000000D+00  1.3479015135517D+00 -3.2370301721420D-01
   122  1.2100000000000D+00  1.3290647590300D+00 -3.3477142367244D-01
   123  1.2200000000000D+00  1.3086810597144D+00 -3.4474937483510D-01
   124  1.2300000000000D+00  1.2868040639762D+00 -3.5364650965767D-01
   125  1.2400000000000D+00  1.2634917476307D+00 -3.6147511837545D-01
   126  1.2500000000000D+00  1.2388062189718D+00 -3.6825007551738D-01
   127  1.2600000000000D+00  1.2128135048810D+00 -3.7398876398238D-01
   128  1.2700000000000D+00  1.1855833185844D+00 -3.7871099038665D-01
   129  1.2800000000000D+00  1.1571888096642D+00 -3.8243889190495D-01
   130  1.2900000000000D+00  1.1277062970264D+00 -3.8519683486809D-01
   131  1.3000000000000D+00  1.0972149856136D+00 -3.8701130541871D-01
   132  1.3100000000000D+00  1.0657966676614D+00 -3.8791079252984D-01
   133  1.3200000000000D+00  1.0335354093943D+00 -3.8792566373374D-01
   134  1.3300000000000D+00  1.0005172241261D+00 -3.8708803394111D-01
   135  1.3400000000000D+00  9.6682973271470D-01 -3.8543162772177D-01
   136  1.3500000000000D+00  9.3256181243735D-01 -3.8299163547219D-01
   137  1.3600000000000D+00  8.9780323536742D-01 -3.7980456390402D-01
   138  1.3700000000000D+00  8.6264429732717D-01 -3.7590808128213D-01
   139  1.3800000000000D+00  8.2717543860197D-01 -3.7134085789746D-01
   140  1.3900000000000D+00  7.9148685754800D-01 -3.6614240223524D-01
   141  1.4000000000000D+00  7.5566811828708D-01 -3.6035289332692D-01
   142  1.4100000000000D+00  7.1980775368316D-01 -3.5401300978625D-01
   143  1.4200000000000D+00  6.8399286479430D-01 -3.4716375601952D-01
   144  1.4300000000000D+00  6.4830871801007D-01 -3.3984628612417D-01
   145  1.4400000000000D+00  6.1283834104943D-01 -3.3210172597136D-01
   146  1.4500000000000D+00  5.7766211904301D-01 -3.2397099398967D-01
   147  1.4600000000000D+00  5.4285739179596D-01 -3.1549462113314D-01
   148  1.4700000000000D+00  5.0849805347009D-01 -3.0671257055487D-01
   149  1.4800000000000D+00  4.7465415604559D-01 -2.9766405752898D-01
   150  1.4900000000000D+00  4.4139151551799D-01 -2.8838736961026D-01
   151  1.5000000000000D+00  4.0877129028436D-01 -2.7891968001448D-01
   152  1.5100000000000D+00  3.7684978607109D-01 -2.6929691452606D-01
   153  1.5200000000000D+00  3.4567784484159D-01 -2.5955351905949D-01
   154  1.5300000000000D+00  3.1530013027578D-01 -2.4972221237262D-01
   155  1.5400000000000D+00  2.8575574966988D-01 -2.3983403298425D-01
   156  1.5500000000000D+00  2.5707871194646D-01 -2.2991836200496D-01
   157  1.5600000000000D+00  2.2929972620477D-01 -2.2000329470901D-01
   158  1.5700000000000D+00  2.0244725319835D-01 -2.1011584475065D-01
   159  1.5800000000000D+00  1.7654684877522D-01 -2.0028177642378D-01
   160  1.5900000000000D+00  1.5162113978304D-01 -1.9052558059176D-01
   161  1.6000000000000D+00  1.2768986156004D-01 -1.8087046199071D-01
   162  1.6100000000000D+00  1.0476979291417D-01 -1.7133830816995D-01
   163  1.6200000000000D+00  8.2874753469044D-02 -1.6194967369495D-01
   164  1.6300000000000D+00  6.2015593762119D-02 -1.5272376477574D-01
   165  1.6400000000000D+00  4.2200201222223D-02 -1.4367842936739D-01
   166  1.6500000000000D+00  2.3433517994265D-02 -1.3483015190027D-01
   167  1.6600000000000D+00  5.7175699857811D-03 -1.2619405243614D-01
   168  1.6700000000000D+00 -1.0948492700134D-02 -1.1778389033121D-01
   169  1.6800000000000D+00 -2.6568344738908D-02 -1.0961207214047D-01
   170  1.6900000000000D+00 -4.1148423831638D-02 -1.0168966383480D-01
   171  1.7000000000000D+00 -5.4697859138429D-02 -9.4026407019695D-02
   172  1.7100000000000D+00 -6.7228389837529D-02 -8.6630739203000D-02
   173  1.7200000000000D+00 -7.8754274783893D-02 -7.9509817775236D-02
   174  1.7300000000000D+00 -8.9292193315154D-02 -7.2669547712739D-02
   175  1.7400000000000D+00 -9.8861138191230D-02 -6.6114612659616D-02
   176  1.7500000000000D+00 -1.0748230084472D-01 -5.9848509352638D-02
   177  1.7600000000000D+00 -1.1517894988883D-01 -5.3873585056105D-02
   178  1.7700000000000D+00 -1.2197630324674D-01 -4.8191077905556D-02
   179  1.7800000000000D+00 -1.2790139475353D-01 -4.2801159858300D-02
   180  1.7900000000000D+00 -1.3298293575495D-01 -3.7702982088889D-02
   181  1.8000000000000D+00 -1.3725117246151D-01 -3.2894722561255D-02
   182  1.8100000000000D+00 -1.4073773973516D-01 -2.8373635555418D-02
   183  1.8200000000000D+00 -1.4347551198471D-01 -2.4136102913431D-02
   184  1.8300000000000D+00 -1.4549845191952D-01 -2.0177686745185D-02
   185  1.8400000000000D+00 -1.4684145783522D-01 -1.6493183368943D-02
   186  1.8500000000000D+00 -1.4754021012305D-01 -1.3076678229910D-02
   187  1.8600000000000D+00 -1.4763101780876D-01 -9.9216015403877D-03
   188  1.8700000000000D+00 -1.4715066557142D-01 -7.0207844461381D-03
   189  1.8800000000000D+00 -1.4613626231775D-01 -4.3665153847263D-03
   190  1.8900000000000D+00 -1.4462509145274D-01 -1.9505965322933D-03
   191  1.9000000000000D+00 -1.4265446408313D-01  2.3560005257704D-04
   192  1.9100000000000D+00 -1.4026157521576D-01  2.2010766571119D-03
   193  1.9200000000000D+00 -1.3748336399318D-01  3.9551548619110D-03
   194  1.9300000000000D+00 -1.3435637833721D-01  5.5074213592395D-03
   195  1.9400000000000D+00 -1.3091664441367D-01  6.8676748078839D-03
   196  1.9500000000000D+00 -1.2719954202024D-01  8.0458740946187D-03
   197  1.9600000000000D+00 -1.2323968528331D-01  9.0520878544629D-03
   198  1.9700000000000D+00 -1.1907081062838D-01  9.8964458885544D-03
   199  1.9800000000000D+00 -1.1472567081100D-01  1.0589092141373D-02
   200  1.9900000000000D+00 -1.1023593672780D-01  1.1140139807166D-02
   201  2.0000000000000D+00 -1.0563210656949D-01  1.1559628462621D-02
   202  2.0100000000000D+00 -1.0094342260492D-01  1.1857483351095D-02
   203  2.0200000000000D+00 -9.6197796719938D-02  1.2043477207588D-02
   204  2.0300000000000D+00 -9.1421743209074D-02  1.2127194179023D-02
   205  2.0400000000000D+00 -8.6640321187390D-02  1.2117996630330D-02
   206  2.0500000000000D+00 -8.1877084655481D-02  1.2024994236586D-02
   207  2.0600000000000D+00 -7.7154041586744D-02  1.1857015835627D-02
   208  2.0700000000000D+00 -7.2491621958355D-02  1.1622584048168D-02
   209  2.0800000000000D+00 -6.7908653516410D-02  1.1329892303196D-02
   210  2.0900000000000D+00 -6.3422347394755D-02  1.0986784995280D-02
   211  2.1000000000000D+00 -5.9048291049493D-02  1.0600739971671D-02
   212  2.1100000000000D+00 -5.4800450176455D-02  1.0178853932711D-02
   213  2.1200000000000D+00 -5.0691178837217D-02  9.7278305217823D-03
   214  2.1300000000000D+00 -4.6731236704289D-02  9.2539707735492D-03
   215  2.1400000000000D+00 -4.2929815140110D-02  8.7631665311194D-03
   216  2.1500000000000D+00 -3.9294569542506D-02  8.2608959987312D-03
   217  2.1600000000000D+00 -3.5831659215926D-02  7.7522218935179D-03
   218  2.1700000000000D+00 -3.2545794062861D-02  7.2417919918847D-03
   219  2.1800000000000D+00 -2.9440286656475D-02  6.7338416067378D-03
   220  2.1900000000000D+00 -2.6517111188633D-02  6.2321985603028D-03
   221  2.2000000000000D+00 -2.3776966978276D-02  5.7402898730018D-03
   222  2.2100000000000D+00 -2.1219347009210D-02  5.2611503784442D-03
   223  2.2200000000000D+00 -1.8842611146570D-02  4.7974331866050D-03
   224  2.2300000000000D+00 -1.6644062670343D-02  4.3514215282099D-03
   225  2.2400000000000D+00 -1.4620028533112D-02  3.9250422048360D-03
   226  2.2500000000000D+00 -1.2765942233928D-02  3.5198802604576D-03
   227  2.2600000000000D+00 -1.1076428820395D-02  3.1371947305643D-03
   228  2.2700000000000D+00 -9.5453916500081D-03  2.7779354361139D-03
   229  2.2800000000000D+00 -8.1661002401198D-03  2.4427605380934D-03
   230  2.2900000000000D+00 -6.9312786121492D-03  2.1320547350673D-03
   231  2.3000000000000D+00 -5.8331934579232D-03  1.8459479123941D-03
   232  2.3100000000000D+00 -4.8637421689715D-03  1.5843342008140D-03
   233  2.3200000000000D+00 -4.0145392418216D-03  1.3468910734331D-03
   234  2.3300000000000D+00 -3.2770010385626D-03  1.1330984382784D-03
   235  2.3400000000000D+00 -2.6424292513024D-03  9.4225780504082D-04
   236  2.3500000000000D+00 -2.1020903161436D-03  7.7351077784766D-04
   237  2.3600000000000D+00 -1.6472925816350D-03  6.2585734005593D-04
   238  2.3700000000000D+00 -1.2694602501522D-03  4.9817365818171D-04
   239  2.3800000000000D+00 -9.6020188024694D-04  3.8922877341499D-04
   240  2.3900000000000D+00 -7.1137585620088D-04  2.9770084761352D-04
   241  2.4000000000000D+00 -5.1515080322493D-04  2.2219238391987D-04
   242  2.4100000000000D+00 -3.6409059222561D-04  1.6124793054041D-04
   243  2.4200000000000D+00 -2.5110984287684D-04  1.1335535530151D-04
   244  2.4300000000000D+00 -1.6955419241977D-04  7.6962088993161D-05
   245  2.4400000000000D+00 -1.1301605762434D-04  5.0398735170116D-05
   246  2.4500000000000D+00 -7.6440771840286D-05  3.2220794968827D-05
   247  2.4600000000000D+00 -5.5357439760897D-05  2.0977572189579D-05
   248  2.4700000000000D+00 -4.6471916995319D-05  1.5464126276548D-05
   249  2.4800000000000D+00 -4.3200623553287D-05  1.3184126394857D-05
   250  2.4900000000000D+00 -3.9490784196881D-05  1.1729042520191D-05
   251  2.5000000000000D+00 -2.9177662433035D-05  8.6206727569765D-06
   252  2.5100000000000D+00 -1.5229268124657D-05  4.5101445430727D-06
   253  2.5200000000000D+00 -2.1925649329428D-06  6.5324506124501D-07
   254  2.5300000000000D+00  3.4813097282651D-06 -1.0070319405307D-06
   255  2.5400000000000D+00  3.5223723246657D-06 -1.0180276475700D-06
   256  2.5500000000000D+00  7.5570734061946D-07 -2.1836328781306D-07
   257  2.5600000000000D+00 -6.9271423302695D-07  1.9782831107359D-07
   258  2.5700000000000D+00 -8.1918124947204D-07  2.3350668831920D-07
   259  2.5800000000000D+00 -2.3305874500378D-07  6.6328338202381D-08
   260  2.5900000000000D+00  7.7526513389156D-08 -2.3014997438025D-08
   261  2.6000000000000D+00  1.0528082016199D-07 -3.1254311594520D-08
   262  2.6100000000000D+00  3.9728644746492D-08 -1.1794089751812D-08
   263  2.6200000000000D+00  0.0000000000000D+00  0.0000000000000D+00
   264  2.6300000000000D+00  0.0000000000000D+00  0.0000000000000D+00
   265  2.6400000000000D+00  0.0000000000000D+00  0.0000000000000D+00
   266  2.6500000000000D+00  0.0000000000000D+00  0.0000000000000D+00
   267  2.6600000000000D+00  0.0000000000000D+00  0.0000000000000D+00
   268  2.6700000000000D+00  0.0000000000000D+00  0.0000000000000D+00
   269  2.6800000000000D+00  0.0000000000000D+00  0.0000000000000D+00
   270  2.6900000000000D+00  0.0000000000000D+00  0.0000000000000D+00
   271  2.7000000000000D+00  0.0000000000000D+00  0.0000000000000D+00
   272  2.7100000000000D+00  0.0000000000000D+00  0.0000000000000D+00
   273  2.7200000000000D+00  0.0000000000000D+00  0.0000000000000D+00
   274  2.7300000000000D+00  0.0000000000000D+00  0.0000000000000D+00
   275  2.7400000000000D+00  0.0000000000000D+00  0.0000000000000D+00
   276  2.7500000000000D+00  0.0000000000000D+00  0.0000000000000D+00
   277  2.7600000000000D+00  0.0000000000000D+00  0.0000000000000D+00
   278  2.7700000000000D+00  0.0000000000000D+00  0.0000000000000D+00
   279  2.7800000000000D+00  0.0000000000000D+00  0.0000000000000D+00
   280  2.7900000000000D+00  0.0000000000000D+00  0.0000000000000D+00
   281  2.8000000000000D+00  0.0000000000000D+00  0.0000000000000D+00
   282  2.8100000000000D+00  0.0000000000000D+00  0.0000000000000D+00
   283  2.8200000000000D+00  0.0000000000000D+00  0.0000000000000D+00
   284  2.8300000000000D+00  0.0000000000000D+00  0.0000000000000D+00
   285  2.8400000000000D+00  0.0000000000000D+00  0.0000000000000D+00
   286  2.8500000000000D+00  0.0000000000000D+00  0.0000000000000D+00
   287  2.8600000000000D+00  0.0000000000000D+00  0.0000000000000D+00
   288  2.8700000000000D+00  0.0000000000000D+00  0.0000000000000D+00
   289  2.8800000000000D+00  0.0000000000000D+00  0.0000000000000D+00
   290  2.8900000000000D+00  0.0000000000000D+00  0.0000000000000D+00
   291  2.9000000000000D+00  0.0000000000000D+00  0.0000000000000D+00
   292  2.9100000000000D+00  0.0000000000000D+00  0.0000000000000D+00
   293  2.9200000000000D+00  0.0000000000000D+00  0.0000000000000D+00
   294  2.9300000000000D+00  0.0000000000000D+00  0.0000000000000D+00
   295  2.9400000000000D+00  0.0000000000000D+00  0.0000000000000D+00
   296  2.9500000000000D+00  0.0000000000000D+00  0.0000000000000D+00
   297  2.9600000000000D+00  0.0000000000000D+00  0.0000000000000D+00
   298  2.9700000000000D+00  0.0000000000000D+00  0.0000000000000D+00
   299  2.9800000000000D+00  0.0000000000000D+00  0.0000000000000D+00
   300  2.9900000000000D+00  0.0000000000000D+00  0.0000000000000D+00
   301  3.0000000000000D+00  0.0000000000000D+00  0.0000000000000D+00
   302  3.0100000000000D+00  0.0000000000000D+00  0.0000000000000D+00
   303  3.0200000000000D+00  0.0000000000000D+00  0.0000000000000D+00
   304  3.0300000000000D+00  0.0000000000000D+00  0.0000000000000D+00
   305  3.0400000000000D+00  0.0000000000000D+00  0.0000000000000D+00
   306  3.0500000000000D+00  0.0000000000000D+00  0.0000000000000D+00
   307  3.0600000000000D+00  0.0000000000000D+00  0.0000000000000D+00
   308  3.0700000000000D+00  0.0000000000000D+00  0.0000000000000D+00
   309  3.0800000000000D+00  0.0000000000000D+00  0.0000000000000D+00
   310  3.0900000000000D+00  0.0000000000000D+00  0.0000000000000D+00
   311  3.1000000000000D+00  0.0000000000000D+00  0.0000000000000D+00
   312  3.1100000000000D+00  0.0000000000000D+00  0.0000000000000D+00
   313  3.1200000000000D+00  0.0000000000000D+00  0.0000000000000D+00
   314  3.1300000000000D+00  0.0000000000000D+00  0.0000000000000D+00
   315  3.1400000000000D+00  0.0000000000000D+00  0.0000000000000D+00
   316  3.1500000000000D+00  0.0000000000000D+00  0.0000000000000D+00
   317  3.1600000000000D+00  0.0000000000000D+00  0.0000000000000D+00
   318  3.1700000000000D+00  0.0000000000000D+00  0.0000000000000D+00
   319  3.1800000000000D+00  0.0000000000000D+00  0.0000000000000D+00
   320  3.1900000000000D+00  0.0000000000000D+00  0.0000000000000D+00
   321  3.2000000000000D+00  0.0000000000000D+00  0.0000000000000D+00
   322  3.2100000000000D+00  0.0000000000000D+00  0.0000000000000D+00
   323  3.2200000000000D+00  0.0000000000000D+00  0.0000000000000D+00
   324  3.2300000000000D+00  0.0000000000000D+00  0.0000000000000D+00
   325  3.2400000000000D+00  0.0000000000000D+00  0.0000000000000D+00
   326  3.2500000000000D+00  0.0000000000000D+00  0.0000000000000D+00
   327  3.2600000000000D+00  0.0000000000000D+00  0.0000000000000D+00
   328  3.2700000000000D+00  0.0000000000000D+00  0.0000000000000D+00
   329  3.2800000000000D+00  0.0000000000000D+00  0.0000000000000D+00
   330  3.2900000000000D+00  0.0000000000000D+00  0.0000000000000D+00
   331  3.3000000000000D+00  0.0000000000000D+00  0.0000000000000D+00
   332  3.3100000000000D+00  0.0000000000000D+00  0.0000000000000D+00
   333  3.3200000000000D+00  0.0000000000000D+00  0.0000000000000D+00
   334  3.3300000000000D+00  0.0000000000000D+00  0.0000000000000D+00
   335  3.3400000000000D+00  0.0000000000000D+00  0.0000000000000D+00
   336  3.3500000000000D+00  0.0000000000000D+00  0.0000000000000D+00
   337  3.3600000000000D+00  0.0000000000000D+00  0.0000000000000D+00
   338  3.3700000000000D+00  0.0000000000000D+00  0.0000000000000D+00
   339  3.3800000000000D+00  0.0000000000000D+00  0.0000000000000D+00
   340  3.3900000000000D+00  0.0000000000000D+00  0.0000000000000D+00
   341  3.4000000000000D+00  0.0000000000000D+00  0.0000000000000D+00
   342  3.4100000000000D+00  0.0000000000000D+00  0.0000000000000D+00
   343  3.4200000000000D+00  0.0000000000000D+00  0.0000000000000D+00
   344  3.4300000000000D+00  0.0000000000000D+00  0.0000000000000D+00
   345  3.4400000000000D+00  0.0000000000000D+00  0.0000000000000D+00
   346  3.4500000000000D+00  0.0000000000000D+00  0.0000000000000D+00
   347  3.4600000000000D+00  0.0000000000000D+00  0.0000000000000D+00
   348  3.4700000000000D+00  0.0000000000000D+00  0.0000000000000D+00
   349  3.4800000000000D+00  0.0000000000000D+00  0.0000000000000D+00
   350  3.4900000000000D+00  0.0000000000000D+00  0.0000000000000D+00
   351  3.5000000000000D+00  0.0000000000000D+00  0.0000000000000D+00
   352  3.5100000000000D+00  0.0000000000000D+00  0.0000000000000D+00
   353  3.5200000000000D+00  0.0000000000000D+00  0.0000000000000D+00
   354  3.5300000000000D+00  0.0000000000000D+00  0.0000000000000D+00
   355  3.5400000000000D+00  0.0000000000000D+00  0.0000000000000D+00
   356  3.5500000000000D+00  0.0000000000000D+00  0.0000000000000D+00
   357  3.5600000000000D+00  0.0000000000000D+00  0.0000000000000D+00
   358  3.5700000000000D+00  0.0000000000000D+00  0.0000000000000D+00
   359  3.5800000000000D+00  0.0000000000000D+00  0.0000000000000D+00
   360  3.5900000000000D+00  0.0000000000000D+00  0.0000000000000D+00
   361  3.6000000000000D+00  0.0000000000000D+00  0.0000000000000D+00
   362  3.6100000000000D+00  0.0000000000000D+00  0.0000000000000D+00
   363  3.6200000000000D+00  0.0000000000000D+00  0.0000000000000D+00
   364  3.6300000000000D+00  0.0000000000000D+00  0.0000000000000D+00
   365  3.6400000000000D+00  0.0000000000000D+00  0.0000000000000D+00
   366  3.6500000000000D+00  0.0000000000000D+00  0.0000000000000D+00
   367  3.6600000000000D+00  0.0000000000000D+00  0.0000000000000D+00
   368  3.6700000000000D+00  0.0000000000000D+00  0.0000000000000D+00
   369  3.6800000000000D+00  0.0000000000000D+00  0.0000000000000D+00
   370  3.6900000000000D+00  0.0000000000000D+00  0.0000000000000D+00
   371  3.7000000000000D+00  0.0000000000000D+00  0.0000000000000D+00
   372  3.7100000000000D+00  0.0000000000000D+00  0.0000000000000D+00
   373  3.7200000000000D+00  0.0000000000000D+00  0.0000000000000D+00
   374  3.7300000000000D+00  0.0000000000000D+00  0.0000000000000D+00
   375  3.7400000000000D+00  0.0000000000000D+00  0.0000000000000D+00
   376  3.7500000000000D+00  0.0000000000000D+00  0.0000000000000D+00
   377  3.7600000000000D+00  0.0000000000000D+00  0.0000000000000D+00
   378  3.7700000000000D+00  0.0000000000000D+00  0.0000000000000D+00
   379  3.7800000000000D+00  0.0000000000000D+00  0.0000000000000D+00
   380  3.7900000000000D+00  0.0000000000000D+00  0.0000000000000D+00
   381  3.8000000000000D+00  0.0000000000000D+00  0.0000000000000D+00
   382  3.8100000000000D+00  0.0000000000000D+00  0.0000000000000D+00
   383  3.8200000000000D+00  0.0000000000000D+00  0.0000000000000D+00
   384  3.8300000000000D+00  0.0000000000000D+00  0.0000000000000D+00
   385  3.8400000000000D+00  0.0000000000000D+00  0.0000000000000D+00
   386  3.8500000000000D+00  0.0000000000000D+00  0.0000000000000D+00
   387  3.8600000000000D+00  0.0000000000000D+00  0.0000000000000D+00
   388  3.8700000000000D+00  0.0000000000000D+00  0.0000000000000D+00
   389  3.8800000000000D+00  0.0000000000000D+00  0.0000000000000D+00
   390  3.8900000000000D+00  0.0000000000000D+00  0.0000000000000D+00
   391  3.9000000000000D+00  0.0000000000000D+00  0.0000000000000D+00
   392  3.9100000000000D+00  0.0000000000000D+00  0.0000000000000D+00
   393  3.9200000000000D+00  0.0000000000000D+00  0.0000000000000D+00
   394  3.9300000000000D+00  0.0000000000000D+00  0.0000000000000D+00
   395  3.9400000000000D+00  0.0000000000000D+00  0.0000000000000D+00
   396  3.9500000000000D+00  0.0000000000000D+00  0.0000000000000D+00
   397  3.9600000000000D+00  0.0000000000000D+00  0.0000000000000D+00
   398  3.9700000000000D+00  0.0000000000000D+00  0.0000000000000D+00
   399  3.9800000000000D+00  0.0000000000000D+00  0.0000000000000D+00
   400  3.9900000000000D+00  0.0000000000000D+00  0.0000000000000D+00
   401  4.0000000000000D+00  0.0000000000000D+00  0.0000000000000D+00
   402  4.0100000000000D+00  0.0000000000000D+00  0.0000000000000D+00
   403  4.0200000000000D+00  0.0000000000000D+00  0.0000000000000D+00
   404  4.0300000000000D+00  0.0000000000000D+00  0.0000000000000D+00
   405  4.0400000000000D+00  0.0000000000000D+00  0.0000000000000D+00
   406  4.0500000000000D+00  0.0000000000000D+00  0.0000000000000D+00
   407  4.0600000000000D+00  0.0000000000000D+00  0.0000000000000D+00
   408  4.0700000000000D+00  0.0000000000000D+00  0.0000000000000D+00
   409  4.0800000000000D+00  0.0000000000000D+00  0.0000000000000D+00
   410  4.0900000000000D+00  0.0000000000000D+00  0.0000000000000D+00
   411  4.1000000000000D+00  0.0000000000000D+00  0.0000000000000D+00
   412  4.1100000000000D+00  0.0000000000000D+00  0.0000000000000D+00
   413  4.1200000000000D+00  0.0000000000000D+00  0.0000000000000D+00
   414  4.1300000000000D+00  0.0000000000000D+00  0.0000000000000D+00
   415  4.1400000000000D+00  0.0000000000000D+00  0.0000000000000D+00
   416  4.1500000000000D+00  0.0000000000000D+00  0.0000000000000D+00
   417  4.1600000000000D+00  0.0000000000000D+00  0.0000000000000D+00
   418  4.1700000000000D+00  0.0000000000000D+00  0.0000000000000D+00
   419  4.1800000000000D+00  0.0000000000000D+00  0.0000000000000D+00
   420  4.1900000000000D+00  0.0000000000000D+00  0.0000000000000D+00
   421  4.2000000000000D+00  0.0000000000000D+00  0.0000000000000D+00
   422  4.2100000000000D+00  0.0000000000000D+00  0.0000000000000D+00