Al    ONCVPSP-3.3.1  r_core=   1.31212   2.41091
     13.0000     11.0000      210904    zatom,zion,pspd
     8       2   1     4   600     0    pspcod,pspxc,lmax,lloc,mmax,r2well
  5.99000000  0.00000000  0.00000000    rchrg fchrg qchrg
     2     2     0     0     0    nproj
     1     1           extension_switch
   0                         2.8260105964017D+00 -4.2370623444225D-01
     1  0.0000000000000D+00  1.0872924782745D-09  1.7794458129217D-09
     2  1.0000000000000D-02  1.2192495091659D-01  2.2842350826688D-02
     3  2.0000000000000D-02  2.4328754274401D-01  4.5823180850072D-02
     4  3.0000000000000D-02  3.6352768468712D-01  6.9078844461258D-02
     5  4.0000000000000D-02  4.8208982487883D-01  9.2741476991728D-02
     6  5.0000000000000D-02  5.9842522540665D-01  1.1693696110001D-01
     7  6.0000000000000D-02  7.1199424321636D-01  1.4178298297033D-01
     8  7.0000000000000D-02  8.2226861754008D-01  1.6738720613566D-01
     9  8.0000000000000D-02  9.2873376340900D-01  1.9384558895775D-01
    10  9.0000000000000D-02  1.0308910694968D+00  2.2124086962479D-01
    11  1.0000000000000D-01  1.1282601970288D+00  2.4964123999455D-01
    12  1.1000000000000D-01  1.2203813748167D+00  2.7909922675834D-01
    13  1.2000000000000D-01  1.3068176836771D+00  3.0965079527128D-01
    14  1.3000000000000D-01  1.3871573216083D+00  3.4131468803612D-01
    15  1.4000000000000D-01  1.4610158391727D+00  3.7409200629266D-01
    16  1.5000000000000D-01  1.5280383326112D+00  4.0796603950785D-01
    17  1.6000000000000D-01  1.5879015803517D+00  4.4290234383887D-01
    18  1.7000000000000D-01  1.6403161068023D+00  4.7884906691058D-01
    19  1.8000000000000D-01  1.6850281557039D+00  5.1573751256851D-01
    20  1.9000000000000D-01  1.7218215538862D+00  5.5348293569485D-01
    21  2.0000000000000D-01  1.7505194450819D+00  5.9198555376413D-01
    22  2.1000000000000D-01  1.7709858725362D+00  6.3113175862112D-01
    23  2.2000000000000D-01  1.7831271885448D+00  6.7079550903388D-01
    24  2.3000000000000D-01  1.7868932687937D+00  7.1083988195875D-01
    25  2.4000000000000D-01  1.7822785094814D+00  7.5111875818838D-01
    26  2.5000000000000D-01  1.7693225857002D+00  7.9147861617844D-01
    27  2.6000000000000D-01  1.7481109504571D+00  8.3176040638892D-01
    28  2.7000000000000D-01  1.7187750550195D+00  8.7180147745756D-01
    29  2.8000000000000D-01  1.6814922729952D+00  9.1143752495988D-01
    30  2.9000000000000D-01  1.6364855126705D+00  9.5050453341251D-01
    31  3.0000000000000D-01  1.5840225046394D+00  9.8884068254394D-01
    32  3.1000000000000D-01  1.5244147546247D+00  1.0262881896834D+00
    33  3.2000000000000D-01  1.4580161545919D+00  1.0626950613914D+00
    34  3.3000000000000D-01  1.3852212487574D+00  1.0979167291511D+00
    35  3.4000000000000D-01  1.3064631548411D+00  1.1318175460342D+00
    36  3.5000000000000D-01  1.2222111448706D+00  1.1642721237061D+00
    37  3.6000000000000D-01  1.1329678939470D+00  1.1951664919138D+00
    38  3.7000000000000D-01  1.0392664095810D+00  1.2243990656485D+00
    39  3.8000000000000D-01  9.4166665843010D-01  1.2518814084479D+00
    40  3.9000000000000D-01  8.4075191145630D-01  1.2775387837497D+00
    41  4.0000000000000D-01  7.3712483261309D-01  1.3013104897626D+00
    42  4.1000000000000D-01  6.3140334008432D-01  1.3231499769305D+00
    43  4.2000000000000D-01  5.2421627278234D-01  1.3430247506676D+00
    44  4.3000000000000D-01  4.1619889819513D-01  1.3609160655765D+00
    45  4.4000000000000D-01  3.0798830069503D-01  1.3768184207667D+00
    46  4.5000000000000D-01  2.0021869202723D-01  1.3907388691148D+00
    47  4.6000000000000D-01  9.3516687831002D-02  1.4026961562888D+00
    48  4.7000000000000D-01 -1.1503404332259D-02  1.4127197080574D+00
    49  4.8000000000000D-01 -1.1424423890509D-01  1.4208484867614D+00
    50  4.9000000000000D-01 -2.1412998119364D-01  1.4271297398136D+00
    51  5.0000000000000D-01 -3.1061070426727D-01  1.4316176646755D+00
    52  5.1000000000000D-01 -4.0316658775103D-01  1.4343720159024D+00
    53  5.2000000000000D-01 -4.9131187373523D-01  1.4354566805493D+00
    54  5.3000000000000D-01 -5.7459853701358D-01  1.4349382484626D+00
    55  5.4000000000000D-01 -6.5261962944997D-01  1.4328846037548D+00
    56  5.5000000000000D-01 -7.2501226144066D-01  1.4293635630710D+00
    57  5.6000000000000D-01 -7.9146018713256D-01  1.4244415851283D+00
    58  5.7000000000000D-01 -8.5169596426497D-01  1.4181825744524D+00
    59  5.8000000000000D-01 -9.0550266412121D-01  1.4106468002967D+00
    60  5.9000000000000D-01 -9.5271511210362D-01  1.4018899494227D+00
    61  6.0000000000000D-01 -9.9322064474427D-01  1.3919623288184D+00
    62  6.1000000000000D-01 -1.0269593745401D+00  1.3809082315438D+00
    63  6.2000000000000D-01 -1.0539239596737D+00  1.3687654758270D+00
    64  6.3000000000000D-01 -1.0741588814877D+00  1.3555651242819D+00
    65  6.4000000000000D-01 -1.0877592383129D+00  1.3413313868052D+00
    66  6.5000000000000D-01 -1.0948690699130D+00  1.3260817073583D+00
    67  6.6000000000000D-01 -1.0956792322820D+00  1.3098270315106D+00
    68  6.7000000000000D-01 -1.0904248477131D+00  1.2925722484108D+00
    69  6.8000000000000D-01 -1.0793823599000D+00  1.2743167977864D+00
    70  6.9000000000000D-01 -1.0628662282554D+00  1.2550554297178D+00
    71  7.0000000000000D-01 -1.0412252995394D+00  1.2347791023591D+00
    72  7.1000000000000D-01 -1.0148388982513D+00  1.2134760005154D+00
    73  7.2000000000000D-01 -9.8411267999161D-01  1.1911326560809D+00
    74  7.3000000000000D-01 -9.4947429409781D-01  1.1677351498362D+00
    75  7.4000000000000D-01 -9.1136890326764D-01  1.1432703730200D+00
    76  7.5000000000000D-01 -8.7025460859007D-01  1.1177273264508D+00
    77  7.6000000000000D-01 -8.2659782839169D-01  1.0910984347902D+00
    78  7.7000000000000D-01 -7.8086867858846D-01  1.0633808538105D+00
    79  7.8000000000000D-01 -7.3353640080227D-01  1.0345777492565D+00
    80  7.9000000000000D-01 -6.8506488240816D-01  1.0046995270544D+00
    81  8.0000000000000D-01 -6.3590830994403D-01  9.7376499619256D-01
    82  8.1000000000000D-01 -5.8650699399207D-01  9.4180244756046D-01
    83  8.2000000000000D-01 -5.3728339978840D-01  9.0885063432832D-01
    84  8.3000000000000D-01 -4.8863841349991D-01  8.7495964204919D-01
    85  8.4000000000000D-01 -4.4094786940067D-01  8.4019163950555D-01
    86  8.5000000000000D-01 -3.9455935816453D-01  8.0462150435306D-01
    87  8.6000000000000D-01 -3.4978933125210D-01  7.6833732077106D-01
    88  8.7000000000000D-01 -3.0692051099911D-01  7.3144074955216D-01
    89  8.8000000000000D-01 -2.6619961059893D-01  6.9404727428420D-01
    90  8.9000000000000D-01 -2.2783536280891D-01  6.5628633043542D-01
    91  9.0000000000000D-01 -1.9199685098614D-01  6.1830132718130D-01
    92  9.1000000000000D-01 -1.5881212884862D-01  5.8024957846392D-01
    93  9.2000000000000D-01 -1.2836711612142D-01  5.4230215112193D-01
    94  9.3000000000000D-01 -1.0070482080386D-01  5.0464353745875D-01
    95  9.4000000000000D-01 -7.5824450395889D-02  4.6747185122583D-01
    96  9.5000000000000D-01 -5.3682422570380D-02  4.3099609398797D-01
    97  9.6000000000000D-01 -3.4201451446175D-02  3.9542056260550D-01
    98  9.7000000000000D-01 -1.7281037366091D-02  3.6093017127911D-01
    99  9.8000000000000D-01 -2.8012672999682D-03  3.2768896421361D-01
   100  9.9000000000000D-01  9.3745308224653D-03  2.9584074936637D-01
   101  1.0000000000000D+00  1.9394409217343D-02  2.6550591623177D-01
   102  1.0100000000000D+00  2.7424374762842D-02  2.3679460479642D-01
   103  1.0200000000000D+00  3.3629262250758D-02  2.0978468833150D-01
   104  1.0300000000000D+00  3.8096689973006D-02  1.8442204513201D-01
   105  1.0400000000000D+00  4.1072898374245D-02  1.6085116805552D-01
   106  1.0500000000000D+00  4.2765167828273D-02  1.3914129286306D-01
   107  1.0600000000000D+00  4.3321413853074D-02  1.1926288192707D-01
   108  1.0700000000000D+00  4.2914653663872D-02  1.0121077715326D-01
   109  1.0800000000000D+00  4.1704806041811D-02  8.4953746365639D-02
   110  1.0900000000000D+00  3.9844126720909D-02  7.0445498480721D-02
   111  1.1000000000000D+00  3.7475260605731D-02  5.7625044703012D-02
   112  1.1100000000000D+00  3.4730073416600D-02  4.6417947148605D-02
   113  1.1200000000000D+00  3.1728806823183D-02  3.6737800414606D-02
   114  1.1300000000000D+00  2.8579467359845D-02  2.8487816845784D-02
   115  1.1400000000000D+00  2.5377455776152D-02  2.1562523397114D-02
   116  1.1500000000000D+00  2.2205423624192D-02  1.5849553437429D-02
   117  1.1600000000000D+00  1.9133341239023D-02  1.1231514941944D-02
   118  1.1700000000000D+00  1.6218757878377D-02  7.5879141386537D-03
   119  1.1800000000000D+00  1.3507232504914D-02  4.7971120741613D-03
   120  1.1900000000000D+00  1.1032910788656D-02  2.7382896935795D-03
   121  1.2000000000000D+00  8.8192228926613D-03  1.2933965479018D-03
   122  1.2100000000000D+00  6.8796753930289D-03  3.4905757925046D-04
   123  1.2200000000000D+00  5.2187096517543D-03 -2.0158789961217D-04
   124  1.2300000000000D+00  3.8325993825452D-03 -4.5714010901049D-04
   125  1.2400000000000D+00  2.7103607207805D-03 -5.0630981214269D-04
   126  1.2500000000000D+00  1.8346483000095D-03 -4.2643012861725D-04
   127  1.2600000000000D+00  1.1826135012064D-03 -2.8212995774594D-04
   128  1.2700000000000D+00  7.2691916564151D-04 -1.2390966645994D-04
   129  1.2800000000000D+00  4.3546724484291D-04  1.1532511739329D-05
   130  1.2900000000000D+00  2.7036828000069D-04  1.0102839133888D-04
   131  1.3000000000000D+00  2.1307805221911D-04  1.5757060416405D-04
   132  1.3100000000000D+00  1.9553688601003D-04  1.6894542757815D-04
   133  1.3200000000000D+00  9.2855900271942D-05  8.1067959441288D-05
   134  1.3300000000000D+00 -1.0662467178874D-05 -9.4869531192131D-06
   135  1.3400000000000D+00 -1.1048130007133D-05 -9.8470757262663D-06
   136  1.3500000000000D+00  4.2042148175192D-06  3.7886916458504D-06
   137  1.3600000000000D+00 -8.5508160807082D-09 -7.4183633964682D-09
   138  1.3700000000000D+00 -4.7404438392916D-07 -4.1126291021221D-07
   139  1.3800000000000D+00  0.0000000000000D+00  0.0000000000000D+00
   140  1.3900000000000D+00  0.0000000000000D+00  0.0000000000000D+00
   141  1.4000000000000D+00  0.0000000000000D+00  0.0000000000000D+00
   142  1.4100000000000D+00  0.0000000000000D+00  0.0000000000000D+00
   143  1.4200000000000D+00  0.0000000000000D+00  0.0000000000000D+00
   144  1.4300000000000D+00  0.0000000000000D+00  0.0000000000000D+00
   145  1.4400000000000D+00  0.0000000000000D+00  0.0000000000000D+00
   146  1.4500000000000D+00  0.0000000000000D+00  0.0000000000000D+00
   147  1.4600000000000D+00  0.0000000000000D+00  0.0000000000000D+00
   148  1.4700000000000D+00  0.0000000000000D+00  0.0000000000000D+00
   149  1.4800000000000D+00  0.0000000000000D+00  0.0000000000000D+00
   150  1.4900000000000D+00  0.0000000000000D+00  0.0000000000000D+00
   151  1.5000000000000D+00  0.0000000000000D+00  0.0000000000000D+00
   152  1.5100000000000D+00  0.0000000000000D+00  0.0000000000000D+00
   153  1.5200000000000D+00  0.0000000000000D+00  0.0000000000000D+00
   154  1.5300000000000D+00  0.0000000000000D+00  0.0000000000000D+00
   155  1.5400000000000D+00  0.0000000000000D+00  0.0000000000000D+00
   156  1.5500000000000D+00  0.0000000000000D+00  0.0000000000000D+00
   157  1.5600000000000D+00  0.0000000000000D+00  0.0000000000000D+00
   158  1.5700000000000D+00  0.0000000000000D+00  0.0000000000000D+00
   159  1.5800000000000D+00  0.0000000000000D+00  0.0000000000000D+00
   160  1.5900000000000D+00  0.0000000000000D+00  0.0000000000000D+00
   161  1.6000000000000D+00  0.0000000000000D+00  0.0000000000000D+00
   162  1.6100000000000D+00  0.0000000000000D+00  0.0000000000000D+00
   163  1.6200000000000D+00  0.0000000000000D+00  0.0000000000000D+00
   164  1.6300000000000D+00  0.0000000000000D+00  0.0000000000000D+00
   165  1.6400000000000D+00  0.0000000000000D+00  0.0000000000000D+00
   166  1.6500000000000D+00  0.0000000000000D+00  0.0000000000000D+00
   167  1.6600000000000D+00  0.0000000000000D+00  0.0000000000000D+00
   168  1.6700000000000D+00  0.0000000000000D+00  0.0000000000000D+00
   169  1.6800000000000D+00  0.0000000000000D+00  0.0000000000000D+00
   170  1.6900000000000D+00  0.0000000000000D+00  0.0000000000000D+00
   171  1.7000000000000D+00  0.0000000000000D+00  0.0000000000000D+00
   172  1.7100000000000D+00  0.0000000000000D+00  0.0000000000000D+00
   173  1.7200000000000D+00  0.0000000000000D+00  0.0000000000000D+00
   174  1.7300000000000D+00  0.0000000000000D+00  0.0000000000000D+00
   175  1.7400000000000D+00  0.0000000000000D+00  0.0000000000000D+00
   176  1.7500000000000D+00  0.0000000000000D+00  0.0000000000000D+00
   177  1.7600000000000D+00  0.0000000000000D+00  0.0000000000000D+00
   178  1.7700000000000D+00  0.0000000000000D+00  0.0000000000000D+00
   179  1.7800000000000D+00  0.0000000000000D+00  0.0000000000000D+00
   180  1.7900000000000D+00  0.0000000000000D+00  0.0000000000000D+00
   181  1.8000000000000D+00  0.0000000000000D+00  0.0000000000000D+00
   182  1.8100000000000D+00  0.0000000000000D+00  0.0000000000000D+00
   183  1.8200000000000D+00  0.0000000000000D+00  0.0000000000000D+00
   184  1.8300000000000D+00  0.0000000000000D+00  0.0000000000000D+00
   185  1.8400000000000D+00  0.0000000000000D+00  0.0000000000000D+00
   186  1.8500000000000D+00  0.0000000000000D+00  0.0000000000000D+00
   187  1.8600000000000D+00  0.0000000000000D+00  0.0000000000000D+00
   188  1.8700000000000D+00  0.0000000000000D+00  0.0000000000000D+00
   189  1.8800000000000D+00  0.0000000000000D+00  0.0000000000000D+00
   190  1.8900000000000D+00  0.0000000000000D+00  0.0000000000000D+00
   191  1.9000000000000D+00  0.0000000000000D+00  0.0000000000000D+00
   192  1.9100000000000D+00  0.0000000000000D+00  0.0000000000000D+00
   193  1.9200000000000D+00  0.0000000000000D+00  0.0000000000000D+00
   194  1.9300000000000D+00  0.0000000000000D+00  0.0000000000000D+00
   195  1.9400000000000D+00  0.0000000000000D+00  0.0000000000000D+00
   196  1.9500000000000D+00  0.0000000000000D+00  0.0000000000000D+00
   197  1.9600000000000D+00  0.0000000000000D+00  0.0000000000000D+00
   198  1.9700000000000D+00  0.0000000000000D+00  0.0000000000000D+00
   199  1.9800000000000D+00  0.0000000000000D+00  0.0000000000000D+00
   200  1.9900000000000D+00  0.0000000000000D+00  0.0000000000000D+00
   201  2.0000000000000D+00  0.0000000000000D+00  0.0000000000000D+00
   202  2.0100000000000D+00  0.0000000000000D+00  0.0000000000000D+00
   203  2.0200000000000D+00  0.0000000000000D+00  0.0000000000000D+00
   204  2.0300000000000D+00  0.0000000000000D+00  0.0000000000000D+00
   205  2.0400000000000D+00  0.0000000000000D+00  0.0000000000000D+00
   206  2.0500000000000D+00  0.0000000000000D+00  0.0000000000000D+00
   207  2.0600000000000D+00  0.0000000000000D+00  0.0000000000000D+00
   208  2.0700000000000D+00  0.0000000000000D+00  0.0000000000000D+00
   209  2.0800000000000D+00  0.0000000000000D+00  0.0000000000000D+00
   210  2.0900000000000D+00  0.0000000000000D+00  0.0000000000000D+00
   211  2.1000000000000D+00  0.0000000000000D+00  0.0000000000000D+00
   212  2.1100000000000D+00  0.0000000000000D+00  0.0000000000000D+00
   213  2.1200000000000D+00  0.0000000000000D+00  0.0000000000000D+00
   214  2.1300000000000D+00  0.0000000000000D+00  0.0000000000000D+00
   215  2.1400000000000D+00  0.0000000000000D+00  0.0000000000000D+00
   216  2.1500000000000D+00  0.0000000000000D+00  0.0000000000000D+00
   217  2.1600000000000D+00  0.0000000000000D+00  0.0000000000000D+00
   218  2.1700000000000D+00  0.0000000000000D+00  0.0000000000000D+00
   219  2.1800000000000D+00  0.0000000000000D+00  0.0000000000000D+00
   220  2.1900000000000D+00  0.0000000000000D+00  0.0000000000000D+00
   221  2.2000000000000D+00  0.0000000000000D+00  0.0000000000000D+00
   222  2.2100000000000D+00  0.0000000000000D+00  0.0000000000000D+00
   223  2.2200000000000D+00  0.0000000000000D+00  0.0000000000000D+00
   224  2.2300000000000D+00  0.0000000000000D+00  0.0000000000000D+00
   225  2.2400000000000D+00  0.0000000000000D+00  0.0000000000000D+00
   226  2.2500000000000D+00  0.0000000000000D+00  0.0000000000000D+00
   227  2.2600000000000D+00  0.0000000000000D+00  0.0000000000000D+00
   228  2.2700000000000D+00  0.0000000000000D+00  0.0000000000000D+00
   229  2.2800000000000D+00  0.0000000000000D+00  0.0000000000000D+00
   230  2.2900000000000D+00  0.0000000000000D+00  0.0000000000000D+00
   231  2.3000000000000D+00  0.0000000000000D+00  0.0000000000000D+00
   232  2.3100000000000D+00  0.0000000000000D+00  0.0000000000000D+00
   233  2.3200000000000D+00  0.0000000000000D+00  0.0000000000000D+00
   234  2.3300000000000D+00  0.0000000000000D+00  0.0000000000000D+00
   235  2.3400000000000D+00  0.0000000000000D+00  0.0000000000000D+00
   236  2.3500000000000D+00  0.0000000000000D+00  0.0000000000000D+00
   237  2.3600000000000D+00  0.0000000000000D+00  0.0000000000000D+00
   238  2.3700000000000D+00  0.0000000000000D+00  0.0000000000000D+00
   239  2.3800000000000D+00  0.0000000000000D+00  0.0000000000000D+00
   240  2.3900000000000D+00  0.0000000000000D+00  0.0000000000000D+00
   241  2.4000000000000D+00  0.0000000000000D+00  0.0000000000000D+00
   242  2.4100000000000D+00  0.0000000000000D+00  0.0000000000000D+00
   243  2.4200000000000D+00  0.0000000000000D+00  0.0000000000000D+00
   244  2.4300000000000D+00  0.0000000000000D+00  0.0000000000000D+00
   245  2.4400000000000D+00  0.0000000000000D+00  0.0000000000000D+00
   246  2.4500000000000D+00  0.0000000000000D+00  0.0000000000000D+00
   247  2.4600000000000D+00  0.0000000000000D+00  0.0000000000000D+00
   248  2.4700000000000D+00  0.0000000000000D+00  0.0000000000000D+00
   249  2.4800000000000D+00  0.0000000000000D+00  0.0000000000000D+00
   250  2.4900000000000D+00  0.0000000000000D+00  0.0000000000000D+00
   251  2.5000000000000D+00  0.0000000000000D+00  0.0000000000000D+00
   252  2.5100000000000D+00  0.0000000000000D+00  0.0000000000000D+00
   253  2.5200000000000D+00  0.0000000000000D+00  0.0000000000000D+00
   254  2.5300000000000D+00  0.0000000000000D+00  0.0000000000000D+00
   255  2.5400000000000D+00  0.0000000000000D+00  0.0000000000000D+00
   256  2.5500000000000D+00  0.0000000000000D+00  0.0000000000000D+00
   257  2.5600000000000D+00  0.0000000000000D+00  0.0000000000000D+00
   258  2.5700000000000D+00  0.0000000000000D+00  0.0000000000000D+00
   259  2.5800000000000D+00  0.0000000000000D+00  0.0000000000000D+00
   260  2.5900000000000D+00  0.0000000000000D+00  0.0000000000000D+00
   261  2.6000000000000D+00  0.0000000000000D+00  0.0000000000000D+00
   262  2.6100000000000D+00  0.0000000000000D+00  0.0000000000000D+00
   263  2.6200000000000D+00  0.0000000000000D+00  0.0000000000000D+00
   264  2.6300000000000D+00  0.0000000000000D+00  0.0000000000000D+00
   265  2.6400000000000D+00  0.0000000000000D+00  0.0000000000000D+00
   266  2.6500000000000D+00  0.0000000000000D+00  0.0000000000000D+00
   267  2.6600000000000D+00  0.0000000000000D+00  0.0000000000000D+00
   268  2.6700000000000D+00  0.0000000000000D+00  0.0000000000000D+00
   269  2.6800000000000D+00  0.0000000000000D+00  0.0000000000000D+00
   270  2.6900000000000D+00  0.0000000000000D+00  0.0000000000000D+00
   271  2.7000000000000D+00  0.0000000000000D+00  0.0000000000000D+00
   272  2.7100000000000D+00  0.0000000000000D+00  0.0000000000000D+00
   273  2.7200000000000D+00  0.0000000000000D+00  0.0000000000000D+00
   274  2.7300000000000D+00  0.0000000000000D+00  0.0000000000000D+00
   275  2.7400000000000D+00  0.0000000000000D+00  0.0000000000000D+00
   276  2.7500000000000D+00  0.0000000000000D+00  0.0000000000000D+00
   277  2.7600000000000D+00  0.0000000000000D+00  0.0000000000000D+00
   278  2.7700000000000D+00  0.0000000000000D+00  0.0000000000000D+00
   279  2.7800000000000D+00  0.0000000000000D+00  0.0000000000000D+00
   280  2.7900000000000D+00  0.0000000000000D+00  0.0000000000000D+00
   281  2.8000000000000D+00  0.0000000000000D+00  0.0000000000000D+00
   282  2.8100000000000D+00  0.0000000000000D+00  0.0000000000000D+00
   283  2.8200000000000D+00  0.0000000000000D+00  0.0000000000000D+00
   284  2.8300000000000D+00  0.0000000000000D+00  0.0000000000000D+00
   285  2.8400000000000D+00  0.0000000000000D+00  0.0000000000000D+00
   286  2.8500000000000D+00  0.0000000000000D+00  0.0000000000000D+00
   287  2.8600000000000D+00  0.0000000000000D+00  0.0000000000000D+00
   288  2.8700000000000D+00  0.0000000000000D+00  0.0000000000000D+00
   289  2.8800000000000D+00  0.0000000000000D+00  0.0000000000000D+00
   290  2.8900000000000D+00  0.0000000000000D+00  0.0000000000000D+00
   291  2.9000000000000D+00  0.0000000000000D+00  0.0000000000000D+00
   292  2.9100000000000D+00  0.0000000000000D+00  0.0000000000000D+00
   293  2.9200000000000D+00  0.0000000000000D+00  0.0000000000000D+00
   294  2.9300000000000D+00  0.0000000000000D+00  0.0000000000000D+00
   295  2.9400000000000D+00  0.0000000000000D+00  0.0000000000000D+00
   296  2.9500000000000D+00  0.0000000000000D+00  0.0000000000000D+00
   297  2.9600000000000D+00  0.0000000000000D+00  0.0000000000000D+00
   298  2.9700000000000D+00  0.0000000000000D+00  0.0000000000000D+00
   299  2.9800000000000D+00  0.0000000000000D+00  0.0000000000000D+00
   300  2.9900000000000D+00  0.0000000000000D+00  0.0000000000000D+00
   301  3.0000000000000D+00  0.0000000000000D+00  0.0000000000000D+00
   302  3.0100000000000D+00  0.0000000000000D+00  0.0000000000000D+00
   303  3.0200000000000D+00  0.0000000000000D+00  0.0000000000000D+00
   304  3.0300000000000D+00  0.0000000000000D+00  0.0000000000000D+00
   305  3.0400000000000D+00  0.0000000000000D+00  0.0000000000000D+00
   306  3.0500000000000D+00  0.0000000000000D+00  0.0000000000000D+00
   307  3.0600000000000D+00  0.0000000000000D+00  0.0000000000000D+00
   308  3.0700000000000D+00  0.0000000000000D+00  0.0000000000000D+00
   309  3.0800000000000D+00  0.0000000000000D+00  0.0000000000000D+00
   310  3.0900000000000D+00  0.0000000000000D+00  0.0000000000000D+00
   311  3.1000000000000D+00  0.0000000000000D+00  0.0000000000000D+00
   312  3.1100000000000D+00  0.0000000000000D+00  0.0000000000000D+00
   313  3.1200000000000D+00  0.0000000000000D+00  0.0000000000000D+00
   314  3.1300000000000D+00  0.0000000000000D+00  0.0000000000000D+00
   315  3.1400000000000D+00  0.0000000000000D+00  0.0000000000000D+00
   316  3.1500000000000D+00  0.0000000000000D+00  0.0000000000000D+00
   317  3.1600000000000D+00  0.0000000000000D+00  0.0000000000000D+00
   318  3.1700000000000D+00  0.0000000000000D+00  0.0000000000000D+00
   319  3.1800000000000D+00  0.0000000000000D+00  0.0000000000000D+00
   320  3.1900000000000D+00  0.0000000000000D+00  0.0000000000000D+00
   321  3.2000000000000D+00  0.0000000000000D+00  0.0000000000000D+00
   322  3.2100000000000D+00  0.0000000000000D+00  0.0000000000000D+00
   323  3.2200000000000D+00  0.0000000000000D+00  0.0000000000000D+00
   324  3.2300000000000D+00  0.0000000000000D+00  0.0000000000000D+00
   325  3.2400000000000D+00  0.0000000000000D+00  0.0000000000000D+00
   326  3.2500000000000D+00  0.0000000000000D+00  0.0000000000000D+00
   327  3.2600000000000D+00  0.0000000000000D+00  0.0000000000000D+00
   328  3.2700000000000D+00  0.0000000000000D+00  0.0000000000000D+00
   329  3.2800000000000D+00  0.0000000000000D+00  0.0000000000000D+00
   330  3.2900000000000D+00  0.0000000000000D+00  0.0000000000000D+00
   331  3.3000000000000D+00  0.0000000000000D+00  0.0000000000000D+00
   332  3.3100000000000D+00  0.0000000000000D+00  0.0000000000000D+00
   333  3.3200000000000D+00  0.0000000000000D+00  0.0000000000000D+00
   334  3.3300000000000D+00  0.0000000000000D+00  0.0000000000000D+00
   335  3.3400000000000D+00  0.0000000000000D+00  0.0000000000000D+00
   336  3.3500000000000D+00  0.0000000000000D+00  0.0000000000000D+00
   337  3.3600000000000D+00  0.0000000000000D+00  0.0000000000000D+00
   338  3.3700000000000D+00  0.0000000000000D+00  0.0000000000000D+00
   339  3.3800000000000D+00  0.0000000000000D+00  0.0000000000000D+00
   340  3.3900000000000D+00  0.0000000000000D+00  0.0000000000000D+00
   341  3.4000000000000D+00  0.0000000000000D+00  0.0000000000000D+00
   342  3.4100000000000D+00  0.0000000000000D+00  0.0000000000000D+00
   343  3.4200000000000D+00  0.0000000000000D+00  0.0000000000000D+00
   344  3.4300000000000D+00  0.0000000000000D+00  0.0000000000000D+00
   345  3.4400000000000D+00  0.0000000000000D+00  0.0000000000000D+00
   346  3.4500000000000D+00  0.0000000000000D+00  0.0000000000000D+00
   347  3.4600000000000D+00  0.0000000000000D+00  0.0000000000000D+00
   348  3.4700000000000D+00  0.0000000000000D+00  0.0000000000000D+00
   349  3.4800000000000D+00  0.0000000000000D+00  0.0000000000000D+00
   350  3.4900000000000D+00  0.0000000000000D+00  0.0000000000000D+00
   351  3.5000000000000D+00  0.0000000000000D+00  0.0000000000000D+00
   352  3.5100000000000D+00  0.0000000000000D+00  0.0000000000000D+00
   353  3.5200000000000D+00  0.0000000000000D+00  0.0000000000000D+00
   354  3.5300000000000D+00  0.0000000000000D+00  0.0000000000000D+00
   355  3.5400000000000D+00  0.0000000000000D+00  0.0000000000000D+00
   356  3.5500000000000D+00  0.0000000000000D+00  0.0000000000000D+00
   357  3.5600000000000D+00  0.0000000000000D+00  0.0000000000000D+00
   358  3.5700000000000D+00  0.0000000000000D+00  0.0000000000000D+00
   359  3.5800000000000D+00  0.0000000000000D+00  0.0000000000000D+00
   360  3.5900000000000D+00  0.0000000000000D+00  0.0000000000000D+00
   361  3.6000000000000D+00  0.0000000000000D+00  0.0000000000000D+00
   362  3.6100000000000D+00  0.0000000000000D+00  0.0000000000000D+00
   363  3.6200000000000D+00  0.0000000000000D+00  0.0000000000000D+00
   364  3.6300000000000D+00  0.0000000000000D+00  0.0000000000000D+00
   365  3.6400000000000D+00  0.0000000000000D+00  0.0000000000000D+00
   366  3.6500000000000D+00  0.0000000000000D+00  0.0000000000000D+00
   367  3.6600000000000D+00  0.0000000000000D+00  0.0000000000000D+00
   368  3.6700000000000D+00  0.0000000000000D+00  0.0000000000000D+00
   369  3.6800000000000D+00  0.0000000000000D+00  0.0000000000000D+00
   370  3.6900000000000D+00  0.0000000000000D+00  0.0000000000000D+00
   371  3.7000000000000D+00  0.0000000000000D+00  0.0000000000000D+00
   372  3.7100000000000D+00  0.0000000000000D+00  0.0000000000000D+00
   373  3.7200000000000D+00  0.0000000000000D+00  0.0000000000000D+00
   374  3.7300000000000D+00  0.0000000000000D+00  0.0000000000000D+00
   375  3.7400000000000D+00  0.0000000000000D+00  0.0000000000000D+00
   376  3.7500000000000D+00  0.0000000000000D+00  0.0000000000000D+00
   377  3.7600000000000D+00  0.0000000000000D+00  0.0000000000000D+00
   378  3.7700000000000D+00  0.0000000000000D+00  0.0000000000000D+00
   379  3.7800000000000D+00  0.0000000000000D+00  0.0000000000000D+00
   380  3.7900000000000D+00  0.0000000000000D+00  0.0000000000000D+00
   381  3.8000000000000D+00  0.0000000000000D+00  0.0000000000000D+00
   382  3.8100000000000D+00  0.0000000000000D+00  0.0000000000000D+00
   383  3.8200000000000D+00  0.0000000000000D+00  0.0000000000000D+00
   384  3.8300000000000D+00  0.0000000000000D+00  0.0000000000000D+00
   385  3.8400000000000D+00  0.0000000000000D+00  0.0000000000000D+00
   386  3.8500000000000D+00  0.0000000000000D+00  0.0000000000000D+00
   387  3.8600000000000D+00  0.0000000000000D+00  0.0000000000000D+00
   388  3.8700000000000D+00  0.0000000000000D+00  0.0000000000000D+00
   389  3.8800000000000D+00  0.0000000000000D+00  0.0000000000000D+00
   390  3.8900000000000D+00  0.0000000000000D+00  0.0000000000000D+00
   391  3.9000000000000D+00  0.0000000000000D+00  0.0000000000000D+00
   392  3.9100000000000D+00  0.0000000000000D+00  0.0000000000000D+00
   393  3.9200000000000D+00  0.0000000000000D+00  0.0000000000000D+00
   394  3.9300000000000D+00  0.0000000000000D+00  0.0000000000000D+00
   395  3.9400000000000D+00  0.0000000000000D+00  0.0000000000000D+00
   396  3.9500000000000D+00  0.0000000000000D+00  0.0000000000000D+00
   397  3.9600000000000D+00  0.0000000000000D+00  0.0000000000000D+00
   398  3.9700000000000D+00  0.0000000000000D+00  0.0000000000000D+00
   399  3.9800000000000D+00  0.0000000000000D+00  0.0000000000000D+00
   400  3.9900000000000D+00  0.0000000000000D+00  0.0000000000000D+00
   401  4.0000000000000D+00  0.0000000000000D+00  0.0000000000000D+00
   402  4.0100000000000D+00  0.0000000000000D+00  0.0000000000000D+00
   403  4.0200000000000D+00  0.0000000000000D+00  0.0000000000000D+00
   404  4.0300000000000D+00  0.0000000000000D+00  0.0000000000000D+00
   405  4.0400000000000D+00  0.0000000000000D+00  0.0000000000000D+00
   406  4.0500000000000D+00  0.0000000000000D+00  0.0000000000000D+00
   407  4.0600000000000D+00  0.0000000000000D+00  0.0000000000000D+00
   408  4.0700000000000D+00  0.0000000000000D+00  0.0000000000000D+00
   409  4.0800000000000D+00  0.0000000000000D+00  0.0000000000000D+00
   410  4.0900000000000D+00  0.0000000000000D+00  0.0000000000000D+00
   411  4.1000000000000D+00  0.0000000000000D+00  0.0000000000000D+00
   412  4.1100000000000D+00  0.0000000000000D+00  0.0000000000000D+00
   413  4.1200000000000D+00  0.0000000000000D+00  0.0000000000000D+00
   414  4.1300000000000D+00  0.0000000000000D+00  0.0000000000000D+00
   415  4.1400000000000D+00  0.0000000000000D+00  0.0000000000000D+00
   416  4.1500000000000D+00  0.0000000000000D+00  0.0000000000000D+00
   417  4.1600000000000D+00  0.0000000000000D+00  0.0000000000000D+00
   418  4.1700000000000D+00  0.0000000000000D+00  0.0000000000000D+00
   419  4.1800000000000D+00  0.0000000000000D+00  0.0000000000000D+00
   420  4.1900000000000D+00  0.0000000000000D+00  0.0000000000000D+00
   421  4.2000000000000D+00  0.0000000000000D+00  0.0000000000000D+00
   422  4.2100000000000D+00  0.0000000000000D+00  0.0000000000000D+00
   423  4.2200000000000D+00  0.0000000000000D+00  0.0000000000000D+00