Ar    ONCVPSP-3.3.1  r_core=   2.67516   1.78325
     18.0000      8.0000      210904    zatom,zion,pspd
     8       2   1     4   600     0    pspcod,pspxc,lmax,lloc,mmax,r2well
  5.99000000  0.00000000  0.00000000    rchrg fchrg qchrg
     2     2     0     0     0    nproj
     1     1           extension_switch
   0                        -2.9918404941903D+00  2.7452467088757D+00
     1  0.0000000000000D+00 -2.4196256109832D-11 -6.8849093093348D-12
     2  1.0000000000000D-02 -4.1731762663112D-02  2.5705566553827D-02
     3  2.0000000000000D-02 -8.3409074415987D-02  5.1396050719324D-02
     4  3.0000000000000D-02 -1.2497745287650D-01  7.7056407530038D-02
     5  4.0000000000000D-02 -1.6638235355495D-01  1.0267166660698D-01
     6  5.0000000000000D-02 -2.0756914088473D-01  1.2822696881342D-01
     7  6.0000000000000D-02 -2.4848306173705D-01  1.5370760214774D-01
     8  7.0000000000000D-02 -2.8906922221938D-01  1.7909903662867D-01
     9  8.0000000000000D-02 -3.2927256853286D-01  2.0438695793376D-01
    10  9.0000000000000D-02 -3.6903787263417D-01  2.2955729956079D-01
    11  1.0000000000000D-01 -4.0830972341153D-01  2.5459627329175D-01
    12  1.1000000000000D-01 -4.4703252404402D-01  2.7949039775066D-01
    13  1.2000000000000D-01 -4.8515049616690D-01  3.0422652485962D-01
    14  1.3000000000000D-01 -5.2260769141547D-01  3.2879186401198D-01
    15  1.4000000000000D-01 -5.5934801086401D-01  3.5317400379694D-01
    16  1.5000000000000D-01 -5.9531523281759D-01  3.7736093112718D-01
    17  1.6000000000000D-01 -6.3045304935089D-01  4.0134104763864D-01
    18  1.7000000000000D-01 -6.6470511192196D-01  4.2510318325074D-01
    19  1.8000000000000D-01 -6.9801508631908D-01  4.4863660679480D-01
    20  1.9000000000000D-01 -7.3032671712721D-01  4.7193103363900D-01
    21  2.0000000000000D-01 -7.6158390182620D-01  4.9497663025895D-01
    22  2.1000000000000D-01 -7.9173077455751D-01  5.1776401572465D-01
    23  2.2000000000000D-01 -8.2071179951947D-01  5.4028426009579D-01
    24  2.3000000000000D-01 -8.4847187387365D-01  5.6252887973972D-01
    25  2.4000000000000D-01 -8.7495643996780D-01  5.8448982960779D-01
    26  2.5000000000000D-01 -9.0011160660336D-01  6.0615949252771D-01
    27  2.6000000000000D-01 -9.2388427899981D-01  6.2753066559091D-01
    28  2.7000000000000D-01 -9.4622229703301D-01  6.4859654373484D-01
    29  2.8000000000000D-01 -9.6707458125191D-01  6.6935070064071D-01
    30  2.9000000000000D-01 -9.8639128610747D-01  6.8978706708673D-01
    31  3.0000000000000D-01 -1.0041239597594D+00  7.0989990691620D-01
    32  3.1000000000000D-01 -1.0202257097626D+00  7.2968379079732D-01
    33  3.2000000000000D-01 -1.0346513738728D+00  7.4913356796898D-01
    34  3.3000000000000D-01 -1.0473576951559D+00  7.6824433618223D-01
    35  3.4000000000000D-01 -1.0583035005316D+00  7.8701141006180D-01
    36  3.5000000000000D-01 -1.0674498818346D+00  8.0543028812494D-01
    37  3.6000000000000D-01 -1.0747603784354D+00  8.2349661870680D-01
    38  3.7000000000000D-01 -1.0802011604229D+00  8.4120616505109D-01
    39  3.8000000000000D-01 -1.0837412113237D+00  8.5855476983388D-01
    40  3.9000000000000D-01 -1.0853525093038D+00  8.7553831939456D-01
    41  4.0000000000000D-01 -1.0850102057807D+00  8.9215270795332D-01
    42  4.1000000000000D-01 -1.0826928003622D+00  9.0839380209769D-01
    43  4.2000000000000D-01 -1.0783823110192D+00  9.2425740582202D-01
    44  4.3000000000000D-01 -1.0720644384011D+00  9.3973922640350D-01
    45  4.4000000000000D-01 -1.0637287232093D+00  9.5483484139599D-01
    46  4.5000000000000D-01 -1.0533686955572D+00  9.6953966701885D-01
    47  4.6000000000000D-01 -1.0409820152629D+00  9.8384892821223D-01
    48  4.7000000000000D-01 -1.0265706020503D+00  9.9775763062237D-01
    49  4.8000000000000D-01 -1.0101407546638D+00  1.0112605347713D+00
    50  4.9000000000000D-01 -9.9170325794210D-01  1.0243521326537D+00
    51  5.0000000000000D-01 -9.7127347694109D-01  1.0370266269921D+00
    52  5.1000000000000D-01 -9.4887143724569D-01  1.0492779133651D+00
    53  5.2000000000000D-01 -9.2452189066790D-01  1.0610995654103D+00
    54  5.3000000000000D-01 -8.9825436558857D-01  1.0724848232831D+00
    55  5.4000000000000D-01 -8.7010320126767D-01  1.0834265855378D+00
    56  5.5000000000000D-01 -8.4010756551839D-01  1.0939174045733D+00
    57  5.6000000000000D-01 -8.0831145521592D-01  1.1039494857691D+00
    58  5.7000000000000D-01 -7.7476367919090D-01  1.1135146904122D+00
    59  5.8000000000000D-01 -7.3951782313992D-01  1.1226045424945D+00
    60  5.9000000000000D-01 -7.0263219627129D-01  1.1312102394370D+00
    61  6.0000000000000D-01 -6.6416975949199D-01  1.1393226667722D+00
    62  6.1000000000000D-01 -6.2419803503223D-01  1.1469324167918D+00
    63  6.2000000000000D-01 -5.8278899749523D-01  1.1540298111444D+00
    64  6.3000000000000D-01 -5.4001894641300D-01  1.1606049273382D+00
    65  6.4000000000000D-01 -4.9596836048158D-01  1.1666476290855D+00
    66  6.5000000000000D-01 -4.5072173374287D-01  1.1721476003942D+00
    67  6.6000000000000D-01 -4.0436739407270D-01  1.1770943832931D+00
    68  6.7000000000000D-01 -3.5699730442650D-01  1.1814774190497D+00
    69  6.8000000000000D-01 -3.0870684738407D-01  1.1852860927185D+00
    70  6.9000000000000D-01 -2.5959459362354D-01  1.1885097808329D+00
    71  7.0000000000000D-01 -2.0976205503946D-01  1.1911379020354D+00
    72  7.1000000000000D-01 -1.5931342330354D-01  1.1931599704155D+00
    73  7.2000000000000D-01 -1.0835529474506D-01  1.1945656513097D+00
    74  7.3000000000000D-01 -5.6996382503912D-02  1.1953448192965D+00
    75  7.4000000000000D-01 -5.3472169796405D-03  1.1954876181027D+00
    76  7.5000000000000D-01  4.6480164333282D-02  1.1949845221246D+00
    77  7.6000000000000D-01  9.8372536472835D-02  1.1938263992486D+00
    78  7.7000000000000D-01  1.5021581489237D-01  1.1920045746480D+00
    79  7.8000000000000D-01  2.0189539034191D-01  1.1895108952200D+00
    80  7.9000000000000D-01  2.5329646944671D-01  1.1863377943176D+00
    81  8.0000000000000D-01  3.0430441964397D-01  1.1824783564262D+00
    82  8.1000000000000D-01  3.5480511710744D-01  1.1779263814268D+00
    83  8.2000000000000D-01  4.0468529626478D-01  1.1726764480866D+00
    84  8.3000000000000D-01  4.5383289949499D-01  1.1667239764166D+00
    85  8.4000000000000D-01  5.0213742558171D-01  1.1600652885340D+00
    86  8.5000000000000D-01  5.4949027549480D-01  1.1526976676739D+00
    87  8.6000000000000D-01  5.9578509407502D-01  1.1446194149950D+00
    88  8.7000000000000D-01  6.4091810620678D-01  1.1358299038353D+00
    89  8.8000000000000D-01  6.8478844608104D-01  1.1263296310774D+00
    90  8.9000000000000D-01  7.2729847817345D-01  1.1161202652974D+00
    91  9.0000000000000D-01  7.6835410859414D-01  1.1052046913821D+00
    92  9.1000000000000D-01  8.0786508550155D-01  1.0935870513108D+00
    93  9.2000000000000D-01  8.4574528731687D-01  1.0812727808193D+00
    94  9.3000000000000D-01  8.8191299752433D-01  1.0682686416731D+00
    95  9.4000000000000D-01  9.1629116489839D-01  1.0545827493038D+00
    96  9.5000000000000D-01  9.4880764805941D-01  1.0402245955751D+00
    97  9.6000000000000D-01  9.7939544332542D-01  1.0252050664720D+00
    98  9.7000000000000D-01  1.0079928948987D+00  1.0095364545251D+00
    99  9.8000000000000D-01  1.0345438865011D+00  9.9323246580894D-01
   100  9.9000000000000D-01  1.0589980136528D+00  9.7630822137446D-01
   101  1.0000000000000D+00  1.0813107358681D+00  9.5878025300317D-01
   102  1.0100000000000D+00  1.1014435081358D+00  9.4066649319567D-01
   103  1.0200000000000D+00  1.1193638911328D+00  9.2198625933339D-01
   104  1.0300000000000D+00  1.1350456397169D+00  9.0276023197928D-01
   105  1.0400000000000D+00  1.1484687693350D+00  8.8301042730994D-01
   106  1.0500000000000D+00  1.1596196000814D+00  8.6276016369952D-01
   107  1.0600000000000D+00  1.1684907782271D+00  8.4203402250009D-01
   108  1.0700000000000D+00  1.1750812751506D+00  8.2085780309314D-01
   109  1.0800000000000D+00  1.1793963636845D+00  7.9925847231069D-01
   110  1.0900000000000D+00  1.1814475719937D+00  7.7726410835101D-01
   111  1.1000000000000D+00  1.1812526151959D+00  7.5490383933988D-01
   112  1.1100000000000D+00  1.1788353050165D+00  7.3220777670935D-01
   113  1.1200000000000D+00  1.1742254378768D+00  7.0920694359397D-01
   114  1.1300000000000D+00  1.1674586618897D+00  6.8593319846286D-01
   115  1.1400000000000D+00  1.1585763233321D+00  6.6241915423033D-01
   116  1.1500000000000D+00  1.1476252932262D+00  6.3869809310237D-01
   117  1.1600000000000D+00  1.1346577747638D+00  6.1480387744135D-01
   118  1.1700000000000D+00  1.1197310923653D+00  5.9077085694370D-01
   119  1.1800000000000D+00  1.1029074632419D+00  5.6663377244267D-01
   120  1.1900000000000D+00  1.0842537523797D+00  5.4242765665915D-01
   121  1.2000000000000D+00  1.0638412119459D+00  5.1818773224038D-01
   122  1.2100000000000D+00  1.0417452061593D+00  4.9394930743299D-01
   123  1.2200000000000D+00  1.0180449227048D+00  4.6974766974496D-01
   124  1.2300000000000D+00  9.9282307183560D-01  4.4561797796017D-01
   125  1.2400000000000D+00  9.6616557433122D-01  4.2159515287247D-01
   126  1.2500000000000D+00  9.3816123950863D-01  3.9771376710778D-01
   127  1.2600000000000D+00  9.0890143451168D-01  3.7400793440657D-01
   128  1.2700000000000D+00  8.7847974612635D-01  3.5051119873509D-01
   129  1.2800000000000D+00  8.4699163636971D-01  3.2725642359132D-01
   130  1.2900000000000D+00  8.1453409311902D-01  3.0427568187075D-01
   131  1.3000000000000D+00  7.8120527703800D-01  2.8160014664325D-01
   132  1.3100000000000D+00  7.4710416604956D-01  2.5925998318883D-01
   133  1.3200000000000D+00  7.1233019860842D-01  2.3728424263447D-01
   134  1.3300000000000D+00  6.7698291697592D-01  2.1570075750693D-01
   135  1.3400000000000D+00  6.4116161170806D-01  1.9453603952196D-01
   136  1.3500000000000D+00  6.0496496853295D-01  1.7381517990841D-01
   137  1.3600000000000D+00  5.6849071893839D-01  1.5356175409074D-01
   138  1.3700000000000D+00  5.3183529413047D-01  1.3379772089136D-01
   139  1.3800000000000D+00  4.9509348518503D-01  1.1454332746675D-01
   140  1.3900000000000D+00  4.5835812105903D-01  9.5817108003682D-02
   141  1.4000000000000D+00  4.2171972175088D-01  7.7635626434879D-02
   142  1.4100000000000D+00  3.8526617474302D-01  6.0013302253154D-02
   143  1.4200000000000D+00  3.4908240746902D-01  4.2962467676679D-02
   144  1.4300000000000D+00  3.1325016552116D-01  2.6493672443718D-02
   145  1.4400000000000D+00  2.7784791152216D-01  1.0616459110990D-02
   146  1.4500000000000D+00  2.4295065439045D-01 -4.6607297749141D-03
   147  1.4600000000000D+00  2.0862980274657D-01 -1.9330725033464D-02
   148  1.4700000000000D+00  1.7495304393118D-01 -3.3387560546147D-02
   149  1.4800000000000D+00  1.4198423602059D-01 -4.6826499224133D-02
   150  1.4900000000000D+00  1.0978331731003D-01 -5.9644034470548D-02
   151  1.5000000000000D+00  7.8406232048735D-02 -7.1837889852652D-02
   152  1.5100000000000D+00  4.7904872309260D-02 -8.3407013730201D-02
   153  1.5200000000000D+00  1.8327035833495D-02 -9.4351569446943D-02
   154  1.5300000000000D+00 -1.0283600736011D-02 -1.0467292129995D-01
   155  1.5400000000000D+00 -3.7887493401354D-02 -1.1437361639275D-01
   156  1.5500000000000D+00 -6.4449227788854D-02 -1.2345736260376D-01
   157  1.5600000000000D+00 -8.9937501886913D-02 -1.3192900281710D-01
   158  1.5700000000000D+00 -1.1432509516617D-01 -1.3979448563821D-01
   159  1.5800000000000D+00 -1.3758882459040D-01 -1.4706083278592D-01
   160  1.5900000000000D+00 -1.5970948810332D-01 -1.5373610337433D-01
   161  1.6000000000000D+00 -1.8067179624493D-01 -1.5982935530773D-01
   162  1.6100000000000D+00 -2.0046429246548D-01 -1.6535060399984D-01
   163  1.6200000000000D+00 -2.1907926288579D-01 -1.7031077865657D-01
   164  1.6300000000000D+00 -2.3651263608191D-01 -1.7472167633975D-01
   165  1.6400000000000D+00 -2.5276387368539D-01 -1.7859591405103D-01
   166  1.6500000000000D+00 -2.6783585241386D-01 -1.8194687906725D-01
   167  1.6600000000000D+00 -2.8173473831612D-01 -1.8478867775215D-01
   168  1.6700000000000D+00 -2.9446985390561D-01 -1.8713608309523D-01
   169  1.6800000000000D+00 -3.0605353891623D-01 -1.8900448117640D-01
   170  1.6900000000000D+00 -3.1650100542943D-01 -1.9040981683051D-01
   171  1.7000000000000D+00 -3.2583018802117D-01 -1.9136853867465D-01
   172  1.7100000000000D+00 -3.3406158976124D-01 -1.9189754379677D-01
   173  1.7200000000000D+00 -3.4121812460289D-01 -1.9201412222704D-01
   174  1.7300000000000D+00 -3.4732495707718D-01 -1.9173590151241D-01
   175  1.7400000000000D+00 -3.5240933970782D-01 -1.9108079147350D-01
   176  1.7500000000000D+00 -3.5650044912693D-01 -1.9006692947860D-01
   177  1.7600000000000D+00 -3.5962922119095D-01 -1.8871262627564D-01
   178  1.7700000000000D+00 -3.6182818611191D-01 -1.8703631272141D-01
   179  1.7800000000000D+00 -3.6313130381423D-01 -1.8505648742156D-01
   180  1.7900000000000D+00 -3.6357380050760D-01 -1.8279166560030D-01
   181  1.8000000000000D+00 -3.6319200665342D-01 -1.8026032920906D-01
   182  1.8100000000000D+00 -3.6202319721388D-01 -1.7748087855003D-01
   183  1.8200000000000D+00 -3.6010543440943D-01 -1.7447158544551D-01
   184  1.8300000000000D+00 -3.5747741366088D-01 -1.7125054814599D-01
   185  1.8400000000000D+00 -3.5417831310159D-01 -1.6783564806851D-01
   186  1.8500000000000D+00 -3.5024764699891D-01 -1.6424450843756D-01
   187  1.8600000000000D+00 -3.4572512375252D-01 -1.6049445501823D-01
   188  1.8700000000000D+00 -3.4065050834507D-01 -1.5660247885506D-01
   189  1.8800000000000D+00 -3.3506349029265D-01 -1.5258520133250D-01
   190  1.8900000000000D+00 -3.2900355647160D-01 -1.4845884130635D-01
   191  1.9000000000000D+00 -3.2250987013944D-01 -1.4423918470661D-01
   192  1.9100000000000D+00 -3.1562115536129D-01 -1.3994155631268D-01
   193  1.9200000000000D+00 -3.0837558788985D-01 -1.3558079400549D-01
   194  1.9300000000000D+00 -3.0081069211839D-01 -1.3117122533717D-01
   195  1.9400000000000D+00 -2.9296324445502D-01 -1.2672664649203D-01
   196  1.9500000000000D+00 -2.8486918341173D-01 -1.2226030369640D-01
   197  1.9600000000000D+00 -2.7656352591310D-01 -1.1778487688655D-01
   198  1.9700000000000D+00 -2.6808029079018D-01 -1.1331246589715D-01
   199  1.9800000000000D+00 -2.5945242839661D-01 -1.0885457881136D-01
   200  1.9900000000000D+00 -2.5071175738991D-01 -1.0442212275006D-01
   201  2.0000000000000D+00 -2.4188890786484D-01 -1.0002539682463D-01
   202  2.0100000000000D+00 -2.3301327115083D-01 -9.5674087308266D-02
   203  2.0200000000000D+00 -2.2411295632182D-01 -9.1377265004194D-02
   204  2.0300000000000D+00 -2.1521475272550D-01 -8.7143384580249D-02
   205  2.0400000000000D+00 -2.0634409932351D-01 -8.2980286047961D-02
   206  2.0500000000000D+00 -1.9752505973475D-01 -7.8895198053513D-02
   207  2.0600000000000D+00 -1.8878030356021D-01 -7.4894743091271D-02
   208  2.0700000000000D+00 -1.8013109347690D-01 -7.0984944470780D-02
   209  2.0800000000000D+00 -1.7159727779754D-01 -6.7171234922078D-02
   210  2.0900000000000D+00 -1.6319728875093D-01 -6.3458466850684D-02
   211  2.1000000000000D+00 -1.5494814564265D-01 -5.9850924017785D-02
   212  2.1100000000000D+00 -1.4686546321516D-01 -5.6352334652411D-02
   213  2.1200000000000D+00 -1.3896346465105D-01 -5.2965885843681D-02
   214  2.1300000000000D+00 -1.3125499898621D-01 -4.9694239116784D-02
   215  2.1400000000000D+00 -1.2375156288155D-01 -4.6539547106798D-02
   216  2.1500000000000D+00 -1.1646332621582D-01 -4.3503471226420D-02
   217  2.1600000000000D+00 -1.0939916143383D-01 -4.0587200203081D-02
   218  2.1700000000000D+00 -1.0256667629643D-01 -3.7791469408432D-02
   219  2.1800000000000D+00 -9.5972249771280D-02 -3.5116580899168D-02
   220  2.1900000000000D+00 -8.9621070763927D-02 -3.2562423982533D-02
   221  2.2000000000000D+00 -8.3517179515791D-02 -3.0128496347616D-02
   222  2.2100000000000D+00 -7.7663511272043D-02 -2.7813925544831D-02
   223  2.2200000000000D+00 -7.2061941969372D-02 -2.5617490742988D-02
   224  2.2300000000000D+00 -6.6713335925575D-02 -2.3537644820138D-02
   225  2.2400000000000D+00 -6.1617594777722D-02 -2.1572536418649D-02
   226  2.2500000000000D+00 -5.6773707923402D-02 -1.9720032160171D-02
   227  2.2600000000000D+00 -5.2179804031863D-02 -1.7977738837302D-02
   228  2.2700000000000D+00 -4.7833203105575D-02 -1.6343025371820D-02
   229  2.2800000000000D+00 -4.3730469494915D-02 -1.4813044766332D-02
   230  2.2900000000000D+00 -3.9867465022178D-02 -1.3384755694939D-02
   231  2.3000000000000D+00 -3.6239402190807D-02 -1.2054943756195D-02
   232  2.3100000000000D+00 -3.2840897801701D-02 -1.0820242552615D-02
   233  2.3200000000000D+00 -2.9666025752466D-02 -9.6771541044348D-03
   234  2.3300000000000D+00 -2.6708369726004D-02 -8.6220689208757D-03
   235  2.3400000000000D+00 -2.3961075529666D-02 -7.6512856495770D-03
   236  2.3500000000000D+00 -2.1416902114988D-02 -6.7610299392260D-03
   237  2.3600000000000D+00 -1.9068272221882D-02 -5.9474729126516D-03
   238  2.3700000000000D+00 -1.6907321937581D-02 -5.2067489914001D-03
   239  2.3800000000000D+00 -1.4925948743159D-02 -4.5349729305697D-03
   240  2.3900000000000D+00 -1.3115858847055D-02 -3.9282563841909D-03
   241  2.4000000000000D+00 -1.1468612866569D-02 -3.3827236708363D-03
   242  2.4100000000000D+00 -9.9756699121262D-03 -2.8945267798552D-03
   243  2.4200000000000D+00 -8.6284306658927D-03 -2.4598598445756D-03
   244  2.4300000000000D+00 -7.4182783986304D-03 -2.0749727299176D-03
   245  2.4400000000000D+00 -6.3366183702344D-03 -1.7361839074973D-03
   246  2.4500000000000D+00 -5.3749159823388D-03 -1.4398927519107D-03
   247  2.4600000000000D+00 -4.5247326284703D-03 -1.1825909316971D-03
   248  2.4700000000000D+00 -3.7777599347080D-03 -9.6087313628099D-04
   249  2.4800000000000D+00 -3.1258525641585D-03 -7.7144719642456D-04
   250  2.4900000000000D+00 -2.5610586394014D-03 -6.1114333885849D-04
   251  2.5000000000000D+00 -2.0756485620306D-03 -4.7692281806443D-04
   252  2.5100000000000D+00 -1.6621422613652D-03 -3.6588593059402D-04
   253  2.5200000000000D+00 -1.3133341184336D-03 -2.7527924949566D-04
   254  2.5300000000000D+00 -1.0223162812481D-03 -2.0250226653534D-04
   255  2.5400000000000D+00 -7.8250032365674D-04 -1.4511341974682D-04
   256  2.5500000000000D+00 -5.8763673684855D-04 -1.0083545606280D-04
   257  2.5600000000000D+00 -4.3183279456698D-04 -6.7560223792791D-05
   258  2.5700000000000D+00 -3.0956871801802D-04 -4.3352863225057D-05
   259  2.5800000000000D+00 -2.1571188521339D-04 -2.6455455671366D-05
   260  2.5900000000000D+00 -1.4553986294793D-04 -1.5299936353871D-05
   261  2.6000000000000D+00 -9.4712712688080D-05 -8.4744660214627D-06
   262  2.6100000000000D+00 -5.9321442762847D-05 -4.7623987133455D-06
   263  2.6200000000000D+00 -3.5843834059518D-05 -3.1118644083669D-06
   264  2.6300000000000D+00 -2.1330339422115D-05 -2.7479377559528D-06
   265  2.6400000000000D+00 -1.3240600975189D-05 -3.0677786051188D-06
   266  2.6500000000000D+00 -9.5729573491489D-06 -3.6777845723234D-06
   267  2.6600000000000D+00 -8.2981012751720D-06 -4.1542949194760D-06
   268  2.6700000000000D+00 -7.7058662891432D-06 -4.1678035734428D-06
   269  2.6800000000000D+00 -6.4102552358142D-06 -3.4741673605608D-06
   270  2.6900000000000D+00 -4.1121814459925D-06 -2.2005040424805D-06
   271  2.7000000000000D+00 -1.5873132152497D-06 -8.3227856565149D-07
   272  2.7100000000000D+00  2.9290876911879D-07  1.6297261846041D-07
   273  2.7200000000000D+00  7.8680275065763D-07  4.3652550771068D-07
   274  2.7300000000000D+00  5.5689765504519D-07  3.0783781006626D-07
   275  2.7400000000000D+00 -4.9951937590002D-09 -2.9467907186957D-09
   276  2.7500000000000D+00 -1.4544026406196D-07 -8.6187000226155D-08
   277  2.7600000000000D+00 -1.4411840564821D-07 -8.5727354652940D-08
   278  2.7700000000000D+00 -3.5908586549053D-08 -2.1428665997185D-08
   279  2.7800000000000D+00  1.4484268368977D-08  7.8414344514876D-09
   280  2.7900000000000D+00  2.0397344017556D-08  1.1042631358632D-08
   281  2.8000000000000D+00  1.0314710510132D-08  5.5841361324473D-09
   282  2.8100000000000D+00  0.0000000000000D+00  0.0000000000000D+00
   283  2.8200000000000D+00  0.0000000000000D+00  0.0000000000000D+00
   284  2.8300000000000D+00  0.0000000000000D+00  0.0000000000000D+00
   285  2.8400000000000D+00  0.0000000000000D+00  0.0000000000000D+00
   286  2.8500000000000D+00  0.0000000000000D+00  0.0000000000000D+00
   287  2.8600000000000D+00  0.0000000000000D+00  0.0000000000000D+00
   288  2.8700000000000D+00  0.0000000000000D+00  0.0000000000000D+00
   289  2.8800000000000D+00  0.0000000000000D+00  0.0000000000000D+00
   290  2.8900000000000D+00  0.0000000000000D+00  0.0000000000000D+00
   291  2.9000000000000D+00  0.0000000000000D+00  0.0000000000000D+00
   292  2.9100000000000D+00  0.0000000000000D+00  0.0000000000000D+00
   293  2.9200000000000D+00  0.0000000000000D+00  0.0000000000000D+00
   294  2.9300000000000D+00  0.0000000000000D+00  0.0000000000000D+00
   295  2.9400000000000D+00  0.0000000000000D+00  0.0000000000000D+00
   296  2.9500000000000D+00  0.0000000000000D+00  0.0000000000000D+00
   297  2.9600000000000D+00  0.0000000000000D+00  0.0000000000000D+00
   298  2.9700000000000D+00  0.0000000000000D+00  0.0000000000000D+00
   299  2.9800000000000D+00  0.0000000000000D+00  0.0000000000000D+00
   300  2.9900000000000D+00  0.0000000000000D+00  0.0000000000000D+00
   301  3.0000000000000D+00  0.0000000000000D+00  0.0000000000000D+00
   302  3.0100000000000D+00  0.0000000000000D+00  0.0000000000000D+00
   303  3.0200000000000D+00  0.0000000000000D+00  0.0000000000000D+00
   304  3.0300000000000D+00  0.0000000000000D+00  0.0000000000000D+00
   305  3.0400000000000D+00  0.0000000000000D+00  0.0000000000000D+00
   306  3.0500000000000D+00  0.0000000000000D+00  0.0000000000000D+00
   307  3.0600000000000D+00  0.0000000000000D+00  0.0000000000000D+00
   308  3.0700000000000D+00  0.0000000000000D+00  0.0000000000000D+00
   309  3.0800000000000D+00  0.0000000000000D+00  0.0000000000000D+00
   310  3.0900000000000D+00  0.0000000000000D+00  0.0000000000000D+00
   311  3.1000000000000D+00  0.0000000000000D+00  0.0000000000000D+00
   312  3.1100000000000D+00  0.0000000000000D+00  0.0000000000000D+00
   313  3.1200000000000D+00  0.0000000000000D+00  0.0000000000000D+00
   314  3.1300000000000D+00  0.0000000000000D+00  0.0000000000000D+00
   315  3.1400000000000D+00  0.0000000000000D+00  0.0000000000000D+00
   316  3.1500000000000D+00  0.0000000000000D+00  0.0000000000000D+00
   317  3.1600000000000D+00  0.0000000000000D+00  0.0000000000000D+00
   318  3.1700000000000D+00  0.0000000000000D+00  0.0000000000000D+00
   319  3.1800000000000D+00  0.0000000000000D+00  0.0000000000000D+00
   320  3.1900000000000D+00  0.0000000000000D+00  0.0000000000000D+00
   321  3.2000000000000D+00  0.0000000000000D+00  0.0000000000000D+00
   322  3.2100000000000D+00  0.0000000000000D+00  0.0000000000000D+00
   323  3.2200000000000D+00  0.0000000000000D+00  0.0000000000000D+00
   324  3.2300000000000D+00  0.0000000000000D+00  0.0000000000000D+00
   325  3.2400000000000D+00  0.0000000000000D+00  0.0000000000000D+00
   326  3.2500000000000D+00  0.0000000000000D+00  0.0000000000000D+00
   327  3.2600000000000D+00  0.0000000000000D+00  0.0000000000000D+00
   328  3.2700000000000D+00  0.0000000000000D+00  0.0000000000000D+00
   329  3.2800000000000D+00  0.0000000000000D+00  0.0000000000000D+00
   330  3.2900000000000D+00  0.0000000000000D+00  0.0000000000000D+00
   331  3.3000000000000D+00  0.0000000000000D+00  0.0000000000000D+00
   332  3.3100000000000D+00  0.0000000000000D+00  0.0000000000000D+00
   333  3.3200000000000D+00  0.0000000000000D+00  0.0000000000000D+00
   334  3.3300000000000D+00  0.0000000000000D+00  0.0000000000000D+00
   335  3.3400000000000D+00  0.0000000000000D+00  0.0000000000000D+00
   336  3.3500000000000D+00  0.0000000000000D+00  0.0000000000000D+00
   337  3.3600000000000D+00  0.0000000000000D+00  0.0000000000000D+00
   338  3.3700000000000D+00  0.0000000000000D+00  0.0000000000000D+00
   339  3.3800000000000D+00  0.0000000000000D+00  0.0000000000000D+00
   340  3.3900000000000D+00  0.0000000000000D+00  0.0000000000000D+00
   341  3.4000000000000D+00  0.0000000000000D+00  0.0000000000000D+00
   342  3.4100000000000D+00  0.0000000000000D+00  0.0000000000000D+00
   343  3.4200000000000D+00  0.0000000000000D+00  0.0000000000000D+00
   344  3.4300000000000D+00  0.0000000000000D+00  0.0000000000000D+00
   345  3.4400000000000D+00  0.0000000000000D+00  0.0000000000000D+00
   346  3.4500000000000D+00  0.0000000000000D+00  0.0000000000000D+00
   347  3.4600000000000D+00  0.0000000000000D+00  0.0000000000000D+00
   348  3.4700000000000D+00  0.0000000000000D+00  0.0000000000000D+00
   349  3.4800000000000D+00  0.0000000000000D+00  0.0000000000000D+00
   350  3.4900000000000D+00  0.0000000000000D+00  0.0000000000000D+00
   351  3.5000000000000D+00  0.0000000000000D+00  0.0000000000000D+00
   352  3.5100000000000D+00  0.0000000000000D+00  0.0000000000000D+00
   353  3.5200000000000D+00  0.0000000000000D+00  0.0000000000000D+00
   354  3.5300000000000D+00  0.0000000000000D+00  0.0000000000000D+00
   355  3.5400000000000D+00  0.0000000000000D+00  0.0000000000000D+00
   356  3.5500000000000D+00  0.0000000000000D+00  0.0000000000000D+00
   357  3.5600000000000D+00  0.0000000000000D+00  0.0000000000000D+00
   358  3.5700000000000D+00  0.0000000000000D+00  0.0000000000000D+00
   359  3.5800000000000D+00  0.0000000000000D+00  0.0000000000000D+00
   360  3.5900000000000D+00  0.0000000000000D+00  0.0000000000000D+00
   361  3.6000000000000D+00  0.0000000000000D+00  0.0000000000000D+00
   362  3.6100000000000D+00  0.0000000000000D+00  0.0000000000000D+00
   363  3.6200000000000D+00  0.0000000000000D+00  0.0000000000000D+00
   364  3.6300000000000D+00  0.0000000000000D+00  0.0000000000000D+00
   365  3.6400000000000D+00  0.0000000000000D+00  0.0000000000000D+00
   366  3.6500000000000D+00  0.0000000000000D+00  0.0000000000000D+00
   367  3.6600000000000D+00  0.0000000000000D+00  0.0000000000000D+00
   368  3.6700000000000D+00  0.0000000000000D+00  0.0000000000000D+00
   369  3.6800000000000D+00  0.0000000000000D+00  0.0000000000000D+00
   370  3.6900000000000D+00  0.0000000000000D+00  0.0000000000000D+00
   371  3.7000000000000D+00  0.0000000000000D+00  0.0000000000000D+00
   372  3.7100000000000D+00  0.0000000000000D+00  0.0000000000000D+00
   373  3.7200000000000D+00  0.0000000000000D+00  0.0000000000000D+00
   374  3.7300000000000D+00  0.0000000000000D+00  0.0000000000000D+00
   375  3.7400000000000D+00  0.0000000000000D+00  0.0000000000000D+00
   376  3.7500000000000D+00  0.0000000000000D+00  0.0000000000000D+00
   377  3.7600000000000D+00  0.0000000000000D+00  0.0000000000000D+00
   378  3.7700000000000D+00  0.0000000000000D+00  0.0000000000000D+00
   379  3.7800000000000D+00  0.0000000000000D+00  0.0000000000000D+00
   380  3.7900000000000D+00  0.0000000000000D+00  0.0000000000000D+00
   381  3.8000000000000D+00  0.0000000000000D+00  0.0000000000000D+00
   382  3.8100000000000D+00  0.0000000000000D+00  0.0000000000000D+00
   383  3.8200000000000D+00  0.0000000000000D+00  0.0000000000000D+00
   384  3.8300000000000D+00  0.0000000000000D+00  0.0000000000000D+00
   385  3.8400000000000D+00  0.0000000000000D+00  0.0000000000000D+00
   386  3.8500000000000D+00  0.0000000000000D+00  0.0000000000000D+00
   387  3.8600000000000D+00  0.0000000000000D+00  0.0000000000000D+00
   388  3.8700000000000D+00  0.0000000000000D+00  0.0000000000000D+00
   389  3.8800000000000D+00  0.0000000000000D+00  0.0000000000000D+00
   390  3.8900000000000D+00  0.0000000000000D+00  0.0000000000000D+00
   391  3.9000000000000D+00  0.0000000000000D+00  0.0000000000000D+00
   392  3.9100000000000D+00  0.0000000000000D+00  0.0000000000000D+00
   393  3.9200000000000D+00  0.0000000000000D+00  0.0000000000000D+00
   394  3.9300000000000D+00  0.0000000000000D+00  0.0000000000000D+00
   395  3.9400000000000D+00  0.0000000000000D+00  0.0000000000000D+00
   396  3.9500000000000D+00  0.0000000000000D+00  0.0000000000000D+00
   397  3.9600000000000D+00  0.0000000000000D+00  0.0000000000000D+00
   398  3.9700000000000D+00  0.0000000000000D+00  0.0000000000000D+00
   399  3.9800000000000D+00  0.0000000000000D+00  0.0000000000000D+00
   400  3.9900000000000D+00  0.0000000000000D+00  0.0000000000000D+00
   401  4.0000000000000D+00  0.0000000000000D+00  0.0000000000000D+00
   402  4.0100000000000D+00  0.0000000000000D+00  0.0000000000000D+00
   403  4.0200000000000D+00  0.0000000000000D+00  0.0000000000000D+00
   404  4.0300000000000D+00  0.0000000000000D+00  0.0000000000000D+00
   405  4.0400000000000D+00  0.0000000000000D+00  0.0000000000000D+00
   406  4.0500000000000D+00  0.0000000000000D+00  0.0000000000000D+00
   407  4.0600000000000D+00  0.0000000000000D+00  0.0000000000000D+00
   408  4.0700000000000D+00  0.0000000000000D+00  0.0000000000000D+00
   409  4.0800000000000D+00  0.0000000000000D+00  0.0000000000000D+00
   410  4.0900000000000D+00  0.0000000000000D+00  0.0000000000000D+00
   411  4.1000000000000D+00  0.0000000000000D+00  0.0000000000000D+00
   412  4.1100000000000D+00  0.0000000000000D+00  0.0000000000000D+00
   413  4.1200000000000D+00  0.0000000000000D+00  0.0000000000000D+00
   414  4.1300000000000D+00  0.0000000000000D+00  0.0000000000000D+00
   415  4.1400000000000D+00  0.0000000000000D+00  0.0000000000000D+00
   416  4.1500000000000D+00  0.0000000000000D+00  0.0000000000000D+00
   417  4.1600000000000D+00  0.0000000000000D+00  0.0000000000000D+00
   418  4.1700000000000D+00  0.0000000000000D+00  0.0000000000000D+00
   419  4.1800000000000D+00  0.0000000000000D+00  0.0000000000000D+00
   420  4.1900000000000D+00  0.0000000000000D+00  0.0000000000000D+00
   421  4.2000000000000D+00  0.0000000000000D+00  0.0000000000000D+00
   422  4.2100000000000D+00  0.0000000000000D+00  0.0000000000000D+00
   423  4.2200000000000D+00  0.0000000000000D+00  0.0000000000000D+00