As    ONCVPSP-3.3.1  r_core=   2.94957   2.03781   2.94957
     33.0000      5.0000      210904    zatom,zion,pspd
     8       2   2     4   600     0    pspcod,pspxc,lmax,lloc,mmax,r2well
  5.99000000  0.00000000  0.00000000    rchrg fchrg qchrg
     2     3     3     0    nproj
     3     1           extension_switch
     4     4     0    nprojso
   0                         6.2473758134819D-01  4.5736192673827D+00
     1  0.0000000000000D+00 -1.5951441556528D-12  7.1490036113175D-13
     2  1.0000000000000D-02 -1.5248704400117D-03  2.6205572596569D-02
     3  2.0000000000000D-02 -3.0639236269909D-03  5.2403903654979D-02
     4  3.0000000000000D-02 -4.6312628050939D-03  7.8587730172373D-02
     5  4.0000000000000D-02 -6.2408324520545D-03  1.0474974630168D-01
     6  5.0000000000000D-02 -7.9063394936062D-03  1.3088258214224D-01
     7  6.0000000000000D-02 -9.6411752339894D-03  1.5697878278534D-01
     8  7.0000000000000D-02 -1.1458338239508D-02  1.8303078769857D-01
     9  8.0000000000000D-02 -1.3370358410507D-02  2.0903091053269D-01
    10  9.0000000000000D-02 -1.5389222475300D-02  2.3497131943338D-01
    11  1.0000000000000D-01 -1.7526301137213D-02  2.6084401793943D-01
    12  1.1000000000000D-01 -1.9792278103217D-02  2.8664082654773D-01
    13  1.2000000000000D-01 -2.2197081219477D-02  3.1235336502377D-01
    14  1.3000000000000D-01 -2.4749815935584D-02  3.3797303553514D-01
    15  1.4000000000000D-01 -2.7458701315235D-02  3.6349100668337D-01
    16  1.5000000000000D-01 -3.0331008806703D-02  3.8889819850787D-01
    17  1.6000000000000D-01 -3.3373003981492D-02  4.1418526853326D-01
    18  1.7000000000000D-01 -3.6589891444220D-02  4.3934259892937D-01
    19  1.8000000000000D-01 -3.9985763110893D-02  4.6436028485046D-01
    20  1.9000000000000D-01 -4.3563550046406D-02  4.8922812401773D-01
    21  2.0000000000000D-01 -4.7324978045150D-02  5.1393560760616D-01
    22  2.1000000000000D-01 -5.1270527131353D-02  5.3847191249381D-01
    23  2.2000000000000D-01 -5.5399395147663D-02  5.6282589492838D-01
    24  2.3000000000000D-01 -5.9709465592286D-02  5.8698608566254D-01
    25  2.4000000000000D-01 -6.4197279855671D-02  6.1094068660576D-01
    26  2.5000000000000D-01 -6.8858013998526D-02  6.3467756903689D-01
    27  2.6000000000000D-01 -7.3685460202464D-02  6.5818427341748D-01
    28  2.7000000000000D-01 -7.8672013014233D-02  6.8144801084190D-01
    29  2.8000000000000D-01 -8.3808660493052D-02  7.0445566615612D-01
    30  2.9000000000000D-01 -8.9084980358825D-02  7.2719380277222D-01
    31  3.0000000000000D-01 -9.4489141226715D-02  7.4964866920147D-01
    32  3.1000000000000D-01 -1.0000790900063D-01  7.7180620732386D-01
    33  3.2000000000000D-01 -1.0562665848479D-01  7.9365206240700D-01
    34  3.3000000000000D-01 -1.1132939025852D-01  8.1517159488246D-01
    35  3.4000000000000D-01 -1.1709875284514D-01  8.3634989388216D-01
    36  3.5000000000000D-01 -1.2291607019077D-01  8.5717179253244D-01
    37  3.6000000000000D-01 -1.2876137445353D-01  8.7762188499771D-01
    38  3.7000000000000D-01 -1.3461344408786D-01  8.9768454526032D-01
    39  3.8000000000000D-01 -1.4044984719246D-01  9.1734394761744D-01
    40  3.9000000000000D-01 -1.4624699007389D-01  9.3658408887036D-01
    41  4.0000000000000D-01 -1.5198017096067D-01  9.5538881217559D-01
    42  4.1000000000000D-01 -1.5762363878610D-01  9.7374183252147D-01
    43  4.2000000000000D-01 -1.6315065694022D-01  9.9162676378826D-01
    44  4.3000000000000D-01 -1.6853357187383D-01  1.0090271473437D+00
    45  4.4000000000000D-01 -1.7374388641993D-01  1.0259264821205D+00
    46  4.5000000000000D-01 -1.7875233768021D-01  1.0423082561153D+00
    47  4.6000000000000D-01 -1.8352897930606D-01  1.0581559792454D+00
    48  4.7000000000000D-01 -1.8804326798634D-01  1.0734532174905D+00
    49  4.8000000000000D-01 -1.9226415393633D-01  1.0881836282432D+00
    50  4.9000000000000D-01 -1.9616017516460D-01  1.1023309967872D+00
    51  5.0000000000000D-01 -1.9969955527775D-01  1.1158792738137D+00
    52  5.1000000000000D-01 -2.0285030456605D-01  1.1288126138839D+00
    53  5.2000000000000D-01 -2.0558032409623D-01  1.1411154147402D+00
    54  5.3000000000000D-01 -2.0785751252203D-01  1.1527723573619D+00
    55  5.4000000000000D-01 -2.0964987530773D-01  1.1637684466583D+00
    56  5.5000000000000D-01 -2.1092563604465D-01  1.1740890526868D+00
    57  5.6000000000000D-01 -2.1165334952704D-01  1.1837199522800D+00
    58  5.7000000000000D-01 -2.1180201624008D-01  1.1926473709603D+00
    59  5.8000000000000D-01 -2.1134119790049D-01  1.2008580250193D+00
    60  5.9000000000000D-01 -2.1024113367853D-01  1.2083391636330D+00
    61  6.0000000000000D-01 -2.0847285671981D-01  1.2150786108832D+00
    62  6.1000000000000D-01 -2.0600831057593D-01  1.2210648075520D+00
    63  6.2000000000000D-01 -2.0282046514434D-01  1.2262868525529D+00
    64  6.3000000000000D-01 -1.9888343171121D-01  1.2307345438620D+00
    65  6.4000000000000D-01 -1.9417257668507D-01  1.2343984188101D+00
    66  6.5000000000000D-01 -1.8866463360442D-01  1.2372697935952D+00
    67  6.6000000000000D-01 -1.8233781299985D-01  1.2393408018750D+00
    68  6.7000000000000D-01 -1.7517190968911D-01  1.2406044322995D+00
    69  6.8000000000000D-01 -1.6714840708391D-01  1.2410545648408D+00
    70  6.9000000000000D-01 -1.5825057808861D-01  1.2406860057827D+00
    71  7.0000000000000D-01 -1.4846358217383D-01  1.2394945212304D+00
    72  7.1000000000000D-01 -1.3777455821265D-01  1.2374768690029D+00
    73  7.2000000000000D-01 -1.2617271267380D-01  1.2346308287745D+00
    74  7.3000000000000D-01 -1.1364940277363D-01  1.2309552303339D+00
    75  7.4000000000000D-01 -1.0019821419869D-01  1.2264499798300D+00
    76  7.5000000000000D-01 -8.5815033021898D-02  1.2211160838828D+00
    77  7.6000000000000D-01 -7.0498111448265D-02  1.2149556714363D+00
    78  7.7000000000000D-01 -5.4248127040962D-02  1.2079720132387D+00
    79  7.8000000000000D-01 -3.7068235094588D-02  1.2001695388397D+00
    80  7.9000000000000D-01 -1.8964113840852D-02  1.1915538509993D+00
    81  8.0000000000000D-01  5.5997809041709D-05  1.1821317374104D+00
    82  8.1000000000000D-01  1.9981270259540D-02  1.1719111796434D+00
    83  8.2000000000000D-01  4.0798261214883D-02  1.1609013592280D+00
    84  8.3000000000000D-01  6.2490901880149D-02  1.1491126607954D+00
    85  8.4000000000000D-01  8.5040491580982D-02  1.1365566722119D+00
    86  8.5000000000000D-01  1.0842570097707D-01  1.1232461816446D+00
    87  8.6000000000000D-01  1.3262258401662D-01  1.1091951715057D+00
    88  8.7000000000000D-01  1.5760459874944D-01  1.0944188092348D+00
    89  8.8000000000000D-01  1.8334263708570D-01  1.0789334348859D+00
    90  8.9000000000000D-01  2.0980506355658D-01  1.0627565454955D+00
    91  9.0000000000000D-01  2.3695776310006D-01  1.0459067762198D+00
    92  9.1000000000000D-01  2.6476419786253D-01  1.0284038782385D+00
    93  9.2000000000000D-01  2.9318547297278D-01  1.0102686934324D+00
    94  9.3000000000000D-01  3.2218041121067D-01  9.9152312585455D-01
    95  9.4000000000000D-01  3.5170563645820D-01  9.7219011002479D-01
    96  9.5000000000000D-01  3.8171566578532D-01  9.5229357608754D-01
    97  9.6000000000000D-01  4.1216300998759D-01  9.3185841188567D-01
    98  9.7000000000000D-01  4.4299828235770D-01  9.1091042201308D-01
    99  9.8000000000000D-01  4.7417031543733D-01  8.8947628391995D-01
   100  9.9000000000000D-01  5.0562628546113D-01  8.6758350115611D-01
   101  1.0000000000000D+00  5.3731184416950D-01  8.4526035384861D-01
   102  1.0100000000000D+00  5.6917125763286D-01  8.2253584652052D-01
   103  1.0200000000000D+00  6.0114755169686D-01  7.9943965336891D-01
   104  1.0300000000000D+00  6.3318266362483D-01  7.7600206112999D-01
   105  1.0400000000000D+00  6.6521759948146D-01  7.5225390967040D-01
   106  1.0500000000000D+00  6.9719259677284D-01  7.2822653045266D-01
   107  1.0600000000000D+00  7.2904729182556D-01  7.0395168303341D-01
   108  1.0700000000000D+00  7.6072089136130D-01  6.7946148976182D-01
   109  1.0800000000000D+00  7.9215234769575D-01  6.5478836885448D-01
   110  1.0900000000000D+00  8.2328053696451D-01  6.2996496603228D-01
   111  1.1000000000000D+00  8.5404443975777D-01  6.0502408491116D-01
   112  1.1100000000000D+00  8.8438332351964D-01  5.7999861634825D-01
   113  1.1200000000000D+00  9.1423692605105D-01  5.5492146695039D-01
   114  1.1300000000000D+00  9.4354563943509D-01  5.2982548695928D-01
   115  1.1400000000000D+00  9.7225069369022D-01  5.0474339773250D-01
   116  1.1500000000000D+00  1.0002943394401D+00  4.7970771904598D-01
   117  1.1600000000000D+00  1.0276200288784D+00  4.5475069644734D-01
   118  1.1700000000000D+00  1.0541725942979D+00  4.2990422889397D-01
   119  1.1800000000000D+00  1.0798984234462D+00  4.0519979691215D-01
   120  1.1900000000000D+00  1.1047456309652D+00  3.8066839151735D-01
   121  1.2000000000000D+00  1.1286642251694D+00  3.5634044413685D-01
   122  1.2100000000000D+00  1.1516062694187D+00  3.3224575777697D-01
   123  1.2200000000000D+00  1.1735260373444D+00  3.0841343967830D-01
   124  1.2300000000000D+00  1.1943801611907D+00  2.8487183570162D-01
   125  1.2400000000000D+00  1.2141277725458D+00  2.6164846668540D-01
   126  1.2500000000000D+00  1.2327306347397D+00  2.3876996701621D-01
   127  1.2600000000000D+00  1.2501532662038D+00  2.1626202564872D-01
   128  1.2700000000000D+00  1.2663630541088D+00  1.9414932980844D-01
   129  1.2800000000000D+00  1.2813303575927D+00  1.7245551161009D-01
   130  1.2900000000000D+00  1.2950285999340D+00  1.5120309781592D-01
   131  1.3000000000000D+00  1.3074343490453D+00  1.3041346295196D-01
   132  1.3100000000000D+00  1.3185273856582D+00  1.1010678600223D-01
   133  1.3200000000000D+00  1.3282907586324D+00  9.0302010884409D-02
   134  1.3300000000000D+00  1.3367108268436D+00  7.1016810905577D-02
   135  1.3400000000000D+00  1.3437772870933D+00  5.2267557398947D-02
   136  1.3500000000000D+00  1.3494831875840D+00  3.4069292716432D-02
   137  1.3600000000000D+00  1.3538249264853D+00  1.6435707755836D-02
   138  1.3700000000000D+00  1.3568022351476D+00 -6.2087580601008D-04
   139  1.3800000000000D+00  1.3584181456213D+00 -1.7089518431743D-02
   140  1.3900000000000D+00  1.3586789420783D+00 -3.2960670633503D-02
   141  1.4000000000000D+00  1.3575940958501D+00 -4.8226175748003D-02
   142  1.4100000000000D+00  1.3551761838306D+00 -6.2879267459215D-02
   143  1.4200000000000D+00  1.3514407899403D+00 -7.6914561937127D-02
   144  1.4300000000000D+00  1.3464063895532D+00 -9.0328044519926D-02
   145  1.4400000000000D+00  1.3400942166518D+00 -1.0311705082727D-01
   146  1.4500000000000D+00  1.3325281136427D+00 -1.1528024224156D-01
   147  1.4600000000000D+00  1.3237343637824D+00 -1.2681757569985D-01
   148  1.4700000000000D+00  1.3137415061044D+00 -1.3773026772035D-01
   149  1.4800000000000D+00  1.3025801329951D+00 -1.4802075266640D-01
   150  1.4900000000000D+00  1.2902826703173D+00 -1.5769263517435D-01
   151  1.5000000000000D+00  1.2768831403206D+00 -1.6675063677596D-01
   152  1.5100000000000D+00  1.2624169073765D+00 -1.7520053668568D-01
   153  1.5200000000000D+00  1.2469204036531D+00 -1.8304910654004D-01
   154  1.5300000000000D+00  1.2304308562817D+00 -1.9030404073528D-01
   155  1.5400000000000D+00  1.2129859315214D+00 -1.9697387555080D-01
   156  1.5500000000000D+00  1.1946235685282D+00 -2.0306792059574D-01
   157  1.5600000000000D+00  1.1753814204815D+00 -2.0859615008429D-01
   158  1.5700000000000D+00  1.1552963817202D+00 -2.1356910508153D-01
   159  1.5800000000000D+00  1.1344053109544D+00 -2.1799787105440D-01
   160  1.5900000000000D+00  1.1127455197539D+00 -2.2189405035152D-01
   161  1.6000000000000D+00  1.0903555691176D+00 -2.2526979379099D-01
   162  1.6100000000000D+00  1.0672757326505D+00 -2.2813780554565D-01
   163  1.6200000000000D+00  1.0435475393112D+00 -2.3051129129102D-01
   164  1.6300000000000D+00  1.0192136441666D+00 -2.3240392864867D-01
   165  1.6400000000000D+00  9.9431776805918D-01 -2.3382983749853D-01
   166  1.6500000000000D+00  9.6890454220206D-01 -2.3480354572522D-01
   167  1.6600000000000D+00  9.4301938825001D-01 -2.3533995616995D-01
   168  1.6700000000000D+00  9.1670838548870D-01 -2.3545431230909D-01
   169  1.6800000000000D+00  8.9001814009660D-01 -2.3516216363050D-01
   170  1.6900000000000D+00  8.6299565439588D-01 -2.3447933065799D-01
   171  1.7000000000000D+00  8.3568819645597D-01 -2.3342186972062D-01
   172  1.7100000000000D+00  8.0814317047532D-01 -2.3200603757058D-01
   173  1.7200000000000D+00  7.8040798828098D-01 -2.3024825594299D-01
   174  1.7300000000000D+00  7.5252994237206D-01 -2.2816507616373D-01
   175  1.7400000000000D+00  7.2455608082429D-01 -2.2577314389429D-01
   176  1.7500000000000D+00  6.9653308446615D-01 -2.2308916411935D-01
   177  1.7600000000000D+00  6.6850714663290D-01 -2.2012986646314D-01
   178  1.7700000000000D+00  6.4052385586661D-01 -2.1691197093417D-01
   179  1.7800000000000D+00  6.1262808188202D-01 -2.1345215418633D-01
   180  1.7900000000000D+00  5.8486386508443D-01 -2.0976701638069D-01
   181  1.8000000000000D+00  5.5727431001080D-01 -2.0587304874651D-01
   182  1.8100000000000D+00  5.2990148284637D-01 -2.0178660189795D-01
   183  1.8200000000000D+00  5.0278631348986D-01 -1.9752385502756D-01
   184  1.8300000000000D+00  4.7596850212496D-01 -1.9310078598995D-01
   185  1.8400000000000D+00  4.4948643092274D-01 -1.8853314243198D-01
   186  1.8500000000000D+00  4.2337708060523D-01 -1.8383641393012D-01
   187  1.8600000000000D+00  3.9767595261789D-01 -1.7902580532188D-01
   188  1.8700000000000D+00  3.7241699653087D-01 -1.7411621116408D-01
   189  1.8800000000000D+00  3.4763254332695D-01 -1.6912219148747D-01
   190  1.8900000000000D+00  3.2335324432375D-01 -1.6405794880705D-01
   191  1.9000000000000D+00  2.9960801609321D-01 -1.5893730649145D-01
   192  1.9100000000000D+00  2.7642399140989D-01 -1.5377368851594D-01
   193  1.9200000000000D+00  2.5382647616173D-01 -1.4858010060132D-01
   194  1.9300000000000D+00  2.3183891265804D-01 -1.4336911286001D-01
   195  1.9400000000000D+00  2.1048284875307D-01 -1.3815284382645D-01
   196  1.9500000000000D+00  1.8977791359189D-01 -1.3294294608514D-01
   197  1.9600000000000D+00  1.6974179915627D-01 -1.2775059331257D-01
   198  1.9700000000000D+00  1.5039024825654D-01 -1.2258646890945D-01
   199  1.9800000000000D+00  1.3173704851268D-01 -1.1746075612731D-01
   200  1.9900000000000D+00  1.1379403234662D-01 -1.1238312971252D-01
   201  2.0000000000000D+00  9.6571083166574D-02 -1.0736274913116D-01
   202  2.0100000000000D+00  8.0076147030216D-02 -1.0240825321088D-01
   203  2.0200000000000D+00  6.4315250506950D-02 -9.7527756403030D-02
   204  2.0300000000000D+00  4.9292523747651D-02 -9.2728846426696D-02
   205  2.0400000000000D+00  3.5010229226766D-02 -8.8018583435048D-02
   206  2.0500000000000D+00  2.1468795730974D-02 -8.3403500610699D-02
   207  2.0600000000000D+00  8.6668572531636D-03 -7.8889606118768D-02
   208  2.0700000000000D+00 -3.3987029229850D-03 -7.4482386515565D-02
   209  2.0800000000000D+00 -1.4732703832587D-02 -7.0186811390989D-02
   210  2.0900000000000D+00 -2.5341613735664D-02 -6.6007339378410D-02
   211  2.1000000000000D+00 -3.5233492960521D-02 -6.1947925373332D-02
   212  2.1100000000000D+00 -4.4417932887263D-02 -5.8012028926839D-02
   213  2.1200000000000D+00 -5.2905991068950D-02 -5.4202623842272D-02
   214  2.1300000000000D+00 -6.0710123212196D-02 -5.0522208782018D-02
   215  2.1400000000000D+00 -6.7844111862474D-02 -4.6972818967806D-02
   216  2.1500000000000D+00 -7.4322992353992D-02 -4.3556038824580D-02
   217  2.1600000000000D+00 -8.0162976288655D-02 -4.0273015515831D-02
   218  2.1700000000000D+00 -8.5381372696462D-02 -3.7124473367038D-02
   219  2.1800000000000D+00 -8.9996507376709D-02 -3.4110729023385D-02
   220  2.1900000000000D+00 -9.4027640601889D-02 -3.1231707346698D-02
   221  2.2000000000000D+00 -9.7494883537253D-02 -2.8486957953656D-02
   222  2.2100000000000D+00 -1.0041911365523D-01 -2.5875672317566D-02
   223  2.2200000000000D+00 -1.0282188955283D-01 -2.3396701390266D-02
   224  2.2300000000000D+00 -1.0472536531159D-01 -2.1048573657228D-02
   225  2.2400000000000D+00 -1.0615220484373D-01 -1.8829513558936D-02
   226  2.2500000000000D+00 -1.0712549657494D-01 -1.6737460201803D-02
   227  2.2600000000000D+00 -1.0766866842110D-01 -1.4770086327047D-02
   228  2.2700000000000D+00 -1.0780540388449D-01 -1.2924817402532D-02
   229  2.2800000000000D+00 -1.0755955916192D-01 -1.1198850821519D-02
   230  2.2900000000000D+00 -1.0695508140938D-01 -9.5891751655391D-03
   231  2.3000000000000D+00 -1.0601592914975D-01 -8.0925893508264D-03
   232  2.3100000000000D+00 -1.0476599416702D-01 -6.7057217445103D-03
   233  2.3200000000000D+00 -1.0322902564784D-01 -5.4250491033270D-03
   234  2.3300000000000D+00 -1.0142855706865D-01 -4.2469152271789D-03
   235  2.3400000000000D+00 -9.9387835110249D-02 -3.1675494407580D-03
   236  2.3500000000000D+00 -9.7129751860058D-02 -2.1830846546145D-03
   237  2.3600000000000D+00 -9.4676780133433D-02 -1.2895750201448D-03
   238  2.3700000000000D+00 -9.2050911295595D-02 -4.8301328356547D-04
   239  2.3800000000000D+00 -8.9273597349486D-02  2.4065251806860D-04
   240  2.3900000000000D+00 -8.6365696265528D-02  8.8550283458111D-04
   241  2.4000000000000D+00 -8.3347420297305D-02  1.4556308138745D-03
   242  2.4100000000000D+00 -8.0238289312384D-02  1.9551273680408D-03
   243  2.4200000000000D+00 -7.7057087267736D-02  2.3880667317368D-03
   244  2.4300000000000D+00 -7.3821822363471D-02  2.7584926318292D-03
   245  2.4400000000000D+00 -7.0549692322807D-02  3.0704053800616D-03
   246  2.4500000000000D+00 -6.7257052938565D-02  3.3277495183714D-03
   247  2.4600000000000D+00 -6.3959390697993D-02  3.5344021967844D-03
   248  2.4700000000000D+00 -6.0671300506124D-02  3.6941625122871D-03
   249  2.4800000000000D+00 -5.7406466689687D-02  3.8107414378630D-03
   250  2.4900000000000D+00 -5.4177648281271D-02  3.8877525658907D-03
   251  2.5000000000000D+00 -5.0996669227081D-02  3.9287038176850D-03
   252  2.5100000000000D+00 -4.7874411795249D-02  3.9369897609275D-03
   253  2.5200000000000D+00 -4.4820814235384D-02  3.9158847750018D-03
   254  2.5300000000000D+00 -4.1844873088709D-02  3.8685371657775D-03
   255  2.5400000000000D+00 -3.8954648518419D-02  3.7979638842655D-03
   256  2.5500000000000D+00 -3.6157273628259D-02  3.7070460762193D-03
   257  2.5600000000000D+00 -3.3458968078318D-02  3.5985255465811D-03
   258  2.5700000000000D+00 -3.0865054449409D-02  3.4750018037219D-03
   259  2.5800000000000D+00 -2.8379978117057D-02  3.3389298692323D-03
   260  2.5900000000000D+00 -2.6007330997362D-02  3.1926189524912D-03
   261  2.6000000000000D+00 -2.3749877685348D-02  3.0382316619948D-03
   262  2.6100000000000D+00 -2.1609584458483D-02  2.8777838771479D-03
   263  2.6200000000000D+00 -1.9587651640170D-02  2.7131454169387D-03
   264  2.6300000000000D+00 -1.7684547923260D-02  2.5460411848951D-03
   265  2.6400000000000D+00 -1.5900046833168D-02  2.3780528459079D-03
   266  2.6500000000000D+00 -1.4233265912985D-02  2.2106212065814D-03
   267  2.6600000000000D+00 -1.2682707365725D-02  2.0450489950760D-03
   268  2.6700000000000D+00 -1.1246300149812D-02  1.8825040447196D-03
   269  2.6800000000000D+00 -9.9214439706140D-03  1.7240230506258D-03
   270  2.6900000000000D+00 -8.7050541520343D-03  1.5705156263754D-03
   271  2.7000000000000D+00 -7.5936074765731D-03  1.4227686840586D-03
   272  2.7100000000000D+00 -6.5831887856386D-03  1.2814511757358D-03
   273  2.7200000000000D+00 -5.6695379809948D-03  1.1471190615339D-03
   274  2.7300000000000D+00 -4.8480974610336D-03  1.0202205138617D-03
   275  2.7400000000000D+00 -4.1140593165796D-03  9.0110127868659D-04
   276  2.7500000000000D+00 -3.4624122657124D-03  7.9001016363142D-04
   277  2.7600000000000D+00 -2.8879884280163D-03  6.8710465721257D-04
   278  2.7700000000000D+00 -2.3855093218138D-03  5.9245658608322D-04
   279  2.7800000000000D+00 -1.9496305256199D-03  5.0605771753214D-04
   280  2.7900000000000D+00 -1.5749855443771D-03  4.2782537839331D-04
   281  2.8000000000000D+00 -1.2562290363087D-03  3.5760812197914D-04
   282  2.8100000000000D+00 -9.8807702764697D-04  2.9519103879864D-04
   283  2.8200000000000D+00 -7.6534612485803D-04  2.4030104219624D-04
   284  2.8300000000000D+00 -5.8299183484886D-04  1.9261215753328D-04
   285  2.8400000000000D+00 -4.3614313527667D-04  1.5175030338544D-04
   286  2.8500000000000D+00 -3.2015519500582D-04  1.1730143298382D-04
   287  2.8600000000000D+00 -2.3059579524396D-04  8.8808116188848D-05
   288  2.8700000000000D+00 -1.6324930212386D-04  6.5769370780224D-05
   289  2.8800000000000D+00 -1.1423889849531D-04  4.7661529664874D-05
   290  2.8900000000000D+00 -7.9704044892415D-05  3.3822165413206D-05
   291  2.9000000000000D+00 -5.7015930833844D-05  2.3878787657462D-05
   292  2.9100000000000D+00 -4.3485193445134D-05  1.7288748753125D-05
   293  2.9200000000000D+00 -3.7225238764997D-05  1.3675771168535D-05
   294  2.9300000000000D+00 -3.5262886359137D-05  1.2095709766632D-05
   295  2.9400000000000D+00 -3.4019103125537D-05  1.1241543285205D-05
   296  2.9500000000000D+00 -3.1017119608824D-05  1.0138691012490D-05
   297  2.9600000000000D+00 -2.3014960719608D-05  7.4712486699591D-06
   298  2.9700000000000D+00 -1.3304110848281D-05  4.3124542765943D-06
   299  2.9800000000000D+00 -3.8994134687835D-06  1.2654664496514D-06
   300  2.9900000000000D+00  1.9070894802274D-06 -6.0734765098397D-07
   301  3.0000000000000D+00  3.3384767698476D-06 -1.0608271852946D-06
   302  3.0100000000000D+00  2.3454337895940D-06 -7.4408106622139D-07
   303  3.0200000000000D+00  1.7977855120466D-07 -5.6966699943079D-08
   304  3.0300000000000D+00 -5.7816454026497D-07  1.8414221690706D-07
   305  3.0400000000000D+00 -7.0729031263778D-07  2.2502595014885D-07
   306  3.0500000000000D+00 -3.7689109479261D-07  1.1979769192789D-07
   307  3.0600000000000D+00  2.5998358270271D-08 -8.5022725245646D-09
   308  3.0700000000000D+00  8.2691786856898D-08 -2.7042788628869D-08
   309  3.0800000000000D+00  7.9275925189531D-08 -2.5925695522441D-08
   310  3.0900000000000D+00  2.6168289876026D-08 -8.5578454498873D-09
   311  3.1000000000000D+00  0.0000000000000D+00  0.0000000000000D+00
   312  3.1100000000000D+00  0.0000000000000D+00  0.0000000000000D+00
   313  3.1200000000000D+00  0.0000000000000D+00  0.0000000000000D+00
   314  3.1300000000000D+00  0.0000000000000D+00  0.0000000000000D+00
   315  3.1400000000000D+00  0.0000000000000D+00  0.0000000000000D+00
   316  3.1500000000000D+00  0.0000000000000D+00  0.0000000000000D+00
   317  3.1600000000000D+00  0.0000000000000D+00  0.0000000000000D+00
   318  3.1700000000000D+00  0.0000000000000D+00  0.0000000000000D+00
   319  3.1800000000000D+00  0.0000000000000D+00  0.0000000000000D+00
   320  3.1900000000000D+00  0.0000000000000D+00  0.0000000000000D+00
   321  3.2000000000000D+00  0.0000000000000D+00  0.0000000000000D+00
   322  3.2100000000000D+00  0.0000000000000D+00  0.0000000000000D+00
   323  3.2200000000000D+00  0.0000000000000D+00  0.0000000000000D+00
   324  3.2300000000000D+00  0.0000000000000D+00  0.0000000000000D+00
   325  3.2400000000000D+00  0.0000000000000D+00  0.0000000000000D+00
   326  3.2500000000000D+00  0.0000000000000D+00  0.0000000000000D+00
   327  3.2600000000000D+00  0.0000000000000D+00  0.0000000000000D+00
   328  3.2700000000000D+00  0.0000000000000D+00  0.0000000000000D+00
   329  3.2800000000000D+00  0.0000000000000D+00  0.0000000000000D+00
   330  3.2900000000000D+00  0.0000000000000D+00  0.0000000000000D+00
   331  3.3000000000000D+00  0.0000000000000D+00  0.0000000000000D+00
   332  3.3100000000000D+00  0.0000000000000D+00  0.0000000000000D+00
   333  3.3200000000000D+00  0.0000000000000D+00  0.0000000000000D+00
   334  3.3300000000000D+00  0.0000000000000D+00  0.0000000000000D+00
   335  3.3400000000000D+00  0.0000000000000D+00  0.0000000000000D+00
   336  3.3500000000000D+00  0.0000000000000D+00  0.0000000000000D+00
   337  3.3600000000000D+00  0.0000000000000D+00  0.0000000000000D+00
   338  3.3700000000000D+00  0.0000000000000D+00  0.0000000000000D+00
   339  3.3800000000000D+00  0.0000000000000D+00  0.0000000000000D+00
   340  3.3900000000000D+00  0.0000000000000D+00  0.0000000000000D+00
   341  3.4000000000000D+00  0.0000000000000D+00  0.0000000000000D+00
   342  3.4100000000000D+00  0.0000000000000D+00  0.0000000000000D+00
   343  3.4200000000000D+00  0.0000000000000D+00  0.0000000000000D+00
   344  3.4300000000000D+00  0.0000000000000D+00  0.0000000000000D+00
   345  3.4400000000000D+00  0.0000000000000D+00  0.0000000000000D+00
   346  3.4500000000000D+00  0.0000000000000D+00  0.0000000000000D+00
   347  3.4600000000000D+00  0.0000000000000D+00  0.0000000000000D+00
   348  3.4700000000000D+00  0.0000000000000D+00  0.0000000000000D+00
   349  3.4800000000000D+00  0.0000000000000D+00  0.0000000000000D+00
   350  3.4900000000000D+00  0.0000000000000D+00  0.0000000000000D+00
   351  3.5000000000000D+00  0.0000000000000D+00  0.0000000000000D+00
   352  3.5100000000000D+00  0.0000000000000D+00  0.0000000000000D+00
   353  3.5200000000000D+00  0.0000000000000D+00  0.0000000000000D+00
   354  3.5300000000000D+00  0.0000000000000D+00  0.0000000000000D+00
   355  3.5400000000000D+00  0.0000000000000D+00  0.0000000000000D+00
   356  3.5500000000000D+00  0.0000000000000D+00  0.0000000000000D+00
   357  3.5600000000000D+00  0.0000000000000D+00  0.0000000000000D+00
   358  3.5700000000000D+00  0.0000000000000D+00  0.0000000000000D+00
   359  3.5800000000000D+00  0.0000000000000D+00  0.0000000000000D+00
   360  3.5900000000000D+00  0.0000000000000D+00  0.0000000000000D+00
   361  3.6000000000000D+00  0.0000000000000D+00  0.0000000000000D+00
   362  3.6100000000000D+00  0.0000000000000D+00  0.0000000000000D+00
   363  3.6200000000000D+00  0.0000000000000D+00  0.0000000000000D+00
   364  3.6300000000000D+00  0.0000000000000D+00  0.0000000000000D+00
   365  3.6400000000000D+00  0.0000000000000D+00  0.0000000000000D+00
   366  3.6500000000000D+00  0.0000000000000D+00  0.0000000000000D+00
   367  3.6600000000000D+00  0.0000000000000D+00  0.0000000000000D+00
   368  3.6700000000000D+00  0.0000000000000D+00  0.0000000000000D+00
   369  3.6800000000000D+00  0.0000000000000D+00  0.0000000000000D+00
   370  3.6900000000000D+00  0.0000000000000D+00  0.0000000000000D+00
   371  3.7000000000000D+00  0.0000000000000D+00  0.0000000000000D+00
   372  3.7100000000000D+00  0.0000000000000D+00  0.0000000000000D+00
   373  3.7200000000000D+00  0.0000000000000D+00  0.0000000000000D+00
   374  3.7300000000000D+00  0.0000000000000D+00  0.0000000000000D+00
   375  3.7400000000000D+00  0.0000000000000D+00  0.0000000000000D+00
   376  3.7500000000000D+00  0.0000000000000D+00  0.0000000000000D+00
   377  3.7600000000000D+00  0.0000000000000D+00  0.0000000000000D+00
   378  3.7700000000000D+00  0.0000000000000D+00  0.0000000000000D+00
   379  3.7800000000000D+00  0.0000000000000D+00  0.0000000000000D+00
   380  3.7900000000000D+00  0.0000000000000D+00  0.0000000000000D+00
   381  3.8000000000000D+00  0.0000000000000D+00  0.0000000000000D+00
   382  3.8100000000000D+00  0.0000000000000D+00  0.0000000000000D+00
   383  3.8200000000000D+00  0.0000000000000D+00  0.0000000000000D+00
   384  3.8300000000000D+00  0.0000000000000D+00  0.0000000000000D+00
   385  3.8400000000000D+00  0.0000000000000D+00  0.0000000000000D+00
   386  3.8500000000000D+00  0.0000000000000D+00  0.0000000000000D+00
   387  3.8600000000000D+00  0.0000000000000D+00  0.0000000000000D+00
   388  3.8700000000000D+00  0.0000000000000D+00  0.0000000000000D+00
   389  3.8800000000000D+00  0.0000000000000D+00  0.0000000000000D+00
   390  3.8900000000000D+00  0.0000000000000D+00  0.0000000000000D+00
   391  3.9000000000000D+00  0.0000000000000D+00  0.0000000000000D+00
   392  3.9100000000000D+00  0.0000000000000D+00  0.0000000000000D+00
   393  3.9200000000000D+00  0.0000000000000D+00  0.0000000000000D+00
   394  3.9300000000000D+00  0.0000000000000D+00  0.0000000000000D+00
   395  3.9400000000000D+00  0.0000000000000D+00  0.0000000000000D+00
   396  3.9500000000000D+00  0.0000000000000D+00  0.0000000000000D+00
   397  3.9600000000000D+00  0.0000000000000D+00  0.0000000000000D+00
   398  3.9700000000000D+00  0.0000000000000D+00  0.0000000000000D+00
   399  3.9800000000000D+00  0.0000000000000D+00  0.0000000000000D+00
   400  3.9900000000000D+00  0.0000000000000D+00  0.0000000000000D+00
   401  4.0000000000000D+00  0.0000000000000D+00  0.0000000000000D+00
   402  4.0100000000000D+00  0.0000000000000D+00  0.0000000000000D+00
   403  4.0200000000000D+00  0.0000000000000D+00  0.0000000000000D+00
   404  4.0300000000000D+00  0.0000000000000D+00  0.0000000000000D+00
   405  4.0400000000000D+00  0.0000000000000D+00  0.0000000000000D+00
   406  4.0500000000000D+00  0.0000000000000D+00  0.0000000000000D+00
   407  4.0600000000000D+00  0.0000000000000D+00  0.0000000000000D+00
   408  4.0700000000000D+00  0.0000000000000D+00  0.0000000000000D+00
   409  4.0800000000000D+00  0.0000000000000D+00  0.0000000000000D+00
   410  4.0900000000000D+00  0.0000000000000D+00  0.0000000000000D+00
   411  4.1000000000000D+00  0.0000000000000D+00  0.0000000000000D+00
   412  4.1100000000000D+00  0.0000000000000D+00  0.0000000000000D+00
   413  4.1200000000000D+00  0.0000000000000D+00  0.0000000000000D+00
   414  4.1300000000000D+00  0.0000000000000D+00  0.0000000000000D+00
   415  4.1400000000000D+00  0.0000000000000D+00  0.0000000000000D+00
   416  4.1500000000000D+00  0.0000000000000D+00  0.0000000000000D+00
   417  4.1600000000000D+00  0.0000000000000D+00  0.0000000000000D+00
   418  4.1700000000000D+00  0.0000000000000D+00  0.0000000000000D+00
   419  4.1800000000000D+00  0.0000000000000D+00  0.0000000000000D+00
   420  4.1900000000000D+00  0.0000000000000D+00  0.0000000000000D+00
   421  4.2000000000000D+00  0.0000000000000D+00  0.0000000000000D+00
   422  4.2100000000000D+00  0.0000000000000D+00  0.0000000000000D+00