Au    ONCVPSP-3.3.1  r_core=   2.46102   2.46102   2.18429   3.16160
     79.0000     19.0000      210904    zatom,zion,pspd
     8       2   3     4   600     0    pspcod,pspxc,lmax,lloc,mmax,r2well
  5.99000000  0.00000000  0.00000000    rchrg fchrg qchrg
     2     4     4     3    nproj
     3     1           extension_switch
     4     4     4    nprojso
   0                         5.0695652438583D-01  4.0316224709276D+00
     1  0.0000000000000D+00 -1.5589057822396D-11 -3.0847546739210D-13
     2  1.0000000000000D-02  8.3704188798382D-03  5.5860914521496D-02
     3  2.0000000000000D-02  1.6735492258411D-02  1.1163207937625D-01
     4  3.0000000000000D-02  2.5089982926130D-02  1.6722389873151D-01
     5  4.0000000000000D-02  3.3428869496632D-02  2.2254708419782D-01
     6  5.0000000000000D-02  4.1747452422020D-02  2.7751280798880D-01
     7  6.0000000000000D-02  5.0041457743482D-02  3.3203285540708D-01
     8  7.0000000000000D-02  5.8307137840811D-02  3.8601977643192D-01
     9  8.0000000000000D-02  6.6541368459909D-02  4.3938703618448D-01
    10  9.0000000000000D-02  7.4741741316818D-02  4.9204916404713D-01
    11  1.0000000000000D-01  8.2906651599962D-02  5.4392190121349D-01
    12  1.1000000000000D-01  9.1035379718890D-02  5.9492234644663D-01
    13  1.2000000000000D-01  9.9128166678179D-02  6.4496909982329D-01
    14  1.3000000000000D-01  1.0718628248850D-01  6.9398240424282D-01
    15  1.4000000000000D-01  1.1521208706384D-01  7.4188428448057D-01
    16  1.5000000000000D-01  1.2320908309349D-01  7.8859868356618D-01
    17  1.6000000000000D-01  1.3118196042020D-01  8.3405159626857D-01
    18  1.7000000000000D-01  1.3913663150128D-01  8.7817119947070D-01
    19  1.8000000000000D-01  1.4708025757715D-01  9.2088797921865D-01
    20  1.9000000000000D-01  1.5502126522228D-01  9.6213485423109D-01
    21  2.0000000000000D-01  1.6296935300524D-01  1.0018472956575D+00
    22  2.1000000000000D-01  1.7093548803894D-01  1.0399634428747D+00
    23  2.2000000000000D-01  1.7893189225750D-01  1.0764242151153D+00
    24  2.3000000000000D-01  1.8697201831317D-01  1.1111734187217D+00
    25  2.4000000000000D-01  1.9507051504462D-01  1.1441578498247D+00
    26  2.5000000000000D-01  2.0324318252675D-01  1.1753273922474D+00
    27  2.6000000000000D-01  2.1150691677132D-01  1.2046351104386D+00
    28  2.7000000000000D-01  2.1987964420712D-01  1.2320373372453D+00
    29  2.8000000000000D-01  2.2838024612821D-01  1.2574937563350D+00
    30  2.9000000000000D-01  2.3702847335721D-01  1.2809674790863D+00
    31  3.0000000000000D-01  2.4584485142987D-01  1.3024251157695D+00
    32  3.1000000000000D-01  2.5485057666391D-01  1.3218368408441D+00
    33  3.2000000000000D-01  2.6406740353227D-01  1.3391764522066D+00
    34  3.3000000000000D-01  2.7351752381517D-01  1.3544214242285D+00
    35  3.4000000000000D-01  2.8322343805870D-01  1.3675529544300D+00
    36  3.5000000000000D-01  2.9320781991891D-01  1.3785560036422D+00
    37  3.6000000000000D-01  3.0349337401887D-01  1.3874193295210D+00
    38  3.7000000000000D-01  3.1410268799230D-01  1.3941355132790D+00
    39  3.8000000000000D-01  3.2505807943098D-01  1.3987009795165D+00
    40  3.9000000000000D-01  3.3638143849302D-01  1.4011160090365D+00
    41  4.0000000000000D-01  3.4809406696634D-01  1.4013847445430D+00
    42  4.1000000000000D-01  3.6021651461468D-01  1.3995151891293D+00
    43  4.2000000000000D-01  3.7276841366351D-01  1.3955191974756D+00
    44  4.3000000000000D-01  3.8576831230840D-01  1.3894124596862D+00
    45  4.4000000000000D-01  3.9923350815039D-01  1.3812144777096D+00
    46  4.5000000000000D-01  4.1317988247970D-01  1.3709485342962D+00
    47  4.6000000000000D-01  4.2762173634241D-01  1.3586416544640D+00
    48  4.7000000000000D-01  4.4257162933223D-01  1.3443245594531D+00
    49  4.8000000000000D-01  4.5804022205407D-01  1.3280316131685D+00
    50  4.9000000000000D-01  4.7403612320386D-01  1.3098007611230D+00
    51  5.0000000000000D-01  4.9056574220385D-01  1.2896734619072D+00
    52  5.1000000000000D-01  5.0763314832129D-01  1.2676946112330D+00
    53  5.2000000000000D-01  5.2523993718291D-01  1.2439124586099D+00
    54  5.3000000000000D-01  5.4338510557692D-01  1.2183785167316D+00
    55  5.4000000000000D-01  5.6206493540870D-01  1.1911474636701D+00
    56  5.5000000000000D-01  5.8127288764631D-01  1.1622770379888D+00
    57  5.6000000000000D-01  6.0099950705679D-01  1.1318279269067D+00
    58  5.7000000000000D-01  6.2123233849493D-01  1.0998636476633D+00
    59  5.8000000000000D-01  6.4195585546190D-01  1.0664504222535D+00
    60  5.9000000000000D-01  6.6315140160280D-01  1.0316570457194D+00
    61  6.0000000000000D-01  6.8479714576004D-01  9.9555474820563D-01
    62  6.1000000000000D-01  7.0686805114244D-01  9.5821705100530D-01
    63  6.2000000000000D-01  7.2933585911011D-01  9.1971961683987D-01
    64  6.3000000000000D-01  7.5216908801153D-01  8.8014009463847D-01
    65  6.4000000000000D-01  7.7533304744185D-01  8.3955795909936D-01
    66  6.5000000000000D-01  7.9878986822237D-01  7.9805434533563D-01
    67  6.6000000000000D-01  8.2249854832769D-01  7.5571187892584D-01
    68  6.7000000000000D-01  8.4641501491325D-01  7.1261450170833D-01
    69  6.8000000000000D-01  8.7049220251819D-01  6.6884729367582D-01
    70  6.9000000000000D-01  8.9468014744075D-01  6.2449629134422D-01
    71  7.0000000000000D-01  9.1892609820358D-01  5.7964830298616D-01
    72  7.1000000000000D-01  9.4317464194544D-01  5.3439072113574D-01
    73  7.2000000000000D-01  9.6736784649541D-01  4.8881133278633D-01
    74  7.3000000000000D-01  9.9144541780374D-01  4.4299812771766D-01
    75  7.4000000000000D-01  1.0153448723234D+00  3.9703910540160D-01
    76  7.5000000000000D-01  1.0390017238559D+00  3.5102208094886D-01
    77  7.6000000000000D-01  1.0623496842964D+00  3.0503449056994D-01
    78  7.7000000000000D-01  1.0853208776346D+00  2.5916319703379D-01
    79  7.8000000000000D-01  1.1078460664942D+00  2.1349429561668D-01
    80  7.9000000000000D-01  1.1298548904190D+00  1.6811292104120D-01
    81  8.0000000000000D-01  1.1512761150439D+00  1.2310305591151D-01
    82  8.1000000000000D-01  1.1720378912231D+00  7.8547341155633D-02
    83  8.2000000000000D-01  1.1920680231204D+00  3.4526888988706D-02
    84  8.3000000000000D-01  1.2112942442129D+00 -8.8789010873540D-03
    85  8.4000000000000D-01  1.2296445000964D+00 -5.1592522732467D-02
    86  8.5000000000000D-01  1.2470472369361D+00 -9.3538539151797D-02
    87  8.6000000000000D-01  1.2634316943567D+00 -1.3464375490395D-01
    88  8.7000000000000D-01  1.2787282015257D+00 -1.7483738262944D-01
    89  8.8000000000000D-01  1.2928684751486D+00 -2.1405120420196D-01
    90  8.9000000000000D-01  1.3057859180654D+00 -2.5221972581393D-01
    91  9.0000000000000D-01  1.3174159171111D+00 -2.8928032651865D-01
    92  9.1000000000000D-01  1.3276961388905D+00 -3.2517339976411D-01
    93  9.2000000000000D-01  1.3365668220988D+00 -3.5984248746782D-01
    94  9.3000000000000D-01  1.3439710650220D+00 -3.9323440619839D-01
    95  9.4000000000000D-01  1.3498551068452D+00 -4.2529936504780D-01
    96  9.5000000000000D-01  1.3541686014113D+00 -4.5599107479797D-01
    97  9.6000000000000D-01  1.3568648820810D+00 -4.8526684800704D-01
    98  9.7000000000000D-01  1.3579012163709D+00 -5.1308768966380D-01
    99  9.8000000000000D-01  1.3572390490708D+00 -5.3941837808394D-01
   100  9.9000000000000D-01  1.3548442325765D+00 -5.6422753574797D-01
   101  1.0000000000000D+00  1.3506872432146D+00 -5.8748768980834D-01
   102  1.0100000000000D+00  1.3447433823820D+00 -6.0917532202335D-01
   103  1.0200000000000D+00  1.3369929613751D+00 -6.2927090790528D-01
   104  1.0300000000000D+00  1.3274214688427D+00 -6.4775894490239D-01
   105  1.0400000000000D+00  1.3160197198597D+00 -6.6462796946686D-01
   106  1.0500000000000D+00  1.3027839856891D+00 -6.7987056289614D-01
   107  1.0600000000000D+00  1.2877161033706D+00 -6.9348334586622D-01
   108  1.0700000000000D+00  1.2708235643561D+00 -7.0546696161532D-01
   109  1.0800000000000D+00  1.2521195814960D+00 -7.1582604776915D-01
   110  1.0900000000000D+00  1.2316231337624D+00 -7.2456919683654D-01
   111  1.1000000000000D+00  1.2093589881936D+00 -7.3170890544183D-01
   112  1.1100000000000D+00  1.1853576986247D+00 -7.3726151239294D-01
   113  1.1200000000000D+00  1.1596555808798D+00 -7.4124712572723D-01
   114  1.1300000000000D+00  1.1322946641887D+00 -7.4368953890839D-01
   115  1.1400000000000D+00  1.1033226187039D+00 -7.4461613638953D-01
   116  1.1500000000000D+00  1.0727926590662D+00 -7.4405778878307D-01
   117  1.1600000000000D+00  1.0407634241036D+00 -7.4204873792600D-01
   118  1.1700000000000D+00  1.0072988328289D+00 -7.3862647215482D-01
   119  1.1800000000000D+00  9.7246791701221D-01 -7.3383159214211D-01
   120  1.1900000000000D+00  9.3634463068161D-01 -7.2770766767102D-01
   121  1.2000000000000D+00  8.9900763704042D-01 -7.2030108576679D-01
   122  1.2100000000000D+00  8.6054007336938D-01 -7.1166089062749D-01
   123  1.2200000000000D+00  8.2102929455483D-01 -7.0183861581872D-01
   124  1.2300000000000D+00  7.8056659600759D-01 -6.9088810923252D-01
   125  1.2400000000000D+00  7.3924691681997D-01 -6.7886535133292D-01
   126  1.2500000000000D+00  6.9716852407203D-01 -6.6582826722734D-01
   127  1.2600000000000D+00  6.5443267928562D-01 -6.5183653312683D-01
   128  1.2700000000000D+00  6.1114328812600D-01 -6.3695137778120D-01
   129  1.2800000000000D+00  5.6740653448336D-01 -6.2123537948193D-01
   130  1.2900000000000D+00  5.2333050013710D-01 -6.0475225924298D-01
   131  1.3000000000000D+00  4.7902477130087D-01 -5.8756667078571D-01
   132  1.3100000000000D+00  4.3460003334768D-01 -5.6974398795301D-01
   133  1.3200000000000D+00  3.9016765508454D-01 -5.5135009019166D-01
   134  1.3300000000000D+00  3.4583926400376D-01 -5.3245114674225D-01
   135  1.3400000000000D+00  3.0172631392430D-01 -5.1311340017494D-01
   136  1.3500000000000D+00  2.5793964650609D-01 -4.9340294991517D-01
   137  1.3600000000000D+00  2.1458904811571D-01 -4.7338553638331D-01
   138  1.3700000000000D+00  1.7178280353136D-01 -4.5312632638850D-01
   139  1.3800000000000D+00  1.2962724799757D-01 -4.3268970038590D-01
   140  1.3900000000000D+00  8.8226319101589D-02 -4.1213904219772D-01
   141  1.4000000000000D+00  4.7681109989564D-02 -3.9153653181156D-01
   142  1.4100000000000D+00  8.0894253412877D-03 -3.7094294179536D-01
   143  1.4200000000000D+00 -3.0454658413049D-02 -3.5041743791789D-01
   144  1.4300000000000D+00 -6.7861227240234D-02 -3.3001738449165D-01
   145  1.4400000000000D+00 -1.0404495668660D-01 -3.0979815493138D-01
   146  1.4500000000000D+00 -1.3892553066285D-01 -2.8981294806614D-01
   147  1.4600000000000D+00 -1.7242805071964D-01 -2.7011261057847D-01
   148  1.4700000000000D+00 -2.0448343441586D-01 -2.5074546608962D-01
   149  1.4800000000000D+00 -2.3502880177023D-01 -2.3175715121297D-01
   150  1.4900000000000D+00 -2.6400784865033D-01 -2.1319045897184D-01
   151  1.5000000000000D+00 -2.9137120601866D-01 -1.9508518993687D-01
   152  1.5100000000000D+00 -3.1707678430106D-01 -1.7747801129116D-01
   153  1.5200000000000D+00 -3.4109010168004D-01 -1.6040232422891D-01
   154  1.5300000000000D+00 -3.6338459597528D-01 -1.4388813972347D-01
   155  1.5400000000000D+00 -3.8394191894461D-01 -1.2796196305457D-01
   156  1.5500000000000D+00 -4.0275226683799D-01 -1.1264667250427D-01
   157  1.5600000000000D+00 -4.1981442782840D-01 -9.7961478331706D-02
   158  1.5700000000000D+00 -4.3513559043553D-01 -8.3921950076669D-02
   159  1.5800000000000D+00 -4.4873450946266D-01 -7.0539142686478D-02
   160  1.5900000000000D+00 -4.6064107219959D-01 -5.7819695826414D-02
   161  1.6000000000000D+00 -4.7088048338131D-01 -4.5770088201588D-02
   162  1.6100000000000D+00 -4.7948473972240D-01 -3.4393527024577D-02
   163  1.6200000000000D+00 -4.8653375836079D-01 -2.3678864399490D-02
   164  1.6300000000000D+00 -4.9212292697366D-01 -1.3609344000137D-02
   165  1.6400000000000D+00 -4.9630631235286D-01 -4.1778684454518D-03
   166  1.6500000000000D+00 -4.9912455755032D-01  4.6203827286910D-03
   167  1.6600000000000D+00 -5.0063326994033D-01  1.2795428968653D-02
   168  1.6700000000000D+00 -5.0088955520337D-01  2.0358846662765D-02
   169  1.6800000000000D+00 -4.9994837239324D-01  2.7322745543233D-02
   170  1.6900000000000D+00 -4.9786569888583D-01  3.3700546868407D-02
   171  1.7000000000000D+00 -4.9469807937876D-01  3.9506805012285D-02
   172  1.7100000000000D+00 -4.9050244561177D-01  4.4757100839385D-02
   173  1.7200000000000D+00 -4.8533605023255D-01  4.9467966197471D-02
   174  1.7300000000000D+00 -4.7925637597729D-01  5.3656802632272D-02
   175  1.7400000000000D+00 -4.7232103767624D-01  5.7341799044982D-02
   176  1.7500000000000D+00 -4.6458767787000D-01  6.0541848622295D-02
   177  1.7600000000000D+00 -4.5611385702179D-01  6.3276465333602D-02
   178  1.7700000000000D+00 -4.4695693907216D-01  6.5565700317713D-02
   179  1.7800000000000D+00 -4.3717397323975D-01  6.7430058421909D-02
   180  1.7900000000000D+00 -4.2682157298437D-01  6.8890415258175D-02
   181  1.8000000000000D+00 -4.1595579287745D-01  6.9967934992308D-02
   182  1.8100000000000D+00 -4.0463200437323D-01  7.0683989237823D-02
   183  1.8200000000000D+00 -3.9290477116161D-01  7.1060077259463D-02
   184  1.8300000000000D+00 -3.8082772507900D-01  7.1117747826363D-02
   185  1.8400000000000D+00 -3.6845344331605D-01  7.0878522956487D-02
   186  1.8500000000000D+00 -3.5583332764547D-01  7.0363823777960D-02
   187  1.8600000000000D+00 -3.4301748666179D-01  6.9594898856277D-02
   188  1.8700000000000D+00 -3.3005462129599D-01  6.8592755024146D-02
   189  1.8800000000000D+00 -3.1699191509154D-01  6.7378091251478D-02
   190  1.8900000000000D+00 -3.0387492881710D-01  6.5971235334466D-02
   191  1.9000000000000D+00 -2.9074750133632D-01  6.4392084097096D-02
   192  1.9100000000000D+00 -2.7765165599766D-01  6.2660046775985D-02
   193  1.9200000000000D+00 -2.6462751423935D-01  6.0793992182659D-02
   194  1.9300000000000D+00 -2.5171321611473D-01  5.8812199492220D-02
   195  1.9400000000000D+00 -2.3894484848261D-01  5.6732312891078D-02
   196  1.9500000000000D+00 -2.2635638160304D-01  5.4571300316734D-02
   197  1.9600000000000D+00 -2.1397961344215D-01  5.2345415997861D-02
   198  1.9700000000000D+00 -2.0184412369237D-01  5.0070167480713D-02
   199  1.9800000000000D+00 -1.8997723566212D-01  4.7760286444348D-02
   200  1.9900000000000D+00 -1.7840398830072D-01  4.5429704074250D-02
   201  2.0000000000000D+00 -1.6714711690973D-01  4.3091530446679D-02
   202  2.0100000000000D+00 -1.5622704336202D-01  4.0758038176369D-02
   203  2.0200000000000D+00 -1.4566187622695D-01  3.8440650431731D-02
   204  2.0300000000000D+00 -1.3546741927621D-01  3.6149932751819D-02
   205  2.0400000000000D+00 -1.2565719066970D-01  3.3895589424667D-02
   206  2.0500000000000D+00 -1.1624245012519D-01  3.1686463463392D-02
   207  2.0600000000000D+00 -1.0723223590897D-01  2.9530540773116D-02
   208  2.0700000000000D+00 -9.8633410521542D-02  2.7434958089006D-02
   209  2.0800000000000D+00 -9.0450714380559D-02  2.5406014412601D-02
   210  2.0900000000000D+00 -8.2686828776133D-02  2.3449186337845D-02
   211  2.1000000000000D+00 -7.5342445538565D-02  2.1569146372959D-02
   212  2.1100000000000D+00 -6.8416345064697D-02  1.9769784765579D-02
   213  2.1200000000000D+00 -6.1905481057332D-02  1.8054234248622D-02
   214  2.1300000000000D+00 -5.5805071475757D-02  1.6424897502228D-02
   215  2.1400000000000D+00 -5.0108696311466D-02  1.4883477486545D-02
   216  2.1500000000000D+00 -4.4808400001964D-02  1.3431009902196D-02
   217  2.1600000000000D+00 -3.9894799359827D-02  1.2067898006181D-02
   218  2.1700000000000D+00 -3.5357195706318D-02  1.0793949326400D-02
   219  2.1800000000000D+00 -3.1183690415948D-02  9.6084139834265D-03
   220  2.1900000000000D+00 -2.7361304029816D-02  8.5100245981579D-03
   221  2.2000000000000D+00 -2.3876097440583D-02  7.4970373055855D-03
   222  2.2100000000000D+00 -2.0713294976641D-02  6.5672737399051D-03
   223  2.2200000000000D+00 -1.7857408604956D-02  5.7181637041177D-03
   224  2.2300000000000D+00 -1.5292362641678D-02  4.9467883349647D-03
   225  2.2400000000000D+00 -1.3001618036815D-02  4.2499233343126D-03
   226  2.2500000000000D+00 -1.0968295962734D-02  3.6240822288587D-03
   227  2.2600000000000D+00 -9.1752999303512D-03  3.0655593425510D-03
   228  2.2700000000000D+00 -7.6054352379553D-03  2.5704720126255D-03
   229  2.2800000000000D+00 -6.2415263334564D-03  2.1348023048094D-03
   230  2.2900000000000D+00 -5.0665301952822D-03  1.7544374883063D-03
   231  2.3000000000000D+00 -4.0636454561787D-03  1.4252091761247D-03
   232  2.3100000000000D+00 -3.2164181544334D-03  1.1429314704200D-03
   233  2.3200000000000D+00 -2.5088407237672D-03  9.0343683298304D-04
   234  2.3300000000000D+00 -1.9254461179302D-03  7.0261039883761D-04
   235  2.3400000000000D+00 -1.4513966563969D-03  5.3642257321004D-04
   236  2.3500000000000D+00 -1.0725642606879D-03  4.0095867757399D-04
   237  2.3600000000000D+00 -7.7560545347122D-04  2.9244689048800D-04
   238  2.3700000000000D+00 -5.4802883192331D-04  2.0728363628023D-04
   239  2.3800000000000D+00 -3.7829542143790D-04  1.4205607563641D-04
   240  2.3900000000000D+00 -2.5574034281312D-04  9.3561530315900D-05
   241  2.4000000000000D+00 -1.7066881053524D-04  5.8824880040409D-05
   242  2.4100000000000D+00 -1.1415291462190D-04  3.5084711835386D-05
   243  2.4200000000000D+00 -7.9347955807899D-05  1.9904517340100D-05
   244  2.4300000000000D+00 -6.0430871952375D-05  1.1101907466022D-05
   245  2.4400000000000D+00 -5.3358381343699D-05  6.8799439098817D-06
   246  2.4500000000000D+00 -5.0434772675438D-05  5.2082319098891D-06
   247  2.4600000000000D+00 -4.5478442056959D-05  4.4543564132114D-06
   248  2.4700000000000D+00 -3.2092420847668D-05  3.1565138403748D-06
   249  2.4800000000000D+00 -1.5428503784290D-05  1.5549101489619D-06
   250  2.4900000000000D+00 -6.6800491034163D-07  6.9298015632002D-08
   251  2.5000000000000D+00  4.4223734067035D-06 -4.1957655817214D-07
   252  2.5100000000000D+00  3.7034739463194D-06 -3.5332899952564D-07
   253  2.5200000000000D+00  1.6938992150347D-07 -1.6260087274089D-08
   254  2.5300000000000D+00 -9.2986217622715D-07  8.0369194796103D-08
   255  2.5400000000000D+00 -8.7041093019982D-07  7.4771220272360D-08
   256  2.5500000000000D+00 -6.5333195724692D-08  5.5833616179749D-09
   257  2.5600000000000D+00  1.0958345278539D-07 -1.0742140849595D-08
   258  2.5700000000000D+00  1.1235174787628D-07 -1.1013508606530D-08
   259  2.5800000000000D+00  1.5816655569794D-08 -1.5504598329549D-09
   260  2.5900000000000D+00  0.0000000000000D+00  0.0000000000000D+00
   261  2.6000000000000D+00  0.0000000000000D+00  0.0000000000000D+00
   262  2.6100000000000D+00  0.0000000000000D+00  0.0000000000000D+00
   263  2.6200000000000D+00  0.0000000000000D+00  0.0000000000000D+00
   264  2.6300000000000D+00  0.0000000000000D+00  0.0000000000000D+00
   265  2.6400000000000D+00  0.0000000000000D+00  0.0000000000000D+00
   266  2.6500000000000D+00  0.0000000000000D+00  0.0000000000000D+00
   267  2.6600000000000D+00  0.0000000000000D+00  0.0000000000000D+00
   268  2.6700000000000D+00  0.0000000000000D+00  0.0000000000000D+00
   269  2.6800000000000D+00  0.0000000000000D+00  0.0000000000000D+00
   270  2.6900000000000D+00  0.0000000000000D+00  0.0000000000000D+00
   271  2.7000000000000D+00  0.0000000000000D+00  0.0000000000000D+00
   272  2.7100000000000D+00  0.0000000000000D+00  0.0000000000000D+00
   273  2.7200000000000D+00  0.0000000000000D+00  0.0000000000000D+00
   274  2.7300000000000D+00  0.0000000000000D+00  0.0000000000000D+00
   275  2.7400000000000D+00  0.0000000000000D+00  0.0000000000000D+00
   276  2.7500000000000D+00  0.0000000000000D+00  0.0000000000000D+00
   277  2.7600000000000D+00  0.0000000000000D+00  0.0000000000000D+00
   278  2.7700000000000D+00  0.0000000000000D+00  0.0000000000000D+00
   279  2.7800000000000D+00  0.0000000000000D+00  0.0000000000000D+00
   280  2.7900000000000D+00  0.0000000000000D+00  0.0000000000000D+00
   281  2.8000000000000D+00  0.0000000000000D+00  0.0000000000000D+00
   282  2.8100000000000D+00  0.0000000000000D+00  0.0000000000000D+00
   283  2.8200000000000D+00  0.0000000000000D+00  0.0000000000000D+00
   284  2.8300000000000D+00  0.0000000000000D+00  0.0000000000000D+00
   285  2.8400000000000D+00  0.0000000000000D+00  0.0000000000000D+00
   286  2.8500000000000D+00  0.0000000000000D+00  0.0000000000000D+00
   287  2.8600000000000D+00  0.0000000000000D+00  0.0000000000000D+00
   288  2.8700000000000D+00  0.0000000000000D+00  0.0000000000000D+00
   289  2.8800000000000D+00  0.0000000000000D+00  0.0000000000000D+00
   290  2.8900000000000D+00  0.0000000000000D+00  0.0000000000000D+00
   291  2.9000000000000D+00  0.0000000000000D+00  0.0000000000000D+00
   292  2.9100000000000D+00  0.0000000000000D+00  0.0000000000000D+00
   293  2.9200000000000D+00  0.0000000000000D+00  0.0000000000000D+00
   294  2.9300000000000D+00  0.0000000000000D+00  0.0000000000000D+00
   295  2.9400000000000D+00  0.0000000000000D+00  0.0000000000000D+00
   296  2.9500000000000D+00  0.0000000000000D+00  0.0000000000000D+00
   297  2.9600000000000D+00  0.0000000000000D+00  0.0000000000000D+00
   298  2.9700000000000D+00  0.0000000000000D+00  0.0000000000000D+00
   299  2.9800000000000D+00  0.0000000000000D+00  0.0000000000000D+00
   300  2.9900000000000D+00  0.0000000000000D+00  0.0000000000000D+00
   301  3.0000000000000D+00  0.0000000000000D+00  0.0000000000000D+00
   302  3.0100000000000D+00  0.0000000000000D+00  0.0000000000000D+00
   303  3.0200000000000D+00  0.0000000000000D+00  0.0000000000000D+00
   304  3.0300000000000D+00  0.0000000000000D+00  0.0000000000000D+00
   305  3.0400000000000D+00  0.0000000000000D+00  0.0000000000000D+00
   306  3.0500000000000D+00  0.0000000000000D+00  0.0000000000000D+00
   307  3.0600000000000D+00  0.0000000000000D+00  0.0000000000000D+00
   308  3.0700000000000D+00  0.0000000000000D+00  0.0000000000000D+00
   309  3.0800000000000D+00  0.0000000000000D+00  0.0000000000000D+00
   310  3.0900000000000D+00  0.0000000000000D+00  0.0000000000000D+00
   311  3.1000000000000D+00  0.0000000000000D+00  0.0000000000000D+00
   312  3.1100000000000D+00  0.0000000000000D+00  0.0000000000000D+00
   313  3.1200000000000D+00  0.0000000000000D+00  0.0000000000000D+00
   314  3.1300000000000D+00  0.0000000000000D+00  0.0000000000000D+00
   315  3.1400000000000D+00  0.0000000000000D+00  0.0000000000000D+00
   316  3.1500000000000D+00  0.0000000000000D+00  0.0000000000000D+00
   317  3.1600000000000D+00  0.0000000000000D+00  0.0000000000000D+00
   318  3.1700000000000D+00  0.0000000000000D+00  0.0000000000000D+00
   319  3.1800000000000D+00  0.0000000000000D+00  0.0000000000000D+00
   320  3.1900000000000D+00  0.0000000000000D+00  0.0000000000000D+00
   321  3.2000000000000D+00  0.0000000000000D+00  0.0000000000000D+00
   322  3.2100000000000D+00  0.0000000000000D+00  0.0000000000000D+00
   323  3.2200000000000D+00  0.0000000000000D+00  0.0000000000000D+00
   324  3.2300000000000D+00  0.0000000000000D+00  0.0000000000000D+00
   325  3.2400000000000D+00  0.0000000000000D+00  0.0000000000000D+00
   326  3.2500000000000D+00  0.0000000000000D+00  0.0000000000000D+00
   327  3.2600000000000D+00  0.0000000000000D+00  0.0000000000000D+00
   328  3.2700000000000D+00  0.0000000000000D+00  0.0000000000000D+00
   329  3.2800000000000D+00  0.0000000000000D+00  0.0000000000000D+00
   330  3.2900000000000D+00  0.0000000000000D+00  0.0000000000000D+00
   331  3.3000000000000D+00  0.0000000000000D+00  0.0000000000000D+00
   332  3.3100000000000D+00  0.0000000000000D+00  0.0000000000000D+00
   333  3.3200000000000D+00  0.0000000000000D+00  0.0000000000000D+00
   334  3.3300000000000D+00  0.0000000000000D+00  0.0000000000000D+00
   335  3.3400000000000D+00  0.0000000000000D+00  0.0000000000000D+00
   336  3.3500000000000D+00  0.0000000000000D+00  0.0000000000000D+00
   337  3.3600000000000D+00  0.0000000000000D+00  0.0000000000000D+00
   338  3.3700000000000D+00  0.0000000000000D+00  0.0000000000000D+00
   339  3.3800000000000D+00  0.0000000000000D+00  0.0000000000000D+00
   340  3.3900000000000D+00  0.0000000000000D+00  0.0000000000000D+00
   341  3.4000000000000D+00  0.0000000000000D+00  0.0000000000000D+00
   342  3.4100000000000D+00  0.0000000000000D+00  0.0000000000000D+00
   343  3.4200000000000D+00  0.0000000000000D+00  0.0000000000000D+00
   344  3.4300000000000D+00  0.0000000000000D+00  0.0000000000000D+00
   345  3.4400000000000D+00  0.0000000000000D+00  0.0000000000000D+00
   346  3.4500000000000D+00  0.0000000000000D+00  0.0000000000000D+00
   347  3.4600000000000D+00  0.0000000000000D+00  0.0000000000000D+00
   348  3.4700000000000D+00  0.0000000000000D+00  0.0000000000000D+00
   349  3.4800000000000D+00  0.0000000000000D+00  0.0000000000000D+00
   350  3.4900000000000D+00  0.0000000000000D+00  0.0000000000000D+00
   351  3.5000000000000D+00  0.0000000000000D+00  0.0000000000000D+00
   352  3.5100000000000D+00  0.0000000000000D+00  0.0000000000000D+00
   353  3.5200000000000D+00  0.0000000000000D+00  0.0000000000000D+00
   354  3.5300000000000D+00  0.0000000000000D+00  0.0000000000000D+00
   355  3.5400000000000D+00  0.0000000000000D+00  0.0000000000000D+00
   356  3.5500000000000D+00  0.0000000000000D+00  0.0000000000000D+00
   357  3.5600000000000D+00  0.0000000000000D+00  0.0000000000000D+00
   358  3.5700000000000D+00  0.0000000000000D+00  0.0000000000000D+00
   359  3.5800000000000D+00  0.0000000000000D+00  0.0000000000000D+00
   360  3.5900000000000D+00  0.0000000000000D+00  0.0000000000000D+00
   361  3.6000000000000D+00  0.0000000000000D+00  0.0000000000000D+00
   362  3.6100000000000D+00  0.0000000000000D+00  0.0000000000000D+00
   363  3.6200000000000D+00  0.0000000000000D+00  0.0000000000000D+00
   364  3.6300000000000D+00  0.0000000000000D+00  0.0000000000000D+00
   365  3.6400000000000D+00  0.0000000000000D+00  0.0000000000000D+00
   366  3.6500000000000D+00  0.0000000000000D+00  0.0000000000000D+00
   367  3.6600000000000D+00  0.0000000000000D+00  0.0000000000000D+00
   368  3.6700000000000D+00  0.0000000000000D+00  0.0000000000000D+00
   369  3.6800000000000D+00  0.0000000000000D+00  0.0000000000000D+00
   370  3.6900000000000D+00  0.0000000000000D+00  0.0000000000000D+00
   371  3.7000000000000D+00  0.0000000000000D+00  0.0000000000000D+00
   372  3.7100000000000D+00  0.0000000000000D+00  0.0000000000000D+00
   373  3.7200000000000D+00  0.0000000000000D+00  0.0000000000000D+00
   374  3.7300000000000D+00  0.0000000000000D+00  0.0000000000000D+00
   375  3.7400000000000D+00  0.0000000000000D+00  0.0000000000000D+00
   376  3.7500000000000D+00  0.0000000000000D+00  0.0000000000000D+00
   377  3.7600000000000D+00  0.0000000000000D+00  0.0000000000000D+00
   378  3.7700000000000D+00  0.0000000000000D+00  0.0000000000000D+00
   379  3.7800000000000D+00  0.0000000000000D+00  0.0000000000000D+00
   380  3.7900000000000D+00  0.0000000000000D+00  0.0000000000000D+00
   381  3.8000000000000D+00  0.0000000000000D+00  0.0000000000000D+00
   382  3.8100000000000D+00  0.0000000000000D+00  0.0000000000000D+00
   383  3.8200000000000D+00  0.0000000000000D+00  0.0000000000000D+00
   384  3.8300000000000D+00  0.0000000000000D+00  0.0000000000000D+00
   385  3.8400000000000D+00  0.0000000000000D+00  0.0000000000000D+00
   386  3.8500000000000D+00  0.0000000000000D+00  0.0000000000000D+00
   387  3.8600000000000D+00  0.0000000000000D+00  0.0000000000000D+00
   388  3.8700000000000D+00  0.0000000000000D+00  0.0000000000000D+00
   389  3.8800000000000D+00  0.0000000000000D+00  0.0000000000000D+00
   390  3.8900000000000D+00  0.0000000000000D+00  0.0000000000000D+00
   391  3.9000000000000D+00  0.0000000000000D+00  0.0000000000000D+00
   392  3.9100000000000D+00  0.0000000000000D+00  0.0000000000000D+00
   393  3.9200000000000D+00  0.0000000000000D+00  0.0000000000000D+00
   394  3.9300000000000D+00  0.0000000000000D+00  0.0000000000000D+00
   395  3.9400000000000D+00  0.0000000000000D+00  0.0000000000000D+00
   396  3.9500000000000D+00  0.0000000000000D+00  0.0000000000000D+00
   397  3.9600000000000D+00  0.0000000000000D+00  0.0000000000000D+00
   398  3.9700000000000D+00  0.0000000000000D+00  0.0000000000000D+00
   399  3.9800000000000D+00  0.0000000000000D+00  0.0000000000000D+00
   400  3.9900000000000D+00  0.0000000000000D+00  0.0000000000000D+00
   401  4.0000000000000D+00  0.0000000000000D+00  0.0000000000000D+00
   402  4.0100000000000D+00  0.0000000000000D+00  0.0000000000000D+00
   403  4.0200000000000D+00  0.0000000000000D+00  0.0000000000000D+00
   404  4.0300000000000D+00  0.0000000000000D+00  0.0000000000000D+00
   405  4.0400000000000D+00  0.0000000000000D+00  0.0000000000000D+00
   406  4.0500000000000D+00  0.0000000000000D+00  0.0000000000000D+00
   407  4.0600000000000D+00  0.0000000000000D+00  0.0000000000000D+00
   408  4.0700000000000D+00  0.0000000000000D+00  0.0000000000000D+00
   409  4.0800000000000D+00  0.0000000000000D+00  0.0000000000000D+00
   410  4.0900000000000D+00  0.0000000000000D+00  0.0000000000000D+00
   411  4.1000000000000D+00  0.0000000000000D+00  0.0000000000000D+00
   412  4.1100000000000D+00  0.0000000000000D+00  0.0000000000000D+00
   413  4.1200000000000D+00  0.0000000000000D+00  0.0000000000000D+00
   414  4.1300000000000D+00  0.0000000000000D+00  0.0000000000000D+00
   415  4.1400000000000D+00  0.0000000000000D+00  0.0000000000000D+00
   416  4.1500000000000D+00  0.0000000000000D+00  0.0000000000000D+00
   417  4.1600000000000D+00  0.0000000000000D+00  0.0000000000000D+00
   418  4.1700000000000D+00  0.0000000000000D+00  0.0000000000000D+00
   419  4.1800000000000D+00  0.0000000000000D+00  0.0000000000000D+00
   420  4.1900000000000D+00  0.0000000000000D+00  0.0000000000000D+00
   421  4.2000000000000D+00  0.0000000000000D+00  0.0000000000000D+00
   422  4.2100000000000D+00  0.0000000000000D+00  0.0000000000000D+00