Br    ONCVPSP-3.3.1  r_core=   2.49793   2.49793   2.49793
     35.0000      7.0000      210904    zatom,zion,pspd
     8       2   2     4   600     0    pspcod,pspxc,lmax,lloc,mmax,r2well
  5.99000000  0.00000000  0.00000000    rchrg fchrg qchrg
     2     2     2     0     0    nproj
     1     1           extension_switch
   0                         2.2542013486735D+00 -1.2994217068253D+00
     1  0.0000000000000D+00 -9.0807361630141D-12 -2.7620378206805D-11
     2  1.0000000000000D-02  3.0694025361754D-02 -2.5851978498832D-02
     3  2.0000000000000D-02  6.1354624631568D-02 -5.1703756148972D-02
     4  3.0000000000000D-02  9.1948475338108D-02 -7.7554919655332D-02
     5  4.0000000000000D-02  1.2244246177349D-01 -1.0340463219451D-01
     6  5.0000000000000D-02  1.5280377718284D-01 -1.2925142505482D-01
     7  6.0000000000000D-02  1.8300002452982D-01 -1.5509299334187D-01
     8  7.0000000000000D-02  2.1299931537379D-01 -1.8092599707238D-01
     9  8.0000000000000D-02  2.4277036640399D-01 -2.0674586895146D-01
    10  9.0000000000000D-02  2.7228259318671D-01 -2.3254663009407D-01
    11  1.0000000000000D-01  3.0150620069534D-01 -2.5832071491106D-01
    12  1.1000000000000D-01  3.3041227020833D-01 -2.8405880633266D-01
    13  1.2000000000000D-01  3.5897284217779D-01 -3.0974968248944D-01
    14  1.3000000000000D-01  3.8716099469069D-01 -3.3538007591189D-01
    15  1.4000000000000D-01  4.1495091716590D-01 -3.6093454624495D-01
    16  1.5000000000000D-01  4.4231797895322D-01 -3.8639536740445D-01
    17  1.6000000000000D-01  4.6923879252523D-01 -4.1174243002755D-01
    18  1.7000000000000D-01  4.9569127097867D-01 -4.3695315999013D-01
    19  1.8000000000000D-01  5.2165467958961D-01 -4.6200245368081D-01
    20  1.9000000000000D-01  5.4710968119541D-01 -4.8686263063396D-01
    21  2.0000000000000D-01  5.7203837520613D-01 -5.1150340403373D-01
    22  2.1000000000000D-01  5.9642433007900D-01 -5.3589186950757D-01
    23  2.2000000000000D-01  6.2025260912104D-01 -5.5999251253188D-01
    24  2.3000000000000D-01  6.4350978951730D-01 -5.8376723467446D-01
    25  2.4000000000000D-01  6.6618397451495D-01 -6.0717539879878D-01
    26  2.5000000000000D-01  6.8826479872656D-01 -6.3017389325501D-01
    27  2.6000000000000D-01  7.0974342654966D-01 -6.5271721498083D-01
    28  2.7000000000000D-01  7.3061254373244D-01 -6.7475757133465D-01
    29  2.8000000000000D-01  7.5086634214961D-01 -6.9624500038224D-01
    30  2.9000000000000D-01  7.7050049788475D-01 -7.1712750925846D-01
    31  3.0000000000000D-01  7.8951214274873D-01 -7.3735123012655D-01
    32  3.1000000000000D-01  8.0789982939540D-01 -7.5686059316121D-01
    33  3.2000000000000D-01  8.2566349022732D-01 -7.7559851588703D-01
    34  3.3000000000000D-01  8.4280439031472D-01 -7.9350660811212D-01
    35  3.4000000000000D-01  8.5932507458005D-01 -8.1052539160862D-01
    36  3.5000000000000D-01  8.7522930952910D-01 -8.2659453360689D-01
    37  3.6000000000000D-01  8.9052201983617D-01 -8.4165309308964D-01
    38  3.7000000000000D-01  9.0520922011643D-01 -8.5563977879628D-01
    39  3.8000000000000D-01  9.1929794224255D-01 -8.6849321777641D-01
    40  3.9000000000000D-01  9.3279615858464D-01 -8.8015223326559D-01
    41  4.0000000000000D-01  9.4571270157317D-01 -8.9055613059627D-01
    42  4.1000000000000D-01  9.5805718000281D-01 -8.9964498980226D-01
    43  4.2000000000000D-01  9.6983989251185D-01 -9.0735996352693D-01
    44  4.3000000000000D-01  9.8107173868595D-01 -9.1364357880397D-01
    45  4.4000000000000D-01  9.9176412824752D-01 -9.1844004124405D-01
    46  4.5000000000000D-01  1.0019288888019D+00 -9.2169554013298D-01
    47  4.6000000000000D-01  1.0115781726192D+00 -9.2335855292607D-01
    48  4.7000000000000D-01  1.0207243629362D+00 -9.2338014760909D-01
    49  4.8000000000000D-01  1.0293799802657D+00 -9.2171428139041D-01
    50  4.9000000000000D-01  1.0375575892018D+00 -9.1831809418928D-01
    51  5.0000000000000D-01  1.0452697062068D+00 -9.1315219539380D-01
    52  5.1000000000000D-01  1.0525287088627D+00 -9.0618094237792D-01
    53  5.2000000000000D-01  1.0593467470633D+00 -8.9737270928967D-01
    54  5.3000000000000D-01  1.0657356566133D+00 -8.8670014465370D-01
    55  5.4000000000000D-01  1.0717068756915D+00 -8.7414041636850D-01
    56  5.5000000000000D-01  1.0772713646199D+00 -8.5967544272345D-01
    57  5.6000000000000D-01  1.0824395293657D+00 -8.4329210811293D-01
    58  5.7000000000000D-01  1.0872211491864D+00 -8.2498246218236D-01
    59  5.8000000000000D-01  1.0916253088066D+00 -8.0474390120643D-01
    60  5.9000000000000D-01  1.0956603354950D+00 -7.8257933057051D-01
    61  6.0000000000000D-01  1.0993337413848D+00 -7.5849730730306D-01
    62  6.1000000000000D-01  1.1026521713569D+00 -7.3251216168953D-01
    63  6.2000000000000D-01  1.1056213567775D+00 -7.0464409708555D-01
    64  6.3000000000000D-01  1.1082460753522D+00 -6.7491926714003D-01
    65  6.4000000000000D-01  1.1105301173303D+00 -6.4336982973547D-01
    66  6.5000000000000D-01  1.1124762582608D+00 -6.1003397705352D-01
    67  6.6000000000000D-01  1.1140862384686D+00 -5.7495594127872D-01
    68  6.7000000000000D-01  1.1153607493882D+00 -5.3818597556019D-01
    69  6.8000000000000D-01  1.1162994268546D+00 -4.9978030996149D-01
    70  6.9000000000000D-01  1.1169008514200D+00 -4.5980108224088D-01
    71  7.0000000000000D-01  1.1171625557268D+00 -4.1831624341814D-01
    72  7.1000000000000D-01  1.1170810389331D+00 -3.7539943819822D-01
    73  7.2000000000000D-01  1.1166517881512D+00 -3.3112986043784D-01
    74  7.3000000000000D-01  1.1158693068229D+00 -2.8559208395629D-01
    75  7.4000000000000D-01  1.1147271499209D+00 -2.3887586910610D-01
    76  7.5000000000000D-01  1.1132179658308D+00 -1.9107594563286D-01
    77  7.6000000000000D-01  1.1113335447311D+00 -1.4229177246583D-01
    78  7.7000000000000D-01  1.1090648732590D+00 -9.2627275189788D-02
    79  7.8000000000000D-01  1.1064021952118D+00 -4.2190562056946D-02
    80  7.9000000000000D-01  1.1033350780070D+00  8.9063804996961D-03
    81  8.0000000000000D-01  1.0998524845884D+00  6.0548011788980D-02
    82  8.1000000000000D-01  1.0959428504407D+00  1.1261557906231D-01
    83  8.2000000000000D-01  1.0915941653436D+00  1.6498747674301D-01
    84  8.3000000000000D-01  1.0867940594726D+00  2.1753962134873D-01
    85  8.4000000000000D-01  1.0815298934289D+00  2.7014584069051D-01
    86  8.5000000000000D-01  1.0757888517566D+00  3.2267827585764D-01
    87  8.6000000000000D-01  1.0695580394879D+00  3.7500779442901D-01
    88  8.7000000000000D-01  1.0628245812357D+00  4.2700441328970D-01
    89  8.8000000000000D-01  1.0555757223403D+00  4.7853772937721D-01
    90  8.9000000000000D-01  1.0477989315583D+00  5.2947735663398D-01
    91  9.0000000000000D-01  1.0394820047776D+00  5.7969336740329D-01
    92  9.1000000000000D-01  1.0306131692249D+00  6.2905673647309D-01
    93  9.2000000000000D-01  1.0211811876349D+00  6.7743978594870D-01
    94  9.3000000000000D-01  1.0111754618382D+00  7.2471662911876D-01
    95  9.4000000000000D-01  1.0005861352314D+00  7.7076361147145D-01
    96  9.5000000000000D-01  9.8940419358762D-01  8.1545974701790D-01
    97  9.6000000000000D-01  9.7762156367581D-01  8.5868714808947D-01
    98  9.7000000000000D-01  9.6523120915951D-01  9.0033144679171D-01
    99  9.8000000000000D-01  9.5222722325766D-01  9.4028220632386D-01
   100  9.9000000000000D-01  9.3860491766114D-01  9.7843332040656D-01
   101  1.0000000000000D+00  9.2436090721337D-01  1.0146833991018D+00
   102  1.0100000000000D+00  9.0949318988037D-01  1.0489361393590D+00
   103  1.0200000000000D+00  8.9400122155486D-01  1.0811006786794D+00
   104  1.0300000000000D+00  8.7788598526128D-01  1.1110919303543D+00
   105  1.0400000000000D+00  8.6115005435188D-01  1.1388308988079D+00
   106  1.0500000000000D+00  8.4379764931001D-01  1.1642449736495D+00
   107  1.0600000000000D+00  8.2583468780597D-01  1.1872682011323D+00
   108  1.0700000000000D+00  8.0726882767948D-01  1.2078415318029D+00
   109  1.0800000000000D+00  7.8810950255546D-01  1.2259130432269D+00
   110  1.0900000000000D+00  7.6836794983324D-01  1.2414381367789D+00
   111  1.1000000000000D+00  7.4805723082175D-01  1.2543797075871D+00
   112  1.1100000000000D+00  7.2719224283358D-01  1.2647082868476D+00
   113  1.1200000000000D+00  7.0578972308385D-01  1.2724021558289D+00
   114  1.1300000000000D+00  6.8386824428379D-01  1.2774474310236D+00
   115  1.1400000000000D+00  6.6144820184679D-01  1.2798381199934D+00
   116  1.1500000000000D+00  6.3855179267785D-01  1.2795761476232D+00
   117  1.1600000000000D+00  6.1520298554774D-01  1.2766713525946D+00
   118  1.1700000000000D+00  5.9142748310062D-01  1.2711414540429D+00
   119  1.1800000000000D+00  5.6725267557096D-01  1.2630119884480D+00
   120  1.1900000000000D+00  5.4270758634270D-01  1.2523162169933D+00
   121  1.2000000000000D+00  5.1782280951431D-01  1.2390950037283D+00
   122  1.2100000000000D+00  4.9263043966902D-01  1.2233966649836D+00
   123  1.2200000000000D+00  4.6716399409215D-01  1.2052767906296D+00
   124  1.2300000000000D+00  4.4145832771915D-01  1.1847980379054D+00
   125  1.2400000000000D+00  4.1554954112884D-01  1.1620298986495D+00
   126  1.2500000000000D+00  3.8947488192298D-01  1.1370484408492D+00
   127  1.2600000000000D+00  3.6327263988719D-01  1.1099360256106D+00
   128  1.2700000000000D+00  3.3698203634778D-01  1.0807810007155D+00
   129  1.2800000000000D+00  3.1064310815620D-01  1.0496773719907D+00
   130  1.2900000000000D+00  2.8429658679046D-01  1.0167244539154D+00
   131  1.3000000000000D+00  2.5798377306854D-01  9.8202650091376D-01
   132  1.3100000000000D+00  2.3174640798499D-01  9.4569232083561D-01
   133  1.3200000000000D+00  2.0562654023127D-01  9.0783487230824D-01
   134  1.3300000000000D+00  1.7966639095318D-01  8.6857084762069D-01
   135  1.3400000000000D+00  1.5390821632117D-01  8.2802024288038D-01
   136  1.3500000000000D+00  1.2839416851640D-01  7.8630591729804D-01
   137  1.3600000000000D+00  1.0316615572420D-01  7.4355314341215D-01
   138  1.3700000000000D+00  7.8265701753049D-02  6.9988915017095D-01
   139  1.3800000000000D+00  5.3733805891495D-02  6.5544266079917D-01
   140  1.3900000000000D+00  2.9610803621552D-02  6.1034342737305D-01
   141  1.4000000000000D+00  5.9362288076548D-03  5.6472176408736D-01
   142  1.4100000000000D+00 -1.7251322033622D-02  5.1870808114175D-01
   143  1.4200000000000D+00 -3.9914322758739D-02  4.7243242124157D-01
   144  1.4300000000000D+00 -6.2016447349568D-02  4.2602400058925D-01
   145  1.4400000000000D+00 -8.3522695773875D-02  3.7961075635053D-01
   146  1.4500000000000D+00 -1.0439951541233D-01  3.3331890242105D-01
   147  1.4600000000000D+00 -1.2461491749726D-01  2.8727249533100D-01
   148  1.4700000000000D+00 -1.4413858800099D-01  2.4159301216425D-01
   149  1.4800000000000D+00 -1.6294199254228D-01  1.9639894202390D-01
   150  1.4900000000000D+00 -1.8099847471891D-01  1.5180539299931D-01
   151  1.5000000000000D+00 -1.9828334753931D-01  1.0792371589384D-01
   152  1.5100000000000D+00 -2.1477397742163D-01  6.4861146511052D-02
   153  1.5200000000000D+00 -2.3044986044285D-01  2.2720467729964D-02
   154  1.5300000000000D+00 -2.4529269046607D-01 -1.8400307265227D-02
   155  1.5400000000000D+00 -2.5928641878148D-01 -5.8408229240744D-02
   156  1.5500000000000D+00 -2.7241730509934D-01 -9.7215683876022D-02
   157  1.5600000000000D+00 -2.8467395946095D-01 -1.3474063787329D-01
   158  1.5700000000000D+00 -2.9604737513758D-01 -1.7090686009818D-01
   159  1.5800000000000D+00 -3.0653095203123D-01 -2.0564411603524D-01
   160  1.5900000000000D+00 -3.1612051081717D-01 -2.3888833593877D-01
   161  1.6000000000000D+00 -3.2481429741323D-01 -2.7058175516031D-01
   162  1.6100000000000D+00 -3.3261297806076D-01 -3.0067302717373D-01
   163  1.6200000000000D+00 -3.3951962476236D-01 -3.2911730823996D-01
   164  1.6300000000000D+00 -3.4553969136745D-01 -3.5587631425892D-01
   165  1.6400000000000D+00 -3.5068098022333D-01 -3.8091834925597D-01
   166  1.6500000000000D+00 -3.5495359968881D-01 -4.0421830607515D-01
   167  1.6600000000000D+00 -3.5836991259048D-01 -4.2575763921058D-01
   168  1.6700000000000D+00 -3.6094447593726D-01 -4.4552431040784D-01
   169  1.6800000000000D+00 -3.6269397211229D-01 -4.6351270738967D-01
   170  1.6900000000000D+00 -3.6363713189660D-01 -4.7972353645763D-01
   171  1.7000000000000D+00 -3.6379464965020D-01 -4.9416368965457D-01
   172  1.7100000000000D+00 -3.6318909106800D-01 -5.0684608743647D-01
   173  1.7200000000000D+00 -3.6184479390513D-01 -5.1778949775633D-01
   174  1.7300000000000D+00 -3.5978776217600D-01 -5.2701833278635D-01
   175  1.7400000000000D+00 -3.5704555425327D-01 -5.3456242428168D-01
   176  1.7500000000000D+00 -3.5364716547544D-01 -5.4045677915711D-01
   177  1.7600000000000D+00 -3.4962290569114D-01 -5.4474131627918D-01
   178  1.7700000000000D+00 -3.4500427245591D-01 -5.4746058642168D-01
   179  1.7800000000000D+00 -3.3982382029954D-01 -5.4866347632773D-01
   180  1.7900000000000D+00 -3.3411502686431D-01 -5.4840289916899D-01
   181  1.8000000000000D+00 -3.2791215633840D-01 -5.4673547230297D-01
   182  1.8100000000000D+00 -3.2125012101216D-01 -5.4372118482997D-01
   183  1.8200000000000D+00 -3.1416434144196D-01 -5.3942305593492D-01
   184  1.8300000000000D+00 -3.0669060597874D-01 -5.3390678646764D-01
   185  1.8400000000000D+00 -2.9886493028818D-01 -5.2724040507630D-01
   186  1.8500000000000D+00 -2.9072341745798D-01 -5.1949391096664D-01
   187  1.8600000000000D+00 -2.8230211948343D-01 -5.1073891513162D-01
   188  1.8700000000000D+00 -2.7363690058306D-01 -5.0104828163854D-01
   189  1.8800000000000D+00 -2.6476330318330D-01 -4.9049577114064D-01
   190  1.8900000000000D+00 -2.5571641703958D-01 -4.7915568808095D-01
   191  1.9000000000000D+00 -2.4653075214003D-01 -4.6710253345915D-01
   192  1.9100000000000D+00 -2.3724011613740D-01 -4.5441066520032D-01
   193  1.9200000000000D+00 -2.2787749644979D-01 -4.4115396684885D-01
   194  1.9300000000000D+00 -2.1847494830404D-01 -4.2740552790702D-01
   195  1.9400000000000D+00 -2.0906348824663D-01 -4.1323733500182D-01
   196  1.9500000000000D+00 -1.9967299472613D-01 -3.9871997809581D-01
   197  1.9600000000000D+00 -1.9033211517024D-01 -3.8392237058177D-01
   198  1.9700000000000D+00 -1.8106818069594D-01 -3.6891148639583D-01
   199  1.9800000000000D+00 -1.7190712863124D-01 -3.5375211484599D-01
   200  1.9900000000000D+00 -1.6287343275261D-01 -3.3850663315292D-01
   201  2.0000000000000D+00 -1.5399004267618D-01 -3.2323480067224D-01
   202  2.0100000000000D+00 -1.4527833097927D-01 -3.0799357128931D-01
   203  2.0200000000000D+00 -1.3675805019217D-01 -2.9283692986257D-01
   204  2.0300000000000D+00 -1.2844729819635D-01 -2.7781574903667D-01
   205  2.0400000000000D+00 -1.2036249304551D-01 -2.6297766936091D-01
   206  2.0500000000000D+00 -1.1251835751367D-01 -2.4836700374502D-01
   207  2.0600000000000D+00 -1.0492791201122D-01 -2.3402466277847D-01
   208  2.0700000000000D+00 -9.7602478183166D-02 -2.1998810742811D-01
   209  2.0800000000000D+00 -9.0551690640468D-02 -2.0629132235115D-01
   210  2.0900000000000D+00 -8.3783518580471D-02 -1.9296481486114D-01
   211  2.1000000000000D+00 -7.7304296565929D-02 -1.8003563774525D-01
   212  2.1100000000000D+00 -7.1118763399519D-02 -1.6752743319070D-01
   213  2.1200000000000D+00 -6.5230110951290D-02 -1.5546050322716D-01
   214  2.1300000000000D+00 -5.9640040189182D-02 -1.4385189919343D-01
   215  2.1400000000000D+00 -5.4348826021890D-02 -1.3271553499016D-01
   216  2.1500000000000D+00 -4.9355389978581D-02 -1.2206232158990D-01
   217  2.1600000000000D+00 -4.4657379415776D-02 -1.1190031929488D-01
   218  2.1700000000000D+00 -4.0251256814934D-02 -1.0223491892206D-01
   219  2.1800000000000D+00 -3.6132386602321D-02 -9.3069012417718D-02
   220  2.1900000000000D+00 -3.2295136706805D-02 -8.4403208601814D-02
   221  2.2000000000000D+00 -2.8733015889395D-02 -7.6236163406141D-02
   222  2.2100000000000D+00 -2.5438683969112D-02 -6.8564493175745D-02
   223  2.2200000000000D+00 -2.2404152440045D-02 -6.1383310547067D-02
   224  2.2300000000000D+00 -1.9620935582027D-02 -5.4686594188149D-02
   225  2.2400000000000D+00 -1.7080237426271D-02 -4.8467672601743D-02
   226  2.2500000000000D+00 -1.4772758547374D-02 -4.2718480848901D-02
   227  2.2600000000000D+00 -1.2688704087187D-02 -3.7429475986151D-02
   228  2.2700000000000D+00 -1.0817747069588D-02 -3.2589386710213D-02
   229  2.2800000000000D+00 -9.1490675316323D-03 -2.8185204750697D-02
   230  2.2900000000000D+00 -7.6710828464100D-03 -2.4201181340616D-02
   231  2.3000000000000D+00 -6.3717762524640D-03 -2.0619761223178D-02
   232  2.3100000000000D+00 -5.2387825621025D-03 -1.7421730330112D-02
   233  2.3200000000000D+00 -4.2595899545994D-03 -1.4586738085282D-02
   234  2.3300000000000D+00 -3.4215554236259D-03 -1.2093233955622D-02
   235  2.3400000000000D+00 -2.7120494931687D-03 -9.9188181027531D-03
   236  2.3500000000000D+00 -2.1185672067417D-03 -8.0404899917445D-03
   237  2.3600000000000D+00 -1.6288240437522D-03 -6.4348544366669D-03
   238  2.3700000000000D+00 -1.2308586734420D-03 -5.0783542682875D-03
   239  2.3800000000000D+00 -9.1312755154964D-04 -3.9474835746043D-03
   240  2.3900000000000D+00 -6.6459413561609D-04 -3.0189900174195D-03
   241  2.4000000000000D+00 -4.7481404185599D-04 -2.2700695279594D-03
   242  2.4100000000000D+00 -3.3401199706911D-04 -1.6785428537420D-03
   243  2.4200000000000D+00 -2.3328103890652D-04 -1.2234407666726D-03
   244  2.4300000000000D+00 -1.6414316800139D-04 -8.8349796456539D-04
   245  2.4400000000000D+00 -1.1909311657395D-04 -6.3881111795123D-04
   246  2.4500000000000D+00 -9.1162661387005D-05 -4.6902354939170D-04
   247  2.4600000000000D+00 -7.6651284535675D-05 -3.6440493298761D-04
   248  2.4700000000000D+00 -7.2002309904259D-05 -3.1328365954773D-04
   249  2.4800000000000D+00 -7.4318407162693D-05 -3.0440321870178D-04
   250  2.4900000000000D+00 -7.4204023067017D-05 -2.9634638714968D-04
   251  2.5000000000000D+00 -6.4962223415902D-05 -2.5795676716900D-04
   252  2.5100000000000D+00 -4.2424576860136D-05 -1.6811266794075D-04
   253  2.5200000000000D+00 -1.7011629744715D-05 -6.7456309748104D-05
   254  2.5300000000000D+00  2.3012712921593D-06  9.0465426866310D-06
   255  2.5400000000000D+00  7.3404646772506D-06  2.8827659507698D-05
   256  2.5500000000000D+00  4.7304643246667D-06  1.8566378783028D-05
   257  2.5600000000000D+00 -3.6744030832598D-07 -1.4417865124693D-06
   258  2.5700000000000D+00 -1.5869472371906D-06 -6.2226804492192D-06
   259  2.5800000000000D+00 -1.2001551071688D-06 -4.7033160852958D-06
   260  2.5900000000000D+00  2.4872994428393D-08  9.8872973992145D-08
   261  2.6000000000000D+00  1.8187915988172D-07  7.2299028958775D-07
   262  2.6100000000000D+00  1.5831930559259D-07  6.2933719658788D-07
   263  2.6200000000000D+00  1.5335109608434D-10  6.0958800028941D-10
   264  2.6300000000000D+00  0.0000000000000D+00  0.0000000000000D+00
   265  2.6400000000000D+00  0.0000000000000D+00  0.0000000000000D+00
   266  2.6500000000000D+00  0.0000000000000D+00  0.0000000000000D+00
   267  2.6600000000000D+00  0.0000000000000D+00  0.0000000000000D+00
   268  2.6700000000000D+00  0.0000000000000D+00  0.0000000000000D+00
   269  2.6800000000000D+00  0.0000000000000D+00  0.0000000000000D+00
   270  2.6900000000000D+00  0.0000000000000D+00  0.0000000000000D+00
   271  2.7000000000000D+00  0.0000000000000D+00  0.0000000000000D+00
   272  2.7100000000000D+00  0.0000000000000D+00  0.0000000000000D+00
   273  2.7200000000000D+00  0.0000000000000D+00  0.0000000000000D+00
   274  2.7300000000000D+00  0.0000000000000D+00  0.0000000000000D+00
   275  2.7400000000000D+00  0.0000000000000D+00  0.0000000000000D+00
   276  2.7500000000000D+00  0.0000000000000D+00  0.0000000000000D+00
   277  2.7600000000000D+00  0.0000000000000D+00  0.0000000000000D+00
   278  2.7700000000000D+00  0.0000000000000D+00  0.0000000000000D+00
   279  2.7800000000000D+00  0.0000000000000D+00  0.0000000000000D+00
   280  2.7900000000000D+00  0.0000000000000D+00  0.0000000000000D+00
   281  2.8000000000000D+00  0.0000000000000D+00  0.0000000000000D+00
   282  2.8100000000000D+00  0.0000000000000D+00  0.0000000000000D+00
   283  2.8200000000000D+00  0.0000000000000D+00  0.0000000000000D+00
   284  2.8300000000000D+00  0.0000000000000D+00  0.0000000000000D+00
   285  2.8400000000000D+00  0.0000000000000D+00  0.0000000000000D+00
   286  2.8500000000000D+00  0.0000000000000D+00  0.0000000000000D+00
   287  2.8600000000000D+00  0.0000000000000D+00  0.0000000000000D+00
   288  2.8700000000000D+00  0.0000000000000D+00  0.0000000000000D+00
   289  2.8800000000000D+00  0.0000000000000D+00  0.0000000000000D+00
   290  2.8900000000000D+00  0.0000000000000D+00  0.0000000000000D+00
   291  2.9000000000000D+00  0.0000000000000D+00  0.0000000000000D+00
   292  2.9100000000000D+00  0.0000000000000D+00  0.0000000000000D+00
   293  2.9200000000000D+00  0.0000000000000D+00  0.0000000000000D+00
   294  2.9300000000000D+00  0.0000000000000D+00  0.0000000000000D+00
   295  2.9400000000000D+00  0.0000000000000D+00  0.0000000000000D+00
   296  2.9500000000000D+00  0.0000000000000D+00  0.0000000000000D+00
   297  2.9600000000000D+00  0.0000000000000D+00  0.0000000000000D+00
   298  2.9700000000000D+00  0.0000000000000D+00  0.0000000000000D+00
   299  2.9800000000000D+00  0.0000000000000D+00  0.0000000000000D+00
   300  2.9900000000000D+00  0.0000000000000D+00  0.0000000000000D+00
   301  3.0000000000000D+00  0.0000000000000D+00  0.0000000000000D+00
   302  3.0100000000000D+00  0.0000000000000D+00  0.0000000000000D+00
   303  3.0200000000000D+00  0.0000000000000D+00  0.0000000000000D+00
   304  3.0300000000000D+00  0.0000000000000D+00  0.0000000000000D+00
   305  3.0400000000000D+00  0.0000000000000D+00  0.0000000000000D+00
   306  3.0500000000000D+00  0.0000000000000D+00  0.0000000000000D+00
   307  3.0600000000000D+00  0.0000000000000D+00  0.0000000000000D+00
   308  3.0700000000000D+00  0.0000000000000D+00  0.0000000000000D+00
   309  3.0800000000000D+00  0.0000000000000D+00  0.0000000000000D+00
   310  3.0900000000000D+00  0.0000000000000D+00  0.0000000000000D+00
   311  3.1000000000000D+00  0.0000000000000D+00  0.0000000000000D+00
   312  3.1100000000000D+00  0.0000000000000D+00  0.0000000000000D+00
   313  3.1200000000000D+00  0.0000000000000D+00  0.0000000000000D+00
   314  3.1300000000000D+00  0.0000000000000D+00  0.0000000000000D+00
   315  3.1400000000000D+00  0.0000000000000D+00  0.0000000000000D+00
   316  3.1500000000000D+00  0.0000000000000D+00  0.0000000000000D+00
   317  3.1600000000000D+00  0.0000000000000D+00  0.0000000000000D+00
   318  3.1700000000000D+00  0.0000000000000D+00  0.0000000000000D+00
   319  3.1800000000000D+00  0.0000000000000D+00  0.0000000000000D+00
   320  3.1900000000000D+00  0.0000000000000D+00  0.0000000000000D+00
   321  3.2000000000000D+00  0.0000000000000D+00  0.0000000000000D+00
   322  3.2100000000000D+00  0.0000000000000D+00  0.0000000000000D+00
   323  3.2200000000000D+00  0.0000000000000D+00  0.0000000000000D+00
   324  3.2300000000000D+00  0.0000000000000D+00  0.0000000000000D+00
   325  3.2400000000000D+00  0.0000000000000D+00  0.0000000000000D+00
   326  3.2500000000000D+00  0.0000000000000D+00  0.0000000000000D+00
   327  3.2600000000000D+00  0.0000000000000D+00  0.0000000000000D+00
   328  3.2700000000000D+00  0.0000000000000D+00  0.0000000000000D+00
   329  3.2800000000000D+00  0.0000000000000D+00  0.0000000000000D+00
   330  3.2900000000000D+00  0.0000000000000D+00  0.0000000000000D+00
   331  3.3000000000000D+00  0.0000000000000D+00  0.0000000000000D+00
   332  3.3100000000000D+00  0.0000000000000D+00  0.0000000000000D+00
   333  3.3200000000000D+00  0.0000000000000D+00  0.0000000000000D+00
   334  3.3300000000000D+00  0.0000000000000D+00  0.0000000000000D+00
   335  3.3400000000000D+00  0.0000000000000D+00  0.0000000000000D+00
   336  3.3500000000000D+00  0.0000000000000D+00  0.0000000000000D+00
   337  3.3600000000000D+00  0.0000000000000D+00  0.0000000000000D+00
   338  3.3700000000000D+00  0.0000000000000D+00  0.0000000000000D+00
   339  3.3800000000000D+00  0.0000000000000D+00  0.0000000000000D+00
   340  3.3900000000000D+00  0.0000000000000D+00  0.0000000000000D+00
   341  3.4000000000000D+00  0.0000000000000D+00  0.0000000000000D+00
   342  3.4100000000000D+00  0.0000000000000D+00  0.0000000000000D+00
   343  3.4200000000000D+00  0.0000000000000D+00  0.0000000000000D+00
   344  3.4300000000000D+00  0.0000000000000D+00  0.0000000000000D+00
   345  3.4400000000000D+00  0.0000000000000D+00  0.0000000000000D+00
   346  3.4500000000000D+00  0.0000000000000D+00  0.0000000000000D+00
   347  3.4600000000000D+00  0.0000000000000D+00  0.0000000000000D+00
   348  3.4700000000000D+00  0.0000000000000D+00  0.0000000000000D+00
   349  3.4800000000000D+00  0.0000000000000D+00  0.0000000000000D+00
   350  3.4900000000000D+00  0.0000000000000D+00  0.0000000000000D+00
   351  3.5000000000000D+00  0.0000000000000D+00  0.0000000000000D+00
   352  3.5100000000000D+00  0.0000000000000D+00  0.0000000000000D+00
   353  3.5200000000000D+00  0.0000000000000D+00  0.0000000000000D+00
   354  3.5300000000000D+00  0.0000000000000D+00  0.0000000000000D+00
   355  3.5400000000000D+00  0.0000000000000D+00  0.0000000000000D+00
   356  3.5500000000000D+00  0.0000000000000D+00  0.0000000000000D+00
   357  3.5600000000000D+00  0.0000000000000D+00  0.0000000000000D+00
   358  3.5700000000000D+00  0.0000000000000D+00  0.0000000000000D+00
   359  3.5800000000000D+00  0.0000000000000D+00  0.0000000000000D+00
   360  3.5900000000000D+00  0.0000000000000D+00  0.0000000000000D+00
   361  3.6000000000000D+00  0.0000000000000D+00  0.0000000000000D+00
   362  3.6100000000000D+00  0.0000000000000D+00  0.0000000000000D+00
   363  3.6200000000000D+00  0.0000000000000D+00  0.0000000000000D+00
   364  3.6300000000000D+00  0.0000000000000D+00  0.0000000000000D+00
   365  3.6400000000000D+00  0.0000000000000D+00  0.0000000000000D+00
   366  3.6500000000000D+00  0.0000000000000D+00  0.0000000000000D+00
   367  3.6600000000000D+00  0.0000000000000D+00  0.0000000000000D+00
   368  3.6700000000000D+00  0.0000000000000D+00  0.0000000000000D+00
   369  3.6800000000000D+00  0.0000000000000D+00  0.0000000000000D+00
   370  3.6900000000000D+00  0.0000000000000D+00  0.0000000000000D+00
   371  3.7000000000000D+00  0.0000000000000D+00  0.0000000000000D+00
   372  3.7100000000000D+00  0.0000000000000D+00  0.0000000000000D+00
   373  3.7200000000000D+00  0.0000000000000D+00  0.0000000000000D+00
   374  3.7300000000000D+00  0.0000000000000D+00  0.0000000000000D+00
   375  3.7400000000000D+00  0.0000000000000D+00  0.0000000000000D+00
   376  3.7500000000000D+00  0.0000000000000D+00  0.0000000000000D+00
   377  3.7600000000000D+00  0.0000000000000D+00  0.0000000000000D+00
   378  3.7700000000000D+00  0.0000000000000D+00  0.0000000000000D+00
   379  3.7800000000000D+00  0.0000000000000D+00  0.0000000000000D+00
   380  3.7900000000000D+00  0.0000000000000D+00  0.0000000000000D+00
   381  3.8000000000000D+00  0.0000000000000D+00  0.0000000000000D+00
   382  3.8100000000000D+00  0.0000000000000D+00  0.0000000000000D+00
   383  3.8200000000000D+00  0.0000000000000D+00  0.0000000000000D+00
   384  3.8300000000000D+00  0.0000000000000D+00  0.0000000000000D+00
   385  3.8400000000000D+00  0.0000000000000D+00  0.0000000000000D+00
   386  3.8500000000000D+00  0.0000000000000D+00  0.0000000000000D+00
   387  3.8600000000000D+00  0.0000000000000D+00  0.0000000000000D+00
   388  3.8700000000000D+00  0.0000000000000D+00  0.0000000000000D+00
   389  3.8800000000000D+00  0.0000000000000D+00  0.0000000000000D+00
   390  3.8900000000000D+00  0.0000000000000D+00  0.0000000000000D+00
   391  3.9000000000000D+00  0.0000000000000D+00  0.0000000000000D+00
   392  3.9100000000000D+00  0.0000000000000D+00  0.0000000000000D+00
   393  3.9200000000000D+00  0.0000000000000D+00  0.0000000000000D+00
   394  3.9300000000000D+00  0.0000000000000D+00  0.0000000000000D+00
   395  3.9400000000000D+00  0.0000000000000D+00  0.0000000000000D+00
   396  3.9500000000000D+00  0.0000000000000D+00  0.0000000000000D+00
   397  3.9600000000000D+00  0.0000000000000D+00  0.0000000000000D+00
   398  3.9700000000000D+00  0.0000000000000D+00  0.0000000000000D+00
   399  3.9800000000000D+00  0.0000000000000D+00  0.0000000000000D+00
   400  3.9900000000000D+00  0.0000000000000D+00  0.0000000000000D+00
   401  4.0000000000000D+00  0.0000000000000D+00  0.0000000000000D+00
   402  4.0100000000000D+00  0.0000000000000D+00  0.0000000000000D+00
   403  4.0200000000000D+00  0.0000000000000D+00  0.0000000000000D+00
   404  4.0300000000000D+00  0.0000000000000D+00  0.0000000000000D+00
   405  4.0400000000000D+00  0.0000000000000D+00  0.0000000000000D+00
   406  4.0500000000000D+00  0.0000000000000D+00  0.0000000000000D+00
   407  4.0600000000000D+00  0.0000000000000D+00  0.0000000000000D+00
   408  4.0700000000000D+00  0.0000000000000D+00  0.0000000000000D+00
   409  4.0800000000000D+00  0.0000000000000D+00  0.0000000000000D+00
   410  4.0900000000000D+00  0.0000000000000D+00  0.0000000000000D+00
   411  4.1000000000000D+00  0.0000000000000D+00  0.0000000000000D+00
   412  4.1100000000000D+00  0.0000000000000D+00  0.0000000000000D+00
   413  4.1200000000000D+00  0.0000000000000D+00  0.0000000000000D+00
   414  4.1300000000000D+00  0.0000000000000D+00  0.0000000000000D+00
   415  4.1400000000000D+00  0.0000000000000D+00  0.0000000000000D+00
   416  4.1500000000000D+00  0.0000000000000D+00  0.0000000000000D+00
   417  4.1600000000000D+00  0.0000000000000D+00  0.0000000000000D+00
   418  4.1700000000000D+00  0.0000000000000D+00  0.0000000000000D+00
   419  4.1800000000000D+00  0.0000000000000D+00  0.0000000000000D+00
   420  4.1900000000000D+00  0.0000000000000D+00  0.0000000000000D+00
   421  4.2000000000000D+00  0.0000000000000D+00  0.0000000000000D+00
   422  4.2100000000000D+00  0.0000000000000D+00  0.0000000000000D+00