Ca    ONCVPSP-3.3.1  r_core=   2.24135   2.49537   2.43654
     20.0000     10.0000      210904    zatom,zion,pspd
     8       2   2     4   600     0    pspcod,pspxc,lmax,lloc,mmax,r2well
  5.99000000  0.00000000  0.00000000    rchrg fchrg qchrg
     2     2     2     0     0    nproj
     1     1           extension_switch
   0                         2.3583452062573D+00 -4.1559206790872D-01
     1  0.0000000000000D+00  4.9351633890637D-12  9.2407539953321D-12
     2  1.0000000000000D-02  5.7505261011929D-02  6.8812942515611D-03
     3  2.0000000000000D-02  1.1491845725548D-01  1.3779867607985D-02
     4  3.0000000000000D-02  1.7214767187321D-01  2.0712922200084D-02
     5  4.0000000000000D-02  2.2910128374024D-01  2.7697506609610D-02
     6  5.0000000000000D-02  2.8568811510600D-01  3.4750440089991D-02
     7  6.0000000000000D-02  3.4181757896289D-01  4.1888237974823D-02
     8  7.0000000000000D-02  3.9739982604527D-01  4.9127038659168D-02
     9  8.0000000000000D-02  4.5234589135671D-01  5.6482532529449D-02
    10  9.0000000000000D-02  5.0656784011791D-01  6.3969893206304D-02
    11  1.0000000000000D-01  5.5997891302019D-01  7.1603711451152D-02
    12  1.1000000000000D-01  6.1249367066136D-01  7.9397932071625D-02
    13  1.2000000000000D-01  6.6402813703170D-01  8.7365794143375D-02
    14  1.3000000000000D-01  7.1449994190781D-01  9.5519774846351D-02
    15  1.4000000000000D-01  7.6382846200131D-01  1.0387153719244D-01
    16  1.5000000000000D-01  8.1193496069794D-01  1.1243188189854D-01
    17  1.6000000000000D-01  8.5874272621094D-01  1.2121070363495D-01
    18  1.7000000000000D-01  9.0417720796000D-01  1.3021695185324D-01
    19  1.8000000000000D-01  9.4816615097450D-01  1.3945859637112D-01
    20  1.9000000000000D-01  9.9063972810721D-01  1.4894259786394D-01
    21  2.0000000000000D-01  1.0315306698315D+00  1.5867488338404D-01
    22  2.1000000000000D-01  1.0707743913825D+00  1.6866032699961D-01
    23  2.2000000000000D-01  1.1083091169908D+00  1.7890273561514D-01
    24  2.3000000000000D-01  1.1440760009443D+00  1.8940484000552D-01
    25  2.4000000000000D-01  1.1780192452024D+00  2.0016829106539D-01
    26  2.5000000000000D-01  1.2100862132777D+00  2.1119366124548D-01
    27  2.6000000000000D-01  1.2402275400882D+00  2.2248045111750D-01
    28  2.7000000000000D-01  1.2683972374740D+00  2.3402710097996D-01
    29  2.8000000000000D-01  1.2945527950677D+00  2.4583100738804D-01
    30  2.9000000000000D-01  1.3186552761963D+00  2.5788854446289D-01
    31  3.0000000000000D-01  1.3406694084920D+00  2.7019508980819D-01
    32  3.1000000000000D-01  1.3605636688806D+00  2.8274505483619D-01
    33  3.2000000000000D-01  1.3783103626184D+00  2.9553191928018D-01
    34  3.3000000000000D-01  1.3938856960450D+00  3.0854826964735D-01
    35  3.4000000000000D-01  1.4072698427214D+00  3.2178584134408D-01
    36  3.5000000000000D-01  1.4184470026260D+00  3.3523556418543D-01
    37  3.6000000000000D-01  1.4274054540865D+00  3.4888761098273D-01
    38  3.7000000000000D-01  1.4341375981315D+00  3.6273144888629D-01
    39  3.8000000000000D-01  1.4386399949553D+00  3.7675589314653D-01
    40  3.9000000000000D-01  1.4409133922008D+00  3.9094916294399D-01
    41  4.0000000000000D-01  1.4409627447775D+00  4.0529893892943D-01
    42  4.1000000000000D-01  1.4387972259481D+00  4.1979242210671D-01
    43  4.2000000000000D-01  1.4344302294334D+00  4.3441639368646D-01
    44  4.3000000000000D-01  1.4278793623049D+00  4.4915727553492D-01
    45  4.4000000000000D-01  1.4191664284566D+00  4.6400119084186D-01
    46  4.5000000000000D-01  1.4083174024702D+00  4.7893402463317D-01
    47  4.6000000000000D-01  1.3953623937134D+00  4.9394148375752D-01
    48  4.7000000000000D-01  1.3803356005380D+00  5.0900915598307D-01
    49  4.8000000000000D-01  1.3632752544746D+00  5.2412256784861D-01
    50  4.9000000000000D-01  1.3442235543494D+00  5.3926724092461D-01
    51  5.0000000000000D-01  1.3232265902832D+00  5.5442874615242D-01
    52  5.1000000000000D-01  1.3003342575638D+00  5.6959275594540D-01
    53  5.2000000000000D-01  1.2756001604196D+00  5.8474509375244D-01
    54  5.3000000000000D-01  1.2490815057585D+00  5.9987178080380D-01
    55  5.4000000000000D-01  1.2208389869713D+00  6.1495907977967D-01
    56  5.5000000000000D-01  1.1909366579386D+00  6.2999353516460D-01
    57  5.6000000000000D-01  1.1594417974176D+00  6.4496201007458D-01
    58  5.7000000000000D-01  1.1264247640250D+00  6.5985171936932D-01
    59  5.8000000000000D-01  1.0919588420694D+00  6.7465025888829D-01
    60  5.9000000000000D-01  1.0561200785287D+00  6.8934563067716D-01
    61  6.0000000000000D-01  1.0189871115040D+00  7.0392626409916D-01
    62  6.1000000000000D-01  9.8064099052327D-01  7.1838103275541D-01
    63  6.2000000000000D-01  9.4116498910233D-01  7.3269926716765D-01
    64  6.3000000000000D-01  9.0064441001239D-01  7.4687076320660D-01
    65  6.4000000000000D-01  8.5916638373600D-01  7.6088578627939D-01
    66  6.5000000000000D-01  8.1681966063051D-01  7.7473507131929D-01
    67  6.6000000000000D-01  7.7369439735101D-01  7.8840981865064D-01
    68  6.7000000000000D-01  7.2988193811710D-01  8.0190168583100D-01
    69  6.8000000000000D-01  6.8547459143790D-01  8.1520277560128D-01
    70  6.9000000000000D-01  6.4056540293815D-01  8.2830562010212D-01
    71  7.0000000000000D-01  5.9524792495427D-01  8.4120316154147D-01
    72  7.1000000000000D-01  5.4961598359291D-01  8.5388872952391D-01
    73  7.2000000000000D-01  5.0376344396568D-01  8.6635601527645D-01
    74  7.3000000000000D-01  4.5778397433248D-01  8.7859904302777D-01
    75  7.4000000000000D-01  4.1177080990098D-01  8.9061213881926D-01
    76  7.5000000000000D-01  3.6581651704324D-01  9.0238989704504D-01
    77  7.6000000000000D-01  3.2001275869915D-01  9.1392714503527D-01
    78  7.7000000000000D-01  2.7445006174378D-01  9.2521890601233D-01
    79  7.8000000000000D-01  2.2921758709797D-01  9.3626036076221D-01
    80  7.9000000000000D-01  1.8440290336198D-01  9.4704680837398D-01
    81  8.0000000000000D-01  1.4009176474815D-01  9.5757362640889D-01
    82  8.1000000000000D-01  9.6367894081409D-02  9.6783623086591D-01
    83  8.2000000000000D-01  5.3312771626198D-02  9.7783003631442D-01
    84  8.3000000000000D-01  1.1005430484462D-02  9.8755041656538D-01
    85  8.4000000000000D-01 -3.0477740708194D-02  9.9699266625066D-01
    86  8.5000000000000D-01 -7.1063187081647D-02  1.0061519636762D+00
    87  8.6000000000000D-01 -1.1068036814338D-01  1.0150233353075D+00
    88  8.7000000000000D-01 -1.4926192904858D-01  1.0236016222381D+00
    89  8.8000000000000D-01 -1.8674386190377D-01  1.0318814489770D+00
    90  8.9000000000000D-01 -2.2306565651327D-01  1.0398571948820D+00
    91  9.0000000000000D-01 -2.5817044001422D-01  1.0475229685432D+00
    92  9.1000000000000D-01 -2.9200510488546D-01  1.0548725854091D+00
    93  9.2000000000000D-01 -3.2452042485742D-01  1.0618995489205D+00
    94  9.3000000000000D-01 -3.5567115829493D-01  1.0685970354007D+00
    95  9.4000000000000D-01 -3.8541613867142D-01  1.0749578829210D+00
    96  9.5000000000000D-01 -4.1371835180221D-01  1.0809745843377D+00
    97  9.6000000000000D-01 -4.4054499955472D-01  1.0866392846667D+00
    98  9.7000000000000D-01 -4.6586754980706D-01  1.0919437829343D+00
    99  9.8000000000000D-01 -4.8966177247852D-01  1.0968795386109D+00
   100  9.9000000000000D-01 -5.1190776151188D-01  1.1014376827032D+00
   101  1.0000000000000D+00 -5.3258994274285D-01  1.1056090335496D+00
   102  1.0100000000000D+00 -5.5169706764820D-01  1.1093841173273D+00
   103  1.0200000000000D+00 -5.6922219302127D-01  1.1127531932499D+00
   104  1.0300000000000D+00 -5.8516264667994D-01  1.1157062833982D+00
   105  1.0400000000000D+00 -5.9951997937136D-01  1.1182332070934D+00
   106  1.0500000000000D+00 -6.1229990308814D-01  1.1203236196902D+00
   107  1.0600000000000D+00 -6.2351221607372D-01  1.1219670556327D+00
   108  1.0700000000000D+00 -6.3317071484393D-01  1.1231529755837D+00
   109  1.0800000000000D+00 -6.4129309360633D-01  1.1238708174073D+00
   110  1.0900000000000D+00 -6.4790083151368D-01  1.1241100507525D+00
   111  1.1000000000000D+00 -6.5301906822959D-01  1.1238602349606D+00
   112  1.1100000000000D+00 -6.5667646834263D-01  1.1231110799859D+00
   113  1.1200000000000D+00 -6.5890507520313D-01  1.1218525099965D+00
   114  1.1300000000000D+00 -6.5974015480459D-01  1.1200747292965D+00
   115  1.1400000000000D+00 -6.5922003036641D-01  1.1177682901906D+00
   116  1.1500000000000D+00 -6.5738590831688D-01  1.1149241623903D+00
   117  1.1600000000000D+00 -6.5428169640792D-01  1.1115338035422D+00
   118  1.1700000000000D+00 -6.4995381472480D-01  1.1075892304458D+00
   119  1.1800000000000D+00 -6.4445100037548D-01  1.1030830905159D+00
   120  1.1900000000000D+00 -6.3782410667666D-01  1.0980087330317D+00
   121  1.2000000000000D+00 -6.3012589766822D-01  1.0923602797095D+00
   122  1.2100000000000D+00 -6.2141083880360D-01  1.0861326941322D+00
   123  1.2200000000000D+00 -6.1173488467632D-01  1.0793218495650D+00
   124  1.2300000000000D+00 -6.0115526465373D-01  1.0719245946900D+00
   125  1.2400000000000D+00 -5.8973026728672D-01  1.0639388167970D+00
   126  1.2500000000000D+00 -5.7751902437067D-01  1.0553635019726D+00
   127  1.2600000000000D+00 -5.6458129552612D-01  1.0461987918406D+00
   128  1.2700000000000D+00 -5.5097725415264D-01  1.0364460364284D+00
   129  1.2800000000000D+00 -5.3676727561242D-01  1.0261078427318D+00
   130  1.2900000000000D+00 -5.2201172847170D-01  1.0151881185849D+00
   131  1.3000000000000D+00 -5.0677076959950D-01  1.0036921114691D+00
   132  1.3100000000000D+00 -4.9110414393227D-01  9.9162644188869D-01
   133  1.3200000000000D+00 -4.7507098965072D-01  9.7899913099981D-01
   134  1.3300000000000D+00 -4.5872964948288D-01  9.6581962220930D-01
   135  1.3400000000000D+00 -4.4213748886799D-01  9.5209879644141D-01
   136  1.3500000000000D+00 -4.2535072159627D-01  9.3784898087740D-01
   137  1.3600000000000D+00 -4.0842424355161D-01  9.2308395095954D-01
   138  1.3700000000000D+00 -3.9141147516215D-01  9.0781892547346D-01
   139  1.3800000000000D+00 -3.7436421302267D-01  8.9207055463751D-01
   140  1.3900000000000D+00 -3.5733249123111D-01  8.7585690106401D-01
   141  1.4000000000000D+00 -3.4036445284279D-01  8.5919741357150D-01
   142  1.4100000000000D+00 -3.2350623178012D-01  8.4211289387460D-01
   143  1.4200000000000D+00 -3.0680184562392D-01  8.2462545611384D-01
   144  1.4300000000000D+00 -2.9029309942853D-01  8.0675847940383D-01
   145  1.4400000000000D+00 -2.7401950088024D-01  7.8853655344243D-01
   146  1.4500000000000D+00 -2.5801818691603D-01  7.6998541737937D-01
   147  1.4600000000000D+00 -2.4232386186228D-01  7.5113189217746D-01
   148  1.4700000000000D+00 -2.2696874726692D-01  7.3200380662523D-01
   149  1.4800000000000D+00 -2.1198254323069D-01  7.1262991741352D-01
   150  1.4900000000000D+00 -1.9739240137461D-01  6.9303982346140D-01
   151  1.5000000000000D+00 -1.8322290915405D-01  6.7326387496806D-01
   152  1.5100000000000D+00 -1.6949608545025D-01  6.5333307751357D-01
   153  1.5200000000000D+00 -1.5623138719829D-01  6.3327899165406D-01
   154  1.5300000000000D+00 -1.4344572670733D-01  6.1313362850467D-01
   155  1.5400000000000D+00 -1.3115349950448D-01  5.9292934171669D-01
   156  1.5500000000000D+00 -1.1936662210927D-01  5.7269871647895D-01
   157  1.5600000000000D+00 -1.0809457960057D-01  5.5247445594259D-01
   158  1.5700000000000D+00 -9.7344482241812D-02  5.3228926576183D-01
   159  1.5800000000000D+00 -8.7121130929211D-02  5.1217573720882D-01
   160  1.5900000000000D+00 -7.7427090729535D-02  4.9216622954008D-01
   161  1.6000000000000D+00 -6.8262772111227D-02  4.7229275214949D-01
   162  1.6100000000000D+00 -5.9626519168033D-02  4.5258684716044D-01
   163  1.6200000000000D+00 -5.1514704304479D-02  4.3307947303417D-01
   164  1.6300000000000D+00 -4.3921828702438D-02  4.1380088983686D-01
   165  1.6400000000000D+00 -3.6840627950481D-02  3.9478054673995D-01
   166  1.6500000000000D+00 -3.0262182154819D-02  3.7604697240311D-01
   167  1.6600000000000D+00 -2.4176029876753D-02  3.5762766876848D-01
   168  1.6700000000000D+00 -1.8570285195218D-02  3.3954900893456D-01
   169  1.6800000000000D+00 -1.3431757250113D-02  3.2183613955732D-01
   170  1.6900000000000D+00 -8.7460715317263D-03  3.0451288846790D-01
   171  1.7000000000000D+00 -4.4977923205164D-03  2.8760167785112D-01
   172  1.7100000000000D+00 -6.7054550854782D-04  2.7112344368321D-01
   173  1.7200000000000D+00  2.7528587227991D-03  2.5509756166557D-01
   174  1.7300000000000D+00  5.7903041544407D-03  2.3954178033065D-01
   175  1.7400000000000D+00  8.4602481659187D-03  2.2447216146951D-01
   176  1.7500000000000D+00  1.0781603518547D-02  2.0990302847970D-01
   177  1.7600000000000D+00  1.2773622699213D-02  1.9584692274379D-01
   178  1.7700000000000D+00  1.4455785495044D-02  1.8231456847849D-01
   179  1.7800000000000D+00  1.5847690231945D-02  1.6931484620353D-01
   180  1.7900000000000D+00  1.6968949156928D-02  1.5685477500437D-01
   181  1.8000000000000D+00  1.7839088509528D-02  1.4493950388202D-01
   182  1.8100000000000D+00  1.8477453447263D-02  1.3357231197200D-01
   183  1.8200000000000D+00  1.8903118600653D-02  1.2275461819106D-01
   184  1.8300000000000D+00  1.9134803969982D-02  1.1248599957407D-01
   185  1.8400000000000D+00  1.9190797293580D-02  1.0276421923853D-01
   186  1.8500000000000D+00  1.9088882036679D-02  9.3585262636250D-02
   187  1.8600000000000D+00  1.8846272477854D-02  8.4943383368051D-02
   188  1.8700000000000D+00  1.8479554722329D-02  7.6831156921257D-02
   189  1.8800000000000D+00  1.8004634951625D-02  6.9239543366802D-02
   190  1.8900000000000D+00  1.7436694020795D-02  6.2157957731822D-02
   191  1.9000000000000D+00  1.6790149060582D-02  5.5574348354666D-02
   192  1.9100000000000D+00  1.6078621803825D-02  4.9475282593337D-02
   193  1.9200000000000D+00  1.5314913423256D-02  4.3846039309783D-02
   194  1.9300000000000D+00  1.4510986362196D-02  3.8670708234695D-02
   195  1.9400000000000D+00  1.3677952026964D-02  3.3932294798093D-02
   196  1.9500000000000D+00  1.2826065438530D-02  2.9612831040331D-02
   197  1.9600000000000D+00  1.1964725314800D-02  2.5693490906663D-02
   198  1.9700000000000D+00  1.1102480431208D-02  2.2154710238792D-02
   199  1.9800000000000D+00  1.0247041290573D-02  1.8976310316003D-02
   200  1.9900000000000D+00  9.4052970229463D-03  1.6137624465287D-02
   201  2.0000000000000D+00  8.5833374112556D-03  1.3617627245449D-02
   202  2.0100000000000D+00  7.7864791070896D-03  1.1395065203446D-02
   203  2.0200000000000D+00  7.0192964303961D-03  9.4485888782043D-03
   204  2.0300000000000D+00  6.2856556545542D-03  7.7568851474360D-03
   205  2.0400000000000D+00  5.5887528367485D-03  6.2988092625119D-03
   206  2.0500000000000D+00  4.9311546098514D-03  5.0535159546838D-03
   207  2.0600000000000D+00  4.3148414896395D-03  4.0005889546367D-03
   208  2.0700000000000D+00  3.7412549095736D-03  3.1201694103834D-03
   209  2.0800000000000D+00  3.2113381329321D-03  2.3930743809641D-03
   210  2.0900000000000D+00  2.7255978242304D-03  1.8009292622025D-03
   211  2.1000000000000D+00  2.2841398457153D-03  1.3262718454922D-03
   212  2.1100000000000D+00  1.8867033300220D-03  9.5264949988472D-04
   213  2.1200000000000D+00  1.5327295789728D-03  6.6474056072571D-04
   214  2.1300000000000D+00  1.2215263410286D-03  4.4856461153466D-04
   215  2.1400000000000D+00  9.5213172780959D-04  2.9140153809328D-04
   216  2.1500000000000D+00  7.2325394711473D-04  1.8177645609590D-04
   217  2.1600000000000D+00  5.3320297940248D-04  1.0943194208297D-04
   218  2.1700000000000D+00  3.7986836439831D-04  6.5397029112466D-05
   219  2.1800000000000D+00  2.6045506972100D-04  4.1599200987102D-05
   220  2.1900000000000D+00  1.7153754465801D-04  3.1112386047912D-05
   221  2.2000000000000D+00  1.0905145947467D-04  2.8248081771024D-05
   222  2.2100000000000D+00  6.9771481189717D-05  2.9810530178920D-05
   223  2.2200000000000D+00  5.0149979091062D-05  3.3738565751688D-05
   224  2.2300000000000D+00  4.2753371334713D-05  3.6674298676898D-05
   225  2.2400000000000D+00  3.7779262179544D-05  3.4567328503959D-05
   226  2.2500000000000D+00  2.5752697981488D-05  2.3845175370325D-05
   227  2.2600000000000D+00  1.0746251109741D-05  9.8845680042502D-06
   228  2.2700000000000D+00 -1.1124354634252D-06 -1.0727578916788D-06
   229  2.2800000000000D+00 -3.7750729704955D-06 -3.6536725185947D-06
   230  2.2900000000000D+00 -1.8372122781333D-06 -1.7807549971633D-06
   231  2.3000000000000D+00  4.7850658716928D-07  4.7222972000371D-07
   232  2.3100000000000D+00  8.0409674905502D-07  7.9682598927736D-07
   233  2.3200000000000D+00  2.4774984596448D-07  2.4634105925571D-07
   234  2.3300000000000D+00 -8.0144447811181D-08 -7.3378278768978D-08
   235  2.3400000000000D+00 -9.5669317578834D-08 -8.7592466436061D-08
   236  2.3500000000000D+00 -9.8364618822121D-09 -9.0060217745076D-09
   237  2.3600000000000D+00  0.0000000000000D+00  0.0000000000000D+00
   238  2.3700000000000D+00  0.0000000000000D+00  0.0000000000000D+00
   239  2.3800000000000D+00  0.0000000000000D+00  0.0000000000000D+00
   240  2.3900000000000D+00  0.0000000000000D+00  0.0000000000000D+00
   241  2.4000000000000D+00  0.0000000000000D+00  0.0000000000000D+00
   242  2.4100000000000D+00  0.0000000000000D+00  0.0000000000000D+00
   243  2.4200000000000D+00  0.0000000000000D+00  0.0000000000000D+00
   244  2.4300000000000D+00  0.0000000000000D+00  0.0000000000000D+00
   245  2.4400000000000D+00  0.0000000000000D+00  0.0000000000000D+00
   246  2.4500000000000D+00  0.0000000000000D+00  0.0000000000000D+00
   247  2.4600000000000D+00  0.0000000000000D+00  0.0000000000000D+00
   248  2.4700000000000D+00  0.0000000000000D+00  0.0000000000000D+00
   249  2.4800000000000D+00  0.0000000000000D+00  0.0000000000000D+00
   250  2.4900000000000D+00  0.0000000000000D+00  0.0000000000000D+00
   251  2.5000000000000D+00  0.0000000000000D+00  0.0000000000000D+00
   252  2.5100000000000D+00  0.0000000000000D+00  0.0000000000000D+00
   253  2.5200000000000D+00  0.0000000000000D+00  0.0000000000000D+00
   254  2.5300000000000D+00  0.0000000000000D+00  0.0000000000000D+00
   255  2.5400000000000D+00  0.0000000000000D+00  0.0000000000000D+00
   256  2.5500000000000D+00  0.0000000000000D+00  0.0000000000000D+00
   257  2.5600000000000D+00  0.0000000000000D+00  0.0000000000000D+00
   258  2.5700000000000D+00  0.0000000000000D+00  0.0000000000000D+00
   259  2.5800000000000D+00  0.0000000000000D+00  0.0000000000000D+00
   260  2.5900000000000D+00  0.0000000000000D+00  0.0000000000000D+00
   261  2.6000000000000D+00  0.0000000000000D+00  0.0000000000000D+00
   262  2.6100000000000D+00  0.0000000000000D+00  0.0000000000000D+00
   263  2.6200000000000D+00  0.0000000000000D+00  0.0000000000000D+00
   264  2.6300000000000D+00  0.0000000000000D+00  0.0000000000000D+00
   265  2.6400000000000D+00  0.0000000000000D+00  0.0000000000000D+00
   266  2.6500000000000D+00  0.0000000000000D+00  0.0000000000000D+00
   267  2.6600000000000D+00  0.0000000000000D+00  0.0000000000000D+00
   268  2.6700000000000D+00  0.0000000000000D+00  0.0000000000000D+00
   269  2.6800000000000D+00  0.0000000000000D+00  0.0000000000000D+00
   270  2.6900000000000D+00  0.0000000000000D+00  0.0000000000000D+00
   271  2.7000000000000D+00  0.0000000000000D+00  0.0000000000000D+00
   272  2.7100000000000D+00  0.0000000000000D+00  0.0000000000000D+00
   273  2.7200000000000D+00  0.0000000000000D+00  0.0000000000000D+00
   274  2.7300000000000D+00  0.0000000000000D+00  0.0000000000000D+00
   275  2.7400000000000D+00  0.0000000000000D+00  0.0000000000000D+00
   276  2.7500000000000D+00  0.0000000000000D+00  0.0000000000000D+00
   277  2.7600000000000D+00  0.0000000000000D+00  0.0000000000000D+00
   278  2.7700000000000D+00  0.0000000000000D+00  0.0000000000000D+00
   279  2.7800000000000D+00  0.0000000000000D+00  0.0000000000000D+00
   280  2.7900000000000D+00  0.0000000000000D+00  0.0000000000000D+00
   281  2.8000000000000D+00  0.0000000000000D+00  0.0000000000000D+00
   282  2.8100000000000D+00  0.0000000000000D+00  0.0000000000000D+00
   283  2.8200000000000D+00  0.0000000000000D+00  0.0000000000000D+00
   284  2.8300000000000D+00  0.0000000000000D+00  0.0000000000000D+00
   285  2.8400000000000D+00  0.0000000000000D+00  0.0000000000000D+00
   286  2.8500000000000D+00  0.0000000000000D+00  0.0000000000000D+00
   287  2.8600000000000D+00  0.0000000000000D+00  0.0000000000000D+00
   288  2.8700000000000D+00  0.0000000000000D+00  0.0000000000000D+00
   289  2.8800000000000D+00  0.0000000000000D+00  0.0000000000000D+00
   290  2.8900000000000D+00  0.0000000000000D+00  0.0000000000000D+00
   291  2.9000000000000D+00  0.0000000000000D+00  0.0000000000000D+00
   292  2.9100000000000D+00  0.0000000000000D+00  0.0000000000000D+00
   293  2.9200000000000D+00  0.0000000000000D+00  0.0000000000000D+00
   294  2.9300000000000D+00  0.0000000000000D+00  0.0000000000000D+00
   295  2.9400000000000D+00  0.0000000000000D+00  0.0000000000000D+00
   296  2.9500000000000D+00  0.0000000000000D+00  0.0000000000000D+00
   297  2.9600000000000D+00  0.0000000000000D+00  0.0000000000000D+00
   298  2.9700000000000D+00  0.0000000000000D+00  0.0000000000000D+00
   299  2.9800000000000D+00  0.0000000000000D+00  0.0000000000000D+00
   300  2.9900000000000D+00  0.0000000000000D+00  0.0000000000000D+00
   301  3.0000000000000D+00  0.0000000000000D+00  0.0000000000000D+00
   302  3.0100000000000D+00  0.0000000000000D+00  0.0000000000000D+00
   303  3.0200000000000D+00  0.0000000000000D+00  0.0000000000000D+00
   304  3.0300000000000D+00  0.0000000000000D+00  0.0000000000000D+00
   305  3.0400000000000D+00  0.0000000000000D+00  0.0000000000000D+00
   306  3.0500000000000D+00  0.0000000000000D+00  0.0000000000000D+00
   307  3.0600000000000D+00  0.0000000000000D+00  0.0000000000000D+00
   308  3.0700000000000D+00  0.0000000000000D+00  0.0000000000000D+00
   309  3.0800000000000D+00  0.0000000000000D+00  0.0000000000000D+00
   310  3.0900000000000D+00  0.0000000000000D+00  0.0000000000000D+00
   311  3.1000000000000D+00  0.0000000000000D+00  0.0000000000000D+00
   312  3.1100000000000D+00  0.0000000000000D+00  0.0000000000000D+00
   313  3.1200000000000D+00  0.0000000000000D+00  0.0000000000000D+00
   314  3.1300000000000D+00  0.0000000000000D+00  0.0000000000000D+00
   315  3.1400000000000D+00  0.0000000000000D+00  0.0000000000000D+00
   316  3.1500000000000D+00  0.0000000000000D+00  0.0000000000000D+00
   317  3.1600000000000D+00  0.0000000000000D+00  0.0000000000000D+00
   318  3.1700000000000D+00  0.0000000000000D+00  0.0000000000000D+00
   319  3.1800000000000D+00  0.0000000000000D+00  0.0000000000000D+00
   320  3.1900000000000D+00  0.0000000000000D+00  0.0000000000000D+00
   321  3.2000000000000D+00  0.0000000000000D+00  0.0000000000000D+00
   322  3.2100000000000D+00  0.0000000000000D+00  0.0000000000000D+00
   323  3.2200000000000D+00  0.0000000000000D+00  0.0000000000000D+00
   324  3.2300000000000D+00  0.0000000000000D+00  0.0000000000000D+00
   325  3.2400000000000D+00  0.0000000000000D+00  0.0000000000000D+00
   326  3.2500000000000D+00  0.0000000000000D+00  0.0000000000000D+00
   327  3.2600000000000D+00  0.0000000000000D+00  0.0000000000000D+00
   328  3.2700000000000D+00  0.0000000000000D+00  0.0000000000000D+00
   329  3.2800000000000D+00  0.0000000000000D+00  0.0000000000000D+00
   330  3.2900000000000D+00  0.0000000000000D+00  0.0000000000000D+00
   331  3.3000000000000D+00  0.0000000000000D+00  0.0000000000000D+00
   332  3.3100000000000D+00  0.0000000000000D+00  0.0000000000000D+00
   333  3.3200000000000D+00  0.0000000000000D+00  0.0000000000000D+00
   334  3.3300000000000D+00  0.0000000000000D+00  0.0000000000000D+00
   335  3.3400000000000D+00  0.0000000000000D+00  0.0000000000000D+00
   336  3.3500000000000D+00  0.0000000000000D+00  0.0000000000000D+00
   337  3.3600000000000D+00  0.0000000000000D+00  0.0000000000000D+00
   338  3.3700000000000D+00  0.0000000000000D+00  0.0000000000000D+00
   339  3.3800000000000D+00  0.0000000000000D+00  0.0000000000000D+00
   340  3.3900000000000D+00  0.0000000000000D+00  0.0000000000000D+00
   341  3.4000000000000D+00  0.0000000000000D+00  0.0000000000000D+00
   342  3.4100000000000D+00  0.0000000000000D+00  0.0000000000000D+00
   343  3.4200000000000D+00  0.0000000000000D+00  0.0000000000000D+00
   344  3.4300000000000D+00  0.0000000000000D+00  0.0000000000000D+00
   345  3.4400000000000D+00  0.0000000000000D+00  0.0000000000000D+00
   346  3.4500000000000D+00  0.0000000000000D+00  0.0000000000000D+00
   347  3.4600000000000D+00  0.0000000000000D+00  0.0000000000000D+00
   348  3.4700000000000D+00  0.0000000000000D+00  0.0000000000000D+00
   349  3.4800000000000D+00  0.0000000000000D+00  0.0000000000000D+00
   350  3.4900000000000D+00  0.0000000000000D+00  0.0000000000000D+00
   351  3.5000000000000D+00  0.0000000000000D+00  0.0000000000000D+00
   352  3.5100000000000D+00  0.0000000000000D+00  0.0000000000000D+00
   353  3.5200000000000D+00  0.0000000000000D+00  0.0000000000000D+00
   354  3.5300000000000D+00  0.0000000000000D+00  0.0000000000000D+00
   355  3.5400000000000D+00  0.0000000000000D+00  0.0000000000000D+00
   356  3.5500000000000D+00  0.0000000000000D+00  0.0000000000000D+00
   357  3.5600000000000D+00  0.0000000000000D+00  0.0000000000000D+00
   358  3.5700000000000D+00  0.0000000000000D+00  0.0000000000000D+00
   359  3.5800000000000D+00  0.0000000000000D+00  0.0000000000000D+00
   360  3.5900000000000D+00  0.0000000000000D+00  0.0000000000000D+00
   361  3.6000000000000D+00  0.0000000000000D+00  0.0000000000000D+00
   362  3.6100000000000D+00  0.0000000000000D+00  0.0000000000000D+00
   363  3.6200000000000D+00  0.0000000000000D+00  0.0000000000000D+00
   364  3.6300000000000D+00  0.0000000000000D+00  0.0000000000000D+00
   365  3.6400000000000D+00  0.0000000000000D+00  0.0000000000000D+00
   366  3.6500000000000D+00  0.0000000000000D+00  0.0000000000000D+00
   367  3.6600000000000D+00  0.0000000000000D+00  0.0000000000000D+00
   368  3.6700000000000D+00  0.0000000000000D+00  0.0000000000000D+00
   369  3.6800000000000D+00  0.0000000000000D+00  0.0000000000000D+00
   370  3.6900000000000D+00  0.0000000000000D+00  0.0000000000000D+00
   371  3.7000000000000D+00  0.0000000000000D+00  0.0000000000000D+00
   372  3.7100000000000D+00  0.0000000000000D+00  0.0000000000000D+00
   373  3.7200000000000D+00  0.0000000000000D+00  0.0000000000000D+00
   374  3.7300000000000D+00  0.0000000000000D+00  0.0000000000000D+00
   375  3.7400000000000D+00  0.0000000000000D+00  0.0000000000000D+00
   376  3.7500000000000D+00  0.0000000000000D+00  0.0000000000000D+00
   377  3.7600000000000D+00  0.0000000000000D+00  0.0000000000000D+00
   378  3.7700000000000D+00  0.0000000000000D+00  0.0000000000000D+00
   379  3.7800000000000D+00  0.0000000000000D+00  0.0000000000000D+00
   380  3.7900000000000D+00  0.0000000000000D+00  0.0000000000000D+00
   381  3.8000000000000D+00  0.0000000000000D+00  0.0000000000000D+00
   382  3.8100000000000D+00  0.0000000000000D+00  0.0000000000000D+00
   383  3.8200000000000D+00  0.0000000000000D+00  0.0000000000000D+00
   384  3.8300000000000D+00  0.0000000000000D+00  0.0000000000000D+00
   385  3.8400000000000D+00  0.0000000000000D+00  0.0000000000000D+00
   386  3.8500000000000D+00  0.0000000000000D+00  0.0000000000000D+00
   387  3.8600000000000D+00  0.0000000000000D+00  0.0000000000000D+00
   388  3.8700000000000D+00  0.0000000000000D+00  0.0000000000000D+00
   389  3.8800000000000D+00  0.0000000000000D+00  0.0000000000000D+00
   390  3.8900000000000D+00  0.0000000000000D+00  0.0000000000000D+00
   391  3.9000000000000D+00  0.0000000000000D+00  0.0000000000000D+00
   392  3.9100000000000D+00  0.0000000000000D+00  0.0000000000000D+00
   393  3.9200000000000D+00  0.0000000000000D+00  0.0000000000000D+00
   394  3.9300000000000D+00  0.0000000000000D+00  0.0000000000000D+00
   395  3.9400000000000D+00  0.0000000000000D+00  0.0000000000000D+00
   396  3.9500000000000D+00  0.0000000000000D+00  0.0000000000000D+00
   397  3.9600000000000D+00  0.0000000000000D+00  0.0000000000000D+00
   398  3.9700000000000D+00  0.0000000000000D+00  0.0000000000000D+00
   399  3.9800000000000D+00  0.0000000000000D+00  0.0000000000000D+00
   400  3.9900000000000D+00  0.0000000000000D+00  0.0000000000000D+00
   401  4.0000000000000D+00  0.0000000000000D+00  0.0000000000000D+00
   402  4.0100000000000D+00  0.0000000000000D+00  0.0000000000000D+00
   403  4.0200000000000D+00  0.0000000000000D+00  0.0000000000000D+00
   404  4.0300000000000D+00  0.0000000000000D+00  0.0000000000000D+00
   405  4.0400000000000D+00  0.0000000000000D+00  0.0000000000000D+00
   406  4.0500000000000D+00  0.0000000000000D+00  0.0000000000000D+00
   407  4.0600000000000D+00  0.0000000000000D+00  0.0000000000000D+00
   408  4.0700000000000D+00  0.0000000000000D+00  0.0000000000000D+00
   409  4.0800000000000D+00  0.0000000000000D+00  0.0000000000000D+00
   410  4.0900000000000D+00  0.0000000000000D+00  0.0000000000000D+00
   411  4.1000000000000D+00  0.0000000000000D+00  0.0000000000000D+00
   412  4.1100000000000D+00  0.0000000000000D+00  0.0000000000000D+00
   413  4.1200000000000D+00  0.0000000000000D+00  0.0000000000000D+00
   414  4.1300000000000D+00  0.0000000000000D+00  0.0000000000000D+00
   415  4.1400000000000D+00  0.0000000000000D+00  0.0000000000000D+00
   416  4.1500000000000D+00  0.0000000000000D+00  0.0000000000000D+00
   417  4.1600000000000D+00  0.0000000000000D+00  0.0000000000000D+00
   418  4.1700000000000D+00  0.0000000000000D+00  0.0000000000000D+00
   419  4.1800000000000D+00  0.0000000000000D+00  0.0000000000000D+00
   420  4.1900000000000D+00  0.0000000000000D+00  0.0000000000000D+00
   421  4.2000000000000D+00  0.0000000000000D+00  0.0000000000000D+00
   422  4.2100000000000D+00  0.0000000000000D+00  0.0000000000000D+00