Ca    ONCVPSP-3.3.1  r_core=   2.24135   2.49537   2.43654
     20.0000     10.0000      210904    zatom,zion,pspd
     8       2   2     4   600     0    pspcod,pspxc,lmax,lloc,mmax,r2well
  5.99000000  0.00000000  0.00000000    rchrg fchrg qchrg
     2     2     2     0    nproj
     3     1           extension_switch
     3     4     0    nprojso
   0                        -4.1531952285632D-01  2.3589861506393D+00
     1  0.0000000000000D+00  9.2443760979499D-12  4.9291126735795D-12
     2  1.0000000000000D-02  6.8754842072481D-03  5.7503962032796D-02
     3  2.0000000000000D-02  1.3768253167619D-02  1.1491586904294D-01
     4  3.0000000000000D-02  2.0695514625400D-02  1.7214381390443D-01
     5  4.0000000000000D-02  2.7674322706561D-02  2.2909618519517D-01
     6  5.0000000000000D-02  3.4721502105606D-02  2.8568181482424D-01
     7  6.0000000000000D-02  4.1853573461097D-02  3.4181012538599D-01
     8  7.0000000000000D-02  4.9086680305161D-02  3.9739127714409D-01
     9  8.0000000000000D-02  5.6436517963070D-02  4.5233631454372D-01
    10  9.0000000000000D-02  6.3918264767524D-02  5.0655731214404D-01
    11  1.0000000000000D-01  7.1546515938639D-02  5.5996751985587D-01
    12  1.1000000000000D-01  7.9335220465044D-02  6.1248150736140D-01
    13  1.2000000000000D-01  8.7297621303824D-02  6.6401530758358D-01
    14  1.3000000000000D-01  9.5446199197608D-02  7.1448655906288D-01
    15  1.4000000000000D-01  1.0379262038588D-01  7.6381464708847D-01
    16  1.5000000000000D-01  1.1234768846479D-01  8.1192084341940D-01
    17  1.6000000000000D-01  1.2112130062538D-01  8.5872844441944D-01
    18  1.7000000000000D-01  1.3012240847468D-01  9.0416290741711D-01
    19  1.8000000000000D-01  1.3935898361713D-01  9.4815198508952D-01
    20  1.9000000000000D-01  1.4883798814618D-01  9.9062585765623D-01
    21  2.0000000000000D-01  1.5856535016712D-01  1.0315172626561D+00
    22  2.1000000000000D-01  1.6854594444308D-01  1.0707616220683D+00
    23  2.2000000000000D-01  1.7878357822611D-01  1.1082971665242D+00
    24  2.3000000000000D-01  1.8928098230530D-01  1.1440650563486D+00
    25  2.4000000000000D-01  2.0003980727372D-01  1.1780094991526D+00
    26  2.5000000000000D-01  2.1106062498554D-01  1.2100778636937D+00
    27  2.6000000000000D-01  2.2234293514505D-01  1.2402207897056D+00
    28  2.7000000000000D-01  2.3388517693953D-01  1.2683922933945D+00
    29  2.8000000000000D-01  2.4568474559924D-01  1.2945498682874D+00
    30  2.9000000000000D-01  2.5773801373938D-01  1.3186545811129D+00
    31  3.0000000000000D-01  2.7004035731199D-01  1.3406711623910D+00
    32  3.1000000000000D-01  2.8258618596940D-01  1.3605680914016D+00
    33  3.2000000000000D-01  2.9536897761626D-01  1.3783176752009D+00
    34  3.3000000000000D-01  3.0838131690364D-01  1.3938961213557D+00
    35  3.4000000000000D-01  3.2161493739692D-01  1.4072836040625D+00
    36  3.5000000000000D-01  3.3506076712915D-01  1.4184643233270D+00
    37  3.6000000000000D-01  3.4870897723316D-01  1.4274265568789D+00
    38  3.7000000000000D-01  3.6254903332940D-01  1.4341627045089D+00
    39  3.8000000000000D-01  3.7656974933218D-01  1.4386693245199D+00
    40  3.9000000000000D-01  3.9075934332471D-01  1.4409471619971D+00
    41  4.0000000000000D-01  4.0510549514351D-01  1.4410011686162D+00
    42  4.1000000000000D-01  4.1959540530485D-01  1.4388405137207D+00
    43  4.2000000000000D-01  4.3421585490049D-01  1.4344785864194D+00
    44  4.3000000000000D-01  4.4895326608709D-01  1.4279329884748D+00
    45  4.4000000000000D-01  4.6379376279266D-01  1.4192255177717D+00
    46  4.5000000000000D-01  4.7872323126532D-01  1.4083821421812D+00
    47  4.6000000000000D-01  4.9372738009358D-01  1.3954329636613D+00
    48  4.7000000000000D-01  5.0879179933351D-01  1.3804121724583D+00
    49  4.8000000000000D-01  5.2390201838726D-01  1.3633579913088D+00
    50  4.9000000000000D-01  5.3904356228769D-01  1.3443126095646D+00
    51  5.0000000000000D-01  5.5420200605756D-01  1.3233221072041D+00
    52  5.1000000000000D-01  5.6936302682634D-01  1.3004363687184D+00
    53  5.2000000000000D-01  5.8451245340520D-01  1.2757089869022D+00
    54  5.3000000000000D-01  5.9963631303983D-01  1.2491971566126D+00
    55  5.4000000000000D-01  6.1472087508119D-01  1.2209615585943D+00
    56  5.5000000000000D-01  6.2975269133734D-01  1.1910662335125D+00
    57  5.6000000000000D-01  6.4471863289306D-01  1.1595784463672D+00
    58  5.7000000000000D-01  6.5960592320942D-01  1.1265685415064D+00
    59  5.8000000000000D-01  6.7440216734221D-01  1.0921097884924D+00
    60  5.9000000000000D-01  6.8909537714549D-01  1.0562782191149D+00
    61  6.0000000000000D-01  7.0367399235509D-01  1.0191524558828D+00
    62  6.1000000000000D-01  7.1812689747589D-01  9.8081353236908D-01
    63  6.2000000000000D-01  7.3244343442651D-01  9.4134470581487D-01
    64  6.3000000000000D-01  7.4661341092484D-01  9.0083126244215D-01
    65  6.4000000000000D-01  7.6062710462780D-01  8.5936031595717D-01
    66  6.5000000000000D-01  7.7447526306882D-01  8.1702059976315D-01
    67  6.6000000000000D-01  7.8814909946620D-01  7.7390225343441D-01
    68  6.7000000000000D-01  8.0164028450461D-01  7.3009660403570D-01
    69  6.8000000000000D-01  8.1494093422055D-01  6.8569594290132D-01
    70  6.9000000000000D-01  8.2804359415064D-01  6.4079329851649D-01
    71  7.0000000000000D-01  8.4094121992785D-01  5.9548220616973D-01
    72  7.1000000000000D-01  8.5362715453661D-01  5.4985647506846D-01
    73  7.2000000000000D-01  8.6609510246172D-01  5.0400995363137D-01
    74  7.3000000000000D-01  8.7833910098888D-01  4.5803629368971D-01
    75  7.4000000000000D-01  8.9035348893511D-01  4.1202871434489D-01
    76  7.5000000000000D-01  9.0213287310695D-01  3.6607976624289D-01
    77  7.6000000000000D-01  9.1367209280127D-01  3.2028109703535D-01
    78  7.7000000000000D-01  9.2496618267842D-01  2.7472321880359D-01
    79  7.8000000000000D-01  9.3601033435090D-01  2.2949527822529D-01
    80  7.9000000000000D-01  9.4679985704069D-01  1.8468483026285D-01
    81  8.0000000000000D-01  9.5733013766732D-01  1.4037761614933D-01
    82  8.1000000000000D-01  9.6759660073396D-01  9.6657346440691D-02
    83  8.2000000000000D-01  9.7759466838289D-01  5.3605489892508D-02
    84  8.3000000000000D-01  9.8731972099186D-01  1.1301068905472D-02
    85  8.4000000000000D-01  9.9676705868189D-01 -3.0179537733232D-02
    86  8.5000000000000D-01  1.0059318641022D+00 -7.0762784106531D-02
    87  8.6000000000000D-01  1.0148091668518D+00 -1.1037813773987D-01
    88  8.7000000000000D-01  1.0233938098881D+00 -1.4895825083469D-01
    89  8.8000000000000D-01  1.0316804182598D+00 -1.8643912153867D-01
    90  8.9000000000000D-01  1.0396633704905D+00 -2.2276024466229D-01
    91  9.0000000000000D-01  1.0473367729187D+00 -2.5786475128755D-01
    92  9.1000000000000D-01  1.0546944372854D+00 -2.9169953675431D-01
    93  9.2000000000000D-01  1.0617298618376D+00 -3.2421537655161D-01
    94  9.3000000000000D-01  1.0684362161927D+00 -3.5536702968595D-01
    95  9.4000000000000D-01  1.0748063301864D+00 -3.8511332914508D-01
    96  9.5000000000000D-01  1.0808326868987D+00 -4.1341725912514D-01
    97  9.6000000000000D-01  1.0865074200257D+00 -4.4024601873914D-01
    98  9.7000000000000D-01  1.0918223157334D+00 -4.6557107197797D-01
    99  9.8000000000000D-01  1.0967688191033D+00 -4.8936818374799D-01
   100  9.9000000000000D-01  1.1013380452443D+00 -5.1161744186458D-01
   101  1.0000000000000D+00  1.1055207951142D+00 -5.3230326493746D-01
   102  1.0100000000000D+00  1.1093075760618D+00 -5.5141439613886D-01
   103  1.0200000000000D+00  1.1126886270667D+00 -5.6894388290354D-01
   104  1.0300000000000D+00  1.1156539486199D+00 -5.8488904266549D-01
   105  1.0400000000000D+00  1.1181933371535D+00 -5.9925141479544D-01
   106  1.0500000000000D+00  1.1202964238992D+00 -6.1203669895397D-01
   107  1.0600000000000D+00  1.1219527180145D+00 -6.2325468013772D-01
   108  1.0700000000000D+00  1.1231516537904D+00 -6.3291914074537D-01
   109  1.0800000000000D+00  1.1238826417186D+00 -6.4104776004523D-01
   110  1.0900000000000D+00  1.1241351231654D+00 -6.4766200148005D-01
   111  1.1000000000000D+00  1.1238986283756D+00 -6.5278698828749D-01
   112  1.1100000000000D+00  1.1231628374944D+00 -6.5645136797172D-01
   113  1.1200000000000D+00  1.1219176442745D+00 -6.5868716620059D-01
   114  1.1300000000000D+00  1.1201532221094D+00 -6.5952963074984D-01
   115  1.1400000000000D+00  1.1178600920123D+00 -6.5901706615072D-01
   116  1.1500000000000D+00  1.1150291921398D+00 -6.5719065973989D-01
   117  1.1600000000000D+00  1.1116519484415D+00 -6.5409429984265D-01
   118  1.1700000000000D+00  1.1077203460002D+00 -6.4977438685237D-01
   119  1.1800000000000D+00  1.1032270006185D+00 -6.4427963799070D-01
   120  1.1900000000000D+00  1.0981652301937D+00 -6.3766088656509D-01
   121  1.2000000000000D+00  1.0925291254158D+00 -6.2997087655507D-01
   122  1.2100000000000D+00  1.0863136193223D+00 -6.2126405337459D-01
   123  1.2200000000000D+00  1.0795145552393D+00 -6.1159635167018D-01
   124  1.2300000000000D+00  1.0721287526378D+00 -6.0102498102574D-01
   125  1.2400000000000D+00  1.0641540704463D+00 -5.8960821044250D-01
   126  1.2500000000000D+00  1.0555894673574D+00 -5.7740515246884D-01
   127  1.2600000000000D+00  1.0464350586827D+00 -5.6447554784840D-01
   128  1.2700000000000D+00  1.0366921693303D+00 -5.5087955153957D-01
   129  1.2800000000000D+00  1.0263633824751D+00 -5.3667752096248D-01
   130  1.2900000000000D+00  1.0154525835299D+00 -5.2192980730153D-01
   131  1.3000000000000D+00  1.0039649990492D+00 -5.0669655066247D-01
   132  1.3100000000000D+00  9.9190723019377D-01 -4.9103747989248D-01
   133  1.3200000000000D+00  9.7928728044221D-01 -4.7501171780923D-01
   134  1.3300000000000D+00  9.6611457726455D-01 -4.5867759255281D-01
   135  1.3400000000000D+00  9.5239998745661D-01 -4.4209245579474D-01
   136  1.3500000000000D+00  9.3815582593929D-01 -4.2531250841923D-01
   137  1.3600000000000D+00  9.2339585781386D-01 -4.0839263430318D-01
   138  1.3700000000000D+00  9.0813529348710D-01 -3.9138624280002D-01
   139  1.3800000000000D+00  8.9239077679468D-01 -3.7434512039108D-01
   140  1.3900000000000D+00  8.7618036598738D-01 -3.5731929204666D-01
   141  1.4000000000000D+00  8.5952350755908D-01 -3.4035689270031D-01
   142  1.4100000000000D+00  8.4244100294320D-01 -3.2350404917414D-01
   143  1.4200000000000D+00  8.2495496803963D-01 -3.0680477298101D-01
   144  1.4300000000000D+00  8.0708878575079D-01 -2.9030086414599D-01
   145  1.4400000000000D+00  7.8886705156926D-01 -2.7403182636654D-01
   146  1.4500000000000D+00  7.7031551241570D-01 -2.5803479362835D-01
   147  1.4600000000000D+00  7.5146099896027D-01 -2.4234446833665D-01
   148  1.4700000000000D+00  7.3233135158657D-01 -2.2699307113647D-01
   149  1.4800000000000D+00  7.1295534041094D-01 -2.1201030222774D-01
   150  1.4900000000000D+00  6.9336257954257D-01 -1.9742331431221D-01
   151  1.5000000000000D+00  6.7358343606176D-01 -1.8325669688297D-01
   152  1.5100000000000D+00  6.5364893403916D-01 -1.6953247178738D-01
   153  1.5200000000000D+00  6.3359065404236D-01 -1.5627009982272D-01
   154  1.5300000000000D+00  6.1344062862332D-01 -1.4348649802057D-01
   155  1.5400000000000D+00  5.9323123419381D-01 -1.3119606745137D-01
   156  1.5500000000000D+00  5.7299507991925D-01 -1.1941073095649D-01
   157  1.5600000000000D+00  5.5276489403072D-01 -1.0813998066988D-01
   158  1.5700000000000D+00  5.3257340824840D-01 -9.7390934595350D-02
   159  1.5800000000000D+00  5.1245324077506D-01 -8.7168402004522D-02
   160  1.5900000000000D+00  4.9243677853778D-01 -7.7474956922236D-02
   161  1.6000000000000D+00  4.7255605921347D-01 -6.8311019303530D-02
   162  1.6100000000000D+00  4.5284265369158D-01 -5.9674943201643D-02
   163  1.6200000000000D+00  4.3332754955156D-01 -5.1563111396668D-02
   164  1.6300000000000D+00  4.1404103619850D-01 -4.3970035804435D-02
   165  1.6400000000000D+00  3.9501259223195D-01 -3.6888463047596D-02
   166  1.6500000000000D+00  3.7627077569815D-01 -3.0309484508059D-02
   167  1.6600000000000D+00  3.5784311775490D-01 -2.4222650205970D-02
   168  1.6700000000000D+00  3.3975602041826D-01 -1.8616085804166D-02
   169  1.6800000000000D+00  3.2203465883911D-01 -1.3476612094051D-02
   170  1.6900000000000D+00  3.0470288879984D-01 -8.7898662285626D-03
   171  1.7000000000000D+00  2.8778315977580D-01 -4.5404241066883D-03
   172  1.7100000000000D+00  2.7129643426068D-01 -7.1192314121195D-04
   173  1.7200000000000D+00  2.5526211359313D-01  2.7128151155221D-03
   174  1.7300000000000D+00  2.3969797096144D-01  5.7516632730756D-03
   175  1.7400000000000D+00  2.2462009173592D-01  8.4230677868672D-03
   176  1.7500000000000D+00  2.1004282172882D-01  1.0745930786379D-02
   177  1.7600000000000D+00  1.9597872349173D-01  1.2739494461341D-02
   178  1.7700000000000D+00  1.8243854109155D-01  1.4423228675836D-02
   179  1.7800000000000D+00  1.6943117351416D-01  1.5816722243212D-02
   180  1.7900000000000D+00  1.5696365687009D-01  1.6939578341556D-02
   181  1.8000000000000D+00  1.4504115569622D-01  1.7811314614832D-02
   182  1.8100000000000D+00  1.3366696313509D-01  1.8451268124679D-02
   183  1.8200000000000D+00  1.2284251055136D-01  1.8878505928037D-02
   184  1.8300000000000D+00  1.1256738584710D-01  1.9111740993086D-02
   185  1.8400000000000D+00  1.0283936141444D-01  1.9169254582744D-02
   186  1.8500000000000D+00  9.3654430383949D-02  1.9068824255327D-02
   187  1.8600000000000D+00  8.5006852445845D-02  1.8827658958751D-02
   188  1.8700000000000D+00  7.6889207602466D-02  1.8462340048194D-02
   189  1.8800000000000D+00  6.9292458889819D-02  1.7988769536186D-02
   190  1.8900000000000D+00  6.2206022782944D-02  1.7422124686874D-02
   191  1.9000000000000D+00  5.5617847592429D-02  1.6776819611577D-02
   192  1.9100000000000D+00  4.9514499222553D-02  1.6066473585193D-02
   193  1.9200000000000D+00  4.3881253712947D-02  1.5303885870781D-02
   194  1.9300000000000D+00  3.8702196668713D-02  1.4501017533710D-02
   195  1.9400000000000D+00  3.3960328162779D-02  1.3668979114783D-02
   196  1.9500000000000D+00  2.9637673726016D-02  1.2818025259491D-02
   197  1.9600000000000D+00  2.5715399726415D-02  1.1957554775528D-02
   198  1.9700000000000D+00  2.2173933451298D-02  1.1096116966002D-02
   199  1.9800000000000D+00  1.8993086743963D-02  1.0241423269781D-02
   200  1.9900000000000D+00  1.6152182713765D-02  9.4003641298581D-03
   201  2.0000000000000D+00  1.3630185024242D-02  8.5790309856833D-03
   202  2.0100000000000D+00  1.1405828756419D-02  7.7827424542556D-03
   203  2.0200000000000D+00  9.4577525224632D-03  7.0160750937605D-03
   204  2.0300000000000D+00  7.7646309241128D-03  6.2828976516619D-03
   205  2.0400000000000D+00  6.3053067004897D-03  5.5864088573465D-03
   206  2.0500000000000D+00  5.0589219478977D-03  4.9291781758010D-03
   207  2.0600000000000D+00  4.0050477529322D-03  4.3131890764035D-03
   208  2.0700000000000D+00  3.1238127248501D-03  3.7398860289003D-03
   209  2.0800000000000D+00  2.3960215937214D-03  3.2102153793975D-03
   210  2.0900000000000D+00  1.8032877603177D-03  2.7246868802442D-03
   211  2.1000000000000D+00  1.3281374466838D-03  2.2834094540512D-03
   212  2.1100000000000D+00  9.5410696430296D-04  1.8861252355928D-03
   213  2.1200000000000D+00  6.6586422248041D-04  1.5322784308496D-03
   214  2.1300000000000D+00  4.4941923794256D-04  1.2211795239253D-03
   215  2.1400000000000D+00  2.9204306834759D-04  9.5186922191820D-04
   216  2.1500000000000D+00  1.8225270199899D-04  7.2305819335557D-04
   217  2.1600000000000D+00  1.0978323810459D-04  5.3305875401870D-04
   218  2.1700000000000D+00  6.5657006011682D-05  3.7976259296479D-04
   219  2.1800000000000D+00  4.1794841396478D-05  2.6037691078000D-04
   220  2.1900000000000D+00  3.1264448635186D-05  1.7147833239257D-04
   221  2.2000000000000D+00  2.8371595128929D-05  1.0900462576818D-04
   222  2.2100000000000D+00  2.9918928764395D-05  6.9730900813966D-05
   223  2.2200000000000D+00  3.3844175518627D-05  5.0109888272713D-05
   224  2.2300000000000D+00  3.6780973306376D-05  4.2711709493228D-05
   225  2.2400000000000D+00  3.4665619984786D-05  3.7739888131490D-05
   226  2.2500000000000D+00  2.3912430802382D-05  2.5725382245520D-05
   227  2.2600000000000D+00  9.9123875244959D-06  1.0734852451313D-05
   228  2.2700000000000D+00 -1.0757429190174D-06 -1.1112186458076D-06
   229  2.2800000000000D+00 -3.6638119685782D-06 -3.7709296459147D-06
   230  2.2900000000000D+00 -1.7856878107699D-06 -1.8351928386977D-06
   231  2.3000000000000D+00  4.7354615491652D-07  4.7797329845412D-07
   232  2.3100000000000D+00  7.9904505168076D-07  8.0319740649262D-07
   233  2.3200000000000D+00  2.4702652042976D-07  2.4747194110019D-07
   234  2.3300000000000D+00 -7.3586758498172D-08 -8.0060688009890D-08
   235  2.3400000000000D+00 -8.7841331004547D-08 -9.5569332573648D-08
   236  2.3500000000000D+00 -9.0316093599916D-09 -9.8261816929394D-09
   237  2.3600000000000D+00  0.0000000000000D+00  0.0000000000000D+00
   238  2.3700000000000D+00  0.0000000000000D+00  0.0000000000000D+00
   239  2.3800000000000D+00  0.0000000000000D+00  0.0000000000000D+00
   240  2.3900000000000D+00  0.0000000000000D+00  0.0000000000000D+00
   241  2.4000000000000D+00  0.0000000000000D+00  0.0000000000000D+00
   242  2.4100000000000D+00  0.0000000000000D+00  0.0000000000000D+00
   243  2.4200000000000D+00  0.0000000000000D+00  0.0000000000000D+00
   244  2.4300000000000D+00  0.0000000000000D+00  0.0000000000000D+00
   245  2.4400000000000D+00  0.0000000000000D+00  0.0000000000000D+00
   246  2.4500000000000D+00  0.0000000000000D+00  0.0000000000000D+00
   247  2.4600000000000D+00  0.0000000000000D+00  0.0000000000000D+00
   248  2.4700000000000D+00  0.0000000000000D+00  0.0000000000000D+00
   249  2.4800000000000D+00  0.0000000000000D+00  0.0000000000000D+00
   250  2.4900000000000D+00  0.0000000000000D+00  0.0000000000000D+00
   251  2.5000000000000D+00  0.0000000000000D+00  0.0000000000000D+00
   252  2.5100000000000D+00  0.0000000000000D+00  0.0000000000000D+00
   253  2.5200000000000D+00  0.0000000000000D+00  0.0000000000000D+00
   254  2.5300000000000D+00  0.0000000000000D+00  0.0000000000000D+00
   255  2.5400000000000D+00  0.0000000000000D+00  0.0000000000000D+00
   256  2.5500000000000D+00  0.0000000000000D+00  0.0000000000000D+00
   257  2.5600000000000D+00  0.0000000000000D+00  0.0000000000000D+00
   258  2.5700000000000D+00  0.0000000000000D+00  0.0000000000000D+00
   259  2.5800000000000D+00  0.0000000000000D+00  0.0000000000000D+00
   260  2.5900000000000D+00  0.0000000000000D+00  0.0000000000000D+00
   261  2.6000000000000D+00  0.0000000000000D+00  0.0000000000000D+00
   262  2.6100000000000D+00  0.0000000000000D+00  0.0000000000000D+00
   263  2.6200000000000D+00  0.0000000000000D+00  0.0000000000000D+00
   264  2.6300000000000D+00  0.0000000000000D+00  0.0000000000000D+00
   265  2.6400000000000D+00  0.0000000000000D+00  0.0000000000000D+00
   266  2.6500000000000D+00  0.0000000000000D+00  0.0000000000000D+00
   267  2.6600000000000D+00  0.0000000000000D+00  0.0000000000000D+00
   268  2.6700000000000D+00  0.0000000000000D+00  0.0000000000000D+00
   269  2.6800000000000D+00  0.0000000000000D+00  0.0000000000000D+00
   270  2.6900000000000D+00  0.0000000000000D+00  0.0000000000000D+00
   271  2.7000000000000D+00  0.0000000000000D+00  0.0000000000000D+00
   272  2.7100000000000D+00  0.0000000000000D+00  0.0000000000000D+00
   273  2.7200000000000D+00  0.0000000000000D+00  0.0000000000000D+00
   274  2.7300000000000D+00  0.0000000000000D+00  0.0000000000000D+00
   275  2.7400000000000D+00  0.0000000000000D+00  0.0000000000000D+00
   276  2.7500000000000D+00  0.0000000000000D+00  0.0000000000000D+00
   277  2.7600000000000D+00  0.0000000000000D+00  0.0000000000000D+00
   278  2.7700000000000D+00  0.0000000000000D+00  0.0000000000000D+00
   279  2.7800000000000D+00  0.0000000000000D+00  0.0000000000000D+00
   280  2.7900000000000D+00  0.0000000000000D+00  0.0000000000000D+00
   281  2.8000000000000D+00  0.0000000000000D+00  0.0000000000000D+00
   282  2.8100000000000D+00  0.0000000000000D+00  0.0000000000000D+00
   283  2.8200000000000D+00  0.0000000000000D+00  0.0000000000000D+00
   284  2.8300000000000D+00  0.0000000000000D+00  0.0000000000000D+00
   285  2.8400000000000D+00  0.0000000000000D+00  0.0000000000000D+00
   286  2.8500000000000D+00  0.0000000000000D+00  0.0000000000000D+00
   287  2.8600000000000D+00  0.0000000000000D+00  0.0000000000000D+00
   288  2.8700000000000D+00  0.0000000000000D+00  0.0000000000000D+00
   289  2.8800000000000D+00  0.0000000000000D+00  0.0000000000000D+00
   290  2.8900000000000D+00  0.0000000000000D+00  0.0000000000000D+00
   291  2.9000000000000D+00  0.0000000000000D+00  0.0000000000000D+00
   292  2.9100000000000D+00  0.0000000000000D+00  0.0000000000000D+00
   293  2.9200000000000D+00  0.0000000000000D+00  0.0000000000000D+00
   294  2.9300000000000D+00  0.0000000000000D+00  0.0000000000000D+00
   295  2.9400000000000D+00  0.0000000000000D+00  0.0000000000000D+00
   296  2.9500000000000D+00  0.0000000000000D+00  0.0000000000000D+00
   297  2.9600000000000D+00  0.0000000000000D+00  0.0000000000000D+00
   298  2.9700000000000D+00  0.0000000000000D+00  0.0000000000000D+00
   299  2.9800000000000D+00  0.0000000000000D+00  0.0000000000000D+00
   300  2.9900000000000D+00  0.0000000000000D+00  0.0000000000000D+00
   301  3.0000000000000D+00  0.0000000000000D+00  0.0000000000000D+00
   302  3.0100000000000D+00  0.0000000000000D+00  0.0000000000000D+00
   303  3.0200000000000D+00  0.0000000000000D+00  0.0000000000000D+00
   304  3.0300000000000D+00  0.0000000000000D+00  0.0000000000000D+00
   305  3.0400000000000D+00  0.0000000000000D+00  0.0000000000000D+00
   306  3.0500000000000D+00  0.0000000000000D+00  0.0000000000000D+00
   307  3.0600000000000D+00  0.0000000000000D+00  0.0000000000000D+00
   308  3.0700000000000D+00  0.0000000000000D+00  0.0000000000000D+00
   309  3.0800000000000D+00  0.0000000000000D+00  0.0000000000000D+00
   310  3.0900000000000D+00  0.0000000000000D+00  0.0000000000000D+00
   311  3.1000000000000D+00  0.0000000000000D+00  0.0000000000000D+00
   312  3.1100000000000D+00  0.0000000000000D+00  0.0000000000000D+00
   313  3.1200000000000D+00  0.0000000000000D+00  0.0000000000000D+00
   314  3.1300000000000D+00  0.0000000000000D+00  0.0000000000000D+00
   315  3.1400000000000D+00  0.0000000000000D+00  0.0000000000000D+00
   316  3.1500000000000D+00  0.0000000000000D+00  0.0000000000000D+00
   317  3.1600000000000D+00  0.0000000000000D+00  0.0000000000000D+00
   318  3.1700000000000D+00  0.0000000000000D+00  0.0000000000000D+00
   319  3.1800000000000D+00  0.0000000000000D+00  0.0000000000000D+00
   320  3.1900000000000D+00  0.0000000000000D+00  0.0000000000000D+00
   321  3.2000000000000D+00  0.0000000000000D+00  0.0000000000000D+00
   322  3.2100000000000D+00  0.0000000000000D+00  0.0000000000000D+00
   323  3.2200000000000D+00  0.0000000000000D+00  0.0000000000000D+00
   324  3.2300000000000D+00  0.0000000000000D+00  0.0000000000000D+00
   325  3.2400000000000D+00  0.0000000000000D+00  0.0000000000000D+00
   326  3.2500000000000D+00  0.0000000000000D+00  0.0000000000000D+00
   327  3.2600000000000D+00  0.0000000000000D+00  0.0000000000000D+00
   328  3.2700000000000D+00  0.0000000000000D+00  0.0000000000000D+00
   329  3.2800000000000D+00  0.0000000000000D+00  0.0000000000000D+00
   330  3.2900000000000D+00  0.0000000000000D+00  0.0000000000000D+00
   331  3.3000000000000D+00  0.0000000000000D+00  0.0000000000000D+00
   332  3.3100000000000D+00  0.0000000000000D+00  0.0000000000000D+00
   333  3.3200000000000D+00  0.0000000000000D+00  0.0000000000000D+00
   334  3.3300000000000D+00  0.0000000000000D+00  0.0000000000000D+00
   335  3.3400000000000D+00  0.0000000000000D+00  0.0000000000000D+00
   336  3.3500000000000D+00  0.0000000000000D+00  0.0000000000000D+00
   337  3.3600000000000D+00  0.0000000000000D+00  0.0000000000000D+00
   338  3.3700000000000D+00  0.0000000000000D+00  0.0000000000000D+00
   339  3.3800000000000D+00  0.0000000000000D+00  0.0000000000000D+00
   340  3.3900000000000D+00  0.0000000000000D+00  0.0000000000000D+00
   341  3.4000000000000D+00  0.0000000000000D+00  0.0000000000000D+00
   342  3.4100000000000D+00  0.0000000000000D+00  0.0000000000000D+00
   343  3.4200000000000D+00  0.0000000000000D+00  0.0000000000000D+00
   344  3.4300000000000D+00  0.0000000000000D+00  0.0000000000000D+00
   345  3.4400000000000D+00  0.0000000000000D+00  0.0000000000000D+00
   346  3.4500000000000D+00  0.0000000000000D+00  0.0000000000000D+00
   347  3.4600000000000D+00  0.0000000000000D+00  0.0000000000000D+00
   348  3.4700000000000D+00  0.0000000000000D+00  0.0000000000000D+00
   349  3.4800000000000D+00  0.0000000000000D+00  0.0000000000000D+00
   350  3.4900000000000D+00  0.0000000000000D+00  0.0000000000000D+00
   351  3.5000000000000D+00  0.0000000000000D+00  0.0000000000000D+00
   352  3.5100000000000D+00  0.0000000000000D+00  0.0000000000000D+00
   353  3.5200000000000D+00  0.0000000000000D+00  0.0000000000000D+00
   354  3.5300000000000D+00  0.0000000000000D+00  0.0000000000000D+00
   355  3.5400000000000D+00  0.0000000000000D+00  0.0000000000000D+00
   356  3.5500000000000D+00  0.0000000000000D+00  0.0000000000000D+00
   357  3.5600000000000D+00  0.0000000000000D+00  0.0000000000000D+00
   358  3.5700000000000D+00  0.0000000000000D+00  0.0000000000000D+00
   359  3.5800000000000D+00  0.0000000000000D+00  0.0000000000000D+00
   360  3.5900000000000D+00  0.0000000000000D+00  0.0000000000000D+00
   361  3.6000000000000D+00  0.0000000000000D+00  0.0000000000000D+00
   362  3.6100000000000D+00  0.0000000000000D+00  0.0000000000000D+00
   363  3.6200000000000D+00  0.0000000000000D+00  0.0000000000000D+00
   364  3.6300000000000D+00  0.0000000000000D+00  0.0000000000000D+00
   365  3.6400000000000D+00  0.0000000000000D+00  0.0000000000000D+00
   366  3.6500000000000D+00  0.0000000000000D+00  0.0000000000000D+00
   367  3.6600000000000D+00  0.0000000000000D+00  0.0000000000000D+00
   368  3.6700000000000D+00  0.0000000000000D+00  0.0000000000000D+00
   369  3.6800000000000D+00  0.0000000000000D+00  0.0000000000000D+00
   370  3.6900000000000D+00  0.0000000000000D+00  0.0000000000000D+00
   371  3.7000000000000D+00  0.0000000000000D+00  0.0000000000000D+00
   372  3.7100000000000D+00  0.0000000000000D+00  0.0000000000000D+00
   373  3.7200000000000D+00  0.0000000000000D+00  0.0000000000000D+00
   374  3.7300000000000D+00  0.0000000000000D+00  0.0000000000000D+00
   375  3.7400000000000D+00  0.0000000000000D+00  0.0000000000000D+00
   376  3.7500000000000D+00  0.0000000000000D+00  0.0000000000000D+00
   377  3.7600000000000D+00  0.0000000000000D+00  0.0000000000000D+00
   378  3.7700000000000D+00  0.0000000000000D+00  0.0000000000000D+00
   379  3.7800000000000D+00  0.0000000000000D+00  0.0000000000000D+00
   380  3.7900000000000D+00  0.0000000000000D+00  0.0000000000000D+00
   381  3.8000000000000D+00  0.0000000000000D+00  0.0000000000000D+00
   382  3.8100000000000D+00  0.0000000000000D+00  0.0000000000000D+00
   383  3.8200000000000D+00  0.0000000000000D+00  0.0000000000000D+00
   384  3.8300000000000D+00  0.0000000000000D+00  0.0000000000000D+00
   385  3.8400000000000D+00  0.0000000000000D+00  0.0000000000000D+00
   386  3.8500000000000D+00  0.0000000000000D+00  0.0000000000000D+00
   387  3.8600000000000D+00  0.0000000000000D+00  0.0000000000000D+00
   388  3.8700000000000D+00  0.0000000000000D+00  0.0000000000000D+00
   389  3.8800000000000D+00  0.0000000000000D+00  0.0000000000000D+00
   390  3.8900000000000D+00  0.0000000000000D+00  0.0000000000000D+00
   391  3.9000000000000D+00  0.0000000000000D+00  0.0000000000000D+00
   392  3.9100000000000D+00  0.0000000000000D+00  0.0000000000000D+00
   393  3.9200000000000D+00  0.0000000000000D+00  0.0000000000000D+00
   394  3.9300000000000D+00  0.0000000000000D+00  0.0000000000000D+00
   395  3.9400000000000D+00  0.0000000000000D+00  0.0000000000000D+00
   396  3.9500000000000D+00  0.0000000000000D+00  0.0000000000000D+00
   397  3.9600000000000D+00  0.0000000000000D+00  0.0000000000000D+00
   398  3.9700000000000D+00  0.0000000000000D+00  0.0000000000000D+00
   399  3.9800000000000D+00  0.0000000000000D+00  0.0000000000000D+00
   400  3.9900000000000D+00  0.0000000000000D+00  0.0000000000000D+00
   401  4.0000000000000D+00  0.0000000000000D+00  0.0000000000000D+00
   402  4.0100000000000D+00  0.0000000000000D+00  0.0000000000000D+00
   403  4.0200000000000D+00  0.0000000000000D+00  0.0000000000000D+00
   404  4.0300000000000D+00  0.0000000000000D+00  0.0000000000000D+00
   405  4.0400000000000D+00  0.0000000000000D+00  0.0000000000000D+00
   406  4.0500000000000D+00  0.0000000000000D+00  0.0000000000000D+00
   407  4.0600000000000D+00  0.0000000000000D+00  0.0000000000000D+00
   408  4.0700000000000D+00  0.0000000000000D+00  0.0000000000000D+00
   409  4.0800000000000D+00  0.0000000000000D+00  0.0000000000000D+00
   410  4.0900000000000D+00  0.0000000000000D+00  0.0000000000000D+00
   411  4.1000000000000D+00  0.0000000000000D+00  0.0000000000000D+00
   412  4.1100000000000D+00  0.0000000000000D+00  0.0000000000000D+00
   413  4.1200000000000D+00  0.0000000000000D+00  0.0000000000000D+00
   414  4.1300000000000D+00  0.0000000000000D+00  0.0000000000000D+00
   415  4.1400000000000D+00  0.0000000000000D+00  0.0000000000000D+00
   416  4.1500000000000D+00  0.0000000000000D+00  0.0000000000000D+00
   417  4.1600000000000D+00  0.0000000000000D+00  0.0000000000000D+00
   418  4.1700000000000D+00  0.0000000000000D+00  0.0000000000000D+00
   419  4.1800000000000D+00  0.0000000000000D+00  0.0000000000000D+00
   420  4.1900000000000D+00  0.0000000000000D+00  0.0000000000000D+00
   421  4.2000000000000D+00  0.0000000000000D+00  0.0000000000000D+00
   422  4.2100000000000D+00  0.0000000000000D+00  0.0000000000000D+00