Cd    ONCVPSP-3.3.1  r_core=   2.33990   2.70000   3.04207
     48.0000     20.0000      210904    zatom,zion,pspd
     8       2   2     4   600     0    pspcod,pspxc,lmax,lloc,mmax,r2well
  5.99000000  0.00000000  0.00000000    rchrg fchrg qchrg
     2     2     2     0     0    nproj
     1     1           extension_switch
   0                         1.9257790350434D+00 -7.2021693742698D-01
     1  0.0000000000000D+00 -1.8620660569013D-12  5.2418069884652D-12
     2  1.0000000000000D-02  5.6363748914729D-02  1.5750094282784D-02
     3  2.0000000000000D-02  1.1262215327420D-01  3.1513283301812D-02
     4  3.0000000000000D-02  1.6867007675381D-01  4.7302583274989D-02
     5  4.0000000000000D-02  2.2440279910211D-01  6.3130853706347D-02
     6  5.0000000000000D-02  2.7971622320769D-01  7.9010719834797D-02
     7  6.0000000000000D-02  3.3450708100351D-01  9.4954496046011D-02
     8  7.0000000000000D-02  3.8867313782350D-01  1.1097411056230D-01
     9  8.0000000000000D-02  4.4211339482790D-01  1.2708103172012D-01
    10  9.0000000000000D-02  4.9472828911624D-01  1.4328619613836D-01
    11  1.0000000000000D-01  5.4641989114939D-01  1.5959993907270D-01
    12  1.1000000000000D-01  5.9709209910589D-01  1.7603192724243D-01
    13  1.2000000000000D-01  6.4665082980092D-01  1.9259109440605D-01
    14  1.3000000000000D-01  6.9500420580102D-01  2.0928557995049D-01
    15  1.4000000000000D-01  7.4206273837209D-01  2.2612267074655D-01
    16  1.5000000000000D-01  7.8773950590368D-01  2.4310874650989D-01
    17  1.6000000000000D-01  8.3195032745820D-01  2.6024922889219D-01
    18  1.7000000000000D-01  8.7461393110001D-01  2.7754853451217D-01
    19  1.8000000000000D-01  9.1565211666626D-01  2.9501003211979D-01
    20  1.9000000000000D-01  9.5498991264875D-01  3.1263600407011D-01
    21  2.0000000000000D-01  9.9255572686375D-01  3.3042761226565D-01
    22  2.1000000000000D-01  1.0282814905956D+00  3.4838486870770D-01
    23  2.2000000000000D-01  1.0621027959088D+00  3.6650661077846D-01
    24  2.3000000000000D-01  1.0939590258326D+00  3.8479048135607D-01
    25  2.4000000000000D-01  1.1237934771337D+00  4.0323291384552D-01
    26  2.5000000000000D-01  1.1515534754009D+00  4.2182912218769D-01
    27  2.6000000000000D-01  1.1771904821806D+00  4.4057309588891D-01
    28  2.7000000000000D-01  1.2006601939104D+00  4.5945760009298D-01
    29  2.8000000000000D-01  1.2219226324137D+00  4.7847418069669D-01
    30  2.9000000000000D-01  1.2409422267299D+00  4.9761317448994D-01
    31  3.0000000000000D-01  1.2576878860697D+00  5.1686372428067D-01
    32  3.1000000000000D-01  1.2721330636977D+00  5.3621379894498D-01
    33  3.2000000000000D-01  1.2842558115636D+00  5.5565021832266D-01
    34  3.3000000000000D-01  1.2940388255144D+00  5.7515868285893D-01
    35  3.4000000000000D-01  1.3014694809399D+00  5.9472380787401D-01
    36  3.5000000000000D-01  1.3065398587203D+00  6.1432916232355D-01
    37  3.6000000000000D-01  1.3092467613609D+00  6.3395731189507D-01
    38  3.7000000000000D-01  1.3095917192188D+00  6.5358986626793D-01
    39  3.8000000000000D-01  1.3075809867456D+00  6.7320753034827D-01
    40  3.9000000000000D-01  1.3032255286878D+00  6.9279015927412D-01
    41  4.0000000000000D-01  1.2965409962089D+00  7.1231681697129D-01
    42  4.1000000000000D-01  1.2875476929159D+00  7.3176583802681D-01
    43  4.2000000000000D-01  1.2762705307952D+00  7.5111489263339D-01
    44  4.3000000000000D-01  1.2627389760850D+00  7.7034105434703D-01
    45  4.4000000000000D-01  1.2469869851299D+00  7.8942087038868D-01
    46  4.5000000000000D-01  1.2290529302921D+00  8.0833043421158D-01
    47  4.6000000000000D-01  1.2089795160089D+00  8.2704546004741D-01
    48  4.7000000000000D-01  1.1868136851162D+00  8.4554135913704D-01
    49  4.8000000000000D-01  1.1626065155760D+00  8.6379331734608D-01
    50  4.9000000000000D-01  1.1364131077726D+00  8.8177637386027D-01
    51  5.0000000000000D-01  1.1082924625647D+00  8.9946550065305D-01
    52  5.1000000000000D-01  1.0783073503051D+00  9.1683568241484D-01
    53  5.2000000000000D-01  1.0465241710625D+00  9.3386199663349D-01
    54  5.3000000000000D-01  1.0130128063058D+00  9.5051969351541D-01
    55  5.4000000000000D-01  9.7784646233340D-01  9.6678427543906D-01
    56  5.5000000000000D-01  9.4110150575478D-01  9.8263157563553D-01
    57  5.6000000000000D-01  9.0285729135430D-01  9.9803783579536D-01
    58  5.7000000000000D-01  8.6319598269119D-01  1.0129797823064D+00
    59  5.8000000000000D-01  8.2220236581167D-01  1.0274347008344D+00
    60  5.9000000000000D-01  7.7996365647205D-01  1.0413805089667D+00
    61  6.0000000000000D-01  7.3656930129281D-01  1.0547958266470D+00
    62  6.1000000000000D-01  6.9211077328529D-01  1.0676600441420D+00
    63  6.2000000000000D-01  6.4668136221242D-01  1.0799533872897D+00
    64  6.3000000000000D-01  6.0037596026488D-01  1.0916569797929D+00
    65  6.4000000000000D-01  5.5329084355219D-01  1.1027529023352D+00
    66  6.5000000000000D-01  5.0552344992629D-01  1.1132242483085D+00
    67  6.6000000000000D-01  4.5717215367116D-01  1.1230551759608D+00
    68  6.7000000000000D-01  4.0833603760749D-01  1.1322309567822D+00
    69  6.8000000000000D-01  3.5911466317556D-01  1.1407380199711D+00
    70  6.9000000000000D-01  3.0960783907171D-01  1.1485639928320D+00
    71  7.0000000000000D-01  2.5991538902527D-01  1.1556977369814D+00
    72  7.1000000000000D-01  2.1013691931227D-01  1.1621293802485D+00
    73  7.2000000000000D-01  1.6037158661026D-01  1.1678503441834D+00
    74  7.3000000000000D-01  1.1071786680497D-01  1.1728533670976D+00
    75  7.4000000000000D-01  6.1273325364018D-02  1.1771325225852D+00
    76  7.5000000000000D-01  1.2134389895582D-02  1.1806832334883D+00
    77  7.6000000000000D-01 -3.6603874489112D-02  1.1835022812929D+00
    78  7.7000000000000D-01 -8.4847986391843D-02  1.1855878109565D+00
    79  7.8000000000000D-01 -1.3250626530730D-01  1.1869393311890D+00
    80  7.9000000000000D-01 -1.7948904415739D-01  1.1875577102294D+00
    81  8.0000000000000D-01 -2.2570887657757D-01  1.1874451671726D+00
    82  8.1000000000000D-01 -2.7108073836211D-01  1.1866052589253D+00
    83  8.2000000000000D-01 -3.1552222248661D-01  1.1850428628827D+00
    84  8.3000000000000D-01 -3.5895372713935D-01  1.1827641554354D+00
    85  8.4000000000000D-01 -4.0129863620891D-01  1.1797765864320D+00
    86  8.5000000000000D-01 -4.4248349169299D-01  1.1760888497394D+00
    87  8.6000000000000D-01 -4.8243815751306D-01  1.1717108500547D+00
    88  8.7000000000000D-01 -5.2109597424136D-01  1.1666536661386D+00
    89  8.8000000000000D-01 -5.5839390427066D-01  1.1609295106524D+00
    90  8.9000000000000D-01 -5.9427266698262D-01  1.1545516867914D+00
    91  9.0000000000000D-01 -6.2867686349871D-01  1.1475345419200D+00
    92  9.1000000000000D-01 -6.6155509062663D-01  1.1398934184237D+00
    93  9.2000000000000D-01 -6.9286004364681D-01  1.1316446019993D+00
    94  9.3000000000000D-01 -7.2254860761629D-01  1.1228052676169D+00
    95  9.4000000000000D-01 -7.5058193690160D-01  1.1133934233888D+00
    96  9.5000000000000D-01 -7.7692552268847D-01  1.1034278525906D+00
    97  9.6000000000000D-01 -8.0154924825307D-01  1.0929280540802D+00
    98  9.7000000000000D-01 -8.2442743181806D-01  1.0819141813668D+00
    99  9.8000000000000D-01 -8.4553885685640D-01  1.0704069805806D+00
   100  9.9000000000000D-01 -8.6486678974564D-01  1.0584277275983D+00
   101  1.0000000000000D+00 -8.8239898471785D-01  1.0459981645772D+00
   102  1.0100000000000D+00 -8.9812767609034D-01  1.0331404361480D+00
   103  1.0200000000000D+00 -9.1204955780590D-01  1.0198770255175D+00
   104  1.0300000000000D+00 -9.2416575035370D-01  1.0062306907256D+00
   105  1.0400000000000D+00 -9.3448175518390D-01  9.9222440129708D-01
   106  1.0500000000000D+00 -9.4300739677179D-01  9.7788127552410D-01
   107  1.0600000000000D+00 -9.4975675253129D-01  9.6322451860684D-01
   108  1.0700000000000D+00 -9.5474807081490D-01  9.4827736187397D-01
   109  1.0800000000000D+00 -9.5800367728393D-01  9.3306300329464D-01
   110  1.0900000000000D+00 -9.5954986996971D-01  9.1760454948519D-01
   111  1.1000000000000D+00 -9.5941680338694D-01  9.0192495940345D-01
   112  1.1100000000000D+00 -9.5763836209960D-01  8.8604698991231D-01
   113  1.1200000000000D+00 -9.5425202417234D-01  8.6999314338442D-01
   114  1.1300000000000D+00 -9.4929871498246D-01  8.5378561750555D-01
   115  1.1400000000000D+00 -9.4282265189552D-01  8.3744625742349D-01
   116  1.1500000000000D+00 -9.3487118034403D-01  8.2099651037451D-01
   117  1.1600000000000D+00 -9.2549460187066D-01  8.0445738290990D-01
   118  1.1700000000000D+00 -9.1474599473536D-01  7.8784940082670D-01
   119  1.1800000000000D+00 -9.0268102770420D-01  7.7119257189569D-01
   120  1.1900000000000D+00 -8.8935776766164D-01  7.5450635146535D-01
   121  1.2000000000000D+00 -8.7483648170759D-01  7.3780961100788D-01
   122  1.2100000000000D+00 -8.5917943442190D-01  7.2112060965627D-01
   123  1.2200000000000D+00 -8.4245068099039D-01  7.0445696876767D-01
   124  1.2300000000000D+00 -8.2471585689615D-01  6.8783564954115D-01
   125  1.2400000000000D+00 -8.0604196489590D-01  6.7127293369485D-01
   126  1.2500000000000D+00 -7.8649716000044D-01  6.5478440719834D-01
   127  1.2600000000000D+00 -7.6615053318350D-01  6.3838494704741D-01
   128  1.2700000000000D+00 -7.4507189454586D-01  6.2208871104963D-01
   129  1.2800000000000D+00 -7.2333155665175D-01  6.0590913057700D-01
   130  1.2900000000000D+00 -7.0100011875523D-01  5.8985890623788D-01
   131  1.3000000000000D+00 -6.7814825262427D-01  5.7395000640207D-01
   132  1.3100000000000D+00 -6.5484649064563D-01  5.5819366850157D-01
   133  1.3200000000000D+00 -6.3116501690048D-01  5.4260040303016D-01
   134  1.3300000000000D+00 -6.0717346186709D-01  5.2718000014438D-01
   135  1.3400000000000D+00 -5.8294070137134D-01  5.1194153876272D-01
   136  1.3500000000000D+00 -5.5853466043313D-01  4.9689339806279D-01
   137  1.3600000000000D+00 -5.3402212256623D-01  4.8204327125219D-01
   138  1.3700000000000D+00 -5.0946854509344D-01  4.6739818149636D-01
   139  1.3800000000000D+00 -4.8493788103523D-01  4.5296449987859D-01
   140  1.3900000000000D+00 -4.6049240801252D-01  4.3874796525649D-01
   141  1.4000000000000D+00 -4.3619256467132D-01  4.2475370588643D-01
   142  1.4100000000000D+00 -4.1209679503128D-01  4.1098626267515D-01
   143  1.4200000000000D+00 -3.8826140110556D-01  3.9744961392202D-01
   144  1.4300000000000D+00 -3.6474040421625D-01  3.8414720141142D-01
   145  1.4400000000000D+00 -3.4158541519612D-01  3.7108195771588D-01
   146  1.4500000000000D+00 -3.1884551382590D-01  3.5825633457016D-01
   147  1.4600000000000D+00 -2.9656713767073D-01  3.4567233217696D-01
   148  1.4700000000000D+00 -2.7479398046253D-01  3.3333152931236D-01
   149  1.4800000000000D+00 -2.5356690024335D-01  3.2123511408796D-01
   150  1.4900000000000D+00 -2.3292383718963D-01  3.0938391525380D-01
   151  1.5000000000000D+00 -2.1289974134008D-01  2.9777843389743D-01
   152  1.5100000000000D+00 -1.9352651002984D-01  2.8641887543454D-01
   153  1.5200000000000D+00 -1.7483293510987D-01  2.7530518176074D-01
   154  1.5300000000000D+00 -1.5684465978099D-01  2.6443706345806D-01
   155  1.5400000000000D+00 -1.3958414489473D-01  2.5381403195407D-01
   156  1.5500000000000D+00 -1.2307064461087D-01  2.4343543151846D-01
   157  1.5600000000000D+00 -1.0732019104323D-01  2.3330047103091D-01
   158  1.5700000000000D+00 -9.2345587831740D-02  2.2340825539367D-01
   159  1.5800000000000D+00 -7.8156412092327D-02  2.1375781656012D-01
   160  1.5900000000000D+00 -6.4759024680866D-02  2.0434814404757D-01
   161  1.6000000000000D+00 -5.2156588135895D-02  1.9517821492999D-01
   162  1.6100000000000D+00 -4.0349092141341D-02  1.8624702319437D-01
   163  1.6200000000000D+00 -2.9333385881567D-02  1.7755360846163D-01
   164  1.6300000000000D+00 -1.9103217002679D-02  1.6909708398317D-01
   165  1.6400000000000D+00 -9.6492749756916D-03  1.6087666469057D-01
   166  1.6500000000000D+00 -9.5924722947763D-04  1.5289169098619D-01
   167  1.6600000000000D+00  6.9821405454260D-03  1.4514166152169D-01
   168  1.6700000000000D+00  1.4193029839038D-02  1.3762624265472D-01
   169  1.6800000000000D+00  2.0694339923522D-02  1.3034527909860D-01
   170  1.6900000000000D+00  2.6509926671529D-02  1.2329892632309D-01
   171  1.7000000000000D+00  3.1666313944044D-02  1.1648757965315D-01
   172  1.7100000000000D+00  3.6191950042170D-02  1.0991156368604D-01
   173  1.7200000000000D+00  4.0116642881945D-02  1.0357093378693D-01
   174  1.7300000000000D+00  4.3470831676159D-02  9.7465230042455D-02
   175  1.7400000000000D+00  4.6285093566692D-02  9.1593339573661D-02
   176  1.7500000000000D+00  4.8590240967046D-02  8.5953652853537D-02
   177  1.7600000000000D+00  5.0417231806012D-02  8.0544127903633D-02
   178  1.7700000000000D+00  5.1796956715555D-02  7.5362279490885D-02
   179  1.7800000000000D+00  5.2760156061284D-02  7.0405233691128D-02
   180  1.7900000000000D+00  5.3337290511956D-02  6.5669753161475D-02
   181  1.8000000000000D+00  5.3558433577062D-02  6.1152269000240D-02
   182  1.8100000000000D+00  5.3453167266743D-02  5.6848909271472D-02
   183  1.8200000000000D+00  5.3050483594387D-02  5.2755525853586D-02
   184  1.8300000000000D+00  5.2378692874766D-02  4.8867719772139D-02
   185  1.8400000000000D+00  5.1465338221343D-02  4.5180865056591D-02
   186  1.8500000000000D+00  5.0337117183799D-02  4.1690131301296D-02
   187  1.8600000000000D+00  4.9019809963993D-02  3.8390504954040D-02
   188  1.8700000000000D+00  4.7538214877245D-02  3.5276809499639D-02
   189  1.8800000000000D+00  4.5916090750066D-02  3.2343724579264D-02
   190  1.8900000000000D+00  4.4176106453253D-02  2.9585804160126D-02
   191  1.9000000000000D+00  4.2339797687228D-02  2.6997493853116D-02
   192  1.9100000000000D+00  4.0427530598432D-02  2.4573147397573D-02
   193  1.9200000000000D+00  3.8458472875901D-02  2.2307042503485D-02
   194  1.9300000000000D+00  3.6450571279103D-02  2.0193395952386D-02
   195  1.9400000000000D+00  3.4420536595349D-02  1.8226378224513D-02
   196  1.9500000000000D+00  3.2383834830001D-02  1.6400127509972D-02
   197  1.9600000000000D+00  3.0354685251628D-02  1.4708763315509D-02
   198  1.9700000000000D+00  2.8346064678692D-02  1.3146399627138D-02
   199  1.9800000000000D+00  2.6369717775549D-02  1.1707157670993D-02
   200  1.9900000000000D+00  2.4436173532874D-02  1.0385178404461D-02
   201  2.0000000000000D+00  2.2554766861901D-02  9.1746345792580D-03
   202  2.0100000000000D+00  2.0733666011298D-02  8.0697426529414D-03
   203  2.0200000000000D+00  1.8979904540603D-02  7.0647743214872D-03
   204  2.0300000000000D+00  1.7299418150081D-02  6.1540678639463D-03
   205  2.0400000000000D+00  1.5697085787443D-02  5.3320392424675D-03
   206  2.0500000000000D+00  1.4176774507859D-02  4.5931929144265D-03
   207  2.0600000000000D+00  1.2741388110883D-02  3.9321325010065D-03
   208  2.0700000000000D+00  1.1392918675500D-02  3.3435711165995D-03
   209  2.0800000000000D+00  1.0132500976723D-02  2.8223415330814D-03
   210  2.0900000000000D+00  8.9604691708836D-03  2.3634060518909D-03
   211  2.1000000000000D+00  7.8764153632061D-03  1.9618660911854D-03
   212  2.1100000000000D+00  6.8792496669689D-03  1.6129715370241D-03
   213  2.1200000000000D+00  5.9672613817173D-03  1.3121297240069D-03
   214  2.1300000000000D+00  5.1381806930184D-03  1.0549141379681D-03
   215  2.1400000000000D+00  4.3892406930750D-03  8.3707274383703D-04
   216  2.1500000000000D+00  3.7172392608520D-03  6.5453593010744D-04
   217  2.1600000000000D+00  3.1186001146040D-03  5.0342406630195D-04
   218  2.1700000000000D+00  2.5894333016826D-03  3.8005461934125D-04
   219  2.1800000000000D+00  2.1255939256586D-03  2.8094880977835D-04
   220  2.1900000000000D+00  1.7227392919176D-03  2.0283778479316D-04
   221  2.2000000000000D+00  1.3763843106779D-03  1.4266829298777D-04
   222  2.2100000000000D+00  1.0819537971004D-03  9.7607782666998D-05
   223  2.2200000000000D+00  8.3483281598450D-04  6.5048984165524D-05
   224  2.2300000000000D+00  6.3041362569946D-04  4.2613875098638D-05
   225  2.2400000000000D+00  4.6413908295347D-04  2.8157012686214D-05
   226  2.2500000000000D+00  3.3154351480858D-04  1.9768323340251D-05
   227  2.2600000000000D+00  2.2828559395739D-04  1.5786372563485D-05
   228  2.2700000000000D+00  1.5018424519343D-04  1.4787872057335D-05
   229  2.2800000000000D+00  9.3269666830649D-05  1.5506480997764D-05
   230  2.2900000000000D+00  5.3760028504243D-05  1.6839234871746D-05
   231  2.3000000000000D+00  2.8100010732964D-05  1.8297862277742D-05
   232  2.3100000000000D+00  1.2978167920372D-05  1.9821303734267D-05
   233  2.3200000000000D+00  5.4865094812814D-06  2.1741154411111D-05
   234  2.3300000000000D+00  2.6375722101712D-06  2.2355670481149D-05
   235  2.3400000000000D+00  1.9425612757840D-06  2.0138132602457D-05
   236  2.3500000000000D+00  1.3027603805987D-06  1.3272823283755D-05
   237  2.3600000000000D+00  5.8486321139071D-07  5.3225317423742D-06
   238  2.3700000000000D+00 -5.3763717805181D-08 -6.8727353013654D-07
   239  2.3800000000000D+00 -1.7013669889690D-07 -2.1374726174176D-06
   240  2.3900000000000D+00 -9.4476483993659D-08 -1.1565053956173D-06
   241  2.4000000000000D+00  1.0495418330302D-08  2.2253621949273D-07
   242  2.4100000000000D+00  2.1489964037226D-08  4.8230377717135D-07
   243  2.4200000000000D+00  9.9164728541052D-09  2.3380336681823D-07
   244  2.4300000000000D+00 -3.0932423920482D-09 -3.2039436006246D-08
   245  2.4400000000000D+00 -5.4852188320012D-09 -5.6815242866173D-08
   246  2.4500000000000D+00 -2.3109625260375D-09 -2.3936674395822D-08
   247  2.4600000000000D+00  0.0000000000000D+00  0.0000000000000D+00
   248  2.4700000000000D+00  0.0000000000000D+00  0.0000000000000D+00
   249  2.4800000000000D+00  0.0000000000000D+00  0.0000000000000D+00
   250  2.4900000000000D+00  0.0000000000000D+00  0.0000000000000D+00
   251  2.5000000000000D+00  0.0000000000000D+00  0.0000000000000D+00
   252  2.5100000000000D+00  0.0000000000000D+00  0.0000000000000D+00
   253  2.5200000000000D+00  0.0000000000000D+00  0.0000000000000D+00
   254  2.5300000000000D+00  0.0000000000000D+00  0.0000000000000D+00
   255  2.5400000000000D+00  0.0000000000000D+00  0.0000000000000D+00
   256  2.5500000000000D+00  0.0000000000000D+00  0.0000000000000D+00
   257  2.5600000000000D+00  0.0000000000000D+00  0.0000000000000D+00
   258  2.5700000000000D+00  0.0000000000000D+00  0.0000000000000D+00
   259  2.5800000000000D+00  0.0000000000000D+00  0.0000000000000D+00
   260  2.5900000000000D+00  0.0000000000000D+00  0.0000000000000D+00
   261  2.6000000000000D+00  0.0000000000000D+00  0.0000000000000D+00
   262  2.6100000000000D+00  0.0000000000000D+00  0.0000000000000D+00
   263  2.6200000000000D+00  0.0000000000000D+00  0.0000000000000D+00
   264  2.6300000000000D+00  0.0000000000000D+00  0.0000000000000D+00
   265  2.6400000000000D+00  0.0000000000000D+00  0.0000000000000D+00
   266  2.6500000000000D+00  0.0000000000000D+00  0.0000000000000D+00
   267  2.6600000000000D+00  0.0000000000000D+00  0.0000000000000D+00
   268  2.6700000000000D+00  0.0000000000000D+00  0.0000000000000D+00
   269  2.6800000000000D+00  0.0000000000000D+00  0.0000000000000D+00
   270  2.6900000000000D+00  0.0000000000000D+00  0.0000000000000D+00
   271  2.7000000000000D+00  0.0000000000000D+00  0.0000000000000D+00
   272  2.7100000000000D+00  0.0000000000000D+00  0.0000000000000D+00
   273  2.7200000000000D+00  0.0000000000000D+00  0.0000000000000D+00
   274  2.7300000000000D+00  0.0000000000000D+00  0.0000000000000D+00
   275  2.7400000000000D+00  0.0000000000000D+00  0.0000000000000D+00
   276  2.7500000000000D+00  0.0000000000000D+00  0.0000000000000D+00
   277  2.7600000000000D+00  0.0000000000000D+00  0.0000000000000D+00
   278  2.7700000000000D+00  0.0000000000000D+00  0.0000000000000D+00
   279  2.7800000000000D+00  0.0000000000000D+00  0.0000000000000D+00
   280  2.7900000000000D+00  0.0000000000000D+00  0.0000000000000D+00
   281  2.8000000000000D+00  0.0000000000000D+00  0.0000000000000D+00
   282  2.8100000000000D+00  0.0000000000000D+00  0.0000000000000D+00
   283  2.8200000000000D+00  0.0000000000000D+00  0.0000000000000D+00
   284  2.8300000000000D+00  0.0000000000000D+00  0.0000000000000D+00
   285  2.8400000000000D+00  0.0000000000000D+00  0.0000000000000D+00
   286  2.8500000000000D+00  0.0000000000000D+00  0.0000000000000D+00
   287  2.8600000000000D+00  0.0000000000000D+00  0.0000000000000D+00
   288  2.8700000000000D+00  0.0000000000000D+00  0.0000000000000D+00
   289  2.8800000000000D+00  0.0000000000000D+00  0.0000000000000D+00
   290  2.8900000000000D+00  0.0000000000000D+00  0.0000000000000D+00
   291  2.9000000000000D+00  0.0000000000000D+00  0.0000000000000D+00
   292  2.9100000000000D+00  0.0000000000000D+00  0.0000000000000D+00
   293  2.9200000000000D+00  0.0000000000000D+00  0.0000000000000D+00
   294  2.9300000000000D+00  0.0000000000000D+00  0.0000000000000D+00
   295  2.9400000000000D+00  0.0000000000000D+00  0.0000000000000D+00
   296  2.9500000000000D+00  0.0000000000000D+00  0.0000000000000D+00
   297  2.9600000000000D+00  0.0000000000000D+00  0.0000000000000D+00
   298  2.9700000000000D+00  0.0000000000000D+00  0.0000000000000D+00
   299  2.9800000000000D+00  0.0000000000000D+00  0.0000000000000D+00
   300  2.9900000000000D+00  0.0000000000000D+00  0.0000000000000D+00
   301  3.0000000000000D+00  0.0000000000000D+00  0.0000000000000D+00
   302  3.0100000000000D+00  0.0000000000000D+00  0.0000000000000D+00
   303  3.0200000000000D+00  0.0000000000000D+00  0.0000000000000D+00
   304  3.0300000000000D+00  0.0000000000000D+00  0.0000000000000D+00
   305  3.0400000000000D+00  0.0000000000000D+00  0.0000000000000D+00
   306  3.0500000000000D+00  0.0000000000000D+00  0.0000000000000D+00
   307  3.0600000000000D+00  0.0000000000000D+00  0.0000000000000D+00
   308  3.0700000000000D+00  0.0000000000000D+00  0.0000000000000D+00
   309  3.0800000000000D+00  0.0000000000000D+00  0.0000000000000D+00
   310  3.0900000000000D+00  0.0000000000000D+00  0.0000000000000D+00
   311  3.1000000000000D+00  0.0000000000000D+00  0.0000000000000D+00
   312  3.1100000000000D+00  0.0000000000000D+00  0.0000000000000D+00
   313  3.1200000000000D+00  0.0000000000000D+00  0.0000000000000D+00
   314  3.1300000000000D+00  0.0000000000000D+00  0.0000000000000D+00
   315  3.1400000000000D+00  0.0000000000000D+00  0.0000000000000D+00
   316  3.1500000000000D+00  0.0000000000000D+00  0.0000000000000D+00
   317  3.1600000000000D+00  0.0000000000000D+00  0.0000000000000D+00
   318  3.1700000000000D+00  0.0000000000000D+00  0.0000000000000D+00
   319  3.1800000000000D+00  0.0000000000000D+00  0.0000000000000D+00
   320  3.1900000000000D+00  0.0000000000000D+00  0.0000000000000D+00
   321  3.2000000000000D+00  0.0000000000000D+00  0.0000000000000D+00
   322  3.2100000000000D+00  0.0000000000000D+00  0.0000000000000D+00
   323  3.2200000000000D+00  0.0000000000000D+00  0.0000000000000D+00
   324  3.2300000000000D+00  0.0000000000000D+00  0.0000000000000D+00
   325  3.2400000000000D+00  0.0000000000000D+00  0.0000000000000D+00
   326  3.2500000000000D+00  0.0000000000000D+00  0.0000000000000D+00
   327  3.2600000000000D+00  0.0000000000000D+00  0.0000000000000D+00
   328  3.2700000000000D+00  0.0000000000000D+00  0.0000000000000D+00
   329  3.2800000000000D+00  0.0000000000000D+00  0.0000000000000D+00
   330  3.2900000000000D+00  0.0000000000000D+00  0.0000000000000D+00
   331  3.3000000000000D+00  0.0000000000000D+00  0.0000000000000D+00
   332  3.3100000000000D+00  0.0000000000000D+00  0.0000000000000D+00
   333  3.3200000000000D+00  0.0000000000000D+00  0.0000000000000D+00
   334  3.3300000000000D+00  0.0000000000000D+00  0.0000000000000D+00
   335  3.3400000000000D+00  0.0000000000000D+00  0.0000000000000D+00
   336  3.3500000000000D+00  0.0000000000000D+00  0.0000000000000D+00
   337  3.3600000000000D+00  0.0000000000000D+00  0.0000000000000D+00
   338  3.3700000000000D+00  0.0000000000000D+00  0.0000000000000D+00
   339  3.3800000000000D+00  0.0000000000000D+00  0.0000000000000D+00
   340  3.3900000000000D+00  0.0000000000000D+00  0.0000000000000D+00
   341  3.4000000000000D+00  0.0000000000000D+00  0.0000000000000D+00
   342  3.4100000000000D+00  0.0000000000000D+00  0.0000000000000D+00
   343  3.4200000000000D+00  0.0000000000000D+00  0.0000000000000D+00
   344  3.4300000000000D+00  0.0000000000000D+00  0.0000000000000D+00
   345  3.4400000000000D+00  0.0000000000000D+00  0.0000000000000D+00
   346  3.4500000000000D+00  0.0000000000000D+00  0.0000000000000D+00
   347  3.4600000000000D+00  0.0000000000000D+00  0.0000000000000D+00
   348  3.4700000000000D+00  0.0000000000000D+00  0.0000000000000D+00
   349  3.4800000000000D+00  0.0000000000000D+00  0.0000000000000D+00
   350  3.4900000000000D+00  0.0000000000000D+00  0.0000000000000D+00
   351  3.5000000000000D+00  0.0000000000000D+00  0.0000000000000D+00
   352  3.5100000000000D+00  0.0000000000000D+00  0.0000000000000D+00
   353  3.5200000000000D+00  0.0000000000000D+00  0.0000000000000D+00
   354  3.5300000000000D+00  0.0000000000000D+00  0.0000000000000D+00
   355  3.5400000000000D+00  0.0000000000000D+00  0.0000000000000D+00
   356  3.5500000000000D+00  0.0000000000000D+00  0.0000000000000D+00
   357  3.5600000000000D+00  0.0000000000000D+00  0.0000000000000D+00
   358  3.5700000000000D+00  0.0000000000000D+00  0.0000000000000D+00
   359  3.5800000000000D+00  0.0000000000000D+00  0.0000000000000D+00
   360  3.5900000000000D+00  0.0000000000000D+00  0.0000000000000D+00
   361  3.6000000000000D+00  0.0000000000000D+00  0.0000000000000D+00
   362  3.6100000000000D+00  0.0000000000000D+00  0.0000000000000D+00
   363  3.6200000000000D+00  0.0000000000000D+00  0.0000000000000D+00
   364  3.6300000000000D+00  0.0000000000000D+00  0.0000000000000D+00
   365  3.6400000000000D+00  0.0000000000000D+00  0.0000000000000D+00
   366  3.6500000000000D+00  0.0000000000000D+00  0.0000000000000D+00
   367  3.6600000000000D+00  0.0000000000000D+00  0.0000000000000D+00
   368  3.6700000000000D+00  0.0000000000000D+00  0.0000000000000D+00
   369  3.6800000000000D+00  0.0000000000000D+00  0.0000000000000D+00
   370  3.6900000000000D+00  0.0000000000000D+00  0.0000000000000D+00
   371  3.7000000000000D+00  0.0000000000000D+00  0.0000000000000D+00
   372  3.7100000000000D+00  0.0000000000000D+00  0.0000000000000D+00
   373  3.7200000000000D+00  0.0000000000000D+00  0.0000000000000D+00
   374  3.7300000000000D+00  0.0000000000000D+00  0.0000000000000D+00
   375  3.7400000000000D+00  0.0000000000000D+00  0.0000000000000D+00
   376  3.7500000000000D+00  0.0000000000000D+00  0.0000000000000D+00
   377  3.7600000000000D+00  0.0000000000000D+00  0.0000000000000D+00
   378  3.7700000000000D+00  0.0000000000000D+00  0.0000000000000D+00
   379  3.7800000000000D+00  0.0000000000000D+00  0.0000000000000D+00
   380  3.7900000000000D+00  0.0000000000000D+00  0.0000000000000D+00
   381  3.8000000000000D+00  0.0000000000000D+00  0.0000000000000D+00
   382  3.8100000000000D+00  0.0000000000000D+00  0.0000000000000D+00
   383  3.8200000000000D+00  0.0000000000000D+00  0.0000000000000D+00
   384  3.8300000000000D+00  0.0000000000000D+00  0.0000000000000D+00
   385  3.8400000000000D+00  0.0000000000000D+00  0.0000000000000D+00
   386  3.8500000000000D+00  0.0000000000000D+00  0.0000000000000D+00
   387  3.8600000000000D+00  0.0000000000000D+00  0.0000000000000D+00
   388  3.8700000000000D+00  0.0000000000000D+00  0.0000000000000D+00
   389  3.8800000000000D+00  0.0000000000000D+00  0.0000000000000D+00
   390  3.8900000000000D+00  0.0000000000000D+00  0.0000000000000D+00
   391  3.9000000000000D+00  0.0000000000000D+00  0.0000000000000D+00
   392  3.9100000000000D+00  0.0000000000000D+00  0.0000000000000D+00
   393  3.9200000000000D+00  0.0000000000000D+00  0.0000000000000D+00
   394  3.9300000000000D+00  0.0000000000000D+00  0.0000000000000D+00
   395  3.9400000000000D+00  0.0000000000000D+00  0.0000000000000D+00
   396  3.9500000000000D+00  0.0000000000000D+00  0.0000000000000D+00
   397  3.9600000000000D+00  0.0000000000000D+00  0.0000000000000D+00
   398  3.9700000000000D+00  0.0000000000000D+00  0.0000000000000D+00
   399  3.9800000000000D+00  0.0000000000000D+00  0.0000000000000D+00
   400  3.9900000000000D+00  0.0000000000000D+00  0.0000000000000D+00
   401  4.0000000000000D+00  0.0000000000000D+00  0.0000000000000D+00
   402  4.0100000000000D+00  0.0000000000000D+00  0.0000000000000D+00
   403  4.0200000000000D+00  0.0000000000000D+00  0.0000000000000D+00
   404  4.0300000000000D+00  0.0000000000000D+00  0.0000000000000D+00
   405  4.0400000000000D+00  0.0000000000000D+00  0.0000000000000D+00
   406  4.0500000000000D+00  0.0000000000000D+00  0.0000000000000D+00
   407  4.0600000000000D+00  0.0000000000000D+00  0.0000000000000D+00
   408  4.0700000000000D+00  0.0000000000000D+00  0.0000000000000D+00
   409  4.0800000000000D+00  0.0000000000000D+00  0.0000000000000D+00
   410  4.0900000000000D+00  0.0000000000000D+00  0.0000000000000D+00
   411  4.1000000000000D+00  0.0000000000000D+00  0.0000000000000D+00
   412  4.1100000000000D+00  0.0000000000000D+00  0.0000000000000D+00
   413  4.1200000000000D+00  0.0000000000000D+00  0.0000000000000D+00
   414  4.1300000000000D+00  0.0000000000000D+00  0.0000000000000D+00
   415  4.1400000000000D+00  0.0000000000000D+00  0.0000000000000D+00
   416  4.1500000000000D+00  0.0000000000000D+00  0.0000000000000D+00
   417  4.1600000000000D+00  0.0000000000000D+00  0.0000000000000D+00
   418  4.1700000000000D+00  0.0000000000000D+00  0.0000000000000D+00
   419  4.1800000000000D+00  0.0000000000000D+00  0.0000000000000D+00
   420  4.1900000000000D+00  0.0000000000000D+00  0.0000000000000D+00
   421  4.2000000000000D+00  0.0000000000000D+00  0.0000000000000D+00
   422  4.2100000000000D+00  0.0000000000000D+00  0.0000000000000D+00