Cl    ONCVPSP-3.3.1  r_core=   3.22968   1.63633
     17.0000      7.0000      210904    zatom,zion,pspd
     8       2   1     4   600     0    pspcod,pspxc,lmax,lloc,mmax,r2well
  5.99000000  0.00000000  0.00000000    rchrg fchrg qchrg
     2     3     0     0    nproj
     3     1           extension_switch
     3     0     0    nprojso
   0                        -4.5490883365108D+00  6.6581704610640D+00
     1  0.0000000000000D+00  2.3265522841598D-10 -1.8666401757628D-11
     2  1.0000000000000D-02 -7.5299573762910D-02  5.8751986933470D-02
     3  2.0000000000000D-02 -1.5021903599660D-01  1.1739214613354D-01
     4  3.0000000000000D-02 -2.2438025218320D-01  1.7580898320396D-01
     5  4.0000000000000D-02 -2.9740903100948D-01  2.3389166923611D-01
     6  5.0000000000000D-02 -3.6893706898310D-01  2.9153037059080D-01
     7  6.0000000000000D-02 -4.3860386283008D-01  3.4861657513882D-01
     8  7.0000000000000D-02 -5.0605857920769D-01  4.0504341380187D-01
     9  8.0000000000000D-02 -5.7096187149923D-01  4.6070597625400D-01
    10  9.0000000000000D-02 -6.3298763374602D-01  5.1550161966698D-01
    11  1.0000000000000D-01 -6.9182468211479D-01  5.6933026941064D-01
    12  1.1000000000000D-01 -7.4717835469428D-01  6.2209471065093D-01
    13  1.2000000000000D-01 -7.9877202086106D-01  6.7370086982461D-01
    14  1.3000000000000D-01 -8.4634849194928D-01  7.2405808500923D-01
    15  1.4000000000000D-01 -8.8967132549906D-01  7.7307936425096D-01
    16  1.5000000000000D-01 -9.2852601594160D-01  8.2068163095994D-01
    17  1.6000000000000D-01 -9.6272106520232D-01  8.6678595553357D-01
    18  1.7000000000000D-01 -9.9208892736276D-01  9.1131777242177D-01
    19  1.8000000000000D-01 -1.0164868222156D+00  9.5420708190514D-01
    20  1.9000000000000D-01 -1.0357974132691D+00  9.9538863591573D-01
    21  2.0000000000000D-01 -1.0499293465071D+00  1.0348021072922D+00
    22  2.1000000000000D-01 -1.0588176469801D+00  1.0723922419242D+00
    23  2.2000000000000D-01 -1.0624239710913D+00  1.1081089933073D+00
    24  2.3000000000000D-01 -1.0607367132467D+00  1.1419076390944D+00
    25  2.4000000000000D-01 -1.0537709663459D+00  1.1737488793006D+00
    26  2.5000000000000D-01 -1.0415683364117D+00  1.2035989158849D+00
    27  2.6000000000000D-01 -1.0241966124728D+00  1.2314295135025D+00
    28  2.7000000000000D-01 -1.0017492936297D+00  1.2572180412907D+00
    29  2.8000000000000D-01 -9.7434497604168D-01  1.2809474956220D+00
    30  2.9000000000000D-01 -9.4212660336893D-01  1.3026065038252D+00
    31  3.0000000000000D-01 -9.0526058498139D-01  1.3221893089457D+00
    32  3.1000000000000D-01 -8.6393578700839D-01  1.3396957356814D+00
    33  3.2000000000000D-01 -8.1836240203537D-01  1.3551311376994D+00
    34  3.3000000000000D-01 -7.6877070396174D-01  1.3685063266004D+00
    35  3.4000000000000D-01 -7.1540969520808D-01  1.3798374828613D+00
    36  3.5000000000000D-01 -6.5854565409900D-01  1.3891460491477D+00
    37  3.6000000000000D-01 -5.9846059084720D-01  1.3964586064448D+00
    38  3.7000000000000D-01 -5.3545062112001D-01  1.4018067335101D+00
    39  3.8000000000000D-01 -4.6982426668035D-01  1.4052268502045D+00
    40  3.9000000000000D-01 -4.0190069305470D-01  1.4067600453079D+00
    41  4.0000000000000D-01 -3.3200789459100D-01  1.4064518894693D+00
    42  4.1000000000000D-01 -2.6048083762481D-01  1.4043522339857D+00
    43  4.2000000000000D-01 -1.8765957277149D-01  1.4005149961409D+00
    44  4.3000000000000D-01 -1.1388732760414D-01  1.3949979318716D+00
    45  4.4000000000000D-01 -3.9508591158141D-02  1.3878623965577D+00
    46  4.5000000000000D-01  3.5132798175559D-02  1.3791730947604D+00
    47  4.6000000000000D-01  1.0969554974796D-01  1.3689978197548D+00
    48  4.7000000000000D-01  1.8384279112380D-01  1.3574071837205D+00
    49  4.8000000000000D-01  2.5724390037860D-01  1.3444743394695D+00
    50  4.9000000000000D-01  3.2957628880224D-01  1.3302746945972D+00
    51  5.0000000000000D-01  4.0052712278460D-01  1.3148856189509D+00
    52  5.1000000000000D-01  4.6979497391443D-01  1.2983861463080D+00
    53  5.2000000000000D-01  5.3709138664113D-01  1.2808566711538D+00
    54  5.3000000000000D-01  6.0214235322738D-01  1.2623786414419D+00
    55  5.4000000000000D-01  6.6468968615841D-01  1.2430342482056D+00
    56  5.5000000000000D-01  7.2449227866830D-01  1.2229061128765D+00
    57  5.6000000000000D-01  7.8132724459483D-01  1.2020769731427D+00
    58  5.7000000000000D-01  8.3499092937626D-01  1.1806293681582D+00
    59  5.8000000000000D-01  8.8529978465884D-01  1.1586453238860D+00
    60  5.9000000000000D-01  9.3209109968258D-01  1.1362060393276D+00
    61  6.0000000000000D-01  9.7522358336113D-01  1.1133915743566D+00
    62  6.1000000000000D-01  1.0145777917544D+00  1.0902805398381D+00
    63  6.2000000000000D-01  1.0500563964602D+00  1.0669497906736D+00
    64  6.3000000000000D-01  1.0815842903057D+00  1.0434741223714D+00
    65  6.4000000000000D-01  1.1091085276070D+00  1.0199259716943D+00
    66  6.5000000000000D-01  1.1325980971810D+00  9.9637512189225D-01
    67  6.6000000000000D-01  1.1520435272217D+00  9.7288841297600D-01
    68  6.7000000000000D-01  1.1674563221092D+00  9.4952945743980D-01
    69  6.8000000000000D-01  1.1788682321814D+00  9.2635836178779D-01
    70  6.9000000000000D-01  1.1863303584674D+00  9.0343145416663D-01
    71  7.0000000000000D-01  1.1899120953571D+00  8.8080101835371D-01
    72  7.1000000000000D-01  1.1896999151538D+00  8.5851503429622D-01
    73  7.2000000000000D-01  1.1857959994230D+00  8.3661692534267D-01
    74  7.3000000000000D-01  1.1783167230058D+00  8.1514531225477D-01
    75  7.4000000000000D-01  1.1673909974997D+00  7.9413377403473D-01
    76  7.5000000000000D-01  1.1531584819377D+00  7.7361061555024D-01
    77  7.6000000000000D-01  1.1357676692817D+00  7.5359864188874D-01
    78  7.7000000000000D-01  1.1153738582154D+00  7.3411493932230D-01
    79  7.8000000000000D-01  1.0921370205509D+00  7.1517066271647D-01
    80  7.9000000000000D-01  1.0662195752745D+00  6.9677082907749D-01
    81  8.0000000000000D-01  1.0377840820161D+00  6.7891411805596D-01
    82  8.1000000000000D-01  1.0069908601417D+00  6.6159267130748D-01
    83  8.2000000000000D-01  9.7399587559250D-01  6.4479226983432D-01
    84  8.3000000000000D-01  9.3895145290677D-01  6.2849544134852D-01
    85  8.4000000000000D-01  9.0200799850699D-01  6.1268445791669D-01
    86  8.5000000000000D-01  8.6331394443979D-01  5.9734161358948D-01
    87  8.6000000000000D-01  8.2301556973395D-01  5.8244930285871D-01
    88  8.7000000000000D-01  7.8125684698330D-01  5.6799009115386D-01
    89  8.8000000000000D-01  7.3817931397928D-01  5.5394678106129D-01
    90  8.9000000000000D-01  6.9392196726284D-01  5.4030247325548D-01
    91  9.0000000000000D-01  6.4862117350621D-01  5.2704062080614D-01
    92  9.1000000000000D-01  6.0241059483885D-01  5.1414507617249D-01
    93  9.2000000000000D-01  5.5542112446456D-01  5.0160013058219D-01
    94  9.3000000000000D-01  5.0778082929299D-01  4.8939054581738D-01
    95  9.4000000000000D-01  4.5961489678096D-01  4.7750157869717D-01
    96  9.5000000000000D-01  4.1104558370006D-01  4.6591899874680D-01
    97  9.6000000000000D-01  3.6219216507558D-01  4.5462909968248D-01
    98  9.7000000000000D-01  3.1317088204944D-01  4.4361870542434D-01
    99  9.8000000000000D-01  2.6409488788301D-01  4.3287517138516D-01
   100  9.9000000000000D-01  2.1507419172076D-01  4.2238638178072D-01
   101  1.0000000000000D+00  1.6621560008036D-01  4.1214074367431D-01
   102  1.0100000000000D+00  1.1762265630160D-01  4.0212717841916D-01
   103  1.0200000000000D+00  6.9395578411261D-02  3.9233511109433D-01
   104  1.0300000000000D+00  2.1631196006801D-02  3.8275445845904D-01
   105  1.0400000000000D+00 -2.5577113131346D-02  3.7337561587691D-01
   106  1.0500000000000D+00 -7.2139485928531D-02  3.6418944358918D-01
   107  1.0600000000000D+00 -1.1796963561271D-01  3.5518725264589D-01
   108  1.0700000000000D+00 -1.6298491122598D-01  3.4636079074822D-01
   109  1.0800000000000D+00 -2.0710635428765D-01  3.3770222819088D-01
   110  1.0900000000000D+00 -2.5025875188660D-01  3.2920414405175D-01
   111  1.1000000000000D+00 -2.9237068553558D-01  3.2085951273202D-01
   112  1.1100000000000D+00 -3.3337457518355D-01  3.1266169091566D-01
   113  1.1200000000000D+00 -3.7320671784127D-01  3.0460440499038D-01
   114  1.1300000000000D+00 -4.1180732035637D-01  2.9668173894559D-01
   115  1.1400000000000D+00 -4.4912052593318D-01  2.8888812274833D-01
   116  1.1500000000000D+00 -4.8509443406747D-01  2.8121832118266D-01
   117  1.1600000000000D+00 -5.1968111361752D-01  2.7366742312894D-01
   118  1.1700000000000D+00 -5.5283660881286D-01  2.6623083125092D-01
   119  1.1800000000000D+00 -5.8452097711617D-01  2.5890423644168D-01
   120  1.1900000000000D+00 -6.1469782722834D-01  2.5168378954070D-01
   121  1.2000000000000D+00 -6.4333598765399D-01  2.4456541839352D-01
   122  1.2100000000000D+00 -6.7040804429649D-01  2.3754539403738D-01
   123  1.2200000000000D+00 -6.9587906637431D-01  2.3062482179023D-01
   124  1.2300000000000D+00 -7.1973253841791D-01  2.2379922804841D-01
   125  1.2400000000000D+00 -7.4196474505861D-01  2.1706079259319D-01
   126  1.2500000000000D+00 -7.6255695603583D-01  2.1040947842256D-01
   127  1.2600000000000D+00 -7.8149732277450D-01  2.0384420391625D-01
   128  1.2700000000000D+00 -7.9878199486978D-01  1.9736235966643D-01
   129  1.2800000000000D+00 -8.1440884553786D-01  1.9096229388215D-01
   130  1.2900000000000D+00 -8.2837942874870D-01  1.8464248620324D-01
   131  1.3000000000000D+00 -8.4069877404928D-01  1.7840158849718D-01
   132  1.3100000000000D+00 -8.5137520835747D-01  1.7223845260972D-01
   133  1.3200000000000D+00 -8.6042028160499D-01  1.6615211423124D-01
   134  1.3300000000000D+00 -8.6784866769430D-01  1.6014178469817D-01
   135  1.3400000000000D+00 -8.7367806086712D-01  1.5420684277074D-01
   136  1.3500000000000D+00 -8.7792906778792D-01  1.4834682639027D-01
   137  1.3600000000000D+00 -8.8062509569321D-01  1.4256142441537D-01
   138  1.3700000000000D+00 -8.8179223693596D-01  1.3685046833962D-01
   139  1.3800000000000D+00 -8.8145915026645D-01  1.3121392399494D-01
   140  1.3900000000000D+00 -8.7965693919193D-01  1.2565188324865D-01
   141  1.4000000000000D+00 -8.7641902775598D-01  1.2016455570008D-01
   142  1.4100000000000D+00 -8.7178103408189D-01  1.1475226038681D-01
   143  1.4200000000000D+00 -8.6578064201539D-01  1.0941541751034D-01
   144  1.4300000000000D+00 -8.5845747121246D-01  1.0415454019129D-01
   145  1.4400000000000D+00 -8.4985294599599D-01  9.8970226266824D-02
   146  1.4500000000000D+00 -8.4001016332055D-01  9.3863150141331D-02
   147  1.4600000000000D+00 -8.2897376016491D-01  8.8834054703873D-02
   148  1.4700000000000D+00 -8.1678978066652D-01  8.3883743324774D-02
   149  1.4800000000000D+00 -8.0350554332560D-01  7.9013071944820D-02
   150  1.4900000000000D+00 -7.8916950855480D-01  7.4222941270171D-02
   151  1.5000000000000D+00 -7.7383114690777D-01  6.9514289086538D-02
   152  1.5100000000000D+00 -7.5754080823645D-01  6.4888082705506D-02
   153  1.5200000000000D+00 -7.4034959208567D-01  6.0345311556387D-02
   154  1.5300000000000D+00 -7.2230921957766D-01  5.5886979936327D-02
   155  1.5400000000000D+00 -7.0347190704525D-01  5.1514099930818D-02
   156  1.5500000000000D+00 -6.8389024168130D-01  4.7227684517786D-02
   157  1.5600000000000D+00 -6.6361705940298D-01  4.3028740865038D-02
   158  1.5700000000000D+00 -6.4270532521805D-01  3.8918263835224D-02
   159  1.5800000000000D+00 -6.2120801622747D-01  3.4897229704919D-02
   160  1.5900000000000D+00 -5.9917800756545D-01  3.0966590112937D-02
   161  1.6000000000000D+00 -5.7666796136432D-01  2.7127266241803D-02
   162  1.6100000000000D+00 -5.5373021902675D-01  2.3380143246773D-02
   163  1.6200000000000D+00 -5.3041669687814D-01  1.9726064935256D-02
   164  1.6300000000000D+00 -5.0677878544053D-01  1.6165828708946D-02
   165  1.6400000000000D+00 -4.8286725239535D-01  1.2700180770977D-02
   166  1.6500000000000D+00 -4.5873214943279D-01  9.3298116079947D-03
   167  1.6600000000000D+00 -4.3442272304816D-01  6.0553517489072D-03
   168  1.6700000000000D+00 -4.0998732944240D-01  2.8773678078329D-03
   169  1.6800000000000D+00 -3.8547335357611D-01 -2.0364118777886D-04
   170  1.6900000000000D+00 -3.6092713249920D-01 -3.1872471784459D-03
   171  1.7000000000000D+00 -3.3639388298795D-01 -6.0730961635647D-03
   172  1.7100000000000D+00 -3.1191763358522D-01 -8.8609109981582D-03
   173  1.7200000000000D+00 -2.8754116104920D-01 -1.1550493897385D-02
   174  1.7300000000000D+00 -2.6330593129090D-01 -1.4141728645985D-02
   175  1.7400000000000D+00 -2.3925204476899D-01 -1.6634582516995D-02
   176  1.7500000000000D+00 -2.1541818641927D-01 -1.9029107897062D-02
   177  1.7600000000000D+00 -1.9184158003934D-01 -2.1325443625809D-02
   178  1.7700000000000D+00 -1.6855794721610D-01 -2.3523816045921D-02
   179  1.7800000000000D+00 -1.4560147065735D-01 -2.5624539775173D-02
   180  1.7900000000000D+00 -1.2300476203846D-01 -2.7628018195653D-02
   181  1.8000000000000D+00 -1.0079883415701D-01 -2.9534743675684D-02
   182  1.8100000000000D+00 -7.9013077537897D-02 -3.1345297517789D-02
   183  1.8200000000000D+00 -5.7675241215107D-02 -3.3060349652306D-02
   184  1.8300000000000D+00 -3.6811417848990D-02 -3.4680658069142D-02
   185  1.8400000000000D+00 -1.6446032884232D-02 -3.6207068008360D-02
   186  1.8500000000000D+00  3.3981621444452D-03 -3.7640510905563D-02
   187  1.8600000000000D+00  2.2700092401677D-02 -3.8982003109298D-02
   188  1.8700000000000D+00  4.1440358628886D-02 -4.0232644372772D-02
   189  1.8800000000000D+00  5.9601232272987D-02 -4.1393616132135D-02
   190  1.8900000000000D+00  7.7166646969958D-02 -4.2466179580244D-02
   191  1.9000000000000D+00  9.4122186460621D-02 -4.3451673543153D-02
   192  1.9100000000000D+00  1.1045506914746D-01 -4.4351512174036D-02
   193  1.9200000000000D+00  1.2615412929879D-01 -4.5167182468498D-02
   194  1.9300000000000D+00  1.4120979517611D-01 -4.5900241618801D-02
   195  1.9400000000000D+00  1.5561406407955D-01 -4.6552314210638D-02
   196  1.9500000000000D+00  1.6936047456910D-01 -4.7125089278687D-02
   197  1.9600000000000D+00  1.8244407593152D-01 -4.7620317229145D-02
   198  1.9700000000000D+00  1.9486139506730D-01 -4.8039806641044D-02
   199  1.9800000000000D+00  2.0661040095855D-01 -4.8385420957892D-02
   200  1.9900000000000D+00  2.1769046683167D-01 -4.8659075080191D-02
   201  2.0000000000000D+00  2.2810233021431D-01 -4.8862731869840D-02
   202  2.0100000000000D+00  2.3784805100060D-01 -4.8998398579341D-02
   203  2.0200000000000D+00  2.4693096770120D-01 -4.9068123214062D-02
   204  2.0300000000000D+00  2.5535565202984D-01 -4.9073990841461D-02
   205  2.0400000000000D+00  2.6312786197822D-01 -4.9018119857121D-02
   206  2.0500000000000D+00  2.7025449352297D-01 -4.8902658216091D-02
   207  2.0600000000000D+00  2.7674353115786D-01 -4.8729779646760D-02
   208  2.0700000000000D+00  2.8260399733370D-01 -4.8501679847873D-02
   209  2.0800000000000D+00  2.8784590103939D-01 -4.8220572689440D-02
   210  2.0900000000000D+00  2.9248018561175D-01 -4.7888686420398D-02
   211  2.1000000000000D+00  2.9651867592163D-01 -4.7508259892907D-02
   212  2.1100000000000D+00  2.9997402516251D-01 -4.7081538821483D-02
   213  2.1200000000000D+00  3.0285966122608D-01 -4.6610772070220D-02
   214  2.1300000000000D+00  3.0518973298790D-01 -4.6098207995249D-02
   215  2.1400000000000D+00  3.0697905650256D-01 -4.5546090837962D-02
   216  2.1500000000000D+00  3.0824306124860D-01 -4.4956657178165D-02
   217  2.1600000000000D+00  3.0899773669379D-01 -4.4332132468151D-02
   218  2.1700000000000D+00  3.0925957905136D-01 -4.3674727632412D-02
   219  2.1800000000000D+00  3.0904553860594D-01 -4.2986635763164D-02
   220  2.1900000000000D+00  3.0837296758608D-01 -4.2270028906322D-02
   221  2.2000000000000D+00  3.0725956860586D-01 -4.1527054936841D-02
   222  2.2100000000000D+00  3.0572334408260D-01 -4.0759834554902D-02
   223  2.2200000000000D+00  3.0378254635417D-01 -3.9970458376777D-02
   224  2.2300000000000D+00  3.0145562884839D-01 -3.9160984146937D-02
   225  2.2400000000000D+00  2.9876119839425D-01 -3.8333434075922D-02
   226  2.2500000000000D+00  2.9571796847293D-01 -3.7489792285066D-02
   227  2.2600000000000D+00  2.9234471393472D-01 -3.6632002397462D-02
   228  2.2700000000000D+00  2.8866022690237D-01 -3.5761965250537D-02
   229  2.2800000000000D+00  2.8468327395238D-01 -3.4881536735075D-02
   230  2.2900000000000D+00  2.8043255496628D-01 -3.3992525788818D-02
   231  2.3000000000000D+00  2.7592666324089D-01 -3.3096692510416D-02
   232  2.3100000000000D+00  2.7118404722101D-01 -3.2195746419259D-02
   233  2.3200000000000D+00  2.6622297393007D-01 -3.1291344864470D-02
   234  2.3300000000000D+00  2.6106149378321D-01 -3.0385091557410D-02
   235  2.3400000000000D+00  2.5571740728168D-01 -2.9478535262244D-02
   236  2.3500000000000D+00  2.5020823337841D-01 -2.8573168626837D-02
   237  2.3600000000000D+00  2.4455117932401D-01 -2.7670427138446D-02
   238  2.3700000000000D+00  2.3876311258928D-01 -2.6771688244260D-02
   239  2.3800000000000D+00  2.3286053434944D-01 -2.5878270598281D-02
   240  2.3900000000000D+00  2.2685955462681D-01 -2.4991433439572D-02
   241  2.4000000000000D+00  2.2077586948108D-01 -2.4112376126077D-02
   242  2.4100000000000D+00  2.1462473974070D-01 -2.3242237787682D-02
   243  2.4200000000000D+00  2.0842097149035D-01 -2.2382097110970D-02
   244  2.4300000000000D+00  2.0217889850799D-01 -2.1532972265886D-02
   245  2.4400000000000D+00  1.9591236622471D-01 -2.0695820944931D-02
   246  2.4500000000000D+00  1.8963471746517D-01 -1.9871540529020D-02
   247  2.4600000000000D+00  1.8335878001530D-01 -1.9060968380427D-02
   248  2.4700000000000D+00  1.7709685566949D-01 -1.8264882240061D-02
   249  2.4800000000000D+00  1.7086071102169D-01 -1.7484000742109D-02
   250  2.4900000000000D+00  1.6466156994604D-01 -1.6718984040425D-02
   251  2.5000000000000D+00  1.5851010749002D-01 -1.5970434529714D-02
   252  2.5100000000000D+00  1.5241644541849D-01 -1.5238897671160D-02
   253  2.5200000000000D+00  1.4639014930163D-01 -1.4524862914411D-02
   254  2.5300000000000D+00  1.4044022692633D-01 -1.3828764703654D-02
   255  2.5400000000000D+00  1.3457512821862D-01 -1.3150983572583D-02
   256  2.5500000000000D+00  1.2880274655915D-01 -1.2491847320344D-02
   257  2.5600000000000D+00  1.2313042131442D-01 -1.1851632260019D-02
   258  2.5700000000000D+00  1.1756494170437D-01 -1.1230564538974D-02
   259  2.5800000000000D+00  1.1211255190682D-01 -1.0628821524691D-02
   260  2.5900000000000D+00  1.0677895725453D-01 -1.0046533250956D-02
   261  2.6000000000000D+00  1.0156933157471D-01 -9.4837839188971D-03
   262  2.6100000000000D+00  9.6488325599977D-02 -8.9406134473815D-03
   263  2.6200000000000D+00  9.1540076336939D-02 -8.4170190713097D-03
   264  2.6300000000000D+00  8.6728217382035D-02 -7.9129569792327D-03
   265  2.6400000000000D+00  8.2055890127882D-02 -7.4283439830610D-03
   266  2.6500000000000D+00  7.7525755783285D-02 -6.9630592230669D-03
   267  2.6600000000000D+00  7.3140008163858D-02 -6.5169458998217D-03
   268  2.6700000000000D+00  6.8900387168588D-02 -6.0898130191340D-03
   269  2.6800000000000D+00  6.4808192919488D-02 -5.6814371597239D-03
   270  2.6900000000000D+00  6.0864300533207D-02 -5.2915642599514D-03
   271  2.7000000000000D+00  5.7069175341459D-02 -4.9199113959942D-03
   272  2.7100000000000D+00  5.3422888628130D-02 -4.5661685716407D-03
   273  2.7200000000000D+00  4.9925133890787D-02 -4.2300005214185D-03
   274  2.7300000000000D+00  4.6575243301219D-02 -3.9110484847769D-03
   275  2.7400000000000D+00  4.3372204559403D-02 -3.6089319834684D-03
   276  2.7500000000000D+00  4.0314678112011D-02 -3.3232505990554D-03
   277  2.7600000000000D+00  3.7401014445456D-02 -3.0535857178974D-03
   278  2.7700000000000D+00  3.4629271561217D-02 -2.7995022598850D-03
   279  2.7800000000000D+00  3.1997232672049D-02 -2.5605503973511D-03
   280  2.7900000000000D+00  2.9502423937618D-02 -2.3362672457465D-03
   281  2.8000000000000D+00  2.7142132113314D-02 -2.1261785144430D-03
   282  2.8100000000000D+00  2.4913422278854D-02 -1.9298001384211D-03
   283  2.8200000000000D+00  2.2813155663600D-02 -1.7466398932511D-03
   284  2.8300000000000D+00  2.0838007052126D-02 -1.5761989426276D-03
   285  2.8400000000000D+00  1.8984482228488D-02 -1.4179733674487D-03
   286  2.8500000000000D+00  1.7248935406321D-02 -1.2714556711652D-03
   287  2.8600000000000D+00  1.5627586195873D-02 -1.1361362206103D-03
   288  2.8700000000000D+00  1.4116536401483D-02 -1.0115046519306D-03
   289  2.8800000000000D+00  1.2711786657691D-02 -8.9705124336883D-04
   290  2.8900000000000D+00  1.1409252782596D-02 -7.9226824521726D-04
   291  2.9000000000000D+00  1.0204781598367D-02 -6.9665114629626D-04
   292  2.9100000000000D+00  9.0941665267723D-03 -6.0969990594678D-04
   293  2.9200000000000D+00  8.0731630424879D-03 -5.3092015802898D-04
   294  2.9300000000000D+00  7.1375033285475D-03 -4.5982433490738D-04
   295  2.9400000000000D+00  6.2829107134261D-03 -3.9593276014260D-04
   296  2.9500000000000D+00  5.5051137514126D-03 -3.3877469884279D-04
   297  2.9600000000000D+00  4.7998598145591D-03 -2.8788935716789D-04
   298  2.9700000000000D+00  4.1629280681608D-03 -2.4282682263992D-04
   299  2.9800000000000D+00  3.5901420672351D-03 -2.0314896438137D-04
   300  2.9900000000000D+00  3.0773820744354D-03 -1.6843029891633D-04
   301  3.0000000000000D+00  2.6205965019146D-03 -1.3825878439640D-04
   302  3.0100000000000D+00  2.2158130263671D-03 -1.1223657977417D-04
   303  3.0200000000000D+00  1.8591492175629D-03 -8.9980758665115D-05
   304  3.0300000000000D+00  1.5468226626960D-03 -7.1123978047276D-05
   305  3.0400000000000D+00  1.2751603694430D-03 -5.5315091490610D-05
   306  3.0500000000000D+00  1.0406077494924D-03 -4.2219723979608D-05
   307  3.0600000000000D+00  8.3973717348275D-04 -3.1520805402167D-05
   308  3.0700000000000D+00  6.6925578224546D-04 -2.2919053476587D-05
   309  3.0800000000000D+00  5.2601280629219D-04 -1.6133415469709D-05
   310  3.0900000000000D+00  4.0700634431097D-04 -1.0901468249155D-05
   311  3.1000000000000D+00  3.0938971565271D-04 -6.9797770771831D-06
   312  3.1100000000000D+00  2.3047701593769D-04 -4.1442116629219D-06
   313  3.1200000000000D+00  1.6774921203124D-04 -2.1909304667362D-06
   314  3.1300000000000D+00  1.1885687155852D-04 -9.3521599397251D-07
   315  3.1400000000000D+00  8.1622469948865D-05 -2.1036655648328D-07
   316  3.1500000000000D+00  5.4048670518868D-05  1.2850614303594D-07
   317  3.1600000000000D+00  3.4318045521315D-05  2.0745940133323D-07
   318  3.1700000000000D+00  2.0801890890757D-05  1.2677745665244D-07
   319  3.1800000000000D+00  1.2058020672346D-05 -3.4853977119795D-08
   320  3.1900000000000D+00  6.8283043010803D-06 -2.1661846368287D-07
   321  3.2000000000000D+00  4.0838554982649D-06 -3.7911516146409D-07
   322  3.2100000000000D+00  2.8705607565308D-06 -4.8921744357173D-07
   323  3.2200000000000D+00  2.4470458074737D-06 -5.3038964072542D-07
   324  3.2300000000000D+00  2.2673019274400D-06 -4.9951551225244D-07
   325  3.2400000000000D+00  1.8160425567462D-06 -3.9108728370657D-07
   326  3.2500000000000D+00  1.2128529032483D-06 -2.4826232023432D-07
   327  3.2600000000000D+00  5.3154775538419D-07 -1.0280197305876D-07
   328  3.2700000000000D+00 -4.7163077133787D-08  1.0874443153525D-08
   329  3.2800000000000D+00 -2.3448398507829D-07  5.3405615809017D-08
   330  3.2900000000000D+00 -2.4252055395040D-07  5.4500998633716D-08
   331  3.3000000000000D+00 -1.2586374750373D-07  2.7905675624546D-08
   332  3.3100000000000D+00  1.0126656377850D-08 -2.9403129779127D-09
   333  3.3200000000000D+00  3.8738907068070D-08 -1.1389381504493D-08
   334  3.3300000000000D+00  4.0784954778620D-08 -1.2121773111458D-08
   335  3.3400000000000D+00  2.1238099741797D-08 -6.3725761825610D-09
   336  3.3500000000000D+00 -1.5637501650720D-09  3.4444621139176D-10
   337  3.3600000000000D+00 -5.6956278272557D-09  1.2545721627505D-09
   338  3.3700000000000D+00 -6.2091860245190D-09  1.3676932861420D-09
   339  3.3800000000000D+00 -3.3879751147498D-09  7.4626703077692D-10
   340  3.3900000000000D+00  0.0000000000000D+00  0.0000000000000D+00
   341  3.4000000000000D+00  0.0000000000000D+00  0.0000000000000D+00
   342  3.4100000000000D+00  0.0000000000000D+00  0.0000000000000D+00
   343  3.4200000000000D+00  0.0000000000000D+00  0.0000000000000D+00
   344  3.4300000000000D+00  0.0000000000000D+00  0.0000000000000D+00
   345  3.4400000000000D+00  0.0000000000000D+00  0.0000000000000D+00
   346  3.4500000000000D+00  0.0000000000000D+00  0.0000000000000D+00
   347  3.4600000000000D+00  0.0000000000000D+00  0.0000000000000D+00
   348  3.4700000000000D+00  0.0000000000000D+00  0.0000000000000D+00
   349  3.4800000000000D+00  0.0000000000000D+00  0.0000000000000D+00
   350  3.4900000000000D+00  0.0000000000000D+00  0.0000000000000D+00
   351  3.5000000000000D+00  0.0000000000000D+00  0.0000000000000D+00
   352  3.5100000000000D+00  0.0000000000000D+00  0.0000000000000D+00
   353  3.5200000000000D+00  0.0000000000000D+00  0.0000000000000D+00
   354  3.5300000000000D+00  0.0000000000000D+00  0.0000000000000D+00
   355  3.5400000000000D+00  0.0000000000000D+00  0.0000000000000D+00
   356  3.5500000000000D+00  0.0000000000000D+00  0.0000000000000D+00
   357  3.5600000000000D+00  0.0000000000000D+00  0.0000000000000D+00
   358  3.5700000000000D+00  0.0000000000000D+00  0.0000000000000D+00
   359  3.5800000000000D+00  0.0000000000000D+00  0.0000000000000D+00
   360  3.5900000000000D+00  0.0000000000000D+00  0.0000000000000D+00
   361  3.6000000000000D+00  0.0000000000000D+00  0.0000000000000D+00
   362  3.6100000000000D+00  0.0000000000000D+00  0.0000000000000D+00
   363  3.6200000000000D+00  0.0000000000000D+00  0.0000000000000D+00
   364  3.6300000000000D+00  0.0000000000000D+00  0.0000000000000D+00
   365  3.6400000000000D+00  0.0000000000000D+00  0.0000000000000D+00
   366  3.6500000000000D+00  0.0000000000000D+00  0.0000000000000D+00
   367  3.6600000000000D+00  0.0000000000000D+00  0.0000000000000D+00
   368  3.6700000000000D+00  0.0000000000000D+00  0.0000000000000D+00
   369  3.6800000000000D+00  0.0000000000000D+00  0.0000000000000D+00
   370  3.6900000000000D+00  0.0000000000000D+00  0.0000000000000D+00
   371  3.7000000000000D+00  0.0000000000000D+00  0.0000000000000D+00
   372  3.7100000000000D+00  0.0000000000000D+00  0.0000000000000D+00
   373  3.7200000000000D+00  0.0000000000000D+00  0.0000000000000D+00
   374  3.7300000000000D+00  0.0000000000000D+00  0.0000000000000D+00
   375  3.7400000000000D+00  0.0000000000000D+00  0.0000000000000D+00
   376  3.7500000000000D+00  0.0000000000000D+00  0.0000000000000D+00
   377  3.7600000000000D+00  0.0000000000000D+00  0.0000000000000D+00
   378  3.7700000000000D+00  0.0000000000000D+00  0.0000000000000D+00
   379  3.7800000000000D+00  0.0000000000000D+00  0.0000000000000D+00
   380  3.7900000000000D+00  0.0000000000000D+00  0.0000000000000D+00
   381  3.8000000000000D+00  0.0000000000000D+00  0.0000000000000D+00
   382  3.8100000000000D+00  0.0000000000000D+00  0.0000000000000D+00
   383  3.8200000000000D+00  0.0000000000000D+00  0.0000000000000D+00
   384  3.8300000000000D+00  0.0000000000000D+00  0.0000000000000D+00
   385  3.8400000000000D+00  0.0000000000000D+00  0.0000000000000D+00
   386  3.8500000000000D+00  0.0000000000000D+00  0.0000000000000D+00
   387  3.8600000000000D+00  0.0000000000000D+00  0.0000000000000D+00
   388  3.8700000000000D+00  0.0000000000000D+00  0.0000000000000D+00
   389  3.8800000000000D+00  0.0000000000000D+00  0.0000000000000D+00
   390  3.8900000000000D+00  0.0000000000000D+00  0.0000000000000D+00
   391  3.9000000000000D+00  0.0000000000000D+00  0.0000000000000D+00
   392  3.9100000000000D+00  0.0000000000000D+00  0.0000000000000D+00
   393  3.9200000000000D+00  0.0000000000000D+00  0.0000000000000D+00
   394  3.9300000000000D+00  0.0000000000000D+00  0.0000000000000D+00
   395  3.9400000000000D+00  0.0000000000000D+00  0.0000000000000D+00
   396  3.9500000000000D+00  0.0000000000000D+00  0.0000000000000D+00
   397  3.9600000000000D+00  0.0000000000000D+00  0.0000000000000D+00
   398  3.9700000000000D+00  0.0000000000000D+00  0.0000000000000D+00
   399  3.9800000000000D+00  0.0000000000000D+00  0.0000000000000D+00
   400  3.9900000000000D+00  0.0000000000000D+00  0.0000000000000D+00
   401  4.0000000000000D+00  0.0000000000000D+00  0.0000000000000D+00
   402  4.0100000000000D+00  0.0000000000000D+00  0.0000000000000D+00
   403  4.0200000000000D+00  0.0000000000000D+00  0.0000000000000D+00
   404  4.0300000000000D+00  0.0000000000000D+00  0.0000000000000D+00
   405  4.0400000000000D+00  0.0000000000000D+00  0.0000000000000D+00
   406  4.0500000000000D+00  0.0000000000000D+00  0.0000000000000D+00
   407  4.0600000000000D+00  0.0000000000000D+00  0.0000000000000D+00
   408  4.0700000000000D+00  0.0000000000000D+00  0.0000000000000D+00
   409  4.0800000000000D+00  0.0000000000000D+00  0.0000000000000D+00
   410  4.0900000000000D+00  0.0000000000000D+00  0.0000000000000D+00
   411  4.1000000000000D+00  0.0000000000000D+00  0.0000000000000D+00
   412  4.1100000000000D+00  0.0000000000000D+00  0.0000000000000D+00
   413  4.1200000000000D+00  0.0000000000000D+00  0.0000000000000D+00
   414  4.1300000000000D+00  0.0000000000000D+00  0.0000000000000D+00
   415  4.1400000000000D+00  0.0000000000000D+00  0.0000000000000D+00
   416  4.1500000000000D+00  0.0000000000000D+00  0.0000000000000D+00
   417  4.1600000000000D+00  0.0000000000000D+00  0.0000000000000D+00
   418  4.1700000000000D+00  0.0000000000000D+00  0.0000000000000D+00
   419  4.1800000000000D+00  0.0000000000000D+00  0.0000000000000D+00
   420  4.1900000000000D+00  0.0000000000000D+00  0.0000000000000D+00
   421  4.2000000000000D+00  0.0000000000000D+00  0.0000000000000D+00
   422  4.2100000000000D+00  0.0000000000000D+00  0.0000000000000D+00