Co    ONCVPSP-3.3.1  r_core=   2.18438   2.08260   2.21059
     27.0000     17.0000      210904    zatom,zion,pspd
     8       2   2     4   600     0    pspcod,pspxc,lmax,lloc,mmax,r2well
  5.99000000  0.00000000  0.00000000    rchrg fchrg qchrg
     2     2     2     0    nproj
     3     1           extension_switch
     4     3     0    nprojso
   0                        -3.0788956318303D+00 -1.4223486478629D-01
     1  0.0000000000000D+00 -1.2681522498781D-12  1.1746159600534D-12
     2  1.0000000000000D-02  3.9071227251144D-02 -2.3718554375153D-02
     3  2.0000000000000D-02  7.8104215028210D-02 -4.7397264413769D-02
     4  3.0000000000000D-02  1.1706077860244D-01 -7.0996331329950D-02
     5  4.0000000000000D-02  1.5590284262886D-01 -9.4476047397300D-02
     6  5.0000000000000D-02  1.9459249557142D-01 -1.1779684137452D-01
     7  6.0000000000000D-02  2.3309204380885D-01 -1.4091932380688D-01
     8  7.0000000000000D-02  2.7136406531639D-01 -1.6380433216362D-01
     9  8.0000000000000D-02  3.0937146281968D-01 -1.8641297577237D-01
    10  9.0000000000000D-02  3.4707751631868D-01 -2.0870668051345D-01
    11  1.0000000000000D-01  3.8444593488157D-01 -2.3064723323817D-01
    12  1.1000000000000D-01  4.2144090761034D-01 -2.5219682587749D-01
    13  1.2000000000000D-01  4.5802715368264D-01 -2.7331809920942D-01
    14  1.3000000000000D-01  4.9416997137679D-01 -2.9397418625575D-01
    15  1.4000000000000D-01  5.2983528599017D-01 -3.1412875528118D-01
    16  1.5000000000000D-01  5.6498969656416D-01 -3.3374605237035D-01
    17  1.6000000000000D-01  5.9960052133215D-01 -3.5279094356112D-01
    18  1.7000000000000D-01  6.3363584181130D-01 -3.7122895651448D-01
    19  1.8000000000000D-01  6.6706454546172D-01 -3.8902632170488D-01
    20  1.9000000000000D-01  6.9985636684169D-01 -4.0615001311642D-01
    21  2.0000000000000D-01  7.3198192719092D-01 -4.2256778843359D-01
    22  2.1000000000000D-01  7.6341277237869D-01 -4.3824822871690D-01
    23  2.2000000000000D-01  7.9412140915781D-01 -4.5316077755637D-01
    24  2.3000000000000D-01  8.2408133967021D-01 -4.6727577969736D-01
    25  2.4000000000000D-01  8.5326709415423D-01 -4.8056451913521D-01
    26  2.5000000000000D-01  8.8165426180859D-01 -4.9299925667627D-01
    27  2.6000000000000D-01  9.0921951977283D-01 -5.0455326696396D-01
    28  2.7000000000000D-01  9.3594066018844D-01 -5.1520087496936D-01
    29  2.8000000000000D-01  9.6179661531003D-01 -5.2491749194567D-01
    30  2.9000000000000D-01  9.8676748064034D-01 -5.3367965084617D-01
    31  3.0000000000000D-01  1.0108345360679D+00 -5.4146504120439D-01
    32  3.1000000000000D-01  1.0339802649904D+00 -5.4825254347408D-01
    33  3.2000000000000D-01  1.0561883714121D+00 -5.5402226282510D-01
    34  3.3000000000000D-01  1.0774437950068D+00 -5.5875556238941D-01
    35  3.4000000000000D-01  1.0977327241450D+00 -5.6243509594816D-01
    36  3.5000000000000D-01  1.1170426068837D+00 -5.6504484004847D-01
    37  3.6000000000000D-01  1.1353621599268D+00 -5.6657012553441D-01
    38  3.7000000000000D-01  1.1526813755642D+00 -5.6699766847248D-01
    39  3.8000000000000D-01  1.1689915266019D+00 -5.6631560044780D-01
    40  3.9000000000000D-01  1.1842851693020D+00 -5.6451349820139D-01
    41  4.0000000000000D-01  1.1985561443519D+00 -5.6158241257394D-01
    42  4.1000000000000D-01  1.2117995758861D+00 -5.5751489671515D-01
    43  4.2000000000000D-01  1.2240118685884D+00 -5.5230503351157D-01
    44  4.3000000000000D-01  1.2351907029043D+00 -5.4594846217901D-01
    45  4.4000000000000D-01  1.2453350283958D+00 -5.3844240395864D-01
    46  4.5000000000000D-01  1.2544450552744D+00 -5.2978568684864D-01
    47  4.6000000000000D-01  1.2625222441499D+00 -5.1997876929576D-01
    48  4.7000000000000D-01  1.2695692940343D+00 -5.0902376276368D-01
    49  4.8000000000000D-01  1.2755901286434D+00 -4.9692445308706D-01
    50  4.9000000000000D-01  1.2805898810393D+00 -4.8368632051316D-01
    51  5.0000000000000D-01  1.2845748766583D+00 -4.6931655832430D-01
    52  5.1000000000000D-01  1.2875526147725D+00 -4.5382408992811D-01
    53  5.2000000000000D-01  1.2895317484304D+00 -4.3721958429429D-01
    54  5.3000000000000D-01  1.2905220629274D+00 -4.1951546961026D-01
    55  5.4000000000000D-01  1.2905344528552D+00 -4.0072594502128D-01
    56  5.5000000000000D-01  1.2895808977793D+00 -3.8086699031444D-01
    57  5.6000000000000D-01  1.2876744365978D+00 -3.5995637340052D-01
    58  5.7000000000000D-01  1.2848291406300D+00 -3.3801365544263D-01
    59  5.8000000000000D-01  1.2810600854894D+00 -3.1506019347627D-01
    60  5.9000000000000D-01  1.2763833217901D+00 -2.9111914036204D-01
    61  6.0000000000000D-01  1.2708158447408D+00 -2.6621544190964D-01
    62  6.1000000000000D-01  1.2643755626768D+00 -2.4037583100989D-01
    63  6.2000000000000D-01  1.2570812645819D+00 -2.1362881861106D-01
    64  6.3000000000000D-01  1.2489525866528D+00 -1.8600468137604D-01
    65  6.4000000000000D-01  1.2400099779564D+00 -1.5753544585838D-01
    66  6.5000000000000D-01  1.2302746652318D+00 -1.2825486903774D-01
    67  6.6000000000000D-01  1.2197686168875D+00 -9.8198415059754D-02
    68  6.7000000000000D-01  1.2085145062444D+00 -6.7403228029717D-02
    69  6.8000000000000D-01  1.1965356740762D+00 -3.5908100716400D-02
    70  6.9000000000000D-01  1.1838560904958D+00 -3.7534390305686D-03
    71  7.0000000000000D-01  1.1705003162380D+00  2.9018777849292D-02
    72  7.1000000000000D-01  1.1564934633886D+00  6.2365041819366D-02
    73  7.2000000000000D-01  1.1418611556101D+00  9.6240364765952D-02
    74  7.3000000000000D-01  1.1266294879113D+00  1.3059833214431D-01
    75  7.4000000000000D-01  1.1108249860121D+00  1.6539116129766D-01
    76  7.5000000000000D-01  1.0944745653528D+00  2.0056976457635D-01
    77  7.6000000000000D-01  1.0776054897958D+00  2.3608381730039D-01
    78  7.7000000000000D-01  1.0602453300714D+00  2.7188183059004D-01
    79  7.8000000000000D-01  1.0424219220160D+00  3.0791122906911D-01
    80  7.9000000000000D-01  1.0241633246538D+00  3.4411843342540D-01
    81  8.0000000000000D-01  1.0054977781718D+00  3.8044894779034D-01
    82  8.1000000000000D-01  9.8645366183998D-01  4.1684745187742D-01
    83  8.2000000000000D-01  9.6705945192751D-01  4.5325789779549D-01
    84  8.3000000000000D-01  9.4734367966756D-01  4.8962361142804D-01
    85  8.4000000000000D-01  9.2733488932329D-01  5.2588739824523D-01
    86  8.5000000000000D-01  9.0706159640866D-01  5.6199165338957D-01
    87  8.6000000000000D-01  8.8655224611844D-01  5.9787847585005D-01
    88  8.7000000000000D-01  8.6583517202246D-01  6.3348978651382D-01
    89  8.8000000000000D-01  8.4493855508017D-01  6.6876744985779D-01
    90  8.9000000000000D-01  8.2389038303218D-01  7.0365339901650D-01
    91  9.0000000000000D-01  8.0271841022677D-01  7.3808976393676D-01
    92  9.1000000000000D-01  7.8145011793964D-01  7.7201900230352D-01
    93  9.2000000000000D-01  7.6011267524653D-01  8.0538403289654D-01
    94  9.3000000000000D-01  7.3873290050884D-01  8.3812837101313D-01
    95  9.4000000000000D-01  7.1733722353325D-01  8.7019626556836D-01
    96  9.5000000000000D-01  6.9595164846697D-01  9.0153283746172D-01
    97  9.6000000000000D-01  6.7460171749097D-01  9.3208421877800D-01
    98  9.7000000000000D-01  6.5331247537386D-01  9.6179769236995D-01
    99  9.8000000000000D-01  6.3210843494975D-01  9.9062183135201D-01
   100  9.9000000000000D-01  6.1101354358325D-01  1.0185066380173D+00
   101  1.0000000000000D+00  5.9005115068550D-01  1.0454036816760D+00
   102  1.0100000000000D+00  5.6924397634435D-01  1.0712662348986D+00
   103  1.0200000000000D+00  5.4861408113220D-01  1.0960494076386D+00
   104  1.0300000000000D+00  5.2818283715415D-01  1.1197102786999D+00
   105  1.0400000000000D+00  5.0797090039864D-01  1.1422080240062D+00
   106  1.0500000000000D+00  4.8799818445193D-01  1.1635040411303D+00
   107  1.0600000000000D+00  4.6828383563650D-01  1.1835620695345D+00
   108  1.0700000000000D+00  4.4884620963228D-01  1.2023483059806D+00
   109  1.0800000000000D+00  4.2970284963789D-01  1.2198315145669D+00
   110  1.0900000000000D+00  4.1087046612715D-01  1.2359831308612D+00
   111  1.1000000000000D+00  3.9236491825411D-01  1.2507773596070D+00
   112  1.1100000000000D+00  3.7420119695729D-01  1.2641912654915D+00
   113  1.1200000000000D+00  3.5639340981120D-01  1.2762048564834D+00
   114  1.1300000000000D+00  3.3895476767012D-01  1.2868011592628D+00
   115  1.1400000000000D+00  3.2189757314550D-01  1.2959662862945D+00
   116  1.1500000000000D+00  3.0523321095587D-01  1.3036894941090D+00
   117  1.1600000000000D+00  2.8897214018281D-01  1.3099632323943D+00
   118  1.1700000000000D+00  2.7312388846348D-01  1.3147831835262D+00
   119  1.1800000000000D+00  2.5769704814481D-01  1.3181482921993D+00
   120  1.1900000000000D+00  2.4269927442162D-01  1.3200607848511D+00
   121  1.2000000000000D+00  2.2813728547372D-01  1.3205261786167D+00
   122  1.2100000000000D+00  2.1401686461271D-01  1.3195532795935D+00
   123  1.2200000000000D+00  2.0034286444532D-01  1.3171541702223D+00
   124  1.2300000000000D+00  1.8711921305261D-01  1.3133441856501D+00
   125  1.2400000000000D+00  1.7434892217871D-01  1.3081418789880D+00
   126  1.2500000000000D+00  1.6203409741801D-01  1.3015689754117D+00
   127  1.2600000000000D+00  1.5017595038407D-01  1.2936503151021D+00
   128  1.2700000000000D+00  1.3877481283417D-01  1.2844137850963D+00
   129  1.2800000000000D+00  1.2783015272047D-01  1.2738902401440D+00
   130  1.2900000000000D+00  1.1734059213285D-01  1.2621134127136D+00
   131  1.3000000000000D+00  1.0730392708731D-01  1.2491198123831D+00
   132  1.3100000000000D+00  9.7717149112915D-02  1.2349486148582D+00
   133  1.3200000000000D+00  8.8576468582898D-02  1.2196415409209D+00
   134  1.3300000000000D+00  7.9877339724007D-02  1.2032427257069D+00
   135  1.3400000000000D+00  7.1614487240489D-02  1.1857985786921D+00
   136  1.3500000000000D+00  6.3781934477600D-02  1.1673576348603D+00
   137  1.3600000000000D+00  5.6373033040619D-02  1.1479703976032D+00
   138  1.3700000000000D+00  4.9380493791536D-02  1.1276891738460D+00
   139  1.3800000000000D+00  4.2796419125226D-02  1.1065679020674D+00
   140  1.3900000000000D+00  3.6612336430958D-02  1.0846619738430D+00
   141  1.4000000000000D+00  3.0819232641644D-02  1.0620280495740D+00
   142  1.4100000000000D+00  2.5407589757405D-02  1.0387238691930D+00
   143  1.4200000000000D+00  2.0367421241198D-02  1.0148080585438D+00
   144  1.4300000000000D+00  1.5688309167026D-02  9.9033993227910D-01
   145  1.4400000000000D+00  1.1359442004112D-02  9.6537929409292D-01
   146  1.4500000000000D+00  7.3696529194796D-03  9.3998623511272D-01
   147  1.4600000000000D+00  3.7074584698832D-03  9.1422093137296D-01
   148  1.4700000000000D+00  3.6109756382475D-04  8.8814344120919D-01
   149  1.4800000000000D+00 -2.6814294388330D-03  8.6181350352168D-01
   150  1.4900000000000D+00 -5.4323216141469D-03  8.3529033779151D-01
   151  1.5000000000000D+00 -7.9039384803110D-03  8.0863244679424D-01
   152  1.5100000000000D+00 -1.0108761248298D-02  7.8189742290218D-01
   153  1.5200000000000D+00 -1.2059354450990D-02  7.5514175893699D-01
   154  1.5300000000000D+00 -1.3768328070540D-02  7.2842066441622D-01
   155  1.5400000000000D+00 -1.5248300300039D-02  7.0178788817209D-01
   156  1.5500000000000D+00 -1.6511861052931D-02  6.7529554813424D-01
   157  1.5600000000000D+00 -1.7571536350485D-02  6.4899396920703D-01
   158  1.5700000000000D+00 -1.8439753699926D-02  6.2293153002658D-01
   159  1.5800000000000D+00 -1.9128808577750D-02  5.9715451939834D-01
   160  1.5900000000000D+00 -1.9650832134994D-02  5.7170700323442D-01
   161  1.6000000000000D+00 -2.0017760214445D-02  5.4663070259091D-01
   162  1.6100000000000D+00 -2.0241303804780D-02  5.2196488369089D-01
   163  1.6200000000000D+00 -2.0332920989605D-02  4.9774626027270D-01
   164  1.6300000000000D+00 -2.0303790527372D-02  4.7400890923784D-01
   165  1.6400000000000D+00 -2.0164787082483D-02  4.5078419963209D-01
   166  1.6500000000000D+00 -1.9926458255695D-02  4.2810073603177D-01
   167  1.6600000000000D+00 -1.9599003392964D-02  4.0598431603562D-01
   168  1.6700000000000D+00 -1.9192254332368D-02  3.8445790302572D-01
   169  1.6800000000000D+00 -1.8715658025915D-02  3.6354161355731D-01
   170  1.6900000000000D+00 -1.8178261204826D-02  3.4325272061037D-01
   171  1.7000000000000D+00 -1.7588696984288D-02  3.2360567173631D-01
   172  1.7100000000000D+00 -1.6955173580438D-02  3.0461212336265D-01
   173  1.7200000000000D+00 -1.6285464999253D-02  2.8628099000083D-01
   174  1.7300000000000D+00 -1.5586903866989D-02  2.6861850958987D-01
   175  1.7400000000000D+00 -1.4866376233434D-02  2.5162832349886D-01
   176  1.7500000000000D+00 -1.4130318504272D-02  2.3531157230803D-01
   177  1.7600000000000D+00 -1.3384716317118D-02  2.1966700576481D-01
   178  1.7700000000000D+00 -1.2635105490881D-02  2.0469110781478D-01
   179  1.7800000000000D+00 -1.1886574861635D-02  1.9037823510137D-01
   180  1.7900000000000D+00 -1.1143771092191D-02  1.7672076948935D-01
   181  1.8000000000000D+00 -1.0410905285147D-02  1.6370928314541D-01
   182  1.8100000000000D+00 -9.6917614274014D-03  1.5133271625747D-01
   183  1.8200000000000D+00 -8.9897065306843D-03  1.3957856620539D-01
   184  1.8300000000000D+00 -8.3077024224905D-03  1.2843308768574D-01
   185  1.8400000000000D+00 -7.6483191010029D-03  1.1788150298644D-01
   186  1.8500000000000D+00 -7.0137495276423D-03  1.0790822129276D-01
   187  1.8600000000000D+00 -6.4058258246140D-03  9.8497066625687D-02
   188  1.8700000000000D+00 -5.8260366766774D-03  8.9631512743981D-02
   189  1.8800000000000D+00 -5.2755460814118D-03  8.1294934752886D-02
   190  1.8900000000000D+00 -4.7552123199923D-03  7.3470811479875D-02
   191  1.9000000000000D+00 -4.2656102761192D-03  6.6143102713153D-02
   192  1.9100000000000D+00 -3.8070490317256D-03  5.9296241578437D-02
   193  1.9200000000000D+00 -3.3795957125646D-03  5.2915516771846D-02
   194  1.9300000000000D+00 -2.9831043324969D-03  4.6987787762112D-02
   195  1.9400000000000D+00 -2.6172352075973D-03  4.1501492387487D-02
   196  1.9500000000000D+00 -2.2814582779136D-03  3.6445463455908D-02
   197  1.9600000000000D+00 -1.9750638679309D-03  3.1808255739769D-02
   198  1.9700000000000D+00 -1.6971741655044D-03  2.7577643532813D-02
   199  1.9800000000000D+00 -1.4467423458569D-03  2.3739190820078D-02
   200  1.9900000000000D+00 -1.2225781684900D-03  2.0276755709435D-02
   201  2.0000000000000D+00 -1.0233729574414D-03  1.7172984465666D-02
   202  2.0100000000000D+00 -8.4772143678039D-04  1.4409594209482D-02
   203  2.0200000000000D+00 -6.9413890073727D-04  1.1967328539035D-02
   204  2.0300000000000D+00 -5.6108285571175D-04  9.8262834098606D-03
   205  2.0400000000000D+00 -4.4697129833222D-04  7.9660360318805D-03
   206  2.0500000000000D+00 -3.5020121421719D-04  6.3658317096740D-03
   207  2.0600000000000D+00 -2.6916589502919D-04  5.0047483103036D-03
   208  2.0700000000000D+00 -2.0227126610951D-04  3.8618508198597D-03
   209  2.0800000000000D+00 -1.4795121322219D-04  2.9163359181396D-03
   210  2.0900000000000D+00 -1.0468153992869D-04  2.1476633094269D-03
   211  2.1000000000000D+00 -7.0992909080557D-05  1.5356769811581D-03
   212  2.1100000000000D+00 -4.5479264351465D-05  1.0607217400691D-03
   213  2.1200000000000D+00 -2.6811977405930D-05  7.0372454189772D-04
   214  2.1300000000000D+00 -1.3769148978811D-05  4.4620992469511D-04
   215  2.1400000000000D+00 -5.2448362308553D-06  2.6992769375411D-04
   216  2.1500000000000D+00 -8.6947144546198D-08  1.5905938978330D-04
   217  2.1600000000000D+00  2.7602820152071D-06  9.8848798142419D-05
   218  2.1700000000000D+00  4.1524719161986D-06  7.4834746616444D-05
   219  2.1800000000000D+00  4.2833242471642D-06  6.4380110100166D-05
   220  2.1900000000000D+00  3.2371985058123D-06  4.8208246475312D-05
   221  2.2000000000000D+00  1.5541413301914D-06  2.3747888844818D-05
   222  2.2100000000000D+00  6.8516887774515D-08  1.0877964801535D-06
   223  2.2200000000000D+00 -4.1684197284395D-07 -5.9419843652474D-06
   224  2.2300000000000D+00 -2.6950366545020D-07 -3.8633792897809D-06
   225  2.2400000000000D+00  4.0243685920126D-08  5.2677052168766D-07
   226  2.2500000000000D+00  9.9999823225115D-08  1.2989045874883D-06
   227  2.2600000000000D+00  4.0533975990368D-08  5.2320943861727D-07
   228  2.2700000000000D+00 -7.9810490030791D-09 -1.1921390532947D-07
   229  2.2800000000000D+00 -1.0626800146102D-08 -1.5873381382371D-07
   230  2.2900000000000D+00 -1.3932368131385D-09 -2.0810948721021D-08
   231  2.3000000000000D+00  0.0000000000000D+00  0.0000000000000D+00
   232  2.3100000000000D+00  0.0000000000000D+00  0.0000000000000D+00
   233  2.3200000000000D+00  0.0000000000000D+00  0.0000000000000D+00
   234  2.3300000000000D+00  0.0000000000000D+00  0.0000000000000D+00
   235  2.3400000000000D+00  0.0000000000000D+00  0.0000000000000D+00
   236  2.3500000000000D+00  0.0000000000000D+00  0.0000000000000D+00
   237  2.3600000000000D+00  0.0000000000000D+00  0.0000000000000D+00
   238  2.3700000000000D+00  0.0000000000000D+00  0.0000000000000D+00
   239  2.3800000000000D+00  0.0000000000000D+00  0.0000000000000D+00
   240  2.3900000000000D+00  0.0000000000000D+00  0.0000000000000D+00
   241  2.4000000000000D+00  0.0000000000000D+00  0.0000000000000D+00
   242  2.4100000000000D+00  0.0000000000000D+00  0.0000000000000D+00
   243  2.4200000000000D+00  0.0000000000000D+00  0.0000000000000D+00
   244  2.4300000000000D+00  0.0000000000000D+00  0.0000000000000D+00
   245  2.4400000000000D+00  0.0000000000000D+00  0.0000000000000D+00
   246  2.4500000000000D+00  0.0000000000000D+00  0.0000000000000D+00
   247  2.4600000000000D+00  0.0000000000000D+00  0.0000000000000D+00
   248  2.4700000000000D+00  0.0000000000000D+00  0.0000000000000D+00
   249  2.4800000000000D+00  0.0000000000000D+00  0.0000000000000D+00
   250  2.4900000000000D+00  0.0000000000000D+00  0.0000000000000D+00
   251  2.5000000000000D+00  0.0000000000000D+00  0.0000000000000D+00
   252  2.5100000000000D+00  0.0000000000000D+00  0.0000000000000D+00
   253  2.5200000000000D+00  0.0000000000000D+00  0.0000000000000D+00
   254  2.5300000000000D+00  0.0000000000000D+00  0.0000000000000D+00
   255  2.5400000000000D+00  0.0000000000000D+00  0.0000000000000D+00
   256  2.5500000000000D+00  0.0000000000000D+00  0.0000000000000D+00
   257  2.5600000000000D+00  0.0000000000000D+00  0.0000000000000D+00
   258  2.5700000000000D+00  0.0000000000000D+00  0.0000000000000D+00
   259  2.5800000000000D+00  0.0000000000000D+00  0.0000000000000D+00
   260  2.5900000000000D+00  0.0000000000000D+00  0.0000000000000D+00
   261  2.6000000000000D+00  0.0000000000000D+00  0.0000000000000D+00
   262  2.6100000000000D+00  0.0000000000000D+00  0.0000000000000D+00
   263  2.6200000000000D+00  0.0000000000000D+00  0.0000000000000D+00
   264  2.6300000000000D+00  0.0000000000000D+00  0.0000000000000D+00
   265  2.6400000000000D+00  0.0000000000000D+00  0.0000000000000D+00
   266  2.6500000000000D+00  0.0000000000000D+00  0.0000000000000D+00
   267  2.6600000000000D+00  0.0000000000000D+00  0.0000000000000D+00
   268  2.6700000000000D+00  0.0000000000000D+00  0.0000000000000D+00
   269  2.6800000000000D+00  0.0000000000000D+00  0.0000000000000D+00
   270  2.6900000000000D+00  0.0000000000000D+00  0.0000000000000D+00
   271  2.7000000000000D+00  0.0000000000000D+00  0.0000000000000D+00
   272  2.7100000000000D+00  0.0000000000000D+00  0.0000000000000D+00
   273  2.7200000000000D+00  0.0000000000000D+00  0.0000000000000D+00
   274  2.7300000000000D+00  0.0000000000000D+00  0.0000000000000D+00
   275  2.7400000000000D+00  0.0000000000000D+00  0.0000000000000D+00
   276  2.7500000000000D+00  0.0000000000000D+00  0.0000000000000D+00
   277  2.7600000000000D+00  0.0000000000000D+00  0.0000000000000D+00
   278  2.7700000000000D+00  0.0000000000000D+00  0.0000000000000D+00
   279  2.7800000000000D+00  0.0000000000000D+00  0.0000000000000D+00
   280  2.7900000000000D+00  0.0000000000000D+00  0.0000000000000D+00
   281  2.8000000000000D+00  0.0000000000000D+00  0.0000000000000D+00
   282  2.8100000000000D+00  0.0000000000000D+00  0.0000000000000D+00
   283  2.8200000000000D+00  0.0000000000000D+00  0.0000000000000D+00
   284  2.8300000000000D+00  0.0000000000000D+00  0.0000000000000D+00
   285  2.8400000000000D+00  0.0000000000000D+00  0.0000000000000D+00
   286  2.8500000000000D+00  0.0000000000000D+00  0.0000000000000D+00
   287  2.8600000000000D+00  0.0000000000000D+00  0.0000000000000D+00
   288  2.8700000000000D+00  0.0000000000000D+00  0.0000000000000D+00
   289  2.8800000000000D+00  0.0000000000000D+00  0.0000000000000D+00
   290  2.8900000000000D+00  0.0000000000000D+00  0.0000000000000D+00
   291  2.9000000000000D+00  0.0000000000000D+00  0.0000000000000D+00
   292  2.9100000000000D+00  0.0000000000000D+00  0.0000000000000D+00
   293  2.9200000000000D+00  0.0000000000000D+00  0.0000000000000D+00
   294  2.9300000000000D+00  0.0000000000000D+00  0.0000000000000D+00
   295  2.9400000000000D+00  0.0000000000000D+00  0.0000000000000D+00
   296  2.9500000000000D+00  0.0000000000000D+00  0.0000000000000D+00
   297  2.9600000000000D+00  0.0000000000000D+00  0.0000000000000D+00
   298  2.9700000000000D+00  0.0000000000000D+00  0.0000000000000D+00
   299  2.9800000000000D+00  0.0000000000000D+00  0.0000000000000D+00
   300  2.9900000000000D+00  0.0000000000000D+00  0.0000000000000D+00
   301  3.0000000000000D+00  0.0000000000000D+00  0.0000000000000D+00
   302  3.0100000000000D+00  0.0000000000000D+00  0.0000000000000D+00
   303  3.0200000000000D+00  0.0000000000000D+00  0.0000000000000D+00
   304  3.0300000000000D+00  0.0000000000000D+00  0.0000000000000D+00
   305  3.0400000000000D+00  0.0000000000000D+00  0.0000000000000D+00
   306  3.0500000000000D+00  0.0000000000000D+00  0.0000000000000D+00
   307  3.0600000000000D+00  0.0000000000000D+00  0.0000000000000D+00
   308  3.0700000000000D+00  0.0000000000000D+00  0.0000000000000D+00
   309  3.0800000000000D+00  0.0000000000000D+00  0.0000000000000D+00
   310  3.0900000000000D+00  0.0000000000000D+00  0.0000000000000D+00
   311  3.1000000000000D+00  0.0000000000000D+00  0.0000000000000D+00
   312  3.1100000000000D+00  0.0000000000000D+00  0.0000000000000D+00
   313  3.1200000000000D+00  0.0000000000000D+00  0.0000000000000D+00
   314  3.1300000000000D+00  0.0000000000000D+00  0.0000000000000D+00
   315  3.1400000000000D+00  0.0000000000000D+00  0.0000000000000D+00
   316  3.1500000000000D+00  0.0000000000000D+00  0.0000000000000D+00
   317  3.1600000000000D+00  0.0000000000000D+00  0.0000000000000D+00
   318  3.1700000000000D+00  0.0000000000000D+00  0.0000000000000D+00
   319  3.1800000000000D+00  0.0000000000000D+00  0.0000000000000D+00
   320  3.1900000000000D+00  0.0000000000000D+00  0.0000000000000D+00
   321  3.2000000000000D+00  0.0000000000000D+00  0.0000000000000D+00
   322  3.2100000000000D+00  0.0000000000000D+00  0.0000000000000D+00
   323  3.2200000000000D+00  0.0000000000000D+00  0.0000000000000D+00
   324  3.2300000000000D+00  0.0000000000000D+00  0.0000000000000D+00
   325  3.2400000000000D+00  0.0000000000000D+00  0.0000000000000D+00
   326  3.2500000000000D+00  0.0000000000000D+00  0.0000000000000D+00
   327  3.2600000000000D+00  0.0000000000000D+00  0.0000000000000D+00
   328  3.2700000000000D+00  0.0000000000000D+00  0.0000000000000D+00
   329  3.2800000000000D+00  0.0000000000000D+00  0.0000000000000D+00
   330  3.2900000000000D+00  0.0000000000000D+00  0.0000000000000D+00
   331  3.3000000000000D+00  0.0000000000000D+00  0.0000000000000D+00
   332  3.3100000000000D+00  0.0000000000000D+00  0.0000000000000D+00
   333  3.3200000000000D+00  0.0000000000000D+00  0.0000000000000D+00
   334  3.3300000000000D+00  0.0000000000000D+00  0.0000000000000D+00
   335  3.3400000000000D+00  0.0000000000000D+00  0.0000000000000D+00
   336  3.3500000000000D+00  0.0000000000000D+00  0.0000000000000D+00
   337  3.3600000000000D+00  0.0000000000000D+00  0.0000000000000D+00
   338  3.3700000000000D+00  0.0000000000000D+00  0.0000000000000D+00
   339  3.3800000000000D+00  0.0000000000000D+00  0.0000000000000D+00
   340  3.3900000000000D+00  0.0000000000000D+00  0.0000000000000D+00
   341  3.4000000000000D+00  0.0000000000000D+00  0.0000000000000D+00
   342  3.4100000000000D+00  0.0000000000000D+00  0.0000000000000D+00
   343  3.4200000000000D+00  0.0000000000000D+00  0.0000000000000D+00
   344  3.4300000000000D+00  0.0000000000000D+00  0.0000000000000D+00
   345  3.4400000000000D+00  0.0000000000000D+00  0.0000000000000D+00
   346  3.4500000000000D+00  0.0000000000000D+00  0.0000000000000D+00
   347  3.4600000000000D+00  0.0000000000000D+00  0.0000000000000D+00
   348  3.4700000000000D+00  0.0000000000000D+00  0.0000000000000D+00
   349  3.4800000000000D+00  0.0000000000000D+00  0.0000000000000D+00
   350  3.4900000000000D+00  0.0000000000000D+00  0.0000000000000D+00
   351  3.5000000000000D+00  0.0000000000000D+00  0.0000000000000D+00
   352  3.5100000000000D+00  0.0000000000000D+00  0.0000000000000D+00
   353  3.5200000000000D+00  0.0000000000000D+00  0.0000000000000D+00
   354  3.5300000000000D+00  0.0000000000000D+00  0.0000000000000D+00
   355  3.5400000000000D+00  0.0000000000000D+00  0.0000000000000D+00
   356  3.5500000000000D+00  0.0000000000000D+00  0.0000000000000D+00
   357  3.5600000000000D+00  0.0000000000000D+00  0.0000000000000D+00
   358  3.5700000000000D+00  0.0000000000000D+00  0.0000000000000D+00
   359  3.5800000000000D+00  0.0000000000000D+00  0.0000000000000D+00
   360  3.5900000000000D+00  0.0000000000000D+00  0.0000000000000D+00
   361  3.6000000000000D+00  0.0000000000000D+00  0.0000000000000D+00
   362  3.6100000000000D+00  0.0000000000000D+00  0.0000000000000D+00
   363  3.6200000000000D+00  0.0000000000000D+00  0.0000000000000D+00
   364  3.6300000000000D+00  0.0000000000000D+00  0.0000000000000D+00
   365  3.6400000000000D+00  0.0000000000000D+00  0.0000000000000D+00
   366  3.6500000000000D+00  0.0000000000000D+00  0.0000000000000D+00
   367  3.6600000000000D+00  0.0000000000000D+00  0.0000000000000D+00
   368  3.6700000000000D+00  0.0000000000000D+00  0.0000000000000D+00
   369  3.6800000000000D+00  0.0000000000000D+00  0.0000000000000D+00
   370  3.6900000000000D+00  0.0000000000000D+00  0.0000000000000D+00
   371  3.7000000000000D+00  0.0000000000000D+00  0.0000000000000D+00
   372  3.7100000000000D+00  0.0000000000000D+00  0.0000000000000D+00
   373  3.7200000000000D+00  0.0000000000000D+00  0.0000000000000D+00
   374  3.7300000000000D+00  0.0000000000000D+00  0.0000000000000D+00
   375  3.7400000000000D+00  0.0000000000000D+00  0.0000000000000D+00
   376  3.7500000000000D+00  0.0000000000000D+00  0.0000000000000D+00
   377  3.7600000000000D+00  0.0000000000000D+00  0.0000000000000D+00
   378  3.7700000000000D+00  0.0000000000000D+00  0.0000000000000D+00
   379  3.7800000000000D+00  0.0000000000000D+00  0.0000000000000D+00
   380  3.7900000000000D+00  0.0000000000000D+00  0.0000000000000D+00
   381  3.8000000000000D+00  0.0000000000000D+00  0.0000000000000D+00
   382  3.8100000000000D+00  0.0000000000000D+00  0.0000000000000D+00
   383  3.8200000000000D+00  0.0000000000000D+00  0.0000000000000D+00
   384  3.8300000000000D+00  0.0000000000000D+00  0.0000000000000D+00
   385  3.8400000000000D+00  0.0000000000000D+00  0.0000000000000D+00
   386  3.8500000000000D+00  0.0000000000000D+00  0.0000000000000D+00
   387  3.8600000000000D+00  0.0000000000000D+00  0.0000000000000D+00
   388  3.8700000000000D+00  0.0000000000000D+00  0.0000000000000D+00
   389  3.8800000000000D+00  0.0000000000000D+00  0.0000000000000D+00
   390  3.8900000000000D+00  0.0000000000000D+00  0.0000000000000D+00
   391  3.9000000000000D+00  0.0000000000000D+00  0.0000000000000D+00
   392  3.9100000000000D+00  0.0000000000000D+00  0.0000000000000D+00
   393  3.9200000000000D+00  0.0000000000000D+00  0.0000000000000D+00
   394  3.9300000000000D+00  0.0000000000000D+00  0.0000000000000D+00
   395  3.9400000000000D+00  0.0000000000000D+00  0.0000000000000D+00
   396  3.9500000000000D+00  0.0000000000000D+00  0.0000000000000D+00
   397  3.9600000000000D+00  0.0000000000000D+00  0.0000000000000D+00
   398  3.9700000000000D+00  0.0000000000000D+00  0.0000000000000D+00
   399  3.9800000000000D+00  0.0000000000000D+00  0.0000000000000D+00
   400  3.9900000000000D+00  0.0000000000000D+00  0.0000000000000D+00
   401  4.0000000000000D+00  0.0000000000000D+00  0.0000000000000D+00
   402  4.0100000000000D+00  0.0000000000000D+00  0.0000000000000D+00
   403  4.0200000000000D+00  0.0000000000000D+00  0.0000000000000D+00
   404  4.0300000000000D+00  0.0000000000000D+00  0.0000000000000D+00
   405  4.0400000000000D+00  0.0000000000000D+00  0.0000000000000D+00
   406  4.0500000000000D+00  0.0000000000000D+00  0.0000000000000D+00
   407  4.0600000000000D+00  0.0000000000000D+00  0.0000000000000D+00
   408  4.0700000000000D+00  0.0000000000000D+00  0.0000000000000D+00
   409  4.0800000000000D+00  0.0000000000000D+00  0.0000000000000D+00
   410  4.0900000000000D+00  0.0000000000000D+00  0.0000000000000D+00
   411  4.1000000000000D+00  0.0000000000000D+00  0.0000000000000D+00
   412  4.1100000000000D+00  0.0000000000000D+00  0.0000000000000D+00
   413  4.1200000000000D+00  0.0000000000000D+00  0.0000000000000D+00
   414  4.1300000000000D+00  0.0000000000000D+00  0.0000000000000D+00
   415  4.1400000000000D+00  0.0000000000000D+00  0.0000000000000D+00
   416  4.1500000000000D+00  0.0000000000000D+00  0.0000000000000D+00
   417  4.1600000000000D+00  0.0000000000000D+00  0.0000000000000D+00
   418  4.1700000000000D+00  0.0000000000000D+00  0.0000000000000D+00
   419  4.1800000000000D+00  0.0000000000000D+00  0.0000000000000D+00
   420  4.1900000000000D+00  0.0000000000000D+00  0.0000000000000D+00
   421  4.2000000000000D+00  0.0000000000000D+00  0.0000000000000D+00
   422  4.2100000000000D+00  0.0000000000000D+00  0.0000000000000D+00