Co    ONCVPSP-3.3.1  r_core=   2.18438   2.08260   2.21059
     27.0000     17.0000      210904    zatom,zion,pspd
     8       2   2     4   600     0    pspcod,pspxc,lmax,lloc,mmax,r2well
  5.99000000  0.00000000  0.00000000    rchrg fchrg qchrg
     2     2     2     0     0    nproj
     1     1           extension_switch
   0                        -3.0805959400711D+00 -1.4276620073970D-01
     1  0.0000000000000D+00 -1.2584933095638D-12  1.0963452368173D-12
     2  1.0000000000000D-02  3.9077670506354D-02 -2.3774212522644D-02
     3  2.0000000000000D-02  7.8117087955321D-02 -4.7508471212461D-02
     4  3.0000000000000D-02  1.1708005405830D-01 -7.1162867674091D-02
     5  4.0000000000000D-02  1.5592847995744D-01 -9.4697584348494D-02
     6  5.0000000000000D-02  1.9462444067413D-01 -1.1807293983487D-01
     7  6.0000000000000D-02  2.3313022923829D-01 -1.4124943409787D-01
     8  7.0000000000000D-02  2.7140841039336D-01 -1.6418779352307D-01
     9  8.0000000000000D-02  3.0942187377342D-01 -1.8684901578497D-01
    10  9.0000000000000D-02  3.4713388645017D-01 -2.0919441449271D-01
    11  1.0000000000000D-01  3.8450814474983D-01 -2.3118566358069D-01
    12  1.1000000000000D-01  4.2150882524149D-01 -2.5278484141259D-01
    13  1.2000000000000D-01  4.5810063480158D-01 -2.7395447456947D-01
    14  1.3000000000000D-01  4.9424885966136D-01 -2.9465758129456D-01
    15  1.4000000000000D-01  5.2991941334742D-01 -3.1485771456960D-01
    16  1.5000000000000D-01  5.6507888342858D-01 -3.3451900479966D-01
    17  1.6000000000000D-01  5.9969457698557D-01 -3.5360620208599D-01
    18  1.7000000000000D-01  6.3373456472402D-01 -3.7208471806839D-01
    19  1.8000000000000D-01  6.6716772365468D-01 -3.8992066732123D-01
    20  1.9000000000000D-01  6.9996377826921D-01 -4.0708090828920D-01
    21  2.0000000000000D-01  7.3209334014353D-01 -4.2353308375121D-01
    22  2.1000000000000D-01  7.6352794590570D-01 -4.3924566080263D-01
    23  2.2000000000000D-01  7.9424009350907D-01 -4.5418797034811D-01
    24  2.3000000000000D-01  8.2420327675646D-01 -4.6833024609858D-01
    25  2.4000000000000D-01  8.5339201802552D-01 -4.8164366306750D-01
    26  2.5000000000000D-01  8.8178189915018D-01 -4.9410037556236D-01
    27  2.6000000000000D-01  9.0934959041771D-01 -5.0567355466829D-01
    28  2.7000000000000D-01  9.3607287764598D-01 -5.1633742522074D-01
    29  2.8000000000000D-01  9.6193068730979D-01 -5.2606730226453D-01
    30  2.9000000000000D-01  9.8690310969039D-01 -5.3483962699567D-01
    31  3.0000000000000D-01  1.0109714200266D+00 -5.4263200218176D-01
    32  3.1000000000000D-01  1.0341180976509D+00 -5.4942322705551D-01
    33  3.2000000000000D-01  1.0563268430983D+00 -5.5519333167365D-01
    34  3.3000000000000D-01  1.0775825931805D+00 -5.5992361073188D-01
    35  3.4000000000000D-01  1.0978715340217D+00 -5.6359665682310D-01
    36  3.5000000000000D-01  1.1171811120579D+00 -5.6619639312309D-01
    37  3.6000000000000D-01  1.1355000430039D+00 -5.6770810548453D-01
    38  3.7000000000000D-01  1.1528183187985D+00 -5.6811847391507D-01
    39  3.8000000000000D-01  1.1691272125400D+00 -5.6741560341132D-01
    40  3.9000000000000D-01  1.1844192814293D+00 -5.6558905411504D-01
    41  4.0000000000000D-01  1.1986883677410D+00 -5.6262987075242D-01
    42  4.1000000000000D-01  1.2119295978468D+00 -5.5853061131120D-01
    43  4.2000000000000D-01  1.2241393793165D+00 -5.5328537490438D-01
    44  4.3000000000000D-01  1.2353153961286D+00 -5.4688982876237D-01
    45  4.4000000000000D-01  1.2454566020216D+00 -5.3934123428846D-01
    46  4.5000000000000D-01  1.2545632120221D+00 -5.3063847210600D-01
    47  4.6000000000000D-01  1.2626366921865D+00 -5.2078206601742D-01
    48  4.7000000000000D-01  1.2696797475978D+00 -5.0977420578874D-01
    49  4.8000000000000D-01  1.2756963086569D+00 -4.9761876866520D-01
    50  4.9000000000000D-01  1.2806915157138D+00 -4.8432133951658D-01
    51  5.0000000000000D-01  1.2846717020836D+00 -4.6988922950318D-01
    52  5.1000000000000D-01  1.2876443754929D+00 -4.5433149314654D-01
    53  5.2000000000000D-01  1.2896181980051D+00 -4.3765894368192D-01
    54  5.3000000000000D-01  1.2906029644735D+00 -4.1988416656294D-01
    55  5.4000000000000D-01  1.2906095795715D+00 -4.0102153098264D-01
    56  5.5000000000000D-01  1.2896500334501D+00 -3.8108719926963D-01
    57  5.6000000000000D-01  1.2877373760743D+00 -3.6009913401242D-01
    58  5.7000000000000D-01  1.2848856902892D+00 -3.3807710276099D-01
    59  5.8000000000000D-01  1.2811100636676D+00 -3.1504268015041D-01
    60  5.9000000000000D-01  1.2764265591908D+00 -2.9101924728847D-01
    61  6.0000000000000D-01  1.2708521848150D+00 -2.6603198824712D-01
    62  6.1000000000000D-01  1.2644048619750D+00 -2.4010788349601D-01
    63  6.2000000000000D-01  1.2571033930763D+00 -2.1327570011664D-01
    64  6.3000000000000D-01  1.2489674280289D+00 -1.8556597863572D-01
    65  6.4000000000000D-01  1.2400174298726D+00 -1.5701101631903D-01
    66  6.5000000000000D-01  1.2302746395459D+00 -1.2764484676956D-01
    67  6.6000000000000D-01  1.2197610398503D+00 -9.7503215678167D-02
    68  6.7000000000000D-01  1.2084993186588D+00 -6.6623552580939D-02
    69  6.8000000000000D-01  1.1965128314207D+00 -3.5044938483594D-02
    70  6.9000000000000D-01  1.1838255630131D+00 -2.8080692219296D-03
    71  7.0000000000000D-01  1.1704620889870D+00  3.0044785563066D-02
    72  7.1000000000000D-01  1.1564475362607D+00  6.3469827946648D-02
    73  7.2000000000000D-01  1.1418075433079D+00  9.7421781836512D-02
    74  7.3000000000000D-01  1.1265682198913D+00  1.3185394776892D-01
    75  7.4000000000000D-01  1.1107561063905D+00  1.6671826245508D-01
    76  7.5000000000000D-01  1.0943981327740D+00  2.0196536313164D-01
    77  7.6000000000000D-01  1.0775215772651D+00  2.3754465675224D-01
    78  7.7000000000000D-01  1.0601540247513D+00  2.7340439403803D-01
    79  7.8000000000000D-01  1.0423233249866D+00  3.0949174838563D-01
    80  7.9000000000000D-01  1.0240575506382D+00  3.4575289961015D-01
    81  8.0000000000000D-01  1.0053849552272D+00  3.8213312247900D-01
    82  8.1000000000000D-01  9.8633393101514D-01  4.1857687996941D-01
    83  8.2000000000000D-01  9.6693296688710D-01  4.5502792115949D-01
    84  8.3000000000000D-01  9.4721060628524D-01  4.9142938363768D-01
    85  8.4000000000000D-01  9.2719540524408D-01  5.2772390029138D-01
    86  8.5000000000000D-01  9.0691589058203D-01  5.6385371030953D-01
    87  8.6000000000000D-01  8.8640051830348D-01  5.9976077420884D-01
    88  8.7000000000000D-01  8.6567763226655D-01  6.3538689266692D-01
    89  8.8000000000000D-01  8.4477542317270D-01  6.7067382892010D-01
    90  8.9000000000000D-01  8.2372188793501D-01  7.0556343445754D-01
    91  9.0000000000000D-01  8.0254478948306D-01  7.3999777771784D-01
    92  9.1000000000000D-01  7.8127161706293D-01  7.7391927546882D-01
    93  9.2000000000000D-01  7.5992954709186D-01  8.0727082652687D-01
    94  9.3000000000000D-01  7.3854540462792D-01  8.3999594744783D-01
    95  9.4000000000000D-01  7.1714562551562D-01  8.7203890979878D-01
    96  9.5000000000000D-01  6.9575621926919D-01  9.0334487859764D-01
    97  9.6000000000000D-01  6.7440273275595D-01  9.3386005148705D-01
    98  9.7000000000000D-01  6.5311021474243D-01  9.6353179818921D-01
    99  9.8000000000000D-01  6.3190318136657D-01  9.9230879977056D-01
   100  9.9000000000000D-01  6.1080558259934D-01  1.0201411872293D+00
   101  1.0000000000000D+00  5.8984076975937D-01  1.0469806789039D+00
   102  1.0100000000000D+00  5.6903146414413D-01  1.0727807161883D+00
   103  1.0200000000000D+00  5.4839972684070D-01  1.0974965970298D+00
   104  1.0300000000000D+00  5.2796692977919D-01  1.1210856066775D+00
   105  1.0400000000000D+00  5.0775372809065D-01  1.1435071451421D+00
   106  1.0500000000000D+00  4.8778003383094D-01  1.1647228508275D+00
   107  1.0600000000000D+00  4.6806499113064D-01  1.1846967197912D+00
   108  1.0700000000000D+00  4.4862695282967D-01  1.2033952200942D+00
   109  1.0800000000000D+00  4.2948345865393D-01  1.2207874007059D+00
   110  1.0900000000000D+00  4.1065121498912D-01  1.2368449944348D+00
   111  1.1000000000000D+00  3.9214607630479D-01  1.2515425143724D+00
   112  1.1100000000000D+00  3.7398302827942D-01  1.2648573433409D+00
   113  1.1200000000000D+00  3.5617617267438D-01  1.2767698158622D+00
   114  1.1300000000000D+00  3.3873871400170D-01  1.2872632921773D+00
   115  1.1400000000000D+00  3.2168294802689D-01  1.2963242238726D+00
   116  1.1500000000000D+00  3.0502025214567D-01  1.3039422106870D+00
   117  1.1600000000000D+00  2.8876107766798D-01  1.3101100481096D+00
   118  1.1700000000000D+00  2.7291494403963D-01  1.3148237654031D+00
   119  1.1800000000000D+00  2.5749043502668D-01  1.3180826537245D+00
   120  1.1900000000000D+00  2.4249519688465D-01  1.3198892840413D+00
   121  1.2000000000000D+00  2.2793593852734D-01  1.3202495145904D+00
   122  1.2100000000000D+00  2.1381843370620D-01  1.3191724876661D+00
   123  1.2200000000000D+00  2.0014752520661D-01  1.3166706155513D+00
   124  1.2300000000000D+00  1.8692713106042D-01  1.3127595554665D+00
   125  1.2400000000000D+00  1.7416025276832D-01  1.3074581734544D+00
   126  1.2500000000000D+00  1.6184898552079D-01  1.3007884971578D+00
   127  1.2600000000000D+00  1.4999453040074D-01  1.2927756574945D+00
   128  1.2700000000000D+00  1.3859720854169D-01  1.2834478193044D+00
   129  1.2800000000000D+00  1.2765647721227D-01  1.2728361010734D+00
   130  1.2900000000000D+00  1.1717094779208D-01  1.2609744838811D+00
   131  1.3000000000000D+00  1.0713840559257D-01  1.2478997098151D+00
   132  1.3100000000000D+00  9.7555831475824D-02  1.2336511700987D+00
   133  1.3200000000000D+00  8.8419425216915D-02  1.2182707832388D+00
   134  1.3300000000000D+00  7.9724630543497D-02  1.2018028635989D+00
   135  1.3400000000000D+00  7.1466161789206D-02  1.1842939807779D+00
   136  1.3500000000000D+00  6.3638032085526D-02  1.1657928102720D+00
   137  1.3600000000000D+00  5.6233583008029D-02  1.1463499759720D+00
   138  1.3700000000000D+00  4.9245515599088D-02  1.1260178849918D+00
   139  1.3800000000000D+00  4.2665922668768D-02  1.1048505554968D+00
   140  1.3900000000000D+00  3.6486322279713D-02  1.0829034381634D+00
   141  1.4000000000000D+00  3.0697692318317D-02  1.0602332319298D+00
   142  1.4100000000000D+00  2.5290506038744D-02  1.0368976948290D+00
   143  1.4200000000000D+00  2.0254768477461D-02  1.0129554506023D+00
   144  1.4300000000000D+00  1.5580053618765D-02  9.8846579193137D-01
   145  1.4400000000000D+00  1.1255542194677D-02  9.6348848110476D-01
   146  1.4500000000000D+00  7.2700600015656D-03  9.3808354894213D-01
   147  1.4600000000000D+00  3.6121166044841D-03  9.1231109289121D-01
   148  1.4700000000000D+00  2.6994430988859D-04  8.8623107513480D-01
   149  1.4800000000000D+00 -2.7684627257180D-03  8.5990312165036D-01
   150  1.4900000000000D+00 -5.5153093757180D-03  8.3338632310057D-01
   151  1.5000000000000D+00 -7.9829605439278D-03  8.0673903849409D-01
   152  1.5100000000000D+00 -1.0183902411216D-02  7.8001870250068D-01
   153  1.5200000000000D+00 -1.2130704062251D-02  7.5328163737702D-01
   154  1.5300000000000D+00 -1.3835979612068D-02  7.2658287033851D-01
   155  1.5400000000000D+00 -1.5312350968514D-02  6.9997595734921D-01
   156  1.5500000000000D+00 -1.6572411343947D-02  6.7351281411327D-01
   157  1.5600000000000D+00 -1.7628689646471D-02  6.4724355519148D-01
   158  1.5700000000000D+00 -1.8493615863234D-02  6.2121634201955D-01
   159  1.5800000000000D+00 -1.9179487550270D-02  5.9547724062141D-01
   160  1.5900000000000D+00 -1.9698437545575D-02  5.7007008982831D-01
   161  1.6000000000000D+00 -2.0062402995348D-02  5.4503638059620D-01
   162  1.6100000000000D+00 -2.0283095818300D-02  5.2041514729865D-01
   163  1.6200000000000D+00 -2.0371974665941D-02  4.9624287132760D-01
   164  1.6300000000000D+00 -2.0340218514723D-02  4.7255339796720D-01
   165  1.6400000000000D+00 -2.0198701910284D-02  4.4937786656873D-01
   166  1.6500000000000D+00 -1.9957972011814D-02  4.2674465508823D-01
   167  1.6600000000000D+00 -1.9628227415606D-02  4.0467933868397D-01
   168  1.6700000000000D+00 -1.9219298917328D-02  3.8320466352568D-01
   169  1.6800000000000D+00 -1.8740632149752D-02  3.6234053517444D-01
   170  1.6900000000000D+00 -1.8201272264442D-02  3.4210402275375D-01
   171  1.7000000000000D+00 -1.7609850553298D-02  3.2250937794688D-01
   172  1.7100000000000D+00 -1.6974573182644D-02  3.0356807006973D-01
   173  1.7200000000000D+00 -1.6303211899454D-02  2.8528883596921D-01
   174  1.7300000000000D+00 -1.5603096879253D-02  2.6767774596566D-01
   175  1.7400000000000D+00 -1.4881111546918D-02  2.5073828436945D-01
   176  1.7500000000000D+00 -1.4143689526553D-02  2.3447144567738D-01
   177  1.7600000000000D+00 -1.3396813534975D-02  2.1887584485448D-01
   178  1.7700000000000D+00 -1.2646016348330D-02  2.0394784258794D-01
   179  1.7800000000000D+00 -1.1896383655040D-02  1.8968168391689D-01
   180  1.7900000000000D+00 -1.1152558882105D-02  1.7606965078251D-01
   181  1.8000000000000D+00 -1.0418749824586D-02  1.6310222704094D-01
   182  1.8100000000000D+00 -9.6987371061035D-03  1.5076827601386D-01
   183  1.8200000000000D+00 -8.9958843349130D-03  1.3905522939647D-01
   184  1.8300000000000D+00 -8.3131499098816D-03  1.2794928702429D-01
   185  1.8400000000000D+00 -7.6531003898942D-03  1.1743562669778D-01
   186  1.8500000000000D+00 -7.0179253003222D-03  1.0749862295196D-01
   187  1.8600000000000D+00 -6.4094533438373D-03  9.8122074369982D-02
   188  1.8700000000000D+00 -5.8291698148505D-03  8.9289437785423D-02
   189  1.8800000000000D+00 -5.2782353617583D-03  8.0984079079445D-02
   190  1.8900000000000D+00 -4.7575049688509D-03  7.3189474844544D-02
   191  1.9000000000000D+00 -4.2675502862933D-03  6.5889588327446D-02
   192  1.9100000000000D+00 -3.8086772347395D-03  5.9068861626618D-02
   193  1.9200000000000D+00 -3.3809498604170D-03  5.2712596518956D-02
   194  1.9300000000000D+00 -2.9842191898539D-03  4.6807667217411D-02
   195  1.9400000000000D+00 -2.6181426507346D-03  4.1342527614542D-02
   196  1.9500000000000D+00 -2.2821873944012D-03  3.6306031072418D-02
   197  1.9600000000000D+00 -1.9756410583519D-03  3.1686759039536D-02
   198  1.9700000000000D+00 -1.6976232498474D-03  2.7472519736817D-02
   199  1.9800000000000D+00 -1.4470846692284D-03  2.3648922211627D-02
   200  1.9900000000000D+00 -1.2228327140546D-03  2.0199878824245D-02
   201  2.0000000000000D+00 -1.0235564663459D-03  1.7108097362411D-02
   202  2.0100000000000D+00 -8.4784853336270D-04  1.4355362445106D-02
   203  2.0200000000000D+00 -6.9422222052397D-04  1.1922490820412D-02
   204  2.0300000000000D+00 -5.6113317757324D-04  9.7896558121690D-03
   205  2.0400000000000D+00 -4.4699767921719D-04  7.9365153804459D-03
   206  2.0500000000000D+00 -3.5021112621261D-04  6.3423979557264D-03
   207  2.0600000000000D+00 -2.6916536413910D-04  4.9864659824411D-03
   208  2.0700000000000D+00 -2.0226501223717D-04  3.8478695961249D-03
   209  2.0800000000000D+00 -1.4794279086907D-04  2.9058903651902D-03
   210  2.0900000000000D+00 -1.0467347917449D-04  2.1400718574906D-03
   211  2.1000000000000D+00 -7.0986856398853D-05  1.5303401831520D-03
   212  2.1100000000000D+00 -4.5476128518461D-05  1.0571199538064D-03
   213  2.1200000000000D+00 -2.6812067014753D-05  7.0141496197393D-04
   214  2.1300000000000D+00 -1.3772270446472D-05  4.4482270430827D-04
   215  2.1400000000000D+00 -5.2503815599330D-06  2.6916257764428D-04
   216  2.1500000000000D+00 -9.4311463489095D-08  1.5868174991509D-04
   217  2.1600000000000D+00  2.7515488905050D-06  9.8684802828481D-05
   218  2.1700000000000D+00  4.1427065022311D-06  7.4765376822128D-05
   219  2.1800000000000D+00  4.2738062585375D-06  6.4341611766575D-05
   220  2.1900000000000D+00  3.2300085199804D-06  4.8181752204074D-05
   221  2.2000000000000D+00  1.5506526758082D-06  2.3734219801666D-05
   222  2.2100000000000D+00  6.8360958736607D-08  1.0871140851178D-06
   223  2.2200000000000D+00 -4.1592228321533D-07 -5.9392924145332D-06
   224  2.2300000000000D+00 -2.6890715831242D-07 -3.8616050489144D-06
   225  2.2400000000000D+00  4.0157790779825D-08  5.2660860079146D-07
   226  2.2500000000000D+00  9.9786844026718D-08  1.2985265720154D-06
   227  2.2600000000000D+00  4.0447796862508D-08  5.2306418187303D-07
   228  2.2700000000000D+00 -7.9633421461234D-09 -1.1914607077464D-07
   229  2.2800000000000D+00 -1.0603223391968D-08 -1.5864349183008D-07
   230  2.2900000000000D+00 -1.3901457602022D-09 -2.0799106969521D-08
   231  2.3000000000000D+00  0.0000000000000D+00  0.0000000000000D+00
   232  2.3100000000000D+00  0.0000000000000D+00  0.0000000000000D+00
   233  2.3200000000000D+00  0.0000000000000D+00  0.0000000000000D+00
   234  2.3300000000000D+00  0.0000000000000D+00  0.0000000000000D+00
   235  2.3400000000000D+00  0.0000000000000D+00  0.0000000000000D+00
   236  2.3500000000000D+00  0.0000000000000D+00  0.0000000000000D+00
   237  2.3600000000000D+00  0.0000000000000D+00  0.0000000000000D+00
   238  2.3700000000000D+00  0.0000000000000D+00  0.0000000000000D+00
   239  2.3800000000000D+00  0.0000000000000D+00  0.0000000000000D+00
   240  2.3900000000000D+00  0.0000000000000D+00  0.0000000000000D+00
   241  2.4000000000000D+00  0.0000000000000D+00  0.0000000000000D+00
   242  2.4100000000000D+00  0.0000000000000D+00  0.0000000000000D+00
   243  2.4200000000000D+00  0.0000000000000D+00  0.0000000000000D+00
   244  2.4300000000000D+00  0.0000000000000D+00  0.0000000000000D+00
   245  2.4400000000000D+00  0.0000000000000D+00  0.0000000000000D+00
   246  2.4500000000000D+00  0.0000000000000D+00  0.0000000000000D+00
   247  2.4600000000000D+00  0.0000000000000D+00  0.0000000000000D+00
   248  2.4700000000000D+00  0.0000000000000D+00  0.0000000000000D+00
   249  2.4800000000000D+00  0.0000000000000D+00  0.0000000000000D+00
   250  2.4900000000000D+00  0.0000000000000D+00  0.0000000000000D+00
   251  2.5000000000000D+00  0.0000000000000D+00  0.0000000000000D+00
   252  2.5100000000000D+00  0.0000000000000D+00  0.0000000000000D+00
   253  2.5200000000000D+00  0.0000000000000D+00  0.0000000000000D+00
   254  2.5300000000000D+00  0.0000000000000D+00  0.0000000000000D+00
   255  2.5400000000000D+00  0.0000000000000D+00  0.0000000000000D+00
   256  2.5500000000000D+00  0.0000000000000D+00  0.0000000000000D+00
   257  2.5600000000000D+00  0.0000000000000D+00  0.0000000000000D+00
   258  2.5700000000000D+00  0.0000000000000D+00  0.0000000000000D+00
   259  2.5800000000000D+00  0.0000000000000D+00  0.0000000000000D+00
   260  2.5900000000000D+00  0.0000000000000D+00  0.0000000000000D+00
   261  2.6000000000000D+00  0.0000000000000D+00  0.0000000000000D+00
   262  2.6100000000000D+00  0.0000000000000D+00  0.0000000000000D+00
   263  2.6200000000000D+00  0.0000000000000D+00  0.0000000000000D+00
   264  2.6300000000000D+00  0.0000000000000D+00  0.0000000000000D+00
   265  2.6400000000000D+00  0.0000000000000D+00  0.0000000000000D+00
   266  2.6500000000000D+00  0.0000000000000D+00  0.0000000000000D+00
   267  2.6600000000000D+00  0.0000000000000D+00  0.0000000000000D+00
   268  2.6700000000000D+00  0.0000000000000D+00  0.0000000000000D+00
   269  2.6800000000000D+00  0.0000000000000D+00  0.0000000000000D+00
   270  2.6900000000000D+00  0.0000000000000D+00  0.0000000000000D+00
   271  2.7000000000000D+00  0.0000000000000D+00  0.0000000000000D+00
   272  2.7100000000000D+00  0.0000000000000D+00  0.0000000000000D+00
   273  2.7200000000000D+00  0.0000000000000D+00  0.0000000000000D+00
   274  2.7300000000000D+00  0.0000000000000D+00  0.0000000000000D+00
   275  2.7400000000000D+00  0.0000000000000D+00  0.0000000000000D+00
   276  2.7500000000000D+00  0.0000000000000D+00  0.0000000000000D+00
   277  2.7600000000000D+00  0.0000000000000D+00  0.0000000000000D+00
   278  2.7700000000000D+00  0.0000000000000D+00  0.0000000000000D+00
   279  2.7800000000000D+00  0.0000000000000D+00  0.0000000000000D+00
   280  2.7900000000000D+00  0.0000000000000D+00  0.0000000000000D+00
   281  2.8000000000000D+00  0.0000000000000D+00  0.0000000000000D+00
   282  2.8100000000000D+00  0.0000000000000D+00  0.0000000000000D+00
   283  2.8200000000000D+00  0.0000000000000D+00  0.0000000000000D+00
   284  2.8300000000000D+00  0.0000000000000D+00  0.0000000000000D+00
   285  2.8400000000000D+00  0.0000000000000D+00  0.0000000000000D+00
   286  2.8500000000000D+00  0.0000000000000D+00  0.0000000000000D+00
   287  2.8600000000000D+00  0.0000000000000D+00  0.0000000000000D+00
   288  2.8700000000000D+00  0.0000000000000D+00  0.0000000000000D+00
   289  2.8800000000000D+00  0.0000000000000D+00  0.0000000000000D+00
   290  2.8900000000000D+00  0.0000000000000D+00  0.0000000000000D+00
   291  2.9000000000000D+00  0.0000000000000D+00  0.0000000000000D+00
   292  2.9100000000000D+00  0.0000000000000D+00  0.0000000000000D+00
   293  2.9200000000000D+00  0.0000000000000D+00  0.0000000000000D+00
   294  2.9300000000000D+00  0.0000000000000D+00  0.0000000000000D+00
   295  2.9400000000000D+00  0.0000000000000D+00  0.0000000000000D+00
   296  2.9500000000000D+00  0.0000000000000D+00  0.0000000000000D+00
   297  2.9600000000000D+00  0.0000000000000D+00  0.0000000000000D+00
   298  2.9700000000000D+00  0.0000000000000D+00  0.0000000000000D+00
   299  2.9800000000000D+00  0.0000000000000D+00  0.0000000000000D+00
   300  2.9900000000000D+00  0.0000000000000D+00  0.0000000000000D+00
   301  3.0000000000000D+00  0.0000000000000D+00  0.0000000000000D+00
   302  3.0100000000000D+00  0.0000000000000D+00  0.0000000000000D+00
   303  3.0200000000000D+00  0.0000000000000D+00  0.0000000000000D+00
   304  3.0300000000000D+00  0.0000000000000D+00  0.0000000000000D+00
   305  3.0400000000000D+00  0.0000000000000D+00  0.0000000000000D+00
   306  3.0500000000000D+00  0.0000000000000D+00  0.0000000000000D+00
   307  3.0600000000000D+00  0.0000000000000D+00  0.0000000000000D+00
   308  3.0700000000000D+00  0.0000000000000D+00  0.0000000000000D+00
   309  3.0800000000000D+00  0.0000000000000D+00  0.0000000000000D+00
   310  3.0900000000000D+00  0.0000000000000D+00  0.0000000000000D+00
   311  3.1000000000000D+00  0.0000000000000D+00  0.0000000000000D+00
   312  3.1100000000000D+00  0.0000000000000D+00  0.0000000000000D+00
   313  3.1200000000000D+00  0.0000000000000D+00  0.0000000000000D+00
   314  3.1300000000000D+00  0.0000000000000D+00  0.0000000000000D+00
   315  3.1400000000000D+00  0.0000000000000D+00  0.0000000000000D+00
   316  3.1500000000000D+00  0.0000000000000D+00  0.0000000000000D+00
   317  3.1600000000000D+00  0.0000000000000D+00  0.0000000000000D+00
   318  3.1700000000000D+00  0.0000000000000D+00  0.0000000000000D+00
   319  3.1800000000000D+00  0.0000000000000D+00  0.0000000000000D+00
   320  3.1900000000000D+00  0.0000000000000D+00  0.0000000000000D+00
   321  3.2000000000000D+00  0.0000000000000D+00  0.0000000000000D+00
   322  3.2100000000000D+00  0.0000000000000D+00  0.0000000000000D+00
   323  3.2200000000000D+00  0.0000000000000D+00  0.0000000000000D+00
   324  3.2300000000000D+00  0.0000000000000D+00  0.0000000000000D+00
   325  3.2400000000000D+00  0.0000000000000D+00  0.0000000000000D+00
   326  3.2500000000000D+00  0.0000000000000D+00  0.0000000000000D+00
   327  3.2600000000000D+00  0.0000000000000D+00  0.0000000000000D+00
   328  3.2700000000000D+00  0.0000000000000D+00  0.0000000000000D+00
   329  3.2800000000000D+00  0.0000000000000D+00  0.0000000000000D+00
   330  3.2900000000000D+00  0.0000000000000D+00  0.0000000000000D+00
   331  3.3000000000000D+00  0.0000000000000D+00  0.0000000000000D+00
   332  3.3100000000000D+00  0.0000000000000D+00  0.0000000000000D+00
   333  3.3200000000000D+00  0.0000000000000D+00  0.0000000000000D+00
   334  3.3300000000000D+00  0.0000000000000D+00  0.0000000000000D+00
   335  3.3400000000000D+00  0.0000000000000D+00  0.0000000000000D+00
   336  3.3500000000000D+00  0.0000000000000D+00  0.0000000000000D+00
   337  3.3600000000000D+00  0.0000000000000D+00  0.0000000000000D+00
   338  3.3700000000000D+00  0.0000000000000D+00  0.0000000000000D+00
   339  3.3800000000000D+00  0.0000000000000D+00  0.0000000000000D+00
   340  3.3900000000000D+00  0.0000000000000D+00  0.0000000000000D+00
   341  3.4000000000000D+00  0.0000000000000D+00  0.0000000000000D+00
   342  3.4100000000000D+00  0.0000000000000D+00  0.0000000000000D+00
   343  3.4200000000000D+00  0.0000000000000D+00  0.0000000000000D+00
   344  3.4300000000000D+00  0.0000000000000D+00  0.0000000000000D+00
   345  3.4400000000000D+00  0.0000000000000D+00  0.0000000000000D+00
   346  3.4500000000000D+00  0.0000000000000D+00  0.0000000000000D+00
   347  3.4600000000000D+00  0.0000000000000D+00  0.0000000000000D+00
   348  3.4700000000000D+00  0.0000000000000D+00  0.0000000000000D+00
   349  3.4800000000000D+00  0.0000000000000D+00  0.0000000000000D+00
   350  3.4900000000000D+00  0.0000000000000D+00  0.0000000000000D+00
   351  3.5000000000000D+00  0.0000000000000D+00  0.0000000000000D+00
   352  3.5100000000000D+00  0.0000000000000D+00  0.0000000000000D+00
   353  3.5200000000000D+00  0.0000000000000D+00  0.0000000000000D+00
   354  3.5300000000000D+00  0.0000000000000D+00  0.0000000000000D+00
   355  3.5400000000000D+00  0.0000000000000D+00  0.0000000000000D+00
   356  3.5500000000000D+00  0.0000000000000D+00  0.0000000000000D+00
   357  3.5600000000000D+00  0.0000000000000D+00  0.0000000000000D+00
   358  3.5700000000000D+00  0.0000000000000D+00  0.0000000000000D+00
   359  3.5800000000000D+00  0.0000000000000D+00  0.0000000000000D+00
   360  3.5900000000000D+00  0.0000000000000D+00  0.0000000000000D+00
   361  3.6000000000000D+00  0.0000000000000D+00  0.0000000000000D+00
   362  3.6100000000000D+00  0.0000000000000D+00  0.0000000000000D+00
   363  3.6200000000000D+00  0.0000000000000D+00  0.0000000000000D+00
   364  3.6300000000000D+00  0.0000000000000D+00  0.0000000000000D+00
   365  3.6400000000000D+00  0.0000000000000D+00  0.0000000000000D+00
   366  3.6500000000000D+00  0.0000000000000D+00  0.0000000000000D+00
   367  3.6600000000000D+00  0.0000000000000D+00  0.0000000000000D+00
   368  3.6700000000000D+00  0.0000000000000D+00  0.0000000000000D+00
   369  3.6800000000000D+00  0.0000000000000D+00  0.0000000000000D+00
   370  3.6900000000000D+00  0.0000000000000D+00  0.0000000000000D+00
   371  3.7000000000000D+00  0.0000000000000D+00  0.0000000000000D+00
   372  3.7100000000000D+00  0.0000000000000D+00  0.0000000000000D+00
   373  3.7200000000000D+00  0.0000000000000D+00  0.0000000000000D+00
   374  3.7300000000000D+00  0.0000000000000D+00  0.0000000000000D+00
   375  3.7400000000000D+00  0.0000000000000D+00  0.0000000000000D+00
   376  3.7500000000000D+00  0.0000000000000D+00  0.0000000000000D+00
   377  3.7600000000000D+00  0.0000000000000D+00  0.0000000000000D+00
   378  3.7700000000000D+00  0.0000000000000D+00  0.0000000000000D+00
   379  3.7800000000000D+00  0.0000000000000D+00  0.0000000000000D+00
   380  3.7900000000000D+00  0.0000000000000D+00  0.0000000000000D+00
   381  3.8000000000000D+00  0.0000000000000D+00  0.0000000000000D+00
   382  3.8100000000000D+00  0.0000000000000D+00  0.0000000000000D+00
   383  3.8200000000000D+00  0.0000000000000D+00  0.0000000000000D+00
   384  3.8300000000000D+00  0.0000000000000D+00  0.0000000000000D+00
   385  3.8400000000000D+00  0.0000000000000D+00  0.0000000000000D+00
   386  3.8500000000000D+00  0.0000000000000D+00  0.0000000000000D+00
   387  3.8600000000000D+00  0.0000000000000D+00  0.0000000000000D+00
   388  3.8700000000000D+00  0.0000000000000D+00  0.0000000000000D+00
   389  3.8800000000000D+00  0.0000000000000D+00  0.0000000000000D+00
   390  3.8900000000000D+00  0.0000000000000D+00  0.0000000000000D+00
   391  3.9000000000000D+00  0.0000000000000D+00  0.0000000000000D+00
   392  3.9100000000000D+00  0.0000000000000D+00  0.0000000000000D+00
   393  3.9200000000000D+00  0.0000000000000D+00  0.0000000000000D+00
   394  3.9300000000000D+00  0.0000000000000D+00  0.0000000000000D+00
   395  3.9400000000000D+00  0.0000000000000D+00  0.0000000000000D+00
   396  3.9500000000000D+00  0.0000000000000D+00  0.0000000000000D+00
   397  3.9600000000000D+00  0.0000000000000D+00  0.0000000000000D+00
   398  3.9700000000000D+00  0.0000000000000D+00  0.0000000000000D+00
   399  3.9800000000000D+00  0.0000000000000D+00  0.0000000000000D+00
   400  3.9900000000000D+00  0.0000000000000D+00  0.0000000000000D+00
   401  4.0000000000000D+00  0.0000000000000D+00  0.0000000000000D+00
   402  4.0100000000000D+00  0.0000000000000D+00  0.0000000000000D+00
   403  4.0200000000000D+00  0.0000000000000D+00  0.0000000000000D+00
   404  4.0300000000000D+00  0.0000000000000D+00  0.0000000000000D+00
   405  4.0400000000000D+00  0.0000000000000D+00  0.0000000000000D+00
   406  4.0500000000000D+00  0.0000000000000D+00  0.0000000000000D+00
   407  4.0600000000000D+00  0.0000000000000D+00  0.0000000000000D+00
   408  4.0700000000000D+00  0.0000000000000D+00  0.0000000000000D+00
   409  4.0800000000000D+00  0.0000000000000D+00  0.0000000000000D+00
   410  4.0900000000000D+00  0.0000000000000D+00  0.0000000000000D+00
   411  4.1000000000000D+00  0.0000000000000D+00  0.0000000000000D+00
   412  4.1100000000000D+00  0.0000000000000D+00  0.0000000000000D+00
   413  4.1200000000000D+00  0.0000000000000D+00  0.0000000000000D+00
   414  4.1300000000000D+00  0.0000000000000D+00  0.0000000000000D+00
   415  4.1400000000000D+00  0.0000000000000D+00  0.0000000000000D+00
   416  4.1500000000000D+00  0.0000000000000D+00  0.0000000000000D+00
   417  4.1600000000000D+00  0.0000000000000D+00  0.0000000000000D+00
   418  4.1700000000000D+00  0.0000000000000D+00  0.0000000000000D+00
   419  4.1800000000000D+00  0.0000000000000D+00  0.0000000000000D+00
   420  4.1900000000000D+00  0.0000000000000D+00  0.0000000000000D+00
   421  4.2000000000000D+00  0.0000000000000D+00  0.0000000000000D+00
   422  4.2100000000000D+00  0.0000000000000D+00  0.0000000000000D+00