Cs    ONCVPSP-3.3.1  r_core=   2.56157   2.32843   2.19361
     55.0000      9.0000      210904    zatom,zion,pspd
     8       2   2     4   600     0    pspcod,pspxc,lmax,lloc,mmax,r2well
  5.99000000  0.00000000  0.00000000    rchrg fchrg qchrg
     2     2     2     0     0    nproj
     1     1           extension_switch
   0                         6.3104219341218D+00  8.3903695715908D-01
     1  0.0000000000000D+00  3.6821379278962D-12 -1.1373402220016D-11
     2  1.0000000000000D-02  2.1150660533974D-02  4.2108973288466D-03
     3  2.0000000000000D-02  4.2311566995884D-02  8.3742594653966D-03
     4  3.0000000000000D-02  6.3492881281794D-02  1.2442787812025D-02
     5  4.0000000000000D-02  8.4704597531831D-02  1.6369656059997D-02
     6  5.0000000000000D-02  1.0595645902083D-01  2.0108744085654D-02
     7  6.0000000000000D-02  1.2725787596870D-01  2.3614869156686D-02
     8  7.0000000000000D-02  1.4861784457278D-01  2.6844013565173D-02
     9  8.0000000000000D-02  1.7004486756075D-01  2.9753547815487D-02
    10  9.0000000000000D-02  1.9154687655812D-01  3.2302448509286D-02
    11  1.0000000000000D-01  2.1313115655859D-01  3.4451510086841D-02
    12  1.1000000000000D-01  2.3480427277970D-01  3.6163549603585D-02
    13  1.2000000000000D-01  2.5657200017824D-01  3.7403603743220D-02
    14  1.3000000000000D-01  2.7843925589243D-01  3.8139117293674D-02
    15  1.4000000000000D-01  3.0041003486849D-01  3.8340122339933D-02
    16  1.5000000000000D-01  3.2248734891973D-01  3.7979407457824D-02
    17  1.6000000000000D-01  3.4467316945552D-01  3.7032676225516D-02
    18  1.7000000000000D-01  3.6696837410627D-01  3.5478694404516D-02
    19  1.8000000000000D-01  3.8937269745853D-01  3.3299425179193D-02
    20  1.9000000000000D-01  4.1188468610134D-01  3.0480151883492D-02
    21  2.0000000000000D-01  4.3450165817170D-01  2.7009587685043D-02
    22  2.1000000000000D-01  4.5721966757266D-01  2.2879971740727D-02
    23  2.2000000000000D-01  4.8003347302297D-01  1.8087151383114D-02
    24  2.3000000000000D-01  5.0293651208173D-01  1.2630649944850D-02
    25  2.4000000000000D-01  5.2592088027579D-01  6.5137198768745D-03
    26  2.5000000000000D-01  5.4897731544090D-01 -2.5661913274478D-04
    27  2.6000000000000D-01  5.7209518737128D-01 -7.6695572809360D-03
    28  2.7000000000000D-01  5.9526249285451D-01 -1.5710487200612D-02
    29  2.8000000000000D-01  6.1846585615130D-01 -2.4361012074340D-02
    30  2.9000000000000D-01  6.4169053496169D-01 -3.3598969389021D-02
    31  3.0000000000000D-01  6.6492043190092D-01 -4.3398470353862D-02
    32  3.1000000000000D-01  6.8813811148984D-01 -5.3729954947083D-02
    33  3.2000000000000D-01  7.1132482264618D-01 -6.4560262499828D-02
    34  3.3000000000000D-01  7.3446052664408D-01 -7.5852717667967D-02
    35  3.4000000000000D-01  7.5752393049076D-01 -8.7567231585378D-02
    36  3.5000000000000D-01  7.8049252565026D-01 -9.9660417934641D-02
    37  3.6000000000000D-01  8.0334263202557D-01 -1.1208572361401D-01
    38  3.7000000000000D-01  8.2604944709188D-01 -1.2479357362315D-01
    39  3.8000000000000D-01  8.4858710005534D-01 -1.3773152973415D-01
    40  3.9000000000000D-01  8.7092871089338D-01 -1.5084446245947D-01
    41  4.0000000000000D-01  8.9304645411513D-01 -1.6407473577471D-01
    42  4.1000000000000D-01  9.1491162706279D-01 -1.7736240400162D-01
    43  4.2000000000000D-01  9.3649472255773D-01 -1.9064542020601D-01
    44  4.3000000000000D-01  9.5776550567879D-01 -2.0385985541587D-01
    45  4.4000000000000D-01  9.7869309444416D-01 -2.1694012791818D-01
    46  4.5000000000000D-01  9.9924604415273D-01 -2.2981924184745D-01
    47  4.6000000000000D-01  1.0193924351263D+00 -2.4242903423703D-01
    48  4.7000000000000D-01  1.0390999635801D+00 -2.5470042966334D-01
    49  4.8000000000000D-01  1.0583360353359D+00 -2.6656370157675D-01
    50  4.9000000000000D-01  1.0770678620790D+00 -2.7794873937781D-01
    51  5.0000000000000D-01  1.0952625598510D+00 -2.8878532026662D-01
    52  5.1000000000000D-01  1.1128872494573D+00 -2.9900338486501D-01
    53  5.2000000000000D-01  1.1299091584593D+00 -3.0853331558686D-01
    54  5.3000000000000D-01  1.1462957244166D+00 -3.1730621671080D-01
    55  5.4000000000000D-01  1.1620146990297D+00 -3.2525419509248D-01
    56  5.5000000000000D-01  1.1770342528364D+00 -3.3231064044016D-01
    57  5.6000000000000D-01  1.1913230801023D+00 -3.3841050406839D-01
    58  5.7000000000000D-01  1.2048505035476D+00 -3.4349057503865D-01
    59  5.8000000000000D-01  1.2175865785463D+00 -3.4748975259551D-01
    60  5.9000000000000D-01  1.2295021964348D+00 -3.5034931380949D-01
    61  6.0000000000000D-01  1.2405691865657D+00 -3.5201317534534D-01
    62  6.1000000000000D-01  1.2507604167438D+00 -3.5242814828645D-01
    63  6.2000000000000D-01  1.2600498916854D+00 -3.5154418496202D-01
    64  6.3000000000000D-01  1.2684128491435D+00 -3.4931461674404D-01
    65  6.4000000000000D-01  1.2758258533485D+00 -3.4569638180614D-01
    66  6.5000000000000D-01  1.2822668854208D+00 -3.4065024186528D-01
    67  6.6000000000000D-01  1.2877154304166D+00 -3.3414098696073D-01
    68  6.7000000000000D-01  1.2921525606824D+00 -3.2613762736189D-01
    69  6.8000000000000D-01  1.2955610151977D+00 -3.1661357173886D-01
    70  6.9000000000000D-01  1.2979252746039D+00 -3.0554679077414D-01
    71  7.0000000000000D-01  1.2992316316231D+00 -2.9291996544405D-01
    72  7.1000000000000D-01  1.2994682565918D+00 -2.7872061925121D-01
    73  7.2000000000000D-01  1.2986252578428D+00 -2.6294123374541D-01
    74  7.3000000000000D-01  1.2966947366901D+00 -2.4557934673084D-01
    75  7.4000000000000D-01  1.2936708367858D+00 -2.2663763262006D-01
    76  7.5000000000000D-01  1.2895497876374D+00 -2.0612396446086D-01
    77  7.6000000000000D-01  1.2843299420935D+00 -1.8405145723072D-01
    78  7.7000000000000D-01  1.2780118076243D+00 -1.6043849206445D-01
    79  7.8000000000000D-01  1.2705980712464D+00 -1.3530872115298D-01
    80  7.9000000000000D-01  1.2620936179602D+00 -1.0869105312678D-01
    81  8.0000000000000D-01  1.2525055425945D+00 -8.0619618812746D-02
    82  8.1000000000000D-01  1.2418431549693D+00 -5.1133717331332D-02
    83  8.2000000000000D-01  1.2301179783191D+00 -2.0277742578960D-02
    84  8.3000000000000D-01  1.2173437409345D+00  1.1898909780808D-02
    85  8.4000000000000D-01  1.2035363610103D+00  4.5341954614171D-02
    86  8.5000000000000D-01  1.1887139247078D+00  7.9992348620581D-02
    87  8.6000000000000D-01  1.1728966574664D+00  1.1578644028249D-01
    88  8.7000000000000D-01  1.1561068886222D+00  1.5265613802344D-01
    89  8.8000000000000D-01  1.1383690094147D+00  1.9052909606023D-01
    90  8.9000000000000D-01  1.1197094244900D+00  2.2932891735998D-01
    91  9.0000000000000D-01  1.1001564970273D+00  2.6897537303948D-01
    92  9.1000000000000D-01  1.0797404876451D+00  3.0938463747377D-01
    93  9.2000000000000D-01  1.0584934872599D+00  3.5046953831242D-01
    94  9.3000000000000D-01  1.0364493440989D+00  3.9213982053621D-01
    95  9.4000000000000D-01  1.0136435850834D+00  4.3430242362516D-01
    96  9.5000000000000D-01  9.9011333182581D-01  4.7686177084958D-01
    97  9.6000000000000D-01  9.6589721150128D-01  5.1972006964092D-01
    98  9.7000000000000D-01  9.4103526287188D-01  5.6277762194879D-01
    99  9.8000000000000D-01  9.1556883776367D-01  6.0593314344279D-01
   100  9.9000000000000D-01  8.8954049831064D-01  6.4908409037667D-01
   101  1.0000000000000D+00  8.6299391029689D-01  6.9212699289460D-01
   102  1.0100000000000D+00  8.3597373294289D-01  7.3495779352717D-01
   103  1.0200000000000D+00  8.0852550549486D-01  7.7747218959749D-01
   104  1.0300000000000D+00  7.8069553098868D-01  8.1956597823585D-01
   105  1.0400000000000D+00  7.5253075756993D-01  8.6113540268564D-01
   106  1.0500000000000D+00  7.2407865776145D-01  9.0207749857136D-01
   107  1.0600000000000D+00  6.9538710607714D-01  9.4229043879520D-01
   108  1.0700000000000D+00  6.6650425538710D-01  9.8167387572869D-01
   109  1.0800000000000D+00  6.3747841244389D-01  1.0201292793735D+00
   110  1.0900000000000D+00  6.0835791298254D-01  1.0575602701745D+00
   111  1.1000000000000D+00  5.7919099680905D-01  1.0938729451892D+00
   112  1.1100000000000D+00  5.5002568329139D-01  1.1289761963384D+00
   113  1.1200000000000D+00  5.2090964766589D-01  1.1627820194936D+00
   114  1.1300000000000D+00  4.9189009856809D-01  1.1952058131907D+00
   115  1.1400000000000D+00  4.6301365719334D-01  1.2261666657953D+00
   116  1.1500000000000D+00  4.3432623848520D-01  1.2555876299951D+00
   117  1.1600000000000D+00  4.0587293474155D-01  1.2833959835449D+00
   118  1.1700000000000D+00  3.7769790202026D-01  1.3095234752364D+00
   119  1.1800000000000D+00  3.4984424971525D-01  1.3339065551282D+00
   120  1.1900000000000D+00  3.2235393366071D-01  1.3564865881374D+00
   121  1.2000000000000D+00  2.9526765310612D-01  1.3772100501661D+00
   122  1.2100000000000D+00  2.6862475189717D-01  1.3960287059790D+00
   123  1.2200000000000D+00  2.4246312417297D-01  1.4128997681557D+00
   124  1.2300000000000D+00  2.1681912487561D-01  1.4277860365110D+00
   125  1.2400000000000D+00  1.9172748535431D-01  1.4406560174326D+00
   126  1.2500000000000D+00  1.6722123432403D-01  1.4514840226832D+00
   127  1.2600000000000D+00  1.4333162441391D-01  1.4602502473185D+00
   128  1.2700000000000D+00  1.2008806452807D-01  1.4669408264165D+00
   129  1.2800000000000D+00  9.7518058220302D-02  1.4715478704084D+00
   130  1.2900000000000D+00  7.5647148248428D-02  1.4740694789325D+00
   131  1.3000000000000D+00  5.4498867468580D-02  1.4745097331555D+00
   132  1.3100000000000D+00  3.4094696203286D-02  1.4728786666085D+00
   133  1.3200000000000D+00  1.4454026176119D-02  1.4691922147299D+00
   134  1.3300000000000D+00 -4.4058688889562D-03  1.4634721432902D+00
   135  1.3400000000000D+00 -2.2469855945708D-02  1.4557459560204D+00
   136  1.3500000000000D+00 -3.9724958561255D-02  1.4460467818856D+00
   137  1.3600000000000D+00 -5.6160366067648D-02  1.4344132423816D+00
   138  1.3700000000000D+00 -7.1767435961652D-02  1.4208892994731D+00
   139  1.3800000000000D+00 -8.6539689585358D-02  1.4055240847846D+00
   140  1.3900000000000D+00 -1.0047280111828D-01  1.3883717106620D+00
   141  1.4000000000000D+00 -1.1356457999443D-01  1.3694910639611D+00
   142  1.4100000000000D+00 -1.2581494681110D-01  1.3489455832860D+00
   143  1.4200000000000D+00 -1.3722590285958D-01  1.3268030205834D+00
   144  1.4300000000000D+00 -1.4780149343120D-01  1.3031351880480D+00
   145  1.4400000000000D+00 -1.5754776501741D-01  1.2780176912181D+00
   146  1.4500000000000D+00 -1.6647271662682D-01  1.2515296493852D+00
   147  1.4600000000000D+00 -1.7458624536915D-01  1.2237534042694D+00
   148  1.4700000000000D+00 -1.8190008653802D-01  1.1947742181017D+00
   149  1.4800000000000D+00 -1.8842774841221D-01  1.1646799621968D+00
   150  1.4900000000000D+00 -1.9418444199164D-01  1.1335607971367D+00
   151  1.5000000000000D+00 -1.9918700595194D-01  1.1015088457249D+00
   152  1.5100000000000D+00 -2.0345382703038D-01  1.0686178598427D+00
   153  1.5200000000000D+00 -2.0700475615547D-01  1.0349828823691D+00
   154  1.5300000000000D+00 -2.0986102056117D-01  1.0006999053117D+00
   155  1.5400000000000D+00 -2.1204513219168D-01  9.6586552529371D-01
   156  1.5500000000000D+00 -2.1358079267154D-01  9.3057659749952D-01
   157  1.5600000000000D+00 -2.1449279514037D-01  8.9492988924525D-01
   158  1.5700000000000D+00 -2.1480692324190D-01  8.5902173414006D-01
   159  1.5800000000000D+00 -2.1454984757056D-01  8.2294768807373D-01
   160  1.5900000000000D+00 -2.1374901985772D-01  7.8680218777523D-01
   161  1.6000000000000D+00 -2.1243256521544D-01  7.5067821327473D-01
   162  1.6100000000000D+00 -2.1062917269391D-01  7.1466695475526D-01
   163  1.6200000000000D+00 -2.0836798448720D-01  6.7885748517989D-01
   164  1.6300000000000D+00 -2.0567848401247D-01  6.4333643897631D-01
   165  1.6400000000000D+00 -2.0259038320253D-01  6.0818769810238D-01
   166  1.6500000000000D+00 -1.9913350921009D-01  5.7349208564728D-01
   167  1.6600000000000D+00 -1.9533769085738D-01  5.3932706816096D-01
   168  1.6700000000000D+00 -1.9123264500198D-01  5.0576646674550D-01
   169  1.6800000000000D+00 -1.8684786314124D-01  4.7288017796364D-01
   170  1.6900000000000D+00 -1.8221249839382D-01  4.4073390445139D-01
   171  1.7000000000000D+00 -1.7735525316953D-01  4.0938889617257D-01
   172  1.7100000000000D+00 -1.7230426762397D-01  3.7890170201199D-01
   173  1.7200000000000D+00 -1.6708700920453D-01  3.4932393257052D-01
   174  1.7300000000000D+00 -1.6173016301304D-01  3.2070203200802D-01
   175  1.7400000000000D+00 -1.5625952435015D-01  2.9307706513740D-01
   176  1.7500000000000D+00 -1.5069989335884D-01  2.6648451912642D-01
   177  1.7600000000000D+00 -1.4507496111667D-01  2.4095406423651D-01
   178  1.7700000000000D+00 -1.3940724423215D-01  2.1650955424661D-01
   179  1.7800000000000D+00 -1.3371793783378D-01  1.9316864465562D-01
   180  1.7900000000000D+00 -1.2802674278499D-01  1.7094222816315D-01
   181  1.8000000000000D+00 -1.2235200763157D-01  1.4983551602012D-01
   182  1.8100000000000D+00 -1.1671077151204D-01  1.2984862939372D-01
   183  1.8200000000000D+00 -1.1111887725515D-01  1.1097734587651D-01
   184  1.8300000000000D+00 -1.0559118028045D-01  9.3214347058030D-02
   185  1.8400000000000D+00 -1.0014153426923D-01  7.6549288700288D-02
   186  1.8500000000000D+00 -9.4782745909826D-02  6.0968664760611D-02
   187  1.8600000000000D+00 -8.9526589199783D-02  4.6455991155597D-02
   188  1.8700000000000D+00 -8.4383827985267D-02  3.2992035036534D-02
   189  1.8800000000000D+00 -7.9364220316173D-02  2.0554928889343D-02
   190  1.8900000000000D+00 -7.4476538105721D-02  9.1203600478194D-03
   191  1.9000000000000D+00 -6.9728584679740D-02 -1.3382599876582D-03
   192  1.9100000000000D+00 -6.5127216026916D-02 -1.0849615758508D-02
   193  1.9200000000000D+00 -6.0678364416393D-02 -1.9444303974568D-02
   194  1.9300000000000D+00 -5.6387064377875D-02 -2.7154646468886D-02
   195  1.9400000000000D+00 -5.2257480745320D-02 -3.4014500791318D-02
   196  1.9500000000000D+00 -4.8292938646737D-02 -4.0059069576068D-02
   197  1.9600000000000D+00 -4.4495955242029D-02 -4.5324709441363D-02
   198  1.9700000000000D+00 -4.0868273010952D-02 -4.9848740287982D-02
   199  1.9800000000000D+00 -3.7410894413928D-02 -5.3669256290609D-02
   200  1.9900000000000D+00 -3.4124117762505D-02 -5.6824938558395D-02
   201  2.0000000000000D+00 -3.1007574045812D-02 -5.9354871611905D-02
   202  2.0100000000000D+00 -2.8060264629892D-02 -6.1298363056965D-02
   203  2.0200000000000D+00 -2.5280599552276D-02 -6.2694768359083D-02
   204  2.0300000000000D+00 -2.2666436280355D-02 -6.3583320998615D-02
   205  2.0400000000000D+00 -2.0215118812265D-02 -6.4002968219316D-02
   206  2.0500000000000D+00 -1.7923516777403D-02 -6.3992214507466D-02
   207  2.0600000000000D+00 -1.5788064653198D-02 -6.3588971181439D-02
   208  2.0700000000000D+00 -1.3804800626212D-02 -6.2830415039327D-02
   209  2.0800000000000D+00 -1.1969405191523D-02 -6.1752854802088D-02
   210  2.0900000000000D+00 -1.0277239285631D-02 -6.0391606248209D-02
   211  2.1000000000000D+00 -8.7233816390791D-03 -5.8780877653884D-02
   212  2.1100000000000D+00 -7.3026656276072D-03 -5.6953663221710D-02
   213  2.1200000000000D+00 -6.0097149872606D-03 -5.4941648104882D-02
   214  2.1300000000000D+00 -4.8389787153213D-03 -5.2775122550457D-02
   215  2.1400000000000D+00 -3.7847649097394D-03 -5.0482906258156D-02
   216  2.1500000000000D+00 -2.8412732418697D-03 -4.8092284360850D-02
   217  2.1600000000000D+00 -2.0026264989620D-03 -4.5628952043059D-02
   218  2.1700000000000D+00 -1.2629005031048D-03 -4.3116971401428D-02
   219  2.1800000000000D+00 -6.1615279226983D-04 -4.0578737947725D-02
   220  2.1900000000000D+00 -5.6449978771891D-05 -3.8034956849702D-02
   221  2.2000000000000D+00  4.2210665544153D-04 -3.5504630937519D-02
   222  2.2100000000000D+00  8.2535672614692D-04 -3.3005056842439D-02
   223  2.2200000000000D+00  1.1590580502156D-03 -3.0551831928255D-02
   224  2.2300000000000D+00  1.4288655217585D-03 -2.8158870765605D-02
   225  2.2400000000000D+00  1.6403112147166D-03 -2.5838429043857D-02
   226  2.2500000000000D+00  1.7987864436353D-03 -2.3601138158389D-02
   227  2.2600000000000D+00  1.9095250472890D-03 -2.1456046499358D-02
   228  2.2700000000000D+00  1.9775881878369D-03 -1.9410668484273D-02
   229  2.2800000000000D+00  2.0078508238990D-03 -1.7471041636667D-02
   230  2.2900000000000D+00  2.0049893394320D-03 -1.5641789049507D-02
   231  2.3000000000000D+00  1.9734707364656D-03 -1.3926188550741D-02
   232  2.3100000000000D+00  1.9175431867148D-03 -1.2326247299976D-02
   233  2.3200000000000D+00  1.8412276638992D-03 -1.0842780447788D-02
   234  2.3300000000000D+00  1.7483110447969D-03 -9.4754946498547D-03
   235  2.3400000000000D+00  1.6423402468550D-03 -8.2230746393214D-03
   236  2.3500000000000D+00  1.5266174064572D-03 -7.0832725282831D-03
   237  2.3600000000000D+00  1.4041962140740D-03 -6.0529992995890D-03
   238  2.3700000000000D+00  1.2778791000740D-03 -5.1284177199444D-03
   239  2.3800000000000D+00  1.1502153068638D-03 -4.3050360012970D-03
   240  2.3900000000000D+00  1.0234997788893D-03 -3.5778011565397D-03
   241  2.4000000000000D+00  8.9977276873527D-04 -2.9411923981572D-03
   242  2.4100000000000D+00  7.8082007035373D-04 -2.3893128461617D-03
   243  2.4200000000000D+00  6.6817378851032D-04 -1.9159789120310D-03
   244  2.4300000000000D+00  5.6311369688527D-04 -1.5148084757474D-03
   245  2.4400000000000D+00  4.6666890489304D-04 -1.1793047241141D-03
   246  2.4500000000000D+00  3.7961984877416D-04 -9.0293617550339D-04
   247  2.4600000000000D+00  3.0250075333665D-04 -6.7921440065655D-04
   248  2.4700000000000D+00  2.3560206272324D-04 -5.0176478914214D-04
   249  2.4800000000000D+00  1.7899248183788D-04 -3.6448121557605D-04
   250  2.4900000000000D+00  1.3245017612634D-04 -2.6126109748368D-04
   251  2.5000000000000D+00  9.5536907043345D-05 -1.8638532166481D-04
   252  2.5100000000000D+00  6.7322609302483D-05 -1.3384534177339D-04
   253  2.5200000000000D+00  4.7445185752072D-05 -1.0016676424907D-04
   254  2.5300000000000D+00  3.5007225177130D-05 -8.1499747158204D-05
   255  2.5400000000000D+00  2.9569919352403D-05 -7.5944472541890D-05
   256  2.5500000000000D+00  2.7239054539683D-05 -7.4050525026486D-05
   257  2.5600000000000D+00  2.4745862322158D-05 -6.8463662632551D-05
   258  2.5700000000000D+00  1.8110536670199D-05 -5.0389687620044D-05
   259  2.5800000000000D+00  9.5221286337344D-06 -2.6503126343394D-05
   260  2.5900000000000D+00  1.5169348892931D-06 -4.2117837098604D-06
   261  2.6000000000000D+00 -2.1043121182783D-06  5.9534725514936D-06
   262  2.6100000000000D+00 -2.2716844248741D-06  6.4363259128734D-06
   263  2.6200000000000D+00 -6.7391251317684D-07  1.9111326099182D-06
   264  2.6300000000000D+00  3.8439993481587D-07 -1.0904174608321D-06
   265  2.6400000000000D+00  5.3817569796618D-07 -1.5284082281396D-06
   266  2.6500000000000D+00  2.3288412140905D-07 -6.6203462588113D-07
   267  2.6600000000000D+00 -3.7138440960316D-08  1.0279143746208D-07
   268  2.6700000000000D+00 -6.8480421272388D-08  1.8953948411887D-07
   269  2.6800000000000D+00 -4.0119763895965D-08  1.1104311583548D-07
   270  2.6900000000000D+00  0.0000000000000D+00  0.0000000000000D+00
   271  2.7000000000000D+00  0.0000000000000D+00  0.0000000000000D+00
   272  2.7100000000000D+00  0.0000000000000D+00  0.0000000000000D+00
   273  2.7200000000000D+00  0.0000000000000D+00  0.0000000000000D+00
   274  2.7300000000000D+00  0.0000000000000D+00  0.0000000000000D+00
   275  2.7400000000000D+00  0.0000000000000D+00  0.0000000000000D+00
   276  2.7500000000000D+00  0.0000000000000D+00  0.0000000000000D+00
   277  2.7600000000000D+00  0.0000000000000D+00  0.0000000000000D+00
   278  2.7700000000000D+00  0.0000000000000D+00  0.0000000000000D+00
   279  2.7800000000000D+00  0.0000000000000D+00  0.0000000000000D+00
   280  2.7900000000000D+00  0.0000000000000D+00  0.0000000000000D+00
   281  2.8000000000000D+00  0.0000000000000D+00  0.0000000000000D+00
   282  2.8100000000000D+00  0.0000000000000D+00  0.0000000000000D+00
   283  2.8200000000000D+00  0.0000000000000D+00  0.0000000000000D+00
   284  2.8300000000000D+00  0.0000000000000D+00  0.0000000000000D+00
   285  2.8400000000000D+00  0.0000000000000D+00  0.0000000000000D+00
   286  2.8500000000000D+00  0.0000000000000D+00  0.0000000000000D+00
   287  2.8600000000000D+00  0.0000000000000D+00  0.0000000000000D+00
   288  2.8700000000000D+00  0.0000000000000D+00  0.0000000000000D+00
   289  2.8800000000000D+00  0.0000000000000D+00  0.0000000000000D+00
   290  2.8900000000000D+00  0.0000000000000D+00  0.0000000000000D+00
   291  2.9000000000000D+00  0.0000000000000D+00  0.0000000000000D+00
   292  2.9100000000000D+00  0.0000000000000D+00  0.0000000000000D+00
   293  2.9200000000000D+00  0.0000000000000D+00  0.0000000000000D+00
   294  2.9300000000000D+00  0.0000000000000D+00  0.0000000000000D+00
   295  2.9400000000000D+00  0.0000000000000D+00  0.0000000000000D+00
   296  2.9500000000000D+00  0.0000000000000D+00  0.0000000000000D+00
   297  2.9600000000000D+00  0.0000000000000D+00  0.0000000000000D+00
   298  2.9700000000000D+00  0.0000000000000D+00  0.0000000000000D+00
   299  2.9800000000000D+00  0.0000000000000D+00  0.0000000000000D+00
   300  2.9900000000000D+00  0.0000000000000D+00  0.0000000000000D+00
   301  3.0000000000000D+00  0.0000000000000D+00  0.0000000000000D+00
   302  3.0100000000000D+00  0.0000000000000D+00  0.0000000000000D+00
   303  3.0200000000000D+00  0.0000000000000D+00  0.0000000000000D+00
   304  3.0300000000000D+00  0.0000000000000D+00  0.0000000000000D+00
   305  3.0400000000000D+00  0.0000000000000D+00  0.0000000000000D+00
   306  3.0500000000000D+00  0.0000000000000D+00  0.0000000000000D+00
   307  3.0600000000000D+00  0.0000000000000D+00  0.0000000000000D+00
   308  3.0700000000000D+00  0.0000000000000D+00  0.0000000000000D+00
   309  3.0800000000000D+00  0.0000000000000D+00  0.0000000000000D+00
   310  3.0900000000000D+00  0.0000000000000D+00  0.0000000000000D+00
   311  3.1000000000000D+00  0.0000000000000D+00  0.0000000000000D+00
   312  3.1100000000000D+00  0.0000000000000D+00  0.0000000000000D+00
   313  3.1200000000000D+00  0.0000000000000D+00  0.0000000000000D+00
   314  3.1300000000000D+00  0.0000000000000D+00  0.0000000000000D+00
   315  3.1400000000000D+00  0.0000000000000D+00  0.0000000000000D+00
   316  3.1500000000000D+00  0.0000000000000D+00  0.0000000000000D+00
   317  3.1600000000000D+00  0.0000000000000D+00  0.0000000000000D+00
   318  3.1700000000000D+00  0.0000000000000D+00  0.0000000000000D+00
   319  3.1800000000000D+00  0.0000000000000D+00  0.0000000000000D+00
   320  3.1900000000000D+00  0.0000000000000D+00  0.0000000000000D+00
   321  3.2000000000000D+00  0.0000000000000D+00  0.0000000000000D+00
   322  3.2100000000000D+00  0.0000000000000D+00  0.0000000000000D+00
   323  3.2200000000000D+00  0.0000000000000D+00  0.0000000000000D+00
   324  3.2300000000000D+00  0.0000000000000D+00  0.0000000000000D+00
   325  3.2400000000000D+00  0.0000000000000D+00  0.0000000000000D+00
   326  3.2500000000000D+00  0.0000000000000D+00  0.0000000000000D+00
   327  3.2600000000000D+00  0.0000000000000D+00  0.0000000000000D+00
   328  3.2700000000000D+00  0.0000000000000D+00  0.0000000000000D+00
   329  3.2800000000000D+00  0.0000000000000D+00  0.0000000000000D+00
   330  3.2900000000000D+00  0.0000000000000D+00  0.0000000000000D+00
   331  3.3000000000000D+00  0.0000000000000D+00  0.0000000000000D+00
   332  3.3100000000000D+00  0.0000000000000D+00  0.0000000000000D+00
   333  3.3200000000000D+00  0.0000000000000D+00  0.0000000000000D+00
   334  3.3300000000000D+00  0.0000000000000D+00  0.0000000000000D+00
   335  3.3400000000000D+00  0.0000000000000D+00  0.0000000000000D+00
   336  3.3500000000000D+00  0.0000000000000D+00  0.0000000000000D+00
   337  3.3600000000000D+00  0.0000000000000D+00  0.0000000000000D+00
   338  3.3700000000000D+00  0.0000000000000D+00  0.0000000000000D+00
   339  3.3800000000000D+00  0.0000000000000D+00  0.0000000000000D+00
   340  3.3900000000000D+00  0.0000000000000D+00  0.0000000000000D+00
   341  3.4000000000000D+00  0.0000000000000D+00  0.0000000000000D+00
   342  3.4100000000000D+00  0.0000000000000D+00  0.0000000000000D+00
   343  3.4200000000000D+00  0.0000000000000D+00  0.0000000000000D+00
   344  3.4300000000000D+00  0.0000000000000D+00  0.0000000000000D+00
   345  3.4400000000000D+00  0.0000000000000D+00  0.0000000000000D+00
   346  3.4500000000000D+00  0.0000000000000D+00  0.0000000000000D+00
   347  3.4600000000000D+00  0.0000000000000D+00  0.0000000000000D+00
   348  3.4700000000000D+00  0.0000000000000D+00  0.0000000000000D+00
   349  3.4800000000000D+00  0.0000000000000D+00  0.0000000000000D+00
   350  3.4900000000000D+00  0.0000000000000D+00  0.0000000000000D+00
   351  3.5000000000000D+00  0.0000000000000D+00  0.0000000000000D+00
   352  3.5100000000000D+00  0.0000000000000D+00  0.0000000000000D+00
   353  3.5200000000000D+00  0.0000000000000D+00  0.0000000000000D+00
   354  3.5300000000000D+00  0.0000000000000D+00  0.0000000000000D+00
   355  3.5400000000000D+00  0.0000000000000D+00  0.0000000000000D+00
   356  3.5500000000000D+00  0.0000000000000D+00  0.0000000000000D+00
   357  3.5600000000000D+00  0.0000000000000D+00  0.0000000000000D+00
   358  3.5700000000000D+00  0.0000000000000D+00  0.0000000000000D+00
   359  3.5800000000000D+00  0.0000000000000D+00  0.0000000000000D+00
   360  3.5900000000000D+00  0.0000000000000D+00  0.0000000000000D+00
   361  3.6000000000000D+00  0.0000000000000D+00  0.0000000000000D+00
   362  3.6100000000000D+00  0.0000000000000D+00  0.0000000000000D+00
   363  3.6200000000000D+00  0.0000000000000D+00  0.0000000000000D+00
   364  3.6300000000000D+00  0.0000000000000D+00  0.0000000000000D+00
   365  3.6400000000000D+00  0.0000000000000D+00  0.0000000000000D+00
   366  3.6500000000000D+00  0.0000000000000D+00  0.0000000000000D+00
   367  3.6600000000000D+00  0.0000000000000D+00  0.0000000000000D+00
   368  3.6700000000000D+00  0.0000000000000D+00  0.0000000000000D+00
   369  3.6800000000000D+00  0.0000000000000D+00  0.0000000000000D+00
   370  3.6900000000000D+00  0.0000000000000D+00  0.0000000000000D+00
   371  3.7000000000000D+00  0.0000000000000D+00  0.0000000000000D+00
   372  3.7100000000000D+00  0.0000000000000D+00  0.0000000000000D+00
   373  3.7200000000000D+00  0.0000000000000D+00  0.0000000000000D+00
   374  3.7300000000000D+00  0.0000000000000D+00  0.0000000000000D+00
   375  3.7400000000000D+00  0.0000000000000D+00  0.0000000000000D+00
   376  3.7500000000000D+00  0.0000000000000D+00  0.0000000000000D+00
   377  3.7600000000000D+00  0.0000000000000D+00  0.0000000000000D+00
   378  3.7700000000000D+00  0.0000000000000D+00  0.0000000000000D+00
   379  3.7800000000000D+00  0.0000000000000D+00  0.0000000000000D+00
   380  3.7900000000000D+00  0.0000000000000D+00  0.0000000000000D+00
   381  3.8000000000000D+00  0.0000000000000D+00  0.0000000000000D+00
   382  3.8100000000000D+00  0.0000000000000D+00  0.0000000000000D+00
   383  3.8200000000000D+00  0.0000000000000D+00  0.0000000000000D+00
   384  3.8300000000000D+00  0.0000000000000D+00  0.0000000000000D+00
   385  3.8400000000000D+00  0.0000000000000D+00  0.0000000000000D+00
   386  3.8500000000000D+00  0.0000000000000D+00  0.0000000000000D+00
   387  3.8600000000000D+00  0.0000000000000D+00  0.0000000000000D+00
   388  3.8700000000000D+00  0.0000000000000D+00  0.0000000000000D+00
   389  3.8800000000000D+00  0.0000000000000D+00  0.0000000000000D+00
   390  3.8900000000000D+00  0.0000000000000D+00  0.0000000000000D+00
   391  3.9000000000000D+00  0.0000000000000D+00  0.0000000000000D+00
   392  3.9100000000000D+00  0.0000000000000D+00  0.0000000000000D+00
   393  3.9200000000000D+00  0.0000000000000D+00  0.0000000000000D+00
   394  3.9300000000000D+00  0.0000000000000D+00  0.0000000000000D+00
   395  3.9400000000000D+00  0.0000000000000D+00  0.0000000000000D+00
   396  3.9500000000000D+00  0.0000000000000D+00  0.0000000000000D+00
   397  3.9600000000000D+00  0.0000000000000D+00  0.0000000000000D+00
   398  3.9700000000000D+00  0.0000000000000D+00  0.0000000000000D+00
   399  3.9800000000000D+00  0.0000000000000D+00  0.0000000000000D+00
   400  3.9900000000000D+00  0.0000000000000D+00  0.0000000000000D+00
   401  4.0000000000000D+00  0.0000000000000D+00  0.0000000000000D+00
   402  4.0100000000000D+00  0.0000000000000D+00  0.0000000000000D+00
   403  4.0200000000000D+00  0.0000000000000D+00  0.0000000000000D+00
   404  4.0300000000000D+00  0.0000000000000D+00  0.0000000000000D+00
   405  4.0400000000000D+00  0.0000000000000D+00  0.0000000000000D+00
   406  4.0500000000000D+00  0.0000000000000D+00  0.0000000000000D+00
   407  4.0600000000000D+00  0.0000000000000D+00  0.0000000000000D+00
   408  4.0700000000000D+00  0.0000000000000D+00  0.0000000000000D+00
   409  4.0800000000000D+00  0.0000000000000D+00  0.0000000000000D+00
   410  4.0900000000000D+00  0.0000000000000D+00  0.0000000000000D+00
   411  4.1000000000000D+00  0.0000000000000D+00  0.0000000000000D+00
   412  4.1100000000000D+00  0.0000000000000D+00  0.0000000000000D+00
   413  4.1200000000000D+00  0.0000000000000D+00  0.0000000000000D+00
   414  4.1300000000000D+00  0.0000000000000D+00  0.0000000000000D+00
   415  4.1400000000000D+00  0.0000000000000D+00  0.0000000000000D+00
   416  4.1500000000000D+00  0.0000000000000D+00  0.0000000000000D+00
   417  4.1600000000000D+00  0.0000000000000D+00  0.0000000000000D+00
   418  4.1700000000000D+00  0.0000000000000D+00  0.0000000000000D+00
   419  4.1800000000000D+00  0.0000000000000D+00  0.0000000000000D+00
   420  4.1900000000000D+00  0.0000000000000D+00  0.0000000000000D+00
   421  4.2000000000000D+00  0.0000000000000D+00  0.0000000000000D+00
   422  4.2100000000000D+00  0.0000000000000D+00  0.0000000000000D+00