F     ONCVPSP-3.3.1  r_core=   1.60379   1.68217
      9.0000      7.0000      210904    zatom,zion,pspd
     8       2   1     4   600     0    pspcod,pspxc,lmax,lloc,mmax,r2well
  5.99000000  0.00000000  0.00000000    rchrg fchrg qchrg
     2     2     0     0     0    nproj
     1     1           extension_switch
   0                         5.5575960270471D+00  8.8800394654019D-01
     1  0.0000000000000D+00  1.4394918590455D-10 -3.8657221868021D-10
     2  1.0000000000000D-02  9.0559579476886D-02 -2.4665924230356D-02
     3  2.0000000000000D-02  1.8087396267916D-01 -4.9165179145824D-02
     4  3.0000000000000D-02  2.7069856086428D-01 -7.3331362060295D-02
     5  4.0000000000000D-02  3.5979000113074D-01 -9.6998609054601D-02
     6  5.0000000000000D-02  4.4790673624362D-01 -1.2000187803392D-01
     7  6.0000000000000D-02  5.3480965664244D-01 -1.4217724791627D-01
     8  7.0000000000000D-02  6.2026270518755D-01 -1.6336223887010D-01
     9  8.0000000000000D-02  7.0403349505723D-01 -1.8339615813218D-01
    10  9.0000000000000D-02  7.8589393103136D-01 -2.0212047546308D-01
    11  1.0000000000000D-01  8.6562083419120D-01 -2.1937923174009D-01
    12  1.1000000000000D-01  9.4299656983129D-01 -2.3501948355605D-01
    13  1.2000000000000D-01  1.0178096781214D+00 -2.4889178599152D-01
    14  1.3000000000000D-01  1.0898555067788D+00 -2.6085071496899D-01
    15  1.4000000000000D-01  1.1589368447147D+00 -2.7075542978772D-01
    16  1.5000000000000D-01  1.2248645553126D+00 -2.7847027558837D-01
    17  1.6000000000000D-01  1.2874582076791D+00 -2.8386542461764D-01
    18  1.7000000000000D-01  1.3465467038880D+00 -2.8681755426581D-01
    19  1.8000000000000D-01  1.4019688999194D+00 -2.8721055894619D-01
    20  1.9000000000000D-01  1.4535742176839D+00 -2.8493629198641D-01
    21  2.0000000000000D-01  1.5012232452176D+00 -2.7989533281985D-01
    22  2.1000000000000D-01  1.5447883218466D+00 -2.7199777391210D-01
    23  2.2000000000000D-01  1.5841541048556D+00 -2.6116402104563D-01
    24  2.3000000000000D-01  1.6192181139474D+00 -2.4732559982557D-01
    25  2.4000000000000D-01  1.6498912495749D+00 -2.3042596057352D-01
    26  2.5000000000000D-01  1.6760982810400D+00 -2.1042127315432D-01
    27  2.6000000000000D-01  1.6977783001180D+00 -1.8728120274282D-01
    28  2.7000000000000D-01  1.7148851358628D+00 -1.6098965709434D-01
    29  2.8000000000000D-01  1.7273877261913D+00 -1.3154549554006D-01
    30  2.9000000000000D-01  1.7352704418382D+00 -9.8963189696781D-02
    31  3.0000000000000D-01  1.7385333583106D+00 -6.3273425763974D-02
    32  3.1000000000000D-01  1.7371924715661D+00 -2.4523638285850D-02
    33  3.2000000000000D-01  1.7312798532782D+00  1.7221534614465D-02
    34  3.3000000000000D-01  1.7208437417558D+00  6.1879884264051D-02
    35  3.4000000000000D-01  1.7059485648299D+00  1.0935136208250D-01
    36  3.5000000000000D-01  1.6866748913274D+00  1.5951791667388D-01
    37  3.6000000000000D-01  1.6631193081074D+00  2.1224344556358D-01
    38  3.7000000000000D-01  1.6353942200407D+00  2.6737386901299D-01
    39  3.8000000000000D-01  1.6036275707686D+00  3.2473733246278D-01
    40  3.9000000000000D-01  1.5679624825740D+00  3.8414454316251D-01
    41  4.0000000000000D-01  1.5285568142394D+00  4.4538924544661D-01
    42  4.1000000000000D-01  1.4855826363434D+00  5.0824883792465D-01
    43  4.2000000000000D-01  1.4392256240553D+00  5.7248513457687D-01
    44  4.3000000000000D-01  1.3896843681275D+00  6.3784527039644D-01
    45  4.4000000000000D-01  1.3371696054400D+00  7.0406275081072D-01
    46  4.5000000000000D-01  1.2819033711296D+00  7.7085864265829D-01
    47  4.6000000000000D-01  1.2241180750172D+00  8.3794290301242D-01
    48  4.7000000000000D-01  1.1640555057336D+00  9.0501584063882D-01
    49  4.8000000000000D-01  1.1019657666269D+00  9.7176970337395D-01
    50  4.9000000000000D-01  1.0381061482048D+00  1.0378903832242D+00
    51  5.0000000000000D-01  9.7273994251649D-01  1.1030592295344D+00
    52  5.1000000000000D-01  9.0613520550880D-01  1.1669549591720D+00
    53  5.2000000000000D-01  8.3856347398305D-01  1.2292556513350D+00
    54  5.3000000000000D-01  7.7029844433688D-01  1.2896408133414D+00
    55  5.4000000000000D-01  7.0161462078500D-01  1.3477935025964D+00
    56  5.5000000000000D-01  6.3278594121131D-01  1.4034024888942D+00
    57  5.6000000000000D-01  5.6408438920616D-01  1.4561644402896D+00
    58  5.7000000000000D-01  4.9577860118077D-01  1.5057861149959D+00
    59  5.8000000000000D-01  4.2813247772193D-01  1.5519865411357D+00
    60  5.9000000000000D-01  3.6140380854969D-01  1.5944991656973D+00
    61  6.0000000000000D-01  2.9584292056544D-01  1.6330739537510D+00
    62  6.1000000000000D-01  2.3169135852491D-01  1.6674794188424D+00
    63  6.2000000000000D-01  1.6918060783936D-01  1.6975045655325D+00
    64  6.3000000000000D-01  1.0853086889476D-01  1.7229607252799D+00
    65  6.4000000000000D-01  4.9949892087766D-02  1.7436832672697D+00
    66  6.5000000000000D-01 -6.3681174963454D-03  1.7595331663784D+00
    67  6.6000000000000D-01 -6.0243517189113D-02  1.7703984112330D+00
    68  6.7000000000000D-01 -1.1151215747728D-01  1.7761952362448D+00
    69  6.8000000000000D-01 -1.6002621872444D-01  1.7768691625988D+00
    70  6.9000000000000D-01 -2.0565494679163D-01  1.7723958344217D+00
    71  7.0000000000000D-01 -2.4828528110252D-01  1.7627816377329D+00
    72  7.1000000000000D-01 -2.8782236938492D-01  1.7480640912927D+00
    73  7.2000000000000D-01 -3.2418996406108D-01  1.7283120000851D+00
    74  7.3000000000000D-01 -3.5733069603954D-01  1.7036253638810D+00
    75  7.4000000000000D-01 -3.8720622248076D-01  1.6741350351205D+00
    76  7.5000000000000D-01 -4.1379724595725D-01  1.6400021221986D+00
    77  7.6000000000000D-01 -4.3710340329224D-01  1.6014171361143D+00
    78  7.7000000000000D-01 -4.5714302324484D-01  1.5585988803519D+00
    79  7.8000000000000D-01 -4.7395275308623D-01  1.5117930857469D+00
    80  7.9000000000000D-01 -4.8758705498691D-01  1.4612707939600D+00
    81  8.0000000000000D-01 -4.9811757399355D-01  1.4073264949999D+00
    82  8.1000000000000D-01 -5.0563238020744D-01  1.3502760259874D+00
    83  8.2000000000000D-01 -5.1023508857752D-01  1.2904542400168D+00
    84  8.3000000000000D-01 -5.1204386048041D-01  1.2282124555257D+00
    85  8.4000000000000D-01 -5.1119029196974D-01  1.1639156980189D+00
    86  8.5000000000000D-01 -5.0781819423127D-01  1.0979397472788D+00
    87  8.6000000000000D-01 -5.0208227237043D-01  1.0306680043339D+00
    88  8.7000000000000D-01 -4.9414670918102D-01  9.6248819341880D-01
    89  8.8000000000000D-01 -4.8418366099103D-01  8.9378891494989D-01
    90  8.9000000000000D-01 -4.7237167305065D-01  8.2495606613603D-01
    91  9.0000000000000D-01 -4.5889402221529D-01  7.5636914624823D-01
    92  9.1000000000000D-01 -4.4393699487943D-01  6.8839746377738D-01
    93  9.2000000000000D-01 -4.2768810823521D-01  6.2139626271293D-01
    94  9.3000000000000D-01 -4.1033428296164D-01  5.5570278498146D-01
    95  9.4000000000000D-01 -3.9205997539743D-01  4.9163228569294D-01
    96  9.5000000000000D-01 -3.7304527675122D-01  4.2947401573327D-01
    97  9.6000000000000D-01 -3.5346398947257D-01  3.6948719724432D-01
    98  9.7000000000000D-01 -3.3348167692302D-01  3.1189695984698D-01
    99  9.8000000000000D-01 -3.1325376638068D-01  2.5689055186834D-01
   100  9.9000000000000D-01 -2.9292340983383D-01  2.0461258052723D-01
   101  1.0000000000000D+00 -2.7262218560090D-01  1.5517219199276D-01
   102  1.0100000000000D+00 -2.5247246464820D-01  1.0865595942962D-01
   103  1.0200000000000D+00 -2.3258847010365D-01  6.5133960700295D-02
   104  1.0300000000000D+00 -2.1307564158806D-01  2.4658199900209D-02
   105  1.0400000000000D+00 -1.9403041217013D-01 -1.2737287812916D-02
   106  1.0500000000000D+00 -1.7553999389061D-01 -4.7036471938314D-02
   107  1.0600000000000D+00 -1.5768223941054D-01 -7.8241190756335D-02
   108  1.0700000000000D+00 -1.4052557875471D-01 -1.0637085088581D-01
   109  1.0800000000000D+00 -1.2412902861397D-01 -1.3146197238026D-01
   110  1.0900000000000D+00 -1.0854227210331D-01 -1.5356758623428D-01
   111  1.1000000000000D+00 -9.3805806335727D-02 -1.7275649244463D-01
   112  1.1100000000000D+00 -7.9951154557554D-02 -1.8911238821334D-01
   113  1.1200000000000D+00 -6.7001139094340D-02 -2.0273287702733D-01
   114  1.1300000000000D+00 -5.4970116784945D-02 -2.1372868498600D-01
   115  1.1400000000000D+00 -4.3865533302047D-02 -2.2221853887783D-01
   116  1.1500000000000D+00 -3.3682970836441D-02 -2.2834594228930D-01
   117  1.1600000000000D+00 -2.4416945157736D-02 -2.3224316418642D-01
   118  1.1700000000000D+00 -1.6077895148013D-02 -2.3397456808924D-01
   119  1.1800000000000D+00 -8.6368853359436D-03 -2.3372401504279D-01
   120  1.1900000000000D+00 -2.0512382276401D-03 -2.3170744402003D-01
   121  1.2000000000000D+00  3.7105968995491D-03 -2.2808875173682D-01
   122  1.2100000000000D+00  8.6844565070340D-03 -2.2303380628014D-01
   123  1.2200000000000D+00  1.2909407237116D-02 -2.1670721095461D-01
   124  1.2300000000000D+00  1.6428083549874D-02 -2.0927404546481D-01
   125  1.2400000000000D+00  1.9285466055160D-02 -2.0089643581203D-01
   126  1.2500000000000D+00  2.1528511553923D-02 -1.9173299335965D-01
   127  1.2600000000000D+00  2.3205557302957D-02 -1.8193751912025D-01
   128  1.2700000000000D+00  2.4365774028708D-02 -1.7165789076340D-01
   129  1.2800000000000D+00  2.5058643768007D-02 -1.6103504609060D-01
   130  1.2900000000000D+00  2.5333466520087D-02 -1.5020207143838D-01
   131  1.3000000000000D+00  2.5238899049758D-02 -1.3928340162429D-01
   132  1.3100000000000D+00  2.4822529206390D-02 -1.2839413810359D-01
   133  1.3200000000000D+00  2.4130488198558D-02 -1.1763948933629D-01
   134  1.3300000000000D+00  2.3207102593103D-02 -1.0711433551638D-01
   135  1.3400000000000D+00  2.2094588112781D-02 -9.6902920636318D-02
   136  1.3500000000000D+00  2.0832785736979D-02 -8.7078670480229D-02
   137  1.3600000000000D+00  1.9458940549751D-02 -7.7704135029663D-02
   138  1.3700000000000D+00  1.8007523762372D-02 -6.8831053656136D-02
   139  1.3800000000000D+00  1.6510096591759D-02 -6.0500536763246D-02
   140  1.3900000000000D+00  1.4995215451001D-02 -5.2743359655274D-02
   141  1.4000000000000D+00  1.3488376821530D-02 -4.5580361434348D-02
   142  1.4100000000000D+00  1.2011999360732D-02 -3.9022939688998D-02
   143  1.4200000000000D+00  1.0585441701265D-02 -3.3073633995207D-02
   144  1.4300000000000D+00  9.2250523234463D-03 -2.7726785956845D-02
   145  1.4400000000000D+00  7.9442490273928D-03 -2.2969266490334D-02
   146  1.4500000000000D+00  6.7536244779099D-03 -1.8781258277970D-02
   147  1.4600000000000D+00  5.6610741470617D-03 -1.5137081288838D-02
   148  1.4700000000000D+00  4.6719432371341D-03 -1.2006049487553D-02
   149  1.4800000000000D+00  3.7891884204483D-03 -9.3533457053324D-03
   150  1.4900000000000D+00  3.0135507666779D-03 -7.1409024459538D-03
   151  1.5000000000000D+00  2.3437357278538D-03 -5.3282757360090D-03
   152  1.5100000000000D+00  1.7765966175184D-03 -3.8735005951011D-03
   153  1.5200000000000D+00  1.3073173171390D-03 -2.7339146668045D-03
   154  1.5300000000000D+00  9.2959145599479D-04 -1.8669416108560D-03
   155  1.5400000000000D+00  6.3579337522286D-04 -1.2308194195017D-03
   156  1.5500000000000D+00  4.1719117291703D-04 -7.8540137551991D-04
   157  1.5600000000000D+00  2.6395392859151D-04 -4.9239522847438D-04
   158  1.5700000000000D+00  1.6436834556217D-04 -3.1377959102332D-04
   159  1.5800000000000D+00  1.0860968282890D-04 -2.2072112752887D-04
   160  1.5900000000000D+00  9.0480138033352D-05 -1.9720226188739D-04
   161  1.6000000000000D+00  8.5271801425437D-05 -1.9103738301005D-04
   162  1.6100000000000D+00  5.5766077164779D-05 -1.2544624618291D-04
   163  1.6200000000000D+00  1.1081336133751D-05 -2.4919387280805D-05
   164  1.6300000000000D+00 -8.1949120926519D-06  1.8535000743666D-05
   165  1.6400000000000D+00 -2.6524886987735D-06  6.0025565255615D-06
   166  1.6500000000000D+00  1.8011511058675D-06 -4.0785798669711D-06
   167  1.6600000000000D+00  5.7824025460872D-07 -1.3100993005129D-06
   168  1.6700000000000D+00 -2.1784950470354D-07  4.8903343305112D-07
   169  1.6800000000000D+00 -7.1185790098824D-08  1.5979945129486D-07
   170  1.6900000000000D+00  0.0000000000000D+00  0.0000000000000D+00
   171  1.7000000000000D+00  0.0000000000000D+00  0.0000000000000D+00
   172  1.7100000000000D+00  0.0000000000000D+00  0.0000000000000D+00
   173  1.7200000000000D+00  0.0000000000000D+00  0.0000000000000D+00
   174  1.7300000000000D+00  0.0000000000000D+00  0.0000000000000D+00
   175  1.7400000000000D+00  0.0000000000000D+00  0.0000000000000D+00
   176  1.7500000000000D+00  0.0000000000000D+00  0.0000000000000D+00
   177  1.7600000000000D+00  0.0000000000000D+00  0.0000000000000D+00
   178  1.7700000000000D+00  0.0000000000000D+00  0.0000000000000D+00
   179  1.7800000000000D+00  0.0000000000000D+00  0.0000000000000D+00
   180  1.7900000000000D+00  0.0000000000000D+00  0.0000000000000D+00
   181  1.8000000000000D+00  0.0000000000000D+00  0.0000000000000D+00
   182  1.8100000000000D+00  0.0000000000000D+00  0.0000000000000D+00
   183  1.8200000000000D+00  0.0000000000000D+00  0.0000000000000D+00
   184  1.8300000000000D+00  0.0000000000000D+00  0.0000000000000D+00
   185  1.8400000000000D+00  0.0000000000000D+00  0.0000000000000D+00
   186  1.8500000000000D+00  0.0000000000000D+00  0.0000000000000D+00
   187  1.8600000000000D+00  0.0000000000000D+00  0.0000000000000D+00
   188  1.8700000000000D+00  0.0000000000000D+00  0.0000000000000D+00
   189  1.8800000000000D+00  0.0000000000000D+00  0.0000000000000D+00
   190  1.8900000000000D+00  0.0000000000000D+00  0.0000000000000D+00
   191  1.9000000000000D+00  0.0000000000000D+00  0.0000000000000D+00
   192  1.9100000000000D+00  0.0000000000000D+00  0.0000000000000D+00
   193  1.9200000000000D+00  0.0000000000000D+00  0.0000000000000D+00
   194  1.9300000000000D+00  0.0000000000000D+00  0.0000000000000D+00
   195  1.9400000000000D+00  0.0000000000000D+00  0.0000000000000D+00
   196  1.9500000000000D+00  0.0000000000000D+00  0.0000000000000D+00
   197  1.9600000000000D+00  0.0000000000000D+00  0.0000000000000D+00
   198  1.9700000000000D+00  0.0000000000000D+00  0.0000000000000D+00
   199  1.9800000000000D+00  0.0000000000000D+00  0.0000000000000D+00
   200  1.9900000000000D+00  0.0000000000000D+00  0.0000000000000D+00
   201  2.0000000000000D+00  0.0000000000000D+00  0.0000000000000D+00
   202  2.0100000000000D+00  0.0000000000000D+00  0.0000000000000D+00
   203  2.0200000000000D+00  0.0000000000000D+00  0.0000000000000D+00
   204  2.0300000000000D+00  0.0000000000000D+00  0.0000000000000D+00
   205  2.0400000000000D+00  0.0000000000000D+00  0.0000000000000D+00
   206  2.0500000000000D+00  0.0000000000000D+00  0.0000000000000D+00
   207  2.0600000000000D+00  0.0000000000000D+00  0.0000000000000D+00
   208  2.0700000000000D+00  0.0000000000000D+00  0.0000000000000D+00
   209  2.0800000000000D+00  0.0000000000000D+00  0.0000000000000D+00
   210  2.0900000000000D+00  0.0000000000000D+00  0.0000000000000D+00
   211  2.1000000000000D+00  0.0000000000000D+00  0.0000000000000D+00
   212  2.1100000000000D+00  0.0000000000000D+00  0.0000000000000D+00
   213  2.1200000000000D+00  0.0000000000000D+00  0.0000000000000D+00
   214  2.1300000000000D+00  0.0000000000000D+00  0.0000000000000D+00
   215  2.1400000000000D+00  0.0000000000000D+00  0.0000000000000D+00
   216  2.1500000000000D+00  0.0000000000000D+00  0.0000000000000D+00
   217  2.1600000000000D+00  0.0000000000000D+00  0.0000000000000D+00
   218  2.1700000000000D+00  0.0000000000000D+00  0.0000000000000D+00
   219  2.1800000000000D+00  0.0000000000000D+00  0.0000000000000D+00
   220  2.1900000000000D+00  0.0000000000000D+00  0.0000000000000D+00
   221  2.2000000000000D+00  0.0000000000000D+00  0.0000000000000D+00
   222  2.2100000000000D+00  0.0000000000000D+00  0.0000000000000D+00
   223  2.2200000000000D+00  0.0000000000000D+00  0.0000000000000D+00
   224  2.2300000000000D+00  0.0000000000000D+00  0.0000000000000D+00
   225  2.2400000000000D+00  0.0000000000000D+00  0.0000000000000D+00
   226  2.2500000000000D+00  0.0000000000000D+00  0.0000000000000D+00
   227  2.2600000000000D+00  0.0000000000000D+00  0.0000000000000D+00
   228  2.2700000000000D+00  0.0000000000000D+00  0.0000000000000D+00
   229  2.2800000000000D+00  0.0000000000000D+00  0.0000000000000D+00
   230  2.2900000000000D+00  0.0000000000000D+00  0.0000000000000D+00
   231  2.3000000000000D+00  0.0000000000000D+00  0.0000000000000D+00
   232  2.3100000000000D+00  0.0000000000000D+00  0.0000000000000D+00
   233  2.3200000000000D+00  0.0000000000000D+00  0.0000000000000D+00
   234  2.3300000000000D+00  0.0000000000000D+00  0.0000000000000D+00
   235  2.3400000000000D+00  0.0000000000000D+00  0.0000000000000D+00
   236  2.3500000000000D+00  0.0000000000000D+00  0.0000000000000D+00
   237  2.3600000000000D+00  0.0000000000000D+00  0.0000000000000D+00
   238  2.3700000000000D+00  0.0000000000000D+00  0.0000000000000D+00
   239  2.3800000000000D+00  0.0000000000000D+00  0.0000000000000D+00
   240  2.3900000000000D+00  0.0000000000000D+00  0.0000000000000D+00
   241  2.4000000000000D+00  0.0000000000000D+00  0.0000000000000D+00
   242  2.4100000000000D+00  0.0000000000000D+00  0.0000000000000D+00
   243  2.4200000000000D+00  0.0000000000000D+00  0.0000000000000D+00
   244  2.4300000000000D+00  0.0000000000000D+00  0.0000000000000D+00
   245  2.4400000000000D+00  0.0000000000000D+00  0.0000000000000D+00
   246  2.4500000000000D+00  0.0000000000000D+00  0.0000000000000D+00
   247  2.4600000000000D+00  0.0000000000000D+00  0.0000000000000D+00
   248  2.4700000000000D+00  0.0000000000000D+00  0.0000000000000D+00
   249  2.4800000000000D+00  0.0000000000000D+00  0.0000000000000D+00
   250  2.4900000000000D+00  0.0000000000000D+00  0.0000000000000D+00
   251  2.5000000000000D+00  0.0000000000000D+00  0.0000000000000D+00
   252  2.5100000000000D+00  0.0000000000000D+00  0.0000000000000D+00
   253  2.5200000000000D+00  0.0000000000000D+00  0.0000000000000D+00
   254  2.5300000000000D+00  0.0000000000000D+00  0.0000000000000D+00
   255  2.5400000000000D+00  0.0000000000000D+00  0.0000000000000D+00
   256  2.5500000000000D+00  0.0000000000000D+00  0.0000000000000D+00
   257  2.5600000000000D+00  0.0000000000000D+00  0.0000000000000D+00
   258  2.5700000000000D+00  0.0000000000000D+00  0.0000000000000D+00
   259  2.5800000000000D+00  0.0000000000000D+00  0.0000000000000D+00
   260  2.5900000000000D+00  0.0000000000000D+00  0.0000000000000D+00
   261  2.6000000000000D+00  0.0000000000000D+00  0.0000000000000D+00
   262  2.6100000000000D+00  0.0000000000000D+00  0.0000000000000D+00
   263  2.6200000000000D+00  0.0000000000000D+00  0.0000000000000D+00
   264  2.6300000000000D+00  0.0000000000000D+00  0.0000000000000D+00
   265  2.6400000000000D+00  0.0000000000000D+00  0.0000000000000D+00
   266  2.6500000000000D+00  0.0000000000000D+00  0.0000000000000D+00
   267  2.6600000000000D+00  0.0000000000000D+00  0.0000000000000D+00
   268  2.6700000000000D+00  0.0000000000000D+00  0.0000000000000D+00
   269  2.6800000000000D+00  0.0000000000000D+00  0.0000000000000D+00
   270  2.6900000000000D+00  0.0000000000000D+00  0.0000000000000D+00
   271  2.7000000000000D+00  0.0000000000000D+00  0.0000000000000D+00
   272  2.7100000000000D+00  0.0000000000000D+00  0.0000000000000D+00
   273  2.7200000000000D+00  0.0000000000000D+00  0.0000000000000D+00
   274  2.7300000000000D+00  0.0000000000000D+00  0.0000000000000D+00
   275  2.7400000000000D+00  0.0000000000000D+00  0.0000000000000D+00
   276  2.7500000000000D+00  0.0000000000000D+00  0.0000000000000D+00
   277  2.7600000000000D+00  0.0000000000000D+00  0.0000000000000D+00
   278  2.7700000000000D+00  0.0000000000000D+00  0.0000000000000D+00
   279  2.7800000000000D+00  0.0000000000000D+00  0.0000000000000D+00
   280  2.7900000000000D+00  0.0000000000000D+00  0.0000000000000D+00
   281  2.8000000000000D+00  0.0000000000000D+00  0.0000000000000D+00
   282  2.8100000000000D+00  0.0000000000000D+00  0.0000000000000D+00
   283  2.8200000000000D+00  0.0000000000000D+00  0.0000000000000D+00
   284  2.8300000000000D+00  0.0000000000000D+00  0.0000000000000D+00
   285  2.8400000000000D+00  0.0000000000000D+00  0.0000000000000D+00
   286  2.8500000000000D+00  0.0000000000000D+00  0.0000000000000D+00
   287  2.8600000000000D+00  0.0000000000000D+00  0.0000000000000D+00
   288  2.8700000000000D+00  0.0000000000000D+00  0.0000000000000D+00
   289  2.8800000000000D+00  0.0000000000000D+00  0.0000000000000D+00
   290  2.8900000000000D+00  0.0000000000000D+00  0.0000000000000D+00
   291  2.9000000000000D+00  0.0000000000000D+00  0.0000000000000D+00
   292  2.9100000000000D+00  0.0000000000000D+00  0.0000000000000D+00
   293  2.9200000000000D+00  0.0000000000000D+00  0.0000000000000D+00
   294  2.9300000000000D+00  0.0000000000000D+00  0.0000000000000D+00
   295  2.9400000000000D+00  0.0000000000000D+00  0.0000000000000D+00
   296  2.9500000000000D+00  0.0000000000000D+00  0.0000000000000D+00
   297  2.9600000000000D+00  0.0000000000000D+00  0.0000000000000D+00
   298  2.9700000000000D+00  0.0000000000000D+00  0.0000000000000D+00
   299  2.9800000000000D+00  0.0000000000000D+00  0.0000000000000D+00
   300  2.9900000000000D+00  0.0000000000000D+00  0.0000000000000D+00
   301  3.0000000000000D+00  0.0000000000000D+00  0.0000000000000D+00
   302  3.0100000000000D+00  0.0000000000000D+00  0.0000000000000D+00
   303  3.0200000000000D+00  0.0000000000000D+00  0.0000000000000D+00
   304  3.0300000000000D+00  0.0000000000000D+00  0.0000000000000D+00
   305  3.0400000000000D+00  0.0000000000000D+00  0.0000000000000D+00
   306  3.0500000000000D+00  0.0000000000000D+00  0.0000000000000D+00
   307  3.0600000000000D+00  0.0000000000000D+00  0.0000000000000D+00
   308  3.0700000000000D+00  0.0000000000000D+00  0.0000000000000D+00
   309  3.0800000000000D+00  0.0000000000000D+00  0.0000000000000D+00
   310  3.0900000000000D+00  0.0000000000000D+00  0.0000000000000D+00
   311  3.1000000000000D+00  0.0000000000000D+00  0.0000000000000D+00
   312  3.1100000000000D+00  0.0000000000000D+00  0.0000000000000D+00
   313  3.1200000000000D+00  0.0000000000000D+00  0.0000000000000D+00
   314  3.1300000000000D+00  0.0000000000000D+00  0.0000000000000D+00
   315  3.1400000000000D+00  0.0000000000000D+00  0.0000000000000D+00
   316  3.1500000000000D+00  0.0000000000000D+00  0.0000000000000D+00
   317  3.1600000000000D+00  0.0000000000000D+00  0.0000000000000D+00
   318  3.1700000000000D+00  0.0000000000000D+00  0.0000000000000D+00
   319  3.1800000000000D+00  0.0000000000000D+00  0.0000000000000D+00
   320  3.1900000000000D+00  0.0000000000000D+00  0.0000000000000D+00
   321  3.2000000000000D+00  0.0000000000000D+00  0.0000000000000D+00
   322  3.2100000000000D+00  0.0000000000000D+00  0.0000000000000D+00
   323  3.2200000000000D+00  0.0000000000000D+00  0.0000000000000D+00
   324  3.2300000000000D+00  0.0000000000000D+00  0.0000000000000D+00
   325  3.2400000000000D+00  0.0000000000000D+00  0.0000000000000D+00
   326  3.2500000000000D+00  0.0000000000000D+00  0.0000000000000D+00
   327  3.2600000000000D+00  0.0000000000000D+00  0.0000000000000D+00
   328  3.2700000000000D+00  0.0000000000000D+00  0.0000000000000D+00
   329  3.2800000000000D+00  0.0000000000000D+00  0.0000000000000D+00
   330  3.2900000000000D+00  0.0000000000000D+00  0.0000000000000D+00
   331  3.3000000000000D+00  0.0000000000000D+00  0.0000000000000D+00
   332  3.3100000000000D+00  0.0000000000000D+00  0.0000000000000D+00
   333  3.3200000000000D+00  0.0000000000000D+00  0.0000000000000D+00
   334  3.3300000000000D+00  0.0000000000000D+00  0.0000000000000D+00
   335  3.3400000000000D+00  0.0000000000000D+00  0.0000000000000D+00
   336  3.3500000000000D+00  0.0000000000000D+00  0.0000000000000D+00
   337  3.3600000000000D+00  0.0000000000000D+00  0.0000000000000D+00
   338  3.3700000000000D+00  0.0000000000000D+00  0.0000000000000D+00
   339  3.3800000000000D+00  0.0000000000000D+00  0.0000000000000D+00
   340  3.3900000000000D+00  0.0000000000000D+00  0.0000000000000D+00
   341  3.4000000000000D+00  0.0000000000000D+00  0.0000000000000D+00
   342  3.4100000000000D+00  0.0000000000000D+00  0.0000000000000D+00
   343  3.4200000000000D+00  0.0000000000000D+00  0.0000000000000D+00
   344  3.4300000000000D+00  0.0000000000000D+00  0.0000000000000D+00
   345  3.4400000000000D+00  0.0000000000000D+00  0.0000000000000D+00
   346  3.4500000000000D+00  0.0000000000000D+00  0.0000000000000D+00
   347  3.4600000000000D+00  0.0000000000000D+00  0.0000000000000D+00
   348  3.4700000000000D+00  0.0000000000000D+00  0.0000000000000D+00
   349  3.4800000000000D+00  0.0000000000000D+00  0.0000000000000D+00
   350  3.4900000000000D+00  0.0000000000000D+00  0.0000000000000D+00
   351  3.5000000000000D+00  0.0000000000000D+00  0.0000000000000D+00
   352  3.5100000000000D+00  0.0000000000000D+00  0.0000000000000D+00
   353  3.5200000000000D+00  0.0000000000000D+00  0.0000000000000D+00
   354  3.5300000000000D+00  0.0000000000000D+00  0.0000000000000D+00
   355  3.5400000000000D+00  0.0000000000000D+00  0.0000000000000D+00
   356  3.5500000000000D+00  0.0000000000000D+00  0.0000000000000D+00
   357  3.5600000000000D+00  0.0000000000000D+00  0.0000000000000D+00
   358  3.5700000000000D+00  0.0000000000000D+00  0.0000000000000D+00
   359  3.5800000000000D+00  0.0000000000000D+00  0.0000000000000D+00
   360  3.5900000000000D+00  0.0000000000000D+00  0.0000000000000D+00
   361  3.6000000000000D+00  0.0000000000000D+00  0.0000000000000D+00
   362  3.6100000000000D+00  0.0000000000000D+00  0.0000000000000D+00
   363  3.6200000000000D+00  0.0000000000000D+00  0.0000000000000D+00
   364  3.6300000000000D+00  0.0000000000000D+00  0.0000000000000D+00
   365  3.6400000000000D+00  0.0000000000000D+00  0.0000000000000D+00
   366  3.6500000000000D+00  0.0000000000000D+00  0.0000000000000D+00
   367  3.6600000000000D+00  0.0000000000000D+00  0.0000000000000D+00
   368  3.6700000000000D+00  0.0000000000000D+00  0.0000000000000D+00
   369  3.6800000000000D+00  0.0000000000000D+00  0.0000000000000D+00
   370  3.6900000000000D+00  0.0000000000000D+00  0.0000000000000D+00
   371  3.7000000000000D+00  0.0000000000000D+00  0.0000000000000D+00
   372  3.7100000000000D+00  0.0000000000000D+00  0.0000000000000D+00
   373  3.7200000000000D+00  0.0000000000000D+00  0.0000000000000D+00
   374  3.7300000000000D+00  0.0000000000000D+00  0.0000000000000D+00
   375  3.7400000000000D+00  0.0000000000000D+00  0.0000000000000D+00
   376  3.7500000000000D+00  0.0000000000000D+00  0.0000000000000D+00
   377  3.7600000000000D+00  0.0000000000000D+00  0.0000000000000D+00
   378  3.7700000000000D+00  0.0000000000000D+00  0.0000000000000D+00
   379  3.7800000000000D+00  0.0000000000000D+00  0.0000000000000D+00
   380  3.7900000000000D+00  0.0000000000000D+00  0.0000000000000D+00
   381  3.8000000000000D+00  0.0000000000000D+00  0.0000000000000D+00
   382  3.8100000000000D+00  0.0000000000000D+00  0.0000000000000D+00
   383  3.8200000000000D+00  0.0000000000000D+00  0.0000000000000D+00
   384  3.8300000000000D+00  0.0000000000000D+00  0.0000000000000D+00
   385  3.8400000000000D+00  0.0000000000000D+00  0.0000000000000D+00
   386  3.8500000000000D+00  0.0000000000000D+00  0.0000000000000D+00
   387  3.8600000000000D+00  0.0000000000000D+00  0.0000000000000D+00
   388  3.8700000000000D+00  0.0000000000000D+00  0.0000000000000D+00
   389  3.8800000000000D+00  0.0000000000000D+00  0.0000000000000D+00
   390  3.8900000000000D+00  0.0000000000000D+00  0.0000000000000D+00
   391  3.9000000000000D+00  0.0000000000000D+00  0.0000000000000D+00
   392  3.9100000000000D+00  0.0000000000000D+00  0.0000000000000D+00
   393  3.9200000000000D+00  0.0000000000000D+00  0.0000000000000D+00
   394  3.9300000000000D+00  0.0000000000000D+00  0.0000000000000D+00
   395  3.9400000000000D+00  0.0000000000000D+00  0.0000000000000D+00
   396  3.9500000000000D+00  0.0000000000000D+00  0.0000000000000D+00
   397  3.9600000000000D+00  0.0000000000000D+00  0.0000000000000D+00
   398  3.9700000000000D+00  0.0000000000000D+00  0.0000000000000D+00
   399  3.9800000000000D+00  0.0000000000000D+00  0.0000000000000D+00
   400  3.9900000000000D+00  0.0000000000000D+00  0.0000000000000D+00
   401  4.0000000000000D+00  0.0000000000000D+00  0.0000000000000D+00
   402  4.0100000000000D+00  0.0000000000000D+00  0.0000000000000D+00
   403  4.0200000000000D+00  0.0000000000000D+00  0.0000000000000D+00
   404  4.0300000000000D+00  0.0000000000000D+00  0.0000000000000D+00
   405  4.0400000000000D+00  0.0000000000000D+00  0.0000000000000D+00
   406  4.0500000000000D+00  0.0000000000000D+00  0.0000000000000D+00
   407  4.0600000000000D+00  0.0000000000000D+00  0.0000000000000D+00
   408  4.0700000000000D+00  0.0000000000000D+00  0.0000000000000D+00
   409  4.0800000000000D+00  0.0000000000000D+00  0.0000000000000D+00
   410  4.0900000000000D+00  0.0000000000000D+00  0.0000000000000D+00
   411  4.1000000000000D+00  0.0000000000000D+00  0.0000000000000D+00
   412  4.1100000000000D+00  0.0000000000000D+00  0.0000000000000D+00
   413  4.1200000000000D+00  0.0000000000000D+00  0.0000000000000D+00
   414  4.1300000000000D+00  0.0000000000000D+00  0.0000000000000D+00
   415  4.1400000000000D+00  0.0000000000000D+00  0.0000000000000D+00
   416  4.1500000000000D+00  0.0000000000000D+00  0.0000000000000D+00
   417  4.1600000000000D+00  0.0000000000000D+00  0.0000000000000D+00
   418  4.1700000000000D+00  0.0000000000000D+00  0.0000000000000D+00
   419  4.1800000000000D+00  0.0000000000000D+00  0.0000000000000D+00
   420  4.1900000000000D+00  0.0000000000000D+00  0.0000000000000D+00
   421  4.2000000000000D+00  0.0000000000000D+00  0.0000000000000D+00
   422  4.2100000000000D+00  0.0000000000000D+00  0.0000000000000D+00
   423  4.2200000000000D+00  0.0000000000000D+00  0.0000000000000D+00