F     ONCVPSP-3.3.1  r_core=   1.60379   1.68217
      9.0000      7.0000      210904    zatom,zion,pspd
     8       2   1     4   600     0    pspcod,pspxc,lmax,lloc,mmax,r2well
  5.99000000  0.00000000  0.00000000    rchrg fchrg qchrg
     2     2     0     0    nproj
     3     1           extension_switch
     3     0     0    nprojso
   0                         8.8801417984261D-01  5.5577122664701D+00
     1  0.0000000000000D+00 -3.8651568057269D-10  1.4392287361886D-10
     2  1.0000000000000D-02 -2.4667041488689D-02  9.0558918003722D-02
     3  2.0000000000000D-02 -4.9167411031004D-02  1.8087264453131D-01
     4  3.0000000000000D-02 -7.3334703322041D-02  2.7069659561723D-01
     5  4.0000000000000D-02 -9.7003051849110D-02  3.5978740309403D-01
     6  5.0000000000000D-02 -1.2000741196141D-01  4.4790352439661D-01
     7  6.0000000000000D-02 -1.4218386007045D-01  5.3480585454890D-01
     8  7.0000000000000D-02 -1.6336991389897D-01  6.2025834088939D-01
     9  8.0000000000000D-02 -1.8340487830960D-01  7.0402860094754D-01
    10  9.0000000000000D-02 -2.0213022077028D-01  7.8588854370724D-01
    11  1.0000000000000D-01 -2.1938997995630D-01  8.6561499428670D-01
    12  1.1000000000000D-01 -2.3503121035725D-01  9.4299032183100D-01
    13  1.2000000000000D-01 -2.4890446505635D-01  1.0178030701553D+00
    14  1.3000000000000D-01 -2.6086431809062D-01  1.0898485903986D+00
    15  1.4000000000000D-01 -2.7076992699052D-01  1.1589296746532D+00
    16  1.5000000000000D-01 -2.7848563524827D-01  1.2248571892257D+00
    17  1.6000000000000D-01 -2.8388161358474D-01  1.2874507058725D+00
    18  1.7000000000000D-01 -2.8683453798819D-01  1.3465391290279D+00
    19  1.8000000000000D-01 -2.8722830159352D-01  1.4019613167303D+00
    20  1.9000000000000D-01 -2.8495475657216D-01  1.4535666926329D+00
    21  2.0000000000000D-01 -2.7991448132085D-01  1.5012158461861D+00
    22  2.1000000000000D-01 -2.7201756738437D-01  1.5447811177930D+00
    23  2.2000000000000D-01 -2.6118441973528D-01  1.5841471654668D+00
    24  2.3000000000000D-01 -2.4734656327382D-01  1.6192115092839D+00
    25  2.4000000000000D-01 -2.3044744771490D-01  1.6498850497079D+00
    26  2.5000000000000D-01 -2.1044324240712D-01  1.6760925556847D+00
    27  2.6000000000000D-01 -1.8730361209134D-01  1.6977731182630D+00
    28  2.7000000000000D-01 -1.6101246416205D-01  1.7148805653971D+00
    29  2.8000000000000D-01 -1.3156865765347D-01  1.7273838335322D+00
    30  2.9000000000000D-01 -9.8986663939696D-02  1.7352672915602D+00
    31  3.0000000000000D-01 -6.3297169022001D-02  1.7385310127787D+00
    32  3.1000000000000D-01 -2.4547607281114D-02  1.7371909905732D+00
    33  3.2000000000000D-01  1.7197383298028D-02  1.7312792936911D+00
    34  3.3000000000000D-01  6.1855594164455D-02  1.7208441571699D+00
    35  3.4000000000000D-01  1.0932697685221D-01  1.7059500052354D+00
    36  3.5000000000000D-01  1.5949348007994D-01  1.6866774027885D+00
    37  3.6000000000000D-01  2.1221900149488D-01  1.6631229324570D+00
    38  3.7000000000000D-01  2.6734946149340D-01  1.6353989945926D+00
    39  3.8000000000000D-01  3.2471300566899D-01  1.6036335280482D+00
    40  3.9000000000000D-01  3.8412034144541D-01  1.5679696500705D+00
    41  4.0000000000000D-01  4.4536521335465D-01  1.5285652141812D+00
    42  4.1000000000000D-01  5.0822502022769D-01  1.4855922854975D+00
    43  4.2000000000000D-01  5.7246157628895D-01  1.4392365335542D+00
    44  4.3000000000000D-01  6.3782201679571D-01  1.3896965433232D+00
    45  4.4000000000000D-01  7.0403984745485D-01  1.3371830457881D+00
    46  4.5000000000000D-01  7.7083613539358D-01  1.2819180701042D+00
    47  4.6000000000000D-01  8.3792083797501D-01  1.2241340200581D+00
    48  4.7000000000000D-01  9.0499426424603D-01  1.1640726782264D+00
    49  4.8000000000000D-01  9.7174866230429D-01  1.1019841419177D+00
    50  4.9000000000000D-01  1.0378699243843D+00  1.0381256956493D+00
    51  5.0000000000000D-01  1.1030394000119D+00  9.7276062556488D-01
    52  5.1000000000000D-01  1.1669358061716D+00  9.0615698182576D-01
    53  5.2000000000000D-01  1.2292372220991D+00  8.3858629560382D-01
    54  5.3000000000000D-01  1.2896231550508D+00  7.7032225785886D-01
    55  5.4000000000000D-01  1.3477766622536D+00  7.0163936759434D-01
    56  5.5000000000000D-01  1.4033865131867D+00  6.3281155774408D-01
    57  5.6000000000000D-01  1.4561493754333D+00  5.6411080724306D-01
    58  5.7000000000000D-01  1.5057720065588D+00  4.9580574817429D-01
    59  5.8000000000000D-01  1.5519734338413D+00  4.2816027715451D-01
    60  5.9000000000000D-01  1.5944871032097D+00  3.6143218032119D-01
    61  6.0000000000000D-01  1.6330629784407D+00  2.9587178140802D-01
    62  6.1000000000000D-01  1.6674695715345D+00  2.3172062244319D-01
    63  6.2000000000000D-01  1.6974958852393D+00  1.6921018657338D-01
    64  6.3000000000000D-01  1.7229532489192D+00  1.0856067240318D-01
    65  6.4000000000000D-01  1.7436770293696D+00  4.9979829048388D-02
    66  6.5000000000000D-01  1.7595281987730D+00 -6.3381391716736D-03
    67  6.6000000000000D-01  1.7703947427499D+00 -6.0213589828609D-02
    68  6.7000000000000D-01  1.7761928923876D+00 -1.1148237311554D-01
    69  6.8000000000000D-01  1.7768681652283D+00 -1.5999666856472D-01
    70  6.9000000000000D-01  1.7723962014380D+00 -2.0562572066757D-01
    71  7.0000000000000D-01  1.7627833827631D+00 -2.4825646694316D-01
    72  7.1000000000000D-01  1.7480672233871D+00 -2.8779405268688D-01
    73  7.2000000000000D-01  1.7283165234259D+00 -3.2416222737179D-01
    74  7.3000000000000D-01  1.7036312775077D+00 -3.5730361845534D-01
    75  7.4000000000000D-01  1.6741423326762D+00 -3.8717987916392D-01
    76  7.5000000000000D-01  1.6400107917010D+00 -4.1377170767576D-01
    77  7.6000000000000D-01  1.6014271597555D+00 -4.3707873598613D-01
    78  7.7000000000000D-01  1.5586102343322D+00 -4.5711928762296D-01
    79  7.8000000000000D-01  1.5118057401456D+00 -4.7393000425690D-01
    80  7.9000000000000D-01  1.4612847126481D+00 -4.8756534212626D-01
    81  8.0000000000000D-01  1.4073416355983D+00 -4.9809694005463D-01
    82  8.1000000000000D-01  1.3502923398749D+00 -5.0561286167352D-01
    83  8.2000000000000D-01  1.2904716723916D+00 -5.1021671526249D-01
    84  8.3000000000000D-01  1.2282309455239D+00 -5.1202665537909D-01
    85  8.4000000000000D-01  1.1639351788934D+00 -5.1117427116069D-01
    86  8.5000000000000D-01  1.0979601466422D+00 -5.0780336683443D-01
    87  8.6000000000000D-01  1.0306892444680D+00 -5.0206864056173D-01
    88  8.7000000000000D-01  9.6251019165379D-01 -4.9413426826575D-01
    89  8.8000000000000D-01  8.9381158411558D-01 -4.8417239953754D-01
    90  8.9000000000000D-01  8.2497931508755D-01 -4.7236157308585D-01
    91  9.0000000000000D-01  7.5639288046820D-01 -4.5888505948285D-01
    92  9.1000000000000D-01  6.8842158605630D-01 -4.4392913916164D-01
    93  9.2000000000000D-01  6.2142067390961D-01 -4.2768132373901D-01
    94  9.3000000000000D-01  5.5572738486457D-01 -4.1032852876930D-01
    95  9.4000000000000D-01  4.9165697386512D-01 -3.9205520598188D-01
    96  9.5000000000000D-01  4.2949869263866D-01 -3.7304144255616D-01
    97  9.6000000000000D-01  3.6951176526007D-01 -3.5346103755684D-01
    98  9.7000000000000D-01  3.1192132446116D-01 -3.3347955166966D-01
    99  9.8000000000000D-01  2.5691462293215D-01 -3.1325241026541D-01
   100  9.9000000000000D-01  2.0463627363064D-01 -2.9292276426995D-01
   101  1.0000000000000D+00  1.5519542937615D-01 -2.7262219164954D-01
   102  1.0100000000000D+00  1.0867867018264D-01 -2.5247306348593D-01
   103  1.0200000000000D+00  6.5156080620596D-02 -2.3258960336115D-01
   104  1.0300000000000D+00  2.4679671408016D-02 -2.1307725169404D-01
   105  1.0400000000000D+00 -1.2716515783631D-02 -1.9403244267245D-01
   106  1.0500000000000D+00 -4.7016444057317D-02 -1.7554238975808D-01
   107  1.0600000000000D+00 -7.8221945425054D-02 -1.5768494731390D-01
   108  1.0700000000000D+00 -1.0635242037701D-01 -1.4052854732520D-01
   109  1.0800000000000D+00 -1.3144438299041D-01 -1.2413220867838D-01
   110  1.0900000000000D+00 -1.5355085844969D-01 -1.0854561689432D-01
   111  1.1000000000000D+00 -1.7274064112165D-01 -9.3809271676822D-02
   112  1.1100000000000D+00 -1.8909742277355D-01 -7.9954699021705D-02
   113  1.1200000000000D+00 -2.0271880166773D-01 -6.7004724136059D-02
   114  1.1300000000000D+00 -2.1371549917400D-01 -5.4973706766634D-02
   115  1.1400000000000D+00 -2.2220623415731D-01 -4.3869096577414D-02
   116  1.1500000000000D+00 -2.2833451722034D-01 -3.3686475500004D-02
   117  1.1600000000000D+00 -2.3223260317949D-01 -2.4420365352096D-02
   118  1.1700000000000D+00 -2.3396476311923D-01 -1.6081234084749D-02
   119  1.1800000000000D+00 -2.3371496021915D-01 -8.6401180844334D-03
   120  1.1900000000000D+00 -2.3169920306047D-01 -2.0543214767713D-03
   121  1.2000000000000D+00 -2.2808128676013D-01  3.7076742824971D-03
   122  1.2100000000000D+00 -2.2302707979508D-01  8.6817036710293D-03
   123  1.2200000000000D+00 -2.1670119299350D-01  1.2906833481174D-02
   124  1.2300000000000D+00 -2.0926870015854D-01  1.6425694378179D-02
   125  1.2400000000000D+00 -2.0089172599609D-01  1.9283264592471D-02
   126  1.2500000000000D+00 -1.9172888052527D-01  2.1526498595406D-02
   127  1.2600000000000D+00 -1.8193396375849D-01  2.3203731493876D-02
   128  1.2700000000000D+00 -1.7165485270599D-01  2.4364132054972D-02
   129  1.2800000000000D+00 -1.6103248484474D-01  2.5057180555239D-02
   130  1.2900000000000D+00 -1.5019994651350D-01  2.5332175439113D-02
   131  1.3000000000000D+00 -1.3928167284860D-01  2.5237772126337D-02
   132  1.3100000000000D+00 -1.2839276592813D-01  2.4821557332932D-02
   133  1.3200000000000D+00 -1.1763843512398D-01  2.4129661345566D-02
   134  1.3300000000000D+00 -1.0711356181393D-01  2.3206410018100D-02
   135  1.3400000000000D+00 -9.6902391426687D-02  2.2094018564601D-02
   136  1.3500000000000D+00 -8.7078351413747D-02  2.0832327653335D-02
   137  1.3600000000000D+00 -7.7703993631880D-02  1.9458582246122D-02
   138  1.3700000000000D+00 -6.8831059510642D-02  1.8007253610331D-02
   139  1.3800000000000D+00 -6.0500661667944D-02  1.6509903185025D-02
   140  1.3900000000000D+00 -5.2743577750757D-02  1.4995087757636D-02
   141  1.4000000000000D+00 -4.5580649303250D-02  1.3488304320876D-02
   142  1.4100000000000D+00 -3.9023276425446D-02  1.2011972163849D-02
   143  1.4200000000000D+00 -3.3074001243681D-02  1.0585450653811D-02
   144  1.4300000000000D+00 -2.7727167920069D-02  9.2250890901635D-03
   145  1.4400000000000D+00 -2.2969649906087D-02  7.9443061575624D-03
   146  1.4500000000000D+00 -1.8781632364919D-02  6.7536954513302D-03
   147  1.4600000000000D+00 -1.5137437661769D-02  5.6611534003292D-03
   148  1.4700000000000D+00 -1.2006382042678D-02  4.6720261702295D-03
   149  1.4800000000000D+00 -9.3536504765815D-03  3.7892713838295D-03
   150  1.4900000000000D+00 -7.1411774334261D-03  3.0136310293047D-03
   151  1.5000000000000D+00 -5.3285207079873D-03  2.3438114267627D-03
   152  1.5100000000000D+00 -3.8737168652494D-03  1.7766666897540D-03
   153  1.5200000000000D+00 -2.7341048484477D-03  1.3073814150701D-03
   154  1.5300000000000D+00 -1.8671093503589D-03  9.2964984716624D-04
   155  1.5400000000000D+00 -1.2309691110308D-03  6.3584682812274D-04
   156  1.5500000000000D+00 -7.8553798340280D-04  4.1724087644274D-04
   157  1.5600000000000D+00 -4.9252376235671D-04  2.6400127576633D-04
   158  1.5700000000000D+00 -3.1390273294994D-04  1.6441402044479D-04
   159  1.5800000000000D+00 -2.2084431986700D-04  1.0865553530896D-04
   160  1.5900000000000D+00 -1.9734115976906D-04  9.0531939808068D-05
   161  1.6000000000000D+00 -1.9118418902572D-04  8.5326612011744D-05
   162  1.6100000000000D+00 -1.2554466671108D-04  5.5802839179609D-05
   163  1.6200000000000D+00 -2.4939017259659D-05  1.1088669640162D-05
   164  1.6300000000000D+00  1.8549700513972D-05 -8.2004033434296D-06
   165  1.6400000000000D+00  6.0073227843308D-06 -2.6542692469497D-06
   166  1.6500000000000D+00 -4.0818290519594D-06  1.8023648011074D-06
   167  1.6600000000000D+00 -1.3111445492502D-06  5.7863070094979D-07
   168  1.6700000000000D+00  4.8941368070810D-07 -2.1799150690380D-07
   169  1.6800000000000D+00  1.5992370326382D-07 -7.1232191576004D-08
   170  1.6900000000000D+00  0.0000000000000D+00  0.0000000000000D+00
   171  1.7000000000000D+00  0.0000000000000D+00  0.0000000000000D+00
   172  1.7100000000000D+00  0.0000000000000D+00  0.0000000000000D+00
   173  1.7200000000000D+00  0.0000000000000D+00  0.0000000000000D+00
   174  1.7300000000000D+00  0.0000000000000D+00  0.0000000000000D+00
   175  1.7400000000000D+00  0.0000000000000D+00  0.0000000000000D+00
   176  1.7500000000000D+00  0.0000000000000D+00  0.0000000000000D+00
   177  1.7600000000000D+00  0.0000000000000D+00  0.0000000000000D+00
   178  1.7700000000000D+00  0.0000000000000D+00  0.0000000000000D+00
   179  1.7800000000000D+00  0.0000000000000D+00  0.0000000000000D+00
   180  1.7900000000000D+00  0.0000000000000D+00  0.0000000000000D+00
   181  1.8000000000000D+00  0.0000000000000D+00  0.0000000000000D+00
   182  1.8100000000000D+00  0.0000000000000D+00  0.0000000000000D+00
   183  1.8200000000000D+00  0.0000000000000D+00  0.0000000000000D+00
   184  1.8300000000000D+00  0.0000000000000D+00  0.0000000000000D+00
   185  1.8400000000000D+00  0.0000000000000D+00  0.0000000000000D+00
   186  1.8500000000000D+00  0.0000000000000D+00  0.0000000000000D+00
   187  1.8600000000000D+00  0.0000000000000D+00  0.0000000000000D+00
   188  1.8700000000000D+00  0.0000000000000D+00  0.0000000000000D+00
   189  1.8800000000000D+00  0.0000000000000D+00  0.0000000000000D+00
   190  1.8900000000000D+00  0.0000000000000D+00  0.0000000000000D+00
   191  1.9000000000000D+00  0.0000000000000D+00  0.0000000000000D+00
   192  1.9100000000000D+00  0.0000000000000D+00  0.0000000000000D+00
   193  1.9200000000000D+00  0.0000000000000D+00  0.0000000000000D+00
   194  1.9300000000000D+00  0.0000000000000D+00  0.0000000000000D+00
   195  1.9400000000000D+00  0.0000000000000D+00  0.0000000000000D+00
   196  1.9500000000000D+00  0.0000000000000D+00  0.0000000000000D+00
   197  1.9600000000000D+00  0.0000000000000D+00  0.0000000000000D+00
   198  1.9700000000000D+00  0.0000000000000D+00  0.0000000000000D+00
   199  1.9800000000000D+00  0.0000000000000D+00  0.0000000000000D+00
   200  1.9900000000000D+00  0.0000000000000D+00  0.0000000000000D+00
   201  2.0000000000000D+00  0.0000000000000D+00  0.0000000000000D+00
   202  2.0100000000000D+00  0.0000000000000D+00  0.0000000000000D+00
   203  2.0200000000000D+00  0.0000000000000D+00  0.0000000000000D+00
   204  2.0300000000000D+00  0.0000000000000D+00  0.0000000000000D+00
   205  2.0400000000000D+00  0.0000000000000D+00  0.0000000000000D+00
   206  2.0500000000000D+00  0.0000000000000D+00  0.0000000000000D+00
   207  2.0600000000000D+00  0.0000000000000D+00  0.0000000000000D+00
   208  2.0700000000000D+00  0.0000000000000D+00  0.0000000000000D+00
   209  2.0800000000000D+00  0.0000000000000D+00  0.0000000000000D+00
   210  2.0900000000000D+00  0.0000000000000D+00  0.0000000000000D+00
   211  2.1000000000000D+00  0.0000000000000D+00  0.0000000000000D+00
   212  2.1100000000000D+00  0.0000000000000D+00  0.0000000000000D+00
   213  2.1200000000000D+00  0.0000000000000D+00  0.0000000000000D+00
   214  2.1300000000000D+00  0.0000000000000D+00  0.0000000000000D+00
   215  2.1400000000000D+00  0.0000000000000D+00  0.0000000000000D+00
   216  2.1500000000000D+00  0.0000000000000D+00  0.0000000000000D+00
   217  2.1600000000000D+00  0.0000000000000D+00  0.0000000000000D+00
   218  2.1700000000000D+00  0.0000000000000D+00  0.0000000000000D+00
   219  2.1800000000000D+00  0.0000000000000D+00  0.0000000000000D+00
   220  2.1900000000000D+00  0.0000000000000D+00  0.0000000000000D+00
   221  2.2000000000000D+00  0.0000000000000D+00  0.0000000000000D+00
   222  2.2100000000000D+00  0.0000000000000D+00  0.0000000000000D+00
   223  2.2200000000000D+00  0.0000000000000D+00  0.0000000000000D+00
   224  2.2300000000000D+00  0.0000000000000D+00  0.0000000000000D+00
   225  2.2400000000000D+00  0.0000000000000D+00  0.0000000000000D+00
   226  2.2500000000000D+00  0.0000000000000D+00  0.0000000000000D+00
   227  2.2600000000000D+00  0.0000000000000D+00  0.0000000000000D+00
   228  2.2700000000000D+00  0.0000000000000D+00  0.0000000000000D+00
   229  2.2800000000000D+00  0.0000000000000D+00  0.0000000000000D+00
   230  2.2900000000000D+00  0.0000000000000D+00  0.0000000000000D+00
   231  2.3000000000000D+00  0.0000000000000D+00  0.0000000000000D+00
   232  2.3100000000000D+00  0.0000000000000D+00  0.0000000000000D+00
   233  2.3200000000000D+00  0.0000000000000D+00  0.0000000000000D+00
   234  2.3300000000000D+00  0.0000000000000D+00  0.0000000000000D+00
   235  2.3400000000000D+00  0.0000000000000D+00  0.0000000000000D+00
   236  2.3500000000000D+00  0.0000000000000D+00  0.0000000000000D+00
   237  2.3600000000000D+00  0.0000000000000D+00  0.0000000000000D+00
   238  2.3700000000000D+00  0.0000000000000D+00  0.0000000000000D+00
   239  2.3800000000000D+00  0.0000000000000D+00  0.0000000000000D+00
   240  2.3900000000000D+00  0.0000000000000D+00  0.0000000000000D+00
   241  2.4000000000000D+00  0.0000000000000D+00  0.0000000000000D+00
   242  2.4100000000000D+00  0.0000000000000D+00  0.0000000000000D+00
   243  2.4200000000000D+00  0.0000000000000D+00  0.0000000000000D+00
   244  2.4300000000000D+00  0.0000000000000D+00  0.0000000000000D+00
   245  2.4400000000000D+00  0.0000000000000D+00  0.0000000000000D+00
   246  2.4500000000000D+00  0.0000000000000D+00  0.0000000000000D+00
   247  2.4600000000000D+00  0.0000000000000D+00  0.0000000000000D+00
   248  2.4700000000000D+00  0.0000000000000D+00  0.0000000000000D+00
   249  2.4800000000000D+00  0.0000000000000D+00  0.0000000000000D+00
   250  2.4900000000000D+00  0.0000000000000D+00  0.0000000000000D+00
   251  2.5000000000000D+00  0.0000000000000D+00  0.0000000000000D+00
   252  2.5100000000000D+00  0.0000000000000D+00  0.0000000000000D+00
   253  2.5200000000000D+00  0.0000000000000D+00  0.0000000000000D+00
   254  2.5300000000000D+00  0.0000000000000D+00  0.0000000000000D+00
   255  2.5400000000000D+00  0.0000000000000D+00  0.0000000000000D+00
   256  2.5500000000000D+00  0.0000000000000D+00  0.0000000000000D+00
   257  2.5600000000000D+00  0.0000000000000D+00  0.0000000000000D+00
   258  2.5700000000000D+00  0.0000000000000D+00  0.0000000000000D+00
   259  2.5800000000000D+00  0.0000000000000D+00  0.0000000000000D+00
   260  2.5900000000000D+00  0.0000000000000D+00  0.0000000000000D+00
   261  2.6000000000000D+00  0.0000000000000D+00  0.0000000000000D+00
   262  2.6100000000000D+00  0.0000000000000D+00  0.0000000000000D+00
   263  2.6200000000000D+00  0.0000000000000D+00  0.0000000000000D+00
   264  2.6300000000000D+00  0.0000000000000D+00  0.0000000000000D+00
   265  2.6400000000000D+00  0.0000000000000D+00  0.0000000000000D+00
   266  2.6500000000000D+00  0.0000000000000D+00  0.0000000000000D+00
   267  2.6600000000000D+00  0.0000000000000D+00  0.0000000000000D+00
   268  2.6700000000000D+00  0.0000000000000D+00  0.0000000000000D+00
   269  2.6800000000000D+00  0.0000000000000D+00  0.0000000000000D+00
   270  2.6900000000000D+00  0.0000000000000D+00  0.0000000000000D+00
   271  2.7000000000000D+00  0.0000000000000D+00  0.0000000000000D+00
   272  2.7100000000000D+00  0.0000000000000D+00  0.0000000000000D+00
   273  2.7200000000000D+00  0.0000000000000D+00  0.0000000000000D+00
   274  2.7300000000000D+00  0.0000000000000D+00  0.0000000000000D+00
   275  2.7400000000000D+00  0.0000000000000D+00  0.0000000000000D+00
   276  2.7500000000000D+00  0.0000000000000D+00  0.0000000000000D+00
   277  2.7600000000000D+00  0.0000000000000D+00  0.0000000000000D+00
   278  2.7700000000000D+00  0.0000000000000D+00  0.0000000000000D+00
   279  2.7800000000000D+00  0.0000000000000D+00  0.0000000000000D+00
   280  2.7900000000000D+00  0.0000000000000D+00  0.0000000000000D+00
   281  2.8000000000000D+00  0.0000000000000D+00  0.0000000000000D+00
   282  2.8100000000000D+00  0.0000000000000D+00  0.0000000000000D+00
   283  2.8200000000000D+00  0.0000000000000D+00  0.0000000000000D+00
   284  2.8300000000000D+00  0.0000000000000D+00  0.0000000000000D+00
   285  2.8400000000000D+00  0.0000000000000D+00  0.0000000000000D+00
   286  2.8500000000000D+00  0.0000000000000D+00  0.0000000000000D+00
   287  2.8600000000000D+00  0.0000000000000D+00  0.0000000000000D+00
   288  2.8700000000000D+00  0.0000000000000D+00  0.0000000000000D+00
   289  2.8800000000000D+00  0.0000000000000D+00  0.0000000000000D+00
   290  2.8900000000000D+00  0.0000000000000D+00  0.0000000000000D+00
   291  2.9000000000000D+00  0.0000000000000D+00  0.0000000000000D+00
   292  2.9100000000000D+00  0.0000000000000D+00  0.0000000000000D+00
   293  2.9200000000000D+00  0.0000000000000D+00  0.0000000000000D+00
   294  2.9300000000000D+00  0.0000000000000D+00  0.0000000000000D+00
   295  2.9400000000000D+00  0.0000000000000D+00  0.0000000000000D+00
   296  2.9500000000000D+00  0.0000000000000D+00  0.0000000000000D+00
   297  2.9600000000000D+00  0.0000000000000D+00  0.0000000000000D+00
   298  2.9700000000000D+00  0.0000000000000D+00  0.0000000000000D+00
   299  2.9800000000000D+00  0.0000000000000D+00  0.0000000000000D+00
   300  2.9900000000000D+00  0.0000000000000D+00  0.0000000000000D+00
   301  3.0000000000000D+00  0.0000000000000D+00  0.0000000000000D+00
   302  3.0100000000000D+00  0.0000000000000D+00  0.0000000000000D+00
   303  3.0200000000000D+00  0.0000000000000D+00  0.0000000000000D+00
   304  3.0300000000000D+00  0.0000000000000D+00  0.0000000000000D+00
   305  3.0400000000000D+00  0.0000000000000D+00  0.0000000000000D+00
   306  3.0500000000000D+00  0.0000000000000D+00  0.0000000000000D+00
   307  3.0600000000000D+00  0.0000000000000D+00  0.0000000000000D+00
   308  3.0700000000000D+00  0.0000000000000D+00  0.0000000000000D+00
   309  3.0800000000000D+00  0.0000000000000D+00  0.0000000000000D+00
   310  3.0900000000000D+00  0.0000000000000D+00  0.0000000000000D+00
   311  3.1000000000000D+00  0.0000000000000D+00  0.0000000000000D+00
   312  3.1100000000000D+00  0.0000000000000D+00  0.0000000000000D+00
   313  3.1200000000000D+00  0.0000000000000D+00  0.0000000000000D+00
   314  3.1300000000000D+00  0.0000000000000D+00  0.0000000000000D+00
   315  3.1400000000000D+00  0.0000000000000D+00  0.0000000000000D+00
   316  3.1500000000000D+00  0.0000000000000D+00  0.0000000000000D+00
   317  3.1600000000000D+00  0.0000000000000D+00  0.0000000000000D+00
   318  3.1700000000000D+00  0.0000000000000D+00  0.0000000000000D+00
   319  3.1800000000000D+00  0.0000000000000D+00  0.0000000000000D+00
   320  3.1900000000000D+00  0.0000000000000D+00  0.0000000000000D+00
   321  3.2000000000000D+00  0.0000000000000D+00  0.0000000000000D+00
   322  3.2100000000000D+00  0.0000000000000D+00  0.0000000000000D+00
   323  3.2200000000000D+00  0.0000000000000D+00  0.0000000000000D+00
   324  3.2300000000000D+00  0.0000000000000D+00  0.0000000000000D+00
   325  3.2400000000000D+00  0.0000000000000D+00  0.0000000000000D+00
   326  3.2500000000000D+00  0.0000000000000D+00  0.0000000000000D+00
   327  3.2600000000000D+00  0.0000000000000D+00  0.0000000000000D+00
   328  3.2700000000000D+00  0.0000000000000D+00  0.0000000000000D+00
   329  3.2800000000000D+00  0.0000000000000D+00  0.0000000000000D+00
   330  3.2900000000000D+00  0.0000000000000D+00  0.0000000000000D+00
   331  3.3000000000000D+00  0.0000000000000D+00  0.0000000000000D+00
   332  3.3100000000000D+00  0.0000000000000D+00  0.0000000000000D+00
   333  3.3200000000000D+00  0.0000000000000D+00  0.0000000000000D+00
   334  3.3300000000000D+00  0.0000000000000D+00  0.0000000000000D+00
   335  3.3400000000000D+00  0.0000000000000D+00  0.0000000000000D+00
   336  3.3500000000000D+00  0.0000000000000D+00  0.0000000000000D+00
   337  3.3600000000000D+00  0.0000000000000D+00  0.0000000000000D+00
   338  3.3700000000000D+00  0.0000000000000D+00  0.0000000000000D+00
   339  3.3800000000000D+00  0.0000000000000D+00  0.0000000000000D+00
   340  3.3900000000000D+00  0.0000000000000D+00  0.0000000000000D+00
   341  3.4000000000000D+00  0.0000000000000D+00  0.0000000000000D+00
   342  3.4100000000000D+00  0.0000000000000D+00  0.0000000000000D+00
   343  3.4200000000000D+00  0.0000000000000D+00  0.0000000000000D+00
   344  3.4300000000000D+00  0.0000000000000D+00  0.0000000000000D+00
   345  3.4400000000000D+00  0.0000000000000D+00  0.0000000000000D+00
   346  3.4500000000000D+00  0.0000000000000D+00  0.0000000000000D+00
   347  3.4600000000000D+00  0.0000000000000D+00  0.0000000000000D+00
   348  3.4700000000000D+00  0.0000000000000D+00  0.0000000000000D+00
   349  3.4800000000000D+00  0.0000000000000D+00  0.0000000000000D+00
   350  3.4900000000000D+00  0.0000000000000D+00  0.0000000000000D+00
   351  3.5000000000000D+00  0.0000000000000D+00  0.0000000000000D+00
   352  3.5100000000000D+00  0.0000000000000D+00  0.0000000000000D+00
   353  3.5200000000000D+00  0.0000000000000D+00  0.0000000000000D+00
   354  3.5300000000000D+00  0.0000000000000D+00  0.0000000000000D+00
   355  3.5400000000000D+00  0.0000000000000D+00  0.0000000000000D+00
   356  3.5500000000000D+00  0.0000000000000D+00  0.0000000000000D+00
   357  3.5600000000000D+00  0.0000000000000D+00  0.0000000000000D+00
   358  3.5700000000000D+00  0.0000000000000D+00  0.0000000000000D+00
   359  3.5800000000000D+00  0.0000000000000D+00  0.0000000000000D+00
   360  3.5900000000000D+00  0.0000000000000D+00  0.0000000000000D+00
   361  3.6000000000000D+00  0.0000000000000D+00  0.0000000000000D+00
   362  3.6100000000000D+00  0.0000000000000D+00  0.0000000000000D+00
   363  3.6200000000000D+00  0.0000000000000D+00  0.0000000000000D+00
   364  3.6300000000000D+00  0.0000000000000D+00  0.0000000000000D+00
   365  3.6400000000000D+00  0.0000000000000D+00  0.0000000000000D+00
   366  3.6500000000000D+00  0.0000000000000D+00  0.0000000000000D+00
   367  3.6600000000000D+00  0.0000000000000D+00  0.0000000000000D+00
   368  3.6700000000000D+00  0.0000000000000D+00  0.0000000000000D+00
   369  3.6800000000000D+00  0.0000000000000D+00  0.0000000000000D+00
   370  3.6900000000000D+00  0.0000000000000D+00  0.0000000000000D+00
   371  3.7000000000000D+00  0.0000000000000D+00  0.0000000000000D+00
   372  3.7100000000000D+00  0.0000000000000D+00  0.0000000000000D+00
   373  3.7200000000000D+00  0.0000000000000D+00  0.0000000000000D+00
   374  3.7300000000000D+00  0.0000000000000D+00  0.0000000000000D+00
   375  3.7400000000000D+00  0.0000000000000D+00  0.0000000000000D+00
   376  3.7500000000000D+00  0.0000000000000D+00  0.0000000000000D+00
   377  3.7600000000000D+00  0.0000000000000D+00  0.0000000000000D+00
   378  3.7700000000000D+00  0.0000000000000D+00  0.0000000000000D+00
   379  3.7800000000000D+00  0.0000000000000D+00  0.0000000000000D+00
   380  3.7900000000000D+00  0.0000000000000D+00  0.0000000000000D+00
   381  3.8000000000000D+00  0.0000000000000D+00  0.0000000000000D+00
   382  3.8100000000000D+00  0.0000000000000D+00  0.0000000000000D+00
   383  3.8200000000000D+00  0.0000000000000D+00  0.0000000000000D+00
   384  3.8300000000000D+00  0.0000000000000D+00  0.0000000000000D+00
   385  3.8400000000000D+00  0.0000000000000D+00  0.0000000000000D+00
   386  3.8500000000000D+00  0.0000000000000D+00  0.0000000000000D+00
   387  3.8600000000000D+00  0.0000000000000D+00  0.0000000000000D+00
   388  3.8700000000000D+00  0.0000000000000D+00  0.0000000000000D+00
   389  3.8800000000000D+00  0.0000000000000D+00  0.0000000000000D+00
   390  3.8900000000000D+00  0.0000000000000D+00  0.0000000000000D+00
   391  3.9000000000000D+00  0.0000000000000D+00  0.0000000000000D+00
   392  3.9100000000000D+00  0.0000000000000D+00  0.0000000000000D+00
   393  3.9200000000000D+00  0.0000000000000D+00  0.0000000000000D+00
   394  3.9300000000000D+00  0.0000000000000D+00  0.0000000000000D+00
   395  3.9400000000000D+00  0.0000000000000D+00  0.0000000000000D+00
   396  3.9500000000000D+00  0.0000000000000D+00  0.0000000000000D+00
   397  3.9600000000000D+00  0.0000000000000D+00  0.0000000000000D+00
   398  3.9700000000000D+00  0.0000000000000D+00  0.0000000000000D+00
   399  3.9800000000000D+00  0.0000000000000D+00  0.0000000000000D+00
   400  3.9900000000000D+00  0.0000000000000D+00  0.0000000000000D+00
   401  4.0000000000000D+00  0.0000000000000D+00  0.0000000000000D+00
   402  4.0100000000000D+00  0.0000000000000D+00  0.0000000000000D+00
   403  4.0200000000000D+00  0.0000000000000D+00  0.0000000000000D+00
   404  4.0300000000000D+00  0.0000000000000D+00  0.0000000000000D+00
   405  4.0400000000000D+00  0.0000000000000D+00  0.0000000000000D+00
   406  4.0500000000000D+00  0.0000000000000D+00  0.0000000000000D+00
   407  4.0600000000000D+00  0.0000000000000D+00  0.0000000000000D+00
   408  4.0700000000000D+00  0.0000000000000D+00  0.0000000000000D+00
   409  4.0800000000000D+00  0.0000000000000D+00  0.0000000000000D+00
   410  4.0900000000000D+00  0.0000000000000D+00  0.0000000000000D+00
   411  4.1000000000000D+00  0.0000000000000D+00  0.0000000000000D+00
   412  4.1100000000000D+00  0.0000000000000D+00  0.0000000000000D+00
   413  4.1200000000000D+00  0.0000000000000D+00  0.0000000000000D+00
   414  4.1300000000000D+00  0.0000000000000D+00  0.0000000000000D+00
   415  4.1400000000000D+00  0.0000000000000D+00  0.0000000000000D+00
   416  4.1500000000000D+00  0.0000000000000D+00  0.0000000000000D+00
   417  4.1600000000000D+00  0.0000000000000D+00  0.0000000000000D+00
   418  4.1700000000000D+00  0.0000000000000D+00  0.0000000000000D+00
   419  4.1800000000000D+00  0.0000000000000D+00  0.0000000000000D+00
   420  4.1900000000000D+00  0.0000000000000D+00  0.0000000000000D+00
   421  4.2000000000000D+00  0.0000000000000D+00  0.0000000000000D+00
   422  4.2100000000000D+00  0.0000000000000D+00  0.0000000000000D+00