Ga    ONCVPSP-3.3.1  r_core=   2.35819   2.44411   1.99550
     31.0000     13.0000      210904    zatom,zion,pspd
     8       2   2     4   600     0    pspcod,pspxc,lmax,lloc,mmax,r2well
  5.99000000  0.00000000  0.00000000    rchrg fchrg qchrg
     2     2     2     0     0    nproj
     1     1           extension_switch
   0                         4.8082708617689D+00  3.4513728594956D-01
     1  0.0000000000000D+00  2.9671543000376D-12 -2.5446578871824D-11
     2  1.0000000000000D-02  2.5283735895278D-02  4.2100108626277D-03
     3  2.0000000000000D-02  5.0565503677640D-02  8.3618053956970D-03
     4  3.0000000000000D-02  7.5843288093424D-02  1.2397486250541D-02
     5  4.0000000000000D-02  1.0111497981507D-01  1.6259792581584D-02
     6  5.0000000000000D-02  1.2637832892235D-01  1.9892414657644D-02
     7  6.0000000000000D-02  1.5163089900340D-01  2.3240304122949D-02
     8  7.0000000000000D-02  1.7687002207845D-01  2.6249978487818D-02
     9  8.0000000000000D-02  2.0209275454655D-01  2.8869818454383D-02
    10  9.0000000000000D-02  2.2729583435149D-01  3.1050356714542D-02
    11  1.0000000000000D-01  2.5247563955888D-01  3.2744556895010D-02
    12  1.1000000000000D-01  2.7762814853126D-01  3.3908081367946D-02
    13  1.2000000000000D-01  3.0274890188209D-01  3.4499546694986D-02
    14  1.3000000000000D-01  3.2783296638321D-01  3.4480765527173D-02
    15  1.4000000000000D-01  3.5287490099311D-01  3.3816973843365D-02
    16  1.5000000000000D-01  3.7786872516563D-01  3.2477042474489D-02
    17  1.6000000000000D-01  4.0280788959041D-01  3.0433671930793D-02
    18  1.7000000000000D-01  4.2768524950756D-01  2.7663569623094D-02
    19  1.8000000000000D-01  4.5249304072938D-01  2.4147608647086D-02
    20  1.9000000000000D-01  4.7722285849253D-01  1.9870967381521D-02
    21  2.0000000000000D-01  5.0186563925296D-01  1.4823249236146D-02
    22  2.1000000000000D-01  5.2641164552585D-01  8.9985819732495D-03
    23  2.2000000000000D-01  5.5085045386101D-01  2.3956961173734D-03
    24  2.3000000000000D-01  5.7517094603309D-01 -4.9820179394807D-03
    25  2.4000000000000D-01  5.9936130351368D-01 -1.3126474435306D-02
    26  2.5000000000000D-01  6.2340900528061D-01 -2.2024878540324D-02
    27  2.6000000000000D-01  6.4730082900726D-01 -3.1659734569439D-02
    28  2.7000000000000D-01  6.7102285566195D-01 -4.2008876112683D-02
    29  2.8000000000000D-01  6.9456047753520D-01 -5.3045517994485D-02
    30  2.9000000000000D-01  7.1789840969948D-01 -6.4738329874902D-02
    31  3.0000000000000D-01  7.4102070489344D-01 -7.7051531210266D-02
    32  3.1000000000000D-01  7.6391077180984D-01 -8.9945007195296D-02
    33  3.2000000000000D-01  7.8655139675320D-01 -1.0337444521528D-01
    34  3.3000000000000D-01  8.0892476862106D-01 -1.1729149124588D-01
    35  3.4000000000000D-01  8.3101250714960D-01 -1.3164392554879D-01
    36  3.5000000000000D-01  8.5279569435229D-01 -1.4637585692584D-01
    37  3.6000000000000D-01  8.7425490906792D-01 -1.6142793471108D-01
    38  3.7000000000000D-01  8.9537026452233D-01 -1.7673757760121D-01
    39  3.8000000000000D-01  9.1612144879672D-01 -1.9223921834976D-01
    40  3.9000000000000D-01  9.3648776808396D-01 -2.0786456327922D-01
    41  4.0000000000000D-01  9.5644819260342D-01 -2.2354286549908D-01
    42  4.1000000000000D-01  9.7598140503443D-01 -2.3920121065674D-01
    43  4.2000000000000D-01  9.9506585131844D-01 -2.5476481399153D-01
    44  4.3000000000000D-01  1.0136797936703D+00 -2.7015732741190D-01
    45  4.4000000000000D-01  1.0318013656304D+00 -2.8530115527042D-01
    46  4.5000000000000D-01  1.0494086289803D+00 -3.0011777747243D-01
    47  4.6000000000000D-01  1.0664796323377D+00 -3.1452807852077D-01
    48  4.7000000000000D-01  1.0829924712385D+00 -3.2845268107254D-01
    49  4.8000000000000D-01  1.0989253495075D+00 -3.4181228256290D-01
    50  4.9000000000000D-01  1.1142566417134D+00 -3.5452799343727D-01
    51  5.0000000000000D-01  1.1289649564984D+00 -3.6652167552529D-01
    52  5.1000000000000D-01  1.1430292005694D+00 -3.7771627908909D-01
    53  5.2000000000000D-01  1.1564286431310D+00 -3.8803617708388D-01
    54  5.3000000000000D-01  1.1691429805426D+00 -3.9740749518051D-01
    55  5.4000000000000D-01  1.1811524009744D+00 -4.0575843611879D-01
    56  5.5000000000000D-01  1.1924376488389D+00 -4.1301959698432D-01
    57  5.6000000000000D-01  1.2029800887736D+00 -4.1912427803336D-01
    58  5.7000000000000D-01  1.2127617689498D+00 -4.2400878172690D-01
    59  5.8000000000000D-01  1.2217654834828D+00 -4.2761270067888D-01
    60  5.9000000000000D-01  1.2299748337237D+00 -4.2987919327165D-01
    61  6.0000000000000D-01  1.2373742882118D+00 -4.3075524574681D-01
    62  6.1000000000000D-01  1.2439492410711D+00 -4.3019191963898D-01
    63  6.2000000000000D-01  1.2496860686402D+00 -4.2814458348473D-01
    64  6.3000000000000D-01  1.2545721841277D+00 -4.2457312780853D-01
    65  6.4000000000000D-01  1.2585960900907D+00 -4.1944216246114D-01
    66  6.5000000000000D-01  1.2617474285426D+00 -4.1272119546403D-01
    67  6.6000000000000D-01  1.2640170285000D+00 -4.0438479259439D-01
    68  6.7000000000000D-01  1.2653969507891D+00 -3.9441271703111D-01
    69  6.8000000000000D-01  1.2658805299391D+00 -3.8279004846870D-01
    70  6.9000000000000D-01  1.2654624129987D+00 -3.6950728119737D-01
    71  7.0000000000000D-01  1.2641385951216D+00 -3.5456040073955D-01
    72  7.1000000000000D-01  1.2619064517786D+00 -3.3795093872707D-01
    73  7.2000000000000D-01  1.2587647674604D+00 -3.1968600579847D-01
    74  7.3000000000000D-01  1.2547137607524D+00 -2.9977830239251D-01
    75  7.4000000000000D-01  1.2497551056677D+00 -2.7824610740967D-01
    76  7.5000000000000D-01  1.2438919491425D+00 -2.5511324481037D-01
    77  7.6000000000000D-01  1.2371289246062D+00 -2.3040902831392D-01
    78  7.7000000000000D-01  1.2294721615529D+00 -2.0416818445762D-01
    79  7.8000000000000D-01  1.2209292910547D+00 -1.7643075436803D-01
    80  7.9000000000000D-01  1.2115094471688D+00 -1.4724197468862D-01
    81  8.0000000000000D-01  1.2012232642045D+00 -1.1665213819703D-01
    82  8.1000000000000D-01  1.1900828698310D+00 -8.4716434731525D-02
    83  8.2000000000000D-01  1.1781018740174D+00 -5.1494773129773D-02
    84  8.3000000000000D-01  1.1652953538145D+00 -1.7051584963518D-02
    85  8.4000000000000D-01  1.1516798339971D+00  1.8544389072141D-02
    86  8.5000000000000D-01  1.1372732636027D+00  5.5220329183149D-02
    87  8.6000000000000D-01  1.1220949884140D+00  9.2899581915960D-02
    88  8.7000000000000D-01  1.1061657194469D+00  1.3150191995087D-01
    89  8.8000000000000D-01  1.0895074975193D+00  1.7094381513020D-01
    90  8.9000000000000D-01  1.0721436539880D+00  2.1113872355021D-01
    91  9.0000000000000D-01  1.0540987677537D+00  2.5199738149921D-01
    92  9.1000000000000D-01  1.0353986186488D+00  2.9342811098333D-01
    93  9.2000000000000D-01  1.0160701373312D+00  3.3533713354633D-01
    94  9.3000000000000D-01  9.9614135182125D-01  3.7762889106157D-01
    95  9.4000000000000D-01  9.7564133083075D-01  4.2020637215106D-01
    96  9.5000000000000D-01  9.5460012404050D-01  4.6297144287073D-01
    97  9.6000000000000D-01  9.3304869949659D-01  5.0582518029078D-01
    98  9.7000000000000D-01  9.1101887830291D-01  5.4866820759631D-01
    99  9.8000000000000D-01  8.8854326679718D-01  5.9140102933636D-01
   100  9.9000000000000D-01  8.6565518640600D-01  6.3392436545857D-01
   101  1.0000000000000D+00  8.4238860138212D-01  6.7613948278144D-01
   102  1.0100000000000D+00  8.1877804463411D-01  7.1794852257783D-01
   103  1.0200000000000D+00  7.9485854186496D-01  7.5925482297127D-01
   104  1.0300000000000D+00  7.7066553424150D-01  7.9996323487841D-01
   105  1.0400000000000D+00  7.4623479982163D-01  8.3998043027046D-01
   106  1.0500000000000D+00  7.2160237397011D-01  8.7921520157105D-01
   107  1.0600000000000D+00  6.9680446899717D-01  9.1757875105608D-01
   108  1.0700000000000D+00  6.7187739325643D-01  9.5498496917613D-01
   109  1.0800000000000D+00  6.4685746994033D-01  9.9135070078238D-01
   110  1.0900000000000D+00  6.2178095581245D-01  1.0265959982929D+00
   111  1.1000000000000D+00  5.9668396011559D-01  1.0606443609128D+00
   112  1.1100000000000D+00  5.7160236389439D-01  1.0934229590850D+00
   113  1.1200000000000D+00  5.4657173996911D-01  1.1248628434278D+00
   114  1.1300000000000D+00  5.2162727379533D-01  1.1548991374817D+00
   115  1.1400000000000D+00  4.9680368544124D-01  1.1834712136775D+00
   116  1.1500000000000D+00  4.7213515290994D-01  1.2105228520122D+00
   117  1.1600000000000D+00  4.4765523702945D-01  1.2360023810093D+00
   118  1.1700000000000D+00  4.2339680812893D-01  1.2598628006050D+00
   119  1.1800000000000D+00  3.9939197471227D-01  1.2820618867056D+00
   120  1.1900000000000D+00  3.7567201433403D-01  1.3025622772373D+00
   121  1.2000000000000D+00  3.5226730687427D-01  1.3213315396000D+00
   122  1.2100000000000D+00  3.2920727040420D-01  1.3383422194942D+00
   123  1.2200000000000D+00  3.0652029982153D-01  1.3535718712110D+00
   124  1.2300000000000D+00  2.8423370842633D-01  1.3670030695407D+00
   125  1.2400000000000D+00  2.6237367260267D-01  1.3786234035074D+00
   126  1.2500000000000D+00  2.4096517975581D-01  1.3884254522542D+00
   127  1.2600000000000D+00  2.2003197964433D-01  1.3964067434699D+00
   128  1.2700000000000D+00  1.9959653924097D-01  1.4025696947856D+00
   129  1.2800000000000D+00  1.7968000123994D-01  1.4069215386717D+00
   130  1.2900000000000D+00  1.6030214631362D-01  1.4094742314381D+00
   131  1.3000000000000D+00  1.4148135921929D-01  1.4102443469506D+00
   132  1.3100000000000D+00  1.2323459883714D-01  1.4092529557790D+00
   133  1.3200000000000D+00  1.0557737220344D-01  1.4065254905448D+00
   134  1.3300000000000D+00  8.8523712607006D-02  1.4020915982302D+00
   135  1.3400000000000D+00  7.2086161787732D-02  1.3959849803167D+00
   136  1.3500000000000D+00  5.6275756263520D-02  1.3882432216301D+00
   137  1.3600000000000D+00  4.1102017821627D-02  1.3789076087717D+00
   138  1.3700000000000D+00  2.6572948163332D-02  1.3680229391049D+00
   139  1.3800000000000D+00  1.2695027703831D-02  1.3556373212265D+00
   140  1.3900000000000D+00 -5.2678148462197D-04  1.3418019679021D+00
   141  1.4000000000000D+00 -1.3089028635171D-02  1.3265709824432D+00
   142  1.4100000000000D+00 -2.4989763175531D-02  1.3100011395058D+00
   143  1.4200000000000D+00 -3.6228519614251D-02  1.2921516613020D+00
   144  1.4300000000000D+00 -4.6806298488671D-02  1.2730839901764D+00
   145  1.4400000000000D+00 -5.6725543437957D-02  1.2528615585523D+00
   146  1.4500000000000D+00 -6.5990114515224D-02  1.2315495571338D+00
   147  1.4600000000000D+00 -7.4605257807797D-02  1.2092147023547D+00
   148  1.4700000000000D+00 -8.2577571498899D-02  1.1859250039181D+00
   149  1.4800000000000D+00 -8.9914968476143D-02  1.1617495333082D+00
   150  1.4900000000000D+00 -9.6626635611761D-02  1.1367581941474D+00
   151  1.5000000000000D+00 -1.0272298986630D-01  1.1110214950737D+00
   152  1.5100000000000D+00 -1.0821563133192D-01  1.0846103260725D+00
   153  1.5200000000000D+00 -1.1311729339835D-01  1.0575957387273D+00
   154  1.5300000000000D+00 -1.1744179016693D-01  1.0300487312846D+00
   155  1.5400000000000D+00 -1.2120396130224D-01  1.0020400389171D+00
   156  1.5500000000000D+00 -1.2441961447144D-01  9.7363992987399D-01
   157  1.5600000000000D+00 -1.2710546555508D-01  9.4491800794241D-01
   158  1.5700000000000D+00 -1.2927907680291D-01  9.1594302160916D-01
   159  1.5800000000000D+00 -1.3095879311438D-01  8.8678268042511D-01
   160  1.5900000000000D+00 -1.3216367663102D-01  8.5750347863440D-01
   161  1.6000000000000D+00 -1.3291343982177D-01  8.2817052665499D-01
   162  1.6100000000000D+00 -1.3322837725080D-01  7.9884739014374D-01
   163  1.6200000000000D+00 -1.3312929621607D-01  7.6959593730347D-01
   164  1.6300000000000D+00 -1.3263744643992D-01  7.4047619386778D-01
   165  1.6400000000000D+00 -1.3177444901105D-01  7.1154620643420D-01
   166  1.6500000000000D+00 -1.3056222474393D-01  6.8286191338898D-01
   167  1.6600000000000D+00 -1.2902292216529D-01  6.5447702398242D-01
   168  1.6700000000000D+00 -1.2717884527589D-01  6.2644290472721D-01
   169  1.6800000000000D+00 -1.2505238130484D-01  5.9880847351342D-01
   170  1.6900000000000D+00 -1.2266592858395D-01  5.7162010056409D-01
   171  1.7000000000000D+00 -1.2004182476621D-01  5.4492151647898D-01
   172  1.7100000000000D+00 -1.1720227549022D-01  5.1875372644193D-01
   173  1.7200000000000D+00 -1.1416928372364D-01  4.9315493071567D-01
   174  1.7300000000000D+00 -1.1096457985377D-01  4.6816045046051D-01
   175  1.7400000000000D+00 -1.0760955277325D-01  4.4380265888853D-01
   176  1.7500000000000D+00 -1.0412518198424D-01  4.2011091678025D-01
   177  1.7600000000000D+00 -1.0053197099210D-01  3.9711151225181D-01
   178  1.7700000000000D+00 -9.6849881957693D-02  3.7482760385209D-01
   179  1.7800000000000D+00 -9.3098271902095D-02  3.5327916670776D-01
   180  1.7900000000000D+00 -8.9295830390335D-02  3.3248294094420D-01
   181  1.8000000000000D+00 -8.5460518980773D-02  3.1245238187275D-01
   182  1.8100000000000D+00 -8.1609512359866D-02  2.9319761138335D-01
   183  1.8200000000000D+00 -7.7759140795183D-02  2.7472536484327D-01
   184  1.8300000000000D+00 -7.3924837461885D-02  2.5703896259204D-01
   185  1.8400000000000D+00 -7.0121079249132D-02  2.4013821263753D-01
   186  1.8500000000000D+00 -6.6361346732917D-02  2.2401944446876D-01
   187  1.8600000000000D+00 -6.2658079372993D-02  2.0867549395528D-01
   188  1.8700000000000D+00 -5.9022594359302D-02  1.9409537864280D-01
   189  1.8800000000000D+00 -5.5465029336015D-02  1.8026411903810D-01
   190  1.8900000000000D+00 -5.1994440947245D-02  1.6716383356134D-01
   191  1.9000000000000D+00 -4.8618840578476D-02  1.5477433676950D-01
   192  1.9100000000000D+00 -4.5345275859307D-02  1.4307385038468D-01
   193  1.9200000000000D+00 -4.2179971768833D-02  1.3204023984340D-01
   194  1.9300000000000D+00 -3.9128332622657D-02  1.2165104359956D-01
   195  1.9400000000000D+00 -3.6194933251158D-02  1.1188335458022D-01
   196  1.9500000000000D+00 -3.3383537339213D-02  1.0271390977365D-01
   197  1.9600000000000D+00 -3.0697134584541D-02  9.4119335529188D-02
   198  1.9700000000000D+00 -2.8137956947475D-02  8.6076175251913D-02
   199  1.9800000000000D+00 -2.5707509208024D-02  7.8561017937717D-02
   200  1.9900000000000D+00 -2.3406596955745D-02  7.1550582974212D-02
   201  2.0000000000000D+00 -2.1235357301254D-02  6.5021804377233D-02
   202  2.0100000000000D+00 -1.9193291207477D-02  5.8951908655942D-02
   203  2.0200000000000D+00 -1.7279297351662D-02  5.3318485444939D-02
   204  2.0300000000000D+00 -1.5491707398018D-02  4.8099550469686D-02
   205  2.0400000000000D+00 -1.3828322451616D-02  4.3273602337950D-02
   206  2.0500000000000D+00 -1.2286450651435D-02  3.8819670871546D-02
   207  2.0600000000000D+00 -1.0862945655746D-02  3.4717359505893D-02
   208  2.0700000000000D+00 -9.5542459206107D-03  3.0946880083546D-02
   209  2.0800000000000D+00 -8.3564146024487D-03  2.7489080901195D-02
   210  2.0900000000000D+00 -7.2651799260910D-03  2.4325468784009D-02
   211  2.1000000000000D+00 -6.2759758561241D-03  2.1438223904360D-02
   212  2.1100000000000D+00 -5.3839829496557D-03  1.8810209551174D-02
   213  2.1200000000000D+00 -4.5841691829914D-03  1.6424975592934D-02
   214  2.1300000000000D+00 -3.8713306366585D-03  1.4266756742398D-02
   215  2.1400000000000D+00 -3.2401319130045D-03  1.2320466244532D-02
   216  2.1500000000000D+00 -2.6851460234517D-03  1.0571684434121D-02
   217  2.1600000000000D+00 -2.2008937775204D-03  9.0066437224160D-03
   218  2.1700000000000D+00 -1.7818823572404D-03  7.6122096744568D-03
   219  2.1800000000000D+00 -1.4226430028719D-03  6.3758588928357D-03
   220  2.1900000000000D+00 -1.1177678012031D-03  5.2856542913589D-03
   221  2.2000000000000D+00 -8.6194513042735D-04  4.3302180575794D-03
   222  2.2100000000000D+00 -6.4999400146931D-04  3.4987027878786D-03
   223  2.2200000000000D+00 -4.7689694213216D-04  2.7807613743243D-03
   224  2.2300000000000D+00 -3.3783126652281D-04  2.1665162329722D-03
   225  2.2400000000000D+00 -2.2819895422166D-04  1.6465276341954D-03
   226  2.2500000000000D+00 -1.4365454039395D-04  1.2117627716767D-03
   227  2.2600000000000D+00 -8.0131287911961D-05  8.5356503031596D-04
   228  2.2700000000000D+00 -3.3865573158093D-05  5.6362370133846D-04
   229  2.2800000000000D+00 -1.3658171197731D-06  3.3370221723090D-04
   230  2.2900000000000D+00  2.0412989031396D-05  1.5631880774962D-04
   231  2.3000000000000D+00  3.4064375654291D-05  2.4661377752212D-05
   232  2.3100000000000D+00  4.1370803035592D-05 -6.6250333610788D-05
   233  2.3200000000000D+00  4.5449063880774D-05 -1.2806155135544D-04
   234  2.3300000000000D+00  4.8708457527342D-05 -1.7104953884655D-04
   235  2.3400000000000D+00  5.4119843526761D-05 -2.0855379188775D-04
   236  2.3500000000000D+00  5.5839134356613D-05 -2.2171367975260D-04
   237  2.3600000000000D+00  4.9285126292129D-05 -1.9671419497727D-04
   238  2.3700000000000D+00  3.1173431205011D-05 -1.2454393393274D-04
   239  2.3800000000000D+00  1.0945493886847D-05 -4.3659956949630D-05
   240  2.3900000000000D+00 -2.8495407295933D-06  1.1464386056303D-05
   241  2.4000000000000D+00 -5.4894041302244D-06  2.2095980701593D-05
   242  2.4100000000000D+00 -2.4195900747621D-06  9.7412616318833D-06
   243  2.4200000000000D+00  7.3544338078323D-07 -2.9696180361845D-06
   244  2.4300000000000D+00  1.2301518215620D-06 -4.9702437993457D-06
   245  2.4400000000000D+00  4.8471644368760D-07 -1.9594194115064D-06
   246  2.4500000000000D+00 -9.5662014420879D-08  3.8154558905067D-07
   247  2.4600000000000D+00 -1.4353404445752D-07  5.7248200210821D-07
   248  2.4700000000000D+00 -4.9813305593998D-08  1.9867914281842D-07
   249  2.4800000000000D+00  0.0000000000000D+00  0.0000000000000D+00
   250  2.4900000000000D+00  0.0000000000000D+00  0.0000000000000D+00
   251  2.5000000000000D+00  0.0000000000000D+00  0.0000000000000D+00
   252  2.5100000000000D+00  0.0000000000000D+00  0.0000000000000D+00
   253  2.5200000000000D+00  0.0000000000000D+00  0.0000000000000D+00
   254  2.5300000000000D+00  0.0000000000000D+00  0.0000000000000D+00
   255  2.5400000000000D+00  0.0000000000000D+00  0.0000000000000D+00
   256  2.5500000000000D+00  0.0000000000000D+00  0.0000000000000D+00
   257  2.5600000000000D+00  0.0000000000000D+00  0.0000000000000D+00
   258  2.5700000000000D+00  0.0000000000000D+00  0.0000000000000D+00
   259  2.5800000000000D+00  0.0000000000000D+00  0.0000000000000D+00
   260  2.5900000000000D+00  0.0000000000000D+00  0.0000000000000D+00
   261  2.6000000000000D+00  0.0000000000000D+00  0.0000000000000D+00
   262  2.6100000000000D+00  0.0000000000000D+00  0.0000000000000D+00
   263  2.6200000000000D+00  0.0000000000000D+00  0.0000000000000D+00
   264  2.6300000000000D+00  0.0000000000000D+00  0.0000000000000D+00
   265  2.6400000000000D+00  0.0000000000000D+00  0.0000000000000D+00
   266  2.6500000000000D+00  0.0000000000000D+00  0.0000000000000D+00
   267  2.6600000000000D+00  0.0000000000000D+00  0.0000000000000D+00
   268  2.6700000000000D+00  0.0000000000000D+00  0.0000000000000D+00
   269  2.6800000000000D+00  0.0000000000000D+00  0.0000000000000D+00
   270  2.6900000000000D+00  0.0000000000000D+00  0.0000000000000D+00
   271  2.7000000000000D+00  0.0000000000000D+00  0.0000000000000D+00
   272  2.7100000000000D+00  0.0000000000000D+00  0.0000000000000D+00
   273  2.7200000000000D+00  0.0000000000000D+00  0.0000000000000D+00
   274  2.7300000000000D+00  0.0000000000000D+00  0.0000000000000D+00
   275  2.7400000000000D+00  0.0000000000000D+00  0.0000000000000D+00
   276  2.7500000000000D+00  0.0000000000000D+00  0.0000000000000D+00
   277  2.7600000000000D+00  0.0000000000000D+00  0.0000000000000D+00
   278  2.7700000000000D+00  0.0000000000000D+00  0.0000000000000D+00
   279  2.7800000000000D+00  0.0000000000000D+00  0.0000000000000D+00
   280  2.7900000000000D+00  0.0000000000000D+00  0.0000000000000D+00
   281  2.8000000000000D+00  0.0000000000000D+00  0.0000000000000D+00
   282  2.8100000000000D+00  0.0000000000000D+00  0.0000000000000D+00
   283  2.8200000000000D+00  0.0000000000000D+00  0.0000000000000D+00
   284  2.8300000000000D+00  0.0000000000000D+00  0.0000000000000D+00
   285  2.8400000000000D+00  0.0000000000000D+00  0.0000000000000D+00
   286  2.8500000000000D+00  0.0000000000000D+00  0.0000000000000D+00
   287  2.8600000000000D+00  0.0000000000000D+00  0.0000000000000D+00
   288  2.8700000000000D+00  0.0000000000000D+00  0.0000000000000D+00
   289  2.8800000000000D+00  0.0000000000000D+00  0.0000000000000D+00
   290  2.8900000000000D+00  0.0000000000000D+00  0.0000000000000D+00
   291  2.9000000000000D+00  0.0000000000000D+00  0.0000000000000D+00
   292  2.9100000000000D+00  0.0000000000000D+00  0.0000000000000D+00
   293  2.9200000000000D+00  0.0000000000000D+00  0.0000000000000D+00
   294  2.9300000000000D+00  0.0000000000000D+00  0.0000000000000D+00
   295  2.9400000000000D+00  0.0000000000000D+00  0.0000000000000D+00
   296  2.9500000000000D+00  0.0000000000000D+00  0.0000000000000D+00
   297  2.9600000000000D+00  0.0000000000000D+00  0.0000000000000D+00
   298  2.9700000000000D+00  0.0000000000000D+00  0.0000000000000D+00
   299  2.9800000000000D+00  0.0000000000000D+00  0.0000000000000D+00
   300  2.9900000000000D+00  0.0000000000000D+00  0.0000000000000D+00
   301  3.0000000000000D+00  0.0000000000000D+00  0.0000000000000D+00
   302  3.0100000000000D+00  0.0000000000000D+00  0.0000000000000D+00
   303  3.0200000000000D+00  0.0000000000000D+00  0.0000000000000D+00
   304  3.0300000000000D+00  0.0000000000000D+00  0.0000000000000D+00
   305  3.0400000000000D+00  0.0000000000000D+00  0.0000000000000D+00
   306  3.0500000000000D+00  0.0000000000000D+00  0.0000000000000D+00
   307  3.0600000000000D+00  0.0000000000000D+00  0.0000000000000D+00
   308  3.0700000000000D+00  0.0000000000000D+00  0.0000000000000D+00
   309  3.0800000000000D+00  0.0000000000000D+00  0.0000000000000D+00
   310  3.0900000000000D+00  0.0000000000000D+00  0.0000000000000D+00
   311  3.1000000000000D+00  0.0000000000000D+00  0.0000000000000D+00
   312  3.1100000000000D+00  0.0000000000000D+00  0.0000000000000D+00
   313  3.1200000000000D+00  0.0000000000000D+00  0.0000000000000D+00
   314  3.1300000000000D+00  0.0000000000000D+00  0.0000000000000D+00
   315  3.1400000000000D+00  0.0000000000000D+00  0.0000000000000D+00
   316  3.1500000000000D+00  0.0000000000000D+00  0.0000000000000D+00
   317  3.1600000000000D+00  0.0000000000000D+00  0.0000000000000D+00
   318  3.1700000000000D+00  0.0000000000000D+00  0.0000000000000D+00
   319  3.1800000000000D+00  0.0000000000000D+00  0.0000000000000D+00
   320  3.1900000000000D+00  0.0000000000000D+00  0.0000000000000D+00
   321  3.2000000000000D+00  0.0000000000000D+00  0.0000000000000D+00
   322  3.2100000000000D+00  0.0000000000000D+00  0.0000000000000D+00
   323  3.2200000000000D+00  0.0000000000000D+00  0.0000000000000D+00
   324  3.2300000000000D+00  0.0000000000000D+00  0.0000000000000D+00
   325  3.2400000000000D+00  0.0000000000000D+00  0.0000000000000D+00
   326  3.2500000000000D+00  0.0000000000000D+00  0.0000000000000D+00
   327  3.2600000000000D+00  0.0000000000000D+00  0.0000000000000D+00
   328  3.2700000000000D+00  0.0000000000000D+00  0.0000000000000D+00
   329  3.2800000000000D+00  0.0000000000000D+00  0.0000000000000D+00
   330  3.2900000000000D+00  0.0000000000000D+00  0.0000000000000D+00
   331  3.3000000000000D+00  0.0000000000000D+00  0.0000000000000D+00
   332  3.3100000000000D+00  0.0000000000000D+00  0.0000000000000D+00
   333  3.3200000000000D+00  0.0000000000000D+00  0.0000000000000D+00
   334  3.3300000000000D+00  0.0000000000000D+00  0.0000000000000D+00
   335  3.3400000000000D+00  0.0000000000000D+00  0.0000000000000D+00
   336  3.3500000000000D+00  0.0000000000000D+00  0.0000000000000D+00
   337  3.3600000000000D+00  0.0000000000000D+00  0.0000000000000D+00
   338  3.3700000000000D+00  0.0000000000000D+00  0.0000000000000D+00
   339  3.3800000000000D+00  0.0000000000000D+00  0.0000000000000D+00
   340  3.3900000000000D+00  0.0000000000000D+00  0.0000000000000D+00
   341  3.4000000000000D+00  0.0000000000000D+00  0.0000000000000D+00
   342  3.4100000000000D+00  0.0000000000000D+00  0.0000000000000D+00
   343  3.4200000000000D+00  0.0000000000000D+00  0.0000000000000D+00
   344  3.4300000000000D+00  0.0000000000000D+00  0.0000000000000D+00
   345  3.4400000000000D+00  0.0000000000000D+00  0.0000000000000D+00
   346  3.4500000000000D+00  0.0000000000000D+00  0.0000000000000D+00
   347  3.4600000000000D+00  0.0000000000000D+00  0.0000000000000D+00
   348  3.4700000000000D+00  0.0000000000000D+00  0.0000000000000D+00
   349  3.4800000000000D+00  0.0000000000000D+00  0.0000000000000D+00
   350  3.4900000000000D+00  0.0000000000000D+00  0.0000000000000D+00
   351  3.5000000000000D+00  0.0000000000000D+00  0.0000000000000D+00
   352  3.5100000000000D+00  0.0000000000000D+00  0.0000000000000D+00
   353  3.5200000000000D+00  0.0000000000000D+00  0.0000000000000D+00
   354  3.5300000000000D+00  0.0000000000000D+00  0.0000000000000D+00
   355  3.5400000000000D+00  0.0000000000000D+00  0.0000000000000D+00
   356  3.5500000000000D+00  0.0000000000000D+00  0.0000000000000D+00
   357  3.5600000000000D+00  0.0000000000000D+00  0.0000000000000D+00
   358  3.5700000000000D+00  0.0000000000000D+00  0.0000000000000D+00
   359  3.5800000000000D+00  0.0000000000000D+00  0.0000000000000D+00
   360  3.5900000000000D+00  0.0000000000000D+00  0.0000000000000D+00
   361  3.6000000000000D+00  0.0000000000000D+00  0.0000000000000D+00
   362  3.6100000000000D+00  0.0000000000000D+00  0.0000000000000D+00
   363  3.6200000000000D+00  0.0000000000000D+00  0.0000000000000D+00
   364  3.6300000000000D+00  0.0000000000000D+00  0.0000000000000D+00
   365  3.6400000000000D+00  0.0000000000000D+00  0.0000000000000D+00
   366  3.6500000000000D+00  0.0000000000000D+00  0.0000000000000D+00
   367  3.6600000000000D+00  0.0000000000000D+00  0.0000000000000D+00
   368  3.6700000000000D+00  0.0000000000000D+00  0.0000000000000D+00
   369  3.6800000000000D+00  0.0000000000000D+00  0.0000000000000D+00
   370  3.6900000000000D+00  0.0000000000000D+00  0.0000000000000D+00
   371  3.7000000000000D+00  0.0000000000000D+00  0.0000000000000D+00
   372  3.7100000000000D+00  0.0000000000000D+00  0.0000000000000D+00
   373  3.7200000000000D+00  0.0000000000000D+00  0.0000000000000D+00
   374  3.7300000000000D+00  0.0000000000000D+00  0.0000000000000D+00
   375  3.7400000000000D+00  0.0000000000000D+00  0.0000000000000D+00
   376  3.7500000000000D+00  0.0000000000000D+00  0.0000000000000D+00
   377  3.7600000000000D+00  0.0000000000000D+00  0.0000000000000D+00
   378  3.7700000000000D+00  0.0000000000000D+00  0.0000000000000D+00
   379  3.7800000000000D+00  0.0000000000000D+00  0.0000000000000D+00
   380  3.7900000000000D+00  0.0000000000000D+00  0.0000000000000D+00
   381  3.8000000000000D+00  0.0000000000000D+00  0.0000000000000D+00
   382  3.8100000000000D+00  0.0000000000000D+00  0.0000000000000D+00
   383  3.8200000000000D+00  0.0000000000000D+00  0.0000000000000D+00
   384  3.8300000000000D+00  0.0000000000000D+00  0.0000000000000D+00
   385  3.8400000000000D+00  0.0000000000000D+00  0.0000000000000D+00
   386  3.8500000000000D+00  0.0000000000000D+00  0.0000000000000D+00
   387  3.8600000000000D+00  0.0000000000000D+00  0.0000000000000D+00
   388  3.8700000000000D+00  0.0000000000000D+00  0.0000000000000D+00
   389  3.8800000000000D+00  0.0000000000000D+00  0.0000000000000D+00
   390  3.8900000000000D+00  0.0000000000000D+00  0.0000000000000D+00
   391  3.9000000000000D+00  0.0000000000000D+00  0.0000000000000D+00
   392  3.9100000000000D+00  0.0000000000000D+00  0.0000000000000D+00
   393  3.9200000000000D+00  0.0000000000000D+00  0.0000000000000D+00
   394  3.9300000000000D+00  0.0000000000000D+00  0.0000000000000D+00
   395  3.9400000000000D+00  0.0000000000000D+00  0.0000000000000D+00
   396  3.9500000000000D+00  0.0000000000000D+00  0.0000000000000D+00
   397  3.9600000000000D+00  0.0000000000000D+00  0.0000000000000D+00
   398  3.9700000000000D+00  0.0000000000000D+00  0.0000000000000D+00
   399  3.9800000000000D+00  0.0000000000000D+00  0.0000000000000D+00
   400  3.9900000000000D+00  0.0000000000000D+00  0.0000000000000D+00
   401  4.0000000000000D+00  0.0000000000000D+00  0.0000000000000D+00
   402  4.0100000000000D+00  0.0000000000000D+00  0.0000000000000D+00
   403  4.0200000000000D+00  0.0000000000000D+00  0.0000000000000D+00
   404  4.0300000000000D+00  0.0000000000000D+00  0.0000000000000D+00
   405  4.0400000000000D+00  0.0000000000000D+00  0.0000000000000D+00
   406  4.0500000000000D+00  0.0000000000000D+00  0.0000000000000D+00
   407  4.0600000000000D+00  0.0000000000000D+00  0.0000000000000D+00
   408  4.0700000000000D+00  0.0000000000000D+00  0.0000000000000D+00
   409  4.0800000000000D+00  0.0000000000000D+00  0.0000000000000D+00
   410  4.0900000000000D+00  0.0000000000000D+00  0.0000000000000D+00
   411  4.1000000000000D+00  0.0000000000000D+00  0.0000000000000D+00
   412  4.1100000000000D+00  0.0000000000000D+00  0.0000000000000D+00
   413  4.1200000000000D+00  0.0000000000000D+00  0.0000000000000D+00
   414  4.1300000000000D+00  0.0000000000000D+00  0.0000000000000D+00
   415  4.1400000000000D+00  0.0000000000000D+00  0.0000000000000D+00
   416  4.1500000000000D+00  0.0000000000000D+00  0.0000000000000D+00
   417  4.1600000000000D+00  0.0000000000000D+00  0.0000000000000D+00
   418  4.1700000000000D+00  0.0000000000000D+00  0.0000000000000D+00
   419  4.1800000000000D+00  0.0000000000000D+00  0.0000000000000D+00
   420  4.1900000000000D+00  0.0000000000000D+00  0.0000000000000D+00
   421  4.2000000000000D+00  0.0000000000000D+00  0.0000000000000D+00
   422  4.2100000000000D+00  0.0000000000000D+00  0.0000000000000D+00