Ge    ONCVPSP-3.3.1  r_core=   2.66770   2.57393   2.66770
     32.0000     14.0000      210904    zatom,zion,pspd
     8       2   2     4   600     0    pspcod,pspxc,lmax,lloc,mmax,r2well
  5.99000000  0.00000000  0.00000000    rchrg fchrg qchrg
     2     2     2     0     0    nproj
     1     1           extension_switch
   0                         8.4014279355061D+00  7.5061637268795D-01
     1  0.0000000000000D+00 -3.0974667275530D-12  6.3994642918175D-12
     2  1.0000000000000D-02  4.8907080450609D-02 -3.1308815410451D-02
     3  2.0000000000000D-02  9.7749190994593D-02 -6.2530481024364D-02
     4  3.0000000000000D-02  1.4646148664442D-01 -9.3578063849323D-02
     5  4.0000000000000D-02  1.9497937195460D-01 -1.2436506392335D-01
     6  5.0000000000000D-02  2.4323862505316D-01 -1.5480562938718D-01
     7  6.0000000000000D-02  2.9117552078775D-01 -1.8481476982951D-01
     8  7.0000000000000D-02  3.3872695269505D-01 -2.1430856733705D-01
     9  8.0000000000000D-02  3.8583055350494D-01 -2.4320438468746D-01
    10  9.0000000000000D-02  4.3242481389492D-01 -2.7142107013149D-01
    11  1.0000000000000D-01  4.7844919921495D-01 -2.9887915821966D-01
    12  1.1000000000000D-01  5.2384426390787D-01 -3.2550106614041D-01
    13  1.2000000000000D-01  5.6855176335707D-01 -3.5121128504861D-01
    14  1.3000000000000D-01  6.1251476289942D-01 -3.7593656587754D-01
    15  1.4000000000000D-01  6.5567774374917D-01 -3.9960609914279D-01
    16  1.5000000000000D-01  6.9798670558660D-01 -4.2215168826317D-01
    17  1.6000000000000D-01  7.3938926557381D-01 -4.4350791594181D-01
    18  1.7000000000000D-01  7.7983475356971D-01 -4.6361230317007D-01
    19  1.8000000000000D-01  8.1927430332590D-01 -4.8240546043716D-01
    20  1.9000000000000D-01  8.5766093945599D-01 -4.9983123075049D-01
    21  2.0000000000000D-01  8.9494965998189D-01 -5.1583682409421D-01
    22  2.1000000000000D-01  9.3109751427212D-01 -5.3037294297755D-01
    23  2.2000000000000D-01  9.6606367619945D-01 -5.4339389874939D-01
    24  2.3000000000000D-01  9.9980951235763D-01 -5.5485771838101D-01
    25  2.4000000000000D-01  1.0322986451900D+00 -5.6472624144604D-01
    26  2.5000000000000D-01  1.0634970108960D+00 -5.7296520705349D-01
    27  2.6000000000000D-01  1.0933729119954D+00 -5.7954433051826D-01
    28  2.7000000000000D-01  1.1218970644445D+00 -5.8443736958177D-01
    29  2.8000000000000D-01  1.1490426392109D+00 -5.8762218002503D-01
    30  2.9000000000000D-01  1.1747852982319D+00 -5.8908076054558D-01
    31  3.0000000000000D-01  1.1991032246913D+00 -5.8879928680022D-01
    32  3.1000000000000D-01  1.2219771475685D+00 -5.8676813454540D-01
    33  3.2000000000000D-01  1.2433903604260D+00 -5.8298189183781D-01
    34  3.3000000000000D-01  1.2633287344178D+00 -5.7743936028817D-01
    35  3.4000000000000D-01  1.2817807255163D+00 -5.7014354539189D-01
    36  3.5000000000000D-01  1.2987373759694D+00 -5.6110163599079D-01
    37  3.6000000000000D-01  1.3141923100150D+00 -5.5032497295024D-01
    38  3.7000000000000D-01  1.3281417238954D+00 -5.3782900716668D-01
    39  3.8000000000000D-01  1.3405843702288D+00 -5.2363324704947D-01
    40  3.9000000000000D-01  1.3515215368082D+00 -5.0776119565127D-01
    41  4.0000000000000D-01  1.3609570199150D+00 -4.9024027764915D-01
    42  4.1000000000000D-01  1.3688970922463D+00 -4.7110175640751D-01
    43  4.2000000000000D-01  1.3753504655692D+00 -4.5038064138104D-01
    44  4.3000000000000D-01  1.3803282482311D+00 -4.2811558614291D-01
    45  4.4000000000000D-01  1.3838438976637D+00 -4.0434877734929D-01
    46  4.5000000000000D-01  1.3859131680353D+00 -3.7912581497636D-01
    47  4.6000000000000D-01  1.3865540532157D+00 -3.5249558418992D-01
    48  4.7000000000000D-01  1.3857867252311D+00 -3.2451011923073D-01
    49  4.8000000000000D-01  1.3836334683948D+00 -2.9522445972052D-01
    50  4.9000000000000D-01  1.3801186093152D+00 -2.6469649981409D-01
    51  5.0000000000000D-01  1.3752684429870D+00 -2.3298683064247D-01
    52  5.1000000000000D-01  1.3691111551843D+00 -2.0015857650993D-01
    53  5.2000000000000D-01  1.3616767413822D+00 -1.6627722532426D-01
    54  5.3000000000000D-01  1.3529969224420D+00 -1.3141045375497D-01
    55  5.4000000000000D-01  1.3431050573005D+00 -9.5627947627629D-02
    56  5.5000000000000D-01  1.3320360529132D+00 -5.9001218074897D-02
    57  5.6000000000000D-01  1.3198262717060D+00 -2.1603413975039D-02
    58  5.7000000000000D-01  1.3065134367937D+00  1.6490868781944D-02
    59  5.8000000000000D-01  1.2921365352313D+00  5.5205780653464D-02
    60  5.9000000000000D-01  1.2767357195633D+00  9.4464413875707D-02
    61  6.0000000000000D-01  1.2603522079434D+00  1.3418899941048D-01
    62  6.1000000000000D-01  1.2430281830960D+00  1.7430110484818D-01
    63  6.2000000000000D-01  1.2248066903927D+00  2.1472183270721D-01
    64  6.3000000000000D-01  1.2057315353181D+00  2.5537201857135D-01
    65  6.4000000000000D-01  1.1858471805986D+00  2.9617242850891D-01
    66  6.5000000000000D-01  1.1651986432653D+00  3.3704395522285D-01
    67  6.6000000000000D-01  1.1438313919217D+00  3.7790781238643D-01
    68  6.7000000000000D-01  1.1217912444833D+00  4.1868572662744D-01
    69  6.8000000000000D-01  1.0991242666524D+00  4.5930012663322D-01
    70  6.9000000000000D-01  1.0758766713867D+00  4.9967432886000D-01
    71  7.0000000000000D-01  1.0520947196167D+00  5.3973271934277D-01
    72  7.1000000000000D-01  1.0278246224577D+00  5.7940093111585D-01
    73  7.2000000000000D-01  1.0031124451603D+00  6.1860601677066D-01
    74  7.3000000000000D-01  9.7800401302996D-01  6.5727661569371D-01
    75  7.4000000000000D-01  9.5254481954422D-01  6.9534311554670D-01
    76  7.5000000000000D-01  9.2677993688280D-01  7.3273780757058D-01
    77  7.6000000000000D-01  9.0075392907892D-01  7.6939503531628D-01
    78  7.7000000000000D-01  8.7451076798941D-01  8.0525133642728D-01
    79  7.8000000000000D-01  8.4809375227115D-01  8.4024557712277D-01
    80  7.9000000000000D-01  8.2154542953993D-01  8.7431907905415D-01
    81  8.0000000000000D-01  7.9490752187677D-01  9.0741573823353D-01
    82  8.1000000000000D-01  7.6822085483456D-01  9.3948213575909D-01
    83  8.2000000000000D-01  7.4152529008585D-01  9.7046764008869D-01
    84  8.3000000000000D-01  7.1485966183967D-01  1.0003245006417D+00
    85  8.4000000000000D-01  6.8826171714260D-01  1.0290079325366D+00
    86  8.5000000000000D-01  6.6176806016583D-01  1.0564761923018D+00
    87  8.6000000000000D-01  6.3541410056660D-01  1.0826906444242D+00
    88  8.7000000000000D-01  6.0923400599891D-01  1.1076158186325D+00
    89  8.8000000000000D-01  5.8326065883432D-01  1.1312194578404D+00
    90  8.9000000000000D-01  5.5752561714016D-01  1.1534725567033D+00
    91  9.0000000000000D-01  5.3205907994837D-01  1.1743493907754D+00
    92  9.1000000000000D-01  5.0688985683442D-01  1.1938275362804D+00
    93  9.2000000000000D-01  4.8204534181206D-01  1.2118878805411D+00
    94  9.3000000000000D-01  4.5755149153570D-01  1.2285146231405D+00
    95  9.4000000000000D-01  4.3343280778908D-01  1.2436952679168D+00
    96  9.5000000000000D-01  4.0971232422518D-01  1.2574206059235D+00
    97  9.6000000000000D-01  3.8641159730963D-01  1.2696846895114D+00
    98  9.7000000000000D-01  3.6355070140680D-01  1.2804847977196D+00
    99  9.8000000000000D-01  3.4114822793547D-01  1.2898213931847D+00
   100  9.9000000000000D-01  3.1922128850904D-01  1.2976980708071D+00
   101  1.0000000000000D+00  2.9778552196321D-01  1.3041214984338D+00
   102  1.0100000000000D+00  2.7685510516362D-01  1.3091013498428D+00
   103  1.0200000000000D+00  2.5644276747448D-01  1.3126502303350D+00
   104  1.0300000000000D+00  2.3655980875959D-01  1.3147835952621D+00
   105  1.0400000000000D+00  2.1721612077760D-01  1.3155196618369D+00
   106  1.0500000000000D+00  1.9842021182405D-01  1.3148793145903D+00
   107  1.0600000000000D+00  1.8017923446477D-01  1.3128860048608D+00
   108  1.0700000000000D+00  1.6249901619755D-01  1.3095656447097D+00
   109  1.0800000000000D+00  1.4538409287170D-01  1.3049464956778D+00
   110  1.0900000000000D+00  1.2883774468912D-01  1.2990590528054D+00
   111  1.1000000000000D+00  1.1286203460475D-01  1.2919359243520D+00
   112  1.1100000000000D+00  9.7457848939550D-02  1.2836117076584D+00
   113  1.1200000000000D+00  8.2624940015320D-02  1.2741228616050D+00
   114  1.1300000000000D+00  6.8361970616721D-02  1.2635075761218D+00
   115  1.1400000000000D+00  5.4666560083834D-02  1.2518056392135D+00
   116  1.1500000000000D+00  4.1535331836684D-02  1.2390583019630D+00
   117  1.1600000000000D+00  2.8963962132128D-02  1.2253081419796D+00
   118  1.1700000000000D+00  1.6947229853034D-02  1.2105989257545D+00
   119  1.1800000000000D+00  5.4790671305722D-03  1.1949754703874D+00
   120  1.1900000000000D+00 -5.4473893983524D-03  1.1784835051394D+00
   121  1.2000000000000D+00 -1.5839746895168D-02  1.1611695332664D+00
   122  1.2100000000000D+00 -2.5706304378277D-02  1.1430806945765D+00
   123  1.2200000000000D+00 -3.5056000725336D-02  1.1242646291437D+00
   124  1.2300000000000D+00 -4.3898362806803D-02  1.1047693426091D+00
   125  1.2400000000000D+00 -5.2243453930626D-02  1.0846430734779D+00
   126  1.2500000000000D+00 -6.0101822772696D-02  1.0639341628106D+00
   127  1.2600000000000D+00 -6.7484452964602D-02  1.0426909266987D+00
   128  1.2700000000000D+00 -7.4402713501014D-02  1.0209615318908D+00
   129  1.2800000000000D+00 -8.0868310120049D-02  9.9879387491723D-01
   130  1.2900000000000D+00 -8.6893237807848D-02  9.7623546505360D-01
   131  1.3000000000000D+00 -9.2489734566651D-02  9.5333331143557D-01
   132  1.3100000000000D+00 -9.7670236573282D-02  9.3013381460957D-01
   133  1.3200000000000D+00 -1.0244733485656D-01  9.0668266280633D-01
   134  1.3300000000000D+00 -1.0683373360362D-01  8.8302473318133D-01
   135  1.3400000000000D+00 -1.1084221019249D-01  8.5920399823646D-01
   136  1.3500000000000D+00 -1.1448557705641D-01  8.3526343765638D-01
   137  1.3600000000000D+00 -1.1777664545119D-01  8.1124495571297D-01
   138  1.3700000000000D+00 -1.2072819120018D-01  7.8718930439900D-01
   139  1.3800000000000D+00 -1.2335292248794D-01  7.6313601244387D-01
   140  1.3900000000000D+00 -1.2566344973768D-01  7.3912332028058D-01
   141  1.4000000000000D+00 -1.2767225762784D-01  7.1518812107969D-01
   142  1.4100000000000D+00 -1.2939167927195D-01  6.9136590789381D-01
   143  1.4200000000000D+00 -1.3083387257240D-01  6.6769072692443D-01
   144  1.4300000000000D+00 -1.3201079877811D-01  6.4419513696723D-01
   145  1.4400000000000D+00 -1.3293420321756D-01  6.2091017495665D-01
   146  1.4500000000000D+00 -1.3361559821757D-01  5.9786532761977D-01
   147  1.4600000000000D+00 -1.3406624817472D-01  5.7508850914877D-01
   148  1.4700000000000D+00 -1.3429715674350D-01  5.5260604479374D-01
   149  1.4800000000000D+00 -1.3431905611877D-01  5.3044266030989D-01
   150  1.4900000000000D+00 -1.3414239833171D-01  5.0862147705435D-01
   151  1.5000000000000D+00 -1.3377734853564D-01  4.8716401266386D-01
   152  1.5100000000000D+00 -1.3323378018114D-01  4.6609018706135D-01
   153  1.5200000000000D+00 -1.3252127202891D-01  4.4541833365546D-01
   154  1.5300000000000D+00 -1.3164910690557D-01  4.2516521549490D-01
   155  1.5400000000000D+00 -1.3062627211259D-01  4.0534604614897D-01
   156  1.5500000000000D+00 -1.2946146140288D-01  3.8597451509870D-01
   157  1.5600000000000D+00 -1.2816307840330D-01  3.6706281733066D-01
   158  1.5700000000000D+00 -1.2673924140198D-01  3.4862168693006D-01
   159  1.5800000000000D+00 -1.2519778935866D-01  3.3066043431245D-01
   160  1.5900000000000D+00 -1.2354628905183D-01  3.1318698687971D-01
   161  1.6000000000000D+00 -1.2179204321622D-01  2.9620793272478D-01
   162  1.6100000000000D+00 -1.1994209956991D-01  2.7972856713464D-01
   163  1.6200000000000D+00 -1.1800326059010D-01  2.6375294152749D-01
   164  1.6300000000000D+00 -1.1598209392278D-01  2.4828391453638D-01
   165  1.6400000000000D+00 -1.1388494329122D-01  2.3332320488819D-01
   166  1.6500000000000D+00 -1.1171793978087D-01  2.1887144576757D-01
   167  1.6600000000000D+00 -1.0948701336980D-01  2.0492824032363D-01
   168  1.6700000000000D+00 -1.0719790458102D-01  1.9149221800103D-01
   169  1.6800000000000D+00 -1.0485617612935D-01  1.7856109136033D-01
   170  1.6900000000000D+00 -1.0246722444246D-01  1.6613171307235D-01
   171  1.7000000000000D+00 -1.0003629093359D-01  1.5420013276064D-01
   172  1.7100000000000D+00 -9.7568472911041D-02  1.4276165338577D-01
   173  1.7200000000000D+00 -9.5068734010649D-02  1.3181088686274D-01
   174  1.7300000000000D+00 -9.2541914040432D-02  1.2134180861273D-01
   175  1.7400000000000D+00 -8.9992738139930D-02  1.1134781077344D-01
   176  1.7500000000000D+00 -8.7425825141911D-02  1.0182175376548D-01
   177  1.7600000000000D+00 -8.4845695066705D-02  9.2756015997648D-02
   178  1.7700000000000D+00 -8.2256775625325D-02  8.4142541382690D-02
   179  1.7800000000000D+00 -7.9663407704832D-02  7.5972884540202D-02
   180  1.7900000000000D+00 -7.7069849686288D-02  6.8238253300094D-02
   181  1.8000000000000D+00 -7.4480280630678D-02  6.0929548520858D-02
   182  1.8100000000000D+00 -7.1898802139979D-02  5.4037400737264D-02
   183  1.8200000000000D+00 -6.9329439009129D-02  4.7552203834206D-02
   184  1.8300000000000D+00 -6.6776138426507D-02  4.1464145144910D-02
   185  1.8400000000000D+00 -6.4242767902092D-02  3.5763232318966D-02
   186  1.8500000000000D+00 -6.1733111681505D-02  3.0439316352333D-02
   187  1.8600000000000D+00 -5.9250865819192D-02  2.5482111118988D-02
   188  1.8700000000000D+00 -5.6799631741089D-02  2.0881208954063D-02
   189  1.8800000000000D+00 -5.4382908402461D-02  1.6626092478668D-02
   190  1.8900000000000D+00 -5.2004082993995D-02  1.2706142497061D-02
   191  1.9000000000000D+00 -4.9666420192629D-02  9.1106419021837D-03
   192  1.9100000000000D+00 -4.7373050066452D-02  5.8287757914175D-03
   193  1.9200000000000D+00 -4.5126954496983D-02  2.8496274047531D-03
   194  1.9300000000000D+00 -4.2930952387386D-02  1.6217048148123D-04
   195  1.9400000000000D+00 -4.0787683426226D-02 -2.2447425941817D-03
   196  1.9500000000000D+00 -3.8699590719743D-02 -4.3823961385022D-03
   197  1.9600000000000D+00 -3.6668902148438D-02 -6.2622304340231D-03
   198  1.9700000000000D+00 -3.4697610621906D-02 -7.8958645334276D-03
   199  1.9800000000000D+00 -3.2787453254831D-02 -9.2951226215044D-03
   200  1.9900000000000D+00 -3.0939888164744D-02 -1.0472067715886D-02
   201  2.0000000000000D+00 -2.9156078319170D-02 -1.1439015890038D-02
   202  2.0100000000000D+00 -2.7436849318109D-02 -1.2208625091871D-02
   203  2.0200000000000D+00 -2.5782701815926D-02 -1.2793831474858D-02
   204  2.0300000000000D+00 -2.4193768642935D-02 -1.3207940190995D-02
   205  2.0400000000000D+00 -2.2669754122248D-02 -1.3464769188578D-02
   206  2.0500000000000D+00 -2.1209869700297D-02 -1.3578809630776D-02
   207  2.0600000000000D+00 -1.9813011707859D-02 -1.3564690901687D-02
   208  2.0700000000000D+00 -1.8477825682271D-02 -1.3436962033820D-02
   209  2.0800000000000D+00 -1.7202802079345D-02 -1.3209822679823D-02
   210  2.0900000000000D+00 -1.5986410720530D-02 -1.2896741042646D-02
   211  2.1000000000000D+00 -1.4827213481286D-02 -1.2510137905973D-02
   212  2.1100000000000D+00 -1.3723789937879D-02 -1.2061608655494D-02
   213  2.1200000000000D+00 -1.2674700303876D-02 -1.1562050625386D-02
   214  2.1300000000000D+00 -1.1678525745370D-02 -1.1021555912822D-02
   215  2.1400000000000D+00 -1.0733863708709D-02 -1.0449439618888D-02
   216  2.1500000000000D+00 -9.8393204361111D-03 -9.8542774000691D-03
   217  2.1600000000000D+00 -8.9935152957445D-03 -9.2439093922435D-03
   218  2.1700000000000D+00 -8.1950783098427D-03 -8.6254649241307D-03
   219  2.1800000000000D+00 -7.4426489162518D-03 -8.0053847499165D-03
   220  2.1900000000000D+00 -6.7348745643630D-03 -7.3894447337587D-03
   221  2.2000000000000D+00 -6.0704091826250D-03 -6.7827808462584D-03
   222  2.2100000000000D+00 -5.4479116900819D-03 -6.1899151528493D-03
   223  2.2200000000000D+00 -4.8660444138838D-03 -5.6147828911045D-03
   224  2.2300000000000D+00 -4.3234716132583D-03 -5.0607602564816D-03
   225  2.2400000000000D+00 -3.8188581242894D-03 -4.5306927845479D-03
   226  2.2500000000000D+00 -3.3508680054287D-03 -4.0269244478937D-03
   227  2.2600000000000D+00 -2.9181635145283D-03 -3.5513268308344D-03
   228  2.2700000000000D+00 -2.5194041789030D-03 -3.1053287107276D-03
   229  2.2800000000000D+00 -2.1532460602354D-03 -2.6899457956359D-03
   230  2.2900000000000D+00 -1.8183414050612D-03 -2.3058101923241D-03
   231  2.3000000000000D+00 -1.5133384078823D-03 -1.9532000356863D-03
   232  2.3100000000000D+00 -1.2368813401414D-03 -1.6320687276588D-03
   233  2.3200000000000D+00 -9.8761103059949D-04 -1.3420737358389D-03
   234  2.3300000000000D+00 -7.6416549093159D-04 -1.0826052913790D-03
   235  2.3400000000000D+00 -5.6518102847922D-04 -8.5281422119131D-04
   236  2.3500000000000D+00 -3.8929362990616D-04 -6.5163928042281D-04
   237  2.3600000000000D+00 -2.3514052766139D-04 -4.7783411083274D-04
   238  2.3700000000000D+00 -1.0136229926332D-04 -3.2999299154528D-04
   239  2.3800000000000D+00  1.3394872087208D-05 -2.0657612023363D-04
   240  2.3900000000000D+00  1.1047667263840D-04 -1.0593413407416D-04
   241  2.4000000000000D+00  1.9121770929861D-04 -2.6331413770382D-05
   242  2.4100000000000D+00  2.5693842902588D-04  3.4031205941845D-05
   243  2.4200000000000D+00  3.0894177477131D-04  7.6994713867405D-05
   244  2.4300000000000D+00  3.4850953988403D-04  1.0442137779028D-04
   245  2.4400000000000D+00  3.7689862678963D-04  1.1817489299221D-04
   246  2.4500000000000D+00  3.9533709249848D-04  1.2010164823331D-04
   247  2.4600000000000D+00  4.0502001823943D-04  1.1201310061506D-04
   248  2.4700000000000D+00  4.0710532538421D-04  9.5668918053877D-05
   249  2.4800000000000D+00  4.0270947234900D-04  7.2761272554463D-05
   250  2.4900000000000D+00  3.9290309400031D-04  4.4900165449674D-05
   251  2.5000000000000D+00  3.7870663379868D-04  1.3599570267571D-05
   252  2.5100000000000D+00  3.6108598262294D-04 -1.9735321431144D-05
   253  2.5200000000000D+00  3.4094816662117D-04 -5.3819895142336D-05
   254  2.5300000000000D+00  3.1913707615429D-04 -8.7501062831338D-05
   255  2.5400000000000D+00  2.9642934099726D-04 -1.1976721361218D-04
   256  2.5500000000000D+00  2.7353035012221D-04 -1.4975727148322D-04
   257  2.5600000000000D+00  2.5107036011972D-04 -1.7676889817670D-04
   258  2.5700000000000D+00  2.2960088125190D-04 -2.0026582490742D-04
   259  2.5800000000000D+00  2.0974018701859D-04 -2.2019691719322D-04
   260  2.5900000000000D+00  1.9170228743895D-04 -2.3601982098524D-04
   261  2.6000000000000D+00  1.7554902115800D-04 -2.4724110069101D-04
   262  2.6100000000000D+00  1.6057859456307D-04 -2.5226860907608D-04
   263  2.6200000000000D+00  1.4795421387745D-04 -2.5357731595551D-04
   264  2.6300000000000D+00  1.4001153045577D-04 -2.5634509870313D-04
   265  2.6400000000000D+00  1.3911588949540D-04 -2.6607638738417D-04
   266  2.6500000000000D+00  1.4271926639861D-04 -2.7907347344297D-04
   267  2.6600000000000D+00  1.3962720527432D-04 -2.7517719007909D-04
   268  2.6700000000000D+00  1.2101828413525D-04 -2.3879126157975D-04
   269  2.6800000000000D+00  8.1125509898098D-05 -1.6009412735903D-04
   270  2.6900000000000D+00  3.6661437471195D-05 -7.2292036319337D-05
   271  2.7000000000000D+00 -5.8467283442397D-07  1.1571297082131D-06
   272  2.7100000000000D+00 -1.2779936091712D-05  2.5297063697183D-05
   273  2.7200000000000D+00 -1.1206812783618D-05  2.2184237035037D-05
   274  2.7300000000000D+00 -2.1579424211849D-06  4.2716341277438D-06
   275  2.7400000000000D+00  2.3422936126450D-06 -4.6459853326671D-06
   276  2.7500000000000D+00  2.9383363720669D-06 -5.8296326826604D-06
   277  2.7600000000000D+00  1.2421102318189D-06 -2.4648306923409D-06
   278  2.7700000000000D+00 -1.9065410610156D-07  3.7609452913461D-07
   279  2.7800000000000D+00 -3.6330195833232D-07  7.1666895482385D-07
   280  2.7900000000000D+00 -2.3947911800049D-07  4.7240936984589D-07
   281  2.8000000000000D+00  0.0000000000000D+00  0.0000000000000D+00
   282  2.8100000000000D+00  0.0000000000000D+00  0.0000000000000D+00
   283  2.8200000000000D+00  0.0000000000000D+00  0.0000000000000D+00
   284  2.8300000000000D+00  0.0000000000000D+00  0.0000000000000D+00
   285  2.8400000000000D+00  0.0000000000000D+00  0.0000000000000D+00
   286  2.8500000000000D+00  0.0000000000000D+00  0.0000000000000D+00
   287  2.8600000000000D+00  0.0000000000000D+00  0.0000000000000D+00
   288  2.8700000000000D+00  0.0000000000000D+00  0.0000000000000D+00
   289  2.8800000000000D+00  0.0000000000000D+00  0.0000000000000D+00
   290  2.8900000000000D+00  0.0000000000000D+00  0.0000000000000D+00
   291  2.9000000000000D+00  0.0000000000000D+00  0.0000000000000D+00
   292  2.9100000000000D+00  0.0000000000000D+00  0.0000000000000D+00
   293  2.9200000000000D+00  0.0000000000000D+00  0.0000000000000D+00
   294  2.9300000000000D+00  0.0000000000000D+00  0.0000000000000D+00
   295  2.9400000000000D+00  0.0000000000000D+00  0.0000000000000D+00
   296  2.9500000000000D+00  0.0000000000000D+00  0.0000000000000D+00
   297  2.9600000000000D+00  0.0000000000000D+00  0.0000000000000D+00
   298  2.9700000000000D+00  0.0000000000000D+00  0.0000000000000D+00
   299  2.9800000000000D+00  0.0000000000000D+00  0.0000000000000D+00
   300  2.9900000000000D+00  0.0000000000000D+00  0.0000000000000D+00
   301  3.0000000000000D+00  0.0000000000000D+00  0.0000000000000D+00
   302  3.0100000000000D+00  0.0000000000000D+00  0.0000000000000D+00
   303  3.0200000000000D+00  0.0000000000000D+00  0.0000000000000D+00
   304  3.0300000000000D+00  0.0000000000000D+00  0.0000000000000D+00
   305  3.0400000000000D+00  0.0000000000000D+00  0.0000000000000D+00
   306  3.0500000000000D+00  0.0000000000000D+00  0.0000000000000D+00
   307  3.0600000000000D+00  0.0000000000000D+00  0.0000000000000D+00
   308  3.0700000000000D+00  0.0000000000000D+00  0.0000000000000D+00
   309  3.0800000000000D+00  0.0000000000000D+00  0.0000000000000D+00
   310  3.0900000000000D+00  0.0000000000000D+00  0.0000000000000D+00
   311  3.1000000000000D+00  0.0000000000000D+00  0.0000000000000D+00
   312  3.1100000000000D+00  0.0000000000000D+00  0.0000000000000D+00
   313  3.1200000000000D+00  0.0000000000000D+00  0.0000000000000D+00
   314  3.1300000000000D+00  0.0000000000000D+00  0.0000000000000D+00
   315  3.1400000000000D+00  0.0000000000000D+00  0.0000000000000D+00
   316  3.1500000000000D+00  0.0000000000000D+00  0.0000000000000D+00
   317  3.1600000000000D+00  0.0000000000000D+00  0.0000000000000D+00
   318  3.1700000000000D+00  0.0000000000000D+00  0.0000000000000D+00
   319  3.1800000000000D+00  0.0000000000000D+00  0.0000000000000D+00
   320  3.1900000000000D+00  0.0000000000000D+00  0.0000000000000D+00
   321  3.2000000000000D+00  0.0000000000000D+00  0.0000000000000D+00
   322  3.2100000000000D+00  0.0000000000000D+00  0.0000000000000D+00
   323  3.2200000000000D+00  0.0000000000000D+00  0.0000000000000D+00
   324  3.2300000000000D+00  0.0000000000000D+00  0.0000000000000D+00
   325  3.2400000000000D+00  0.0000000000000D+00  0.0000000000000D+00
   326  3.2500000000000D+00  0.0000000000000D+00  0.0000000000000D+00
   327  3.2600000000000D+00  0.0000000000000D+00  0.0000000000000D+00
   328  3.2700000000000D+00  0.0000000000000D+00  0.0000000000000D+00
   329  3.2800000000000D+00  0.0000000000000D+00  0.0000000000000D+00
   330  3.2900000000000D+00  0.0000000000000D+00  0.0000000000000D+00
   331  3.3000000000000D+00  0.0000000000000D+00  0.0000000000000D+00
   332  3.3100000000000D+00  0.0000000000000D+00  0.0000000000000D+00
   333  3.3200000000000D+00  0.0000000000000D+00  0.0000000000000D+00
   334  3.3300000000000D+00  0.0000000000000D+00  0.0000000000000D+00
   335  3.3400000000000D+00  0.0000000000000D+00  0.0000000000000D+00
   336  3.3500000000000D+00  0.0000000000000D+00  0.0000000000000D+00
   337  3.3600000000000D+00  0.0000000000000D+00  0.0000000000000D+00
   338  3.3700000000000D+00  0.0000000000000D+00  0.0000000000000D+00
   339  3.3800000000000D+00  0.0000000000000D+00  0.0000000000000D+00
   340  3.3900000000000D+00  0.0000000000000D+00  0.0000000000000D+00
   341  3.4000000000000D+00  0.0000000000000D+00  0.0000000000000D+00
   342  3.4100000000000D+00  0.0000000000000D+00  0.0000000000000D+00
   343  3.4200000000000D+00  0.0000000000000D+00  0.0000000000000D+00
   344  3.4300000000000D+00  0.0000000000000D+00  0.0000000000000D+00
   345  3.4400000000000D+00  0.0000000000000D+00  0.0000000000000D+00
   346  3.4500000000000D+00  0.0000000000000D+00  0.0000000000000D+00
   347  3.4600000000000D+00  0.0000000000000D+00  0.0000000000000D+00
   348  3.4700000000000D+00  0.0000000000000D+00  0.0000000000000D+00
   349  3.4800000000000D+00  0.0000000000000D+00  0.0000000000000D+00
   350  3.4900000000000D+00  0.0000000000000D+00  0.0000000000000D+00
   351  3.5000000000000D+00  0.0000000000000D+00  0.0000000000000D+00
   352  3.5100000000000D+00  0.0000000000000D+00  0.0000000000000D+00
   353  3.5200000000000D+00  0.0000000000000D+00  0.0000000000000D+00
   354  3.5300000000000D+00  0.0000000000000D+00  0.0000000000000D+00
   355  3.5400000000000D+00  0.0000000000000D+00  0.0000000000000D+00
   356  3.5500000000000D+00  0.0000000000000D+00  0.0000000000000D+00
   357  3.5600000000000D+00  0.0000000000000D+00  0.0000000000000D+00
   358  3.5700000000000D+00  0.0000000000000D+00  0.0000000000000D+00
   359  3.5800000000000D+00  0.0000000000000D+00  0.0000000000000D+00
   360  3.5900000000000D+00  0.0000000000000D+00  0.0000000000000D+00
   361  3.6000000000000D+00  0.0000000000000D+00  0.0000000000000D+00
   362  3.6100000000000D+00  0.0000000000000D+00  0.0000000000000D+00
   363  3.6200000000000D+00  0.0000000000000D+00  0.0000000000000D+00
   364  3.6300000000000D+00  0.0000000000000D+00  0.0000000000000D+00
   365  3.6400000000000D+00  0.0000000000000D+00  0.0000000000000D+00
   366  3.6500000000000D+00  0.0000000000000D+00  0.0000000000000D+00
   367  3.6600000000000D+00  0.0000000000000D+00  0.0000000000000D+00
   368  3.6700000000000D+00  0.0000000000000D+00  0.0000000000000D+00
   369  3.6800000000000D+00  0.0000000000000D+00  0.0000000000000D+00
   370  3.6900000000000D+00  0.0000000000000D+00  0.0000000000000D+00
   371  3.7000000000000D+00  0.0000000000000D+00  0.0000000000000D+00
   372  3.7100000000000D+00  0.0000000000000D+00  0.0000000000000D+00
   373  3.7200000000000D+00  0.0000000000000D+00  0.0000000000000D+00
   374  3.7300000000000D+00  0.0000000000000D+00  0.0000000000000D+00
   375  3.7400000000000D+00  0.0000000000000D+00  0.0000000000000D+00
   376  3.7500000000000D+00  0.0000000000000D+00  0.0000000000000D+00
   377  3.7600000000000D+00  0.0000000000000D+00  0.0000000000000D+00
   378  3.7700000000000D+00  0.0000000000000D+00  0.0000000000000D+00
   379  3.7800000000000D+00  0.0000000000000D+00  0.0000000000000D+00
   380  3.7900000000000D+00  0.0000000000000D+00  0.0000000000000D+00
   381  3.8000000000000D+00  0.0000000000000D+00  0.0000000000000D+00
   382  3.8100000000000D+00  0.0000000000000D+00  0.0000000000000D+00
   383  3.8200000000000D+00  0.0000000000000D+00  0.0000000000000D+00
   384  3.8300000000000D+00  0.0000000000000D+00  0.0000000000000D+00
   385  3.8400000000000D+00  0.0000000000000D+00  0.0000000000000D+00
   386  3.8500000000000D+00  0.0000000000000D+00  0.0000000000000D+00
   387  3.8600000000000D+00  0.0000000000000D+00  0.0000000000000D+00
   388  3.8700000000000D+00  0.0000000000000D+00  0.0000000000000D+00
   389  3.8800000000000D+00  0.0000000000000D+00  0.0000000000000D+00
   390  3.8900000000000D+00  0.0000000000000D+00  0.0000000000000D+00
   391  3.9000000000000D+00  0.0000000000000D+00  0.0000000000000D+00
   392  3.9100000000000D+00  0.0000000000000D+00  0.0000000000000D+00
   393  3.9200000000000D+00  0.0000000000000D+00  0.0000000000000D+00
   394  3.9300000000000D+00  0.0000000000000D+00  0.0000000000000D+00
   395  3.9400000000000D+00  0.0000000000000D+00  0.0000000000000D+00
   396  3.9500000000000D+00  0.0000000000000D+00  0.0000000000000D+00
   397  3.9600000000000D+00  0.0000000000000D+00  0.0000000000000D+00
   398  3.9700000000000D+00  0.0000000000000D+00  0.0000000000000D+00
   399  3.9800000000000D+00  0.0000000000000D+00  0.0000000000000D+00
   400  3.9900000000000D+00  0.0000000000000D+00  0.0000000000000D+00
   401  4.0000000000000D+00  0.0000000000000D+00  0.0000000000000D+00
   402  4.0100000000000D+00  0.0000000000000D+00  0.0000000000000D+00
   403  4.0200000000000D+00  0.0000000000000D+00  0.0000000000000D+00
   404  4.0300000000000D+00  0.0000000000000D+00  0.0000000000000D+00
   405  4.0400000000000D+00  0.0000000000000D+00  0.0000000000000D+00
   406  4.0500000000000D+00  0.0000000000000D+00  0.0000000000000D+00
   407  4.0600000000000D+00  0.0000000000000D+00  0.0000000000000D+00
   408  4.0700000000000D+00  0.0000000000000D+00  0.0000000000000D+00
   409  4.0800000000000D+00  0.0000000000000D+00  0.0000000000000D+00
   410  4.0900000000000D+00  0.0000000000000D+00  0.0000000000000D+00
   411  4.1000000000000D+00  0.0000000000000D+00  0.0000000000000D+00
   412  4.1100000000000D+00  0.0000000000000D+00  0.0000000000000D+00
   413  4.1200000000000D+00  0.0000000000000D+00  0.0000000000000D+00
   414  4.1300000000000D+00  0.0000000000000D+00  0.0000000000000D+00
   415  4.1400000000000D+00  0.0000000000000D+00  0.0000000000000D+00
   416  4.1500000000000D+00  0.0000000000000D+00  0.0000000000000D+00
   417  4.1600000000000D+00  0.0000000000000D+00  0.0000000000000D+00
   418  4.1700000000000D+00  0.0000000000000D+00  0.0000000000000D+00
   419  4.1800000000000D+00  0.0000000000000D+00  0.0000000000000D+00
   420  4.1900000000000D+00  0.0000000000000D+00  0.0000000000000D+00
   421  4.2000000000000D+00  0.0000000000000D+00  0.0000000000000D+00
   422  4.2100000000000D+00  0.0000000000000D+00  0.0000000000000D+00