Hf    ONCVPSP-3.3.1  r_core=   1.93355   2.12716   2.05238   3.04240
     72.0000     26.0000      210904    zatom,zion,pspd
     8       2   3     4   600     0    pspcod,pspxc,lmax,lloc,mmax,r2well
  5.99000000  0.00000000  0.00000000    rchrg fchrg qchrg
     2     2     2     2     0    nproj
     1     1           extension_switch
   0                         1.0041102518346D+01 -1.7996186982022D-01
     1  0.0000000000000D+00 -7.5472961214018D-12  2.1926294113683D-11
     2  1.0000000000000D-02  6.7900404583646D-02 -4.7536715015634D-03
     3  2.0000000000000D-02  1.3566735946299D-01 -9.4881204601668D-03
     4  3.0000000000000D-02  2.0316775655911D-01 -1.4184143271094D-02
     5  4.0000000000000D-02  2.7026917011615D-01 -1.8822573903663D-02
     6  5.0000000000000D-02  3.3684019554521D-01 -2.3384301937680D-02
     7  6.0000000000000D-02  4.0275078549264D-01 -2.7850289714873D-02
     8  7.0000000000000D-02  4.6787258221590D-01 -3.2201588336016D-02
     9  8.0000000000000D-02  5.3207924535850D-01 -3.6419352256371D-02
    10  9.0000000000000D-02  5.9524677422432D-01 -4.0484852258443D-02
    11  1.0000000000000D-01  6.5725382366361D-01 -4.4379486612459D-02
    12  1.1000000000000D-01  7.1798201269601D-01 -4.8084790270359D-02
    13  1.2000000000000D-01  7.7731622501171D-01 -5.1582441978043D-02
    14  1.3000000000000D-01  8.3514490050893D-01 -5.4854269233332D-02
    15  1.4000000000000D-01  8.9136031704586D-01 -5.7882251061956D-02
    16  1.5000000000000D-01  9.4585886160640D-01 -6.0648518631087D-02
    17  1.6000000000000D-01  9.9854129010312D-01 -6.3135353769138D-02
    18  1.7000000000000D-01  1.0493129750664D+00 -6.5325185509322D-02
    19  1.8000000000000D-01  1.0980841404970D+00 -6.7200584825278D-02
    20  1.9000000000000D-01  1.1447700831898D+00 -6.8744257775656D-02
    21  2.0000000000000D-01  1.1892913798676D+00 -6.9939037323292D-02
    22  2.1000000000000D-01  1.2315740795002D+00 -7.0767874140641D-02
    23  2.2000000000000D-01  1.2715498802205D+00 -7.1213826757562D-02
    24  2.3000000000000D-01  1.3091562902861D+00 -7.1260051447669D-02
    25  2.4000000000000D-01  1.3443367725804D+00 -7.0889792287426D-02
    26  2.5000000000000D-01  1.3770408721849D+00 -7.0086371853851D-02
    27  2.6000000000000D-01  1.4072243266071D+00 -6.8833183055266D-02
    28  2.7000000000000D-01  1.4348491582872D+00 -6.7113682611567D-02
    29  2.8000000000000D-01  1.4598837490644D+00 -6.4911386716843D-02
    30  2.9000000000000D-01  1.4823028963299D+00 -6.2209869427614D-02
    31  3.0000000000000D-01  1.5020878506477D+00 -5.8992764323065D-02
    32  3.1000000000000D-01  1.5192263346817D+00 -5.5243769981139D-02
    33  3.2000000000000D-01  1.5337125433200D+00 -5.0946659802070D-02
    34  3.3000000000000D-01  1.5455471249484D+00 -4.6085296695441D-02
    35  3.4000000000000D-01  1.5547371438832D+00 -4.0643653119466D-02
    36  3.5000000000000D-01  1.5612960240315D+00 -3.4605836930052D-02
    37  3.6000000000000D-01  1.5652434739129D+00 -2.7956123457497D-02
    38  3.7000000000000D-01  1.5666053932323D+00 -2.0678994180630D-02
    39  3.8000000000000D-01  1.5654137612613D+00 -1.2759182316314D-02
    40  3.9000000000000D-01  1.5617065073441D+00 -4.1817255810648D-03
    41  4.0000000000000D-01  1.5555273639085D+00  5.0679736842864D-03
    42  4.1000000000000D-01  1.5469257024235D+00  1.5004080907392D-02
    43  4.2000000000000D-01  1.5359563528083D+00  2.5640254152335D-02
    44  4.3000000000000D-01  1.5226794068558D+00  3.6989561500762D-02
    45  4.4000000000000D-01  1.5071600062966D+00  4.9064391070087D-02
    46  4.5000000000000D-01  1.4894681161851D+00  6.1876353879507D-02
    47  4.6000000000000D-01  1.4696782843483D+00  7.5436179865089D-02
    48  4.7000000000000D-01  1.4478693876917D+00  8.9753607436702D-02
    49  4.8000000000000D-01  1.4241243662087D+00  1.0483726706087D-01
    50  4.9000000000000D-01  1.3985299455917D+00  1.2069455944576D-01
    51  5.0000000000000D-01  1.3711763493894D+00  1.3733152899446D-01
    52  5.1000000000000D-01  1.3421570016978D+00  1.5475273328041D-01
    53  5.2000000000000D-01  1.3115682214168D+00  1.7296110938393D-01
    54  5.3000000000000D-01  1.2795089091364D+00  1.9195783800952D-01
    55  5.4000000000000D-01  1.2460802277550D+00  2.1174220637910D-01
    56  5.5000000000000D-01  1.2113852779567D+00  2.3231147096600D-01
    57  5.6000000000000D-01  1.1755287697042D+00  2.5366072119768D-01
    58  5.7000000000000D-01  1.1386166909192D+00  2.7578274531086D-01
    59  5.8000000000000D-01  1.1007559745418D+00  2.9866789958901D-01
    60  5.9000000000000D-01  1.0620541651682D+00  3.2230398225097D-01
    61  6.0000000000000D-01  1.0226190864740D+00  3.4667611328690D-01
    62  6.1000000000000D-01  9.8255851062841D-01  3.7176662155639D-01
    63  6.2000000000000D-01  9.4197983090197D-01  3.9755494047019D-01
    64  6.3000000000000D-01  9.0098973865846D-01  4.2401751357292D-01
    65  6.4000000000000D-01  8.5969390590822D-01  4.5112771132862D-01
    66  6.5000000000000D-01  8.1819667457719D-01  4.7885576038328D-01
    67  6.6000000000000D-01  7.7660075362149D-01  5.0716868653922D-01
    68  6.7000000000000D-01  7.3500692508510D-01  5.3603027262419D-01
    69  6.8000000000000D-01  6.9351376016192D-01  5.6540103237577D-01
    70  6.9000000000000D-01  6.5221734628200D-01  5.9523820138527D-01
    71  7.0000000000000D-01  6.1121102619491D-01  6.2549574605982D-01
    72  7.1000000000000D-01  5.7058514997233D-01  6.5612439146337D-01
    73  7.2000000000000D-01  5.3042684079585D-01  6.8707166878865D-01
    74  7.3000000000000D-01  4.9081977533628D-01  7.1828198309459D-01
    75  7.4000000000000D-01  4.5184397946638D-01  7.4969670181624D-01
    76  7.5000000000000D-01  4.1357563998165D-01  7.8125426441792D-01
    77  7.6000000000000D-01  3.7608693293203D-01  8.1289031341647D-01
    78  7.7000000000000D-01  3.3944586909382D-01  8.4453784685195D-01
    79  7.8000000000000D-01  3.0371615703382D-01  8.7612739212697D-01
    80  7.9000000000000D-01  2.6895708413875D-01  9.0758720097518D-01
    81  8.0000000000000D-01  2.3522341590177D-01  9.3884346515615D-01
    82  8.1000000000000D-01  2.0256531367551D-01  9.6982055230783D-01
    83  8.2000000000000D-01  1.7102827101738D-01  1.0004412612216D+00
    84  8.3000000000000D-01  1.4065306866869D-01  1.0306270956385D+00
    85  8.4000000000000D-01  1.1147574812490D-01  1.0602985555011D+00
    86  8.5000000000000D-01  8.3527603670030D-02  1.0893754444347D+00
    87  8.6000000000000D-01  5.6835192665224D-02  1.1177771920751D+00
    88  8.7000000000000D-01  3.1420363799252D-02  1.1454231897094D+00
    89  8.8000000000000D-01  7.3003029283138D-03  1.1722331375528D+00
    90  8.9000000000000D-01 -1.5512403945705D-02  1.1981274018519D+00
    91  9.0000000000000D-01 -3.7009691085366D-02  1.2230273798759D+00
    92  9.1000000000000D-01 -5.7187917415430D-02  1.2468558707479D+00
    93  9.2000000000000D-01 -7.6047755577286D-02  1.2695374499639D+00
    94  9.3000000000000D-01 -9.3594066374606D-02  1.2909988453601D+00
    95  9.4000000000000D-01 -1.0983575940631D-01  1.3111693122144D+00
    96  9.5000000000000D-01 -1.2478564073996D-01  1.3299810051092D+00
    97  9.6000000000000D-01 -1.3846024853113D-01  1.3473693441406D+00
    98  9.7000000000000D-01 -1.5087967754120D-01  1.3632733730319D+00
    99  9.8000000000000D-01 -1.6206739354832D-01  1.3776361067001D+00
   100  9.9000000000000D-01 -1.7205003868202D-01  1.3904048658338D+00
   101  1.0000000000000D+00 -1.8085722874315D-01  1.4015315960684D+00
   102  1.0100000000000D+00 -1.8852134359450D-01  1.4109731693868D+00
   103  1.0200000000000D+00 -1.9507731172703D-01  1.4186916654389D+00
   104  1.0300000000000D+00 -2.0056239011843D-01  1.4246546305566D+00
   105  1.0400000000000D+00 -2.0501594050718D-01  1.4288353123364D+00
   106  1.0500000000000D+00 -2.0847920320535D-01  1.4312128677815D+00
   107  1.0600000000000D+00 -2.1099506956667D-01  1.4317725431354D+00
   108  1.0700000000000D+00 -2.1260785421575D-01  1.4305058236726D+00
   109  1.0800000000000D+00 -2.1336306812459D-01  1.4274105518992D+00
   110  1.0900000000000D+00 -2.1330719359930D-01  1.4224910127849D+00
   111  1.1000000000000D+00 -2.1248746220999D-01  1.4157579848476D+00
   112  1.1100000000000D+00 -2.1095163666005D-01  1.4072287561273D+00
   113  1.1200000000000D+00 -2.0874779755670D-01  1.3969271042745D+00
   114  1.1300000000000D+00 -2.0592413599103D-01  1.3848832402528D+00
   115  1.1400000000000D+00 -2.0252875279216D-01  1.3711337153600D+00
   116  1.1500000000000D+00 -1.9860946525865D-01  1.3557212915461D+00
   117  1.1600000000000D+00 -1.9421362212856D-01  1.3386947751968D+00
   118  1.1700000000000D+00 -1.8938792746681D-01  1.3201088148860D+00
   119  1.1800000000000D+00 -1.8417827409555D-01  1.3000236638112D+00
   120  1.1900000000000D+00 -1.7862958712476D-01  1.2785049078832D+00
   121  1.2000000000000D+00 -1.7278567807713D-01  1.2556231606802D+00
   122  1.2100000000000D+00 -1.6668911001488D-01  1.2314537267771D+00
   123  1.2200000000000D+00 -1.6038107400208D-01  1.2060762352032D+00
   124  1.2300000000000D+00 -1.5390127720166D-01  1.1795742449029D+00
   125  1.2400000000000D+00 -1.4728784277704D-01  1.1520348244800D+00
   126  1.2500000000000D+00 -1.4057722171722D-01  1.1235481086406D+00
   127  1.2600000000000D+00 -1.3380411665904D-01  1.0942068338872D+00
   128  1.2700000000000D+00 -1.2700141766671D-01  1.0641058563327D+00
   129  1.2800000000000D+00 -1.2020014986012D-01  1.0333416546485D+00
   130  1.2900000000000D+00 -1.1342943276058D-01  1.0020118212268D+00
   131  1.3000000000000D+00 -1.0671645110746D-01  9.7021454490486D-01
   132  1.3100000000000D+00 -1.0008643683210D-01  9.3804808868370D-01
   133  1.3200000000000D+00 -9.3562661878753D-02  9.0561026589571D-01
   134  1.3300000000000D+00 -8.7166441430308D-02  8.7299791849009D-01
   135  1.3400000000000D+00 -8.0917147059947D-02  8.4030640106195D-01
   136  1.3500000000000D+00 -7.4832229348954D-02  8.0762907431740D-01
   137  1.3600000000000D+00 -6.8927249351204D-02  7.7505681170991D-01
   138  1.3700000000000D+00 -6.3215918334379D-02  7.4267752288482D-01
   139  1.3800000000000D+00 -5.7710145172099D-02  7.1057569768824D-01
   140  1.3900000000000D+00 -5.2420090685736D-02  6.7883197420806D-01
   141  1.4000000000000D+00 -4.7354228283677D-02  6.4752273447603D-01
   142  1.4100000000000D+00 -4.2519410156786D-02  6.1671973122266D-01
   143  1.4200000000000D+00 -3.7920938315762D-02  5.8648974879115D-01
   144  1.4300000000000D+00 -3.3562639731190D-02  5.5689430169720D-01
   145  1.4400000000000D+00 -2.9446944831767D-02  5.2798937330665D-01
   146  1.4500000000000D+00 -2.5574968622030D-02  4.9982519781176D-01
   147  1.4600000000000D+00 -2.1946593673459D-02  4.7244608782628D-01
   148  1.4700000000000D+00 -1.8560554289980D-02  4.4589030976298D-01
   149  1.4800000000000D+00 -1.5414521080954D-02  4.2019000961220D-01
   150  1.4900000000000D+00 -1.2505185341158D-02  3.9537118992867D-01
   151  1.5000000000000D+00 -9.8283424529281D-03  3.7145374078075D-01
   152  1.5100000000000D+00 -7.3789737918330D-03  3.4845152463559D-01
   153  1.5200000000000D+00 -5.1513264352143D-03  3.2637251705339D-01
   154  1.5300000000000D+00 -3.1389901464693D-03  3.0521900329495D-01
   155  1.5400000000000D+00 -1.3349711216030D-03  2.8498783110605D-01
   156  1.5500000000000D+00  2.6823808776229D-04  2.6567072024039D-01
   157  1.5600000000000D+00  1.6785927453294D-03  2.4725462721105D-01
   158  1.5700000000000D+00  2.9044348609651D-03  2.2972216631975D-01
   159  1.5800000000000D+00  3.9544368869279D-03  2.1305208375946D-01
   160  1.5900000000000D+00  4.8375508962637D-03  1.9721978604768D-01
   161  1.6000000000000D+00  5.5629630634748D-03  1.8219791854657D-01
   162  1.6100000000000D+00  6.1400540696549D-03  1.6795699462706D-01
   163  1.6200000000000D+00  6.5783652080163D-03  1.5446607111369D-01
   164  1.6300000000000D+00  6.8875706276920D-03  1.4169346940114D-01
   165  1.6400000000000D+00  7.0774554812045D-03  1.2960753794544D-01
   166  1.6500000000000D+00  7.1579002291420D-03  1.1817745446217D-01
   167  1.6600000000000D+00  7.1388717514996D-03  1.0737407739580D-01
   168  1.6700000000000D+00  7.0304163862678D-03  9.7170767631801D-02
   169  1.6800000000000D+00  6.8426705801036D-03  8.7544418847892D-02
   170  1.6900000000000D+00  6.5858494783647D-03  7.8476100000953D-02
   171  1.7000000000000D+00  6.2702465543774D-03  6.9951786228043D-02
   172  1.7100000000000D+00  5.9063679573285D-03  6.1965102754628D-02
   173  1.7200000000000D+00  5.5048680900209D-03  5.4516979603660D-02
   174  1.7300000000000D+00  5.0762293920312D-03  4.7611227287249D-02
   175  1.7400000000000D+00  4.6305331771366D-03  4.1251635307354D-02
   176  1.7500000000000D+00  4.1771456026784D-03  3.5438000060943D-02
   177  1.7600000000000D+00  3.7244739987794D-03  3.0163136766396D-02
   178  1.7700000000000D+00  3.2800694058142D-03  2.5415236571093D-02
   179  1.7800000000000D+00  2.8506444746469D-03  2.1178901269030D-02
   180  1.7900000000000D+00  2.4420086817718D-03  1.7434722497609D-02
   181  1.8000000000000D+00  2.0590845806420D-03  1.4160108725433D-02
   182  1.8100000000000D+00  1.7058957207425D-03  1.1329590431312D-02
   183  1.8200000000000D+00  1.3855676446894D-03  8.9152691477454D-03
   184  1.8300000000000D+00  1.1003296123518D-03  6.8872174831880D-03
   185  1.8400000000000D+00  8.5151887004053D-04  5.2138609675041D-03
   186  1.8500000000000D+00  6.3958662231384D-04  3.8623328813273D-03
   187  1.8600000000000D+00  4.6410585842452D-04  2.7988049342657D-03
   188  1.8700000000000D+00  3.2380446542303D-04  1.9892563564523D-03
   189  1.8800000000000D+00  2.1649657656218D-04  1.3982155449867D-03
   190  1.8900000000000D+00  1.3895248613257D-04  9.8736844004718D-04
   191  1.9000000000000D+00  8.7254525591940D-05  7.2126078227493D-04
   192  1.9100000000000D+00  5.8182935211368D-05  5.8394962312120D-04
   193  1.9200000000000D+00  4.7951899369688D-05  5.5964517890796D-04
   194  1.9300000000000D+00  4.2903460601055D-05  5.2690706795308D-04
   195  1.9400000000000D+00  2.9927220949716D-05  3.6974300035720D-04
   196  1.9500000000000D+00  1.1008695461447D-05  1.3553750395354D-04
   197  1.9600000000000D+00 -2.3484480456606D-06 -2.9444033595945D-05
   198  1.9700000000000D+00 -3.7918310049368D-06 -4.7576543074647D-05
   199  1.9800000000000D+00 -1.0163759741108D-07 -1.2751927302186D-06
   200  1.9900000000000D+00  9.0510641967462D-07  1.1485383479114D-05
   201  2.0000000000000D+00  4.1671543128155D-07  5.2963986867026D-06
   202  2.0100000000000D+00 -8.7129988425255D-08 -1.0727377600017D-06
   203  2.0200000000000D+00 -9.5251198696390D-08 -1.1727254803288D-06
   204  2.0300000000000D+00  0.0000000000000D+00  0.0000000000000D+00
   205  2.0400000000000D+00  0.0000000000000D+00  0.0000000000000D+00
   206  2.0500000000000D+00  0.0000000000000D+00  0.0000000000000D+00
   207  2.0600000000000D+00  0.0000000000000D+00  0.0000000000000D+00
   208  2.0700000000000D+00  0.0000000000000D+00  0.0000000000000D+00
   209  2.0800000000000D+00  0.0000000000000D+00  0.0000000000000D+00
   210  2.0900000000000D+00  0.0000000000000D+00  0.0000000000000D+00
   211  2.1000000000000D+00  0.0000000000000D+00  0.0000000000000D+00
   212  2.1100000000000D+00  0.0000000000000D+00  0.0000000000000D+00
   213  2.1200000000000D+00  0.0000000000000D+00  0.0000000000000D+00
   214  2.1300000000000D+00  0.0000000000000D+00  0.0000000000000D+00
   215  2.1400000000000D+00  0.0000000000000D+00  0.0000000000000D+00
   216  2.1500000000000D+00  0.0000000000000D+00  0.0000000000000D+00
   217  2.1600000000000D+00  0.0000000000000D+00  0.0000000000000D+00
   218  2.1700000000000D+00  0.0000000000000D+00  0.0000000000000D+00
   219  2.1800000000000D+00  0.0000000000000D+00  0.0000000000000D+00
   220  2.1900000000000D+00  0.0000000000000D+00  0.0000000000000D+00
   221  2.2000000000000D+00  0.0000000000000D+00  0.0000000000000D+00
   222  2.2100000000000D+00  0.0000000000000D+00  0.0000000000000D+00
   223  2.2200000000000D+00  0.0000000000000D+00  0.0000000000000D+00
   224  2.2300000000000D+00  0.0000000000000D+00  0.0000000000000D+00
   225  2.2400000000000D+00  0.0000000000000D+00  0.0000000000000D+00
   226  2.2500000000000D+00  0.0000000000000D+00  0.0000000000000D+00
   227  2.2600000000000D+00  0.0000000000000D+00  0.0000000000000D+00
   228  2.2700000000000D+00  0.0000000000000D+00  0.0000000000000D+00
   229  2.2800000000000D+00  0.0000000000000D+00  0.0000000000000D+00
   230  2.2900000000000D+00  0.0000000000000D+00  0.0000000000000D+00
   231  2.3000000000000D+00  0.0000000000000D+00  0.0000000000000D+00
   232  2.3100000000000D+00  0.0000000000000D+00  0.0000000000000D+00
   233  2.3200000000000D+00  0.0000000000000D+00  0.0000000000000D+00
   234  2.3300000000000D+00  0.0000000000000D+00  0.0000000000000D+00
   235  2.3400000000000D+00  0.0000000000000D+00  0.0000000000000D+00
   236  2.3500000000000D+00  0.0000000000000D+00  0.0000000000000D+00
   237  2.3600000000000D+00  0.0000000000000D+00  0.0000000000000D+00
   238  2.3700000000000D+00  0.0000000000000D+00  0.0000000000000D+00
   239  2.3800000000000D+00  0.0000000000000D+00  0.0000000000000D+00
   240  2.3900000000000D+00  0.0000000000000D+00  0.0000000000000D+00
   241  2.4000000000000D+00  0.0000000000000D+00  0.0000000000000D+00
   242  2.4100000000000D+00  0.0000000000000D+00  0.0000000000000D+00
   243  2.4200000000000D+00  0.0000000000000D+00  0.0000000000000D+00
   244  2.4300000000000D+00  0.0000000000000D+00  0.0000000000000D+00
   245  2.4400000000000D+00  0.0000000000000D+00  0.0000000000000D+00
   246  2.4500000000000D+00  0.0000000000000D+00  0.0000000000000D+00
   247  2.4600000000000D+00  0.0000000000000D+00  0.0000000000000D+00
   248  2.4700000000000D+00  0.0000000000000D+00  0.0000000000000D+00
   249  2.4800000000000D+00  0.0000000000000D+00  0.0000000000000D+00
   250  2.4900000000000D+00  0.0000000000000D+00  0.0000000000000D+00
   251  2.5000000000000D+00  0.0000000000000D+00  0.0000000000000D+00
   252  2.5100000000000D+00  0.0000000000000D+00  0.0000000000000D+00
   253  2.5200000000000D+00  0.0000000000000D+00  0.0000000000000D+00
   254  2.5300000000000D+00  0.0000000000000D+00  0.0000000000000D+00
   255  2.5400000000000D+00  0.0000000000000D+00  0.0000000000000D+00
   256  2.5500000000000D+00  0.0000000000000D+00  0.0000000000000D+00
   257  2.5600000000000D+00  0.0000000000000D+00  0.0000000000000D+00
   258  2.5700000000000D+00  0.0000000000000D+00  0.0000000000000D+00
   259  2.5800000000000D+00  0.0000000000000D+00  0.0000000000000D+00
   260  2.5900000000000D+00  0.0000000000000D+00  0.0000000000000D+00
   261  2.6000000000000D+00  0.0000000000000D+00  0.0000000000000D+00
   262  2.6100000000000D+00  0.0000000000000D+00  0.0000000000000D+00
   263  2.6200000000000D+00  0.0000000000000D+00  0.0000000000000D+00
   264  2.6300000000000D+00  0.0000000000000D+00  0.0000000000000D+00
   265  2.6400000000000D+00  0.0000000000000D+00  0.0000000000000D+00
   266  2.6500000000000D+00  0.0000000000000D+00  0.0000000000000D+00
   267  2.6600000000000D+00  0.0000000000000D+00  0.0000000000000D+00
   268  2.6700000000000D+00  0.0000000000000D+00  0.0000000000000D+00
   269  2.6800000000000D+00  0.0000000000000D+00  0.0000000000000D+00
   270  2.6900000000000D+00  0.0000000000000D+00  0.0000000000000D+00
   271  2.7000000000000D+00  0.0000000000000D+00  0.0000000000000D+00
   272  2.7100000000000D+00  0.0000000000000D+00  0.0000000000000D+00
   273  2.7200000000000D+00  0.0000000000000D+00  0.0000000000000D+00
   274  2.7300000000000D+00  0.0000000000000D+00  0.0000000000000D+00
   275  2.7400000000000D+00  0.0000000000000D+00  0.0000000000000D+00
   276  2.7500000000000D+00  0.0000000000000D+00  0.0000000000000D+00
   277  2.7600000000000D+00  0.0000000000000D+00  0.0000000000000D+00
   278  2.7700000000000D+00  0.0000000000000D+00  0.0000000000000D+00
   279  2.7800000000000D+00  0.0000000000000D+00  0.0000000000000D+00
   280  2.7900000000000D+00  0.0000000000000D+00  0.0000000000000D+00
   281  2.8000000000000D+00  0.0000000000000D+00  0.0000000000000D+00
   282  2.8100000000000D+00  0.0000000000000D+00  0.0000000000000D+00
   283  2.8200000000000D+00  0.0000000000000D+00  0.0000000000000D+00
   284  2.8300000000000D+00  0.0000000000000D+00  0.0000000000000D+00
   285  2.8400000000000D+00  0.0000000000000D+00  0.0000000000000D+00
   286  2.8500000000000D+00  0.0000000000000D+00  0.0000000000000D+00
   287  2.8600000000000D+00  0.0000000000000D+00  0.0000000000000D+00
   288  2.8700000000000D+00  0.0000000000000D+00  0.0000000000000D+00
   289  2.8800000000000D+00  0.0000000000000D+00  0.0000000000000D+00
   290  2.8900000000000D+00  0.0000000000000D+00  0.0000000000000D+00
   291  2.9000000000000D+00  0.0000000000000D+00  0.0000000000000D+00
   292  2.9100000000000D+00  0.0000000000000D+00  0.0000000000000D+00
   293  2.9200000000000D+00  0.0000000000000D+00  0.0000000000000D+00
   294  2.9300000000000D+00  0.0000000000000D+00  0.0000000000000D+00
   295  2.9400000000000D+00  0.0000000000000D+00  0.0000000000000D+00
   296  2.9500000000000D+00  0.0000000000000D+00  0.0000000000000D+00
   297  2.9600000000000D+00  0.0000000000000D+00  0.0000000000000D+00
   298  2.9700000000000D+00  0.0000000000000D+00  0.0000000000000D+00
   299  2.9800000000000D+00  0.0000000000000D+00  0.0000000000000D+00
   300  2.9900000000000D+00  0.0000000000000D+00  0.0000000000000D+00
   301  3.0000000000000D+00  0.0000000000000D+00  0.0000000000000D+00
   302  3.0100000000000D+00  0.0000000000000D+00  0.0000000000000D+00
   303  3.0200000000000D+00  0.0000000000000D+00  0.0000000000000D+00
   304  3.0300000000000D+00  0.0000000000000D+00  0.0000000000000D+00
   305  3.0400000000000D+00  0.0000000000000D+00  0.0000000000000D+00
   306  3.0500000000000D+00  0.0000000000000D+00  0.0000000000000D+00
   307  3.0600000000000D+00  0.0000000000000D+00  0.0000000000000D+00
   308  3.0700000000000D+00  0.0000000000000D+00  0.0000000000000D+00
   309  3.0800000000000D+00  0.0000000000000D+00  0.0000000000000D+00
   310  3.0900000000000D+00  0.0000000000000D+00  0.0000000000000D+00
   311  3.1000000000000D+00  0.0000000000000D+00  0.0000000000000D+00
   312  3.1100000000000D+00  0.0000000000000D+00  0.0000000000000D+00
   313  3.1200000000000D+00  0.0000000000000D+00  0.0000000000000D+00
   314  3.1300000000000D+00  0.0000000000000D+00  0.0000000000000D+00
   315  3.1400000000000D+00  0.0000000000000D+00  0.0000000000000D+00
   316  3.1500000000000D+00  0.0000000000000D+00  0.0000000000000D+00
   317  3.1600000000000D+00  0.0000000000000D+00  0.0000000000000D+00
   318  3.1700000000000D+00  0.0000000000000D+00  0.0000000000000D+00
   319  3.1800000000000D+00  0.0000000000000D+00  0.0000000000000D+00
   320  3.1900000000000D+00  0.0000000000000D+00  0.0000000000000D+00
   321  3.2000000000000D+00  0.0000000000000D+00  0.0000000000000D+00
   322  3.2100000000000D+00  0.0000000000000D+00  0.0000000000000D+00
   323  3.2200000000000D+00  0.0000000000000D+00  0.0000000000000D+00
   324  3.2300000000000D+00  0.0000000000000D+00  0.0000000000000D+00
   325  3.2400000000000D+00  0.0000000000000D+00  0.0000000000000D+00
   326  3.2500000000000D+00  0.0000000000000D+00  0.0000000000000D+00
   327  3.2600000000000D+00  0.0000000000000D+00  0.0000000000000D+00
   328  3.2700000000000D+00  0.0000000000000D+00  0.0000000000000D+00
   329  3.2800000000000D+00  0.0000000000000D+00  0.0000000000000D+00
   330  3.2900000000000D+00  0.0000000000000D+00  0.0000000000000D+00
   331  3.3000000000000D+00  0.0000000000000D+00  0.0000000000000D+00
   332  3.3100000000000D+00  0.0000000000000D+00  0.0000000000000D+00
   333  3.3200000000000D+00  0.0000000000000D+00  0.0000000000000D+00
   334  3.3300000000000D+00  0.0000000000000D+00  0.0000000000000D+00
   335  3.3400000000000D+00  0.0000000000000D+00  0.0000000000000D+00
   336  3.3500000000000D+00  0.0000000000000D+00  0.0000000000000D+00
   337  3.3600000000000D+00  0.0000000000000D+00  0.0000000000000D+00
   338  3.3700000000000D+00  0.0000000000000D+00  0.0000000000000D+00
   339  3.3800000000000D+00  0.0000000000000D+00  0.0000000000000D+00
   340  3.3900000000000D+00  0.0000000000000D+00  0.0000000000000D+00
   341  3.4000000000000D+00  0.0000000000000D+00  0.0000000000000D+00
   342  3.4100000000000D+00  0.0000000000000D+00  0.0000000000000D+00
   343  3.4200000000000D+00  0.0000000000000D+00  0.0000000000000D+00
   344  3.4300000000000D+00  0.0000000000000D+00  0.0000000000000D+00
   345  3.4400000000000D+00  0.0000000000000D+00  0.0000000000000D+00
   346  3.4500000000000D+00  0.0000000000000D+00  0.0000000000000D+00
   347  3.4600000000000D+00  0.0000000000000D+00  0.0000000000000D+00
   348  3.4700000000000D+00  0.0000000000000D+00  0.0000000000000D+00
   349  3.4800000000000D+00  0.0000000000000D+00  0.0000000000000D+00
   350  3.4900000000000D+00  0.0000000000000D+00  0.0000000000000D+00
   351  3.5000000000000D+00  0.0000000000000D+00  0.0000000000000D+00
   352  3.5100000000000D+00  0.0000000000000D+00  0.0000000000000D+00
   353  3.5200000000000D+00  0.0000000000000D+00  0.0000000000000D+00
   354  3.5300000000000D+00  0.0000000000000D+00  0.0000000000000D+00
   355  3.5400000000000D+00  0.0000000000000D+00  0.0000000000000D+00
   356  3.5500000000000D+00  0.0000000000000D+00  0.0000000000000D+00
   357  3.5600000000000D+00  0.0000000000000D+00  0.0000000000000D+00
   358  3.5700000000000D+00  0.0000000000000D+00  0.0000000000000D+00
   359  3.5800000000000D+00  0.0000000000000D+00  0.0000000000000D+00
   360  3.5900000000000D+00  0.0000000000000D+00  0.0000000000000D+00
   361  3.6000000000000D+00  0.0000000000000D+00  0.0000000000000D+00
   362  3.6100000000000D+00  0.0000000000000D+00  0.0000000000000D+00
   363  3.6200000000000D+00  0.0000000000000D+00  0.0000000000000D+00
   364  3.6300000000000D+00  0.0000000000000D+00  0.0000000000000D+00
   365  3.6400000000000D+00  0.0000000000000D+00  0.0000000000000D+00
   366  3.6500000000000D+00  0.0000000000000D+00  0.0000000000000D+00
   367  3.6600000000000D+00  0.0000000000000D+00  0.0000000000000D+00
   368  3.6700000000000D+00  0.0000000000000D+00  0.0000000000000D+00
   369  3.6800000000000D+00  0.0000000000000D+00  0.0000000000000D+00
   370  3.6900000000000D+00  0.0000000000000D+00  0.0000000000000D+00
   371  3.7000000000000D+00  0.0000000000000D+00  0.0000000000000D+00
   372  3.7100000000000D+00  0.0000000000000D+00  0.0000000000000D+00
   373  3.7200000000000D+00  0.0000000000000D+00  0.0000000000000D+00
   374  3.7300000000000D+00  0.0000000000000D+00  0.0000000000000D+00
   375  3.7400000000000D+00  0.0000000000000D+00  0.0000000000000D+00
   376  3.7500000000000D+00  0.0000000000000D+00  0.0000000000000D+00
   377  3.7600000000000D+00  0.0000000000000D+00  0.0000000000000D+00
   378  3.7700000000000D+00  0.0000000000000D+00  0.0000000000000D+00
   379  3.7800000000000D+00  0.0000000000000D+00  0.0000000000000D+00
   380  3.7900000000000D+00  0.0000000000000D+00  0.0000000000000D+00
   381  3.8000000000000D+00  0.0000000000000D+00  0.0000000000000D+00
   382  3.8100000000000D+00  0.0000000000000D+00  0.0000000000000D+00
   383  3.8200000000000D+00  0.0000000000000D+00  0.0000000000000D+00
   384  3.8300000000000D+00  0.0000000000000D+00  0.0000000000000D+00
   385  3.8400000000000D+00  0.0000000000000D+00  0.0000000000000D+00
   386  3.8500000000000D+00  0.0000000000000D+00  0.0000000000000D+00
   387  3.8600000000000D+00  0.0000000000000D+00  0.0000000000000D+00
   388  3.8700000000000D+00  0.0000000000000D+00  0.0000000000000D+00
   389  3.8800000000000D+00  0.0000000000000D+00  0.0000000000000D+00
   390  3.8900000000000D+00  0.0000000000000D+00  0.0000000000000D+00
   391  3.9000000000000D+00  0.0000000000000D+00  0.0000000000000D+00
   392  3.9100000000000D+00  0.0000000000000D+00  0.0000000000000D+00
   393  3.9200000000000D+00  0.0000000000000D+00  0.0000000000000D+00
   394  3.9300000000000D+00  0.0000000000000D+00  0.0000000000000D+00
   395  3.9400000000000D+00  0.0000000000000D+00  0.0000000000000D+00
   396  3.9500000000000D+00  0.0000000000000D+00  0.0000000000000D+00
   397  3.9600000000000D+00  0.0000000000000D+00  0.0000000000000D+00
   398  3.9700000000000D+00  0.0000000000000D+00  0.0000000000000D+00
   399  3.9800000000000D+00  0.0000000000000D+00  0.0000000000000D+00
   400  3.9900000000000D+00  0.0000000000000D+00  0.0000000000000D+00
   401  4.0000000000000D+00  0.0000000000000D+00  0.0000000000000D+00
   402  4.0100000000000D+00  0.0000000000000D+00  0.0000000000000D+00
   403  4.0200000000000D+00  0.0000000000000D+00  0.0000000000000D+00
   404  4.0300000000000D+00  0.0000000000000D+00  0.0000000000000D+00
   405  4.0400000000000D+00  0.0000000000000D+00  0.0000000000000D+00
   406  4.0500000000000D+00  0.0000000000000D+00  0.0000000000000D+00
   407  4.0600000000000D+00  0.0000000000000D+00  0.0000000000000D+00
   408  4.0700000000000D+00  0.0000000000000D+00  0.0000000000000D+00
   409  4.0800000000000D+00  0.0000000000000D+00  0.0000000000000D+00
   410  4.0900000000000D+00  0.0000000000000D+00  0.0000000000000D+00
   411  4.1000000000000D+00  0.0000000000000D+00  0.0000000000000D+00
   412  4.1100000000000D+00  0.0000000000000D+00  0.0000000000000D+00
   413  4.1200000000000D+00  0.0000000000000D+00  0.0000000000000D+00
   414  4.1300000000000D+00  0.0000000000000D+00  0.0000000000000D+00
   415  4.1400000000000D+00  0.0000000000000D+00  0.0000000000000D+00
   416  4.1500000000000D+00  0.0000000000000D+00  0.0000000000000D+00
   417  4.1600000000000D+00  0.0000000000000D+00  0.0000000000000D+00
   418  4.1700000000000D+00  0.0000000000000D+00  0.0000000000000D+00
   419  4.1800000000000D+00  0.0000000000000D+00  0.0000000000000D+00
   420  4.1900000000000D+00  0.0000000000000D+00  0.0000000000000D+00
   421  4.2000000000000D+00  0.0000000000000D+00  0.0000000000000D+00
   422  4.2100000000000D+00  0.0000000000000D+00  0.0000000000000D+00