I     ONCVPSP-3.3.1  r_core=   2.41629   3.33444   3.21723
     53.0000     17.0000      210904    zatom,zion,pspd
     8       2   2     4   600     0    pspcod,pspxc,lmax,lloc,mmax,r2well
  5.99000000  0.00000000  0.00000000    rchrg fchrg qchrg
     2     3     3     0    nproj
     3     1           extension_switch
     4     4     0    nprojso
   0                         1.8601116938775D+00  7.7302260889043D+00
     1  0.0000000000000D+00 -1.9978352305827D-11  3.7241043582270D-12
     2  1.0000000000000D-02  2.8021845302045D-02  1.1562836769019D-02
     3  2.0000000000000D-02  5.5920001593585D-02  2.3162281956320D-02
     4  3.0000000000000D-02  8.3571288973304D-02  3.4834784841846D-02
     5  4.0000000000000D-02  1.1085354393346D-01  4.6616476912960D-02
     6  5.0000000000000D-02  1.3764612299970D-01  5.8543014177487D-02
     7  6.0000000000000D-02  1.6383040091645D-01  7.0649420925351D-02
     8  7.0000000000000D-02  1.8929026158311D-01  8.2969935417355D-02
     9  8.0000000000000D-02  2.1391257996624D-01  9.5537857975904D-02
    10  9.0000000000000D-02  2.3758769323778D-01  1.0838540194779D-01
    11  1.0000000000000D-01  2.6020985941959D-01  1.2154354800355D-01
    12  1.1000000000000D-01  2.8167770184933D-01  1.3504190223118D-01
    13  1.2000000000000D-01  3.0189463782275D-01  1.4890855847448D-01
    14  1.3000000000000D-01  3.2076928981237D-01  1.6316996535761D-01
    15  1.4000000000000D-01  3.3821587771257D-01  1.7785079842768D-01
    16  1.5000000000000D-01  3.5415459061560D-01  1.9297383783657D-01
    17  1.6000000000000D-01  3.6851193668319D-01  2.0855985197133D-01
    18  1.7000000000000D-01  3.8122106974262D-01  2.2462748742957D-01
    19  1.8000000000000D-01  3.9222209130589D-01  2.4119316572223D-01
    20  1.9000000000000D-01  4.0146232678448D-01  2.5827098707098D-01
    21  2.0000000000000D-01  4.0889657475125D-01  2.7587264165126D-01
    22  2.1000000000000D-01  4.1448732818432D-01  2.9400732861436D-01
    23  2.2000000000000D-01  4.1820496671565D-01  3.1268168320356D-01
    24  2.3000000000000D-01  4.2002791899936D-01  3.3189971225926D-01
    25  2.4000000000000D-01  4.1994279441096D-01  3.5166273838740D-01
    26  2.5000000000000D-01  4.1794448338946D-01  3.7196935304310D-01
    27  2.6000000000000D-01  4.1403622583811D-01  3.9281537875835D-01
    28  2.7000000000000D-01  4.0822964710772D-01  4.1419384071800D-01
    29  2.8000000000000D-01  4.0054476119742D-01  4.3609494786303D-01
    30  2.9000000000000D-01  3.9100994092222D-01  4.5850608367316D-01
    31  3.0000000000000D-01  3.7966185491358D-01  4.8141180675366D-01
    32  3.1000000000000D-01  3.6654537143892D-01  5.0479386132192D-01
    33  3.2000000000000D-01  3.5171342914770D-01  5.2863119766057D-01
    34  3.3000000000000D-01  3.3522687497489D-01  5.5290000257265D-01
    35  3.4000000000000D-01  3.1715426955796D-01  5.7757373984363D-01
    36  3.5000000000000D-01  2.9757166064879D-01  6.0262320068278D-01
    37  3.6000000000000D-01  2.7656232512851D-01  6.2801656408364D-01
    38  3.7000000000000D-01  2.5421648035955D-01  6.5371946701022D-01
    39  3.8000000000000D-01  2.3063096573494D-01  6.7969508428184D-01
    40  3.9000000000000D-01  2.0590889540997D-01  7.0590421799525D-01
    41  4.0000000000000D-01  1.8015928332471D-01  7.3230539628865D-01
    42  4.1000000000000D-01  1.5349664174733D-01  7.5885498121747D-01
    43  4.2000000000000D-01  1.2604055468695D-01  7.8550728547765D-01
    44  4.3000000000000D-01  9.7915227640678D-02  8.1221469767773D-01
    45  4.4000000000000D-01  6.9249015251296D-02  8.3892781582711D-01
    46  4.5000000000000D-01  4.0173928559951D-02  8.6559558867433D-01
    47  4.6000000000000D-01  1.0825123641068D-02  8.9216546449630D-01
    48  4.7000000000000D-01 -1.8659626495832D-02  9.1858354690713D-01
    49  4.8000000000000D-01 -4.8140474761171D-02  9.4479475722394D-01
    50  4.9000000000000D-01 -7.7476055536195D-02  9.7074300289696D-01
    51  5.0000000000000D-01 -1.0652405078060D-01  9.9637135148172D-01
    52  5.1000000000000D-01 -1.3514176448773D-01  1.0216222096041D+00
    53  5.2000000000000D-01 -1.6318670321608D-01  1.0464375063424D+00
    54  5.3000000000000D-01 -1.9051716037227D-01  1.0707588804263D+00
    55  5.4000000000000D-01 -2.1699280187615D-01  1.0945278706298D+00
    56  5.5000000000000D-01 -2.4247525080388D-01  1.1176861087154D+00
    57  5.6000000000000D-01 -2.6682866857962D-01  1.1401755142670D+00
    58  5.7000000000000D-01 -2.8992033027153D-01  1.1619384907334D+00
    59  5.8000000000000D-01 -3.1162119154347D-01  1.1829181219911D+00
    60  5.9000000000000D-01 -3.3180644482002D-01  1.2030583687223D+00
    61  6.0000000000000D-01 -3.5035606223987D-01  1.2223042638966D+00
    62  6.1000000000000D-01 -3.6715532300100D-01  1.2406021066382D+00
    63  6.2000000000000D-01 -3.8209532274072D-01  1.2578996537574D+00
    64  6.3000000000000D-01 -3.9507346264454D-01  1.2741463082242D+00
    65  6.4000000000000D-01 -4.0599391604003D-01  1.2892933038666D+00
    66  6.5000000000000D-01 -4.1476807030503D-01  1.3032938855781D+00
    67  6.6000000000000D-01 -4.2131494200394D-01  1.3161034843324D+00
    68  6.7000000000000D-01 -4.2556156326120D-01  1.3276798863093D+00
    69  6.8000000000000D-01 -4.2744333748614D-01  1.3379833954562D+00
    70  6.9000000000000D-01 -4.2690436268011D-01  1.3469769888242D+00
    71  7.0000000000000D-01 -4.2389772068185D-01  1.3546264640374D+00
    72  7.1000000000000D-01 -4.1838573084291D-01  1.3609005782835D+00
    73  7.2000000000000D-01 -4.1034016676820D-01  1.3657711782327D+00
    74  7.3000000000000D-01 -3.9974243490964D-01  1.3692133203282D+00
    75  7.4000000000000D-01 -3.8658371396074D-01  1.3712053809216D+00
    76  7.5000000000000D-01 -3.7086505416689D-01  1.3717291557586D+00
    77  7.6000000000000D-01 -3.5259743583937D-01  1.3707699483642D+00
    78  7.7000000000000D-01 -3.3180178654000D-01  1.3683166469100D+00
    79  7.8000000000000D-01 -3.0850895658659D-01  1.3643617891937D+00
    80  7.9000000000000D-01 -2.8275965271629D-01  1.3589016154013D+00
    81  8.0000000000000D-01 -2.5460432993481D-01  1.3519361083712D+00
    82  8.1000000000000D-01 -2.2410304177036D-01  1.3434690211259D+00
    83  8.2000000000000D-01 -1.9132524934521D-01  1.3335078914869D+00
    84  8.3000000000000D-01 -1.5634958986987D-01  1.3220640436394D+00
    85  8.4000000000000D-01 -1.1926360535765D-01  1.3091525765644D+00
    86  8.5000000000000D-01 -8.0163432546686D-02  1.2947923393079D+00
    87  8.6000000000000D-01 -3.9153455204111D-02  1.2790058931131D+00
    88  8.7000000000000D-01  3.6540798304599D-03  1.2618194604898D+00
    89  8.8000000000000D-01  4.8139481326731D-02  1.2432628613543D+00
    90  8.9000000000000D-01  9.4176065363606D-02  1.2233694364223D+00
    91  9.0000000000000D-01  1.4163063817485D-01  1.2021759580930D+00
    92  9.1000000000000D-01  1.9036400811138D-01  1.1797225291125D+00
    93  9.2000000000000D-01  2.4023152454257D-01  1.1560524693598D+00
    94  9.3000000000000D-01  2.9108364138068D-01  1.1312121911438D+00
    95  9.4000000000000D-01  3.4276650278403D-01  1.1052510634534D+00
    96  9.5000000000000D-01  3.9512254847835D-01  1.0782212656464D+00
    97  9.6000000000000D-01  4.4799113603101D-01  1.0501776311105D+00
    98  9.7000000000000D-01  5.0120917731983D-01  1.0211774814709D+00
    99  9.8000000000000D-01  5.5461178636058D-01  9.9128045196101D-01
   100  9.9000000000000D-01  6.0803293559149D-01  9.6054830861095D-01
   101  1.0000000000000D+00  6.6130611766249D-01  9.2904475794238D-01
   102  1.0100000000000D+00  7.1426500974066D-01  8.9683524989276D-01
   103  1.0200000000000D+00  7.6674413732245D-01  8.6398677472019D-01
   104  1.0300000000000D+00  8.1857953453666D-01  8.3056765466592D-01
   105  1.0400000000000D+00  8.6960939793090D-01  7.9664733117510D-01
   106  1.0500000000000D+00  9.1967473075944D-01  7.6229614849508D-01
   107  1.0600000000000D+00  9.6861997482898D-01  7.2758513448610D-01
   108  1.0700000000000D+00  1.0162936270151D+00  6.9258577949100D-01
   109  1.0800000000000D+00  1.0625488376313D+00  6.5736981411863D-01
   110  1.0900000000000D+00  1.1072439879122D+00  6.2200898680029D-01
   111  1.1000000000000D+00  1.1502432439784D+00  5.8657484197848D-01
   112  1.1100000000000D+00  1.1914170847550D+00  5.5113849978453D-01
   113  1.1200000000000D+00  1.2306428014563D+00  5.1577043805264D-01
   114  1.1300000000000D+00  1.2678049663539D+00  4.8054027751023D-01
   115  1.1400000000000D+00  1.3027958687328D+00  4.4551657096677D-01
   116  1.1500000000000D+00  1.3355159160732D+00  4.1076659730682D-01
   117  1.1600000000000D+00  1.3658739986990D+00  3.7635616106709D-01
   118  1.1700000000000D+00  1.3937878162501D+00  3.4234939836146D-01
   119  1.1800000000000D+00  1.4191841645960D+00  3.0880858987897D-01
   120  1.1900000000000D+00  1.4419991819656D+00  2.7579398165266D-01
   121  1.2000000000000D+00  1.4621785532827D+00  2.4336361426069D-01
   122  1.2100000000000D+00  1.4796776718573D+00  2.1157316109282D-01
   123  1.2200000000000D+00  1.4944617578684D+00  1.8047577626094D-01
   124  1.2300000000000D+00  1.5065059332716D+00  1.5012195269064D-01
   125  1.2400000000000D+00  1.5157952528695D+00  1.2055939091181D-01
   126  1.2500000000000D+00  1.5223246916553D+00  9.1832878985392D-02
   127  1.2600000000000D+00  1.5260990886997D+00  6.3984183964982D-02
   128  1.2700000000000D+00  1.5271330479583D+00  3.7051955268466D-02
   129  1.2800000000000D+00  1.5254507967280D+00  1.1071640251787D-02
   130  1.2900000000000D+00  1.5210860026708D+00 -1.3924587776773D-02
   131  1.3000000000000D+00  1.5140815503661D+00 -3.7907888870924D-02
   132  1.3100000000000D+00  1.5044892787267D+00 -6.0852802958760D-02
   133  1.3200000000000D+00  1.4923696807794D+00 -8.2737283478199D-02
   134  1.3300000000000D+00  1.4777915672758D+00 -1.0354271804352D-01
   135  1.3400000000000D+00  1.4608316960600D+00 -1.2325393619399D-01
   136  1.3500000000000D+00  1.4415743691172D+00 -1.4185920428735D-01
   137  1.3600000000000D+00  1.4201109992670D+00 -1.5935020760065D-01
   138  1.3700000000000D+00  1.3965396488809D+00 -1.7572201986336D-01
   139  1.3800000000000D+00  1.3709645428355D+00 -1.9097306038934D-01
   140  1.3900000000000D+00  1.3434955581506D+00 -2.0510503905663D-01
   141  1.4000000000000D+00  1.3142476929102D+00 -2.1812288948716D-01
   142  1.4100000000000D+00  1.2833405169337D+00 -2.3003469068539D-01
   143  1.4200000000000D+00  1.2508976069758D+00 -2.4085157759026D-01
   144  1.4300000000000D+00  1.2170459690690D+00 -2.5058764092425D-01
   145  1.4400000000000D+00  1.1819154507860D+00 -2.5925981677542D-01
   146  1.4500000000000D+00  1.1456381461220D+00 -2.6688776645852D-01
   147  1.4600000000000D+00  1.1083477957828D+00 -2.7349374708463D-01
   148  1.4700000000000D+00  1.0701791855543D+00 -2.7910247346213D-01
   149  1.4800000000000D+00  1.0312675454532D+00 -2.8374097183626D-01
   150  1.4900000000000D+00  9.9174795236314D-01 -2.8743842607605D-01
   151  1.5000000000000D+00  9.5175473855231D-01 -2.9022601691376D-01
   152  1.5100000000000D+00  9.1142090890555D-01 -2.9213675482968D-01
   153  1.5200000000000D+00  8.7087756880618D-01 -2.9320530723906D-01
   154  1.5300000000000D+00  8.3025336555751D-01 -2.9346782058538D-01
   155  1.5400000000000D+00  7.8967394495702D-01 -2.9296173799994D-01
   156  1.5500000000000D+00  7.4926142558368D-01 -2.9172561315311D-01
   157  1.5600000000000D+00  7.0913389241744D-01 -2.8979892094468D-01
   158  1.5700000000000D+00  6.6940491168742D-01 -2.8722186565191D-01
   159  1.5800000000000D+00  6.3018306873070D-01 -2.8403518718671D-01
   160  1.5900000000000D+00  5.9157152992775D-01 -2.8027996602937D-01
   161  1.6000000000000D+00  5.5366763072748D-01 -2.7599742751569D-01
   162  1.6100000000000D+00  5.1656248990639D-01 -2.7122874595313D-01
   163  1.6200000000000D+00  4.8034064942289D-01 -2.6601484853299D-01
   164  1.6300000000000D+00  4.4507975933469D-01 -2.6039622465312D-01
   165  1.6400000000000D+00  4.1085022983319D-01 -2.5441272001721D-01
   166  1.6500000000000D+00  3.7771509259469D-01 -2.4810338267918D-01
   167  1.6600000000000D+00  3.4572960958981D-01 -2.4150623031386D-01
   168  1.6700000000000D+00  3.1494087704689D-01 -2.3465802279998D-01
   169  1.6800000000000D+00  2.8538841699553D-01 -2.2759427683521D-01
   170  1.6900000000000D+00  2.5710457057602D-01 -2.2034922825215D-01
   171  1.7000000000000D+00  2.3011503921908D-01 -2.1295587835932D-01
   172  1.7100000000000D+00  2.0443967121802D-01 -2.0544609698992D-01
   173  1.7200000000000D+00  1.8009233728484D-01 -1.9785050023318D-01
   174  1.7300000000000D+00  1.5708095266274D-01 -1.9019837557922D-01
   175  1.7400000000000D+00  1.3540777097804D-01 -1.8251766404537D-01
   176  1.7500000000000D+00  1.1506952089121D-01 -1.7483490960342D-01
   177  1.7600000000000D+00  9.6057634804230D-02 -1.6717523154056D-01
   178  1.7700000000000D+00  7.8358478626384D-02 -1.5956229882820D-01
   179  1.7800000000000D+00  6.1953604309545D-02 -1.5201831212261D-01
   180  1.7900000000000D+00  4.6820019316987D-02 -1.4456399208152D-01
   181  1.8000000000000D+00  3.2930471885702D-02 -1.3721857418745D-01
   182  1.8100000000000D+00  2.0253749556871D-02 -1.2999980952529D-01
   183  1.8200000000000D+00  8.7549892530626D-03 -1.2292397152300D-01
   184  1.8300000000000D+00 -1.6040031637745D-03 -1.1600586823540D-01
   185  1.8400000000000D+00 -1.0864425994580D-02 -1.0925885997129D-01
   186  1.8500000000000D+00 -1.9070149348332D-02 -1.0269488197879D-01
   187  1.8600000000000D+00 -2.6267379403748D-02 -9.6324471812615D-02
   188  1.8700000000000D+00 -3.2504321500623D-02 -9.0156801194564D-02
   189  1.8800000000000D+00 -3.7830843365032D-02 -8.4199711892415D-02
   190  1.8900000000000D+00 -4.2298141635653D-02 -7.8459755438494D-02
   191  1.9000000000000D+00 -4.5958411687956D-02 -7.2942236237421D-02
   192  1.9100000000000D+00 -4.8864524895753D-02 -6.7651257784437D-02
   193  1.9200000000000D+00 -5.1069712601240D-02 -6.2589771661190D-02
   194  1.9300000000000D+00 -5.2627260552570D-02 -5.7759628920133D-02
   195  1.9400000000000D+00 -5.3590214017974D-02 -5.3161633584429D-02
   196  1.9500000000000D+00 -5.4011095197597D-02 -4.8795597912542D-02
   197  1.9600000000000D+00 -5.3941635662236D-02 -4.4660399024478D-02
   198  1.9700000000000D+00 -5.3432521879830D-02 -4.0754036800215D-02
   199  1.9800000000000D+00 -5.2533159656446D-02 -3.7073692361967D-02
   200  1.9900000000000D+00 -5.1291453152355D-02 -3.3615787312484D-02
   201  2.0000000000000D+00 -4.9753604051961D-02 -3.0376042995457D-02
   202  2.0100000000000D+00 -4.7963928619743D-02 -2.7349539811860D-02
   203  2.0200000000000D+00 -4.5964693751197D-02 -2.4530776275317D-02
   204  2.0300000000000D+00 -4.3795974896877D-02 -2.1913727292128D-02
   205  2.0400000000000D+00 -4.1495530974856D-02 -1.9491902052718D-02
   206  2.0500000000000D+00 -3.9098703421437D-02 -1.7258400469039D-02
   207  2.0600000000000D+00 -3.6638332823903D-02 -1.5205968800336D-02
   208  2.0700000000000D+00 -3.4144697204094D-02 -1.3327053747393D-02
   209  2.0800000000000D+00 -3.1645471323789D-02 -1.1613854909400D-02
   210  2.0900000000000D+00 -2.9165703223897D-02 -1.0058375950178D-02
   211  2.1000000000000D+00 -2.6727813824908D-02 -8.6524734324305D-03
   212  2.1100000000000D+00 -2.4351612205387D-02 -7.3879042325416D-03
   213  2.1200000000000D+00 -2.2054330701415D-02 -6.2563706984381D-03
   214  2.1300000000000D+00 -1.9850677743070D-02 -5.2495636787205D-03
   215  2.1400000000000D+00 -1.7752904990374D-02 -4.3592038006937D-03
   216  2.1500000000000D+00 -1.5770892985403D-02 -3.5770800397564D-03
   217  2.1600000000000D+00 -1.3912248751703D-02 -2.8950865565814D-03
   218  2.1700000000000D+00 -1.2182417629626D-02 -2.3052571352974D-03
   219  2.1800000000000D+00 -1.0584807720600D-02 -1.7997972912753D-03
   220  2.1900000000000D+00 -9.1209234096849D-03 -1.3711145935047D-03
   221  2.2000000000000D+00 -7.7905100854617D-03 -1.0118463555219D-03
   222  2.2100000000000D+00 -6.5917058038565D-03 -7.1488552132609D-04
   223  2.2200000000000D+00 -5.5211996422269D-03 -4.7340445970285D-04
   224  2.2300000000000D+00 -4.5743955015081D-03 -2.8087656324300D-04
   225  2.2400000000000D+00 -3.7455795096940D-03 -1.3109615561050D-04
   226  2.2500000000000D+00 -3.0280894212604D-03 -1.8196361047255D-05
   227  2.2600000000000D+00 -2.4144847523400D-03  6.3334783216109D-05
   228  2.2700000000000D+00 -1.8967172142566D-03  1.1863983818768D-04
   229  2.2800000000000D+00 -1.4662972437387D-03  1.5247919150661D-04
   230  2.2900000000000D+00 -1.1144586664956D-03  1.6921976883038D-04
   231  2.3000000000000D+00 -8.3231844689298D-04  1.7282519650570D-04
   232  2.3100000000000D+00 -6.1102848099484D-04  1.6684727156418D-04
   233  2.3200000000000D+00 -4.4192314796697D-04  1.5441880610642D-04
   234  2.3300000000000D+00 -3.1665608841780D-04  1.3824754823216D-04
   235  2.3400000000000D+00 -2.2748004845849D-04  1.2069133799149D-04
   236  2.3500000000000D+00 -1.6678019837290D-04  1.0344734677974D-04
   237  2.3600000000000D+00 -1.2770318298672D-04  8.7810297220804D-05
   238  2.3700000000000D+00 -1.0356706380196D-04  7.4203551633947D-05
   239  2.3800000000000D+00 -9.1855740830552D-05  6.4811731824697D-05
   240  2.3900000000000D+00 -8.9987884746109D-05  6.0754761067674D-05
   241  2.4000000000000D+00 -9.4592359756212D-05  6.1596807337406D-05
   242  2.4100000000000D+00 -9.3921786296761D-05  6.0093971172792D-05
   243  2.4200000000000D+00 -7.8533388968778D-05  4.9935651802252D-05
   244  2.4300000000000D+00 -4.7286338909988D-05  2.9948287590267D-05
   245  2.4400000000000D+00 -1.4356183379251D-05  9.0779139740209D-06
   246  2.4500000000000D+00  5.9519185385806D-06 -3.7426352008881D-06
   247  2.4600000000000D+00  9.1388763667533D-06 -5.7362369885403D-06
   248  2.4700000000000D+00  3.6268063697332D-06 -2.2732857772231D-06
   249  2.4800000000000D+00 -1.3062277651490D-06  8.2581899550139D-07
   250  2.4900000000000D+00 -2.0561267989924D-06  1.2993897261072D-06
   251  2.5000000000000D+00 -8.3264434717633D-07  5.2602046553722D-07
   252  2.5100000000000D+00  1.5407808318020D-07 -9.8213608647087D-08
   253  2.5200000000000D+00  2.4537072181981D-07 -1.5640604782238D-07
   254  2.5300000000000D+00  1.0341805129094D-07 -6.5921510748896D-08
   255  2.5400000000000D+00  0.0000000000000D+00  0.0000000000000D+00
   256  2.5500000000000D+00  0.0000000000000D+00  0.0000000000000D+00
   257  2.5600000000000D+00  0.0000000000000D+00  0.0000000000000D+00
   258  2.5700000000000D+00  0.0000000000000D+00  0.0000000000000D+00
   259  2.5800000000000D+00  0.0000000000000D+00  0.0000000000000D+00
   260  2.5900000000000D+00  0.0000000000000D+00  0.0000000000000D+00
   261  2.6000000000000D+00  0.0000000000000D+00  0.0000000000000D+00
   262  2.6100000000000D+00  0.0000000000000D+00  0.0000000000000D+00
   263  2.6200000000000D+00  0.0000000000000D+00  0.0000000000000D+00
   264  2.6300000000000D+00  0.0000000000000D+00  0.0000000000000D+00
   265  2.6400000000000D+00  0.0000000000000D+00  0.0000000000000D+00
   266  2.6500000000000D+00  0.0000000000000D+00  0.0000000000000D+00
   267  2.6600000000000D+00  0.0000000000000D+00  0.0000000000000D+00
   268  2.6700000000000D+00  0.0000000000000D+00  0.0000000000000D+00
   269  2.6800000000000D+00  0.0000000000000D+00  0.0000000000000D+00
   270  2.6900000000000D+00  0.0000000000000D+00  0.0000000000000D+00
   271  2.7000000000000D+00  0.0000000000000D+00  0.0000000000000D+00
   272  2.7100000000000D+00  0.0000000000000D+00  0.0000000000000D+00
   273  2.7200000000000D+00  0.0000000000000D+00  0.0000000000000D+00
   274  2.7300000000000D+00  0.0000000000000D+00  0.0000000000000D+00
   275  2.7400000000000D+00  0.0000000000000D+00  0.0000000000000D+00
   276  2.7500000000000D+00  0.0000000000000D+00  0.0000000000000D+00
   277  2.7600000000000D+00  0.0000000000000D+00  0.0000000000000D+00
   278  2.7700000000000D+00  0.0000000000000D+00  0.0000000000000D+00
   279  2.7800000000000D+00  0.0000000000000D+00  0.0000000000000D+00
   280  2.7900000000000D+00  0.0000000000000D+00  0.0000000000000D+00
   281  2.8000000000000D+00  0.0000000000000D+00  0.0000000000000D+00
   282  2.8100000000000D+00  0.0000000000000D+00  0.0000000000000D+00
   283  2.8200000000000D+00  0.0000000000000D+00  0.0000000000000D+00
   284  2.8300000000000D+00  0.0000000000000D+00  0.0000000000000D+00
   285  2.8400000000000D+00  0.0000000000000D+00  0.0000000000000D+00
   286  2.8500000000000D+00  0.0000000000000D+00  0.0000000000000D+00
   287  2.8600000000000D+00  0.0000000000000D+00  0.0000000000000D+00
   288  2.8700000000000D+00  0.0000000000000D+00  0.0000000000000D+00
   289  2.8800000000000D+00  0.0000000000000D+00  0.0000000000000D+00
   290  2.8900000000000D+00  0.0000000000000D+00  0.0000000000000D+00
   291  2.9000000000000D+00  0.0000000000000D+00  0.0000000000000D+00
   292  2.9100000000000D+00  0.0000000000000D+00  0.0000000000000D+00
   293  2.9200000000000D+00  0.0000000000000D+00  0.0000000000000D+00
   294  2.9300000000000D+00  0.0000000000000D+00  0.0000000000000D+00
   295  2.9400000000000D+00  0.0000000000000D+00  0.0000000000000D+00
   296  2.9500000000000D+00  0.0000000000000D+00  0.0000000000000D+00
   297  2.9600000000000D+00  0.0000000000000D+00  0.0000000000000D+00
   298  2.9700000000000D+00  0.0000000000000D+00  0.0000000000000D+00
   299  2.9800000000000D+00  0.0000000000000D+00  0.0000000000000D+00
   300  2.9900000000000D+00  0.0000000000000D+00  0.0000000000000D+00
   301  3.0000000000000D+00  0.0000000000000D+00  0.0000000000000D+00
   302  3.0100000000000D+00  0.0000000000000D+00  0.0000000000000D+00
   303  3.0200000000000D+00  0.0000000000000D+00  0.0000000000000D+00
   304  3.0300000000000D+00  0.0000000000000D+00  0.0000000000000D+00
   305  3.0400000000000D+00  0.0000000000000D+00  0.0000000000000D+00
   306  3.0500000000000D+00  0.0000000000000D+00  0.0000000000000D+00
   307  3.0600000000000D+00  0.0000000000000D+00  0.0000000000000D+00
   308  3.0700000000000D+00  0.0000000000000D+00  0.0000000000000D+00
   309  3.0800000000000D+00  0.0000000000000D+00  0.0000000000000D+00
   310  3.0900000000000D+00  0.0000000000000D+00  0.0000000000000D+00
   311  3.1000000000000D+00  0.0000000000000D+00  0.0000000000000D+00
   312  3.1100000000000D+00  0.0000000000000D+00  0.0000000000000D+00
   313  3.1200000000000D+00  0.0000000000000D+00  0.0000000000000D+00
   314  3.1300000000000D+00  0.0000000000000D+00  0.0000000000000D+00
   315  3.1400000000000D+00  0.0000000000000D+00  0.0000000000000D+00
   316  3.1500000000000D+00  0.0000000000000D+00  0.0000000000000D+00
   317  3.1600000000000D+00  0.0000000000000D+00  0.0000000000000D+00
   318  3.1700000000000D+00  0.0000000000000D+00  0.0000000000000D+00
   319  3.1800000000000D+00  0.0000000000000D+00  0.0000000000000D+00
   320  3.1900000000000D+00  0.0000000000000D+00  0.0000000000000D+00
   321  3.2000000000000D+00  0.0000000000000D+00  0.0000000000000D+00
   322  3.2100000000000D+00  0.0000000000000D+00  0.0000000000000D+00
   323  3.2200000000000D+00  0.0000000000000D+00  0.0000000000000D+00
   324  3.2300000000000D+00  0.0000000000000D+00  0.0000000000000D+00
   325  3.2400000000000D+00  0.0000000000000D+00  0.0000000000000D+00
   326  3.2500000000000D+00  0.0000000000000D+00  0.0000000000000D+00
   327  3.2600000000000D+00  0.0000000000000D+00  0.0000000000000D+00
   328  3.2700000000000D+00  0.0000000000000D+00  0.0000000000000D+00
   329  3.2800000000000D+00  0.0000000000000D+00  0.0000000000000D+00
   330  3.2900000000000D+00  0.0000000000000D+00  0.0000000000000D+00
   331  3.3000000000000D+00  0.0000000000000D+00  0.0000000000000D+00
   332  3.3100000000000D+00  0.0000000000000D+00  0.0000000000000D+00
   333  3.3200000000000D+00  0.0000000000000D+00  0.0000000000000D+00
   334  3.3300000000000D+00  0.0000000000000D+00  0.0000000000000D+00
   335  3.3400000000000D+00  0.0000000000000D+00  0.0000000000000D+00
   336  3.3500000000000D+00  0.0000000000000D+00  0.0000000000000D+00
   337  3.3600000000000D+00  0.0000000000000D+00  0.0000000000000D+00
   338  3.3700000000000D+00  0.0000000000000D+00  0.0000000000000D+00
   339  3.3800000000000D+00  0.0000000000000D+00  0.0000000000000D+00
   340  3.3900000000000D+00  0.0000000000000D+00  0.0000000000000D+00
   341  3.4000000000000D+00  0.0000000000000D+00  0.0000000000000D+00
   342  3.4100000000000D+00  0.0000000000000D+00  0.0000000000000D+00
   343  3.4200000000000D+00  0.0000000000000D+00  0.0000000000000D+00
   344  3.4300000000000D+00  0.0000000000000D+00  0.0000000000000D+00
   345  3.4400000000000D+00  0.0000000000000D+00  0.0000000000000D+00
   346  3.4500000000000D+00  0.0000000000000D+00  0.0000000000000D+00
   347  3.4600000000000D+00  0.0000000000000D+00  0.0000000000000D+00
   348  3.4700000000000D+00  0.0000000000000D+00  0.0000000000000D+00
   349  3.4800000000000D+00  0.0000000000000D+00  0.0000000000000D+00
   350  3.4900000000000D+00  0.0000000000000D+00  0.0000000000000D+00
   351  3.5000000000000D+00  0.0000000000000D+00  0.0000000000000D+00
   352  3.5100000000000D+00  0.0000000000000D+00  0.0000000000000D+00
   353  3.5200000000000D+00  0.0000000000000D+00  0.0000000000000D+00
   354  3.5300000000000D+00  0.0000000000000D+00  0.0000000000000D+00
   355  3.5400000000000D+00  0.0000000000000D+00  0.0000000000000D+00
   356  3.5500000000000D+00  0.0000000000000D+00  0.0000000000000D+00
   357  3.5600000000000D+00  0.0000000000000D+00  0.0000000000000D+00
   358  3.5700000000000D+00  0.0000000000000D+00  0.0000000000000D+00
   359  3.5800000000000D+00  0.0000000000000D+00  0.0000000000000D+00
   360  3.5900000000000D+00  0.0000000000000D+00  0.0000000000000D+00
   361  3.6000000000000D+00  0.0000000000000D+00  0.0000000000000D+00
   362  3.6100000000000D+00  0.0000000000000D+00  0.0000000000000D+00
   363  3.6200000000000D+00  0.0000000000000D+00  0.0000000000000D+00
   364  3.6300000000000D+00  0.0000000000000D+00  0.0000000000000D+00
   365  3.6400000000000D+00  0.0000000000000D+00  0.0000000000000D+00
   366  3.6500000000000D+00  0.0000000000000D+00  0.0000000000000D+00
   367  3.6600000000000D+00  0.0000000000000D+00  0.0000000000000D+00
   368  3.6700000000000D+00  0.0000000000000D+00  0.0000000000000D+00
   369  3.6800000000000D+00  0.0000000000000D+00  0.0000000000000D+00
   370  3.6900000000000D+00  0.0000000000000D+00  0.0000000000000D+00
   371  3.7000000000000D+00  0.0000000000000D+00  0.0000000000000D+00
   372  3.7100000000000D+00  0.0000000000000D+00  0.0000000000000D+00
   373  3.7200000000000D+00  0.0000000000000D+00  0.0000000000000D+00
   374  3.7300000000000D+00  0.0000000000000D+00  0.0000000000000D+00
   375  3.7400000000000D+00  0.0000000000000D+00  0.0000000000000D+00
   376  3.7500000000000D+00  0.0000000000000D+00  0.0000000000000D+00
   377  3.7600000000000D+00  0.0000000000000D+00  0.0000000000000D+00
   378  3.7700000000000D+00  0.0000000000000D+00  0.0000000000000D+00
   379  3.7800000000000D+00  0.0000000000000D+00  0.0000000000000D+00
   380  3.7900000000000D+00  0.0000000000000D+00  0.0000000000000D+00
   381  3.8000000000000D+00  0.0000000000000D+00  0.0000000000000D+00
   382  3.8100000000000D+00  0.0000000000000D+00  0.0000000000000D+00
   383  3.8200000000000D+00  0.0000000000000D+00  0.0000000000000D+00
   384  3.8300000000000D+00  0.0000000000000D+00  0.0000000000000D+00
   385  3.8400000000000D+00  0.0000000000000D+00  0.0000000000000D+00
   386  3.8500000000000D+00  0.0000000000000D+00  0.0000000000000D+00
   387  3.8600000000000D+00  0.0000000000000D+00  0.0000000000000D+00
   388  3.8700000000000D+00  0.0000000000000D+00  0.0000000000000D+00
   389  3.8800000000000D+00  0.0000000000000D+00  0.0000000000000D+00
   390  3.8900000000000D+00  0.0000000000000D+00  0.0000000000000D+00
   391  3.9000000000000D+00  0.0000000000000D+00  0.0000000000000D+00
   392  3.9100000000000D+00  0.0000000000000D+00  0.0000000000000D+00
   393  3.9200000000000D+00  0.0000000000000D+00  0.0000000000000D+00
   394  3.9300000000000D+00  0.0000000000000D+00  0.0000000000000D+00
   395  3.9400000000000D+00  0.0000000000000D+00  0.0000000000000D+00
   396  3.9500000000000D+00  0.0000000000000D+00  0.0000000000000D+00
   397  3.9600000000000D+00  0.0000000000000D+00  0.0000000000000D+00
   398  3.9700000000000D+00  0.0000000000000D+00  0.0000000000000D+00
   399  3.9800000000000D+00  0.0000000000000D+00  0.0000000000000D+00
   400  3.9900000000000D+00  0.0000000000000D+00  0.0000000000000D+00
   401  4.0000000000000D+00  0.0000000000000D+00  0.0000000000000D+00
   402  4.0100000000000D+00  0.0000000000000D+00  0.0000000000000D+00
   403  4.0200000000000D+00  0.0000000000000D+00  0.0000000000000D+00
   404  4.0300000000000D+00  0.0000000000000D+00  0.0000000000000D+00
   405  4.0400000000000D+00  0.0000000000000D+00  0.0000000000000D+00
   406  4.0500000000000D+00  0.0000000000000D+00  0.0000000000000D+00
   407  4.0600000000000D+00  0.0000000000000D+00  0.0000000000000D+00
   408  4.0700000000000D+00  0.0000000000000D+00  0.0000000000000D+00
   409  4.0800000000000D+00  0.0000000000000D+00  0.0000000000000D+00
   410  4.0900000000000D+00  0.0000000000000D+00  0.0000000000000D+00
   411  4.1000000000000D+00  0.0000000000000D+00  0.0000000000000D+00
   412  4.1100000000000D+00  0.0000000000000D+00  0.0000000000000D+00
   413  4.1200000000000D+00  0.0000000000000D+00  0.0000000000000D+00
   414  4.1300000000000D+00  0.0000000000000D+00  0.0000000000000D+00
   415  4.1400000000000D+00  0.0000000000000D+00  0.0000000000000D+00
   416  4.1500000000000D+00  0.0000000000000D+00  0.0000000000000D+00
   417  4.1600000000000D+00  0.0000000000000D+00  0.0000000000000D+00
   418  4.1700000000000D+00  0.0000000000000D+00  0.0000000000000D+00
   419  4.1800000000000D+00  0.0000000000000D+00  0.0000000000000D+00
   420  4.1900000000000D+00  0.0000000000000D+00  0.0000000000000D+00
   421  4.2000000000000D+00  0.0000000000000D+00  0.0000000000000D+00
   422  4.2100000000000D+00  0.0000000000000D+00  0.0000000000000D+00