I     ONCVPSP-3.3.1  r_core=   2.41629   3.33444   3.21723
     53.0000     17.0000      210904    zatom,zion,pspd
     8       2   2     4   600     0    pspcod,pspxc,lmax,lloc,mmax,r2well
  5.99000000  0.00000000  0.00000000    rchrg fchrg qchrg
     2     2     2     0     0    nproj
     1     1           extension_switch
   0                         7.7313875359894D+00  1.8625268831423D+00
     1  0.0000000000000D+00  3.7620739856692D-12 -2.0047241644505D-11
     2  1.0000000000000D-02  1.1556072834813D-02  2.8057819314887D-02
     3  2.0000000000000D-02  2.3148842950875D-02  5.5991869217656D-02
     4  3.0000000000000D-02  3.4814848014356D-02  8.3678889797231D-02
     5  4.0000000000000D-02  4.6590306947340D-02  1.1099663831787D-01
     6  5.0000000000000D-02  5.8510961770005D-02  1.3782439324497D-01
     7  6.0000000000000D-02  7.0611920897276D-02  1.6404345281063D-01
     8  7.0000000000000D-02  8.2927504370399D-02  1.8953762632223D-01
     9  8.0000000000000D-02  9.5491091500157D-02  2.1419371643744D-01
    10  9.0000000000000D-02  1.0833497139370D-01  2.3790199065382D-01
    11  1.0000000000000D-01  1.2149019683133D-01  2.6055664029150D-01
    12  1.1000000000000D-01  1.3498644195284D-01  2.8205622528226D-01
    13  1.2000000000000D-01  1.4885186420540D-01  3.0230410311849D-01
    14  1.3000000000000D-01  1.6311297099619D-01  3.2120884036041D-01
    15  1.4000000000000D-01  1.7779449148338D-01  3.3868460514994D-01
    16  1.5000000000000D-01  1.9291925392803D-01  3.5465153923460D-01
    17  1.6000000000000D-01  2.0850806901788D-01  3.6903610806458D-01
    18  1.7000000000000D-01  2.2457961956074D-01  3.8177142759075D-01
    19  1.8000000000000D-01  2.4115035693120D-01  3.9279756646113D-01
    20  1.9000000000000D-01  2.5823440463925D-01  4.0206182238737D-01
    21  2.0000000000000D-01  2.7584346937279D-01  4.0951897153182D-01
    22  2.1000000000000D-01  2.9398675984855D-01  4.1513148984947D-01
    23  2.2000000000000D-01  3.1267091378734D-01  4.1886974540672D-01
    24  2.3000000000000D-01  3.3189993330941D-01  4.2071216079158D-01
    25  2.4000000000000D-01  3.5167512902492D-01  4.2064534482620D-01
    26  2.5000000000000D-01  3.7199507307191D-01  4.1866419289339D-01
    27  2.6000000000000D-01  3.9285556133126D-01  4.1477195529290D-01
    28  2.7000000000000D-01  4.1424958502318D-01  4.0898027315141D-01
    29  2.8000000000000D-01  4.3616731186419D-01  4.0130918152143D-01
    30  2.9000000000000D-01  4.5859607693716D-01  3.9178707941860D-01
    31  3.0000000000000D-01  4.8152038339875D-01  3.8045066666435D-01
    32  3.1000000000000D-01  5.0492191312000D-01  3.6734484752030D-01
    33  3.2000000000000D-01  5.2877954732632D-01  3.5252260122288D-01
    34  3.3000000000000D-01  5.5306939727197D-01  3.3604481964994D-01
    35  3.4000000000000D-01  5.7776484495331D-01  3.1798011247632D-01
    36  3.5000000000000D-01  6.0283659383242D-01  2.9840458030127D-01
    37  3.6000000000000D-01  6.2825272951017D-01  2.7740155635666D-01
    38  3.7000000000000D-01  6.5397879025415D-01  2.5506131753194D-01
    39  3.8000000000000D-01  6.7997784725343D-01  2.3148076557732D-01
    40  3.9000000000000D-01  7.0621059443738D-01  2.0676307947184D-01
    41  4.0000000000000D-01  7.3263544766178D-01  1.8101734006666D-01
    42  4.1000000000000D-01  7.5920865303063D-01  1.5435812823524D-01
    43  4.2000000000000D-01  7.8588440408770D-01  1.2690509788118D-01
    44  4.3000000000000D-01  8.1261496757731D-01  9.8782525270182D-02
    45  4.4000000000000D-01  8.3935081743995D-01  7.0118836264797D-02
    46  4.5000000000000D-01  8.6604077667450D-01  4.1046113148333D-02
    47  4.6000000000000D-01  8.9263216666597D-01  1.1699582827340D-02
    48  4.7000000000000D-01  9.1907096354514D-01 -1.7782911700440D-02
    49  4.8000000000000D-01  9.4530196111549D-01 -4.7261454634265D-02
    50  4.9000000000000D-01  9.7126893985189D-01 -7.6594613351307D-02
    51  5.0000000000000D-01  9.9691484144715D-01 -1.0564000493915D-01
    52  5.1000000000000D-01  1.0221819483541D+00 -1.3425487106827D-01
    53  5.2000000000000D-01  1.0470120677451D+00 -1.6229665893110D-01
    54  5.3000000000000D-01  1.0713467192867D+00 -1.8962360592056D-01
    55  5.4000000000000D-01  1.0951273261034D+00 -2.1609532567662D-01
    56  5.5000000000000D-01  1.1182954082852D+00 -2.4157339309452D-01
    57  5.6000000000000D-01  1.1407927782747D+00 -2.6592192586337D-01
    58  5.7000000000000D-01  1.1625617374515D+00 -2.8900816008855D-01
    59  5.8000000000000D-01  1.1835452732218D+00 -3.1070301754779D-01
    60  5.9000000000000D-01  1.2036872559058D+00 -3.3088166213630D-01
    61  6.0000000000000D-01  1.2229326347079D+00 -3.4942404307464D-01
    62  6.1000000000000D-01  1.2412276320510D+00 -3.6621542248090D-01
    63  6.2000000000000D-01  1.2585199355502D+00 -3.8114688494885D-01
    64  6.3000000000000D-01  1.2747588869015D+00 -3.9411582682471D-01
    65  6.4000000000000D-01  1.2898956669660D+00 -4.0502642293745D-01
    66  6.5000000000000D-01  1.3038834763327D+00 -4.1379006861086D-01
    67  6.6000000000000D-01  1.3166777106538D+00 -4.2032579487033D-01
    68  6.7000000000000D-01  1.3282361300585D+00 -4.2456065485249D-01
    69  6.8000000000000D-01  1.3385190219640D+00 -4.2643007953153D-01
    70  6.9000000000000D-01  1.3474893566226D+00 -4.2587820099248D-01
    71  7.0000000000000D-01  1.3551129347649D+00 -4.2285814160733D-01
    72  7.1000000000000D-01  1.3613585267195D+00 -4.1733226760567D-01
    73  7.2000000000000D-01  1.3661980024230D+00 -4.0927240567494D-01
    74  7.3000000000000D-01  1.3696064517566D+00 -3.9866002137878D-01
    75  7.4000000000000D-01  1.3715622946842D+00 -3.8548635834159D-01
    76  7.5000000000000D-01  1.3720473806983D+00 -3.6975253731486D-01
    77  7.6000000000000D-01  1.3710470771195D+00 -3.5146961441413D-01
    78  7.7000000000000D-01  1.3685503458351D+00 -3.3065859799442D-01
    79  7.8000000000000D-01  1.3645498081051D+00 -3.0735042381564D-01
    80  7.9000000000000D-01  1.3590417971072D+00 -2.8158588833641D-01
    81  8.0000000000000D-01  1.3520263979407D+00 -2.5341554016568D-01
    82  8.1000000000000D-01  1.3435074748550D+00 -2.2289952989303D-01
    83  8.2000000000000D-01  1.3334926855203D+00 -1.9010741871193D-01
    84  8.3000000000000D-01  1.3219934822076D+00 -1.5511794644359D-01
    85  8.4000000000000D-01  1.3090250997962D+00 -1.1801875976065D-01
    86  8.5000000000000D-01  1.2946065305832D+00 -7.8906101600672D-02
    87  8.6000000000000D-01  1.2787604859171D+00 -3.7884462946041D-02
    88  8.7000000000000D-01  1.2615133447381D+00  4.9338016697020D-03
    89  8.8000000000000D-01  1.2428950891551D+00  4.9428893391330D-02
    90  8.9000000000000D-01  1.2229392272476D+00  9.5474021297148D-02
    91  9.0000000000000D-01  1.2016827033312D+00  1.4293588580505D-01
    92  9.1000000000000D-01  1.1791657959798D+00  1.9167519119732D-01
    93  9.2000000000000D-01  1.1554320041470D+00  2.4154718508378D-01
    94  9.3000000000000D-01  1.1305279217809D+00  2.9240222248454D-01
    95  9.4000000000000D-01  1.1045031013771D+00  3.4408635208495D-01
    96  9.5000000000000D-01  1.0774099069570D+00  3.9644192209953D-01
    97  9.6000000000000D-01  1.0493033570094D+00  4.4930820307639D-01
    98  9.7000000000000D-01  1.0202409579726D+00  5.0252202488134D-01
    99  9.8000000000000D-01  9.9028252887709D-01  5.5591842502274D-01
   100  9.9000000000000D-01  9.5949001780627D-01  6.0933130541284D-01
   101  1.0000000000000D+00  9.2792731086771D-01  6.6259409461056D-01
   102  1.0100000000000D+00  8.9566003440097D-01  7.1554041255487D-01
   103  1.0200000000000D+00  8.6275535117677D-01  7.6800473477654D-01
   104  1.0300000000000D+00  8.2928175136762D-01  8.1982305307020D-01
   105  1.0400000000000D+00  7.9530883909401D-01  8.7083352961722D-01
   106  1.0500000000000D+00  7.6090711536846D-01  9.2087714157506D-01
   107  1.0600000000000D+00  7.2614775827537D-01  9.6979831318810D-01
   108  1.0700000000000D+00  6.9110240123646D-01  1.0174455325306D+00
   109  1.0800000000000D+00  6.5584291021932D-01  1.0636719500628D+00
   110  1.0900000000000D+00  6.2044116075089D-01  1.1083359562590D+00
   111  1.1000000000000D+00  5.8496881559827D-01  1.1513017356767D+00
   112  1.1100000000000D+00  5.4949710397532D-01  1.1924397949346D+00
   113  1.1200000000000D+00  5.1409660312531D-01  1.2316274622132D+00
   114  1.1300000000000D+00  4.7883702312130D-01  1.2687493559956D+00
   115  1.1400000000000D+00  4.4378699570847D-01  1.3036978209496D+00
   116  1.1500000000000D+00  4.0901386799574D-01  1.3363733289931D+00
   117  1.1600000000000D+00  3.7458350177798D-01  1.3666848437803D+00
   118  1.1700000000000D+00  3.4056007925395D-01  1.3945501469676D+00
   119  1.1800000000000D+00  3.0700591586600D-01  1.4198961248791D+00
   120  1.1900000000000D+00  2.7398128096016D-01  1.4426590143443D+00
   121  1.2000000000000D+00  2.4154422692858D-01  1.4627846067006D+00
   122  1.2100000000000D+00  2.0975042746756D-01  1.4802284091130D+00
   123  1.2200000000000D+00  1.7865302553011D-01  1.4949557626452D+00
   124  1.2300000000000D+00  1.4830249150946D-01  1.5069419167209D+00
   125  1.2400000000000D+00  1.1874649217129D-01  1.5161720597116D+00
   126  1.2500000000000D+00  9.0029770771016D-02  1.5226413057671D+00
   127  1.2600000000000D+00  6.2194038753651D-02  1.5263546381583D+00
   128  1.2700000000000D+00  3.5277879410525D-02  1.5273268095139D+00
   129  1.2800000000000D+00  9.3166637832621D-03  1.5255821996811D+00
   130  1.2900000000000D+00 -1.5657520948236D-02  1.5211546321324D+00
   131  1.3000000000000D+00 -3.9615930364705D-02  1.5140871498819D+00
   132  1.3100000000000D+00 -6.2533208864993D-02  1.5044317522504D+00
   133  1.3200000000000D+00 -8.4387422809399D-02  1.4922490939817D+00
   134  1.3300000000000D+00 -1.0516008065926D-01  1.4776081481813D+00
   135  1.3400000000000D+00 -1.2483614016654D-01  1.4605858350060D+00
   136  1.3500000000000D+00 -1.4340400267907D-01  1.4412666180320D+00
   137  1.3600000000000D+00 -1.6085549462657D-01  1.4197420702690D+00
   138  1.3700000000000D+00 -1.7718583641581D-01  1.3961104122044D+00
   139  1.3800000000000D+00 -1.9239359890441D-01  1.3704760240899D+00
   140  1.3900000000000D+00 -2.0648064770565D-01  1.3429489349265D+00
   141  1.4000000000000D+00 -2.1945207567949D-01  1.3136442907465D+00
   142  1.4100000000000D+00 -2.3131612387261D-01  1.2826818046648D+00
   143  1.4200000000000D+00 -2.4208409136478D-01  1.2501851914809D+00
   144  1.4300000000000D+00 -2.5177023440918D-01  1.2162815894491D+00
   145  1.4400000000000D+00 -2.6039165530580D-01  1.1811009719963D+00
   146  1.4500000000000D+00 -2.6796818155739D-01  1.1447755520911D+00
   147  1.4600000000000D+00 -2.7452223574097D-01  1.1074391820536D+00
   148  1.4700000000000D+00 -2.8007869672075D-01  1.0692267514829D+00
   149  1.4800000000000D+00 -2.8466475271326D-01  1.0302735860059D+00
   150  1.4900000000000D+00 -2.8830974681645D-01  9.9071484955191D-01
   151  1.5000000000000D+00 -2.9104501561083D-01  9.5068495255507D-01
   152  1.5100000000000D+00 -2.9290372142883D-01  9.1031696891517D-01
   153  1.5200000000000D+00 -2.9392067895129D-01  8.6974206365675D-01
   154  1.5300000000000D+00 -2.9413217673867D-01  8.2908893417741D-01
   155  1.5400000000000D+00 -2.9357579435872D-01  7.8848326669865D-01
   156  1.5500000000000D+00 -2.9229021573869D-01  7.4804721048205D-01
   157  1.5600000000000D+00 -2.9031503939147D-01  7.0789887142967D-01
   158  1.5700000000000D+00 -2.8769058613599D-01  6.6815182696619D-01
   159  1.5800000000000D+00 -2.8445770496540D-01  6.2891466398526D-01
   160  1.5900000000000D+00 -2.8065757763123D-01  5.9029054092530D-01
   161  1.6000000000000D+00 -2.7633152262268D-01  5.5237677598876D-01
   162  1.6100000000000D+00 -2.7152079901626D-01  5.1526446164759D-01
   163  1.6200000000000D+00 -2.6626641016344D-01  4.7903810479787D-01
   164  1.6300000000000D+00 -2.6060891284192D-01  4.4377531202108D-01
   165  1.6400000000000D+00 -2.5458821119073D-01  4.0954644203941D-01
   166  1.6500000000000D+00 -2.4824340273896D-01  3.7641446745516D-01
   167  1.6600000000000D+00 -2.4161254554346D-01  3.4443458413313D-01
   168  1.6700000000000D+00 -2.3473243064652D-01  3.1365381575454D-01
   169  1.6800000000000D+00 -2.2763859720375D-01  2.8411160566527D-01
   170  1.6900000000000D+00 -2.2036529520853D-01  2.5584021060004D-01
   171  1.7000000000000D+00 -2.1294553230326D-01  2.2886524211485D-01
   172  1.7100000000000D+00 -2.0541117747002D-01  2.0320645337306D-01
   173  1.7200000000000D+00 -1.9779283884587D-01  1.7887761523906D-01
   174  1.7300000000000D+00 -1.9011978904498D-01  1.5588653887132D-01
   175  1.7400000000000D+00 -1.8241994765213D-01  1.3423537002173D-01
   176  1.7500000000000D+00 -1.7471983092297D-01  1.1392072618746D-01
   177  1.7600000000000D+00 -1.6704452448442D-01  9.4933925807117D-02
   178  1.7700000000000D+00 -1.5941765805008D-01  7.7261218526966D-02
   179  1.7800000000000D+00 -1.5186138778743D-01  6.0884038238484D-02
   180  1.7900000000000D+00 -1.4439638501601D-01  4.5779273050365D-02
   181  1.8000000000000D+00 -1.3704183142575D-01  3.1919551052119D-02
   182  1.8100000000000D+00 -1.2981542026012D-01  1.9273539342235D-02
   183  1.8200000000000D+00 -1.2273336347086D-01  7.8062545965906D-03
   184  1.8300000000000D+00 -1.1581040442203D-01 -2.5206168904096D-03
   185  1.8400000000000D+00 -1.0905983594106D-01 -1.1748391835680D-02
   186  1.8500000000000D+00 -1.0249352342955D-01 -1.9921057152788D-02
   187  1.8600000000000D+00 -9.6121932655341D-02 -2.7084933768245D-02
   188  1.8700000000000D+00 -8.9954162034525D-02 -3.3288339284665D-02
   189  1.8800000000000D+00 -8.3997978927306D-02 -3.8581250795173D-02
   190  1.8900000000000D+00 -7.8259859765273D-02 -4.3014971020719D-02
   191  1.9000000000000D+00 -7.2745033559973D-02 -4.6641797765193D-02
   192  1.9100000000000D+00 -6.7457528509259D-02 -4.9514700833417D-02
   193  1.9200000000000D+00 -6.2400221369528D-02 -5.1687005680593D-02
   194  1.9300000000000D+00 -5.7574889200668D-02 -5.3212087556733D-02
   195  1.9400000000000D+00 -5.2982263210603D-02 -5.4143076354320D-02
   196  1.9500000000000D+00 -4.8622084346898D-02 -5.4532573781549D-02
   197  1.9600000000000D+00 -4.4493160229393D-02 -5.4432385593131D-02
   198  1.9700000000000D+00 -4.0593423336860D-02 -5.3893266935935D-02
   199  1.9800000000000D+00 -3.6919989752749D-02 -5.2964686642915D-02
   200  1.9900000000000D+00 -3.3469218647435D-02 -5.1694606129465D-02
   201  2.0000000000000D+00 -3.0236771756778D-02 -5.0129278477088D-02
   202  2.0100000000000D+00 -2.7217672893623D-02 -4.8313065432922D-02
   203  2.0200000000000D+00 -2.4406367174223D-02 -4.6288273434561D-02
   204  2.0300000000000D+00 -2.1796779442129D-02 -4.4095011540907D-02
   205  2.0400000000000D+00 -1.9382372282015D-02 -4.1771066377817D-02
   206  2.0500000000000D+00 -1.7156202550052D-02 -3.9351801255776D-02
   207  2.0600000000000D+00 -1.5110977070828D-02 -3.6870072895160D-02
   208  2.0700000000000D+00 -1.3239106776491D-02 -3.4356169831563D-02
   209  2.0800000000000D+00 -1.1532759183169D-02 -3.1837771870666D-02
   210  2.0900000000000D+00 -9.9839095557814D-03 -2.9339926799780D-02
   211  2.1000000000000D+00 -8.5843897136149D-03 -2.6885050188765D-02
   212  2.1100000000000D+00 -7.3259353975440D-03 -2.4492940888681D-02
   213  2.1200000000000D+00 -6.2002313570104D-03 -2.2180816374366D-02
   214  2.1300000000000D+00 -5.1989542874529D-03 -1.9963365844094D-02
   215  2.1400000000000D+00 -4.3138139997518D-03 -1.7852817634646D-02
   216  2.1500000000000D+00 -3.5365918597674D-03 -1.5859025171271D-02
   217  2.1600000000000D+00 -2.8591774816990D-03 -1.3989564877082D-02
   218  2.1700000000000D+00 -2.2736030062296D-03 -1.2249848331281D-02
   219  2.1800000000000D+00 -1.7720750340221D-03 -1.0643247046831D-02
   220  2.1900000000000D+00 -1.3470047634595D-03 -9.1712263335399D-03
   221  2.2000000000000D+00 -9.9103548471529D-04 -7.8334903651546D-03
   222  2.2100000000000D+00 -6.9706826114218D-04 -6.6281341938776D-03
   223  2.2200000000000D+00 -4.5828551197153D-04 -5.5518024568404D-03
   224  2.2300000000000D+00 -2.6817239425478D-04 -4.5998535296499D-03
   225  2.2400000000000D+00 -1.2053648944242D-04 -3.7665272798523D-03
   226  2.2500000000000D+00 -9.5254509046665D-06 -3.0451148102389D-03
   227  2.2600000000000D+00  7.0357105623306D-05 -2.4281289312335D-03
   228  2.2700000000000D+00  1.2423733479508D-04 -1.9074749251111D-03
   229  2.2800000000000D+00  1.5685860580589D-04 -1.4746173922560D-03
   230  2.2900000000000D+00  1.7257042653232D-04 -1.1207452214375D-03
   231  2.3000000000000D+00  1.7531881217745D-04 -8.3693163157234D-04
   232  2.3100000000000D+00  1.6863795080360D-04 -6.1428623761987D-04
   233  2.3200000000000D+00  1.5564323738410D-04 -4.4410286228958D-04
   234  2.3300000000000D+00  1.3902537066567D-04 -3.1799655194636D-04
   235  2.3400000000000D+00  1.2112511046816D-04 -2.2818250316214D-04
   236  2.3500000000000D+00  1.0362482194855D-04 -1.6701392329149D-04
   237  2.3600000000000D+00  8.7804908259269D-05 -1.2760738795277D-04
   238  2.3700000000000D+00  7.4077558359632D-05 -1.0325817793219D-04
   239  2.3800000000000D+00  6.4604959530414D-05 -9.1404880035978D-05
   240  2.3900000000000D+00  6.0489511606187D-05 -8.9431510409856D-05
   241  2.4000000000000D+00  6.1285563250773D-05 -9.3948618978465D-05
   242  2.4100000000000D+00  5.9774279806818D-05 -9.3263197969117D-05
   243  2.4200000000000D+00  4.9666585291618D-05 -7.7979386673649D-05
   244  2.4300000000000D+00  2.9786460057202D-05 -4.6953114096488D-05
   245  2.4400000000000D+00  9.0289581966359D-06 -1.4255333163505D-05
   246  2.4500000000000D+00 -3.7221361869512D-06  5.9097638564595D-06
   247  2.4600000000000D+00 -5.7047882815073D-06  9.0742068496231D-06
   248  2.4700000000000D+00 -2.2608180642275D-06  3.6011682567927D-06
   249  2.4800000000000D+00  8.2125646383548D-07 -1.2968538059924D-06
   250  2.4900000000000D+00  1.2922007146109D-06 -2.0413582593216D-06
   251  2.5000000000000D+00  5.2310681690396D-07 -8.2665933356611D-07
   252  2.5100000000000D+00 -9.7686305238612D-08  1.5299218763017D-07
   253  2.5200000000000D+00 -1.5556631244091D-07  2.4364142347034D-07
   254  2.5300000000000D+00 -6.5567581820019D-08  1.0268919226458D-07
   255  2.5400000000000D+00  0.0000000000000D+00  0.0000000000000D+00
   256  2.5500000000000D+00  0.0000000000000D+00  0.0000000000000D+00
   257  2.5600000000000D+00  0.0000000000000D+00  0.0000000000000D+00
   258  2.5700000000000D+00  0.0000000000000D+00  0.0000000000000D+00
   259  2.5800000000000D+00  0.0000000000000D+00  0.0000000000000D+00
   260  2.5900000000000D+00  0.0000000000000D+00  0.0000000000000D+00
   261  2.6000000000000D+00  0.0000000000000D+00  0.0000000000000D+00
   262  2.6100000000000D+00  0.0000000000000D+00  0.0000000000000D+00
   263  2.6200000000000D+00  0.0000000000000D+00  0.0000000000000D+00
   264  2.6300000000000D+00  0.0000000000000D+00  0.0000000000000D+00
   265  2.6400000000000D+00  0.0000000000000D+00  0.0000000000000D+00
   266  2.6500000000000D+00  0.0000000000000D+00  0.0000000000000D+00
   267  2.6600000000000D+00  0.0000000000000D+00  0.0000000000000D+00
   268  2.6700000000000D+00  0.0000000000000D+00  0.0000000000000D+00
   269  2.6800000000000D+00  0.0000000000000D+00  0.0000000000000D+00
   270  2.6900000000000D+00  0.0000000000000D+00  0.0000000000000D+00
   271  2.7000000000000D+00  0.0000000000000D+00  0.0000000000000D+00
   272  2.7100000000000D+00  0.0000000000000D+00  0.0000000000000D+00
   273  2.7200000000000D+00  0.0000000000000D+00  0.0000000000000D+00
   274  2.7300000000000D+00  0.0000000000000D+00  0.0000000000000D+00
   275  2.7400000000000D+00  0.0000000000000D+00  0.0000000000000D+00
   276  2.7500000000000D+00  0.0000000000000D+00  0.0000000000000D+00
   277  2.7600000000000D+00  0.0000000000000D+00  0.0000000000000D+00
   278  2.7700000000000D+00  0.0000000000000D+00  0.0000000000000D+00
   279  2.7800000000000D+00  0.0000000000000D+00  0.0000000000000D+00
   280  2.7900000000000D+00  0.0000000000000D+00  0.0000000000000D+00
   281  2.8000000000000D+00  0.0000000000000D+00  0.0000000000000D+00
   282  2.8100000000000D+00  0.0000000000000D+00  0.0000000000000D+00
   283  2.8200000000000D+00  0.0000000000000D+00  0.0000000000000D+00
   284  2.8300000000000D+00  0.0000000000000D+00  0.0000000000000D+00
   285  2.8400000000000D+00  0.0000000000000D+00  0.0000000000000D+00
   286  2.8500000000000D+00  0.0000000000000D+00  0.0000000000000D+00
   287  2.8600000000000D+00  0.0000000000000D+00  0.0000000000000D+00
   288  2.8700000000000D+00  0.0000000000000D+00  0.0000000000000D+00
   289  2.8800000000000D+00  0.0000000000000D+00  0.0000000000000D+00
   290  2.8900000000000D+00  0.0000000000000D+00  0.0000000000000D+00
   291  2.9000000000000D+00  0.0000000000000D+00  0.0000000000000D+00
   292  2.9100000000000D+00  0.0000000000000D+00  0.0000000000000D+00
   293  2.9200000000000D+00  0.0000000000000D+00  0.0000000000000D+00
   294  2.9300000000000D+00  0.0000000000000D+00  0.0000000000000D+00
   295  2.9400000000000D+00  0.0000000000000D+00  0.0000000000000D+00
   296  2.9500000000000D+00  0.0000000000000D+00  0.0000000000000D+00
   297  2.9600000000000D+00  0.0000000000000D+00  0.0000000000000D+00
   298  2.9700000000000D+00  0.0000000000000D+00  0.0000000000000D+00
   299  2.9800000000000D+00  0.0000000000000D+00  0.0000000000000D+00
   300  2.9900000000000D+00  0.0000000000000D+00  0.0000000000000D+00
   301  3.0000000000000D+00  0.0000000000000D+00  0.0000000000000D+00
   302  3.0100000000000D+00  0.0000000000000D+00  0.0000000000000D+00
   303  3.0200000000000D+00  0.0000000000000D+00  0.0000000000000D+00
   304  3.0300000000000D+00  0.0000000000000D+00  0.0000000000000D+00
   305  3.0400000000000D+00  0.0000000000000D+00  0.0000000000000D+00
   306  3.0500000000000D+00  0.0000000000000D+00  0.0000000000000D+00
   307  3.0600000000000D+00  0.0000000000000D+00  0.0000000000000D+00
   308  3.0700000000000D+00  0.0000000000000D+00  0.0000000000000D+00
   309  3.0800000000000D+00  0.0000000000000D+00  0.0000000000000D+00
   310  3.0900000000000D+00  0.0000000000000D+00  0.0000000000000D+00
   311  3.1000000000000D+00  0.0000000000000D+00  0.0000000000000D+00
   312  3.1100000000000D+00  0.0000000000000D+00  0.0000000000000D+00
   313  3.1200000000000D+00  0.0000000000000D+00  0.0000000000000D+00
   314  3.1300000000000D+00  0.0000000000000D+00  0.0000000000000D+00
   315  3.1400000000000D+00  0.0000000000000D+00  0.0000000000000D+00
   316  3.1500000000000D+00  0.0000000000000D+00  0.0000000000000D+00
   317  3.1600000000000D+00  0.0000000000000D+00  0.0000000000000D+00
   318  3.1700000000000D+00  0.0000000000000D+00  0.0000000000000D+00
   319  3.1800000000000D+00  0.0000000000000D+00  0.0000000000000D+00
   320  3.1900000000000D+00  0.0000000000000D+00  0.0000000000000D+00
   321  3.2000000000000D+00  0.0000000000000D+00  0.0000000000000D+00
   322  3.2100000000000D+00  0.0000000000000D+00  0.0000000000000D+00
   323  3.2200000000000D+00  0.0000000000000D+00  0.0000000000000D+00
   324  3.2300000000000D+00  0.0000000000000D+00  0.0000000000000D+00
   325  3.2400000000000D+00  0.0000000000000D+00  0.0000000000000D+00
   326  3.2500000000000D+00  0.0000000000000D+00  0.0000000000000D+00
   327  3.2600000000000D+00  0.0000000000000D+00  0.0000000000000D+00
   328  3.2700000000000D+00  0.0000000000000D+00  0.0000000000000D+00
   329  3.2800000000000D+00  0.0000000000000D+00  0.0000000000000D+00
   330  3.2900000000000D+00  0.0000000000000D+00  0.0000000000000D+00
   331  3.3000000000000D+00  0.0000000000000D+00  0.0000000000000D+00
   332  3.3100000000000D+00  0.0000000000000D+00  0.0000000000000D+00
   333  3.3200000000000D+00  0.0000000000000D+00  0.0000000000000D+00
   334  3.3300000000000D+00  0.0000000000000D+00  0.0000000000000D+00
   335  3.3400000000000D+00  0.0000000000000D+00  0.0000000000000D+00
   336  3.3500000000000D+00  0.0000000000000D+00  0.0000000000000D+00
   337  3.3600000000000D+00  0.0000000000000D+00  0.0000000000000D+00
   338  3.3700000000000D+00  0.0000000000000D+00  0.0000000000000D+00
   339  3.3800000000000D+00  0.0000000000000D+00  0.0000000000000D+00
   340  3.3900000000000D+00  0.0000000000000D+00  0.0000000000000D+00
   341  3.4000000000000D+00  0.0000000000000D+00  0.0000000000000D+00
   342  3.4100000000000D+00  0.0000000000000D+00  0.0000000000000D+00
   343  3.4200000000000D+00  0.0000000000000D+00  0.0000000000000D+00
   344  3.4300000000000D+00  0.0000000000000D+00  0.0000000000000D+00
   345  3.4400000000000D+00  0.0000000000000D+00  0.0000000000000D+00
   346  3.4500000000000D+00  0.0000000000000D+00  0.0000000000000D+00
   347  3.4600000000000D+00  0.0000000000000D+00  0.0000000000000D+00
   348  3.4700000000000D+00  0.0000000000000D+00  0.0000000000000D+00
   349  3.4800000000000D+00  0.0000000000000D+00  0.0000000000000D+00
   350  3.4900000000000D+00  0.0000000000000D+00  0.0000000000000D+00
   351  3.5000000000000D+00  0.0000000000000D+00  0.0000000000000D+00
   352  3.5100000000000D+00  0.0000000000000D+00  0.0000000000000D+00
   353  3.5200000000000D+00  0.0000000000000D+00  0.0000000000000D+00
   354  3.5300000000000D+00  0.0000000000000D+00  0.0000000000000D+00
   355  3.5400000000000D+00  0.0000000000000D+00  0.0000000000000D+00
   356  3.5500000000000D+00  0.0000000000000D+00  0.0000000000000D+00
   357  3.5600000000000D+00  0.0000000000000D+00  0.0000000000000D+00
   358  3.5700000000000D+00  0.0000000000000D+00  0.0000000000000D+00
   359  3.5800000000000D+00  0.0000000000000D+00  0.0000000000000D+00
   360  3.5900000000000D+00  0.0000000000000D+00  0.0000000000000D+00
   361  3.6000000000000D+00  0.0000000000000D+00  0.0000000000000D+00
   362  3.6100000000000D+00  0.0000000000000D+00  0.0000000000000D+00
   363  3.6200000000000D+00  0.0000000000000D+00  0.0000000000000D+00
   364  3.6300000000000D+00  0.0000000000000D+00  0.0000000000000D+00
   365  3.6400000000000D+00  0.0000000000000D+00  0.0000000000000D+00
   366  3.6500000000000D+00  0.0000000000000D+00  0.0000000000000D+00
   367  3.6600000000000D+00  0.0000000000000D+00  0.0000000000000D+00
   368  3.6700000000000D+00  0.0000000000000D+00  0.0000000000000D+00
   369  3.6800000000000D+00  0.0000000000000D+00  0.0000000000000D+00
   370  3.6900000000000D+00  0.0000000000000D+00  0.0000000000000D+00
   371  3.7000000000000D+00  0.0000000000000D+00  0.0000000000000D+00
   372  3.7100000000000D+00  0.0000000000000D+00  0.0000000000000D+00
   373  3.7200000000000D+00  0.0000000000000D+00  0.0000000000000D+00
   374  3.7300000000000D+00  0.0000000000000D+00  0.0000000000000D+00
   375  3.7400000000000D+00  0.0000000000000D+00  0.0000000000000D+00
   376  3.7500000000000D+00  0.0000000000000D+00  0.0000000000000D+00
   377  3.7600000000000D+00  0.0000000000000D+00  0.0000000000000D+00
   378  3.7700000000000D+00  0.0000000000000D+00  0.0000000000000D+00
   379  3.7800000000000D+00  0.0000000000000D+00  0.0000000000000D+00
   380  3.7900000000000D+00  0.0000000000000D+00  0.0000000000000D+00
   381  3.8000000000000D+00  0.0000000000000D+00  0.0000000000000D+00
   382  3.8100000000000D+00  0.0000000000000D+00  0.0000000000000D+00
   383  3.8200000000000D+00  0.0000000000000D+00  0.0000000000000D+00
   384  3.8300000000000D+00  0.0000000000000D+00  0.0000000000000D+00
   385  3.8400000000000D+00  0.0000000000000D+00  0.0000000000000D+00
   386  3.8500000000000D+00  0.0000000000000D+00  0.0000000000000D+00
   387  3.8600000000000D+00  0.0000000000000D+00  0.0000000000000D+00
   388  3.8700000000000D+00  0.0000000000000D+00  0.0000000000000D+00
   389  3.8800000000000D+00  0.0000000000000D+00  0.0000000000000D+00
   390  3.8900000000000D+00  0.0000000000000D+00  0.0000000000000D+00
   391  3.9000000000000D+00  0.0000000000000D+00  0.0000000000000D+00
   392  3.9100000000000D+00  0.0000000000000D+00  0.0000000000000D+00
   393  3.9200000000000D+00  0.0000000000000D+00  0.0000000000000D+00
   394  3.9300000000000D+00  0.0000000000000D+00  0.0000000000000D+00
   395  3.9400000000000D+00  0.0000000000000D+00  0.0000000000000D+00
   396  3.9500000000000D+00  0.0000000000000D+00  0.0000000000000D+00
   397  3.9600000000000D+00  0.0000000000000D+00  0.0000000000000D+00
   398  3.9700000000000D+00  0.0000000000000D+00  0.0000000000000D+00
   399  3.9800000000000D+00  0.0000000000000D+00  0.0000000000000D+00
   400  3.9900000000000D+00  0.0000000000000D+00  0.0000000000000D+00
   401  4.0000000000000D+00  0.0000000000000D+00  0.0000000000000D+00
   402  4.0100000000000D+00  0.0000000000000D+00  0.0000000000000D+00
   403  4.0200000000000D+00  0.0000000000000D+00  0.0000000000000D+00
   404  4.0300000000000D+00  0.0000000000000D+00  0.0000000000000D+00
   405  4.0400000000000D+00  0.0000000000000D+00  0.0000000000000D+00
   406  4.0500000000000D+00  0.0000000000000D+00  0.0000000000000D+00
   407  4.0600000000000D+00  0.0000000000000D+00  0.0000000000000D+00
   408  4.0700000000000D+00  0.0000000000000D+00  0.0000000000000D+00
   409  4.0800000000000D+00  0.0000000000000D+00  0.0000000000000D+00
   410  4.0900000000000D+00  0.0000000000000D+00  0.0000000000000D+00
   411  4.1000000000000D+00  0.0000000000000D+00  0.0000000000000D+00
   412  4.1100000000000D+00  0.0000000000000D+00  0.0000000000000D+00
   413  4.1200000000000D+00  0.0000000000000D+00  0.0000000000000D+00
   414  4.1300000000000D+00  0.0000000000000D+00  0.0000000000000D+00
   415  4.1400000000000D+00  0.0000000000000D+00  0.0000000000000D+00
   416  4.1500000000000D+00  0.0000000000000D+00  0.0000000000000D+00
   417  4.1600000000000D+00  0.0000000000000D+00  0.0000000000000D+00
   418  4.1700000000000D+00  0.0000000000000D+00  0.0000000000000D+00
   419  4.1800000000000D+00  0.0000000000000D+00  0.0000000000000D+00
   420  4.1900000000000D+00  0.0000000000000D+00  0.0000000000000D+00
   421  4.2000000000000D+00  0.0000000000000D+00  0.0000000000000D+00
   422  4.2100000000000D+00  0.0000000000000D+00  0.0000000000000D+00