In    ONCVPSP-3.3.1  r_core=   3.39782   3.43859   2.67664
     49.0000     13.0000      210904    zatom,zion,pspd
     8       2   2     4   600     0    pspcod,pspxc,lmax,lloc,mmax,r2well
  5.99000000  0.00000000  0.00000000    rchrg fchrg qchrg
     2     2     2     0     0    nproj
     1     1           extension_switch
   0                         4.8078284518233D+00  4.5553149948574D-01
     1  0.0000000000000D+00 -9.4188545851637D-14  1.4672117687464D-12
     2  1.0000000000000D-02  1.4714901106579D-02 -2.7570073433117D-03
     3  2.0000000000000D-02  2.9434230182704D-02 -5.5202371447031D-03
     4  3.0000000000000D-02  4.4162395124545D-02 -8.2958931384374D-03
     5  4.0000000000000D-02  5.8903763712315D-02 -1.1090141596851D-02
     6  5.0000000000000D-02  7.3662643629301D-02 -1.3909092564034D-02
     7  6.0000000000000D-02  8.8443262573365D-02 -1.6758781048110D-02
     8  7.0000000000000D-02  1.0324974849186D-01 -1.9645148160053D-02
     9  8.0000000000000D-02  1.1808610997100D-01 -2.2574022188402D-02
    10  9.0000000000000D-02  1.3295621681076D-01 -2.5551099601089D-02
    11  1.0000000000000D-01  1.4786378081669D-01 -2.8581925967690D-02
    12  1.1000000000000D-01  1.6281233683990D-01 -3.1671876797902D-02
    13  1.2000000000000D-01  1.7780522409694D-01 -3.4826138294812D-02
    14  1.3000000000000D-01  1.9284556780113D-01 -3.8049688024557D-02
    15  1.4000000000000D-01  2.0793626113743D-01 -4.1347275507327D-02
    16  1.5000000000000D-01  2.2307994761263D-01 -4.4723402738197D-02
    17  1.6000000000000D-01  2.3827900381340D-01 -4.8182304650049D-02
    18  1.7000000000000D-01  2.5353552260422D-01 -5.1727929534860D-02
    19  1.8000000000000D-01  2.6885129679802D-01 -5.5363919443716D-02
    20  1.9000000000000D-01  2.8422780333179D-01 -5.9093590590237D-02
    21  2.0000000000000D-01  2.9966618798016D-01 -6.2919913786446D-02
    22  2.1000000000000D-01  3.1516725063949D-01 -6.6845494944588D-02
    23  2.2000000000000D-01  3.3073143121533D-01 -7.0872555682947D-02
    24  2.3000000000000D-01  3.4635879614595D-01 -7.5002914078104D-02
    25  2.4000000000000D-01  3.6204902559453D-01 -7.9237965610770D-02
    26  2.5000000000000D-01  3.7780140134274D-01 -8.3578664356546D-02
    27  2.6000000000000D-01  3.9361479541772D-01 -8.8025504477480D-02
    28  2.7000000000000D-01  4.0948765948480D-01 -9.2578502074465D-02
    29  2.8000000000000D-01  4.2541801503754D-01 -9.7237177464527D-02
    30  2.9000000000000D-01  4.4140344441633D-01 -1.0200053795106D-01
    31  3.0000000000000D-01  4.5744108268655D-01 -1.0686706115856D-01
    32  3.1000000000000D-01  4.7352761040629D-01 -1.1183467900706D-01
    33  3.2000000000000D-01  4.8965924731319D-01 -1.1690076240424D-01
    34  3.3000000000000D-01  5.0583174695923D-01 -1.2206210673629D-01
    35  3.4000000000000D-01  5.2204039232114D-01 -1.2731491824098D-01
    36  3.5000000000000D-01  5.3827999241332D-01 -1.3265480134831D-01
    37  3.6000000000000D-01  5.5454487992906D-01 -1.3807674707608D-01
    38  3.7000000000000D-01  5.7082890993432D-01 -1.4357512256865D-01
    39  3.8000000000000D-01  5.8712545963744D-01 -1.4914366186837D-01
    40  3.9000000000000D-01  6.0342742925624D-01 -1.5477545800907D-01
    41  4.0000000000000D-01  6.1972724400276D-01 -1.6046295652128D-01
    42  4.1000000000000D-01  6.3601685720379D-01 -1.6619795043788D-01
    43  4.2000000000000D-01  6.5228775457388D-01 -1.7197157688796D-01
    44  4.3000000000000D-01  6.6853095965536D-01 -1.7777431536487D-01
    45  4.4000000000000D-01  6.8473704043775D-01 -1.8359598775235D-01
    46  4.5000000000000D-01  7.0089611716697D-01 -1.8942576018965D-01
    47  4.6000000000000D-01  7.1699787135226D-01 -1.9525214685367D-01
    48  4.7000000000000D-01  7.3303155597634D-01 -2.0106301573179D-01
    49  4.8000000000000D-01  7.4898600691178D-01 -2.0684559645521D-01
    50  4.9000000000000D-01  7.6484965554396D-01 -2.1258649025737D-01
    51  5.0000000000000D-01  7.8061054259819D-01 -2.1827168211661D-01
    52  5.1000000000000D-01  7.9625633316560D-01 -2.2388655513655D-01
    53  5.2000000000000D-01  8.1177433291978D-01 -2.2941590721086D-01
    54  5.3000000000000D-01  8.2715150551267D-01 -2.3484397001237D-01
    55  5.4000000000000D-01  8.4237449113558D-01 -2.4015443033905D-01
    56  5.5000000000000D-01  8.5742962622754D-01 -2.4533045384144D-01
    57  5.6000000000000D-01  8.7230296431045D-01 -2.5035471114792D-01
    58  5.7000000000000D-01  8.8698029792676D-01 -2.5520940639559D-01
    59  5.8000000000000D-01  9.0144718165228D-01 -2.5987630816529D-01
    60  5.9000000000000D-01  9.1568895615355D-01 -2.6433678281035D-01
    61  6.0000000000000D-01  9.2969077325527D-01 -2.6857183015843D-01
    62  6.1000000000000D-01  9.4343762198056D-01 -2.7256212155656D-01
    63  6.2000000000000D-01  9.5691435552277D-01 -2.7628804021880D-01
    64  6.3000000000000D-01  9.7010571910479D-01 -2.7972972382598D-01
    65  6.4000000000000D-01  9.8299637867793D-01 -2.8286710931639D-01
    66  6.5000000000000D-01  9.9557095040939D-01 -2.8567997979589D-01
    67  6.6000000000000D-01  1.0078140309042D+00 -2.8814801348506D-01
    68  6.7000000000000D-01  1.0197102281036D+00 -2.9025083461089D-01
    69  6.8000000000000D-01  1.0312441928003D+00 -2.9196806613942D-01
    70  6.9000000000000D-01  1.0424006507050D+00 -2.9327938423585D-01
    71  7.0000000000000D-01  1.0531644350002D+00 -2.9416457432788D-01
    72  7.1000000000000D-01  1.0635205193091D+00 -2.9460358863840D-01
    73  7.2000000000000D-01  1.0734540510096D+00 -2.9457660504333D-01
    74  7.3000000000000D-01  1.0829503848171D+00 -2.9406408710129D-01
    75  7.4000000000000D-01  1.0919951165604D+00 -2.9304684509225D-01
    76  7.5000000000000D-01  1.1005741170700D+00 -2.9150609789368D-01
    77  7.6000000000000D-01  1.1086735660981D+00 -2.8942353551427D-01
    78  7.7000000000000D-01  1.1162799861876D+00 -2.8678138209736D-01
    79  7.8000000000000D-01  1.1233802764034D+00 -2.8356245919895D-01
    80  7.9000000000000D-01  1.1299617458415D+00 -2.7975024913837D-01
    81  8.0000000000000D-01  1.1360121468270D+00 -2.7532895821338D-01
    82  8.1000000000000D-01  1.1415197077132D+00 -2.7028357956620D-01
    83  8.2000000000000D-01  1.1464731651913D+00 -2.6459995548205D-01
    84  8.3000000000000D-01  1.1508617960225D+00 -2.5826483889766D-01
    85  8.4000000000000D-01  1.1546754481003D+00 -2.5126595389409D-01
    86  8.5000000000000D-01  1.1579045707546D+00 -2.4359205494560D-01
    87  8.6000000000000D-01  1.1605402442071D+00 -2.3523298469473D-01
    88  8.7000000000000D-01  1.1625742080882D+00 -2.2617973002284D-01
    89  8.8000000000000D-01  1.1639988889277D+00 -2.1642447618574D-01
    90  8.9000000000000D-01  1.1648074265322D+00 -2.0596065878473D-01
    91  9.0000000000000D-01  1.1649936991619D+00 -1.9478301334552D-01
    92  9.1000000000000D-01  1.1645523474243D+00 -1.8288762228026D-01
    93  9.2000000000000D-01  1.1634787968019D+00 -1.7027195901182D-01
    94  9.3000000000000D-01  1.1617692787334D+00 -1.5693492904406D-01
    95  9.4000000000000D-01  1.1594208501724D+00 -1.4287690776779D-01
    96  9.5000000000000D-01  1.1564314115478D+00 -1.2809977479859D-01
    97  9.6000000000000D-01  1.1527997230555D+00 -1.1260694465039D-01
    98  9.7000000000000D-01  1.1485254192133D+00 -9.6403393557230D-02
    99  9.8000000000000D-01  1.1436090216142D+00 -7.9495682265158D-02
   100  9.9000000000000D-01  1.1380519498188D+00 -6.1891974626661D-02
   101  1.0000000000000D+00  1.1318565303305D+00 -4.3602051841155D-02
   102  1.0100000000000D+00  1.1250260036012D+00 -2.4637322197433D-02
   103  1.0200000000000D+00  1.1175645290216D+00 -5.0108261868934D-03
   104  1.0300000000000D+00  1.1094771878543D+00  1.5262763129872D-02
   105  1.0400000000000D+00  1.1007699840714D+00  3.6167144605816D-02
   106  1.0500000000000D+00  1.0914498430683D+00  5.7684398426827D-02
   107  1.0600000000000D+00  1.0815246082238D+00  7.9795000539735D-02
   108  1.0700000000000D+00  1.0710030352904D+00  1.0247784214309D-01
   109  1.0800000000000D+00  1.0598947845985D+00  1.2571025427861D-01
   110  1.0900000000000D+00  1.0482104110658D+00  1.4946803754253D-01
   111  1.1000000000000D+00  1.0359613520132D+00  1.7372549691842D-01
   112  1.1100000000000D+00  1.0231599127871D+00  1.9845548171490D-01
   113  1.1200000000000D+00  1.0098192502031D+00  2.2362943057051D-01
   114  1.1300000000000D+00  9.9595335382501D-01  2.4921742147059D-01
   115  1.1400000000000D+00  9.8157702510647D-01  2.7518822669921D-01
   116  1.1500000000000D+00  9.6670585442148D-01  3.0150937263363D-01
   117  1.1600000000000D+00  9.5135619602435D-01  3.2814720426281D-01
   118  1.1700000000000D+00  9.3554514098095D-01  3.5506695429530D-01
   119  1.1800000000000D+00  9.1929048812206D-01  3.8223281670061D-01
   120  1.1900000000000D+00  9.0261071307472D-01  4.0960802451076D-01
   121  1.2000000000000D+00  8.8552493543558D-01  4.3715493168406D-01
   122  1.2100000000000D+00  8.6805288415645D-01  4.6483509881475D-01
   123  1.2200000000000D+00  8.5021486121593D-01  4.9260938246016D-01
   124  1.2300000000000D+00  8.3203170366091D-01  5.2043802782744D-01
   125  1.2400000000000D+00  8.1352474410617D-01  5.4828076454791D-01
   126  1.2500000000000D+00  7.9471576978490D-01  5.7609690525291D-01
   127  1.2600000000000D+00  7.7562698025020D-01  6.0384544664381D-01
   128  1.2700000000000D+00  7.5628094383389D-01  6.3148517272837D-01
   129  1.2800000000000D+00  7.3670055297178D-01  6.5897475988858D-01
   130  1.2900000000000D+00  7.1690897851066D-01  6.8627288342537D-01
   131  1.3000000000000D+00  6.9692962311927D-01  7.1333832520526D-01
   132  1.3100000000000D+00  6.7678607392586D-01  7.4013008203265D-01
   133  1.3200000000000D+00  6.5650205451179D-01  7.6660747435111D-01
   134  1.3300000000000D+00  6.3610137639593D-01  7.9273025486143D-01
   135  1.3400000000000D+00  6.1560789014346D-01  8.1845871664780D-01
   136  1.3500000000000D+00  5.9504543624054D-01  8.4375380037978D-01
   137  1.3600000000000D+00  5.7443779587847D-01  8.6857720015350D-01
   138  1.3700000000000D+00  5.5380864178935D-01  8.9289146753837D-01
   139  1.3800000000000D+00  5.3318148928416D-01  9.1666011337167D-01
   140  1.3900000000000D+00  5.1257964764035D-01  9.3984770685569D-01
   141  1.4000000000000D+00  4.9202617198993D-01  9.6241997149881D-01
   142  1.4100000000000D+00  4.7154381586037D-01  9.8434387744379D-01
   143  1.4200000000000D+00  4.5115498451957D-01  1.0055877297253D+00
   144  1.4300000000000D+00  4.3088168927857D-01  1.0261212519976D+00
   145  1.4400000000000D+00  4.1074550290246D-01  1.0459156652827D+00
   146  1.4500000000000D+00  3.9076751628425D-01  1.0649437612755D+00
   147  1.4600000000000D+00  3.7096829652763D-01  1.0831799697776D+00
   148  1.4700000000000D+00  3.5136784659371D-01  1.1006004197953D+00
   149  1.4800000000000D+00  3.3198556665357D-01  1.1171829938919D+00
   150  1.4900000000000D+00  3.1284021729501D-01  1.1329073753559D+00
   151  1.5000000000000D+00  2.9394988472676D-01  1.1477550877678D+00
   152  1.5100000000000D+00  2.7533194811305D-01  1.1617095265899D+00
   153  1.5200000000000D+00  2.5700304918795D-01  1.1747559823366D+00
   154  1.5300000000000D+00  2.3897906426075D-01  1.1868816550283D+00
   155  1.5400000000000D+00  2.2127507876679D-01  1.1980756594719D+00
   156  1.5500000000000D+00  2.0390536445883D-01  1.2083290211263D+00
   157  1.5600000000000D+00  1.8688335938276D-01  1.2176346621352D+00
   158  1.5700000000000D+00  1.7022165073105D-01  1.2259873772914D+00
   159  1.5800000000000D+00  1.5393196069370D-01  1.2333837996017D+00
   160  1.5900000000000D+00  1.3802513540456D-01  1.2398223551984D+00
   161  1.6000000000000D+00  1.2251113707242D-01  1.2453032073745D+00
   162  1.6100000000000D+00  1.0739903940202D-01  1.2498281894629D+00
   163  1.6200000000000D+00  9.2697026359678D-02  1.2534007264570D+00
   164  1.6300000000000D+00  7.8412394397394D-02  1.2560257450639D+00
   165  1.6400000000000D+00  6.4551558152757D-02  1.2577095722144D+00
   166  1.6500000000000D+00  5.1120059747026D-02  1.2584598216938D+00
   167  1.6600000000000D+00  3.8122581660695D-02  1.2582852690460D+00
   168  1.6700000000000D+00  2.5562963315778D-02  1.2571957143932D+00
   169  1.6800000000000D+00  1.3444221307001D-02  1.2552018334473D+00
   170  1.6900000000000D+00  1.7685734313372D-03  1.2523150125739D+00
   171  1.7000000000000D+00 -9.4625336866821D-03  1.2485471938839D+00
   172  1.7100000000000D+00 -2.0248392298682D-02  1.2439106306117D+00
   173  1.7200000000000D+00 -3.0589001383456D-02  1.2384178424611D+00
   174  1.7300000000000D+00 -4.0485022374205D-02  1.2320812768792D+00
   175  1.7400000000000D+00 -4.9937740147179D-02  1.2249127929923D+00
   176  1.7500000000000D+00 -5.8949017320043D-02  1.2169241459248D+00
   177  1.7600000000000D+00 -6.7521241035999D-02  1.2081273717174D+00
   178  1.7700000000000D+00 -7.5657303690996D-02  1.1985352154487D+00
   179  1.7800000000000D+00 -8.3360587211185D-02  1.1881618912940D+00
   180  1.7900000000000D+00 -9.0634948393347D-02  1.1770230938051D+00
   181  1.8000000000000D+00 -9.7484711472380D-02  1.1651357386258D+00
   182  1.8100000000000D+00 -1.0391465618182D-01  1.1525179477260D+00
   183  1.8200000000000D+00 -1.0993000292061D-01  1.1391890507806D+00
   184  1.8300000000000D+00 -1.1553639964267D-01  1.1251695074499D+00
   185  1.8400000000000D+00 -1.2073990722110D-01  1.1104808686002D+00
   186  1.8500000000000D+00 -1.2554698438232D-01  1.0951457198593D+00
   187  1.8600000000000D+00 -1.2996447199865D-01  1.0791876264572D+00
   188  1.8700000000000D+00 -1.3399957683867D-01  1.0626310763482D+00
   189  1.8800000000000D+00 -1.3765985479670D-01  1.0455014216998D+00
   190  1.8900000000000D+00 -1.4095319366225D-01  1.0278248189722D+00
   191  1.9000000000000D+00 -1.4388779545672D-01  1.0096281676934D+00
   192  1.9100000000000D+00 -1.4647215839058D-01  9.9093904812562D-01
   193  1.9200000000000D+00 -1.4871505847937D-01  9.7178565796952D-01
   194  1.9300000000000D+00 -1.5062553086310D-01  9.5219674826931D-01
   195  1.9400000000000D+00 -1.5221285087388D-01  9.3220155868617D-01
   196  1.9500000000000D+00 -1.5348651489527D-01  9.1182975230464D-01
   197  1.9600000000000D+00 -1.5445622105395D-01  8.9111135011445D-01
   198  1.9700000000000D+00 -1.5513184979570D-01  8.7007666537225D-01
   199  1.9800000000000D+00 -1.5552344437622D-01  8.4875623794234D-01
   200  1.9900000000000D+00 -1.5564119132414D-01  8.2718076883982D-01
   201  2.0000000000000D+00 -1.5549540090772D-01  8.0538105508411D-01
   202  2.0100000000000D+00 -1.5509648764976D-01  7.8338792502700D-01
   203  2.0200000000000D+00 -1.5445495094372D-01  7.6123217435769D-01
   204  2.0300000000000D+00 -1.5358135578281D-01  7.3894450280825D-01
   205  2.0400000000000D+00 -1.5248631368529D-01  7.1655545188958D-01
   206  2.0500000000000D+00 -1.5118046380908D-01  6.9409534360461D-01
   207  2.0600000000000D+00 -1.4967445432687D-01  6.7159422041518D-01
   208  2.0700000000000D+00 -1.4797892409162D-01  6.4908178656586D-01
   209  2.0800000000000D+00 -1.4610448460158D-01  6.2658735078174D-01
   210  2.0900000000000D+00 -1.4406170235767D-01  6.0413977070383D-01
   211  2.1000000000000D+00 -1.4186108157392D-01  5.8176739888060D-01
   212  2.1100000000000D+00 -1.3951304733525D-01  5.5949803068311D-01
   213  2.1200000000000D+00 -1.3702792920680D-01  5.3735885414288D-01
   214  2.1300000000000D+00 -1.3441594529807D-01  5.1537640170662D-01
   215  2.1400000000000D+00 -1.3168718688554D-01  4.9357650431202D-01
   216  2.1500000000000D+00 -1.2885160352161D-01  4.7198424747348D-01
   217  2.1600000000000D+00 -1.2591898873489D-01  4.5062392978567D-01
   218  2.1700000000000D+00 -1.2289896632077D-01  4.2951902382310D-01
   219  2.1800000000000D+00 -1.1980097718912D-01  4.0869213928455D-01
   220  2.1900000000000D+00 -1.1663426690840D-01  3.8816498892594D-01
   221  2.2000000000000D+00 -1.1340787383320D-01  3.6795835681082D-01
   222  2.2100000000000D+00 -1.1013061790945D-01  3.4809206923914D-01
   223  2.2200000000000D+00 -1.0681109018326D-01  3.2858496844158D-01
   224  2.2300000000000D+00 -1.0345764292757D-01  3.0945488868015D-01
   225  2.2400000000000D+00 -1.0007838053767D-01  2.9071863534019D-01
   226  2.2500000000000D+00 -9.6681151099403D-02  2.7239196661464D-01
   227  2.2600000000000D+00 -9.3273538639822D-02  2.5448957780373D-01
   228  2.2700000000000D+00 -8.9862856170179D-02  2.3702508864729D-01
   229  2.2800000000000D+00 -8.6456139377639D-02  2.2001103310753D-01
   230  2.2900000000000D+00 -8.3060141069198D-02  2.0345885199296D-01
   231  2.3000000000000D+00 -7.9681326369440D-02  1.8737888841291D-01
   232  2.3100000000000D+00 -7.6325868563899D-02  1.7178038562455D-01
   233  2.3200000000000D+00 -7.2999645734177D-02  1.5667148782439D-01
   234  2.3300000000000D+00 -6.9708238088762D-02  1.4205924349439D-01
   235  2.3400000000000D+00 -6.6456925936027D-02  1.2794961108184D-01
   236  2.3500000000000D+00 -6.3250688456937D-02  1.1434746760024D-01
   237  2.3600000000000D+00 -6.0094203096521D-02  1.0125661944152D-01
   238  2.3700000000000D+00 -5.6991845619731D-02  8.8679815558354D-02
   239  2.3800000000000D+00 -5.3947690898094D-02  7.6618763248762D-02
   240  2.3900000000000D+00 -5.0965514275411D-02  6.5074145955070D-02
   241  2.4000000000000D+00 -4.8048793582867D-02  5.4045643322769D-02
   242  2.4100000000000D+00 -4.5200711807096D-02  4.3531953512449D-02
   243  2.4200000000000D+00 -4.2424160290818D-02  3.3530817305031D-02
   244  2.4300000000000D+00 -3.9721742546710D-02  2.4039044273254D-02
   245  2.4400000000000D+00 -3.7095778640230D-02  1.5052540837936D-02
   246  2.4500000000000D+00 -3.4548310051750D-02  6.5663398728862D-03
   247  2.4600000000000D+00 -3.2081105094944D-02 -1.4253678981468D-03
   248  2.4700000000000D+00 -2.9695664818123D-02 -8.9292009906729D-03
   249  2.4800000000000D+00 -2.7393229325240D-02 -1.5952552966022D-02
   250  2.4900000000000D+00 -2.5174784577362D-02 -2.2503556791251D-02
   251  2.5000000000000D+00 -2.3041069591737D-02 -2.8591048048395D-02
   252  2.5100000000000D+00 -2.0992583995511D-02 -3.4224527144171D-02
   253  2.5200000000000D+00 -1.9029595968559D-02 -3.9414120474672D-02
   254  2.5300000000000D+00 -1.7152150500572D-02 -4.4170540790413D-02
   255  2.5400000000000D+00 -1.5360077933770D-02 -4.8505046855794D-02
   256  2.5500000000000D+00 -1.3653002792329D-02 -5.2429402501681D-02
   257  2.5600000000000D+00 -1.2030352844697D-02 -5.5955835218150D-02
   258  2.5700000000000D+00 -1.0491368380224D-02 -5.9096994339521D-02
   259  2.5800000000000D+00 -9.0351116647933D-03 -6.1865909071774D-02
   260  2.5900000000000D+00 -7.6604765486014D-03 -6.4275946395726D-02
   261  2.6000000000000D+00 -6.3661982162700D-03 -6.6340768857350D-02
   262  2.6100000000000D+00 -5.1508630102663D-03 -6.8074292629459D-02
   263  2.6200000000000D+00 -4.0129183234496D-03 -6.9490645793515D-02
   264  2.6300000000000D+00 -2.9506825627331D-03 -7.0604126794841D-02
   265  2.6400000000000D+00 -1.9623550912395D-03 -7.1429163539995D-02
   266  2.6500000000000D+00 -1.0460261500064D-03 -7.1980273086025D-02
   267  2.6600000000000D+00 -1.9968678128585D-04 -7.2272021777441D-02
   268  2.6700000000000D+00  5.7876134337782D-04 -7.2318986294815D-02
   269  2.6800000000000D+00  1.2914962169102D-03 -7.2135715716781D-02
   270  2.6900000000000D+00  1.9407658562774D-03 -7.1736694290681D-02
   271  2.7000000000000D+00  2.5288787993814D-03 -7.1136305239889D-02
   272  2.7100000000000D+00  3.0581948420979D-03 -7.0348796076371D-02
   273  2.7200000000000D+00  3.5311159063605D-03 -6.9388244869670D-02
   274  2.7300000000000D+00  3.9500770472945D-03 -6.8268527498821D-02
   275  2.7400000000000D+00  4.3175378428330D-03 -6.7003287001011D-02
   276  2.7500000000000D+00  4.6359739521313D-03 -6.5605903995837D-02
   277  2.7600000000000D+00  4.9078688336853D-03 -6.4089468136623D-02
   278  2.7700000000000D+00  5.1357059291304D-03 -6.2466751965657D-02
   279  2.7800000000000D+00  5.3219610699956D-03 -6.0750186043503D-02
   280  2.7900000000000D+00  5.4690951098331D-03 -5.8951835352735D-02
   281  2.8000000000000D+00  5.5795469737065D-03 -5.7083377820307D-02
   282  2.8100000000000D+00  5.6557270726444D-03 -5.5156084704143D-02
   283  2.8200000000000D+00  5.7000109852244D-03 -5.3180802388565D-02
   284  2.8300000000000D+00  5.7147334465863D-03 -5.1167935754023D-02
   285  2.8400000000000D+00  5.7021828816641D-03 -4.9127434150942D-02
   286  2.8500000000000D+00  5.6645962108742D-03 -4.7068778755017D-02
   287  2.8600000000000D+00  5.6041538829661D-03 -4.5000971098532D-02
   288  2.8700000000000D+00  5.5229755511802D-03 -4.2932524576481D-02
   289  2.8800000000000D+00  5.4231160152311D-03 -4.0871457260355D-02
   290  2.8900000000000D+00  5.3065614730427D-03 -3.8825286200447D-02
   291  2.9000000000000D+00  5.1752262138831D-03 -3.6801023766600D-02
   292  2.9100000000000D+00  5.0309497783182D-03 -3.4805176119528D-02
   293  2.9200000000000D+00  4.8754944380292D-03 -3.2843743160131D-02
   294  2.9300000000000D+00  4.7105428807588D-03 -3.0922219459901D-02
   295  2.9400000000000D+00  4.5376965888250D-03 -2.9045598227626D-02
   296  2.9500000000000D+00  4.3584744068031D-03 -2.7218376151550D-02
   297  2.9600000000000D+00  4.1743114150794D-03 -2.5444559604233D-02
   298  2.9700000000000D+00  3.9865582361998D-03 -2.3727672718370D-02
   299  2.9800000000000D+00  3.7964807322226D-03 -2.2070767141588D-02
   300  2.9900000000000D+00  3.6052599941457D-03 -2.0476433035888D-02
   301  3.0000000000000D+00  3.4139924923997D-03 -1.8946810780314D-02
   302  3.0100000000000D+00  3.2236908259499D-03 -1.7483605134793D-02
   303  3.0200000000000D+00  3.0352846039451D-03 -1.6088099948814D-02
   304  3.0300000000000D+00  2.8496215976371D-03 -1.4761173966624D-02
   305  3.0400000000000D+00  2.6674691781282D-03 -1.3503317762177D-02
   306  3.0500000000000D+00  2.4895160880609D-03 -1.2314651970290D-02
   307  3.0600000000000D+00  2.3163743930445D-03 -1.1194946185034D-02
   308  3.0700000000000D+00  2.1485815902292D-03 -1.0143638451205D-02
   309  3.0800000000000D+00  1.9866030418864D-03 -9.1598559128328D-03
   310  3.0900000000000D+00  1.8308345481181D-03 -8.2424359287204D-03
   311  3.1000000000000D+00  1.6816050882518D-03 -7.3899477335636D-03
   312  3.1100000000000D+00  1.5391796883742D-03 -6.6007145072915D-03
   313  3.1200000000000D+00  1.4037624885520D-03 -5.8728359720907D-03
   314  3.1300000000000D+00  1.2754998833968D-03 -5.2042111566280D-03
   315  3.1400000000000D+00  1.1544837771231D-03 -4.5925614438770D-03
   316  3.1500000000000D+00  1.0407549173283D-03 -4.0354536961080D-03
   317  3.1600000000000D+00  9.3430628368249D-04 -3.5303233007660D-03
   318  3.1700000000000D+00  8.3508651519176D-04 -3.0744971536540D-03
   319  3.1800000000000D+00  7.4300342283429D-04 -2.6652168087552D-03
   320  3.1900000000000D+00  6.5792743582108D-04 -2.2996609403057D-03
   321  3.2000000000000D+00  5.7969505517968D-04 -1.9749675625387D-03
   322  3.2100000000000D+00  5.0811226395318D-04 -1.6882557499001D-03
   323  3.2200000000000D+00  4.4295804662972D-04 -1.4366476464811D-03
   324  3.2300000000000D+00  3.8398761158222D-04 -1.2172886543053D-03
   325  3.2400000000000D+00  3.3093566285782D-04 -1.0273676158077D-03
   326  3.2500000000000D+00  2.8351952729562D-04 -8.6413599252030D-04
   327  3.2600000000000D+00  2.4144240697321D-04 -7.2492739502027D-04
   328  3.2700000000000D+00  2.0439611773968D-04 -6.0717427218122D-04
   329  3.2800000000000D+00  1.7207359565209D-04 -5.0846474978889D-04
   330  3.2900000000000D+00  1.4418499808137D-04 -4.2661386634465D-04
   331  3.3000000000000D+00  1.2032978763288D-04 -3.5914003998745D-04
   332  3.3100000000000D+00  1.0016488883069D-04 -3.0396304871054D-04
   333  3.3200000000000D+00  8.3271279402097D-05 -2.5889825631731D-04
   334  3.3300000000000D+00  6.9183196991327D-05 -2.2177036706478D-04
   335  3.3400000000000D+00  5.8140649678003D-05 -1.9320351702489D-04
   336  3.3500000000000D+00  4.9998113861520D-05 -1.7257545787889D-04
   337  3.3600000000000D+00  4.4775880484259D-05 -1.6000708106188D-04
   338  3.3700000000000D+00  4.2426315185887D-05 -1.5550611543170D-04
   339  3.3800000000000D+00  4.0680482884432D-05 -1.5126641143848D-04
   340  3.3900000000000D+00  3.8224119224631D-05 -1.4295861487421D-04
   341  3.4000000000000D+00  3.3540960926599D-05 -1.2556639745237D-04
   342  3.4100000000000D+00  2.5140011027177D-05 -9.4166842720064D-05
   343  3.4200000000000D+00  1.5673404454774D-05 -5.8677446869033D-05
   344  3.4300000000000D+00  6.5257315353323D-06 -2.4405543521607D-05
   345  3.4400000000000D+00 -5.8791314510838D-07  2.2123124257504D-06
   346  3.4500000000000D+00 -3.2133163939310D-06  1.2095500603288D-05
   347  3.4600000000000D+00 -3.4516719143373D-06  1.2995128231501D-05
   348  3.4700000000000D+00 -2.0537808889731D-06  7.7330070155439D-06
   349  3.4800000000000D+00  1.1499568220058D-08 -4.3371606678066D-08
   350  3.4900000000000D+00  6.2769713689407D-07 -2.3681966098456D-06
   351  3.5000000000000D+00  8.0750602496560D-07 -3.0474604602325D-06
   352  3.5100000000000D+00  5.7404902247476D-07 -2.1669583880837D-06
   353  3.5200000000000D+00  8.7191554457508D-08 -3.2920965712290D-07
   354  3.5300000000000D+00 -6.4230334340574D-08  2.4037466775657D-07
   355  3.5400000000000D+00 -9.8831079044290D-08  3.6986399079489D-07
   356  3.5500000000000D+00 -8.2068981802851D-08  3.0713376220928D-07
   357  3.5600000000000D+00 -2.6601848029008D-08  9.9554368622433D-08
   358  3.5700000000000D+00  0.0000000000000D+00  0.0000000000000D+00
   359  3.5800000000000D+00  0.0000000000000D+00  0.0000000000000D+00
   360  3.5900000000000D+00  0.0000000000000D+00  0.0000000000000D+00
   361  3.6000000000000D+00  0.0000000000000D+00  0.0000000000000D+00
   362  3.6100000000000D+00  0.0000000000000D+00  0.0000000000000D+00
   363  3.6200000000000D+00  0.0000000000000D+00  0.0000000000000D+00
   364  3.6300000000000D+00  0.0000000000000D+00  0.0000000000000D+00
   365  3.6400000000000D+00  0.0000000000000D+00  0.0000000000000D+00
   366  3.6500000000000D+00  0.0000000000000D+00  0.0000000000000D+00
   367  3.6600000000000D+00  0.0000000000000D+00  0.0000000000000D+00
   368  3.6700000000000D+00  0.0000000000000D+00  0.0000000000000D+00
   369  3.6800000000000D+00  0.0000000000000D+00  0.0000000000000D+00
   370  3.6900000000000D+00  0.0000000000000D+00  0.0000000000000D+00
   371  3.7000000000000D+00  0.0000000000000D+00  0.0000000000000D+00
   372  3.7100000000000D+00  0.0000000000000D+00  0.0000000000000D+00
   373  3.7200000000000D+00  0.0000000000000D+00  0.0000000000000D+00
   374  3.7300000000000D+00  0.0000000000000D+00  0.0000000000000D+00
   375  3.7400000000000D+00  0.0000000000000D+00  0.0000000000000D+00
   376  3.7500000000000D+00  0.0000000000000D+00  0.0000000000000D+00
   377  3.7600000000000D+00  0.0000000000000D+00  0.0000000000000D+00
   378  3.7700000000000D+00  0.0000000000000D+00  0.0000000000000D+00
   379  3.7800000000000D+00  0.0000000000000D+00  0.0000000000000D+00
   380  3.7900000000000D+00  0.0000000000000D+00  0.0000000000000D+00
   381  3.8000000000000D+00  0.0000000000000D+00  0.0000000000000D+00
   382  3.8100000000000D+00  0.0000000000000D+00  0.0000000000000D+00
   383  3.8200000000000D+00  0.0000000000000D+00  0.0000000000000D+00
   384  3.8300000000000D+00  0.0000000000000D+00  0.0000000000000D+00
   385  3.8400000000000D+00  0.0000000000000D+00  0.0000000000000D+00
   386  3.8500000000000D+00  0.0000000000000D+00  0.0000000000000D+00
   387  3.8600000000000D+00  0.0000000000000D+00  0.0000000000000D+00
   388  3.8700000000000D+00  0.0000000000000D+00  0.0000000000000D+00
   389  3.8800000000000D+00  0.0000000000000D+00  0.0000000000000D+00
   390  3.8900000000000D+00  0.0000000000000D+00  0.0000000000000D+00
   391  3.9000000000000D+00  0.0000000000000D+00  0.0000000000000D+00
   392  3.9100000000000D+00  0.0000000000000D+00  0.0000000000000D+00
   393  3.9200000000000D+00  0.0000000000000D+00  0.0000000000000D+00
   394  3.9300000000000D+00  0.0000000000000D+00  0.0000000000000D+00
   395  3.9400000000000D+00  0.0000000000000D+00  0.0000000000000D+00
   396  3.9500000000000D+00  0.0000000000000D+00  0.0000000000000D+00
   397  3.9600000000000D+00  0.0000000000000D+00  0.0000000000000D+00
   398  3.9700000000000D+00  0.0000000000000D+00  0.0000000000000D+00
   399  3.9800000000000D+00  0.0000000000000D+00  0.0000000000000D+00
   400  3.9900000000000D+00  0.0000000000000D+00  0.0000000000000D+00
   401  4.0000000000000D+00  0.0000000000000D+00  0.0000000000000D+00
   402  4.0100000000000D+00  0.0000000000000D+00  0.0000000000000D+00
   403  4.0200000000000D+00  0.0000000000000D+00  0.0000000000000D+00
   404  4.0300000000000D+00  0.0000000000000D+00  0.0000000000000D+00
   405  4.0400000000000D+00  0.0000000000000D+00  0.0000000000000D+00
   406  4.0500000000000D+00  0.0000000000000D+00  0.0000000000000D+00
   407  4.0600000000000D+00  0.0000000000000D+00  0.0000000000000D+00
   408  4.0700000000000D+00  0.0000000000000D+00  0.0000000000000D+00
   409  4.0800000000000D+00  0.0000000000000D+00  0.0000000000000D+00
   410  4.0900000000000D+00  0.0000000000000D+00  0.0000000000000D+00
   411  4.1000000000000D+00  0.0000000000000D+00  0.0000000000000D+00
   412  4.1100000000000D+00  0.0000000000000D+00  0.0000000000000D+00
   413  4.1200000000000D+00  0.0000000000000D+00  0.0000000000000D+00
   414  4.1300000000000D+00  0.0000000000000D+00  0.0000000000000D+00
   415  4.1400000000000D+00  0.0000000000000D+00  0.0000000000000D+00
   416  4.1500000000000D+00  0.0000000000000D+00  0.0000000000000D+00
   417  4.1600000000000D+00  0.0000000000000D+00  0.0000000000000D+00
   418  4.1700000000000D+00  0.0000000000000D+00  0.0000000000000D+00
   419  4.1800000000000D+00  0.0000000000000D+00  0.0000000000000D+00
   420  4.1900000000000D+00  0.0000000000000D+00  0.0000000000000D+00
   421  4.2000000000000D+00  0.0000000000000D+00  0.0000000000000D+00
   422  4.2100000000000D+00  0.0000000000000D+00  0.0000000000000D+00