La    ONCVPSP-3.3.1  r_core=   2.92093   2.92093   2.92093   2.47169
     57.0000     11.0000      210904    zatom,zion,pspd
     8       2   3     4   600     0    pspcod,pspxc,lmax,lloc,mmax,r2well
  5.99000000  0.00000000  0.00000000    rchrg fchrg qchrg
     2     2     2     2     0    nproj
     1     1           extension_switch
   0                         3.8434063254521D+00  5.6949338431805D-01
     1  0.0000000000000D+00  1.4033219031262D-12 -3.5253345381792D-12
     2  1.0000000000000D-02  3.0086051610126D-02 -1.0818582865813D-03
     3  2.0000000000000D-02  6.0157889243477D-02 -2.1699839548009D-03
     4  3.0000000000000D-02  9.0201284212258D-02 -3.2705806410568D-03
     5  4.0000000000000D-02  1.2020197850611D-01 -4.3897247545484D-03
     6  5.0000000000000D-02  1.5014567037919D-01 -5.5333025210009D-03
     7  6.0000000000000D-02  1.8001800023430D-01 -6.7069478127084D-03
     8  7.0000000000000D-02  2.0980453690137D-01 -7.9159810229025D-03
     9  8.0000000000000D-02  2.3949076440647D-01 -9.1653492389287D-03
    10  9.0000000000000D-02  2.6906206932536D-01 -1.0459567964392D-02
    11  1.0000000000000D-01  2.9850372881387D-01 -1.1802664635184D-02
    12  1.1000000000000D-01  3.2780089940493D-01 -1.3198124168287D-02
    13  1.2000000000000D-01  3.5693860665921D-01 -1.4648836775454D-02
    14  1.3000000000000D-01  3.8590173575330D-01 -1.6157048266123D-02
    15  1.4000000000000D-01  4.1467502308633D-01 -1.7724313055642D-02
    16  1.5000000000000D-01  4.4324304898176D-01 -1.9351450085650D-02
    17  1.6000000000000D-01  4.7159023155760D-01 -2.1038501853628D-02
    18  1.7000000000000D-01  4.9970082183390D-01 -2.2784696738111D-02
    19  1.8000000000000D-01  5.2755890014191D-01 -2.4588414794774D-02
    20  1.9000000000000D-01  5.5514837389460D-01 -2.6447157186862D-02
    21  2.0000000000000D-01  5.8245297677339D-01 -2.8357519400988D-02
    22  2.1000000000000D-01  6.0945626938061D-01 -3.0315168386313D-02
    23  2.2000000000000D-01  6.3614164140198D-01 -3.2314823741746D-02
    24  2.3000000000000D-01  6.6249231531774D-01 -3.4350243061758D-02
    25  2.4000000000000D-01  6.8849135169553D-01 -3.6414211537106D-02
    26  2.5000000000000D-01  7.1412165609191D-01 -3.8498535891995D-02
    27  2.6000000000000D-01  7.3936598758384D-01 -4.0594042724029D-02
    28  2.7000000000000D-01  7.6420696894491D-01 -4.2690581298119D-02
    29  2.8000000000000D-01  7.8862709847511D-01 -4.4777030829575D-02
    30  2.9000000000000D-01  8.1260876348672D-01 -4.6841312276163D-02
    31  3.0000000000000D-01  8.3613425544216D-01 -4.8870404642537D-02
    32  3.1000000000000D-01  8.5918578673377D-01 -5.0850365784740D-02
    33  3.2000000000000D-01  8.8174550908861D-01 -5.2766357686086D-02
    34  3.3000000000000D-01  9.0379553357531D-01 -5.4602676159766D-02
    35  3.4000000000000D-01  9.2531795218340D-01 -5.6342784917440D-02
    36  3.5000000000000D-01  9.4629486093925D-01 -5.7969353927069D-02
    37  3.6000000000000D-01  9.6670838451662D-01 -5.9464301967536D-02
    38  3.7000000000000D-01  9.8654070229342D-01 -6.0808843271964D-02
    39  3.8000000000000D-01  1.0057740758004D+00 -6.1983538136323D-02
    40  3.9000000000000D-01  1.0243908775010D+00 -6.2968347354982D-02
    41  4.0000000000000D-01  1.0423736208375D+00 -6.3742690330098D-02
    42  4.1000000000000D-01  1.0597049914694D+00 -6.4285506687629D-02
    43  4.2000000000000D-01  1.0763678796291D+00 -6.4575321218899D-02
    44  4.3000000000000D-01  1.0923454135110D+00 -6.4590311953442D-02
    45  4.4000000000000D-01  1.1076209936068D+00 -6.4308381156030D-02
    46  4.5000000000000D-01  1.1221783278948D+00 -6.3707229028916D-02
    47  4.6000000000000D-01  1.1360014677859D+00 -6.2764429888533D-02
    48  4.7000000000000D-01  1.1490748447257D+00 -6.1457510575389D-02
    49  4.8000000000000D-01  1.1613833073469D+00 -5.9764030845692D-02
    50  4.9000000000000D-01  1.1729121590641D+00 -5.7661665483959D-02
    51  5.0000000000000D-01  1.1836471959977D+00 -5.5128287867443D-02
    52  5.1000000000000D-01  1.1935747451128D+00 -5.2142054705368D-02
    53  5.2000000000000D-01  1.2026817024550D+00 -4.8681491669431D-02
    54  5.3000000000000D-01  1.2109555713620D+00 -4.4725579625789D-02
    55  5.4000000000000D-01  1.2183845005305D+00 -4.0253841174069D-02
    56  5.5000000000000D-01  1.2249573218136D+00 -3.5246427194666D-02
    57  5.6000000000000D-01  1.2306635876244D+00 -2.9684203102596D-02
    58  5.7000000000000D-01  1.2354936078198D+00 -2.3548834504054D-02
    59  5.8000000000000D-01  1.2394384859387D+00 -1.6822871950742D-02
    60  5.9000000000000D-01  1.2424901546694D+00 -9.4898344868435D-03
    61  6.0000000000000D-01  1.2446414104184D+00 -1.5342916845040D-03
    62  6.1000000000000D-01  1.2458859468595D+00  7.0580561343311D-03
    63  6.2000000000000D-01  1.2462183873354D+00  1.6300299789117D-02
    64  6.3000000000000D-01  1.2456343159943D+00  2.6204245540115D-02
    65  6.4000000000000D-01  1.2441303075386D+00  3.6780342086283D-02
    66  6.5000000000000D-01  1.2417039554697D+00  4.8037610546003D-02
    67  6.6000000000000D-01  1.2383538987154D+00  5.9983577697774D-02
    68  6.7000000000000D-01  1.2340798465274D+00  7.2624212750165D-02
    69  6.8000000000000D-01  1.2288826015418D+00  8.5963867901303D-02
    70  6.9000000000000D-01  1.2227640809008D+00  1.0000522293822D-01
    71  7.0000000000000D-01  1.2157273353346D+00  1.1474923411562D-01
    72  7.1000000000000D-01  1.2077765661109D+00  1.3019508754165D-01
    73  7.2000000000000D-01  1.1989171397629D+00  1.4634015728621D-01
    74  7.3000000000000D-01  1.1891556005119D+00  1.6317996841314D-01
    75  7.4000000000000D-01  1.1784996803074D+00  1.8070816512404D-01
    76  7.5000000000000D-01  1.1669583064132D+00  1.9891648418619D-01
    77  7.6000000000000D-01  1.1545416064744D+00  2.1779473380144D-01
    78  7.7000000000000D-01  1.1412609110067D+00  2.3733077805648D-01
    79  7.8000000000000D-01  1.1271287532577D+00  2.5751052707821D-01
    80  7.9000000000000D-01  1.1121588663941D+00  2.7831793300008D-01
    81  8.0000000000000D-01  1.0963661779805D+00  2.9973499182731D-01
    82  8.1000000000000D-01  1.0797668017184D+00  3.2174175127073D-01
    83  8.2000000000000D-01  1.0623780264253D+00  3.4431632459955D-01
    84  8.3000000000000D-01  1.0442183022400D+00  3.6743491054455D-01
    85  8.4000000000000D-01  1.0253072240489D+00  3.9107181926373D-01
    86  8.5000000000000D-01  1.0056655121352D+00  4.1519950436222D-01
    87  8.6000000000000D-01  9.8531499006327D-01  4.3978860093908D-01
    88  8.7000000000000D-01  9.6427855981597D-01  4.6480796961328D-01
    89  8.8000000000000D-01  9.4258017421309D-01  4.9022474646116D-01
    90  8.9000000000000D-01  9.2024480664651D-01  5.1600439877811D-01
    91  9.0000000000000D-01  8.9729841817592D-01  5.4211078655702D-01
    92  9.1000000000000D-01  8.7376792203726D-01  5.6850622955672D-01
    93  9.2000000000000D-01  8.4968114562402D-01  5.9515157981437D-01
    94  9.3000000000000D-01  8.2506679000973D-01  6.2200629943633D-01
    95  9.4000000000000D-01  7.9995438708755D-01  6.4902854348403D-01
    96  9.5000000000000D-01  7.7437425441074D-01  6.7617524775255D-01
    97  9.6000000000000D-01  7.4835744782516D-01  7.0340222122255D-01
    98  9.7000000000000D-01  7.2193571199220D-01  7.3066424294879D-01
    99  9.8000000000000D-01  6.9514142890784D-01  7.5791516313218D-01
   100  9.9000000000000D-01  6.6800756452967D-01  7.8510800810660D-01
   101  1.0000000000000D+00  6.4056761363102D-01  8.1219508895687D-01
   102  1.0100000000000D+00  6.1285554300667D-01  8.3912811347005D-01
   103  1.0200000000000D+00  5.8490573316093D-01  8.6585830110921D-01
   104  1.0300000000000D+00  5.5675291861426D-01  8.9233650068607D-01
   105  1.0400000000000D+00  5.2843212696938D-01  9.1851331039873D-01
   106  1.0500000000000D+00  4.9997861688285D-01  9.4433919988883D-01
   107  1.0600000000000D+00  4.7142781509226D-01  9.6976463396480D-01
   108  1.0700000000000D+00  4.4281525265271D-01  9.9474019762882D-01
   109  1.0800000000000D+00  4.1417650054017D-01  1.0192167220386D+00
   110  1.0900000000000D+00  3.8554710478163D-01  1.0431454110293D+00
   111  1.1000000000000D+00  3.5696252127477D-01  1.0664779678168D+00
   112  1.1100000000000D+00  3.2845805046182D-01  1.0891667214987D+00
   113  1.1200000000000D+00  3.0006877202347D-01  1.1111647529694D+00
   114  1.1300000000000D+00  2.7182947975992D-01  1.1324260198640D+00
   115  1.1400000000000D+00  2.4377461682639D-01  1.1529054801456D+00
   116  1.1500000000000D+00  2.1593821149055D-01  1.1725592139532D+00
   117  1.1600000000000D+00  1.8835381357845D-01  1.1913445433307D+00
   118  1.1700000000000D+00  1.6105443177461D-01  1.2092201494609D+00
   119  1.1800000000000D+00  1.3407247194050D-01  1.2261461870353D+00
   120  1.1900000000000D+00  1.0743967661308D-01  1.2420843953956D+00
   121  1.2000000000000D+00  8.1187065842092D-02  1.2569982060948D+00
   122  1.2100000000000D+00  5.5344879523303D-02  1.2708528465288D+00
   123  1.2200000000000D+00  2.9942521379313D-02  1.2836154393073D+00
   124  1.2300000000000D+00  5.0085047357095D-03  1.2952550970400D+00
   125  1.2400000000000D+00 -1.9429599762856D-02  1.3057430122285D+00
   126  1.2500000000000D+00 -4.3345214358089D-02  1.3150525419664D+00
   127  1.2600000000000D+00 -6.6712802173343D-02  1.3231592871708D+00
   128  1.2700000000000D+00 -8.9507912870704D-02  1.3300411660788D+00
   129  1.2800000000000D+00 -1.1170722584806D-01  1.3356784817588D+00
   130  1.2900000000000D+00 -1.3328859086530D-01  1.3400539834141D+00
   131  1.3000000000000D+00 -1.5423106599068D-01  1.3431529212650D+00
   132  1.3100000000000D+00 -1.7451495276681D-01  1.3449630948129D+00
   133  1.3200000000000D+00 -1.9412182850970D-01  1.3454748943318D+00
   134  1.3300000000000D+00 -2.1303457565244D-01  1.3446813354218D+00
   135  1.3400000000000D+00 -2.3123740805924D-01  1.3425780865024D+00
   136  1.3500000000000D+00 -2.4871589425015D-01  1.3391634891545D+00
   137  1.3600000000000D+00 -2.6545697746778D-01  1.3344385712009D+00
   138  1.3700000000000D+00 -2.8144899254663D-01  1.3284070524889D+00
   139  1.3800000000000D+00 -2.9668167954623D-01  1.3210753433395D+00
   140  1.3900000000000D+00 -3.1114619410757D-01  1.3124525356220D+00
   141  1.4000000000000D+00 -3.2483511452891D-01  1.3025503865085D+00
   142  1.4100000000000D+00 -3.3774244553594D-01  1.2913832949043D+00
   143  1.4200000000000D+00 -3.4986361875019D-01  1.2789682706277D+00
   144  1.4300000000000D+00 -3.6119548987229D-01  1.2653248964390D+00
   145  1.4400000000000D+00 -3.7173633257758D-01  1.2504752829745D+00
   146  1.4500000000000D+00 -3.8148582917748D-01  1.2344440167766D+00
   147  1.4600000000000D+00 -3.9044505806019D-01  1.2172581015139D+00
   148  1.4700000000000D+00 -3.9861647797026D-01  1.1989468925957D+00
   149  1.4800000000000D+00 -4.0600390918242D-01  1.1795420253761D+00
   150  1.4900000000000D+00 -4.1261251161818D-01  1.1590773371258D+00
   151  1.5000000000000D+00 -4.1844876000760D-01  1.1375887830743D+00
   152  1.5100000000000D+00 -4.2352041613842D-01  1.1151143466890D+00
   153  1.5200000000000D+00 -4.2783649832179D-01  1.0916939445527D+00
   154  1.5300000000000D+00 -4.3140724813912D-01  1.0673693260584D+00
   155  1.5400000000000D+00 -4.3424409459634D-01  1.0421839682744D+00
   156  1.5500000000000D+00 -4.3635961578780D-01  1.0161829662826D+00
   157  1.5600000000000D+00 -4.3776749818680D-01  9.8941291932260D-01
   158  1.5700000000000D+00 -4.3848249370016D-01  9.6192181311699D-01
   159  1.5800000000000D+00 -4.3852037459639D-01  9.3375889869928D-01
   160  1.5900000000000D+00 -4.3789788647303D-01  9.0497456817037D-01
   161  1.6000000000000D+00 -4.3663269937037D-01  8.7562022770616D-01
   162  1.6100000000000D+00 -4.3474335721496D-01  8.4574816826939D-01
   163  1.6200000000000D+00 -4.3224922570611D-01  8.1541143436514D-01
   164  1.6300000000000D+00 -4.2917043883312D-01  7.8466369129181D-01
   165  1.6400000000000D+00 -4.2552784415112D-01  7.5355909125831D-01
   166  1.6500000000000D+00 -4.2134294699807D-01  7.2215213879978D-01
   167  1.6600000000000D+00 -4.1663785379634D-01  6.9049755589191D-01
   168  1.6700000000000D+00 -4.1143521461431D-01  6.5865014717247D-01
   169  1.6800000000000D+00 -4.0575816514328D-01  6.2666466569102D-01
   170  1.6900000000000D+00 -3.9963026825721D-01  5.9459567956717D-01
   171  1.7000000000000D+00 -3.9307545531952D-01  5.6249743999391D-01
   172  1.7100000000000D+00 -3.8611796739410D-01  5.3042375092939D-01
   173  1.7200000000000D+00 -3.7878229653292D-01  4.9842784093011D-01
   174  1.7300000000000D+00 -3.7109312728189D-01  4.6656223741508D-01
   175  1.7400000000000D+00 -3.6307527858817D-01  4.3487864384101D-01
   176  1.7500000000000D+00 -3.5475364622612D-01  4.0342781999765D-01
   177  1.7600000000000D+00 -3.4615314594267D-01  3.7225946595151D-01
   178  1.7700000000000D+00 -3.3729865740199D-01  3.4142210972992D-01
   179  1.7800000000000D+00 -3.2821496915859D-01  3.1096299935403D-01
   180  1.7900000000000D+00 -3.1892672468594D-01  2.8092799915215D-01
   181  1.8000000000000D+00 -3.0945836972522D-01  2.5136149106107D-01
   182  1.8100000000000D+00 -2.9983410093185D-01  2.2230628070400D-01
   183  1.8200000000000D+00 -2.9007781609439D-01  1.9380350896753D-01
   184  1.8300000000000D+00 -2.8021306588857D-01  1.6589256883609D-01
   185  1.8400000000000D+00 -2.7026300741054D-01  1.3861102809782D-01
   186  1.8500000000000D+00 -2.6025035947438D-01  1.1199455775943D-01
   187  1.8600000000000D+00 -2.5019735984670D-01  8.6076866562594D-02
   188  1.8700000000000D+00 -2.4012572446606D-01  6.0889641629644D-02
   189  1.8800000000000D+00 -2.3005660870409D-01  3.6462495290250D-02
   190  1.8900000000000D+00 -2.2001057082250D-01  1.2822918423096D-02
   191  1.9000000000000D+00 -2.1000753752444D-01 -1.0003760083477D-02
   192  1.9100000000000D+00 -2.0006677188485D-01 -3.1994407058323D-02
   193  1.9200000000000D+00 -1.9020684341648D-01 -5.3128112741970D-02
   194  1.9300000000000D+00 -1.8044560060590D-01 -7.3386211633117D-02
   195  1.9400000000000D+00 -1.7080014567786D-01 -9.2752297246822D-02
   196  1.9500000000000D+00 -1.6128681179207D-01 -1.1121223033776D-01
   197  1.9600000000000D+00 -1.5192114260222D-01 -1.2875414087538D-01
   198  1.9700000000000D+00 -1.4271787412731D-01 -1.4536842400699D-01
   199  1.9800000000000D+00 -1.3369091910647D-01 -1.6104772966184D-01
   200  1.9900000000000D+00 -1.2485335352078D-01 -1.7578694671663D-01
   201  2.0000000000000D+00 -1.1621740562123D-01 -1.8958318095965D-01
   202  2.0100000000000D+00 -1.0779444708471D-01 -2.0243572791176D-01
   203  2.0200000000000D+00 -9.9594986489326D-02 -2.1434604013358D-01
   204  2.0300000000000D+00 -9.1628664985651D-02 -2.2531768942784D-01
   205  2.0400000000000D+00 -8.3904254010335D-02 -2.3535632441709D-01
   206  2.0500000000000D+00 -7.6429655215141D-02 -2.4446962319969D-01
   207  2.0600000000000D+00 -6.9211902229763D-02 -2.5266724208271D-01
   208  2.0700000000000D+00 -6.2257164473464D-02 -2.5996076002699D-01
   209  2.0800000000000D+00 -5.5570752742249D-02 -2.6636361952874D-01
   210  2.0900000000000D+00 -4.9157126517311D-02 -2.7189106418392D-01
   211  2.1000000000000D+00 -4.3019903017498D-02 -2.7656007303010D-01
   212  2.1100000000000D+00 -3.7161867679764D-02 -2.8038929242238D-01
   213  2.1200000000000D+00 -3.1584986198098D-02 -2.8339896537368D-01
   214  2.1300000000000D+00 -2.6290417846506D-02 -2.8561085899253D-01
   215  2.1400000000000D+00 -2.1278530022646D-02 -2.8704819030500D-01
   216  2.1500000000000D+00 -1.6548913960006D-02 -2.8773555076226D-01
   217  2.1600000000000D+00 -1.2100401377288D-02 -2.8769882987993D-01
   218  2.1700000000000D+00 -7.9310820506483D-03 -2.8696513837386D-01
   219  2.1800000000000D+00 -4.0383221328832D-03 -2.8556273111877D-01
   220  2.1900000000000D+00 -4.1878310766662D-04 -2.8352093027317D-01
   221  2.2000000000000D+00  2.9315587390246D-03 -2.8087004913374D-01
   222  2.2100000000000D+00  6.0173924328590D-03 -2.7764131670399D-01
   223  2.2200000000000D+00  8.8440521722283D-03 -2.7386680371985D-01
   224  2.2300000000000D+00  1.1417499127232D-02 -2.6957935644553D-01
   225  2.2400000000000D+00  1.3744292478504D-02 -2.6481250097729D-01
   226  2.2500000000000D+00  1.5831586425652D-02 -2.5960042528360D-01
   227  2.2600000000000D+00  1.7687095039973D-02 -2.5397787036774D-01
   228  2.2700000000000D+00  1.9319050748957D-02 -2.4798000520928D-01
   229  2.2800000000000D+00  2.0736212463335D-02 -2.4164244326269D-01
   230  2.2900000000000D+00  2.1947933688050D-02 -2.3500144484263D-01
   231  2.3000000000000D+00  2.2964048803583D-02 -2.2809358402084D-01
   232  2.3100000000000D+00  2.3794722028984D-02 -2.2095531442200D-01
   233  2.3200000000000D+00  2.4450351351615D-02 -2.1362267914790D-01
   234  2.3300000000000D+00  2.4941451655803D-02 -2.0613100457111D-01
   235  2.3400000000000D+00  2.5278550414166D-02 -1.9851461757653D-01
   236  2.3500000000000D+00  2.5471957155587D-02 -1.9080620074094D-01
   237  2.3600000000000D+00  2.5531873187993D-02 -1.8303714305479D-01
   238  2.3700000000000D+00  2.5468345677957D-02 -1.7523744224164D-01
   239  2.3800000000000D+00  2.5291274263901D-02 -1.6743576239163D-01
   240  2.3900000000000D+00  2.5010336791807D-02 -1.5965924689083D-01
   241  2.4000000000000D+00  2.4634985065334D-02 -1.5193354406577D-01
   242  2.4100000000000D+00  2.4174423359354D-02 -1.4428278144828D-01
   243  2.4200000000000D+00  2.3637584149335D-02 -1.3672953239913D-01
   244  2.4300000000000D+00  2.3033110628202D-02 -1.2929480347643D-01
   245  2.4400000000000D+00  2.2369339953371D-02 -1.2199802445923D-01
   246  2.4500000000000D+00  2.1654288326949D-02 -1.1485704423077D-01
   247  2.4600000000000D+00  2.0895637492754D-02 -1.0788813122992D-01
   248  2.4700000000000D+00  2.0100723444776D-02 -1.0110598071684D-01
   249  2.4800000000000D+00  1.9276526844074D-02 -9.4523727307783D-02
   250  2.4900000000000D+00  1.8429664830953D-02 -8.8152961812312D-02
   251  2.5000000000000D+00  1.7566385045608D-02 -8.2003754624808D-02
   252  2.5100000000000D+00  1.6692561204958D-02 -7.6084683724467D-02
   253  2.5200000000000D+00  1.5813690009434D-02 -7.0402866586282D-02
   254  2.5300000000000D+00  1.4934890144809D-02 -6.4963998060625D-02
   255  2.5400000000000D+00  1.4060902674024D-02 -5.9772392169067D-02
   256  2.5500000000000D+00  1.3196092652896D-02 -5.4831027305944D-02
   257  2.5600000000000D+00  1.2344452622593D-02 -5.0141596521554D-02
   258  2.5700000000000D+00  1.1509607319984D-02 -4.5704561018805D-02
   259  2.5800000000000D+00  1.0694819470428D-02 -4.1519206454777D-02
   260  2.5900000000000D+00  9.9029971491212D-03 -3.7583703189175D-02
   261  2.6000000000000D+00  9.1367021829180D-03 -3.3895169030490D-02
   262  2.6100000000000D+00  8.3981594644982D-03 -3.0449734112406D-02
   263  2.6200000000000D+00  7.6892674635586D-03 -2.7242608424107D-02
   264  2.6300000000000D+00  7.0116095869667D-03 -2.4268151077599D-02
   265  2.6400000000000D+00  6.3664662589943D-03 -2.1519940977131D-02
   266  2.6500000000000D+00  5.7548278047720D-03 -1.8990848824909D-02
   267  2.6600000000000D+00  5.1774079567536D-03 -1.6673109991082D-02
   268  2.6700000000000D+00  4.6346578718980D-03 -1.4558398019264D-02
   269  2.6800000000000D+00  4.1267805922234D-03 -1.2637898305758D-02
   270  2.6900000000000D+00  3.6537458364735D-03 -1.0902381557592D-02
   271  2.7000000000000D+00  3.2153050782573D-03 -9.3422770870652D-03
   272  2.7100000000000D+00  2.8110068103366D-03 -7.9477454879445D-03
   273  2.7200000000000D+00  2.4402117440380D-03 -6.7087496733873D-03
   274  2.7300000000000D+00  2.1021080561978D-03 -5.6151249182684D-03
   275  2.7400000000000D+00  1.7957267384273D-03 -4.6566480795362D-03
   276  2.7500000000000D+00  1.5199563254982D-03 -3.8231032501212D-03
   277  2.7600000000000D+00  1.2735575347667D-03 -3.1043459751158D-03
   278  2.7700000000000D+00  1.0551778589630D-03 -2.4903661313208D-03
   279  2.7800000000000D+00  8.6336518870002D-04 -1.9713461528245D-03
   280  2.7900000000000D+00  6.9658108397266D-04 -1.5377168882918D-03
   281  2.8000000000000D+00  5.5321376027081D-04 -1.1802113114436D-03
   282  2.8100000000000D+00  4.3159018006800D-04 -8.8991395968941D-04
   283  2.8200000000000D+00  3.2998888944975D-04 -6.5831839089273D-04
   284  2.8300000000000D+00  2.4665190994604D-04 -4.7737847217149D-04
   285  2.8400000000000D+00  1.7977443757042D-04 -3.3939598542797D-04
   286  2.8500000000000D+00  1.2754164331353D-04 -2.3726303643479D-04
   287  2.8600000000000D+00  8.7961440884133D-05 -1.6401469605132D-04
   288  2.8700000000000D+00  5.9449105951365D-05 -1.1434734036360D-04
   289  2.8800000000000D+00  4.0329104205538D-05 -8.3323936590482D-05
   290  2.8900000000000D+00  2.9110220174427D-05 -6.6939539988364D-05
   291  2.9000000000000D+00  2.3817689464287D-05 -6.0575398006543D-05
   292  2.9100000000000D+00  2.1267170846395D-05 -5.7294083121810D-05
   293  2.9200000000000D+00  1.9161602634274D-05 -5.2457162334085D-05
   294  2.9300000000000D+00  1.4467817001386D-05 -3.9841181342580D-05
   295  2.9400000000000D+00  8.6563120005786D-06 -2.3814551314910D-05
   296  2.9500000000000D+00  2.9005853288304D-06 -7.9446366817770D-06
   297  2.9600000000000D+00 -9.3201900781660D-07  2.6265157496431D-06
   298  2.9700000000000D+00 -1.9285961583762D-06  5.4439574031196D-06
   299  2.9800000000000D+00 -1.4378744848056D-06  4.0624636531352D-06
   300  2.9900000000000D+00 -1.9445111574733D-07  5.4963025422136D-07
   301  3.0000000000000D+00  3.1752516698519D-07 -9.0532743546799D-07
   302  3.0100000000000D+00  4.0776161842946D-07 -1.1646123873049D-06
   303  3.0200000000000D+00  2.2576497338745D-07 -6.4576619391913D-07
   304  3.0300000000000D+00 -1.4273627907976D-08  3.9077115173160D-08
   305  3.0400000000000D+00 -4.9676653679342D-08  1.3600048493348D-07
   306  3.0500000000000D+00 -4.8113089663622D-08  1.3171989337562D-07
   307  3.0600000000000D+00 -1.5799095004924D-08  4.3253408251879D-08
   308  3.0700000000000D+00  0.0000000000000D+00  0.0000000000000D+00
   309  3.0800000000000D+00  0.0000000000000D+00  0.0000000000000D+00
   310  3.0900000000000D+00  0.0000000000000D+00  0.0000000000000D+00
   311  3.1000000000000D+00  0.0000000000000D+00  0.0000000000000D+00
   312  3.1100000000000D+00  0.0000000000000D+00  0.0000000000000D+00
   313  3.1200000000000D+00  0.0000000000000D+00  0.0000000000000D+00
   314  3.1300000000000D+00  0.0000000000000D+00  0.0000000000000D+00
   315  3.1400000000000D+00  0.0000000000000D+00  0.0000000000000D+00
   316  3.1500000000000D+00  0.0000000000000D+00  0.0000000000000D+00
   317  3.1600000000000D+00  0.0000000000000D+00  0.0000000000000D+00
   318  3.1700000000000D+00  0.0000000000000D+00  0.0000000000000D+00
   319  3.1800000000000D+00  0.0000000000000D+00  0.0000000000000D+00
   320  3.1900000000000D+00  0.0000000000000D+00  0.0000000000000D+00
   321  3.2000000000000D+00  0.0000000000000D+00  0.0000000000000D+00
   322  3.2100000000000D+00  0.0000000000000D+00  0.0000000000000D+00
   323  3.2200000000000D+00  0.0000000000000D+00  0.0000000000000D+00
   324  3.2300000000000D+00  0.0000000000000D+00  0.0000000000000D+00
   325  3.2400000000000D+00  0.0000000000000D+00  0.0000000000000D+00
   326  3.2500000000000D+00  0.0000000000000D+00  0.0000000000000D+00
   327  3.2600000000000D+00  0.0000000000000D+00  0.0000000000000D+00
   328  3.2700000000000D+00  0.0000000000000D+00  0.0000000000000D+00
   329  3.2800000000000D+00  0.0000000000000D+00  0.0000000000000D+00
   330  3.2900000000000D+00  0.0000000000000D+00  0.0000000000000D+00
   331  3.3000000000000D+00  0.0000000000000D+00  0.0000000000000D+00
   332  3.3100000000000D+00  0.0000000000000D+00  0.0000000000000D+00
   333  3.3200000000000D+00  0.0000000000000D+00  0.0000000000000D+00
   334  3.3300000000000D+00  0.0000000000000D+00  0.0000000000000D+00
   335  3.3400000000000D+00  0.0000000000000D+00  0.0000000000000D+00
   336  3.3500000000000D+00  0.0000000000000D+00  0.0000000000000D+00
   337  3.3600000000000D+00  0.0000000000000D+00  0.0000000000000D+00
   338  3.3700000000000D+00  0.0000000000000D+00  0.0000000000000D+00
   339  3.3800000000000D+00  0.0000000000000D+00  0.0000000000000D+00
   340  3.3900000000000D+00  0.0000000000000D+00  0.0000000000000D+00
   341  3.4000000000000D+00  0.0000000000000D+00  0.0000000000000D+00
   342  3.4100000000000D+00  0.0000000000000D+00  0.0000000000000D+00
   343  3.4200000000000D+00  0.0000000000000D+00  0.0000000000000D+00
   344  3.4300000000000D+00  0.0000000000000D+00  0.0000000000000D+00
   345  3.4400000000000D+00  0.0000000000000D+00  0.0000000000000D+00
   346  3.4500000000000D+00  0.0000000000000D+00  0.0000000000000D+00
   347  3.4600000000000D+00  0.0000000000000D+00  0.0000000000000D+00
   348  3.4700000000000D+00  0.0000000000000D+00  0.0000000000000D+00
   349  3.4800000000000D+00  0.0000000000000D+00  0.0000000000000D+00
   350  3.4900000000000D+00  0.0000000000000D+00  0.0000000000000D+00
   351  3.5000000000000D+00  0.0000000000000D+00  0.0000000000000D+00
   352  3.5100000000000D+00  0.0000000000000D+00  0.0000000000000D+00
   353  3.5200000000000D+00  0.0000000000000D+00  0.0000000000000D+00
   354  3.5300000000000D+00  0.0000000000000D+00  0.0000000000000D+00
   355  3.5400000000000D+00  0.0000000000000D+00  0.0000000000000D+00
   356  3.5500000000000D+00  0.0000000000000D+00  0.0000000000000D+00
   357  3.5600000000000D+00  0.0000000000000D+00  0.0000000000000D+00
   358  3.5700000000000D+00  0.0000000000000D+00  0.0000000000000D+00
   359  3.5800000000000D+00  0.0000000000000D+00  0.0000000000000D+00
   360  3.5900000000000D+00  0.0000000000000D+00  0.0000000000000D+00
   361  3.6000000000000D+00  0.0000000000000D+00  0.0000000000000D+00
   362  3.6100000000000D+00  0.0000000000000D+00  0.0000000000000D+00
   363  3.6200000000000D+00  0.0000000000000D+00  0.0000000000000D+00
   364  3.6300000000000D+00  0.0000000000000D+00  0.0000000000000D+00
   365  3.6400000000000D+00  0.0000000000000D+00  0.0000000000000D+00
   366  3.6500000000000D+00  0.0000000000000D+00  0.0000000000000D+00
   367  3.6600000000000D+00  0.0000000000000D+00  0.0000000000000D+00
   368  3.6700000000000D+00  0.0000000000000D+00  0.0000000000000D+00
   369  3.6800000000000D+00  0.0000000000000D+00  0.0000000000000D+00
   370  3.6900000000000D+00  0.0000000000000D+00  0.0000000000000D+00
   371  3.7000000000000D+00  0.0000000000000D+00  0.0000000000000D+00
   372  3.7100000000000D+00  0.0000000000000D+00  0.0000000000000D+00
   373  3.7200000000000D+00  0.0000000000000D+00  0.0000000000000D+00
   374  3.7300000000000D+00  0.0000000000000D+00  0.0000000000000D+00
   375  3.7400000000000D+00  0.0000000000000D+00  0.0000000000000D+00
   376  3.7500000000000D+00  0.0000000000000D+00  0.0000000000000D+00
   377  3.7600000000000D+00  0.0000000000000D+00  0.0000000000000D+00
   378  3.7700000000000D+00  0.0000000000000D+00  0.0000000000000D+00
   379  3.7800000000000D+00  0.0000000000000D+00  0.0000000000000D+00
   380  3.7900000000000D+00  0.0000000000000D+00  0.0000000000000D+00
   381  3.8000000000000D+00  0.0000000000000D+00  0.0000000000000D+00
   382  3.8100000000000D+00  0.0000000000000D+00  0.0000000000000D+00
   383  3.8200000000000D+00  0.0000000000000D+00  0.0000000000000D+00
   384  3.8300000000000D+00  0.0000000000000D+00  0.0000000000000D+00
   385  3.8400000000000D+00  0.0000000000000D+00  0.0000000000000D+00
   386  3.8500000000000D+00  0.0000000000000D+00  0.0000000000000D+00
   387  3.8600000000000D+00  0.0000000000000D+00  0.0000000000000D+00
   388  3.8700000000000D+00  0.0000000000000D+00  0.0000000000000D+00
   389  3.8800000000000D+00  0.0000000000000D+00  0.0000000000000D+00
   390  3.8900000000000D+00  0.0000000000000D+00  0.0000000000000D+00
   391  3.9000000000000D+00  0.0000000000000D+00  0.0000000000000D+00
   392  3.9100000000000D+00  0.0000000000000D+00  0.0000000000000D+00
   393  3.9200000000000D+00  0.0000000000000D+00  0.0000000000000D+00
   394  3.9300000000000D+00  0.0000000000000D+00  0.0000000000000D+00
   395  3.9400000000000D+00  0.0000000000000D+00  0.0000000000000D+00
   396  3.9500000000000D+00  0.0000000000000D+00  0.0000000000000D+00
   397  3.9600000000000D+00  0.0000000000000D+00  0.0000000000000D+00
   398  3.9700000000000D+00  0.0000000000000D+00  0.0000000000000D+00
   399  3.9800000000000D+00  0.0000000000000D+00  0.0000000000000D+00
   400  3.9900000000000D+00  0.0000000000000D+00  0.0000000000000D+00
   401  4.0000000000000D+00  0.0000000000000D+00  0.0000000000000D+00
   402  4.0100000000000D+00  0.0000000000000D+00  0.0000000000000D+00
   403  4.0200000000000D+00  0.0000000000000D+00  0.0000000000000D+00
   404  4.0300000000000D+00  0.0000000000000D+00  0.0000000000000D+00
   405  4.0400000000000D+00  0.0000000000000D+00  0.0000000000000D+00
   406  4.0500000000000D+00  0.0000000000000D+00  0.0000000000000D+00
   407  4.0600000000000D+00  0.0000000000000D+00  0.0000000000000D+00
   408  4.0700000000000D+00  0.0000000000000D+00  0.0000000000000D+00
   409  4.0800000000000D+00  0.0000000000000D+00  0.0000000000000D+00
   410  4.0900000000000D+00  0.0000000000000D+00  0.0000000000000D+00
   411  4.1000000000000D+00  0.0000000000000D+00  0.0000000000000D+00
   412  4.1100000000000D+00  0.0000000000000D+00  0.0000000000000D+00
   413  4.1200000000000D+00  0.0000000000000D+00  0.0000000000000D+00
   414  4.1300000000000D+00  0.0000000000000D+00  0.0000000000000D+00
   415  4.1400000000000D+00  0.0000000000000D+00  0.0000000000000D+00
   416  4.1500000000000D+00  0.0000000000000D+00  0.0000000000000D+00
   417  4.1600000000000D+00  0.0000000000000D+00  0.0000000000000D+00
   418  4.1700000000000D+00  0.0000000000000D+00  0.0000000000000D+00
   419  4.1800000000000D+00  0.0000000000000D+00  0.0000000000000D+00
   420  4.1900000000000D+00  0.0000000000000D+00  0.0000000000000D+00
   421  4.2000000000000D+00  0.0000000000000D+00  0.0000000000000D+00
   422  4.2100000000000D+00  0.0000000000000D+00  0.0000000000000D+00