Li    ONCVPSP-3.3.1  r_core=   1.76647   1.40824
      3.0000      3.0000      210904    zatom,zion,pspd
     8       2   1     4   600     0    pspcod,pspxc,lmax,lloc,mmax,r2well
  5.99000000  0.00000000  0.00000000    rchrg fchrg qchrg
     2     2     0     0     0    nproj
     1     1           extension_switch
   0                        -3.4790616208103D+00 -1.3469575069970D+00
     1  0.0000000000000D+00  1.6428325366746D-10 -3.2903077484825D-10
     2  1.0000000000000D-02  6.9411619494707D-02 -1.5686921517746D-02
     3  2.0000000000000D-02  1.3871019746120D-01 -3.1318294980442D-02
     4  3.0000000000000D-02  2.0778261198206D-01 -4.6838165582026D-02
     5  4.0000000000000D-02  2.7651558407926D-01 -6.2189772649553D-02
     6  5.0000000000000D-02  3.4479560843626D-01 -7.7315165713397D-02
     7  6.0000000000000D-02  4.1250889510571D-01 -9.2154843146824D-02
     8  7.0000000000000D-02  4.7954132567022D-01 -1.0664742050873D-01
     9  8.0000000000000D-02  5.4577842715955D-01 -1.2072933539432D-01
    10  9.0000000000000D-02  6.1110536682477D-01 -1.3433459519292D-01
    11  1.0000000000000D-01  6.7540697063145D-01 -1.4739457367392D-01
    12  1.1000000000000D-01  7.3856776806076D-01 -1.5983786177543D-01
    13  1.2000000000000D-01  8.0047206550277D-01 -1.7159017736066D-01
    14  1.3000000000000D-01  8.6100405019302D-01 -1.8257433804006D-01
    15  1.4000000000000D-01  9.2004792628442D-01 -1.9271030043963D-01
    16  1.5000000000000D-01  9.7748808426528D-01 -2.0191526853337D-01
    17  1.6000000000000D-01  1.0332093045343D+00 -2.1010387285890D-01
    18  1.7000000000000D-01  1.0870969955289D+00 -2.1718842160730D-01
    19  1.8000000000000D-01  1.1390374663767D+00 -2.2307922372816D-01
    20  1.9000000000000D-01  1.1889182336088D+00 -2.2768498332899D-01
    21  2.0000000000000D-01  1.2366283610370D+00 -2.3091326378102D-01
    22  2.1000000000000D-01  1.2820588314647D+00 -2.3267101908058D-01
    23  2.2000000000000D-01  1.3251029484726D+00 -2.3286518916572D-01
    24  2.3000000000000D-01  1.3656567661033D+00 -2.3140335505906D-01
    25  2.4000000000000D-01  1.4036195438665D+00 -2.2819444890921D-01
    26  2.5000000000000D-01  1.4388942241005D+00 -2.2314951324320D-01
    27  2.6000000000000D-01  1.4713879283652D+00 -2.1618250302814D-01
    28  2.7000000000000D-01  1.5010124692043D+00 -2.0721112348061D-01
    29  2.8000000000000D-01  1.5276848733096D+00 -1.9615769596348D-01
    30  2.9000000000000D-01  1.5513279118492D+00 -1.8295004377994D-01
    31  3.0000000000000D-01  1.5718706334817D+00 -1.6752238921790D-01
    32  3.1000000000000D-01  1.5892488953860D+00 -1.4981625282232D-01
    33  3.2000000000000D-01  1.6034058874779D+00 -1.2978134558186D-01
    34  3.3000000000000D-01  1.6142926448775D+00 -1.0737644451401D-01
    35  3.4000000000000D-01  1.6218685436208D+00 -8.2570242023841D-02
    36  3.5000000000000D-01  1.6261017745968D+00 -5.5342159396439D-02
    37  3.6000000000000D-01  1.6269697907157D+00 -2.5683114865817D-02
    38  3.7000000000000D-01  1.6244597223958D+00  6.4037631177292D-03
    39  3.8000000000000D-01  1.6185687565790D+00  4.0902486522772D-02
    40  3.9000000000000D-01  1.6093044746646D+00  7.7783631002657D-02
    41  4.0000000000000D-01  1.5966851449672D+00  1.1700384005369D-01
    42  4.1000000000000D-01  1.5807399655758D+00  1.5850541776918D-01
    43  4.2000000000000D-01  1.5615092538002D+00  2.0221601724864D-01
    44  4.3000000000000D-01  1.5390445787447D+00  2.4804843099479D-01
    45  4.4000000000000D-01  1.5134088339420D+00  2.9590048882843D-01
    46  4.5000000000000D-01  1.4846762474054D+00  3.4565506797887D-01
    47  4.6000000000000D-01  1.4529323269212D+00  3.9718021907378D-01
    48  4.7000000000000D-01  1.4182737388903D+00  4.5032941076398D-01
    49  4.8000000000000D-01  1.3808081195415D+00  5.0494189468601D-01
    50  4.9000000000000D-01  1.3406538178738D+00  5.6084319139635D-01
    51  5.0000000000000D-01  1.2979395702334D+00  6.1784569681786D-01
    52  5.1000000000000D-01  1.2528041069890D+00  6.7574940762910D-01
    53  5.2000000000000D-01  1.2053956923358D+00  7.3434276291420D-01
    54  5.3000000000000D-01  1.1558715988216D+00  7.9340359828349D-01
    55  5.4000000000000D-01  1.1043975187478D+00  8.5270020758633D-01
    56  5.5000000000000D-01  1.0511469151478D+00  9.1199250627568D-01
    57  5.6000000000000D-01  9.9630031557606D-01  9.7103328946450D-01
    58  5.7000000000000D-01  9.4004455245482D-01  1.0295695767416D+00
    59  5.8000000000000D-01  8.8257195420986D-01  1.0873440349064D+00
    60  5.9000000000000D-01  8.2407949188075D-01  1.1440964689410D+00
    61  6.0000000000000D-01  7.6476788630990D-01  1.1995653707819D+00
    62  6.1000000000000D-01  7.0484068139341D-01  1.2534895147802D+00
    63  6.2000000000000D-01  6.4450328920960D-01  1.3056095881703D+00
    64  6.3000000000000D-01  5.8396201312876D-01  1.3556698443946D+00
    65  6.4000000000000D-01  5.2342305524142D-01  1.4034197667758D+00
    66  6.5000000000000D-01  4.6309151462407D-01  1.4486157297857D+00
    67  6.6000000000000D-01  4.0317038308597D-01  1.4910226450333D+00
    68  6.7000000000000D-01  3.4385954510711D-01  1.5304155790984D+00
    69  6.8000000000000D-01  2.8535478868507D-01  1.5665813304568D+00
    70  6.9000000000000D-01  2.2784683375565D-01  1.5993199529947D+00
    71  7.0000000000000D-01  1.7152038473922D-01  1.6284462139798D+00
    72  7.1000000000000D-01  1.1655321359342D-01  1.6537909748519D+00
    73  7.2000000000000D-01  6.3115279520595D-02  1.6752024838096D+00
    74  7.3000000000000D-01  1.1367891191637D-02  1.6925475698943D+00
    75  7.4000000000000D-01 -3.8537082994753D-02  1.7057127291106D+00
    76  7.5000000000000D-01 -8.6457951492919D-02  1.7146050940578D+00
    77  7.6000000000000D-01 -1.3226387834895D-01  1.7191532795744D+00
    78  7.7000000000000D-01 -1.7583549990229D-01  1.7193080980139D+00
    79  7.8000000000000D-01 -2.1706547578418D-01  1.7150431389568D+00
    80  7.9000000000000D-01 -2.5585897110944D-01  1.7063552094128D+00
    81  8.0000000000000D-01 -2.9213406735240D-01  1.6932646318696D+00
    82  8.1000000000000D-01 -3.2582210001713D-01  1.6758153988830D+00
    83  8.2000000000000D-01 -3.5686792185066D-01  1.6540751842696D+00
    84  8.3000000000000D-01 -3.8523009099963D-01  1.6281352123403D+00
    85  8.4000000000000D-01 -4.1088098417038D-01  1.5981099879890D+00
    86  8.5000000000000D-01 -4.3380683551248D-01  1.5641368918134D+00
    87  8.6000000000000D-01 -4.5400770260088D-01  1.5263756457739D+00
    88  8.7000000000000D-01 -4.7149736153536D-01  1.4850076561919D+00
    89  8.8000000000000D-01 -4.8630313398557D-01  1.4402352429962D+00
    90  8.9000000000000D-01 -4.9846564944805D-01  1.3922807639485D+00
    91  9.0000000000000D-01 -5.0803853597689D-01  1.3413855974642D+00
    92  9.1000000000000D-01 -5.1508810471315D-01  1.2878092775249D+00
    93  9.2000000000000D-01 -5.1969259595745D-01  1.2318267222232D+00
    94  9.3000000000000D-01 -5.2194081832852D-01  1.1737231508986D+00
    95  9.4000000000000D-01 -5.2193088772494D-01  1.1137902651356D+00
    96  9.5000000000000D-01 -5.1976935414587D-01  1.0523246177439D+00
    97  9.6000000000000D-01 -5.1557026094973D-01  9.8962574133874D-01
    98  9.7000000000000D-01 -5.0945419225950D-01  9.2599431587375D-01
    99  9.8000000000000D-01 -5.0154730662822D-01  8.6173034009415D-01
   100  9.9000000000000D-01 -4.9198036357311D-01  7.9713132082103D-01
   101  1.0000000000000D+00 -4.8088774977891D-01  7.3249049432731D-01
   102  1.0100000000000D+00 -4.6840651154100D-01  6.6809509302336D-01
   103  1.0200000000000D+00 -4.5467539988371D-01  6.0422467026871D-01
   104  1.0300000000000D+00 -4.3983393460333D-01  5.4114949561363D-01
   105  1.0400000000000D+00 -4.2402149324844D-01  4.7912903214573D-01
   106  1.0500000000000D+00 -4.0737643079180D-01  4.1841050695081D-01
   107  1.0600000000000D+00 -3.9003523540143D-01  3.5922758482241D-01
   108  1.0700000000000D+00 -3.7213172537947D-01  3.0179915451411D-01
   109  1.0800000000000D+00 -3.5379629193500D-01  2.4632823584291D-01
   110  1.0900000000000D+00 -3.3515519200819D-01  1.9300101486712D-01
   111  1.1000000000000D+00 -3.1632989497097D-01  1.4198601341908D-01
   112  1.1100000000000D+00 -2.9743648645745D-01  9.3433397915132D-02
   113  1.1200000000000D+00 -2.7858513214619D-01  4.7474431350006D-02
   114  1.1300000000000D+00 -2.5987960372753D-01  4.2210710079454D-03
   115  1.1400000000000D+00 -2.4141686886980D-01 -3.6234286552342D-02
   116  1.1500000000000D+00 -2.2328674633941D-01 -7.3818913198951D-02
   117  1.1600000000000D+00 -2.0557162696383D-01 -1.0847971063601D-01
   118  1.1700000000000D+00 -1.8834626050785D-01 -1.4018302793863D-01
   119  1.1800000000000D+00 -1.7167760818862D-01 -1.6891433841131D-01
   120  1.1900000000000D+00 -1.5562475979713D-01 -1.9467778065256D-01
   121  1.2000000000000D+00 -1.4023891402422D-01 -2.1749556951082D-01
   122  1.2100000000000D+00 -1.2556342010248D-01 -2.3740728367283D-01
   123  1.2200000000000D+00 -1.1163387843674D-01 -2.5446903757638D-01
   124  1.2300000000000D+00 -9.8478297352724D-02 -2.6875254647418D-01
   125  1.2400000000000D+00 -8.6117302766544D-02 -2.8034409412677D-01
   126  1.2500000000000D+00 -7.4564397339215D-02 -2.8934341311355D-01
   127  1.2600000000000D+00 -6.3826265085183D-02 -2.9586248890846D-01
   128  1.2700000000000D+00 -5.3903117286552D-02 -3.0002429901810D-01
   129  1.2800000000000D+00 -4.4789075404150D-02 -3.0196149883625D-01
   130  1.2900000000000D+00 -3.6472586220780D-02 -3.0181506659883D-01
   131  1.3000000000000D+00 -2.8936864505911D-02 -2.9973291957809D-01
   132  1.3100000000000D+00 -2.2160358339957D-02 -2.9586851402265D-01
   133  1.3200000000000D+00 -1.6117232064135D-02 -2.9037944128686D-01
   134  1.3300000000000D+00 -1.0777861985895D-02 -2.8342603217907D-01
   135  1.3400000000000D+00 -6.1093397826644D-03 -2.7516998195090D-01
   136  1.3500000000000D+00 -2.0759788227832D-03 -2.6577300716933D-01
   137  1.3600000000000D+00  1.3601813527432D-03 -2.5539554577669D-01
   138  1.3700000000000D+00  4.2388771435880D-03 -2.4419551139938D-01
   139  1.3800000000000D+00  6.6011336769000D-03 -2.3232711090517D-01
   140  1.3900000000000D+00  8.4887928107430D-03 -2.1993973561874D-01
   141  1.4000000000000D+00  9.9440600260012D-03 -2.0717693388399D-01
   142  1.4100000000000D+00  1.1009073658998D-02 -1.9417547215823D-01
   143  1.4200000000000D+00  1.1725500293391D-02 -1.8106449274063D-01
   144  1.4300000000000D+00  1.2134158389798D-02 -1.6796477137556D-01
   145  1.4400000000000D+00  1.2274673509612D-02 -1.5498808154644D-01
   146  1.4500000000000D+00  1.2185166759917D-02 -1.4223666743216D-01
   147  1.4600000000000D+00  1.1901978140071D-02 -1.2980282776031D-01
   148  1.4700000000000D+00  1.1459426820136D-02 -1.1776861360962D-01
   149  1.4800000000000D+00  1.0889607938337D-02 -1.0620563679904D-01
   150  1.4900000000000D+00  1.0222228054232D-02 -9.5174992181410D-02
   151  1.5000000000000D+00  9.4844777078730D-03 -8.4727287504192D-02
   152  1.5100000000000D+00  8.7009419281242D-03 -7.4902780775136D-02
   153  1.5200000000000D+00  7.8935473689653D-03 -6.5731619399443D-02
   154  1.5300000000000D+00  7.0815448902224D-03 -5.7234175850156D-02
   155  1.5400000000000D+00  6.2815267647918D-03 -4.9421475390614D-02
   156  1.5500000000000D+00  5.5074755062174D-03 -4.2295706115220D-02
   157  1.5600000000000D+00  4.7708437560193D-03 -3.5850807385740D-02
   158  1.5700000000000D+00  4.0806610704800D-03 -3.0073124239356D-02
   159  1.5800000000000D+00  3.4436666548710D-03 -2.4942122797957D-02
   160  1.5900000000000D+00  2.8644636738856D-03 -2.0431153917312D-02
   161  1.6000000000000D+00  2.3456932692503D-03 -1.6508257896684D-02
   162  1.6100000000000D+00  1.8882242061669D-03 -1.3136998315253D-02
   163  1.6200000000000D+00  1.4913554761587D-03 -1.0277316050138D-02
   164  1.6300000000000D+00  1.1530280322309D-03 -7.8863922159612D-03
   165  1.6400000000000D+00  8.7004262788445D-04 -5.9195105439810D-03
   166  1.6500000000000D+00  6.3828003844161D-04 -4.3309082097973D-03
   167  1.6600000000000D+00  4.5292073360896D-04 -3.0746062971809D-03
   168  1.6700000000000D+00  3.0866027327022D-04 -2.1052089116734D-03
   169  1.6800000000000D+00  1.9991795878030D-04 -1.3786637427997D-03
   170  1.6900000000000D+00  1.2103500123314D-04 -8.5297313131327D-04
   171  1.7000000000000D+00  6.6460413277404D-05 -4.8885055346518D-04
   172  1.7100000000000D+00  3.0909177292438D-05 -2.5027377729625D-04
   173  1.7200000000000D+00  9.5621584105539D-06 -1.0515989198990D-04
   174  1.7300000000000D+00 -1.7452369039207D-06 -2.6008352422645D-05
   175  1.7400000000000D+00 -6.8333558270472D-06  1.1159154667856D-05
   176  1.7500000000000D+00 -9.0607245423109D-06  2.6388486941529D-05
   177  1.7600000000000D+00 -9.6072042090305D-06  3.0134554292740D-05
   178  1.7700000000000D+00 -7.4379532992640D-06  2.3304693814847D-05
   179  1.7800000000000D+00 -2.9867255422602D-06  9.2539700748429D-06
   180  1.7900000000000D+00  4.2387273165634D-07 -1.3263399595678D-06
   181  1.8000000000000D+00  8.1663407269691D-07 -2.5454528026256D-06
   182  1.8100000000000D+00 -3.3813589281662D-08  1.0818593010028D-07
   183  1.8200000000000D+00 -2.0799582969288D-07  6.6635896048706D-07
   184  1.8300000000000D+00 -2.2448144563045D-08  7.1990791728153D-08
   185  1.8400000000000D+00  2.4322954101529D-08 -7.6386679335086D-08
   186  1.8500000000000D+00  9.0714736989513D-09 -2.8489127991854D-08
   187  1.8600000000000D+00  0.0000000000000D+00  0.0000000000000D+00
   188  1.8700000000000D+00  0.0000000000000D+00  0.0000000000000D+00
   189  1.8800000000000D+00  0.0000000000000D+00  0.0000000000000D+00
   190  1.8900000000000D+00  0.0000000000000D+00  0.0000000000000D+00
   191  1.9000000000000D+00  0.0000000000000D+00  0.0000000000000D+00
   192  1.9100000000000D+00  0.0000000000000D+00  0.0000000000000D+00
   193  1.9200000000000D+00  0.0000000000000D+00  0.0000000000000D+00
   194  1.9300000000000D+00  0.0000000000000D+00  0.0000000000000D+00
   195  1.9400000000000D+00  0.0000000000000D+00  0.0000000000000D+00
   196  1.9500000000000D+00  0.0000000000000D+00  0.0000000000000D+00
   197  1.9600000000000D+00  0.0000000000000D+00  0.0000000000000D+00
   198  1.9700000000000D+00  0.0000000000000D+00  0.0000000000000D+00
   199  1.9800000000000D+00  0.0000000000000D+00  0.0000000000000D+00
   200  1.9900000000000D+00  0.0000000000000D+00  0.0000000000000D+00
   201  2.0000000000000D+00  0.0000000000000D+00  0.0000000000000D+00
   202  2.0100000000000D+00  0.0000000000000D+00  0.0000000000000D+00
   203  2.0200000000000D+00  0.0000000000000D+00  0.0000000000000D+00
   204  2.0300000000000D+00  0.0000000000000D+00  0.0000000000000D+00
   205  2.0400000000000D+00  0.0000000000000D+00  0.0000000000000D+00
   206  2.0500000000000D+00  0.0000000000000D+00  0.0000000000000D+00
   207  2.0600000000000D+00  0.0000000000000D+00  0.0000000000000D+00
   208  2.0700000000000D+00  0.0000000000000D+00  0.0000000000000D+00
   209  2.0800000000000D+00  0.0000000000000D+00  0.0000000000000D+00
   210  2.0900000000000D+00  0.0000000000000D+00  0.0000000000000D+00
   211  2.1000000000000D+00  0.0000000000000D+00  0.0000000000000D+00
   212  2.1100000000000D+00  0.0000000000000D+00  0.0000000000000D+00
   213  2.1200000000000D+00  0.0000000000000D+00  0.0000000000000D+00
   214  2.1300000000000D+00  0.0000000000000D+00  0.0000000000000D+00
   215  2.1400000000000D+00  0.0000000000000D+00  0.0000000000000D+00
   216  2.1500000000000D+00  0.0000000000000D+00  0.0000000000000D+00
   217  2.1600000000000D+00  0.0000000000000D+00  0.0000000000000D+00
   218  2.1700000000000D+00  0.0000000000000D+00  0.0000000000000D+00
   219  2.1800000000000D+00  0.0000000000000D+00  0.0000000000000D+00
   220  2.1900000000000D+00  0.0000000000000D+00  0.0000000000000D+00
   221  2.2000000000000D+00  0.0000000000000D+00  0.0000000000000D+00
   222  2.2100000000000D+00  0.0000000000000D+00  0.0000000000000D+00
   223  2.2200000000000D+00  0.0000000000000D+00  0.0000000000000D+00
   224  2.2300000000000D+00  0.0000000000000D+00  0.0000000000000D+00
   225  2.2400000000000D+00  0.0000000000000D+00  0.0000000000000D+00
   226  2.2500000000000D+00  0.0000000000000D+00  0.0000000000000D+00
   227  2.2600000000000D+00  0.0000000000000D+00  0.0000000000000D+00
   228  2.2700000000000D+00  0.0000000000000D+00  0.0000000000000D+00
   229  2.2800000000000D+00  0.0000000000000D+00  0.0000000000000D+00
   230  2.2900000000000D+00  0.0000000000000D+00  0.0000000000000D+00
   231  2.3000000000000D+00  0.0000000000000D+00  0.0000000000000D+00
   232  2.3100000000000D+00  0.0000000000000D+00  0.0000000000000D+00
   233  2.3200000000000D+00  0.0000000000000D+00  0.0000000000000D+00
   234  2.3300000000000D+00  0.0000000000000D+00  0.0000000000000D+00
   235  2.3400000000000D+00  0.0000000000000D+00  0.0000000000000D+00
   236  2.3500000000000D+00  0.0000000000000D+00  0.0000000000000D+00
   237  2.3600000000000D+00  0.0000000000000D+00  0.0000000000000D+00
   238  2.3700000000000D+00  0.0000000000000D+00  0.0000000000000D+00
   239  2.3800000000000D+00  0.0000000000000D+00  0.0000000000000D+00
   240  2.3900000000000D+00  0.0000000000000D+00  0.0000000000000D+00
   241  2.4000000000000D+00  0.0000000000000D+00  0.0000000000000D+00
   242  2.4100000000000D+00  0.0000000000000D+00  0.0000000000000D+00
   243  2.4200000000000D+00  0.0000000000000D+00  0.0000000000000D+00
   244  2.4300000000000D+00  0.0000000000000D+00  0.0000000000000D+00
   245  2.4400000000000D+00  0.0000000000000D+00  0.0000000000000D+00
   246  2.4500000000000D+00  0.0000000000000D+00  0.0000000000000D+00
   247  2.4600000000000D+00  0.0000000000000D+00  0.0000000000000D+00
   248  2.4700000000000D+00  0.0000000000000D+00  0.0000000000000D+00
   249  2.4800000000000D+00  0.0000000000000D+00  0.0000000000000D+00
   250  2.4900000000000D+00  0.0000000000000D+00  0.0000000000000D+00
   251  2.5000000000000D+00  0.0000000000000D+00  0.0000000000000D+00
   252  2.5100000000000D+00  0.0000000000000D+00  0.0000000000000D+00
   253  2.5200000000000D+00  0.0000000000000D+00  0.0000000000000D+00
   254  2.5300000000000D+00  0.0000000000000D+00  0.0000000000000D+00
   255  2.5400000000000D+00  0.0000000000000D+00  0.0000000000000D+00
   256  2.5500000000000D+00  0.0000000000000D+00  0.0000000000000D+00
   257  2.5600000000000D+00  0.0000000000000D+00  0.0000000000000D+00
   258  2.5700000000000D+00  0.0000000000000D+00  0.0000000000000D+00
   259  2.5800000000000D+00  0.0000000000000D+00  0.0000000000000D+00
   260  2.5900000000000D+00  0.0000000000000D+00  0.0000000000000D+00
   261  2.6000000000000D+00  0.0000000000000D+00  0.0000000000000D+00
   262  2.6100000000000D+00  0.0000000000000D+00  0.0000000000000D+00
   263  2.6200000000000D+00  0.0000000000000D+00  0.0000000000000D+00
   264  2.6300000000000D+00  0.0000000000000D+00  0.0000000000000D+00
   265  2.6400000000000D+00  0.0000000000000D+00  0.0000000000000D+00
   266  2.6500000000000D+00  0.0000000000000D+00  0.0000000000000D+00
   267  2.6600000000000D+00  0.0000000000000D+00  0.0000000000000D+00
   268  2.6700000000000D+00  0.0000000000000D+00  0.0000000000000D+00
   269  2.6800000000000D+00  0.0000000000000D+00  0.0000000000000D+00
   270  2.6900000000000D+00  0.0000000000000D+00  0.0000000000000D+00
   271  2.7000000000000D+00  0.0000000000000D+00  0.0000000000000D+00
   272  2.7100000000000D+00  0.0000000000000D+00  0.0000000000000D+00
   273  2.7200000000000D+00  0.0000000000000D+00  0.0000000000000D+00
   274  2.7300000000000D+00  0.0000000000000D+00  0.0000000000000D+00
   275  2.7400000000000D+00  0.0000000000000D+00  0.0000000000000D+00
   276  2.7500000000000D+00  0.0000000000000D+00  0.0000000000000D+00
   277  2.7600000000000D+00  0.0000000000000D+00  0.0000000000000D+00
   278  2.7700000000000D+00  0.0000000000000D+00  0.0000000000000D+00
   279  2.7800000000000D+00  0.0000000000000D+00  0.0000000000000D+00
   280  2.7900000000000D+00  0.0000000000000D+00  0.0000000000000D+00
   281  2.8000000000000D+00  0.0000000000000D+00  0.0000000000000D+00
   282  2.8100000000000D+00  0.0000000000000D+00  0.0000000000000D+00
   283  2.8200000000000D+00  0.0000000000000D+00  0.0000000000000D+00
   284  2.8300000000000D+00  0.0000000000000D+00  0.0000000000000D+00
   285  2.8400000000000D+00  0.0000000000000D+00  0.0000000000000D+00
   286  2.8500000000000D+00  0.0000000000000D+00  0.0000000000000D+00
   287  2.8600000000000D+00  0.0000000000000D+00  0.0000000000000D+00
   288  2.8700000000000D+00  0.0000000000000D+00  0.0000000000000D+00
   289  2.8800000000000D+00  0.0000000000000D+00  0.0000000000000D+00
   290  2.8900000000000D+00  0.0000000000000D+00  0.0000000000000D+00
   291  2.9000000000000D+00  0.0000000000000D+00  0.0000000000000D+00
   292  2.9100000000000D+00  0.0000000000000D+00  0.0000000000000D+00
   293  2.9200000000000D+00  0.0000000000000D+00  0.0000000000000D+00
   294  2.9300000000000D+00  0.0000000000000D+00  0.0000000000000D+00
   295  2.9400000000000D+00  0.0000000000000D+00  0.0000000000000D+00
   296  2.9500000000000D+00  0.0000000000000D+00  0.0000000000000D+00
   297  2.9600000000000D+00  0.0000000000000D+00  0.0000000000000D+00
   298  2.9700000000000D+00  0.0000000000000D+00  0.0000000000000D+00
   299  2.9800000000000D+00  0.0000000000000D+00  0.0000000000000D+00
   300  2.9900000000000D+00  0.0000000000000D+00  0.0000000000000D+00
   301  3.0000000000000D+00  0.0000000000000D+00  0.0000000000000D+00
   302  3.0100000000000D+00  0.0000000000000D+00  0.0000000000000D+00
   303  3.0200000000000D+00  0.0000000000000D+00  0.0000000000000D+00
   304  3.0300000000000D+00  0.0000000000000D+00  0.0000000000000D+00
   305  3.0400000000000D+00  0.0000000000000D+00  0.0000000000000D+00
   306  3.0500000000000D+00  0.0000000000000D+00  0.0000000000000D+00
   307  3.0600000000000D+00  0.0000000000000D+00  0.0000000000000D+00
   308  3.0700000000000D+00  0.0000000000000D+00  0.0000000000000D+00
   309  3.0800000000000D+00  0.0000000000000D+00  0.0000000000000D+00
   310  3.0900000000000D+00  0.0000000000000D+00  0.0000000000000D+00
   311  3.1000000000000D+00  0.0000000000000D+00  0.0000000000000D+00
   312  3.1100000000000D+00  0.0000000000000D+00  0.0000000000000D+00
   313  3.1200000000000D+00  0.0000000000000D+00  0.0000000000000D+00
   314  3.1300000000000D+00  0.0000000000000D+00  0.0000000000000D+00
   315  3.1400000000000D+00  0.0000000000000D+00  0.0000000000000D+00
   316  3.1500000000000D+00  0.0000000000000D+00  0.0000000000000D+00
   317  3.1600000000000D+00  0.0000000000000D+00  0.0000000000000D+00
   318  3.1700000000000D+00  0.0000000000000D+00  0.0000000000000D+00
   319  3.1800000000000D+00  0.0000000000000D+00  0.0000000000000D+00
   320  3.1900000000000D+00  0.0000000000000D+00  0.0000000000000D+00
   321  3.2000000000000D+00  0.0000000000000D+00  0.0000000000000D+00
   322  3.2100000000000D+00  0.0000000000000D+00  0.0000000000000D+00
   323  3.2200000000000D+00  0.0000000000000D+00  0.0000000000000D+00
   324  3.2300000000000D+00  0.0000000000000D+00  0.0000000000000D+00
   325  3.2400000000000D+00  0.0000000000000D+00  0.0000000000000D+00
   326  3.2500000000000D+00  0.0000000000000D+00  0.0000000000000D+00
   327  3.2600000000000D+00  0.0000000000000D+00  0.0000000000000D+00
   328  3.2700000000000D+00  0.0000000000000D+00  0.0000000000000D+00
   329  3.2800000000000D+00  0.0000000000000D+00  0.0000000000000D+00
   330  3.2900000000000D+00  0.0000000000000D+00  0.0000000000000D+00
   331  3.3000000000000D+00  0.0000000000000D+00  0.0000000000000D+00
   332  3.3100000000000D+00  0.0000000000000D+00  0.0000000000000D+00
   333  3.3200000000000D+00  0.0000000000000D+00  0.0000000000000D+00
   334  3.3300000000000D+00  0.0000000000000D+00  0.0000000000000D+00
   335  3.3400000000000D+00  0.0000000000000D+00  0.0000000000000D+00
   336  3.3500000000000D+00  0.0000000000000D+00  0.0000000000000D+00
   337  3.3600000000000D+00  0.0000000000000D+00  0.0000000000000D+00
   338  3.3700000000000D+00  0.0000000000000D+00  0.0000000000000D+00
   339  3.3800000000000D+00  0.0000000000000D+00  0.0000000000000D+00
   340  3.3900000000000D+00  0.0000000000000D+00  0.0000000000000D+00
   341  3.4000000000000D+00  0.0000000000000D+00  0.0000000000000D+00
   342  3.4100000000000D+00  0.0000000000000D+00  0.0000000000000D+00
   343  3.4200000000000D+00  0.0000000000000D+00  0.0000000000000D+00
   344  3.4300000000000D+00  0.0000000000000D+00  0.0000000000000D+00
   345  3.4400000000000D+00  0.0000000000000D+00  0.0000000000000D+00
   346  3.4500000000000D+00  0.0000000000000D+00  0.0000000000000D+00
   347  3.4600000000000D+00  0.0000000000000D+00  0.0000000000000D+00
   348  3.4700000000000D+00  0.0000000000000D+00  0.0000000000000D+00
   349  3.4800000000000D+00  0.0000000000000D+00  0.0000000000000D+00
   350  3.4900000000000D+00  0.0000000000000D+00  0.0000000000000D+00
   351  3.5000000000000D+00  0.0000000000000D+00  0.0000000000000D+00
   352  3.5100000000000D+00  0.0000000000000D+00  0.0000000000000D+00
   353  3.5200000000000D+00  0.0000000000000D+00  0.0000000000000D+00
   354  3.5300000000000D+00  0.0000000000000D+00  0.0000000000000D+00
   355  3.5400000000000D+00  0.0000000000000D+00  0.0000000000000D+00
   356  3.5500000000000D+00  0.0000000000000D+00  0.0000000000000D+00
   357  3.5600000000000D+00  0.0000000000000D+00  0.0000000000000D+00
   358  3.5700000000000D+00  0.0000000000000D+00  0.0000000000000D+00
   359  3.5800000000000D+00  0.0000000000000D+00  0.0000000000000D+00
   360  3.5900000000000D+00  0.0000000000000D+00  0.0000000000000D+00
   361  3.6000000000000D+00  0.0000000000000D+00  0.0000000000000D+00
   362  3.6100000000000D+00  0.0000000000000D+00  0.0000000000000D+00
   363  3.6200000000000D+00  0.0000000000000D+00  0.0000000000000D+00
   364  3.6300000000000D+00  0.0000000000000D+00  0.0000000000000D+00
   365  3.6400000000000D+00  0.0000000000000D+00  0.0000000000000D+00
   366  3.6500000000000D+00  0.0000000000000D+00  0.0000000000000D+00
   367  3.6600000000000D+00  0.0000000000000D+00  0.0000000000000D+00
   368  3.6700000000000D+00  0.0000000000000D+00  0.0000000000000D+00
   369  3.6800000000000D+00  0.0000000000000D+00  0.0000000000000D+00
   370  3.6900000000000D+00  0.0000000000000D+00  0.0000000000000D+00
   371  3.7000000000000D+00  0.0000000000000D+00  0.0000000000000D+00
   372  3.7100000000000D+00  0.0000000000000D+00  0.0000000000000D+00
   373  3.7200000000000D+00  0.0000000000000D+00  0.0000000000000D+00
   374  3.7300000000000D+00  0.0000000000000D+00  0.0000000000000D+00
   375  3.7400000000000D+00  0.0000000000000D+00  0.0000000000000D+00
   376  3.7500000000000D+00  0.0000000000000D+00  0.0000000000000D+00
   377  3.7600000000000D+00  0.0000000000000D+00  0.0000000000000D+00
   378  3.7700000000000D+00  0.0000000000000D+00  0.0000000000000D+00
   379  3.7800000000000D+00  0.0000000000000D+00  0.0000000000000D+00
   380  3.7900000000000D+00  0.0000000000000D+00  0.0000000000000D+00
   381  3.8000000000000D+00  0.0000000000000D+00  0.0000000000000D+00
   382  3.8100000000000D+00  0.0000000000000D+00  0.0000000000000D+00
   383  3.8200000000000D+00  0.0000000000000D+00  0.0000000000000D+00
   384  3.8300000000000D+00  0.0000000000000D+00  0.0000000000000D+00
   385  3.8400000000000D+00  0.0000000000000D+00  0.0000000000000D+00
   386  3.8500000000000D+00  0.0000000000000D+00  0.0000000000000D+00
   387  3.8600000000000D+00  0.0000000000000D+00  0.0000000000000D+00
   388  3.8700000000000D+00  0.0000000000000D+00  0.0000000000000D+00
   389  3.8800000000000D+00  0.0000000000000D+00  0.0000000000000D+00
   390  3.8900000000000D+00  0.0000000000000D+00  0.0000000000000D+00
   391  3.9000000000000D+00  0.0000000000000D+00  0.0000000000000D+00
   392  3.9100000000000D+00  0.0000000000000D+00  0.0000000000000D+00
   393  3.9200000000000D+00  0.0000000000000D+00  0.0000000000000D+00
   394  3.9300000000000D+00  0.0000000000000D+00  0.0000000000000D+00
   395  3.9400000000000D+00  0.0000000000000D+00  0.0000000000000D+00
   396  3.9500000000000D+00  0.0000000000000D+00  0.0000000000000D+00
   397  3.9600000000000D+00  0.0000000000000D+00  0.0000000000000D+00
   398  3.9700000000000D+00  0.0000000000000D+00  0.0000000000000D+00
   399  3.9800000000000D+00  0.0000000000000D+00  0.0000000000000D+00
   400  3.9900000000000D+00  0.0000000000000D+00  0.0000000000000D+00
   401  4.0000000000000D+00  0.0000000000000D+00  0.0000000000000D+00
   402  4.0100000000000D+00  0.0000000000000D+00  0.0000000000000D+00
   403  4.0200000000000D+00  0.0000000000000D+00  0.0000000000000D+00
   404  4.0300000000000D+00  0.0000000000000D+00  0.0000000000000D+00
   405  4.0400000000000D+00  0.0000000000000D+00  0.0000000000000D+00
   406  4.0500000000000D+00  0.0000000000000D+00  0.0000000000000D+00
   407  4.0600000000000D+00  0.0000000000000D+00  0.0000000000000D+00
   408  4.0700000000000D+00  0.0000000000000D+00  0.0000000000000D+00
   409  4.0800000000000D+00  0.0000000000000D+00  0.0000000000000D+00
   410  4.0900000000000D+00  0.0000000000000D+00  0.0000000000000D+00
   411  4.1000000000000D+00  0.0000000000000D+00  0.0000000000000D+00
   412  4.1100000000000D+00  0.0000000000000D+00  0.0000000000000D+00
   413  4.1200000000000D+00  0.0000000000000D+00  0.0000000000000D+00
   414  4.1300000000000D+00  0.0000000000000D+00  0.0000000000000D+00
   415  4.1400000000000D+00  0.0000000000000D+00  0.0000000000000D+00
   416  4.1500000000000D+00  0.0000000000000D+00  0.0000000000000D+00
   417  4.1600000000000D+00  0.0000000000000D+00  0.0000000000000D+00
   418  4.1700000000000D+00  0.0000000000000D+00  0.0000000000000D+00
   419  4.1800000000000D+00  0.0000000000000D+00  0.0000000000000D+00
   420  4.1900000000000D+00  0.0000000000000D+00  0.0000000000000D+00
   421  4.2000000000000D+00  0.0000000000000D+00  0.0000000000000D+00
   422  4.2100000000000D+00  0.0000000000000D+00  0.0000000000000D+00
   423  4.2200000000000D+00  0.0000000000000D+00  0.0000000000000D+00