Mn    ONCVPSP-3.3.1  r_core=   2.47442   2.47442   2.11898
     25.0000     15.0000      210904    zatom,zion,pspd
     8       2   2     4   600     0    pspcod,pspxc,lmax,lloc,mmax,r2well
  5.99000000  0.00000000  0.00000000    rchrg fchrg qchrg
     2     2     2     0    nproj
     3     1           extension_switch
     3     3     0    nprojso
   0                        -2.0173041702699D+00 -2.9197634970735D-01
     1  0.0000000000000D+00 -1.1163292512606D-13  1.3066603354872D-11
     2  1.0000000000000D-02  3.3655557415290D-02 -5.4474915412825D-02
     3  2.0000000000000D-02  6.7284208707040D-02 -1.0881388854724D-01
     4  3.0000000000000D-02  1.0085907764597D-01 -1.6288133685355D-01
     5  4.0000000000000D-02  1.3435334775568D-01 -2.1654239619229D-01
     6  5.0000000000000D-02  1.6774029209989D-01 -2.6966327742452D-01
     7  6.0000000000000D-02  2.0099330296293D-01 -3.2211161987387D-01
     8  7.0000000000000D-02  2.3408592138771D-01 -3.7375684063292D-01
     9  8.0000000000000D-02  2.6699186653603D-01 -4.2447047869993D-01
    10  9.0000000000000D-02  2.9968506483582D-01 -4.7412653294855D-01
    11  1.0000000000000D-01  3.3213967888033D-01 -5.2260179295251D-01
    12  1.1000000000000D-01  3.6433013604441D-01 -5.6977616171016D-01
    13  1.2000000000000D-01  3.9623115678310D-01 -6.1553296933960D-01
    14  1.3000000000000D-01  4.2781778257836D-01 -6.5975927684378D-01
    15  1.4000000000000D-01  4.5906540349970D-01 -7.0234616907630D-01
    16  1.5000000000000D-01  4.8994978534496D-01 -7.4318903607341D-01
    17  1.6000000000000D-01  5.2044709632790D-01 -7.8218784195401D-01
    18  1.7000000000000D-01  5.5053393327956D-01 -8.1924738062922D-01
    19  1.8000000000000D-01  5.8018734733071D-01 -8.5427751760474D-01
    20  1.9000000000000D-01  6.0938486904342D-01 -8.8719341720298D-01
    21  2.0000000000000D-01  6.3810453295988D-01 -9.1791575457815D-01
    22  2.1000000000000D-01  6.6632490153759D-01 -9.4637091194519D-01
    23  2.2000000000000D-01  6.9402508844024D-01 -9.7249115849323D-01
    24  2.3000000000000D-01  7.2118478115428D-01 -9.9621481350533D-01
    25  2.4000000000000D-01  7.4778426290209D-01 -1.0174863922587D+00
    26  2.5000000000000D-01  7.7380443382285D-01 -1.0362567343339D+00
    27  2.6000000000000D-01  7.9922683139347D-01 -1.0524831140157D+00
    28  2.7000000000000D-01  8.2403365006228D-01 -1.0661293325244D+00
    29  2.8000000000000D-01  8.4820776006914D-01 -1.0771657918725D+00
    30  2.9000000000000D-01  8.7173272542665D-01 -1.0855695501992D+00
    31  3.0000000000000D-01  8.9459282103759D-01 -1.0913243584905D+00
    32  3.1000000000000D-01  9.1677304892515D-01 -1.0944206786521D+00
    33  3.2000000000000D-01  9.3825915355311D-01 -1.0948556829574D+00
    34  3.3000000000000D-01  9.5903763621427D-01 -1.0926332349521D+00
    35  3.4000000000000D-01  9.7909576846655D-01 -1.0877638519492D+00
    36  3.5000000000000D-01  9.9842160459722D-01 -1.0802646493095D+00
    37  3.6000000000000D-01  1.0170039930967D+00 -1.0701592667515D+00
    38  3.7000000000000D-01  1.0348325871249D+00 -1.0574777769933D+00
    39  3.8000000000000D-01  1.0518978539542D+00 -1.0422565770787D+00
    40  3.9000000000000D-01  1.0681910833735D+00 -1.0245382627925D+00
    41  4.0000000000000D-01  1.0837043950415D+00 -1.0043714866181D+00
    42  4.1000000000000D-01  1.0984307447752D+00 -9.8181079974058D-01
    43  4.2000000000000D-01  1.1123639297647D+00 -9.5691647864294D-01
    44  4.3000000000000D-01  1.1254985927035D+00 -9.2975433688785D-01
    45  4.4000000000000D-01  1.1378302248275D+00 -9.0039552271928D-01
    46  4.5000000000000D-01  1.1493551678556D+00 -8.6891630315845D-01
    47  4.6000000000000D-01  1.1600706148281D+00 -8.3539783530535D-01
    48  4.7000000000000D-01  1.1699746098379D+00 -7.9992592559243D-01
    49  4.8000000000000D-01  1.1790660466546D+00 -7.6259077776913D-01
    50  4.9000000000000D-01  1.1873446662404D+00 -7.2348673042578D-01
    51  5.0000000000000D-01  1.1948110531589D+00 -6.8271198489175D-01
    52  5.1000000000000D-01  1.2014666308816D+00 -6.4036832436734D-01
    53  5.2000000000000D-01  1.2073136559946D+00 -5.9656082516943D-01
    54  5.3000000000000D-01  1.2123552113144D+00 -5.5139756098960D-01
    55  5.4000000000000D-01  1.2165951979189D+00 -5.0498930107762D-01
    56  5.5000000000000D-01  1.2200383261054D+00 -4.5744920327646D-01
    57  5.6000000000000D-01  1.2226901052850D+00 -4.0889250284311D-01
    58  5.7000000000000D-01  1.2245568328293D+00 -3.5943619799519D-01
    59  5.8000000000000D-01  1.2256455818823D+00 -3.0919873312774D-01
    60  5.9000000000000D-01  1.2259641881554D+00 -2.5829968064208D-01
    61  6.0000000000000D-01  1.2255212357232D+00 -2.0685942232739D-01
    62  6.1000000000000D-01  1.2243260418413D+00 -1.5499883122822D-01
    63  6.2000000000000D-01  1.2223886408071D+00 -1.0283895492230D-01
    64  6.3000000000000D-01  1.2197197668866D+00 -5.0500701120873D-02
    65  6.4000000000000D-01  1.2163308363340D+00  1.8954735114592D-03
    66  6.5000000000000D-01  1.2122339285292D+00  5.4229870437819D-02
    67  6.6000000000000D-01  1.2074417662621D+00  1.0638385137247D-01
    68  6.7000000000000D-01  1.2019676951941D+00  1.5824013461081D-01
    69  6.8000000000000D-01  1.1958256625267D+00  2.0968308475574D-01
    70  6.9000000000000D-01  1.1890301949122D+00  2.6059899505869D-01
    71  7.0000000000000D-01  1.1815963756382D+00  3.1087636162356D-01
    72  7.1000000000000D-01  1.1735398211237D+00  3.6040614875455D-01
    73  7.2000000000000D-01  1.1648766567628D+00  4.0908204476333D-01
    74  7.3000000000000D-01  1.1556234921533D+00  4.5680070758795D-01
    75  7.4000000000000D-01  1.1457973957520D+00  5.0346199961341D-01
    76  7.5000000000000D-01  1.1354158689941D+00  5.4896921112462D-01
    77  7.6000000000000D-01  1.1244968199214D+00  5.9322927186324D-01
    78  7.7000000000000D-01  1.1130585363591D+00  6.3615295020332D-01
    79  7.8000000000000D-01  1.1011196586867D+00  6.7765503950363D-01
    80  7.9000000000000D-01  1.0886991522462D+00  7.1765453124080D-01
    81  8.0000000000000D-01  1.0758162794331D+00  7.5607477457197D-01
    82  8.1000000000000D-01  1.0624905715163D+00  7.9284362202324D-01
    83  8.2000000000000D-01  1.0487418002319D+00  8.2789356104649D-01
    84  8.3000000000000D-01  1.0345899491994D+00  8.6116183123466D-01
    85  8.4000000000000D-01  1.0200551852068D+00  8.9259052703404D-01
    86  8.5000000000000D-01  1.0051578294119D+00  9.2212668583815D-01
    87  8.6000000000000D-01  9.8991832850759D-01  9.4972236139695D-01
    88  8.7000000000000D-01  9.7435722590025D-01  9.7533468252135D-01
    89  8.8000000000000D-01  9.5849513294722D-01  9.9892589710982D-01
    90  8.9000000000000D-01  9.4235270030288D-01  1.0204634015705D+00
    91  9.0000000000000D-01  9.2595058942026D-01  1.0399197557571D+00
    92  9.1000000000000D-01  9.0930944425574D-01  1.0572726835820D+00
    93  9.2000000000000D-01  8.9244986322403D-01  1.0725050595119D+00
    94  9.3000000000000D-01  8.7539237144989D-01  1.0856048811957D+00
    95  9.4000000000000D-01  8.5815739336280D-01  1.0965652285138D+00
    96  9.5000000000000D-01  8.4076522567982D-01  1.1053842093768D+00
    97  9.6000000000000D-01  8.2323601082132D-01  1.1120648926413D+00
    98  9.7000000000000D-01  8.0558971080341D-01  1.1166152285451D+00
    99  9.8000000000000D-01  7.8784608164973D-01  1.1190479570981D+00
   100  9.9000000000000D-01  7.7002464836462D-01  1.1193805048997D+00
   101  1.0000000000000D+00  7.5214468050800D-01  1.1176348708816D+00
   102  1.0100000000000D+00  7.3422516841168D-01  1.1138375015027D+00
   103  1.0200000000000D+00  7.1628480007501D-01  1.1080191559534D+00
   104  1.0300000000000D+00  6.9834193877664D-01  1.1002147619432D+00
   105  1.0400000000000D+00  6.8041460143763D-01  1.0904632626732D+00
   106  1.0500000000000D+00  6.6252043776967D-01  1.0788074556121D+00
   107  1.0600000000000D+00  6.4467671024031D-01  1.0652938237090D+00
   108  1.0700000000000D+00  6.2690027488570D-01  1.0499723596939D+00
   109  1.0800000000000D+00  6.0920756299938D-01  1.0328963841273D+00
   110  1.0900000000000D+00  5.9161456372397D-01  1.0141223578667D+00
   111  1.1000000000000D+00  5.7413680757054D-01  9.9370968963083D-01
   112  1.1100000000000D+00  5.5678935088874D-01  9.7172053934041D-01
   113  1.1200000000000D+00  5.3958676130854D-01  9.4821961791927D-01
   114  1.1300000000000D+00  5.2254310417258D-01  9.2327398423892D-01
   115  1.1400000000000D+00  5.0567192997618D-01  8.9695283988548D-01
   116  1.1500000000000D+00  4.8898626282944D-01  8.6932732242303D-01
   117  1.1600000000000D+00  4.7249858995421D-01  8.4047029781774D-01
   118  1.1700000000000D+00  4.5622085222661D-01  8.1045615268101D-01
   119  1.1800000000000D+00  4.4016443577323D-01  7.7936058697272D-01
   120  1.1900000000000D+00  4.2434016462707D-01  7.4726040779316D-01
   121  1.2000000000000D+00  4.0875829444714D-01  7.1423332487368D-01
   122  1.2100000000000D+00  3.9342850730378D-01  6.8035774836290D-01
   123  1.2200000000000D+00  3.7835990752900D-01  6.4571258947657D-01
   124  1.2300000000000D+00  3.6356101862870D-01  6.1037706455636D-01
   125  1.2400000000000D+00  3.4903978125310D-01  5.7443050307245D-01
   126  1.2500000000000D+00  3.3480355221747D-01  5.3795216006062D-01
   127  1.2600000000000D+00  3.2085910456406D-01  5.0102103346044D-01
   128  1.2700000000000D+00  3.0721262865469D-01  4.6371568680800D-01
   129  1.2800000000000D+00  2.9386973428045D-01  4.2611407768835D-01
   130  1.2900000000000D+00  2.8083545377255D-01  3.8829339231739D-01
   131  1.3000000000000D+00  2.6811424609830D-01  3.5032988661882D-01
   132  1.3100000000000D+00  2.5571000192237D-01  3.1229873410049D-01
   133  1.3200000000000D+00  2.4362604961165D-01  2.7427388079358D-01
   134  1.3300000000000D+00  2.3186516216246D-01  2.3632790753180D-01
   135  1.3400000000000D+00  2.2042956502422D-01  1.9853189975286D-01
   136  1.3500000000000D+00  2.0932094479316D-01  1.6095532498848D-01
   137  1.3600000000000D+00  1.9854045874981D-01  1.2366591821804D-01
   138  1.3700000000000D+00  1.8808874520875D-01  8.6729575136883D-02
   139  1.3800000000000D+00  1.7796593465122D-01  5.0210253430948D-02
   140  1.3900000000000D+00  1.6817166160824D-01  1.4169882094840D-02
   141  1.4000000000000D+00  1.5870507725946D-01 -2.1331721263870D-02
   142  1.4100000000000D+00  1.4956486271523D-01 -5.6236925108846D-02
   143  1.4200000000000D+00  1.4074924294399D-01 -9.0490350786247D-02
   144  1.4300000000000D+00  1.3225600130929D-01 -1.2403893155476D-01
   145  1.4400000000000D+00  1.2408249467898D-01 -1.5683196395314D-01
   146  1.4500000000000D+00  1.1622566906667D-01 -1.8882115175591D-01
   147  1.4600000000000D+00  1.0868207576820D-01 -2.1996064263249D-01
   148  1.4700000000000D+00  1.0144788795143D-01 -2.5020705784037D-01
   149  1.4800000000000D+00  9.4518917660187D-02 -2.7951951516443D-01
   150  1.4900000000000D+00  8.7890633191164D-02 -3.0785964541333D-01
   151  1.5000000000000D+00  8.1558176802676D-02 -3.3519160282854D-01
   152  1.5100000000000D+00  7.5516382714156D-02 -3.6148206968419D-01
   153  1.5200000000000D+00  6.9759795355017D-02 -3.8670025554588D-01
   154  1.5300000000000D+00  6.4282687821251D-02 -4.1081789147525D-01
   155  1.5400000000000D+00  5.9079080498956D-02 -4.3380921969031D-01
   156  1.5500000000000D+00  5.4142759813262D-02 -4.5565097903599D-01
   157  1.5600000000000D+00  4.9467297062093D-02 -4.7632238676059D-01
   158  1.5700000000000D+00  4.5046067294752D-02 -4.9580511703206D-01
   159  1.5800000000000D+00  4.0872268194241D-02 -5.1408327667305D-01
   160  1.5900000000000D+00  3.6938938926378D-02 -5.3114337860217D-01
   161  1.6000000000000D+00  3.3238978913348D-02 -5.4697431345875D-01
   162  1.6100000000000D+00  2.9765166499227D-02 -5.6156731991848D-01
   163  1.6200000000000D+00  2.6510177463233D-02 -5.7491595419342D-01
   164  1.6300000000000D+00  2.3466603353919D-02 -5.8701605920923D-01
   165  1.6400000000000D+00  2.0626969597837D-02 -5.9786573398624D-01
   166  1.6500000000000D+00  1.7983753362225D-02 -6.0746530367185D-01
   167  1.6600000000000D+00  1.5529401123487D-02 -6.1581729079340D-01
   168  1.6700000000000D+00  1.3256345926817D-02 -6.2292638811440D-01
   169  1.6800000000000D+00  1.1157024288534D-02 -6.2879943370264D-01
   170  1.6900000000000D+00  9.2238927314766D-03 -6.3344538851765D-01
   171  1.7000000000000D+00  7.4494439052928D-03 -6.3687531716337D-01
   172  1.7100000000000D+00  5.8262222877721D-03 -6.3910237201969D-01
   173  1.7200000000000D+00  4.3468394184806D-03 -6.4014178144463D-01
   174  1.7300000000000D+00  3.0039886681405D-03 -6.4001084213896D-01
   175  1.7400000000000D+00  1.7904594931356D-03 -6.3872891642953D-01
   176  1.7500000000000D+00  6.9915118740747D-04 -6.3631743440811D-01
   177  1.7600000000000D+00 -2.7691392111395D-04 -6.3279990175620D-01
   178  1.7700000000000D+00 -1.1445778099496D-03 -6.2820191304593D-01
   179  1.7800000000000D+00 -1.9105346883306D-03 -6.2255117136337D-01
   180  1.7900000000000D+00 -2.5813194885046D-03 -6.1587751396846D-01
   181  1.8000000000000D+00 -3.1632969661765D-03 -6.0821294477041D-01
   182  1.8100000000000D+00 -3.6626513904355D-03 -5.9959167333030D-01
   183  1.8200000000000D+00 -4.0853768560498D-03 -5.9005016101357D-01
   184  1.8300000000000D+00 -4.4372682052657D-03 -5.7962717409498D-01
   185  1.8400000000000D+00 -4.7239125758396D-03 -5.6836384417055D-01
   186  1.8500000000000D+00 -4.9506815743942D-03 -5.5630373588646D-01
   187  1.8600000000000D+00 -5.1227240706443D-03 -5.4349292194386D-01
   188  1.8700000000000D+00 -5.2449596284164D-03 -5.2998006572123D-01
   189  1.8800000000000D+00 -5.3220725439164D-03 -5.1581651096121D-01
   190  1.8900000000000D+00 -5.3585062197194D-03 -5.0105640048797D-01
   191  1.9000000000000D+00 -5.3584597993488D-03 -4.8575668595101D-01
   192  1.9100000000000D+00 -5.3258802798669D-03 -4.6997750574238D-01
   193  1.9200000000000D+00 -5.2644666645443D-03 -4.5378175961375D-01
   194  1.9300000000000D+00 -5.1776637158090D-03 -4.3723548093892D-01
   195  1.9400000000000D+00 -5.0686463616224D-03 -4.2040888667051D-01
   196  1.9500000000000D+00 -4.9403224701517D-03 -4.0337619015981D-01
   197  1.9600000000000D+00 -4.7953766560188D-03 -3.8621262690602D-01
   198  1.9700000000000D+00 -4.6362980695355D-03 -3.6899267747551D-01
   199  1.9800000000000D+00 -4.4654012596808D-03 -3.5178854669218D-01
   200  1.9900000000000D+00 -4.2848750398179D-03 -3.3466682080723D-01
   201  2.0000000000000D+00 -4.0967781797641D-03 -3.1768882661614D-01
   202  2.0100000000000D+00 -3.9030300684257D-03 -3.0091134677618D-01
   203  2.0200000000000D+00 -3.7054071679759D-03 -2.8438697644789D-01
   204  2.0300000000000D+00 -3.5055537961653D-03 -2.6816358862758D-01
   205  2.0400000000000D+00 -3.3049794488811D-03 -2.5228473154378D-01
   206  2.0500000000000D+00 -3.1050629264586D-03 -2.3678961024014D-01
   207  2.0600000000000D+00 -2.9070548599885D-03 -2.2171321275387D-01
   208  2.0700000000000D+00 -2.7120809318157D-03 -2.0708642386720D-01
   209  2.0800000000000D+00 -2.5211454511390D-03 -1.9293614668273D-01
   210  2.0900000000000D+00 -2.3351352440299D-03 -1.7928543203967D-01
   211  2.1000000000000D+00 -2.1548238274781D-03 -1.6615361526179D-01
   212  2.1100000000000D+00 -1.9808758460155D-03 -1.5355645936829D-01
   213  2.1200000000000D+00 -1.8138517361434D-03 -1.4150630405731D-01
   214  2.1300000000000D+00 -1.6542125940620D-03 -1.3001221974249D-01
   215  2.1400000000000D+00 -1.5023252274329D-03 -1.1908016602415D-01
   216  2.1500000000000D+00 -1.3584673444225D-03 -1.0871315357484D-01
   217  2.1600000000000D+00 -1.2228328797954D-03 -9.8911409171970D-02
   218  2.1700000000000D+00 -1.0955374114997D-03 -8.9672542790368D-02
   219  2.1800000000000D+00 -9.7662364433661D-04 -8.0991716090359D-02
   220  2.1900000000000D+00 -8.6606696114562D-04 -7.2861812181320D-02
   221  2.2000000000000D+00 -7.6378096888582D-04 -6.5273604893154D-02
   222  2.2100000000000D+00 -6.6962306524020D-04 -5.8215928044654D-02
   223  2.2200000000000D+00 -5.8339997859997D-04 -5.1675843502449D-02
   224  2.2300000000000D+00 -5.0487324409329D-04 -4.5638807029761D-02
   225  2.2400000000000D+00 -4.3376464277868D-04 -4.0088832548992D-02
   226  2.2500000000000D+00 -3.6976152406715D-04 -3.5008652720491D-02
   227  2.2600000000000D+00 -3.1252202490342D-04 -3.0379876137313D-02
   228  2.2700000000000D+00 -2.6168018883608D-04 -2.6183141193589D-02
   229  2.2800000000000D+00 -2.1685089179883D-04 -2.2398264105670D-02
   230  2.2900000000000D+00 -1.7763464265703D-04 -1.9004382887178D-02
   231  2.3000000000000D+00 -1.4362219896441D-04 -1.5980095646419D-02
   232  2.3100000000000D+00 -1.1439895861851D-04 -1.3303592102861D-02
   233  2.3200000000000D+00 -8.9549188635050D-05 -1.0952780002744D-02
   234  2.3300000000000D+00 -6.8659997668499D-05 -8.9054038222928D-03
   235  2.3400000000000D+00 -5.1325068006383D-05 -7.1391561834447D-03
   236  2.3500000000000D+00 -3.7148192323373D-05 -5.6317832601014D-03
   237  2.3600000000000D+00 -2.5746490582986D-05 -4.3611806317666D-03
   238  2.3700000000000D+00 -1.6753388768319D-05 -3.3054818997586D-03
   239  2.3800000000000D+00 -9.8213616817725D-06 -2.4431401378539D-03
   240  2.3900000000000D+00 -4.6217192962377D-06 -1.7529930508547D-03
   241  2.4000000000000D+00 -8.4996232466666D-07 -1.2143338385716D-03
   242  2.4100000000000D+00  1.7563653164793D-06 -8.0700178608123D-04
   243  2.4200000000000D+00  3.4183074482659D-06 -5.1105704225376D-04
   244  2.4300000000000D+00  4.3791856417314D-06 -3.0755019911937D-04
   245  2.4400000000000D+00  4.9423827729236D-06 -1.7899530700631D-04
   246  2.4500000000000D+00  5.3875378915911D-06 -1.0936289405095D-04
   247  2.4600000000000D+00  5.6591116554012D-06 -7.9119338408099D-05
   248  2.4700000000000D+00  5.4000377531861D-06 -6.6331408994744D-05
   249  2.4800000000000D+00  4.2234586774463D-06 -5.1395000453045D-05
   250  2.4900000000000D+00  2.3838111156513D-06 -2.9570256897838D-05
   251  2.5000000000000D+00  5.9386930315198D-07 -7.6078467714512D-06
   252  2.5100000000000D+00 -3.8768677801872D-07  4.4833169405335D-06
   253  2.5200000000000D+00 -5.0409330418312D-07  5.8502979273417D-06
   254  2.5300000000000D+00 -1.7955341879546D-07  2.0945511443674D-06
   255  2.5400000000000D+00  7.9074834990844D-08 -8.3535833431685D-07
   256  2.5500000000000D+00  1.1870272491925D-07 -1.2445480851556D-06
   257  2.5600000000000D+00  4.9653620709226D-08 -5.1730430411804D-07
   258  2.5700000000000D+00 -8.4271951547116D-09  1.0305035240865D-07
   259  2.5800000000000D+00 -1.4290925051972D-08  1.7475385769699D-07
   260  2.5900000000000D+00 -7.0403446802363D-09  8.6091515273745D-08
   261  2.6000000000000D+00  0.0000000000000D+00  0.0000000000000D+00
   262  2.6100000000000D+00  0.0000000000000D+00  0.0000000000000D+00
   263  2.6200000000000D+00  0.0000000000000D+00  0.0000000000000D+00
   264  2.6300000000000D+00  0.0000000000000D+00  0.0000000000000D+00
   265  2.6400000000000D+00  0.0000000000000D+00  0.0000000000000D+00
   266  2.6500000000000D+00  0.0000000000000D+00  0.0000000000000D+00
   267  2.6600000000000D+00  0.0000000000000D+00  0.0000000000000D+00
   268  2.6700000000000D+00  0.0000000000000D+00  0.0000000000000D+00
   269  2.6800000000000D+00  0.0000000000000D+00  0.0000000000000D+00
   270  2.6900000000000D+00  0.0000000000000D+00  0.0000000000000D+00
   271  2.7000000000000D+00  0.0000000000000D+00  0.0000000000000D+00
   272  2.7100000000000D+00  0.0000000000000D+00  0.0000000000000D+00
   273  2.7200000000000D+00  0.0000000000000D+00  0.0000000000000D+00
   274  2.7300000000000D+00  0.0000000000000D+00  0.0000000000000D+00
   275  2.7400000000000D+00  0.0000000000000D+00  0.0000000000000D+00
   276  2.7500000000000D+00  0.0000000000000D+00  0.0000000000000D+00
   277  2.7600000000000D+00  0.0000000000000D+00  0.0000000000000D+00
   278  2.7700000000000D+00  0.0000000000000D+00  0.0000000000000D+00
   279  2.7800000000000D+00  0.0000000000000D+00  0.0000000000000D+00
   280  2.7900000000000D+00  0.0000000000000D+00  0.0000000000000D+00
   281  2.8000000000000D+00  0.0000000000000D+00  0.0000000000000D+00
   282  2.8100000000000D+00  0.0000000000000D+00  0.0000000000000D+00
   283  2.8200000000000D+00  0.0000000000000D+00  0.0000000000000D+00
   284  2.8300000000000D+00  0.0000000000000D+00  0.0000000000000D+00
   285  2.8400000000000D+00  0.0000000000000D+00  0.0000000000000D+00
   286  2.8500000000000D+00  0.0000000000000D+00  0.0000000000000D+00
   287  2.8600000000000D+00  0.0000000000000D+00  0.0000000000000D+00
   288  2.8700000000000D+00  0.0000000000000D+00  0.0000000000000D+00
   289  2.8800000000000D+00  0.0000000000000D+00  0.0000000000000D+00
   290  2.8900000000000D+00  0.0000000000000D+00  0.0000000000000D+00
   291  2.9000000000000D+00  0.0000000000000D+00  0.0000000000000D+00
   292  2.9100000000000D+00  0.0000000000000D+00  0.0000000000000D+00
   293  2.9200000000000D+00  0.0000000000000D+00  0.0000000000000D+00
   294  2.9300000000000D+00  0.0000000000000D+00  0.0000000000000D+00
   295  2.9400000000000D+00  0.0000000000000D+00  0.0000000000000D+00
   296  2.9500000000000D+00  0.0000000000000D+00  0.0000000000000D+00
   297  2.9600000000000D+00  0.0000000000000D+00  0.0000000000000D+00
   298  2.9700000000000D+00  0.0000000000000D+00  0.0000000000000D+00
   299  2.9800000000000D+00  0.0000000000000D+00  0.0000000000000D+00
   300  2.9900000000000D+00  0.0000000000000D+00  0.0000000000000D+00
   301  3.0000000000000D+00  0.0000000000000D+00  0.0000000000000D+00
   302  3.0100000000000D+00  0.0000000000000D+00  0.0000000000000D+00
   303  3.0200000000000D+00  0.0000000000000D+00  0.0000000000000D+00
   304  3.0300000000000D+00  0.0000000000000D+00  0.0000000000000D+00
   305  3.0400000000000D+00  0.0000000000000D+00  0.0000000000000D+00
   306  3.0500000000000D+00  0.0000000000000D+00  0.0000000000000D+00
   307  3.0600000000000D+00  0.0000000000000D+00  0.0000000000000D+00
   308  3.0700000000000D+00  0.0000000000000D+00  0.0000000000000D+00
   309  3.0800000000000D+00  0.0000000000000D+00  0.0000000000000D+00
   310  3.0900000000000D+00  0.0000000000000D+00  0.0000000000000D+00
   311  3.1000000000000D+00  0.0000000000000D+00  0.0000000000000D+00
   312  3.1100000000000D+00  0.0000000000000D+00  0.0000000000000D+00
   313  3.1200000000000D+00  0.0000000000000D+00  0.0000000000000D+00
   314  3.1300000000000D+00  0.0000000000000D+00  0.0000000000000D+00
   315  3.1400000000000D+00  0.0000000000000D+00  0.0000000000000D+00
   316  3.1500000000000D+00  0.0000000000000D+00  0.0000000000000D+00
   317  3.1600000000000D+00  0.0000000000000D+00  0.0000000000000D+00
   318  3.1700000000000D+00  0.0000000000000D+00  0.0000000000000D+00
   319  3.1800000000000D+00  0.0000000000000D+00  0.0000000000000D+00
   320  3.1900000000000D+00  0.0000000000000D+00  0.0000000000000D+00
   321  3.2000000000000D+00  0.0000000000000D+00  0.0000000000000D+00
   322  3.2100000000000D+00  0.0000000000000D+00  0.0000000000000D+00
   323  3.2200000000000D+00  0.0000000000000D+00  0.0000000000000D+00
   324  3.2300000000000D+00  0.0000000000000D+00  0.0000000000000D+00
   325  3.2400000000000D+00  0.0000000000000D+00  0.0000000000000D+00
   326  3.2500000000000D+00  0.0000000000000D+00  0.0000000000000D+00
   327  3.2600000000000D+00  0.0000000000000D+00  0.0000000000000D+00
   328  3.2700000000000D+00  0.0000000000000D+00  0.0000000000000D+00
   329  3.2800000000000D+00  0.0000000000000D+00  0.0000000000000D+00
   330  3.2900000000000D+00  0.0000000000000D+00  0.0000000000000D+00
   331  3.3000000000000D+00  0.0000000000000D+00  0.0000000000000D+00
   332  3.3100000000000D+00  0.0000000000000D+00  0.0000000000000D+00
   333  3.3200000000000D+00  0.0000000000000D+00  0.0000000000000D+00
   334  3.3300000000000D+00  0.0000000000000D+00  0.0000000000000D+00
   335  3.3400000000000D+00  0.0000000000000D+00  0.0000000000000D+00
   336  3.3500000000000D+00  0.0000000000000D+00  0.0000000000000D+00
   337  3.3600000000000D+00  0.0000000000000D+00  0.0000000000000D+00
   338  3.3700000000000D+00  0.0000000000000D+00  0.0000000000000D+00
   339  3.3800000000000D+00  0.0000000000000D+00  0.0000000000000D+00
   340  3.3900000000000D+00  0.0000000000000D+00  0.0000000000000D+00
   341  3.4000000000000D+00  0.0000000000000D+00  0.0000000000000D+00
   342  3.4100000000000D+00  0.0000000000000D+00  0.0000000000000D+00
   343  3.4200000000000D+00  0.0000000000000D+00  0.0000000000000D+00
   344  3.4300000000000D+00  0.0000000000000D+00  0.0000000000000D+00
   345  3.4400000000000D+00  0.0000000000000D+00  0.0000000000000D+00
   346  3.4500000000000D+00  0.0000000000000D+00  0.0000000000000D+00
   347  3.4600000000000D+00  0.0000000000000D+00  0.0000000000000D+00
   348  3.4700000000000D+00  0.0000000000000D+00  0.0000000000000D+00
   349  3.4800000000000D+00  0.0000000000000D+00  0.0000000000000D+00
   350  3.4900000000000D+00  0.0000000000000D+00  0.0000000000000D+00
   351  3.5000000000000D+00  0.0000000000000D+00  0.0000000000000D+00
   352  3.5100000000000D+00  0.0000000000000D+00  0.0000000000000D+00
   353  3.5200000000000D+00  0.0000000000000D+00  0.0000000000000D+00
   354  3.5300000000000D+00  0.0000000000000D+00  0.0000000000000D+00
   355  3.5400000000000D+00  0.0000000000000D+00  0.0000000000000D+00
   356  3.5500000000000D+00  0.0000000000000D+00  0.0000000000000D+00
   357  3.5600000000000D+00  0.0000000000000D+00  0.0000000000000D+00
   358  3.5700000000000D+00  0.0000000000000D+00  0.0000000000000D+00
   359  3.5800000000000D+00  0.0000000000000D+00  0.0000000000000D+00
   360  3.5900000000000D+00  0.0000000000000D+00  0.0000000000000D+00
   361  3.6000000000000D+00  0.0000000000000D+00  0.0000000000000D+00
   362  3.6100000000000D+00  0.0000000000000D+00  0.0000000000000D+00
   363  3.6200000000000D+00  0.0000000000000D+00  0.0000000000000D+00
   364  3.6300000000000D+00  0.0000000000000D+00  0.0000000000000D+00
   365  3.6400000000000D+00  0.0000000000000D+00  0.0000000000000D+00
   366  3.6500000000000D+00  0.0000000000000D+00  0.0000000000000D+00
   367  3.6600000000000D+00  0.0000000000000D+00  0.0000000000000D+00
   368  3.6700000000000D+00  0.0000000000000D+00  0.0000000000000D+00
   369  3.6800000000000D+00  0.0000000000000D+00  0.0000000000000D+00
   370  3.6900000000000D+00  0.0000000000000D+00  0.0000000000000D+00
   371  3.7000000000000D+00  0.0000000000000D+00  0.0000000000000D+00
   372  3.7100000000000D+00  0.0000000000000D+00  0.0000000000000D+00
   373  3.7200000000000D+00  0.0000000000000D+00  0.0000000000000D+00
   374  3.7300000000000D+00  0.0000000000000D+00  0.0000000000000D+00
   375  3.7400000000000D+00  0.0000000000000D+00  0.0000000000000D+00
   376  3.7500000000000D+00  0.0000000000000D+00  0.0000000000000D+00
   377  3.7600000000000D+00  0.0000000000000D+00  0.0000000000000D+00
   378  3.7700000000000D+00  0.0000000000000D+00  0.0000000000000D+00
   379  3.7800000000000D+00  0.0000000000000D+00  0.0000000000000D+00
   380  3.7900000000000D+00  0.0000000000000D+00  0.0000000000000D+00
   381  3.8000000000000D+00  0.0000000000000D+00  0.0000000000000D+00
   382  3.8100000000000D+00  0.0000000000000D+00  0.0000000000000D+00
   383  3.8200000000000D+00  0.0000000000000D+00  0.0000000000000D+00
   384  3.8300000000000D+00  0.0000000000000D+00  0.0000000000000D+00
   385  3.8400000000000D+00  0.0000000000000D+00  0.0000000000000D+00
   386  3.8500000000000D+00  0.0000000000000D+00  0.0000000000000D+00
   387  3.8600000000000D+00  0.0000000000000D+00  0.0000000000000D+00
   388  3.8700000000000D+00  0.0000000000000D+00  0.0000000000000D+00
   389  3.8800000000000D+00  0.0000000000000D+00  0.0000000000000D+00
   390  3.8900000000000D+00  0.0000000000000D+00  0.0000000000000D+00
   391  3.9000000000000D+00  0.0000000000000D+00  0.0000000000000D+00
   392  3.9100000000000D+00  0.0000000000000D+00  0.0000000000000D+00
   393  3.9200000000000D+00  0.0000000000000D+00  0.0000000000000D+00
   394  3.9300000000000D+00  0.0000000000000D+00  0.0000000000000D+00
   395  3.9400000000000D+00  0.0000000000000D+00  0.0000000000000D+00
   396  3.9500000000000D+00  0.0000000000000D+00  0.0000000000000D+00
   397  3.9600000000000D+00  0.0000000000000D+00  0.0000000000000D+00
   398  3.9700000000000D+00  0.0000000000000D+00  0.0000000000000D+00
   399  3.9800000000000D+00  0.0000000000000D+00  0.0000000000000D+00
   400  3.9900000000000D+00  0.0000000000000D+00  0.0000000000000D+00
   401  4.0000000000000D+00  0.0000000000000D+00  0.0000000000000D+00
   402  4.0100000000000D+00  0.0000000000000D+00  0.0000000000000D+00
   403  4.0200000000000D+00  0.0000000000000D+00  0.0000000000000D+00
   404  4.0300000000000D+00  0.0000000000000D+00  0.0000000000000D+00
   405  4.0400000000000D+00  0.0000000000000D+00  0.0000000000000D+00
   406  4.0500000000000D+00  0.0000000000000D+00  0.0000000000000D+00
   407  4.0600000000000D+00  0.0000000000000D+00  0.0000000000000D+00
   408  4.0700000000000D+00  0.0000000000000D+00  0.0000000000000D+00
   409  4.0800000000000D+00  0.0000000000000D+00  0.0000000000000D+00
   410  4.0900000000000D+00  0.0000000000000D+00  0.0000000000000D+00
   411  4.1000000000000D+00  0.0000000000000D+00  0.0000000000000D+00
   412  4.1100000000000D+00  0.0000000000000D+00  0.0000000000000D+00
   413  4.1200000000000D+00  0.0000000000000D+00  0.0000000000000D+00
   414  4.1300000000000D+00  0.0000000000000D+00  0.0000000000000D+00
   415  4.1400000000000D+00  0.0000000000000D+00  0.0000000000000D+00
   416  4.1500000000000D+00  0.0000000000000D+00  0.0000000000000D+00
   417  4.1600000000000D+00  0.0000000000000D+00  0.0000000000000D+00
   418  4.1700000000000D+00  0.0000000000000D+00  0.0000000000000D+00
   419  4.1800000000000D+00  0.0000000000000D+00  0.0000000000000D+00
   420  4.1900000000000D+00  0.0000000000000D+00  0.0000000000000D+00
   421  4.2000000000000D+00  0.0000000000000D+00  0.0000000000000D+00
   422  4.2100000000000D+00  0.0000000000000D+00  0.0000000000000D+00