Mo    ONCVPSP-3.3.1  r_core=   2.31752   2.51934   2.58017
     42.0000     14.0000      210904    zatom,zion,pspd
     8       2   2     4   600     0    pspcod,pspxc,lmax,lloc,mmax,r2well
  5.99000000  0.00000000  0.00000000    rchrg fchrg qchrg
     2     3     3     0    nproj
     3     1           extension_switch
     4     4     0    nprojso
   0                         1.0411442343882D+00  5.5226045180594D+00
     1  0.0000000000000D+00 -1.6237490518822D-11  6.8896000016139D-12
     2  1.0000000000000D-02 -8.0070909183669D-03  4.9392342645745D-02
     3  2.0000000000000D-02 -1.5991881111855D-02  9.8727769866390D-02
     4  3.0000000000000D-02 -2.3932013276393D-02  1.4794940349662D-01
     5  4.0000000000000D-02 -3.1805017641396D-02  1.9700044011038D-01
     6  5.0000000000000D-02 -3.9588257462059D-02  2.4582418893808D-01
     7  6.0000000000000D-02 -4.7258876570844D-02  2.9436411043589D-01
     8  7.0000000000000D-02 -5.4793749655448D-02  3.4256385571651D-01
     9  8.0000000000000D-02 -6.2169435914321D-02  3.9036730704377D-01
    10  9.0000000000000D-02 -6.9362136720604D-02  4.3771861958482D-01
    11  1.0000000000000D-01 -7.6347657901340D-02  4.8456226460365D-01
    12  1.1000000000000D-01 -8.3101377211066D-02  5.3084307426769D-01
    13  1.2000000000000D-01 -8.9598217547556D-02  5.7650628822631D-01
    14  1.3000000000000D-01 -9.5812626422628D-02  6.2149760210495D-01
    15  1.4000000000000D-01 -1.0171856216282D-01  6.6576321804287D-01
    16  1.5000000000000D-01 -1.0728948727352D-01  7.0924989738493D-01
    17  1.6000000000000D-01 -1.1249836935582D-01  7.5190501561934D-01
    18  1.7000000000000D-01 -1.1731768991860D-01  7.9367661963358D-01
    19  1.8000000000000D-01 -1.2171946137863D-01  8.3451348734012D-01
    20  1.9000000000000D-01 -1.2567525249004D-01  8.7436518970177D-01
    21  2.0000000000000D-01 -1.2915622239040D-01  9.1318215516432D-01
    22  2.1000000000000D-01 -1.3213316339533D-01  9.5091573648104D-01
    23  2.2000000000000D-01 -1.3457655261630D-01  9.8751827988994D-01
    24  2.3000000000000D-01 -1.3645661241801D-01  1.0229431965806D+00
    25  2.4000000000000D-01 -1.3774337967260D-01  1.0571450363637D+00
    26  2.5000000000000D-01 -1.3840678370766D-01  1.0900795634305D+00
    27  2.6000000000000D-01 -1.3841673278531D-01  1.1217038340670D+00
    28  2.7000000000000D-01 -1.3774320888873D-01  1.1519762761617D+00
    29  2.8000000000000D-01 -1.3635637053309D-01  1.1808567703219D+00
    30  2.9000000000000D-01 -1.3422666325796D-01  1.2083067323908D+00
    31  3.0000000000000D-01 -1.3132493740014D-01  1.2342891971336D+00
    32  3.1000000000000D-01 -1.2762257268869D-01  1.2587689028382D+00
    33  3.2000000000000D-01 -1.2309160914788D-01  1.2817123765556D+00
    34  3.3000000000000D-01 -1.1770488374075D-01  1.3030880196839D+00
    35  3.4000000000000D-01 -1.1143617213378D-01  1.3228661935788D+00
    36  3.5000000000000D-01 -1.0426033491479D-01  1.3410193048587D+00
    37  3.6000000000000D-01 -9.6153467549522D-02  1.3575218900520D+00
    38  3.7000000000000D-01 -8.7093053319881D-02  1.3723506992196D+00
    39  3.8000000000000D-01 -7.7058118446810D-02  1.3854847781755D+00
    40  3.9000000000000D-01 -6.6029388565014D-02  1.3969055489094D+00
    41  4.0000000000000D-01 -5.3989445684991D-02  1.4065968878115D+00
    42  4.1000000000000D-01 -4.0922884749781D-02  1.4145452012885D+00
    43  4.2000000000000D-01 -2.6816468870765D-02  1.4207394983526D+00
    44  4.3000000000000D-01 -1.1659282308094D-02  1.4251714597636D+00
    45  4.4000000000000D-01  4.5571197525672D-03  1.4278355033005D+00
    46  4.5000000000000D-01  2.1838565584011D-02  1.4287288447401D+00
    47  4.6000000000000D-01  4.0188126423054D-02  1.4278515541227D+00
    48  4.7000000000000D-01  5.9605982056908D-02  1.4252066068882D+00
    49  4.8000000000000D-01  8.0089293442707D-02  1.4207999294777D+00
    50  4.9000000000000D-01  1.0163208330016D-01  1.4146404389993D+00
    51  5.0000000000000D-01  1.2422512559949D-01  1.4067400765741D+00
    52  5.1000000000000D-01  1.4785584484354D-01  1.3971138339909D+00
    53  5.2000000000000D-01  1.7250822601401D-01  1.3857797733134D+00
    54  5.3000000000000D-01  1.9816273601793D-01  1.3727590391073D+00
    55  5.4000000000000D-01  2.2479625743050D-01  1.3580758629708D+00
    56  5.5000000000000D-01  2.5238203528604D-01  1.3417575600809D+00
    57  5.6000000000000D-01  2.8088963761867D-01  1.3238345174892D+00
    58  5.7000000000000D-01  3.1028493039977D-01  1.3043401739338D+00
    59  5.8000000000000D-01  3.4053006745954D-01  1.2833109909589D+00
    60  5.9000000000000D-01  3.7158349591613D-01  1.2607864151697D+00
    61  6.0000000000000D-01  4.0339997756761D-01  1.2368088314815D+00
    62  6.1000000000000D-01  4.3593062662963D-01  1.2114235072573D+00
    63  6.2000000000000D-01  4.6912296412626D-01  1.1846785272664D+00
    64  6.3000000000000D-01  5.0292098916181D-01  1.1566247194324D+00
    65  6.4000000000000D-01  5.3726526722023D-01  1.1273155713793D+00
    66  6.5000000000000D-01  5.7209303555342D-01  1.0968071378252D+00
    67  6.6000000000000D-01  6.0733832563379D-01  1.0651579389111D+00
    68  6.7000000000000D-01  6.4293210255781D-01  1.0324288495976D+00
    69  6.8000000000000D-01  6.7880242119804D-01  9.9868298030015D-01
    70  6.9000000000000D-01  7.1487459881062D-01  9.6398554897837D-01
    71  7.0000000000000D-01  7.5107140371543D-01  9.2840374493519D-01
    72  7.1000000000000D-01  7.8731325957496D-01  8.9200658462320D-01
    73  7.2000000000000D-01  8.2351846470948D-01  8.5486475979728D-01
    74  7.3000000000000D-01  8.5960342579689D-01  8.1705047839237D-01
    75  7.4000000000000D-01  8.9548290522008D-01  7.7863729854461D-01
    76  7.5000000000000D-01  9.3107028123984D-01  7.3969995621236D-01
    77  7.6000000000000D-01  9.6627782009011D-01  7.0031418689052D-01
    78  7.7000000000000D-01  1.0010169590143D+00  6.6055654194637D-01
    79  7.8000000000000D-01  1.0351985991866D+00  6.2050420013885D-01
    80  7.9000000000000D-01  1.0687334073928D+00  5.8023477491443D-01
    81  8.0000000000000D-01  1.1015321252787D+00  5.3982611810167D-01
    82  8.1000000000000D-01  1.1335058849146D+00  4.9935612065353D-01
    83  8.2000000000000D-01  1.1645665293686D+00  4.5890251111038D-01
    84  8.3000000000000D-01  1.1946269369339D+00  4.1854265247823D-01
    85  8.4000000000000D-01  1.2236013476112D+00  3.7835333823498D-01
    86  8.5000000000000D-01  1.2514056904123D+00  3.3841058819296D-01
    87  8.6000000000000D-01  1.2779579100209D+00  2.9878944495840D-01
    88  8.7000000000000D-01  1.3031782913265D+00  2.5956377173716D-01
    89  8.8000000000000D-01  1.3269897803297D+00  2.2080605224197D-01
    90  8.9000000000000D-01  1.3493182999146D+00  1.8258719345818D-01
    91  9.0000000000000D-01  1.3700930589795D+00  1.4497633202412D-01
    92  9.1000000000000D-01  1.3892468534311D+00  1.0804064497663D-01
    93  9.2000000000000D-01  1.4067163575591D+00  7.1845165604543D-02
    94  9.3000000000000D-01  1.4224424043363D+00  3.6452605140126D-02
    95  9.4000000000000D-01  1.4363702532185D+00  1.9231810034764D-03
    96  9.5000000000000D-01  1.4484498440614D+00 -3.1685547704676D-02
    97  9.6000000000000D-01  1.4586360358152D+00 -6.4318836788661D-02
    98  9.7000000000000D-01  1.4668888287178D+00 -9.5924904974964D-02
    99  9.8000000000000D-01  1.4731735687650D+00 -1.2645507274279D-01
   100  9.9000000000000D-01  1.4774611333091D+00 -1.5586389138309D-01
   101  1.0000000000000D+00  1.4797280967091D+00 -1.8410926173496D-01
   102  1.0100000000000D+00  1.4799568750418D+00 -2.1115254208842D-01
   103  1.0200000000000D+00  1.4781358489689D+00 -2.3695864478234D-01
   104  1.0300000000000D+00  1.4742594639492D+00 -2.6149612106995D-01
   105  1.0400000000000D+00  1.4683283070811D+00 -2.8473723386992D-01
   106  1.0500000000000D+00  1.4603491599711D+00 -3.0665801807073D-01
   107  1.0600000000000D+00  1.4503350271172D+00 -3.2723832810068D-01
   108  1.0700000000000D+00  1.4383051394192D+00 -3.4646187253328D-01
   109  1.0800000000000D+00  1.4242849325349D+00 -3.6431623554611D-01
   110  1.0900000000000D+00  1.4083059999139D+00 -3.8079288510594D-01
   111  1.1000000000000D+00  1.3904060204679D+00 -3.9588716781049D-01
   112  1.1100000000000D+00  1.3706286609307D+00 -4.0959829036248D-01
   113  1.1200000000000D+00  1.3490234531068D+00 -4.2192928771976D-01
   114  1.1300000000000D+00  1.3256456463030D+00 -4.3288697801002D-01
   115  1.1400000000000D+00  1.3005560353704D+00 -4.4248190436203D-01
   116  1.1500000000000D+00  1.2738207648724D+00 -4.5072826384623D-01
   117  1.1600000000000D+00  1.2455111100337D+00 -4.5764382378541D-01
   118  1.1700000000000D+00  1.2157032352180D+00 -4.6324982573874D-01
   119  1.1800000000000D+00  1.1844779307980D+00 -4.6757087752054D-01
   120  1.1900000000000D+00  1.1519203293501D+00 -4.7063483364646D-01
   121  1.2000000000000D+00  1.1181196022475D+00 -4.7247266467008D-01
   122  1.2100000000000D+00  1.0831686377875D+00 -4.7311831590362D-01
   123  1.2200000000000D+00  1.0471637020648D+00 -4.7260855605441D-01
   124  1.2300000000000D+00  1.0102040838961D+00 -4.7098281635559D-01
   125  1.2400000000000D+00  9.7239172517355D-01 -4.6828302080780D-01
   126  1.2500000000000D+00  9.3383083807156D-01 -4.6455340817247D-01
   127  1.2600000000000D+00  8.9462751058557D-01 -4.5984034638765D-01
   128  1.2700000000000D+00  8.5488930195311D-01 -4.5419214011593D-01
   129  1.2800000000000D+00  8.1472482951417D-01 -4.4765883214127D-01
   130  1.2900000000000D+00  7.7424334860996D-01 -4.4029199935402D-01
   131  1.3000000000000D+00  7.3355432714991D-01 -4.3214454408819D-01
   132  1.3100000000000D+00  6.9276701646367D-01 -4.2327048157079D-01
   133  1.3200000000000D+00  6.5199002008571D-01 -4.1372472426164D-01
   134  1.3300000000000D+00  6.1133086208748D-01 -4.0356286386035D-01
   135  1.3400000000000D+00  5.7089555656815D-01 -3.9284095175379D-01
   136  1.3500000000000D+00  5.3078817991221D-01 -3.8161527868472D-01
   137  1.3600000000000D+00  4.9111044731865D-01 -3.6994215438851D-01
   138  1.3700000000000D+00  4.5196129517085D-01 -3.5787768796632D-01
   139  1.3800000000000D+00  4.1343647067969D-01 -3.4547756972152D-01
   140  1.3900000000000D+00  3.7562813016478D-01 -3.3279685515730D-01
   141  1.4000000000000D+00  3.3862444742382D-01 -3.1988975186881D-01
   142  1.4100000000000D+00  3.0250923330979D-01 -3.0680940993964D-01
   143  1.4200000000000D+00  2.6736156782100D-01 -2.9360771652099D-01
   144  1.4300000000000D+00  2.3325544577904D-01 -2.8033509518725D-01
   145  1.4400000000000D+00  2.0025943700044D-01 -2.6704031059083D-01
   146  1.4500000000000D+00  1.6843636211173D-01 -2.5377027904001D-01
   147  1.4600000000000D+00  1.3784298451966D-01 -2.4056988536519D-01
   148  1.4700000000000D+00  1.0852971953758D-01 -2.2748180663720D-01
   149  1.4800000000000D+00  8.0540361084371D-02 -2.1454634306425D-01
   150  1.4900000000000D+00  5.3911826481486D-02 -2.0180125643438D-01
   151  1.5000000000000D+00  2.8673878872197D-02 -1.8928160442059D-01
   152  1.5100000000000D+00  4.8491646309654D-03 -1.7701966987428D-01
   153  1.5200000000000D+00 -1.7547431152786D-02 -1.6504469287267D-01
   154  1.5300000000000D+00 -3.8509475707473D-02 -1.5338259546720D-01
   155  1.5400000000000D+00 -5.8036768861650D-02 -1.4205655010994D-01
   156  1.5500000000000D+00 -7.6134386758600D-02 -1.3108719357650D-01
   157  1.5600000000000D+00 -9.2815263059011D-02 -1.2049183514076D-01
   158  1.5700000000000D+00 -1.0809968814832D-01 -1.1028456382724D-01
   159  1.5800000000000D+00 -1.2201237717829D-01 -1.0047706078603D-01
   160  1.5900000000000D+00 -1.3458168267431D-01 -9.1078822816361D-02
   161  1.6000000000000D+00 -1.4583894399284D-01 -8.2097367604574D-02
   162  1.6100000000000D+00 -1.5581822810959D-01 -7.3538314785615D-02
   163  1.6200000000000D+00 -1.6455649958055D-01 -6.5405349889138D-02
   164  1.6300000000000D+00 -1.7209328371341D-01 -5.7700336256631D-02
   165  1.6400000000000D+00 -1.7847047267068D-01 -5.0423388241153D-02
   166  1.6500000000000D+00 -1.8373212637213D-01 -4.3572948174747D-02
   167  1.6600000000000D+00 -1.8792426021687D-01 -3.7145869186714D-02
   168  1.6700000000000D+00 -1.9109462717826D-01 -3.1137501654483D-02
   169  1.6800000000000D+00 -1.9329249561182D-01 -2.5541782719718D-02
   170  1.6900000000000D+00 -1.9456842385815D-01 -2.0351328471304D-02
   171  1.7000000000000D+00 -1.9497403281996D-01 -1.5557528282112D-02
   172  1.7100000000000D+00 -1.9456177778230D-01 -1.1150640826821D-02
   173  1.7200000000000D+00 -1.9338472043937D-01 -7.1198913424810D-03
   174  1.7300000000000D+00 -1.9149630260178D-01 -3.4535695793468D-03
   175  1.7400000000000D+00 -1.8895012225077D-01 -1.3912810804832D-04
   176  1.7500000000000D+00 -1.8579971364955D-01  2.8367196603723D-03
   177  1.7600000000000D+00 -1.8209833183241D-01  5.4879019505061D-03
   178  1.7700000000000D+00 -1.7789874337085D-01  7.8288923153939D-03
   179  1.7800000000000D+00 -1.7325302344290D-01  9.8746146435441D-03
   180  1.7900000000000D+00 -1.6821236116411D-01  1.1640350233814D-02
   181  1.8000000000000D+00 -1.6282687303180D-01  1.3141646964828D-02
   182  1.8100000000000D+00 -1.5714542630822D-01  1.4394231276053D-02
   183  1.8200000000000D+00 -1.5121547221392D-01  1.5413922986465D-02
   184  1.8300000000000D+00 -1.4508289035553D-01  1.6216553531924D-02
   185  1.8400000000000D+00 -1.3879184455603D-01  1.6817887748978D-02
   186  1.8500000000000D+00 -1.3238465077167D-01  1.7233549522559D-02
   187  1.8600000000000D+00 -1.2590165789792D-01  1.7478951654544D-02
   188  1.8700000000000D+00 -1.1938114104022D-01  1.7569229865514D-02
   189  1.8800000000000D+00 -1.1285920902558D-01  1.7519181647140D-02
   190  1.8900000000000D+00 -1.0636972433841D-01  1.7343209359173D-02
   191  1.9000000000000D+00 -9.9944238227190D-02  1.7055268654948D-02
   192  1.9100000000000D+00 -9.3611938366129D-02  1.6668821324412D-02
   193  1.9200000000000D+00 -8.7399611519605D-02  1.6196793535822D-02
   194  1.9300000000000D+00 -8.1331619329149D-02  1.5651538832222D-02
   195  1.9400000000000D+00 -7.5429888077440D-02  1.5044806271346D-02
   196  1.9500000000000D+00 -6.9713912173897D-02  1.4387713675361D-02
   197  1.9600000000000D+00 -6.4200770101695D-02  1.3690725575757D-02
   198  1.9700000000000D+00 -5.8905154349415D-02  1.2963636503539D-02
   199  1.9800000000000D+00 -5.3839412365930D-02  1.2215558548077D-02
   200  1.9900000000000D+00 -4.9013600719583D-02  1.1454914100860D-02
   201  2.0000000000000D+00 -4.4435549656821D-02  1.0689432755426D-02
   202  2.0100000000000D+00 -4.0110938739005D-02  9.9261527036397D-03
   203  2.0200000000000D+00 -3.6043382712699D-02  9.1714263650013D-03
   204  2.0300000000000D+00 -3.2234525982875D-02  8.4309296695503D-03
   205  2.0400000000000D+00 -2.8684146546073D-02  7.7096754263694D-03
   206  2.0500000000000D+00 -2.5390266726321D-02  7.0120297600817D-03
   207  2.0600000000000D+00 -2.2349271342837D-02  6.3417319788465D-03
   208  2.0700000000000D+00 -1.9556031624734D-02  5.7019172415478D-03
   209  2.0800000000000D+00 -1.7004034025319D-02  5.0951417606592D-03
   210  2.0900000000000D+00 -1.4685513418400D-02  4.5234104438500D-03
   211  2.1000000000000D+00 -1.2591589223893D-02  3.9882063757937D-03
   212  2.1100000000000D+00 -1.0712403779237D-02  3.4905220463277D-03
   213  2.1200000000000D+00 -9.0372619964176D-03  3.0308919093879D-03
   214  2.1300000000000D+00 -7.5547713068130D-03  2.6094259667728D-03
   215  2.1400000000000D+00 -6.2529806304264D-03  2.2258439944546D-03
   216  2.1500000000000D+00 -5.1195183839598D-03  1.8795103237190D-03
   217  2.1600000000000D+00 -4.1417271682777D-03  1.5694684772048D-03
   218  2.1700000000000D+00 -3.3067954672838D-03  1.2944757006387D-03
   219  2.1800000000000D+00 -2.6018854118129D-03  1.0530370735939D-03
   220  2.1900000000000D+00 -2.0142542590835D-03  8.4343844329180D-04
   221  2.2000000000000D+00 -1.5313715596328D-03  6.6377877200521D-04
   222  2.2100000000000D+00 -1.1410284749843D-03  5.1200074961399D-04
   223  2.2200000000000D+00 -8.3143968036987D-04  3.8591978742122D-04
   224  2.2300000000000D+00 -5.9133914040312D-04  2.8325179977231D-04
   225  2.2400000000000D+00 -4.1009871432470D-04  2.0164323206150D-04
   226  2.2500000000000D+00 -2.7771772279993D-04  1.3868101468462D-04
   227  2.2600000000000D+00 -1.8484942599892D-04  9.1907140897140D-05
   228  2.2700000000000D+00 -1.2261366203246D-04  5.8722847884362D-05
   229  2.2800000000000D+00 -8.4337131309038D-05  3.6938585881945D-05
   230  2.2900000000000D+00 -6.4062560803862D-05  2.4319696071896D-05
   231  2.3000000000000D+00 -5.7706966629533D-05  1.9072718402101D-05
   232  2.3100000000000D+00 -5.4434896901699D-05  1.6824195353662D-05
   233  2.3200000000000D+00 -4.5956504268647D-05  1.4024404775967D-05
   234  2.3300000000000D+00 -2.7887896502152D-05  8.5011447041021D-06
   235  2.3400000000000D+00 -8.5407668433873D-06  2.6179199666556D-06
   236  2.3500000000000D+00  3.3788279792264D-06 -1.0093984399564D-06
   237  2.3600000000000D+00  4.9862950971124D-06 -1.4882313557307D-06
   238  2.3700000000000D+00  1.5793609024262D-06 -4.7131166418907D-07
   239  2.3800000000000D+00 -8.5198231658726D-07  2.5104758349929D-07
   240  2.3900000000000D+00 -1.0670427855925D-06  3.1380482379144D-07
   241  2.4000000000000D+00 -2.1853866647811D-07  6.4165667340517D-08
   242  2.4100000000000D+00  1.1543273580690D-07 -3.5312091221401D-08
   243  2.4200000000000D+00  1.2553206368282D-07 -3.8401582124796D-08
   244  2.4300000000000D+00  1.1253792028620D-08 -3.4426536625286D-09
   245  2.4400000000000D+00  0.0000000000000D+00  0.0000000000000D+00
   246  2.4500000000000D+00  0.0000000000000D+00  0.0000000000000D+00
   247  2.4600000000000D+00  0.0000000000000D+00  0.0000000000000D+00
   248  2.4700000000000D+00  0.0000000000000D+00  0.0000000000000D+00
   249  2.4800000000000D+00  0.0000000000000D+00  0.0000000000000D+00
   250  2.4900000000000D+00  0.0000000000000D+00  0.0000000000000D+00
   251  2.5000000000000D+00  0.0000000000000D+00  0.0000000000000D+00
   252  2.5100000000000D+00  0.0000000000000D+00  0.0000000000000D+00
   253  2.5200000000000D+00  0.0000000000000D+00  0.0000000000000D+00
   254  2.5300000000000D+00  0.0000000000000D+00  0.0000000000000D+00
   255  2.5400000000000D+00  0.0000000000000D+00  0.0000000000000D+00
   256  2.5500000000000D+00  0.0000000000000D+00  0.0000000000000D+00
   257  2.5600000000000D+00  0.0000000000000D+00  0.0000000000000D+00
   258  2.5700000000000D+00  0.0000000000000D+00  0.0000000000000D+00
   259  2.5800000000000D+00  0.0000000000000D+00  0.0000000000000D+00
   260  2.5900000000000D+00  0.0000000000000D+00  0.0000000000000D+00
   261  2.6000000000000D+00  0.0000000000000D+00  0.0000000000000D+00
   262  2.6100000000000D+00  0.0000000000000D+00  0.0000000000000D+00
   263  2.6200000000000D+00  0.0000000000000D+00  0.0000000000000D+00
   264  2.6300000000000D+00  0.0000000000000D+00  0.0000000000000D+00
   265  2.6400000000000D+00  0.0000000000000D+00  0.0000000000000D+00
   266  2.6500000000000D+00  0.0000000000000D+00  0.0000000000000D+00
   267  2.6600000000000D+00  0.0000000000000D+00  0.0000000000000D+00
   268  2.6700000000000D+00  0.0000000000000D+00  0.0000000000000D+00
   269  2.6800000000000D+00  0.0000000000000D+00  0.0000000000000D+00
   270  2.6900000000000D+00  0.0000000000000D+00  0.0000000000000D+00
   271  2.7000000000000D+00  0.0000000000000D+00  0.0000000000000D+00
   272  2.7100000000000D+00  0.0000000000000D+00  0.0000000000000D+00
   273  2.7200000000000D+00  0.0000000000000D+00  0.0000000000000D+00
   274  2.7300000000000D+00  0.0000000000000D+00  0.0000000000000D+00
   275  2.7400000000000D+00  0.0000000000000D+00  0.0000000000000D+00
   276  2.7500000000000D+00  0.0000000000000D+00  0.0000000000000D+00
   277  2.7600000000000D+00  0.0000000000000D+00  0.0000000000000D+00
   278  2.7700000000000D+00  0.0000000000000D+00  0.0000000000000D+00
   279  2.7800000000000D+00  0.0000000000000D+00  0.0000000000000D+00
   280  2.7900000000000D+00  0.0000000000000D+00  0.0000000000000D+00
   281  2.8000000000000D+00  0.0000000000000D+00  0.0000000000000D+00
   282  2.8100000000000D+00  0.0000000000000D+00  0.0000000000000D+00
   283  2.8200000000000D+00  0.0000000000000D+00  0.0000000000000D+00
   284  2.8300000000000D+00  0.0000000000000D+00  0.0000000000000D+00
   285  2.8400000000000D+00  0.0000000000000D+00  0.0000000000000D+00
   286  2.8500000000000D+00  0.0000000000000D+00  0.0000000000000D+00
   287  2.8600000000000D+00  0.0000000000000D+00  0.0000000000000D+00
   288  2.8700000000000D+00  0.0000000000000D+00  0.0000000000000D+00
   289  2.8800000000000D+00  0.0000000000000D+00  0.0000000000000D+00
   290  2.8900000000000D+00  0.0000000000000D+00  0.0000000000000D+00
   291  2.9000000000000D+00  0.0000000000000D+00  0.0000000000000D+00
   292  2.9100000000000D+00  0.0000000000000D+00  0.0000000000000D+00
   293  2.9200000000000D+00  0.0000000000000D+00  0.0000000000000D+00
   294  2.9300000000000D+00  0.0000000000000D+00  0.0000000000000D+00
   295  2.9400000000000D+00  0.0000000000000D+00  0.0000000000000D+00
   296  2.9500000000000D+00  0.0000000000000D+00  0.0000000000000D+00
   297  2.9600000000000D+00  0.0000000000000D+00  0.0000000000000D+00
   298  2.9700000000000D+00  0.0000000000000D+00  0.0000000000000D+00
   299  2.9800000000000D+00  0.0000000000000D+00  0.0000000000000D+00
   300  2.9900000000000D+00  0.0000000000000D+00  0.0000000000000D+00
   301  3.0000000000000D+00  0.0000000000000D+00  0.0000000000000D+00
   302  3.0100000000000D+00  0.0000000000000D+00  0.0000000000000D+00
   303  3.0200000000000D+00  0.0000000000000D+00  0.0000000000000D+00
   304  3.0300000000000D+00  0.0000000000000D+00  0.0000000000000D+00
   305  3.0400000000000D+00  0.0000000000000D+00  0.0000000000000D+00
   306  3.0500000000000D+00  0.0000000000000D+00  0.0000000000000D+00
   307  3.0600000000000D+00  0.0000000000000D+00  0.0000000000000D+00
   308  3.0700000000000D+00  0.0000000000000D+00  0.0000000000000D+00
   309  3.0800000000000D+00  0.0000000000000D+00  0.0000000000000D+00
   310  3.0900000000000D+00  0.0000000000000D+00  0.0000000000000D+00
   311  3.1000000000000D+00  0.0000000000000D+00  0.0000000000000D+00
   312  3.1100000000000D+00  0.0000000000000D+00  0.0000000000000D+00
   313  3.1200000000000D+00  0.0000000000000D+00  0.0000000000000D+00
   314  3.1300000000000D+00  0.0000000000000D+00  0.0000000000000D+00
   315  3.1400000000000D+00  0.0000000000000D+00  0.0000000000000D+00
   316  3.1500000000000D+00  0.0000000000000D+00  0.0000000000000D+00
   317  3.1600000000000D+00  0.0000000000000D+00  0.0000000000000D+00
   318  3.1700000000000D+00  0.0000000000000D+00  0.0000000000000D+00
   319  3.1800000000000D+00  0.0000000000000D+00  0.0000000000000D+00
   320  3.1900000000000D+00  0.0000000000000D+00  0.0000000000000D+00
   321  3.2000000000000D+00  0.0000000000000D+00  0.0000000000000D+00
   322  3.2100000000000D+00  0.0000000000000D+00  0.0000000000000D+00
   323  3.2200000000000D+00  0.0000000000000D+00  0.0000000000000D+00
   324  3.2300000000000D+00  0.0000000000000D+00  0.0000000000000D+00
   325  3.2400000000000D+00  0.0000000000000D+00  0.0000000000000D+00
   326  3.2500000000000D+00  0.0000000000000D+00  0.0000000000000D+00
   327  3.2600000000000D+00  0.0000000000000D+00  0.0000000000000D+00
   328  3.2700000000000D+00  0.0000000000000D+00  0.0000000000000D+00
   329  3.2800000000000D+00  0.0000000000000D+00  0.0000000000000D+00
   330  3.2900000000000D+00  0.0000000000000D+00  0.0000000000000D+00
   331  3.3000000000000D+00  0.0000000000000D+00  0.0000000000000D+00
   332  3.3100000000000D+00  0.0000000000000D+00  0.0000000000000D+00
   333  3.3200000000000D+00  0.0000000000000D+00  0.0000000000000D+00
   334  3.3300000000000D+00  0.0000000000000D+00  0.0000000000000D+00
   335  3.3400000000000D+00  0.0000000000000D+00  0.0000000000000D+00
   336  3.3500000000000D+00  0.0000000000000D+00  0.0000000000000D+00
   337  3.3600000000000D+00  0.0000000000000D+00  0.0000000000000D+00
   338  3.3700000000000D+00  0.0000000000000D+00  0.0000000000000D+00
   339  3.3800000000000D+00  0.0000000000000D+00  0.0000000000000D+00
   340  3.3900000000000D+00  0.0000000000000D+00  0.0000000000000D+00
   341  3.4000000000000D+00  0.0000000000000D+00  0.0000000000000D+00
   342  3.4100000000000D+00  0.0000000000000D+00  0.0000000000000D+00
   343  3.4200000000000D+00  0.0000000000000D+00  0.0000000000000D+00
   344  3.4300000000000D+00  0.0000000000000D+00  0.0000000000000D+00
   345  3.4400000000000D+00  0.0000000000000D+00  0.0000000000000D+00
   346  3.4500000000000D+00  0.0000000000000D+00  0.0000000000000D+00
   347  3.4600000000000D+00  0.0000000000000D+00  0.0000000000000D+00
   348  3.4700000000000D+00  0.0000000000000D+00  0.0000000000000D+00
   349  3.4800000000000D+00  0.0000000000000D+00  0.0000000000000D+00
   350  3.4900000000000D+00  0.0000000000000D+00  0.0000000000000D+00
   351  3.5000000000000D+00  0.0000000000000D+00  0.0000000000000D+00
   352  3.5100000000000D+00  0.0000000000000D+00  0.0000000000000D+00
   353  3.5200000000000D+00  0.0000000000000D+00  0.0000000000000D+00
   354  3.5300000000000D+00  0.0000000000000D+00  0.0000000000000D+00
   355  3.5400000000000D+00  0.0000000000000D+00  0.0000000000000D+00
   356  3.5500000000000D+00  0.0000000000000D+00  0.0000000000000D+00
   357  3.5600000000000D+00  0.0000000000000D+00  0.0000000000000D+00
   358  3.5700000000000D+00  0.0000000000000D+00  0.0000000000000D+00
   359  3.5800000000000D+00  0.0000000000000D+00  0.0000000000000D+00
   360  3.5900000000000D+00  0.0000000000000D+00  0.0000000000000D+00
   361  3.6000000000000D+00  0.0000000000000D+00  0.0000000000000D+00
   362  3.6100000000000D+00  0.0000000000000D+00  0.0000000000000D+00
   363  3.6200000000000D+00  0.0000000000000D+00  0.0000000000000D+00
   364  3.6300000000000D+00  0.0000000000000D+00  0.0000000000000D+00
   365  3.6400000000000D+00  0.0000000000000D+00  0.0000000000000D+00
   366  3.6500000000000D+00  0.0000000000000D+00  0.0000000000000D+00
   367  3.6600000000000D+00  0.0000000000000D+00  0.0000000000000D+00
   368  3.6700000000000D+00  0.0000000000000D+00  0.0000000000000D+00
   369  3.6800000000000D+00  0.0000000000000D+00  0.0000000000000D+00
   370  3.6900000000000D+00  0.0000000000000D+00  0.0000000000000D+00
   371  3.7000000000000D+00  0.0000000000000D+00  0.0000000000000D+00
   372  3.7100000000000D+00  0.0000000000000D+00  0.0000000000000D+00
   373  3.7200000000000D+00  0.0000000000000D+00  0.0000000000000D+00
   374  3.7300000000000D+00  0.0000000000000D+00  0.0000000000000D+00
   375  3.7400000000000D+00  0.0000000000000D+00  0.0000000000000D+00
   376  3.7500000000000D+00  0.0000000000000D+00  0.0000000000000D+00
   377  3.7600000000000D+00  0.0000000000000D+00  0.0000000000000D+00
   378  3.7700000000000D+00  0.0000000000000D+00  0.0000000000000D+00
   379  3.7800000000000D+00  0.0000000000000D+00  0.0000000000000D+00
   380  3.7900000000000D+00  0.0000000000000D+00  0.0000000000000D+00
   381  3.8000000000000D+00  0.0000000000000D+00  0.0000000000000D+00
   382  3.8100000000000D+00  0.0000000000000D+00  0.0000000000000D+00
   383  3.8200000000000D+00  0.0000000000000D+00  0.0000000000000D+00
   384  3.8300000000000D+00  0.0000000000000D+00  0.0000000000000D+00
   385  3.8400000000000D+00  0.0000000000000D+00  0.0000000000000D+00
   386  3.8500000000000D+00  0.0000000000000D+00  0.0000000000000D+00
   387  3.8600000000000D+00  0.0000000000000D+00  0.0000000000000D+00
   388  3.8700000000000D+00  0.0000000000000D+00  0.0000000000000D+00
   389  3.8800000000000D+00  0.0000000000000D+00  0.0000000000000D+00
   390  3.8900000000000D+00  0.0000000000000D+00  0.0000000000000D+00
   391  3.9000000000000D+00  0.0000000000000D+00  0.0000000000000D+00
   392  3.9100000000000D+00  0.0000000000000D+00  0.0000000000000D+00
   393  3.9200000000000D+00  0.0000000000000D+00  0.0000000000000D+00
   394  3.9300000000000D+00  0.0000000000000D+00  0.0000000000000D+00
   395  3.9400000000000D+00  0.0000000000000D+00  0.0000000000000D+00
   396  3.9500000000000D+00  0.0000000000000D+00  0.0000000000000D+00
   397  3.9600000000000D+00  0.0000000000000D+00  0.0000000000000D+00
   398  3.9700000000000D+00  0.0000000000000D+00  0.0000000000000D+00
   399  3.9800000000000D+00  0.0000000000000D+00  0.0000000000000D+00
   400  3.9900000000000D+00  0.0000000000000D+00  0.0000000000000D+00
   401  4.0000000000000D+00  0.0000000000000D+00  0.0000000000000D+00
   402  4.0100000000000D+00  0.0000000000000D+00  0.0000000000000D+00
   403  4.0200000000000D+00  0.0000000000000D+00  0.0000000000000D+00
   404  4.0300000000000D+00  0.0000000000000D+00  0.0000000000000D+00
   405  4.0400000000000D+00  0.0000000000000D+00  0.0000000000000D+00
   406  4.0500000000000D+00  0.0000000000000D+00  0.0000000000000D+00
   407  4.0600000000000D+00  0.0000000000000D+00  0.0000000000000D+00
   408  4.0700000000000D+00  0.0000000000000D+00  0.0000000000000D+00
   409  4.0800000000000D+00  0.0000000000000D+00  0.0000000000000D+00
   410  4.0900000000000D+00  0.0000000000000D+00  0.0000000000000D+00
   411  4.1000000000000D+00  0.0000000000000D+00  0.0000000000000D+00
   412  4.1100000000000D+00  0.0000000000000D+00  0.0000000000000D+00
   413  4.1200000000000D+00  0.0000000000000D+00  0.0000000000000D+00
   414  4.1300000000000D+00  0.0000000000000D+00  0.0000000000000D+00
   415  4.1400000000000D+00  0.0000000000000D+00  0.0000000000000D+00
   416  4.1500000000000D+00  0.0000000000000D+00  0.0000000000000D+00
   417  4.1600000000000D+00  0.0000000000000D+00  0.0000000000000D+00
   418  4.1700000000000D+00  0.0000000000000D+00  0.0000000000000D+00
   419  4.1800000000000D+00  0.0000000000000D+00  0.0000000000000D+00
   420  4.1900000000000D+00  0.0000000000000D+00  0.0000000000000D+00
   421  4.2000000000000D+00  0.0000000000000D+00  0.0000000000000D+00
   422  4.2100000000000D+00  0.0000000000000D+00  0.0000000000000D+00