N     ONCVPSP-3.3.1  r_core=   1.60510   1.53031
      7.0000      5.0000      210904    zatom,zion,pspd
     8       2   1     4   600     0    pspcod,pspxc,lmax,lloc,mmax,r2well
  5.99000000  0.00000000  0.00000000    rchrg fchrg qchrg
     2     2     0     0     0    nproj
     1     1           extension_switch
   0                         7.1189760503547D+00  1.0033398913263D+00
     1  0.0000000000000D+00  4.2576941972072D-11 -1.9298246334287D-10
     2  1.0000000000000D-02  8.6914272078830D-02 -3.8148756550038D-02
     3  2.0000000000000D-02  1.7359947093872D-01 -7.6072070195198D-02
     4  3.0000000000000D-02  2.5982720660008D-01 -1.1354525648147D-01
     5  4.0000000000000D-02  3.4537045429566D-01 -1.5034514830349D-01
     6  5.0000000000000D-02  4.3000423389933D-01 -1.8625085564596D-01
     7  6.0000000000000D-02  5.1350628551104D-01 -2.2104452646582D-01
     8  7.0000000000000D-02  5.9565773986516D-01 -2.5451210886506D-01
     9  8.0000000000000D-02  6.7624378218723D-01 -2.8644411451090D-01
    10  9.0000000000000D-02  7.5505430807244D-01 -3.1663638302488D-01
    11  1.0000000000000D-01  8.3188456989991D-01 -3.4489084678834D-01
    12  1.1000000000000D-01  9.0653581223107D-01 -3.7101629530319D-01
    13  1.2000000000000D-01  9.7881589456956D-01 -3.9482913790935D-01
    14  1.3000000000000D-01  1.0485398997856D+00 -4.1615416329837D-01
    15  1.4000000000000D-01  1.1155307264323D+00 -4.3482529388354D-01
    16  1.5000000000000D-01  1.1796196631045D+00 -4.5068633269551D-01
    17  1.6000000000000D-01  1.2406469429190D+00 -4.6359170007693D-01
    18  1.7000000000000D-01  1.2984622761228D+00 -4.7340715705544D-01
    19  1.8000000000000D-01  1.3529253587763D+00 -4.8001051188991D-01
    20  1.9000000000000D-01  1.4039063553988D+00 -4.8329230591597D-01
    21  2.0000000000000D-01  1.4512863534235D+00 -4.8315647447137D-01
    22  2.1000000000000D-01  1.4949577872727D+00 -4.7952097836640D-01
    23  2.2000000000000D-01  1.5348248298476D+00 -4.7231840108543D-01
    24  2.3000000000000D-01  1.5708037492238D+00 -4.6149650667012D-01
    25  2.4000000000000D-01  1.6028232283566D+00 -4.4701875304749D-01
    26  2.5000000000000D-01  1.6308246456384D+00 -4.2886475543371D-01
    27  2.6000000000000D-01  1.6547623141970D+00 -4.0703069437075D-01
    28  2.7000000000000D-01  1.6746036779075D+00 -3.8152966294276D-01
    29  2.8000000000000D-01  1.6903294621787D+00 -3.5239194777618D-01
    30  2.9000000000000D-01  1.7019337777033D+00 -3.1966523855316D-01
    31  3.0000000000000D-01  1.7094241754968D+00 -2.8341476096620D-01
    32  3.1000000000000D-01  1.7128216517215D+00 -2.4372332831174D-01
    33  3.2000000000000D-01  1.7121606009772D+00 -2.0069130726328D-01
    34  3.3000000000000D-01  1.7074887169540D+00 -1.5443649377954D-01
    35  3.4000000000000D-01  1.6988668395741D+00 -1.0509389558755D-01
    36  3.5000000000000D-01  1.6863687480021D+00 -5.2815418233229D-02
    37  3.6000000000000D-01  1.6700808991776D+00  2.2305476918632D-03
    38  3.7000000000000D-01  1.6501021118120D+00  5.9859639863339D-02
    39  3.8000000000000D-01  1.6265431960974D+00  1.1987213906209D-01
    40  3.9000000000000D-01  1.5995265296927D+00  1.8205368574546D-01
    41  4.0000000000000D-01  1.5691855808845D+00  2.4617609774040D-01
    42  4.1000000000000D-01  1.5356643801536D+00  3.1199828759484D-01
    43  4.2000000000000D-01  1.4991169417256D+00  3.7926727724582D-01
    44  4.3000000000000D-01  1.4597066370265D+00  4.4771930676847D-01
    45  4.4000000000000D-01  1.4176055223109D+00  5.1708103306840D-01
    46  4.5000000000000D-01  1.3729936230706D+00  5.8707081348080D-01
    47  4.6000000000000D-01  1.3260581781675D+00  6.5740006835228D-01
    48  4.7000000000000D-01  1.2769928469545D+00  7.2777471581623D-01
    49  4.8000000000000D-01  1.2259968829634D+00  7.9789667113994D-01
    50  4.9000000000000D-01  1.1732742780269D+00  8.6746540223017D-01
    51  5.0000000000000D-01  1.1190328809783D+00  9.3617953214455D-01
    52  5.1000000000000D-01  1.0634834953195D+00  1.0037384787783D+00
    53  5.2000000000000D-01  1.0068389604737D+00  1.0698441212866D+00
    54  5.3000000000000D-01  9.4931322143229D-01  1.1342024822734D+00
    55  5.4000000000000D-01  8.9112039176836D-01  1.1965254143329D+00
    56  5.5000000000000D-01  8.3247381512112D-01  1.2565322791795D+00
    57  5.6000000000000D-01  7.7358513034630D-01  1.3139516073484D+00
    58  5.7000000000000D-01  7.1466334558641D-01  1.3685227263017D+00
    59  5.8000000000000D-01  6.5591392653174D-01  1.4199973447362D+00
    60  5.9000000000000D-01  5.9753790412133D-01  1.4681410809565D+00
    61  6.0000000000000D-01  5.3973100687139D-01  1.5127349233651D+00
    62  6.1000000000000D-01  4.8268282291548D-01  1.5535766114164D+00
    63  6.2000000000000D-01  4.2657599669937D-01  1.5904819257920D+00
    64  6.3000000000000D-01  3.7158546508914D-01  1.6232858770777D+00
    65  6.4000000000000D-01  3.1787773743176D-01  1.6518437828501D+00
    66  6.5000000000000D-01  2.6561022384762D-01  1.6760322238149D+00
    67  6.6000000000000D-01  2.1493061574033D-01  1.6957498704703D+00
    68  6.7000000000000D-01  1.6597632218290D-01  1.7109181726887D+00
    69  6.8000000000000D-01  1.1887396547937D-01  1.7214819056175D+00
    70  6.9000000000000D-01  7.3738938815577D-02  1.7274095663793D+00
    71  7.0000000000000D-01  3.0675028500519D-02  1.7286936171967D+00
    72  7.1000000000000D-01 -1.0225897130879D-02  1.7253505717597D+00
    73  7.2000000000000D-01 -4.8884130535754D-02  1.7174209229032D+00
    74  7.3000000000000D-01 -8.5232298346376D-02  1.7049689109247D+00
    75  7.4000000000000D-01 -1.1921546463672D-01  1.6880821331636D+00
    76  7.5000000000000D-01 -1.5079116387049D-01  1.6668709967554D+00
    77  7.6000000000000D-01 -1.7992936380725D-01  1.6414680177565D+00
    78  7.7000000000000D-01 -2.0661235912108D-01  1.6120269710967D+00
    79  7.8000000000000D-01 -2.3083459695462D-01  1.5787218970433D+00
    80  7.9000000000000D-01 -2.5260243608774D-01  1.5417459710371D+00
    81  8.0000000000000D-01 -2.7193384184061D-01  1.5013102448750D+00
    82  8.1000000000000D-01 -2.8885801925059D-01  1.4576422682590D+00
    83  8.2000000000000D-01 -3.0341498745781D-01  1.4109846006867D+00
    84  8.3000000000000D-01 -3.1565509860143D-01  1.3615932245225D+00
    85  8.4000000000000D-01 -3.2563850486448D-01  1.3097358708423D+00
    86  8.5000000000000D-01 -3.3343457760597D-01  1.2556902702918D+00
    87  8.6000000000000D-01 -3.3912128278287D-01  1.1997423417163D+00
    88  8.7000000000000D-01 -3.4278451708818D-01  1.1421843317147D+00
    89  8.8000000000000D-01 -3.4451740941375D-01  1.0833129185333D+00
    90  8.9000000000000D-01 -3.4441959238498D-01  1.0234272938385D+00
    91  9.0000000000000D-01 -3.4259644880918D-01  9.6282723589784D-01
    92  9.1000000000000D-01 -3.3915833792875D-01  9.0181118754683D-01
    93  9.2000000000000D-01 -3.3421980637448D-01  8.4067435203329D-01
    94  9.3000000000000D-01 -3.2789878867403D-01  7.7970681941050D-01
    95  9.4000000000000D-01 -3.2031580208570D-01  7.1919173559882D-01
    96  9.5000000000000D-01 -3.1159314040069D-01  6.5940352556195D-01
    97  9.6000000000000D-01 -3.0185407118903D-01  6.0060618125432D-01
    98  9.7000000000000D-01 -2.9122204075443D-01  5.4305162408535D-01
    99  9.8000000000000D-01 -2.7981989082603D-01  4.8697815067310D-01
   100  9.9000000000000D-01 -2.6776909073274D-01  4.3260896955153D-01
   101  1.0000000000000D+00 -2.5518898850110D-01  3.8015083534502D-01
   102  1.0100000000000D+00 -2.4219608398600D-01  3.2979278570449D-01
   103  1.0200000000000D+00 -2.2890332678706D-01  2.8170498502752D-01
   104  1.0300000000000D+00 -2.1541944133302D-01  2.3603767768809D-01
   105  1.0400000000000D+00 -2.0184828111469D-01  1.9292025213645D-01
   106  1.0500000000000D+00 -1.8828821368704D-01  1.5246041602021D-01
   107  1.0600000000000D+00 -1.7483153761186D-01  1.1474348101046D-01
   108  1.0700000000000D+00 -1.6156393214496D-01  7.9831754842202D-02
   109  1.0800000000000D+00 -1.4856394006504D-01  4.7764036801846D-02
   110  1.0900000000000D+00 -1.3590248281139D-01  1.8555208347891D-02
   111  1.1000000000000D+00 -1.2364240780769D-01 -7.8040853818093D-03
   112  1.1100000000000D+00 -1.1183809470608D-01 -3.1347565702558D-02
   113  1.1200000000000D+00 -1.0053500558058D-01 -5.2133711616198D-02
   114  1.1300000000000D+00 -8.9769371129982D-02 -7.0245671671525D-02
   115  1.1400000000000D+00 -7.9569109664241D-02 -8.5786269840388D-02
   116  1.1500000000000D+00 -6.9955227197201D-02 -9.8871617555103D-02
   117  1.1600000000000D+00 -6.0942782998525D-02 -1.0962685694120D-01
   118  1.1700000000000D+00 -5.2540991900636D-02 -1.1818561824124D-01
   119  1.1800000000000D+00 -4.4753608423403D-02 -1.2468837452312D-01
   120  1.1900000000000D+00 -3.7579268112883D-02 -1.2928107263349D-01
   121  1.2000000000000D+00 -3.1011864702035D-02 -1.3211369876999D-01
   122  1.2100000000000D+00 -2.5040939386834D-02 -1.3333887534673D-01
   123  1.2200000000000D+00 -1.9652083225694D-02 -1.3311048077989D-01
   124  1.2300000000000D+00 -1.4827347784282D-02 -1.3158230808220D-01
   125  1.2400000000000D+00 -1.0545660060398D-02 -1.2890677417090D-01
   126  1.2500000000000D+00 -6.7832377123816D-03 -1.2523369170596D-01
   127  1.2600000000000D+00 -3.5140009276972D-03 -1.2070911365382D-01
   128  1.2700000000000D+00 -7.0997746733682D-04 -1.1547425994438D-01
   129  1.2800000000000D+00  1.6583025505779D-03 -1.0966453536782D-01
   130  1.2900000000000D+00  3.6214250773307D-03 -1.0340864570093D-01
   131  1.3000000000000D+00  5.2107264303045D-03 -9.6827817924395D-02
   132  1.3100000000000D+00  6.4579461735425D-03 -9.0035130535993D-02
   133  1.3200000000000D+00  7.3949005271024D-03 -8.3134956836305D-02
   134  1.3300000000000D+00  8.0531780580481D-03 -7.6222523393222D-02
   135  1.3400000000000D+00  8.4638594666397D-03 -6.9383586036824D-02
   136  1.3500000000000D+00  8.6572622256759D-03 -6.2694221700915D-02
   137  1.3600000000000D+00  8.6627110371557D-03 -5.6220735272516D-02
   138  1.3700000000000D+00  8.5083347228999D-03 -5.0019679213168D-02
   139  1.3800000000000D+00  8.2208892737770D-03 -4.4137980525582D-02
   140  1.3900000000000D+00  7.8256073080473D-03 -3.8613171526821D-02
   141  1.4000000000000D+00  7.3460731772960D-03 -3.3473717221332D-02
   142  1.4100000000000D+00  6.8041228555389D-03 -2.8739431864160D-02
   143  1.4200000000000D+00  6.2197679383199D-03 -2.4421977791473D-02
   144  1.4300000000000D+00  5.6111419177763D-03 -2.0525435850461D-02
   145  1.4400000000000D+00  4.9944676776899D-03 -1.7046939295166D-02
   146  1.4500000000000D+00  4.3840442085219D-03 -1.3977359925676D-02
   147  1.4600000000000D+00  3.7922507264960D-03 -1.1302036158677D-02
   148  1.4700000000000D+00  3.2295662961474D-03 -9.0015320055829D-03
   149  1.4800000000000D+00  2.7046026550721D-03 -7.0524156233356D-03
   150  1.4900000000000D+00  2.2241482589144D-03 -5.4280461724031D-03
   151  1.5000000000000D+00  1.7932211839529D-03 -4.0993577952835D-03
   152  1.5100000000000D+00  1.4151288169176D-03 -3.0356298321347D-03
   153  1.5200000000000D+00  1.0915319775916D-03 -2.2052319461207D-03
   154  1.5300000000000D+00  8.2251167828596D-04 -1.5763354535979D-03
   155  1.5400000000000D+00  6.0663596776470D-04 -1.1175784189878D-03
   156  1.5500000000000D+00  4.4109584090554D-04 -7.9884464028927D-04
   157  1.5600000000000D+00  3.2175255602023D-04 -5.9177841569013D-04
   158  1.5700000000000D+00  2.4088324856427D-04 -4.6499069208341D-04
   159  1.5800000000000D+00  1.9342782792509D-04 -3.9858812016030D-04
   160  1.5900000000000D+00  1.8472700553343D-04 -4.0115110263891D-04
   161  1.6000000000000D+00  1.8727044715576D-04 -4.1445271436539D-04
   162  1.6100000000000D+00  1.3404840557802D-04 -2.9751218191570D-04
   163  1.6200000000000D+00  3.6005556889453D-05 -7.9914969639080D-05
   164  1.6300000000000D+00 -1.6756189283020D-05  3.7298742103772D-05
   165  1.6400000000000D+00 -8.8351897771801D-06  1.9673163986466D-05
   166  1.6500000000000D+00  3.6853264769684D-06 -8.2082448346057D-06
   167  1.6600000000000D+00  2.0144090510911D-06 -4.4879613988863D-06
   168  1.6700000000000D+00 -4.3734875091624D-07  9.6969801812165D-07
   169  1.6800000000000D+00 -2.4530733181161D-07  5.4390010944376D-07
   170  1.6900000000000D+00  0.0000000000000D+00  0.0000000000000D+00
   171  1.7000000000000D+00  0.0000000000000D+00  0.0000000000000D+00
   172  1.7100000000000D+00  0.0000000000000D+00  0.0000000000000D+00
   173  1.7200000000000D+00  0.0000000000000D+00  0.0000000000000D+00
   174  1.7300000000000D+00  0.0000000000000D+00  0.0000000000000D+00
   175  1.7400000000000D+00  0.0000000000000D+00  0.0000000000000D+00
   176  1.7500000000000D+00  0.0000000000000D+00  0.0000000000000D+00
   177  1.7600000000000D+00  0.0000000000000D+00  0.0000000000000D+00
   178  1.7700000000000D+00  0.0000000000000D+00  0.0000000000000D+00
   179  1.7800000000000D+00  0.0000000000000D+00  0.0000000000000D+00
   180  1.7900000000000D+00  0.0000000000000D+00  0.0000000000000D+00
   181  1.8000000000000D+00  0.0000000000000D+00  0.0000000000000D+00
   182  1.8100000000000D+00  0.0000000000000D+00  0.0000000000000D+00
   183  1.8200000000000D+00  0.0000000000000D+00  0.0000000000000D+00
   184  1.8300000000000D+00  0.0000000000000D+00  0.0000000000000D+00
   185  1.8400000000000D+00  0.0000000000000D+00  0.0000000000000D+00
   186  1.8500000000000D+00  0.0000000000000D+00  0.0000000000000D+00
   187  1.8600000000000D+00  0.0000000000000D+00  0.0000000000000D+00
   188  1.8700000000000D+00  0.0000000000000D+00  0.0000000000000D+00
   189  1.8800000000000D+00  0.0000000000000D+00  0.0000000000000D+00
   190  1.8900000000000D+00  0.0000000000000D+00  0.0000000000000D+00
   191  1.9000000000000D+00  0.0000000000000D+00  0.0000000000000D+00
   192  1.9100000000000D+00  0.0000000000000D+00  0.0000000000000D+00
   193  1.9200000000000D+00  0.0000000000000D+00  0.0000000000000D+00
   194  1.9300000000000D+00  0.0000000000000D+00  0.0000000000000D+00
   195  1.9400000000000D+00  0.0000000000000D+00  0.0000000000000D+00
   196  1.9500000000000D+00  0.0000000000000D+00  0.0000000000000D+00
   197  1.9600000000000D+00  0.0000000000000D+00  0.0000000000000D+00
   198  1.9700000000000D+00  0.0000000000000D+00  0.0000000000000D+00
   199  1.9800000000000D+00  0.0000000000000D+00  0.0000000000000D+00
   200  1.9900000000000D+00  0.0000000000000D+00  0.0000000000000D+00
   201  2.0000000000000D+00  0.0000000000000D+00  0.0000000000000D+00
   202  2.0100000000000D+00  0.0000000000000D+00  0.0000000000000D+00
   203  2.0200000000000D+00  0.0000000000000D+00  0.0000000000000D+00
   204  2.0300000000000D+00  0.0000000000000D+00  0.0000000000000D+00
   205  2.0400000000000D+00  0.0000000000000D+00  0.0000000000000D+00
   206  2.0500000000000D+00  0.0000000000000D+00  0.0000000000000D+00
   207  2.0600000000000D+00  0.0000000000000D+00  0.0000000000000D+00
   208  2.0700000000000D+00  0.0000000000000D+00  0.0000000000000D+00
   209  2.0800000000000D+00  0.0000000000000D+00  0.0000000000000D+00
   210  2.0900000000000D+00  0.0000000000000D+00  0.0000000000000D+00
   211  2.1000000000000D+00  0.0000000000000D+00  0.0000000000000D+00
   212  2.1100000000000D+00  0.0000000000000D+00  0.0000000000000D+00
   213  2.1200000000000D+00  0.0000000000000D+00  0.0000000000000D+00
   214  2.1300000000000D+00  0.0000000000000D+00  0.0000000000000D+00
   215  2.1400000000000D+00  0.0000000000000D+00  0.0000000000000D+00
   216  2.1500000000000D+00  0.0000000000000D+00  0.0000000000000D+00
   217  2.1600000000000D+00  0.0000000000000D+00  0.0000000000000D+00
   218  2.1700000000000D+00  0.0000000000000D+00  0.0000000000000D+00
   219  2.1800000000000D+00  0.0000000000000D+00  0.0000000000000D+00
   220  2.1900000000000D+00  0.0000000000000D+00  0.0000000000000D+00
   221  2.2000000000000D+00  0.0000000000000D+00  0.0000000000000D+00
   222  2.2100000000000D+00  0.0000000000000D+00  0.0000000000000D+00
   223  2.2200000000000D+00  0.0000000000000D+00  0.0000000000000D+00
   224  2.2300000000000D+00  0.0000000000000D+00  0.0000000000000D+00
   225  2.2400000000000D+00  0.0000000000000D+00  0.0000000000000D+00
   226  2.2500000000000D+00  0.0000000000000D+00  0.0000000000000D+00
   227  2.2600000000000D+00  0.0000000000000D+00  0.0000000000000D+00
   228  2.2700000000000D+00  0.0000000000000D+00  0.0000000000000D+00
   229  2.2800000000000D+00  0.0000000000000D+00  0.0000000000000D+00
   230  2.2900000000000D+00  0.0000000000000D+00  0.0000000000000D+00
   231  2.3000000000000D+00  0.0000000000000D+00  0.0000000000000D+00
   232  2.3100000000000D+00  0.0000000000000D+00  0.0000000000000D+00
   233  2.3200000000000D+00  0.0000000000000D+00  0.0000000000000D+00
   234  2.3300000000000D+00  0.0000000000000D+00  0.0000000000000D+00
   235  2.3400000000000D+00  0.0000000000000D+00  0.0000000000000D+00
   236  2.3500000000000D+00  0.0000000000000D+00  0.0000000000000D+00
   237  2.3600000000000D+00  0.0000000000000D+00  0.0000000000000D+00
   238  2.3700000000000D+00  0.0000000000000D+00  0.0000000000000D+00
   239  2.3800000000000D+00  0.0000000000000D+00  0.0000000000000D+00
   240  2.3900000000000D+00  0.0000000000000D+00  0.0000000000000D+00
   241  2.4000000000000D+00  0.0000000000000D+00  0.0000000000000D+00
   242  2.4100000000000D+00  0.0000000000000D+00  0.0000000000000D+00
   243  2.4200000000000D+00  0.0000000000000D+00  0.0000000000000D+00
   244  2.4300000000000D+00  0.0000000000000D+00  0.0000000000000D+00
   245  2.4400000000000D+00  0.0000000000000D+00  0.0000000000000D+00
   246  2.4500000000000D+00  0.0000000000000D+00  0.0000000000000D+00
   247  2.4600000000000D+00  0.0000000000000D+00  0.0000000000000D+00
   248  2.4700000000000D+00  0.0000000000000D+00  0.0000000000000D+00
   249  2.4800000000000D+00  0.0000000000000D+00  0.0000000000000D+00
   250  2.4900000000000D+00  0.0000000000000D+00  0.0000000000000D+00
   251  2.5000000000000D+00  0.0000000000000D+00  0.0000000000000D+00
   252  2.5100000000000D+00  0.0000000000000D+00  0.0000000000000D+00
   253  2.5200000000000D+00  0.0000000000000D+00  0.0000000000000D+00
   254  2.5300000000000D+00  0.0000000000000D+00  0.0000000000000D+00
   255  2.5400000000000D+00  0.0000000000000D+00  0.0000000000000D+00
   256  2.5500000000000D+00  0.0000000000000D+00  0.0000000000000D+00
   257  2.5600000000000D+00  0.0000000000000D+00  0.0000000000000D+00
   258  2.5700000000000D+00  0.0000000000000D+00  0.0000000000000D+00
   259  2.5800000000000D+00  0.0000000000000D+00  0.0000000000000D+00
   260  2.5900000000000D+00  0.0000000000000D+00  0.0000000000000D+00
   261  2.6000000000000D+00  0.0000000000000D+00  0.0000000000000D+00
   262  2.6100000000000D+00  0.0000000000000D+00  0.0000000000000D+00
   263  2.6200000000000D+00  0.0000000000000D+00  0.0000000000000D+00
   264  2.6300000000000D+00  0.0000000000000D+00  0.0000000000000D+00
   265  2.6400000000000D+00  0.0000000000000D+00  0.0000000000000D+00
   266  2.6500000000000D+00  0.0000000000000D+00  0.0000000000000D+00
   267  2.6600000000000D+00  0.0000000000000D+00  0.0000000000000D+00
   268  2.6700000000000D+00  0.0000000000000D+00  0.0000000000000D+00
   269  2.6800000000000D+00  0.0000000000000D+00  0.0000000000000D+00
   270  2.6900000000000D+00  0.0000000000000D+00  0.0000000000000D+00
   271  2.7000000000000D+00  0.0000000000000D+00  0.0000000000000D+00
   272  2.7100000000000D+00  0.0000000000000D+00  0.0000000000000D+00
   273  2.7200000000000D+00  0.0000000000000D+00  0.0000000000000D+00
   274  2.7300000000000D+00  0.0000000000000D+00  0.0000000000000D+00
   275  2.7400000000000D+00  0.0000000000000D+00  0.0000000000000D+00
   276  2.7500000000000D+00  0.0000000000000D+00  0.0000000000000D+00
   277  2.7600000000000D+00  0.0000000000000D+00  0.0000000000000D+00
   278  2.7700000000000D+00  0.0000000000000D+00  0.0000000000000D+00
   279  2.7800000000000D+00  0.0000000000000D+00  0.0000000000000D+00
   280  2.7900000000000D+00  0.0000000000000D+00  0.0000000000000D+00
   281  2.8000000000000D+00  0.0000000000000D+00  0.0000000000000D+00
   282  2.8100000000000D+00  0.0000000000000D+00  0.0000000000000D+00
   283  2.8200000000000D+00  0.0000000000000D+00  0.0000000000000D+00
   284  2.8300000000000D+00  0.0000000000000D+00  0.0000000000000D+00
   285  2.8400000000000D+00  0.0000000000000D+00  0.0000000000000D+00
   286  2.8500000000000D+00  0.0000000000000D+00  0.0000000000000D+00
   287  2.8600000000000D+00  0.0000000000000D+00  0.0000000000000D+00
   288  2.8700000000000D+00  0.0000000000000D+00  0.0000000000000D+00
   289  2.8800000000000D+00  0.0000000000000D+00  0.0000000000000D+00
   290  2.8900000000000D+00  0.0000000000000D+00  0.0000000000000D+00
   291  2.9000000000000D+00  0.0000000000000D+00  0.0000000000000D+00
   292  2.9100000000000D+00  0.0000000000000D+00  0.0000000000000D+00
   293  2.9200000000000D+00  0.0000000000000D+00  0.0000000000000D+00
   294  2.9300000000000D+00  0.0000000000000D+00  0.0000000000000D+00
   295  2.9400000000000D+00  0.0000000000000D+00  0.0000000000000D+00
   296  2.9500000000000D+00  0.0000000000000D+00  0.0000000000000D+00
   297  2.9600000000000D+00  0.0000000000000D+00  0.0000000000000D+00
   298  2.9700000000000D+00  0.0000000000000D+00  0.0000000000000D+00
   299  2.9800000000000D+00  0.0000000000000D+00  0.0000000000000D+00
   300  2.9900000000000D+00  0.0000000000000D+00  0.0000000000000D+00
   301  3.0000000000000D+00  0.0000000000000D+00  0.0000000000000D+00
   302  3.0100000000000D+00  0.0000000000000D+00  0.0000000000000D+00
   303  3.0200000000000D+00  0.0000000000000D+00  0.0000000000000D+00
   304  3.0300000000000D+00  0.0000000000000D+00  0.0000000000000D+00
   305  3.0400000000000D+00  0.0000000000000D+00  0.0000000000000D+00
   306  3.0500000000000D+00  0.0000000000000D+00  0.0000000000000D+00
   307  3.0600000000000D+00  0.0000000000000D+00  0.0000000000000D+00
   308  3.0700000000000D+00  0.0000000000000D+00  0.0000000000000D+00
   309  3.0800000000000D+00  0.0000000000000D+00  0.0000000000000D+00
   310  3.0900000000000D+00  0.0000000000000D+00  0.0000000000000D+00
   311  3.1000000000000D+00  0.0000000000000D+00  0.0000000000000D+00
   312  3.1100000000000D+00  0.0000000000000D+00  0.0000000000000D+00
   313  3.1200000000000D+00  0.0000000000000D+00  0.0000000000000D+00
   314  3.1300000000000D+00  0.0000000000000D+00  0.0000000000000D+00
   315  3.1400000000000D+00  0.0000000000000D+00  0.0000000000000D+00
   316  3.1500000000000D+00  0.0000000000000D+00  0.0000000000000D+00
   317  3.1600000000000D+00  0.0000000000000D+00  0.0000000000000D+00
   318  3.1700000000000D+00  0.0000000000000D+00  0.0000000000000D+00
   319  3.1800000000000D+00  0.0000000000000D+00  0.0000000000000D+00
   320  3.1900000000000D+00  0.0000000000000D+00  0.0000000000000D+00
   321  3.2000000000000D+00  0.0000000000000D+00  0.0000000000000D+00
   322  3.2100000000000D+00  0.0000000000000D+00  0.0000000000000D+00
   323  3.2200000000000D+00  0.0000000000000D+00  0.0000000000000D+00
   324  3.2300000000000D+00  0.0000000000000D+00  0.0000000000000D+00
   325  3.2400000000000D+00  0.0000000000000D+00  0.0000000000000D+00
   326  3.2500000000000D+00  0.0000000000000D+00  0.0000000000000D+00
   327  3.2600000000000D+00  0.0000000000000D+00  0.0000000000000D+00
   328  3.2700000000000D+00  0.0000000000000D+00  0.0000000000000D+00
   329  3.2800000000000D+00  0.0000000000000D+00  0.0000000000000D+00
   330  3.2900000000000D+00  0.0000000000000D+00  0.0000000000000D+00
   331  3.3000000000000D+00  0.0000000000000D+00  0.0000000000000D+00
   332  3.3100000000000D+00  0.0000000000000D+00  0.0000000000000D+00
   333  3.3200000000000D+00  0.0000000000000D+00  0.0000000000000D+00
   334  3.3300000000000D+00  0.0000000000000D+00  0.0000000000000D+00
   335  3.3400000000000D+00  0.0000000000000D+00  0.0000000000000D+00
   336  3.3500000000000D+00  0.0000000000000D+00  0.0000000000000D+00
   337  3.3600000000000D+00  0.0000000000000D+00  0.0000000000000D+00
   338  3.3700000000000D+00  0.0000000000000D+00  0.0000000000000D+00
   339  3.3800000000000D+00  0.0000000000000D+00  0.0000000000000D+00
   340  3.3900000000000D+00  0.0000000000000D+00  0.0000000000000D+00
   341  3.4000000000000D+00  0.0000000000000D+00  0.0000000000000D+00
   342  3.4100000000000D+00  0.0000000000000D+00  0.0000000000000D+00
   343  3.4200000000000D+00  0.0000000000000D+00  0.0000000000000D+00
   344  3.4300000000000D+00  0.0000000000000D+00  0.0000000000000D+00
   345  3.4400000000000D+00  0.0000000000000D+00  0.0000000000000D+00
   346  3.4500000000000D+00  0.0000000000000D+00  0.0000000000000D+00
   347  3.4600000000000D+00  0.0000000000000D+00  0.0000000000000D+00
   348  3.4700000000000D+00  0.0000000000000D+00  0.0000000000000D+00
   349  3.4800000000000D+00  0.0000000000000D+00  0.0000000000000D+00
   350  3.4900000000000D+00  0.0000000000000D+00  0.0000000000000D+00
   351  3.5000000000000D+00  0.0000000000000D+00  0.0000000000000D+00
   352  3.5100000000000D+00  0.0000000000000D+00  0.0000000000000D+00
   353  3.5200000000000D+00  0.0000000000000D+00  0.0000000000000D+00
   354  3.5300000000000D+00  0.0000000000000D+00  0.0000000000000D+00
   355  3.5400000000000D+00  0.0000000000000D+00  0.0000000000000D+00
   356  3.5500000000000D+00  0.0000000000000D+00  0.0000000000000D+00
   357  3.5600000000000D+00  0.0000000000000D+00  0.0000000000000D+00
   358  3.5700000000000D+00  0.0000000000000D+00  0.0000000000000D+00
   359  3.5800000000000D+00  0.0000000000000D+00  0.0000000000000D+00
   360  3.5900000000000D+00  0.0000000000000D+00  0.0000000000000D+00
   361  3.6000000000000D+00  0.0000000000000D+00  0.0000000000000D+00
   362  3.6100000000000D+00  0.0000000000000D+00  0.0000000000000D+00
   363  3.6200000000000D+00  0.0000000000000D+00  0.0000000000000D+00
   364  3.6300000000000D+00  0.0000000000000D+00  0.0000000000000D+00
   365  3.6400000000000D+00  0.0000000000000D+00  0.0000000000000D+00
   366  3.6500000000000D+00  0.0000000000000D+00  0.0000000000000D+00
   367  3.6600000000000D+00  0.0000000000000D+00  0.0000000000000D+00
   368  3.6700000000000D+00  0.0000000000000D+00  0.0000000000000D+00
   369  3.6800000000000D+00  0.0000000000000D+00  0.0000000000000D+00
   370  3.6900000000000D+00  0.0000000000000D+00  0.0000000000000D+00
   371  3.7000000000000D+00  0.0000000000000D+00  0.0000000000000D+00
   372  3.7100000000000D+00  0.0000000000000D+00  0.0000000000000D+00
   373  3.7200000000000D+00  0.0000000000000D+00  0.0000000000000D+00
   374  3.7300000000000D+00  0.0000000000000D+00  0.0000000000000D+00
   375  3.7400000000000D+00  0.0000000000000D+00  0.0000000000000D+00
   376  3.7500000000000D+00  0.0000000000000D+00  0.0000000000000D+00
   377  3.7600000000000D+00  0.0000000000000D+00  0.0000000000000D+00
   378  3.7700000000000D+00  0.0000000000000D+00  0.0000000000000D+00
   379  3.7800000000000D+00  0.0000000000000D+00  0.0000000000000D+00
   380  3.7900000000000D+00  0.0000000000000D+00  0.0000000000000D+00
   381  3.8000000000000D+00  0.0000000000000D+00  0.0000000000000D+00
   382  3.8100000000000D+00  0.0000000000000D+00  0.0000000000000D+00
   383  3.8200000000000D+00  0.0000000000000D+00  0.0000000000000D+00
   384  3.8300000000000D+00  0.0000000000000D+00  0.0000000000000D+00
   385  3.8400000000000D+00  0.0000000000000D+00  0.0000000000000D+00
   386  3.8500000000000D+00  0.0000000000000D+00  0.0000000000000D+00
   387  3.8600000000000D+00  0.0000000000000D+00  0.0000000000000D+00
   388  3.8700000000000D+00  0.0000000000000D+00  0.0000000000000D+00
   389  3.8800000000000D+00  0.0000000000000D+00  0.0000000000000D+00
   390  3.8900000000000D+00  0.0000000000000D+00  0.0000000000000D+00
   391  3.9000000000000D+00  0.0000000000000D+00  0.0000000000000D+00
   392  3.9100000000000D+00  0.0000000000000D+00  0.0000000000000D+00
   393  3.9200000000000D+00  0.0000000000000D+00  0.0000000000000D+00
   394  3.9300000000000D+00  0.0000000000000D+00  0.0000000000000D+00
   395  3.9400000000000D+00  0.0000000000000D+00  0.0000000000000D+00
   396  3.9500000000000D+00  0.0000000000000D+00  0.0000000000000D+00
   397  3.9600000000000D+00  0.0000000000000D+00  0.0000000000000D+00
   398  3.9700000000000D+00  0.0000000000000D+00  0.0000000000000D+00
   399  3.9800000000000D+00  0.0000000000000D+00  0.0000000000000D+00
   400  3.9900000000000D+00  0.0000000000000D+00  0.0000000000000D+00
   401  4.0000000000000D+00  0.0000000000000D+00  0.0000000000000D+00
   402  4.0100000000000D+00  0.0000000000000D+00  0.0000000000000D+00
   403  4.0200000000000D+00  0.0000000000000D+00  0.0000000000000D+00
   404  4.0300000000000D+00  0.0000000000000D+00  0.0000000000000D+00
   405  4.0400000000000D+00  0.0000000000000D+00  0.0000000000000D+00
   406  4.0500000000000D+00  0.0000000000000D+00  0.0000000000000D+00
   407  4.0600000000000D+00  0.0000000000000D+00  0.0000000000000D+00
   408  4.0700000000000D+00  0.0000000000000D+00  0.0000000000000D+00
   409  4.0800000000000D+00  0.0000000000000D+00  0.0000000000000D+00
   410  4.0900000000000D+00  0.0000000000000D+00  0.0000000000000D+00
   411  4.1000000000000D+00  0.0000000000000D+00  0.0000000000000D+00
   412  4.1100000000000D+00  0.0000000000000D+00  0.0000000000000D+00
   413  4.1200000000000D+00  0.0000000000000D+00  0.0000000000000D+00
   414  4.1300000000000D+00  0.0000000000000D+00  0.0000000000000D+00
   415  4.1400000000000D+00  0.0000000000000D+00  0.0000000000000D+00
   416  4.1500000000000D+00  0.0000000000000D+00  0.0000000000000D+00
   417  4.1600000000000D+00  0.0000000000000D+00  0.0000000000000D+00
   418  4.1700000000000D+00  0.0000000000000D+00  0.0000000000000D+00
   419  4.1800000000000D+00  0.0000000000000D+00  0.0000000000000D+00
   420  4.1900000000000D+00  0.0000000000000D+00  0.0000000000000D+00
   421  4.2000000000000D+00  0.0000000000000D+00  0.0000000000000D+00
   422  4.2100000000000D+00  0.0000000000000D+00  0.0000000000000D+00
   423  4.2200000000000D+00  0.0000000000000D+00  0.0000000000000D+00