Na    ONCVPSP-3.3.1  r_core=   1.47844   2.29870
     11.0000      9.0000      210904    zatom,zion,pspd
     8       2   1     4   600     0    pspcod,pspxc,lmax,lloc,mmax,r2well
  5.99000000  0.00000000  0.00000000    rchrg fchrg qchrg
     2     2     0     0    nproj
     3     1           extension_switch
     3     0     0    nprojso
   0                        -1.2040362452093D+00  2.8337980579647D+00
     1  0.0000000000000D+00  1.7142895436528D-10 -8.7720963826143D-10
     2  1.0000000000000D-02  2.3981001849063D-02  1.3095081634627D-01
     3  2.0000000000000D-02  4.8034690567291D-02  2.6121145109068D-01
     4  3.0000000000000D-02  7.2233014213098D-02  3.9009602608304D-01
     5  4.0000000000000D-02  9.6646448909755D-02  5.1692724004814D-01
     6  5.0000000000000D-02  1.2134327705000D-01  6.4104058217598D-01
     7  6.0000000000000D-02  1.4638888238520D-01  7.6178845651953D-01
     8  7.0000000000000D-02  1.7184506742486D-01  8.7854418850434D-01
     9  8.0000000000000D-02  1.9776939840087D-01  9.9070588573178D-01
    10  9.0000000000000D-02  2.2421458283901D-01  1.0977001263413D+00
    11  1.0000000000000D-01  2.5122788453019D-01  1.1989854494799D+00
    12  1.1000000000000D-01  2.7885058040650D-01  1.2940556238973D+00
    13  1.2000000000000D-01  3.0711746350600D-01  1.3824426723354D+00
    14  1.3000000000000D-01  3.3605639585696D-01  1.4637196311912D+00
    15  1.4000000000000D-01  3.6568791472968D-01  1.5375030269004D+00
    16  1.5000000000000D-01  3.9602489529593D-01  1.6034550525860D+00
    17  1.6000000000000D-01  4.2707227230473D-01  1.6612854307397D+00
    18  1.7000000000000D-01  4.5882682293247D-01  1.7107529500241D+00
    19  1.8000000000000D-01  4.9127701249894D-01  1.7516666666961D+00
    20  1.9000000000000D-01  5.2440290426201D-01  1.7838867636251D+00
    21  2.0000000000000D-01  5.5817613401644D-01  1.8073250624025D+00
    22  2.1000000000000D-01  5.9255994973032D-01  1.8219451865941D+00
    23  2.2000000000000D-01  6.2750931596007D-01  1.8277623767442D+00
    24  2.3000000000000D-01  6.6297108229512D-01  1.8248429602928D+00
    25  2.4000000000000D-01  6.9888421460059D-01  1.8133034820858D+00
    26  2.5000000000000D-01  7.3518008735408D-01  1.7933095036299D+00
    27  2.6000000000000D-01  7.7178283491484D-01  1.7650740816432D+00
    28  2.7000000000000D-01  8.0860975912337D-01  1.7288559387698D+00
    29  2.8000000000000D-01  8.4557179021067D-01  1.6849573415335D+00
    30  2.9000000000000D-01  8.8257399760199D-01  1.6337217026959D+00
    31  3.0000000000000D-01  9.1951614683269D-01  1.5755309271323D+00
    32  3.1000000000000D-01  9.5629329845743D-01  1.5108025221373D+00
    33  3.2000000000000D-01  9.9279644452947D-01  1.4399864947015D+00
    34  3.3000000000000D-01  1.0289131779583D+00  1.3635620597516D+00
    35  3.4000000000000D-01  1.0645283898217D+00  1.2820341846094D+00
    36  3.5000000000000D-01  1.0995249895145D+00  1.1959299959851D+00
    37  3.6000000000000D-01  1.1337846424654D+00  1.1057950766738D+00
    38  3.7000000000000D-01  1.1671885200366D+00  1.0121896797667D+00
    39  3.8000000000000D-01  1.1996180561565D+00  9.1568488860799D-01
    40  3.9000000000000D-01  1.2309557052028D+00  8.1685875092794D-01
    41  4.0000000000000D-01  1.2610856956693D+00  7.1629241556404D-01
    42  4.1000000000000D-01  1.2898947742065D+00  6.1456629993380D-01
    43  4.2000000000000D-01  1.3172729347212D+00  5.1225631596315D-01
    44  4.3000000000000D-01  1.3431141273594D+00  4.0993018149458D-01
    45  4.4000000000000D-01  1.3673169423720D+00  3.0814384331336D-01
    46  4.5000000000000D-01  1.3897852640774D+00  2.0743803684224D-01
    47  4.6000000000000D-01  1.4104288903829D+00  1.0833500627549D-01
    48  4.7000000000000D-01  1.4291641136100D+00  1.1335407463420D-02
    49  4.8000000000000D-01  1.4459142586823D+00 -8.3084585769895D-02
    50  4.9000000000000D-01  1.4606101750739D+00 -1.7447595297554D-01
    51  5.0000000000000D-01  1.4731906792840D+00 -2.6241925911662D-01
    52  5.1000000000000D-01  1.4836029449923D+00 -3.4652683235948D-01
    53  5.2000000000000D-01  1.4918028384559D+00 -4.2644467483599D-01
    54  5.3000000000000D-01  1.4977551971322D+00 -5.0185409583086D-01
    55  5.4000000000000D-01  1.5014340499461D+00 -5.7247305915460D-01
    56  5.5000000000000D-01  1.5028227780656D+00 -6.3805723881965D-01
    57  5.6000000000000D-01  1.5019142154951D+00 -6.9840077951792D-01
    58  5.7000000000000D-01  1.4987106892469D+00 -7.5333676079785D-01
    59  5.8000000000000D-01  1.4932239992980D+00 -8.0273736621521D-01
    60  5.9000000000000D-01  1.4854753389821D+00 -8.4651376109103D-01
    61  6.0000000000000D-01  1.4754951568936D+00 -8.8461568480304D-01
    62  6.1000000000000D-01  1.4633229618071D+00 -9.1703076577811D-01
    63  6.2000000000000D-01  1.4490070725099D+00 -9.4378356948419D-01
    64  6.3000000000000D-01  1.4326043148371D+00 -9.6493439176816D-01
    65  6.4000000000000D-01  1.4141796685546D+00 -9.8057781179003D-01
    66  6.5000000000000D-01  1.3938058670750D+00 -9.9084102058094D-01
    67  6.6000000000000D-01  1.3715629533025D+00 -9.9588194287458D-01
    68  6.7000000000000D-01  1.3475377951794D+00 -9.9588717131172D-01
    69  6.8000000000000D-01  1.3218235647609D+00 -9.9106973339351D-01
    70  6.9000000000000D-01  1.2945191848582D+00 -9.8166671264819D-01
    71  7.0000000000000D-01  1.2657287474712D+00 -9.6793674636389D-01
    72  7.1000000000000D-01  1.2355609083825D+00 -9.5015742292698D-01
    73  7.2000000000000D-01  1.2041282623898D+00 -9.2862260228581D-01
    74  7.3000000000000D-01  1.1715467037321D+00 -9.0363968332754D-01
    75  7.4000000000000D-01  1.1379347762988D+00 -8.7552684201190D-01
    76  7.5000000000000D-01  1.1034130182149D+00 -8.4461026395287D-01
    77  7.6000000000000D-01  1.0681033053560D+00 -8.1122139477565D-01
    78  7.7000000000000D-01  1.0321281982807D+00 -7.7569423101573D-01
    79  7.8000000000000D-01  9.9561029696023D-01 -7.3836267356233D-01
    80  7.9000000000000D-01  9.5867160754995D-01 -6.9955796470195D-01
    81  8.0000000000000D-01  9.2143292527708D-01 -6.5960622869194D-01
    82  8.1000000000000D-01  8.8401323732386D-01 -6.1882613450150D-01
    83  8.2000000000000D-01  8.4652914935914D-01 -5.7752669791328D-01
    84  8.3000000000000D-01  8.0909433912295D-01 -5.3600523859615D-01
    85  8.4000000000000D-01  7.7181904019722D-01 -4.9454550605456D-01
    86  8.5000000000000D-01  7.3480955880485D-01 -4.5341598655015D-01
    87  8.6000000000000D-01  6.9816782617163D-01 -4.1286840119327D-01
    88  8.7000000000000D-01  6.6199098866446D-01 -3.7313640343548D-01
    89  8.8000000000000D-01  6.2637103758672D-01 -3.3443448217762D-01
    90  8.9000000000000D-01  5.9139448017186D-01 -2.9695707466116D-01
    91  9.0000000000000D-01  5.5714205297149D-01 -2.6087789125315D-01
    92  9.1000000000000D-01  5.2368847848794D-01 -2.2634945218668D-01
    93  9.2000000000000D-01  4.9110226555596D-01 -1.9350283429854D-01
    94  9.3000000000000D-01  4.5944555363779D-01 -1.6244762383393D-01
    95  9.4000000000000D-01  4.2877400086202D-01 -1.3327206948151D-01
    96  9.5000000000000D-01  3.9913671531336D-01 -1.0604342798213D-01
    97  9.6000000000000D-01  3.7057622876734D-01 -8.0808492921643D-02
    98  9.7000000000000D-01  3.4312851177206D-01 -5.7594295738088D-02
    99  9.8000000000000D-01  3.1682302869583D-01 -3.6408966474066D-02
   100  9.9000000000000D-01  2.9168283110133D-01 -1.7242740484815D-02
   101  1.0000000000000D+00  2.6772468756930D-01 -6.9096141577084D-05
   102  1.0100000000000D+00  2.4495924787797D-01  1.5153992442815D-02
   103  1.0200000000000D+00  2.2339123925375D-01  2.8482704472896D-02
   104  1.0300000000000D+00  2.0301969223982D-01  3.9985940778904D-02
   105  1.0400000000000D+00  1.8383819359473D-01  4.9743829294578D-02
   106  1.0500000000000D+00  1.6583516351283D-01  5.7846185931016D-02
   107  1.0600000000000D+00  1.4899415437514D-01  6.4390949150189D-02
   108  1.0700000000000D+00  1.3329416817958D-01  6.9482606457442D-02
   109  1.0800000000000D+00  1.1870998976710D-01  7.3230630737979D-02
   110  1.0900000000000D+00  1.0521253295432D-01  7.5747943926406D-02
   111  1.1000000000000D+00  9.2769196698883D-02  7.7149424892657D-02
   112  1.1100000000000D+00  8.1344228472645D-02  7.7550477580556D-02
   113  1.1200000000000D+00  7.0899092082056D-02  7.7065674546935D-02
   114  1.1300000000000D+00  6.1392837275967D-02  7.5807489845595D-02
   115  1.1400000000000D+00  5.2782468561706D-02  7.3885134282746D-02
   116  1.1500000000000D+00  4.5023310816540D-02  7.1403504363100D-02
   117  1.1600000000000D+00  3.8069369404995D-02  6.8462255065068D-02
   118  1.1700000000000D+00  3.1873682691052D-02  6.5155004913007D-02
   119  1.1800000000000D+00  2.6388664964265D-02  6.1568680612377D-02
   120  1.1900000000000D+00  2.1566438044225D-02  5.7783006361397D-02
   121  1.2000000000000D+00  1.7359149999170D-02  5.3870141516830D-02
   122  1.2100000000000D+00  1.3719279570682D-02  4.9894468964601D-02
   123  1.2200000000000D+00  1.0599925148258D-02  4.5912534469288D-02
   124  1.2300000000000D+00  7.9550773460990D-03  4.1973135641503D-02
   125  1.2400000000000D+00  5.7398744044696D-03  3.8117557842506D-02
   126  1.2500000000000D+00  3.9108398146062D-03  3.4379952950036D-02
   127  1.2600000000000D+00  2.4261018557040D-03  3.0787854775905D-02
   128  1.2700000000000D+00  1.2455948457465D-03  2.7362824158376D-02
   129  1.2800000000000D+00  3.3124203912155D-04  2.4121215740322D-02
   130  1.2900000000000D+00 -3.5287907077186D-04  2.1075061298458D-02
   131  1.3000000000000D+00 -8.4039047327763D-04  1.8233044664396D-02
   132  1.3100000000000D+00 -1.1624868752478D-03  1.5601536245256D-02
   133  1.3200000000000D+00 -1.3478311758857D-03  1.3185671312464D-02
   134  1.3300000000000D+00 -1.4223786760343D-03  1.0991325077474D-02
   135  1.3400000000000D+00 -1.4095531222484D-03  9.0238885367413D-03
   136  1.3500000000000D+00 -1.3304963381110D-03  7.2862917349881D-03
   137  1.3600000000000D+00 -1.2043114043540D-03  5.7765649633697D-03
   138  1.3700000000000D+00 -1.0480904039135D-03  4.4875401325326D-03
   139  1.3800000000000D+00 -8.7675158920819D-04  3.4083424946221D-03
   140  1.3900000000000D+00 -7.0301790615667D-04  2.5247626251503D-03
   141  1.4000000000000D+00 -5.3735990973314D-04  1.8200146211773D-03
   142  1.4100000000000D+00 -3.8796305353714D-04  1.2753445500230D-03
   143  1.4200000000000D+00 -2.6070126573395D-04  8.7062708665345D-04
   144  1.4300000000000D+00 -1.5910240083320D-04  5.8512055436411D-04
   145  1.4400000000000D+00 -8.4407621472553D-05  3.9712432072935D-04
   146  1.4500000000000D+00 -3.5589383173907D-05  2.8192403654806D-04
   147  1.4600000000000D+00 -8.8976539528383D-06  2.2832423231276D-04
   148  1.4700000000000D+00  1.4781978715185D-06  2.2711916486952D-04
   149  1.4800000000000D+00  2.6861779571536D-06  1.8927894304235D-04
   150  1.4900000000000D+00  9.6957486575929D-07  6.8320067401829D-05
   151  1.5000000000000D+00 -2.9190047482305D-07 -1.6543717998253D-05
   152  1.5100000000000D+00 -2.1141493219720D-07 -1.1879612894021D-05
   153  1.5200000000000D+00  8.6825712734744D-08  4.3835180666687D-06
   154  1.5300000000000D+00  3.3934925607618D-08  1.6775708289885D-06
   155  1.5400000000000D+00 -7.8312408336835D-09 -5.6944788330464D-07
   156  1.5500000000000D+00 -8.8262386544612D-10 -6.4179904897147D-08
   157  1.5600000000000D+00  0.0000000000000D+00  0.0000000000000D+00
   158  1.5700000000000D+00  0.0000000000000D+00  0.0000000000000D+00
   159  1.5800000000000D+00  0.0000000000000D+00  0.0000000000000D+00
   160  1.5900000000000D+00  0.0000000000000D+00  0.0000000000000D+00
   161  1.6000000000000D+00  0.0000000000000D+00  0.0000000000000D+00
   162  1.6100000000000D+00  0.0000000000000D+00  0.0000000000000D+00
   163  1.6200000000000D+00  0.0000000000000D+00  0.0000000000000D+00
   164  1.6300000000000D+00  0.0000000000000D+00  0.0000000000000D+00
   165  1.6400000000000D+00  0.0000000000000D+00  0.0000000000000D+00
   166  1.6500000000000D+00  0.0000000000000D+00  0.0000000000000D+00
   167  1.6600000000000D+00  0.0000000000000D+00  0.0000000000000D+00
   168  1.6700000000000D+00  0.0000000000000D+00  0.0000000000000D+00
   169  1.6800000000000D+00  0.0000000000000D+00  0.0000000000000D+00
   170  1.6900000000000D+00  0.0000000000000D+00  0.0000000000000D+00
   171  1.7000000000000D+00  0.0000000000000D+00  0.0000000000000D+00
   172  1.7100000000000D+00  0.0000000000000D+00  0.0000000000000D+00
   173  1.7200000000000D+00  0.0000000000000D+00  0.0000000000000D+00
   174  1.7300000000000D+00  0.0000000000000D+00  0.0000000000000D+00
   175  1.7400000000000D+00  0.0000000000000D+00  0.0000000000000D+00
   176  1.7500000000000D+00  0.0000000000000D+00  0.0000000000000D+00
   177  1.7600000000000D+00  0.0000000000000D+00  0.0000000000000D+00
   178  1.7700000000000D+00  0.0000000000000D+00  0.0000000000000D+00
   179  1.7800000000000D+00  0.0000000000000D+00  0.0000000000000D+00
   180  1.7900000000000D+00  0.0000000000000D+00  0.0000000000000D+00
   181  1.8000000000000D+00  0.0000000000000D+00  0.0000000000000D+00
   182  1.8100000000000D+00  0.0000000000000D+00  0.0000000000000D+00
   183  1.8200000000000D+00  0.0000000000000D+00  0.0000000000000D+00
   184  1.8300000000000D+00  0.0000000000000D+00  0.0000000000000D+00
   185  1.8400000000000D+00  0.0000000000000D+00  0.0000000000000D+00
   186  1.8500000000000D+00  0.0000000000000D+00  0.0000000000000D+00
   187  1.8600000000000D+00  0.0000000000000D+00  0.0000000000000D+00
   188  1.8700000000000D+00  0.0000000000000D+00  0.0000000000000D+00
   189  1.8800000000000D+00  0.0000000000000D+00  0.0000000000000D+00
   190  1.8900000000000D+00  0.0000000000000D+00  0.0000000000000D+00
   191  1.9000000000000D+00  0.0000000000000D+00  0.0000000000000D+00
   192  1.9100000000000D+00  0.0000000000000D+00  0.0000000000000D+00
   193  1.9200000000000D+00  0.0000000000000D+00  0.0000000000000D+00
   194  1.9300000000000D+00  0.0000000000000D+00  0.0000000000000D+00
   195  1.9400000000000D+00  0.0000000000000D+00  0.0000000000000D+00
   196  1.9500000000000D+00  0.0000000000000D+00  0.0000000000000D+00
   197  1.9600000000000D+00  0.0000000000000D+00  0.0000000000000D+00
   198  1.9700000000000D+00  0.0000000000000D+00  0.0000000000000D+00
   199  1.9800000000000D+00  0.0000000000000D+00  0.0000000000000D+00
   200  1.9900000000000D+00  0.0000000000000D+00  0.0000000000000D+00
   201  2.0000000000000D+00  0.0000000000000D+00  0.0000000000000D+00
   202  2.0100000000000D+00  0.0000000000000D+00  0.0000000000000D+00
   203  2.0200000000000D+00  0.0000000000000D+00  0.0000000000000D+00
   204  2.0300000000000D+00  0.0000000000000D+00  0.0000000000000D+00
   205  2.0400000000000D+00  0.0000000000000D+00  0.0000000000000D+00
   206  2.0500000000000D+00  0.0000000000000D+00  0.0000000000000D+00
   207  2.0600000000000D+00  0.0000000000000D+00  0.0000000000000D+00
   208  2.0700000000000D+00  0.0000000000000D+00  0.0000000000000D+00
   209  2.0800000000000D+00  0.0000000000000D+00  0.0000000000000D+00
   210  2.0900000000000D+00  0.0000000000000D+00  0.0000000000000D+00
   211  2.1000000000000D+00  0.0000000000000D+00  0.0000000000000D+00
   212  2.1100000000000D+00  0.0000000000000D+00  0.0000000000000D+00
   213  2.1200000000000D+00  0.0000000000000D+00  0.0000000000000D+00
   214  2.1300000000000D+00  0.0000000000000D+00  0.0000000000000D+00
   215  2.1400000000000D+00  0.0000000000000D+00  0.0000000000000D+00
   216  2.1500000000000D+00  0.0000000000000D+00  0.0000000000000D+00
   217  2.1600000000000D+00  0.0000000000000D+00  0.0000000000000D+00
   218  2.1700000000000D+00  0.0000000000000D+00  0.0000000000000D+00
   219  2.1800000000000D+00  0.0000000000000D+00  0.0000000000000D+00
   220  2.1900000000000D+00  0.0000000000000D+00  0.0000000000000D+00
   221  2.2000000000000D+00  0.0000000000000D+00  0.0000000000000D+00
   222  2.2100000000000D+00  0.0000000000000D+00  0.0000000000000D+00
   223  2.2200000000000D+00  0.0000000000000D+00  0.0000000000000D+00
   224  2.2300000000000D+00  0.0000000000000D+00  0.0000000000000D+00
   225  2.2400000000000D+00  0.0000000000000D+00  0.0000000000000D+00
   226  2.2500000000000D+00  0.0000000000000D+00  0.0000000000000D+00
   227  2.2600000000000D+00  0.0000000000000D+00  0.0000000000000D+00
   228  2.2700000000000D+00  0.0000000000000D+00  0.0000000000000D+00
   229  2.2800000000000D+00  0.0000000000000D+00  0.0000000000000D+00
   230  2.2900000000000D+00  0.0000000000000D+00  0.0000000000000D+00
   231  2.3000000000000D+00  0.0000000000000D+00  0.0000000000000D+00
   232  2.3100000000000D+00  0.0000000000000D+00  0.0000000000000D+00
   233  2.3200000000000D+00  0.0000000000000D+00  0.0000000000000D+00
   234  2.3300000000000D+00  0.0000000000000D+00  0.0000000000000D+00
   235  2.3400000000000D+00  0.0000000000000D+00  0.0000000000000D+00
   236  2.3500000000000D+00  0.0000000000000D+00  0.0000000000000D+00
   237  2.3600000000000D+00  0.0000000000000D+00  0.0000000000000D+00
   238  2.3700000000000D+00  0.0000000000000D+00  0.0000000000000D+00
   239  2.3800000000000D+00  0.0000000000000D+00  0.0000000000000D+00
   240  2.3900000000000D+00  0.0000000000000D+00  0.0000000000000D+00
   241  2.4000000000000D+00  0.0000000000000D+00  0.0000000000000D+00
   242  2.4100000000000D+00  0.0000000000000D+00  0.0000000000000D+00
   243  2.4200000000000D+00  0.0000000000000D+00  0.0000000000000D+00
   244  2.4300000000000D+00  0.0000000000000D+00  0.0000000000000D+00
   245  2.4400000000000D+00  0.0000000000000D+00  0.0000000000000D+00
   246  2.4500000000000D+00  0.0000000000000D+00  0.0000000000000D+00
   247  2.4600000000000D+00  0.0000000000000D+00  0.0000000000000D+00
   248  2.4700000000000D+00  0.0000000000000D+00  0.0000000000000D+00
   249  2.4800000000000D+00  0.0000000000000D+00  0.0000000000000D+00
   250  2.4900000000000D+00  0.0000000000000D+00  0.0000000000000D+00
   251  2.5000000000000D+00  0.0000000000000D+00  0.0000000000000D+00
   252  2.5100000000000D+00  0.0000000000000D+00  0.0000000000000D+00
   253  2.5200000000000D+00  0.0000000000000D+00  0.0000000000000D+00
   254  2.5300000000000D+00  0.0000000000000D+00  0.0000000000000D+00
   255  2.5400000000000D+00  0.0000000000000D+00  0.0000000000000D+00
   256  2.5500000000000D+00  0.0000000000000D+00  0.0000000000000D+00
   257  2.5600000000000D+00  0.0000000000000D+00  0.0000000000000D+00
   258  2.5700000000000D+00  0.0000000000000D+00  0.0000000000000D+00
   259  2.5800000000000D+00  0.0000000000000D+00  0.0000000000000D+00
   260  2.5900000000000D+00  0.0000000000000D+00  0.0000000000000D+00
   261  2.6000000000000D+00  0.0000000000000D+00  0.0000000000000D+00
   262  2.6100000000000D+00  0.0000000000000D+00  0.0000000000000D+00
   263  2.6200000000000D+00  0.0000000000000D+00  0.0000000000000D+00
   264  2.6300000000000D+00  0.0000000000000D+00  0.0000000000000D+00
   265  2.6400000000000D+00  0.0000000000000D+00  0.0000000000000D+00
   266  2.6500000000000D+00  0.0000000000000D+00  0.0000000000000D+00
   267  2.6600000000000D+00  0.0000000000000D+00  0.0000000000000D+00
   268  2.6700000000000D+00  0.0000000000000D+00  0.0000000000000D+00
   269  2.6800000000000D+00  0.0000000000000D+00  0.0000000000000D+00
   270  2.6900000000000D+00  0.0000000000000D+00  0.0000000000000D+00
   271  2.7000000000000D+00  0.0000000000000D+00  0.0000000000000D+00
   272  2.7100000000000D+00  0.0000000000000D+00  0.0000000000000D+00
   273  2.7200000000000D+00  0.0000000000000D+00  0.0000000000000D+00
   274  2.7300000000000D+00  0.0000000000000D+00  0.0000000000000D+00
   275  2.7400000000000D+00  0.0000000000000D+00  0.0000000000000D+00
   276  2.7500000000000D+00  0.0000000000000D+00  0.0000000000000D+00
   277  2.7600000000000D+00  0.0000000000000D+00  0.0000000000000D+00
   278  2.7700000000000D+00  0.0000000000000D+00  0.0000000000000D+00
   279  2.7800000000000D+00  0.0000000000000D+00  0.0000000000000D+00
   280  2.7900000000000D+00  0.0000000000000D+00  0.0000000000000D+00
   281  2.8000000000000D+00  0.0000000000000D+00  0.0000000000000D+00
   282  2.8100000000000D+00  0.0000000000000D+00  0.0000000000000D+00
   283  2.8200000000000D+00  0.0000000000000D+00  0.0000000000000D+00
   284  2.8300000000000D+00  0.0000000000000D+00  0.0000000000000D+00
   285  2.8400000000000D+00  0.0000000000000D+00  0.0000000000000D+00
   286  2.8500000000000D+00  0.0000000000000D+00  0.0000000000000D+00
   287  2.8600000000000D+00  0.0000000000000D+00  0.0000000000000D+00
   288  2.8700000000000D+00  0.0000000000000D+00  0.0000000000000D+00
   289  2.8800000000000D+00  0.0000000000000D+00  0.0000000000000D+00
   290  2.8900000000000D+00  0.0000000000000D+00  0.0000000000000D+00
   291  2.9000000000000D+00  0.0000000000000D+00  0.0000000000000D+00
   292  2.9100000000000D+00  0.0000000000000D+00  0.0000000000000D+00
   293  2.9200000000000D+00  0.0000000000000D+00  0.0000000000000D+00
   294  2.9300000000000D+00  0.0000000000000D+00  0.0000000000000D+00
   295  2.9400000000000D+00  0.0000000000000D+00  0.0000000000000D+00
   296  2.9500000000000D+00  0.0000000000000D+00  0.0000000000000D+00
   297  2.9600000000000D+00  0.0000000000000D+00  0.0000000000000D+00
   298  2.9700000000000D+00  0.0000000000000D+00  0.0000000000000D+00
   299  2.9800000000000D+00  0.0000000000000D+00  0.0000000000000D+00
   300  2.9900000000000D+00  0.0000000000000D+00  0.0000000000000D+00
   301  3.0000000000000D+00  0.0000000000000D+00  0.0000000000000D+00
   302  3.0100000000000D+00  0.0000000000000D+00  0.0000000000000D+00
   303  3.0200000000000D+00  0.0000000000000D+00  0.0000000000000D+00
   304  3.0300000000000D+00  0.0000000000000D+00  0.0000000000000D+00
   305  3.0400000000000D+00  0.0000000000000D+00  0.0000000000000D+00
   306  3.0500000000000D+00  0.0000000000000D+00  0.0000000000000D+00
   307  3.0600000000000D+00  0.0000000000000D+00  0.0000000000000D+00
   308  3.0700000000000D+00  0.0000000000000D+00  0.0000000000000D+00
   309  3.0800000000000D+00  0.0000000000000D+00  0.0000000000000D+00
   310  3.0900000000000D+00  0.0000000000000D+00  0.0000000000000D+00
   311  3.1000000000000D+00  0.0000000000000D+00  0.0000000000000D+00
   312  3.1100000000000D+00  0.0000000000000D+00  0.0000000000000D+00
   313  3.1200000000000D+00  0.0000000000000D+00  0.0000000000000D+00
   314  3.1300000000000D+00  0.0000000000000D+00  0.0000000000000D+00
   315  3.1400000000000D+00  0.0000000000000D+00  0.0000000000000D+00
   316  3.1500000000000D+00  0.0000000000000D+00  0.0000000000000D+00
   317  3.1600000000000D+00  0.0000000000000D+00  0.0000000000000D+00
   318  3.1700000000000D+00  0.0000000000000D+00  0.0000000000000D+00
   319  3.1800000000000D+00  0.0000000000000D+00  0.0000000000000D+00
   320  3.1900000000000D+00  0.0000000000000D+00  0.0000000000000D+00
   321  3.2000000000000D+00  0.0000000000000D+00  0.0000000000000D+00
   322  3.2100000000000D+00  0.0000000000000D+00  0.0000000000000D+00
   323  3.2200000000000D+00  0.0000000000000D+00  0.0000000000000D+00
   324  3.2300000000000D+00  0.0000000000000D+00  0.0000000000000D+00
   325  3.2400000000000D+00  0.0000000000000D+00  0.0000000000000D+00
   326  3.2500000000000D+00  0.0000000000000D+00  0.0000000000000D+00
   327  3.2600000000000D+00  0.0000000000000D+00  0.0000000000000D+00
   328  3.2700000000000D+00  0.0000000000000D+00  0.0000000000000D+00
   329  3.2800000000000D+00  0.0000000000000D+00  0.0000000000000D+00
   330  3.2900000000000D+00  0.0000000000000D+00  0.0000000000000D+00
   331  3.3000000000000D+00  0.0000000000000D+00  0.0000000000000D+00
   332  3.3100000000000D+00  0.0000000000000D+00  0.0000000000000D+00
   333  3.3200000000000D+00  0.0000000000000D+00  0.0000000000000D+00
   334  3.3300000000000D+00  0.0000000000000D+00  0.0000000000000D+00
   335  3.3400000000000D+00  0.0000000000000D+00  0.0000000000000D+00
   336  3.3500000000000D+00  0.0000000000000D+00  0.0000000000000D+00
   337  3.3600000000000D+00  0.0000000000000D+00  0.0000000000000D+00
   338  3.3700000000000D+00  0.0000000000000D+00  0.0000000000000D+00
   339  3.3800000000000D+00  0.0000000000000D+00  0.0000000000000D+00
   340  3.3900000000000D+00  0.0000000000000D+00  0.0000000000000D+00
   341  3.4000000000000D+00  0.0000000000000D+00  0.0000000000000D+00
   342  3.4100000000000D+00  0.0000000000000D+00  0.0000000000000D+00
   343  3.4200000000000D+00  0.0000000000000D+00  0.0000000000000D+00
   344  3.4300000000000D+00  0.0000000000000D+00  0.0000000000000D+00
   345  3.4400000000000D+00  0.0000000000000D+00  0.0000000000000D+00
   346  3.4500000000000D+00  0.0000000000000D+00  0.0000000000000D+00
   347  3.4600000000000D+00  0.0000000000000D+00  0.0000000000000D+00
   348  3.4700000000000D+00  0.0000000000000D+00  0.0000000000000D+00
   349  3.4800000000000D+00  0.0000000000000D+00  0.0000000000000D+00
   350  3.4900000000000D+00  0.0000000000000D+00  0.0000000000000D+00
   351  3.5000000000000D+00  0.0000000000000D+00  0.0000000000000D+00
   352  3.5100000000000D+00  0.0000000000000D+00  0.0000000000000D+00
   353  3.5200000000000D+00  0.0000000000000D+00  0.0000000000000D+00
   354  3.5300000000000D+00  0.0000000000000D+00  0.0000000000000D+00
   355  3.5400000000000D+00  0.0000000000000D+00  0.0000000000000D+00
   356  3.5500000000000D+00  0.0000000000000D+00  0.0000000000000D+00
   357  3.5600000000000D+00  0.0000000000000D+00  0.0000000000000D+00
   358  3.5700000000000D+00  0.0000000000000D+00  0.0000000000000D+00
   359  3.5800000000000D+00  0.0000000000000D+00  0.0000000000000D+00
   360  3.5900000000000D+00  0.0000000000000D+00  0.0000000000000D+00
   361  3.6000000000000D+00  0.0000000000000D+00  0.0000000000000D+00
   362  3.6100000000000D+00  0.0000000000000D+00  0.0000000000000D+00
   363  3.6200000000000D+00  0.0000000000000D+00  0.0000000000000D+00
   364  3.6300000000000D+00  0.0000000000000D+00  0.0000000000000D+00
   365  3.6400000000000D+00  0.0000000000000D+00  0.0000000000000D+00
   366  3.6500000000000D+00  0.0000000000000D+00  0.0000000000000D+00
   367  3.6600000000000D+00  0.0000000000000D+00  0.0000000000000D+00
   368  3.6700000000000D+00  0.0000000000000D+00  0.0000000000000D+00
   369  3.6800000000000D+00  0.0000000000000D+00  0.0000000000000D+00
   370  3.6900000000000D+00  0.0000000000000D+00  0.0000000000000D+00
   371  3.7000000000000D+00  0.0000000000000D+00  0.0000000000000D+00
   372  3.7100000000000D+00  0.0000000000000D+00  0.0000000000000D+00
   373  3.7200000000000D+00  0.0000000000000D+00  0.0000000000000D+00
   374  3.7300000000000D+00  0.0000000000000D+00  0.0000000000000D+00
   375  3.7400000000000D+00  0.0000000000000D+00  0.0000000000000D+00
   376  3.7500000000000D+00  0.0000000000000D+00  0.0000000000000D+00
   377  3.7600000000000D+00  0.0000000000000D+00  0.0000000000000D+00
   378  3.7700000000000D+00  0.0000000000000D+00  0.0000000000000D+00
   379  3.7800000000000D+00  0.0000000000000D+00  0.0000000000000D+00
   380  3.7900000000000D+00  0.0000000000000D+00  0.0000000000000D+00
   381  3.8000000000000D+00  0.0000000000000D+00  0.0000000000000D+00
   382  3.8100000000000D+00  0.0000000000000D+00  0.0000000000000D+00
   383  3.8200000000000D+00  0.0000000000000D+00  0.0000000000000D+00
   384  3.8300000000000D+00  0.0000000000000D+00  0.0000000000000D+00
   385  3.8400000000000D+00  0.0000000000000D+00  0.0000000000000D+00
   386  3.8500000000000D+00  0.0000000000000D+00  0.0000000000000D+00
   387  3.8600000000000D+00  0.0000000000000D+00  0.0000000000000D+00
   388  3.8700000000000D+00  0.0000000000000D+00  0.0000000000000D+00
   389  3.8800000000000D+00  0.0000000000000D+00  0.0000000000000D+00
   390  3.8900000000000D+00  0.0000000000000D+00  0.0000000000000D+00
   391  3.9000000000000D+00  0.0000000000000D+00  0.0000000000000D+00
   392  3.9100000000000D+00  0.0000000000000D+00  0.0000000000000D+00
   393  3.9200000000000D+00  0.0000000000000D+00  0.0000000000000D+00
   394  3.9300000000000D+00  0.0000000000000D+00  0.0000000000000D+00
   395  3.9400000000000D+00  0.0000000000000D+00  0.0000000000000D+00
   396  3.9500000000000D+00  0.0000000000000D+00  0.0000000000000D+00
   397  3.9600000000000D+00  0.0000000000000D+00  0.0000000000000D+00
   398  3.9700000000000D+00  0.0000000000000D+00  0.0000000000000D+00
   399  3.9800000000000D+00  0.0000000000000D+00  0.0000000000000D+00
   400  3.9900000000000D+00  0.0000000000000D+00  0.0000000000000D+00
   401  4.0000000000000D+00  0.0000000000000D+00  0.0000000000000D+00
   402  4.0100000000000D+00  0.0000000000000D+00  0.0000000000000D+00
   403  4.0200000000000D+00  0.0000000000000D+00  0.0000000000000D+00
   404  4.0300000000000D+00  0.0000000000000D+00  0.0000000000000D+00
   405  4.0400000000000D+00  0.0000000000000D+00  0.0000000000000D+00
   406  4.0500000000000D+00  0.0000000000000D+00  0.0000000000000D+00
   407  4.0600000000000D+00  0.0000000000000D+00  0.0000000000000D+00
   408  4.0700000000000D+00  0.0000000000000D+00  0.0000000000000D+00
   409  4.0800000000000D+00  0.0000000000000D+00  0.0000000000000D+00
   410  4.0900000000000D+00  0.0000000000000D+00  0.0000000000000D+00
   411  4.1000000000000D+00  0.0000000000000D+00  0.0000000000000D+00
   412  4.1100000000000D+00  0.0000000000000D+00  0.0000000000000D+00
   413  4.1200000000000D+00  0.0000000000000D+00  0.0000000000000D+00
   414  4.1300000000000D+00  0.0000000000000D+00  0.0000000000000D+00
   415  4.1400000000000D+00  0.0000000000000D+00  0.0000000000000D+00
   416  4.1500000000000D+00  0.0000000000000D+00  0.0000000000000D+00
   417  4.1600000000000D+00  0.0000000000000D+00  0.0000000000000D+00
   418  4.1700000000000D+00  0.0000000000000D+00  0.0000000000000D+00
   419  4.1800000000000D+00  0.0000000000000D+00  0.0000000000000D+00
   420  4.1900000000000D+00  0.0000000000000D+00  0.0000000000000D+00
   421  4.2000000000000D+00  0.0000000000000D+00  0.0000000000000D+00
   422  4.2100000000000D+00  0.0000000000000D+00  0.0000000000000D+00