Nb    ONCVPSP-3.3.1  r_core=   1.67979   1.64019   1.65987
     41.0000     13.0000      210904    zatom,zion,pspd
     8       2   2     4   600     0    pspcod,pspxc,lmax,lloc,mmax,r2well
  5.99000000  0.00000000  0.00000000    rchrg fchrg qchrg
     2     4     3     0    nproj
     3     1           extension_switch
     4     4     0    nprojso
   0                         1.1005575391235D+00  1.1227509785855D+01
     1  0.0000000000000D+00 -1.3343588040060D-09  2.7649132983143D-10
     2  1.0000000000000D-02  1.4714380837189D-02  5.0629430157161D-02
     3  2.0000000000000D-02  2.9144735911125D-02  1.0125320800141D-01
     4  3.0000000000000D-02  4.3010493549692D-02  1.5186501023210D-01
     5  4.0000000000000D-02  5.6037954993189D-02  2.0245717908126D-01
     6  5.0000000000000D-02  6.7963643017445D-02  2.5302007377965D-01
     7  6.0000000000000D-02  7.8537546110341D-02  3.0354144426512D-01
     8  7.0000000000000D-02  8.7526224965119D-02  3.5400583422051D-01
     9  8.0000000000000D-02  9.4715749388161D-02  4.0439402025164D-01
    10  9.0000000000000D-02  9.9914435363118D-02  4.5468249367538D-01
    11  1.0000000000000D-01  1.0295535395182D-01  5.0484299098516D-01
    12  1.1000000000000D-01  1.0369858592727D-01  5.5484207860169D-01
    13  1.2000000000000D-01  1.0203319850426D-01  6.0464079700280D-01
    14  1.3000000000000D-01  9.7878923235079D-02  6.5419436876398D-01
    15  1.4000000000000D-01  9.1187517046883D-02  7.0345197443472D-01
    16  1.5000000000000D-01  8.1943791484646D-02  7.5235659953114D-01
    17  1.6000000000000D-01  7.0166298461500D-02  8.0084495524793D-01
    18  1.7000000000000D-01  5.5907664174679D-02  8.4884747478892D-01
    19  1.8000000000000D-01  3.9254566289317D-02  8.9628838649211D-01
    20  1.9000000000000D-01  2.0327352990316D-02  9.4308586418758D-01
    21  2.0000000000000D-01 -7.2069397784367D-04  9.8915225448310D-01
    22  2.1000000000000D-01 -2.3704446657067D-02  1.0343943799283D+00
    23  2.2000000000000D-01 -4.8408359520697D-02  1.0787139162715D+00
    24  2.3000000000000D-01 -7.4588226950019D-02  1.1220078413009D+00
    25  2.4000000000000D-01 -1.0197325380598D-01  1.1641689520574D+00
    26  2.5000000000000D-01 -1.3026842023521D-01  1.2050864465320D+00
    27  2.6000000000000D-01 -1.5915711889844D-01  1.2446465653171D+00
    28  2.7000000000000D-01 -1.8830404006292D-01  1.2827332880782D+00
    29  2.8000000000000D-01 -2.1735827748181D-01  1.3192290791517D+00
    30  2.9000000000000D-01 -2.4595662572234D-01  1.3540156760668D+00
    31  3.0000000000000D-01 -2.7372703761935D-01  1.3869749143375D+00
    32  3.1000000000000D-01 -3.0029220884329D-01  1.4179895814698D+00
    33  3.2000000000000D-01 -3.2527325520020D-01  1.4469442928050D+00
    34  3.3000000000000D-01 -3.4829344723710D-01  1.4737263815476D+00
    35  3.4000000000000D-01 -3.6898196602342D-01  1.4982267951337D+00
    36  3.5000000000000D-01 -3.8697764362429D-01  1.5203409899685D+00
    37  3.6000000000000D-01 -4.0193265177893D-01  1.5399698165075D+00
    38  3.7000000000000D-01 -4.1351610264951D-01  1.5570203866773D+00
    39  3.8000000000000D-01 -4.2141752620942D-01  1.5714069157216D+00
    40  3.9000000000000D-01 -4.2535018988943D-01  1.5830515307269D+00
    41  4.0000000000000D-01 -4.2505422748797D-01  1.5918850383158D+00
    42  4.1000000000000D-01 -4.2029954606312D-01  1.5978476443031D+00
    43  4.2000000000000D-01 -4.1088848154600D-01  1.6008896184811D+00
    44  4.3000000000000D-01 -3.9665817612743D-01  1.6009718981390D+00
    45  4.4000000000000D-01 -3.7748265305156D-01  1.5980666244125D+00
    46  4.5000000000000D-01 -3.5327456727737D-01  1.5921576061160D+00
    47  4.6000000000000D-01 -3.2398661351389D-01  1.5832407063071D+00
    48  4.7000000000000D-01 -2.8961257637041D-01  1.5713241474808D+00
    49  4.8000000000000D-01 -2.5018801075562D-01  1.5564287319775D+00
    50  4.9000000000000D-01 -2.0579054417845D-01  1.5385879749064D+00
    51  5.0000000000000D-01 -1.5653979621546D-01  1.5178481476310D+00
    52  5.1000000000000D-01 -1.0259691407343D-01  1.4942682306293D+00
    53  5.2000000000000D-01 -4.4163726867120D-02  1.4679197753175D+00
    54  5.3000000000000D-01  1.8518475097675D-02  1.4388866752110D+00
    55  5.4000000000000D-01  8.5170526126208D-02  1.4072648475757D+00
    56  5.5000000000000D-01  1.5547732257835D-01  1.3731618274967D+00
    57  5.6000000000000D-01  2.2909009510034D-01  1.3366962770487D+00
    58  5.7000000000000D-01  3.0562899554219D-01  1.2979974129834D+00
    59  5.8000000000000D-01  3.8468597538939D-01  1.2572043570569D+00
    60  5.9000000000000D-01  4.6582792970280D-01  1.2144654137834D+00
    61  6.0000000000000D-01  5.4860007796024D-01  1.1699372810302D+00
    62  6.1000000000000D-01  6.3252955088330D-01  1.1237841994426D+00
    63  6.2000000000000D-01  7.1712915031086D-01  1.0761770472122D+00
    64  6.3000000000000D-01  8.0190124748628D-01  1.0272923871652D+00
    65  6.4000000000000D-01  8.8634178376789D-01  9.7731147355006D-01
    66  6.5000000000000D-01  9.6994433676401D-01  9.2641922623664D-01
    67  6.6000000000000D-01  1.0522042142543D+00  8.7480318030662D-01
    68  6.7000000000000D-01  1.1326225379860D+00  8.2265241920664D-01
    69  6.8000000000000D-01  1.2107102795353D+00  7.7015649975572D-01
    70  6.9000000000000D-01  1.2859922109050D+00  7.1750437734317D-01
    71  7.0000000000000D-01  1.3580107333667D+00  6.6488333962289D-01
    72  7.1000000000000D-01  1.4263295492708D+00  6.1247795690546D-01
    73  7.2000000000000D-01  1.4905371431007D+00  5.6046905727068D-01
    74  7.3000000000000D-01  1.5502500399379D+00  5.0903273417433D-01
    75  7.4000000000000D-01  1.6051158117182D+00  4.5833939400259D-01
    76  7.5000000000000D-01  1.6548158041450D+00  4.0855285064609D-01
    77  7.6000000000000D-01  1.6990675599107D+00  3.5982947371633D-01
    78  7.7000000000000D-01  1.7376269168745D+00  3.1231739652541D-01
    79  7.8000000000000D-01  1.7702897630675D+00  2.6615578939386D-01
    80  7.9000000000000D-01  1.7968934337866D+00  2.2147420324854D-01
    81  8.0000000000000D-01  1.8173177395783D+00  1.7839198782942D-01
    82  8.1000000000000D-01  1.8314856175516D+00  1.3701778814597D-01
    83  8.2000000000000D-01  1.8393634021700D+00  9.7449122118403D-02
    84  8.3000000000000D-01  1.8409607154090D+00  5.9772041612700D-02
    85  8.4000000000000D-01  1.8363299798959D+00  2.4060878338048D-02
    86  8.5000000000000D-01  1.8255655623295D+00 -9.6219246710860D-03
    87  8.6000000000000D-01  1.8088025580711D+00 -4.1225896011777D-02
    88  8.7000000000000D-01  1.7862152312695D+00 -7.0712534069704D-02
    89  8.8000000000000D-01  1.7580151281973D+00 -9.8055221860307D-02
    90  8.9000000000000D-01  1.7244488845881D+00 -1.2323906073844D-01
    91  9.0000000000000D-01  1.6857957506615D+00 -1.4626062583280D-01
    92  9.1000000000000D-01  1.6423648601535D+00 -1.6712764669825D-01
    93  9.2000000000000D-01  1.5944922720233D+00 -1.8585861727472D-01
    94  9.3000000000000D-01  1.5425378155504D+00 -2.0248233979120D-01
    95  9.4000000000000D-01  1.4868817712522D+00 -2.1703740775093D-01
    96  9.5000000000000D-01  1.4279214214182D+00 -2.2957163357605D-01
    97  9.6000000000000D-01  1.3660675050693D+00 -2.4014142687281D-01
    98  9.7000000000000D-01  1.3017406127877D+00 -2.4881112959770D-01
    99  9.8000000000000D-01  1.2353675571291D+00 -2.5565231466001D-01
   100  9.9000000000000D-01  1.1673777542043D+00 -2.6074305468244D-01
   101  1.0000000000000D+00  1.0981996515591D+00 -2.6416716776146D-01
   102  1.0100000000000D+00  1.0282572365921D+00 -2.6601344712115D-01
   103  1.0200000000000D+00  9.5796665855791D-01 -2.6637488153467D-01
   104  1.0300000000000D+00  8.8773299563992D-01 -2.6534787330449D-01
   105  1.0400000000000D+00  8.1794719671825D-01 -2.6303146044536D-01
   106  1.0500000000000D+00  7.4898322514751D-01 -2.5952654948505D-01
   107  1.0600000000000D+00  6.8119542970113D-01 -2.5493516506438D-01
   108  1.0700000000000D+00  6.1491616474972D-01 -2.4935972214378D-01
   109  1.0800000000000D+00  5.5045367907211D-01 -2.4290232627519D-01
   110  1.0900000000000D+00  4.8809028948989D-01 -2.3566410696111D-01
   111  1.1000000000000D+00  4.2808085210444D-01 -2.2774458862965D-01
   112  1.1100000000000D+00  3.7065154103544D-01 -2.1924110332987D-01
   113  1.1200000000000D+00  3.1599894039165D-01 -2.1024824860654D-01
   114  1.1300000000000D+00  2.6428945228066D-01 -2.0085739354301D-01
   115  1.1400000000000D+00  2.1565901961978D-01 -1.9115623529092D-01
   116  1.1500000000000D+00  1.7021315999381D-01 -1.8122840798317D-01
   117  1.1600000000000D+00  1.2802730228212D-01 -1.7115314513507D-01
   118  1.1700000000000D+00  8.9147415266482D-02 -1.6100499617577D-01
   119  1.1800000000000D+00  5.3590913900928D-02 -1.5085359708679D-01
   120  1.1900000000000D+00  2.1347826788057D-02 -1.4076349472307D-01
   121  1.2000000000000D+00 -7.6177954881725D-03 -1.3079402360389D-01
   122  1.2100000000000D+00 -3.3366253252192D-02 -1.2099923356836D-01
   123  1.2200000000000D+00 -5.5980375852273D-02 -1.1142786627718D-01
   124  1.2300000000000D+00 -7.5563531580454D-02 -1.0212337794437D-01
   125  1.2400000000000D+00 -9.2237497302827D-02 -9.3124005289785D-02
   126  1.2500000000000D+00 -1.0614021659545D-01 -8.4462871428412D-02
   127  1.2600000000000D+00 -1.1742347652036D-01 -7.6168128038913D-02
   128  1.2700000000000D+00 -1.2625053366469D-01 -6.8263129792400D-02
   129  1.2800000000000D+00 -1.3279371981382D-01 -6.0766636956517D-02
   130  1.2900000000000D+00 -1.3723205829468D-01 -5.3693041832875D-02
   131  1.3000000000000D+00 -1.3974892063329D-01 -4.7052614542338D-02
   132  1.3100000000000D+00 -1.4052975259145D-01 -4.0851763731425D-02
   133  1.3200000000000D+00 -1.3975989846851D-01 -3.5093307606087D-02
   134  1.3300000000000D+00 -1.3762254878006D-01 -2.9776750915118D-02
   135  1.3400000000000D+00 -1.3429683701647D-01 -2.4898563487761D-02
   136  1.3500000000000D+00 -1.2995610861033D-01 -2.0452456013041D-02
   137  1.3600000000000D+00 -1.2476638001296D-01 -1.6429649290915D-02
   138  1.3700000000000D+00 -1.1888500929898D-01 -1.2819132805772D-02
   139  1.3800000000000D+00 -1.1245959079163D-01 -9.6079093303542D-03
   140  1.3900000000000D+00 -1.0562708567038D-01 -6.7812224215489D-03
   141  1.4000000000000D+00 -9.8513201601377D-02 -4.3227634461323D-03
   142  1.4100000000000D+00 -9.1232021992888D-02 -2.2148562834894D-03
   143  1.4200000000000D+00 -8.3885893392130D-02 -4.3861690222001D-04
   144  1.4300000000000D+00 -7.6565498154226D-02  1.0258976927643D-03
   145  1.4400000000000D+00 -6.9350815465672D-02  2.1997131223796D-03
   146  1.4500000000000D+00 -6.2310820741992D-02  3.1046469565805D-03
   147  1.4600000000000D+00 -5.5499748182110D-02  3.7622100289063D-03
   148  1.4700000000000D+00 -4.8976763412078D-02  4.1978192473570D-03
   149  1.4800000000000D+00 -4.2808295747111D-02  4.4410420200140D-03
   150  1.4900000000000D+00 -3.6992031163649D-02  4.5079522149613D-03
   151  1.5000000000000D+00 -3.1502453792152D-02  4.4112174944513D-03
   152  1.5100000000000D+00 -2.6445940490082D-02  4.1951555369295D-03
   153  1.5200000000000D+00 -2.1929583427446D-02  3.9054847128976D-03
   154  1.5300000000000D+00 -1.7935406834264D-02  3.5603051271355D-03
   155  1.5400000000000D+00 -1.4432626915379D-02  3.1751684876556D-03
   156  1.5500000000000D+00 -1.1413428759388D-02  2.7707693281550D-03
   157  1.5600000000000D+00 -8.8569934769228D-03  2.3644048008820D-03
   158  1.5700000000000D+00 -6.7312026527549D-03  1.9699859010368D-03
   159  1.5800000000000D+00 -4.9998687464745D-03  1.5993162625963D-03
   160  1.5900000000000D+00 -3.6231034616078D-03  1.2618380180027D-03
   161  1.6000000000000D+00 -2.5584768503998D-03  9.6457935685128D-04
   162  1.6100000000000D+00 -1.7624157057710D-03  7.1218362466883D-04
   163  1.6200000000000D+00 -1.1914448842629D-03  5.0693076362413D-04
   164  1.6300000000000D+00 -8.0393575239870D-04  3.4892968218285D-04
   165  1.6400000000000D+00 -5.5798408935512D-04  2.3532570585066D-04
   166  1.6500000000000D+00 -4.1230922530710D-04  1.6006802744364D-04
   167  1.6600000000000D+00 -3.5195644073164D-04  1.2196930248606D-04
   168  1.6700000000000D+00 -3.5822400746577D-04  1.1542129878637D-04
   169  1.6800000000000D+00 -3.2171174260751D-04  1.0185344709151D-04
   170  1.6900000000000D+00 -1.6172921879893D-04  5.1034598238218D-05
   171  1.7000000000000D+00  4.5466201621125D-07 -1.4253995745153D-07
   172  1.7100000000000D+00  3.3638493954916D-05 -1.0531375883250D-05
   173  1.7200000000000D+00  1.4152439568316D-06 -4.4277617793818D-07
   174  1.7300000000000D+00 -7.6695854862453D-06  2.3983222859430D-06
   175  1.7400000000000D+00 -1.0251009517524D-06  3.2032687248207D-07
   176  1.7500000000000D+00  9.1129497997330D-07 -2.8856581673555D-07
   177  1.7600000000000D+00  2.4139155252446D-07 -7.6437763883354D-08
   178  1.7700000000000D+00  0.0000000000000D+00  0.0000000000000D+00
   179  1.7800000000000D+00  0.0000000000000D+00  0.0000000000000D+00
   180  1.7900000000000D+00  0.0000000000000D+00  0.0000000000000D+00
   181  1.8000000000000D+00  0.0000000000000D+00  0.0000000000000D+00
   182  1.8100000000000D+00  0.0000000000000D+00  0.0000000000000D+00
   183  1.8200000000000D+00  0.0000000000000D+00  0.0000000000000D+00
   184  1.8300000000000D+00  0.0000000000000D+00  0.0000000000000D+00
   185  1.8400000000000D+00  0.0000000000000D+00  0.0000000000000D+00
   186  1.8500000000000D+00  0.0000000000000D+00  0.0000000000000D+00
   187  1.8600000000000D+00  0.0000000000000D+00  0.0000000000000D+00
   188  1.8700000000000D+00  0.0000000000000D+00  0.0000000000000D+00
   189  1.8800000000000D+00  0.0000000000000D+00  0.0000000000000D+00
   190  1.8900000000000D+00  0.0000000000000D+00  0.0000000000000D+00
   191  1.9000000000000D+00  0.0000000000000D+00  0.0000000000000D+00
   192  1.9100000000000D+00  0.0000000000000D+00  0.0000000000000D+00
   193  1.9200000000000D+00  0.0000000000000D+00  0.0000000000000D+00
   194  1.9300000000000D+00  0.0000000000000D+00  0.0000000000000D+00
   195  1.9400000000000D+00  0.0000000000000D+00  0.0000000000000D+00
   196  1.9500000000000D+00  0.0000000000000D+00  0.0000000000000D+00
   197  1.9600000000000D+00  0.0000000000000D+00  0.0000000000000D+00
   198  1.9700000000000D+00  0.0000000000000D+00  0.0000000000000D+00
   199  1.9800000000000D+00  0.0000000000000D+00  0.0000000000000D+00
   200  1.9900000000000D+00  0.0000000000000D+00  0.0000000000000D+00
   201  2.0000000000000D+00  0.0000000000000D+00  0.0000000000000D+00
   202  2.0100000000000D+00  0.0000000000000D+00  0.0000000000000D+00
   203  2.0200000000000D+00  0.0000000000000D+00  0.0000000000000D+00
   204  2.0300000000000D+00  0.0000000000000D+00  0.0000000000000D+00
   205  2.0400000000000D+00  0.0000000000000D+00  0.0000000000000D+00
   206  2.0500000000000D+00  0.0000000000000D+00  0.0000000000000D+00
   207  2.0600000000000D+00  0.0000000000000D+00  0.0000000000000D+00
   208  2.0700000000000D+00  0.0000000000000D+00  0.0000000000000D+00
   209  2.0800000000000D+00  0.0000000000000D+00  0.0000000000000D+00
   210  2.0900000000000D+00  0.0000000000000D+00  0.0000000000000D+00
   211  2.1000000000000D+00  0.0000000000000D+00  0.0000000000000D+00
   212  2.1100000000000D+00  0.0000000000000D+00  0.0000000000000D+00
   213  2.1200000000000D+00  0.0000000000000D+00  0.0000000000000D+00
   214  2.1300000000000D+00  0.0000000000000D+00  0.0000000000000D+00
   215  2.1400000000000D+00  0.0000000000000D+00  0.0000000000000D+00
   216  2.1500000000000D+00  0.0000000000000D+00  0.0000000000000D+00
   217  2.1600000000000D+00  0.0000000000000D+00  0.0000000000000D+00
   218  2.1700000000000D+00  0.0000000000000D+00  0.0000000000000D+00
   219  2.1800000000000D+00  0.0000000000000D+00  0.0000000000000D+00
   220  2.1900000000000D+00  0.0000000000000D+00  0.0000000000000D+00
   221  2.2000000000000D+00  0.0000000000000D+00  0.0000000000000D+00
   222  2.2100000000000D+00  0.0000000000000D+00  0.0000000000000D+00
   223  2.2200000000000D+00  0.0000000000000D+00  0.0000000000000D+00
   224  2.2300000000000D+00  0.0000000000000D+00  0.0000000000000D+00
   225  2.2400000000000D+00  0.0000000000000D+00  0.0000000000000D+00
   226  2.2500000000000D+00  0.0000000000000D+00  0.0000000000000D+00
   227  2.2600000000000D+00  0.0000000000000D+00  0.0000000000000D+00
   228  2.2700000000000D+00  0.0000000000000D+00  0.0000000000000D+00
   229  2.2800000000000D+00  0.0000000000000D+00  0.0000000000000D+00
   230  2.2900000000000D+00  0.0000000000000D+00  0.0000000000000D+00
   231  2.3000000000000D+00  0.0000000000000D+00  0.0000000000000D+00
   232  2.3100000000000D+00  0.0000000000000D+00  0.0000000000000D+00
   233  2.3200000000000D+00  0.0000000000000D+00  0.0000000000000D+00
   234  2.3300000000000D+00  0.0000000000000D+00  0.0000000000000D+00
   235  2.3400000000000D+00  0.0000000000000D+00  0.0000000000000D+00
   236  2.3500000000000D+00  0.0000000000000D+00  0.0000000000000D+00
   237  2.3600000000000D+00  0.0000000000000D+00  0.0000000000000D+00
   238  2.3700000000000D+00  0.0000000000000D+00  0.0000000000000D+00
   239  2.3800000000000D+00  0.0000000000000D+00  0.0000000000000D+00
   240  2.3900000000000D+00  0.0000000000000D+00  0.0000000000000D+00
   241  2.4000000000000D+00  0.0000000000000D+00  0.0000000000000D+00
   242  2.4100000000000D+00  0.0000000000000D+00  0.0000000000000D+00
   243  2.4200000000000D+00  0.0000000000000D+00  0.0000000000000D+00
   244  2.4300000000000D+00  0.0000000000000D+00  0.0000000000000D+00
   245  2.4400000000000D+00  0.0000000000000D+00  0.0000000000000D+00
   246  2.4500000000000D+00  0.0000000000000D+00  0.0000000000000D+00
   247  2.4600000000000D+00  0.0000000000000D+00  0.0000000000000D+00
   248  2.4700000000000D+00  0.0000000000000D+00  0.0000000000000D+00
   249  2.4800000000000D+00  0.0000000000000D+00  0.0000000000000D+00
   250  2.4900000000000D+00  0.0000000000000D+00  0.0000000000000D+00
   251  2.5000000000000D+00  0.0000000000000D+00  0.0000000000000D+00
   252  2.5100000000000D+00  0.0000000000000D+00  0.0000000000000D+00
   253  2.5200000000000D+00  0.0000000000000D+00  0.0000000000000D+00
   254  2.5300000000000D+00  0.0000000000000D+00  0.0000000000000D+00
   255  2.5400000000000D+00  0.0000000000000D+00  0.0000000000000D+00
   256  2.5500000000000D+00  0.0000000000000D+00  0.0000000000000D+00
   257  2.5600000000000D+00  0.0000000000000D+00  0.0000000000000D+00
   258  2.5700000000000D+00  0.0000000000000D+00  0.0000000000000D+00
   259  2.5800000000000D+00  0.0000000000000D+00  0.0000000000000D+00
   260  2.5900000000000D+00  0.0000000000000D+00  0.0000000000000D+00
   261  2.6000000000000D+00  0.0000000000000D+00  0.0000000000000D+00
   262  2.6100000000000D+00  0.0000000000000D+00  0.0000000000000D+00
   263  2.6200000000000D+00  0.0000000000000D+00  0.0000000000000D+00
   264  2.6300000000000D+00  0.0000000000000D+00  0.0000000000000D+00
   265  2.6400000000000D+00  0.0000000000000D+00  0.0000000000000D+00
   266  2.6500000000000D+00  0.0000000000000D+00  0.0000000000000D+00
   267  2.6600000000000D+00  0.0000000000000D+00  0.0000000000000D+00
   268  2.6700000000000D+00  0.0000000000000D+00  0.0000000000000D+00
   269  2.6800000000000D+00  0.0000000000000D+00  0.0000000000000D+00
   270  2.6900000000000D+00  0.0000000000000D+00  0.0000000000000D+00
   271  2.7000000000000D+00  0.0000000000000D+00  0.0000000000000D+00
   272  2.7100000000000D+00  0.0000000000000D+00  0.0000000000000D+00
   273  2.7200000000000D+00  0.0000000000000D+00  0.0000000000000D+00
   274  2.7300000000000D+00  0.0000000000000D+00  0.0000000000000D+00
   275  2.7400000000000D+00  0.0000000000000D+00  0.0000000000000D+00
   276  2.7500000000000D+00  0.0000000000000D+00  0.0000000000000D+00
   277  2.7600000000000D+00  0.0000000000000D+00  0.0000000000000D+00
   278  2.7700000000000D+00  0.0000000000000D+00  0.0000000000000D+00
   279  2.7800000000000D+00  0.0000000000000D+00  0.0000000000000D+00
   280  2.7900000000000D+00  0.0000000000000D+00  0.0000000000000D+00
   281  2.8000000000000D+00  0.0000000000000D+00  0.0000000000000D+00
   282  2.8100000000000D+00  0.0000000000000D+00  0.0000000000000D+00
   283  2.8200000000000D+00  0.0000000000000D+00  0.0000000000000D+00
   284  2.8300000000000D+00  0.0000000000000D+00  0.0000000000000D+00
   285  2.8400000000000D+00  0.0000000000000D+00  0.0000000000000D+00
   286  2.8500000000000D+00  0.0000000000000D+00  0.0000000000000D+00
   287  2.8600000000000D+00  0.0000000000000D+00  0.0000000000000D+00
   288  2.8700000000000D+00  0.0000000000000D+00  0.0000000000000D+00
   289  2.8800000000000D+00  0.0000000000000D+00  0.0000000000000D+00
   290  2.8900000000000D+00  0.0000000000000D+00  0.0000000000000D+00
   291  2.9000000000000D+00  0.0000000000000D+00  0.0000000000000D+00
   292  2.9100000000000D+00  0.0000000000000D+00  0.0000000000000D+00
   293  2.9200000000000D+00  0.0000000000000D+00  0.0000000000000D+00
   294  2.9300000000000D+00  0.0000000000000D+00  0.0000000000000D+00
   295  2.9400000000000D+00  0.0000000000000D+00  0.0000000000000D+00
   296  2.9500000000000D+00  0.0000000000000D+00  0.0000000000000D+00
   297  2.9600000000000D+00  0.0000000000000D+00  0.0000000000000D+00
   298  2.9700000000000D+00  0.0000000000000D+00  0.0000000000000D+00
   299  2.9800000000000D+00  0.0000000000000D+00  0.0000000000000D+00
   300  2.9900000000000D+00  0.0000000000000D+00  0.0000000000000D+00
   301  3.0000000000000D+00  0.0000000000000D+00  0.0000000000000D+00
   302  3.0100000000000D+00  0.0000000000000D+00  0.0000000000000D+00
   303  3.0200000000000D+00  0.0000000000000D+00  0.0000000000000D+00
   304  3.0300000000000D+00  0.0000000000000D+00  0.0000000000000D+00
   305  3.0400000000000D+00  0.0000000000000D+00  0.0000000000000D+00
   306  3.0500000000000D+00  0.0000000000000D+00  0.0000000000000D+00
   307  3.0600000000000D+00  0.0000000000000D+00  0.0000000000000D+00
   308  3.0700000000000D+00  0.0000000000000D+00  0.0000000000000D+00
   309  3.0800000000000D+00  0.0000000000000D+00  0.0000000000000D+00
   310  3.0900000000000D+00  0.0000000000000D+00  0.0000000000000D+00
   311  3.1000000000000D+00  0.0000000000000D+00  0.0000000000000D+00
   312  3.1100000000000D+00  0.0000000000000D+00  0.0000000000000D+00
   313  3.1200000000000D+00  0.0000000000000D+00  0.0000000000000D+00
   314  3.1300000000000D+00  0.0000000000000D+00  0.0000000000000D+00
   315  3.1400000000000D+00  0.0000000000000D+00  0.0000000000000D+00
   316  3.1500000000000D+00  0.0000000000000D+00  0.0000000000000D+00
   317  3.1600000000000D+00  0.0000000000000D+00  0.0000000000000D+00
   318  3.1700000000000D+00  0.0000000000000D+00  0.0000000000000D+00
   319  3.1800000000000D+00  0.0000000000000D+00  0.0000000000000D+00
   320  3.1900000000000D+00  0.0000000000000D+00  0.0000000000000D+00
   321  3.2000000000000D+00  0.0000000000000D+00  0.0000000000000D+00
   322  3.2100000000000D+00  0.0000000000000D+00  0.0000000000000D+00
   323  3.2200000000000D+00  0.0000000000000D+00  0.0000000000000D+00
   324  3.2300000000000D+00  0.0000000000000D+00  0.0000000000000D+00
   325  3.2400000000000D+00  0.0000000000000D+00  0.0000000000000D+00
   326  3.2500000000000D+00  0.0000000000000D+00  0.0000000000000D+00
   327  3.2600000000000D+00  0.0000000000000D+00  0.0000000000000D+00
   328  3.2700000000000D+00  0.0000000000000D+00  0.0000000000000D+00
   329  3.2800000000000D+00  0.0000000000000D+00  0.0000000000000D+00
   330  3.2900000000000D+00  0.0000000000000D+00  0.0000000000000D+00
   331  3.3000000000000D+00  0.0000000000000D+00  0.0000000000000D+00
   332  3.3100000000000D+00  0.0000000000000D+00  0.0000000000000D+00
   333  3.3200000000000D+00  0.0000000000000D+00  0.0000000000000D+00
   334  3.3300000000000D+00  0.0000000000000D+00  0.0000000000000D+00
   335  3.3400000000000D+00  0.0000000000000D+00  0.0000000000000D+00
   336  3.3500000000000D+00  0.0000000000000D+00  0.0000000000000D+00
   337  3.3600000000000D+00  0.0000000000000D+00  0.0000000000000D+00
   338  3.3700000000000D+00  0.0000000000000D+00  0.0000000000000D+00
   339  3.3800000000000D+00  0.0000000000000D+00  0.0000000000000D+00
   340  3.3900000000000D+00  0.0000000000000D+00  0.0000000000000D+00
   341  3.4000000000000D+00  0.0000000000000D+00  0.0000000000000D+00
   342  3.4100000000000D+00  0.0000000000000D+00  0.0000000000000D+00
   343  3.4200000000000D+00  0.0000000000000D+00  0.0000000000000D+00
   344  3.4300000000000D+00  0.0000000000000D+00  0.0000000000000D+00
   345  3.4400000000000D+00  0.0000000000000D+00  0.0000000000000D+00
   346  3.4500000000000D+00  0.0000000000000D+00  0.0000000000000D+00
   347  3.4600000000000D+00  0.0000000000000D+00  0.0000000000000D+00
   348  3.4700000000000D+00  0.0000000000000D+00  0.0000000000000D+00
   349  3.4800000000000D+00  0.0000000000000D+00  0.0000000000000D+00
   350  3.4900000000000D+00  0.0000000000000D+00  0.0000000000000D+00
   351  3.5000000000000D+00  0.0000000000000D+00  0.0000000000000D+00
   352  3.5100000000000D+00  0.0000000000000D+00  0.0000000000000D+00
   353  3.5200000000000D+00  0.0000000000000D+00  0.0000000000000D+00
   354  3.5300000000000D+00  0.0000000000000D+00  0.0000000000000D+00
   355  3.5400000000000D+00  0.0000000000000D+00  0.0000000000000D+00
   356  3.5500000000000D+00  0.0000000000000D+00  0.0000000000000D+00
   357  3.5600000000000D+00  0.0000000000000D+00  0.0000000000000D+00
   358  3.5700000000000D+00  0.0000000000000D+00  0.0000000000000D+00
   359  3.5800000000000D+00  0.0000000000000D+00  0.0000000000000D+00
   360  3.5900000000000D+00  0.0000000000000D+00  0.0000000000000D+00
   361  3.6000000000000D+00  0.0000000000000D+00  0.0000000000000D+00
   362  3.6100000000000D+00  0.0000000000000D+00  0.0000000000000D+00
   363  3.6200000000000D+00  0.0000000000000D+00  0.0000000000000D+00
   364  3.6300000000000D+00  0.0000000000000D+00  0.0000000000000D+00
   365  3.6400000000000D+00  0.0000000000000D+00  0.0000000000000D+00
   366  3.6500000000000D+00  0.0000000000000D+00  0.0000000000000D+00
   367  3.6600000000000D+00  0.0000000000000D+00  0.0000000000000D+00
   368  3.6700000000000D+00  0.0000000000000D+00  0.0000000000000D+00
   369  3.6800000000000D+00  0.0000000000000D+00  0.0000000000000D+00
   370  3.6900000000000D+00  0.0000000000000D+00  0.0000000000000D+00
   371  3.7000000000000D+00  0.0000000000000D+00  0.0000000000000D+00
   372  3.7100000000000D+00  0.0000000000000D+00  0.0000000000000D+00
   373  3.7200000000000D+00  0.0000000000000D+00  0.0000000000000D+00
   374  3.7300000000000D+00  0.0000000000000D+00  0.0000000000000D+00
   375  3.7400000000000D+00  0.0000000000000D+00  0.0000000000000D+00
   376  3.7500000000000D+00  0.0000000000000D+00  0.0000000000000D+00
   377  3.7600000000000D+00  0.0000000000000D+00  0.0000000000000D+00
   378  3.7700000000000D+00  0.0000000000000D+00  0.0000000000000D+00
   379  3.7800000000000D+00  0.0000000000000D+00  0.0000000000000D+00
   380  3.7900000000000D+00  0.0000000000000D+00  0.0000000000000D+00
   381  3.8000000000000D+00  0.0000000000000D+00  0.0000000000000D+00
   382  3.8100000000000D+00  0.0000000000000D+00  0.0000000000000D+00
   383  3.8200000000000D+00  0.0000000000000D+00  0.0000000000000D+00
   384  3.8300000000000D+00  0.0000000000000D+00  0.0000000000000D+00
   385  3.8400000000000D+00  0.0000000000000D+00  0.0000000000000D+00
   386  3.8500000000000D+00  0.0000000000000D+00  0.0000000000000D+00
   387  3.8600000000000D+00  0.0000000000000D+00  0.0000000000000D+00
   388  3.8700000000000D+00  0.0000000000000D+00  0.0000000000000D+00
   389  3.8800000000000D+00  0.0000000000000D+00  0.0000000000000D+00
   390  3.8900000000000D+00  0.0000000000000D+00  0.0000000000000D+00
   391  3.9000000000000D+00  0.0000000000000D+00  0.0000000000000D+00
   392  3.9100000000000D+00  0.0000000000000D+00  0.0000000000000D+00
   393  3.9200000000000D+00  0.0000000000000D+00  0.0000000000000D+00
   394  3.9300000000000D+00  0.0000000000000D+00  0.0000000000000D+00
   395  3.9400000000000D+00  0.0000000000000D+00  0.0000000000000D+00
   396  3.9500000000000D+00  0.0000000000000D+00  0.0000000000000D+00
   397  3.9600000000000D+00  0.0000000000000D+00  0.0000000000000D+00
   398  3.9700000000000D+00  0.0000000000000D+00  0.0000000000000D+00
   399  3.9800000000000D+00  0.0000000000000D+00  0.0000000000000D+00
   400  3.9900000000000D+00  0.0000000000000D+00  0.0000000000000D+00
   401  4.0000000000000D+00  0.0000000000000D+00  0.0000000000000D+00
   402  4.0100000000000D+00  0.0000000000000D+00  0.0000000000000D+00
   403  4.0200000000000D+00  0.0000000000000D+00  0.0000000000000D+00
   404  4.0300000000000D+00  0.0000000000000D+00  0.0000000000000D+00
   405  4.0400000000000D+00  0.0000000000000D+00  0.0000000000000D+00
   406  4.0500000000000D+00  0.0000000000000D+00  0.0000000000000D+00
   407  4.0600000000000D+00  0.0000000000000D+00  0.0000000000000D+00
   408  4.0700000000000D+00  0.0000000000000D+00  0.0000000000000D+00
   409  4.0800000000000D+00  0.0000000000000D+00  0.0000000000000D+00
   410  4.0900000000000D+00  0.0000000000000D+00  0.0000000000000D+00
   411  4.1000000000000D+00  0.0000000000000D+00  0.0000000000000D+00
   412  4.1100000000000D+00  0.0000000000000D+00  0.0000000000000D+00
   413  4.1200000000000D+00  0.0000000000000D+00  0.0000000000000D+00
   414  4.1300000000000D+00  0.0000000000000D+00  0.0000000000000D+00
   415  4.1400000000000D+00  0.0000000000000D+00  0.0000000000000D+00
   416  4.1500000000000D+00  0.0000000000000D+00  0.0000000000000D+00
   417  4.1600000000000D+00  0.0000000000000D+00  0.0000000000000D+00
   418  4.1700000000000D+00  0.0000000000000D+00  0.0000000000000D+00
   419  4.1800000000000D+00  0.0000000000000D+00  0.0000000000000D+00
   420  4.1900000000000D+00  0.0000000000000D+00  0.0000000000000D+00
   421  4.2000000000000D+00  0.0000000000000D+00  0.0000000000000D+00
   422  4.2100000000000D+00  0.0000000000000D+00  0.0000000000000D+00