Nb    ONCVPSP-3.3.1  r_core=   1.67979   1.64019   1.65987
     41.0000     13.0000      210904    zatom,zion,pspd
     8       2   2     4   600     0    pspcod,pspxc,lmax,lloc,mmax,r2well
  5.99000000  0.00000000  0.00000000    rchrg fchrg qchrg
     2     2     2     0     0    nproj
     1     1           extension_switch
   0                         1.1229636114051D+01  1.1026321352864D+00
     1  0.0000000000000D+00  2.7725494122777D-10 -1.3351690447694D-09
     2  1.0000000000000D-02  5.0636031628341D-02  1.4745304870980D-02
     3  2.0000000000000D-02  1.0126651268494D-01  2.9206449428920D-02
     4  3.0000000000000D-02  1.5188521979418D-01  4.3102729224004D-02
     5  4.0000000000000D-02  2.0248459150153D-01  5.6160316241128D-02
     6  5.0000000000000D-02  2.5305507798490D-01  6.8115609229680D-02
     7  6.0000000000000D-02  3.0358451306947D-01  7.8718479522012D-02
     8  7.0000000000000D-02  3.5405751565201D-01  8.7735379083540D-02
     9  8.0000000000000D-02  4.0445492736436D-01  9.4952278872606D-02
    10  9.0000000000000D-02  4.5475329296305D-01  1.0017740723360D-01
    11  1.0000000000000D-01  5.0492438952918D-01  1.0324375998674D-01
    12  1.1000000000000D-01  5.5493481010106D-01  1.0401135609439D-01
    13  1.2000000000000D-01  6.0474560684714D-01  1.0236921525551D-01
    14  1.3000000000000D-01  6.5431199832263D-01  9.8237036484156D-02
    15  1.4000000000000D-01  7.0358314474504D-01  9.1566559638251D-02
    16  1.5000000000000D-01  7.5250199457726D-01  8.2342594955310D-02
    17  1.6000000000000D-01  8.0100520502744D-01  7.0583708891018D-02
    18  1.7000000000000D-01  8.4902313836942D-01  5.6342557915937D-02
    19  1.8000000000000D-01  8.9647993526132D-01  3.9705865371501D-02
    20  1.9000000000000D-01  9.4329366550102D-01  2.0794039987350D-02
    21  2.0000000000000D-01  9.8937655591107D-01 -2.3956181652144D-04
    22  2.1000000000000D-01  1.0346352942998D+00 -2.3209724210136D-02
    23  2.2000000000000D-01  1.0789714077063D+00 -4.7900801721022D-02
    24  2.3000000000000D-01  1.1222817124126D+00 -7.4068478010633D-02
    25  2.4000000000000D-01  1.1644588325006D+00 -1.0144183791036D-01
    26  2.5000000000000D-01  1.2053917830530D+00 -1.2972573384118D-01
    27  2.6000000000000D-01  1.2449666134568D+00 -1.5860342478860D-01
    28  2.7000000000000D-01  1.2830671056557D+00 -1.8773946325524D-01
    29  2.8000000000000D-01  1.3195755216443D+00 -2.1678280309479D-01
    30  2.9000000000000D-01  1.3543733939832D+00 -2.4537009886719D-01
    31  3.0000000000000D-01  1.3873423526573D+00 -2.7312916536909D-01
    32  3.1000000000000D-01  1.4183649812094D+00 -2.9968256430582D-01
    33  3.2000000000000D-01  1.4473256947412D+00 -3.2465128369785D-01
    34  3.3000000000000D-01  1.4741116321145D+00 -3.4765847457079D-01
    35  3.4000000000000D-01  1.4986135544826D+00 -3.6833320877559D-01
    36  3.5000000000000D-01  1.5207267421607D+00 -3.8631422142956D-01
    37  3.6000000000000D-01  1.5403518817869D+00 -4.0125360146803D-01
    38  3.7000000000000D-01  1.5573959357467D+00 -4.1282039414864D-01
    39  3.8000000000000D-01  1.5717729859292D+00 -4.2070408005436D-01
    40  3.9000000000000D-01  1.5834050440449D+00 -4.2461789619323D-01
    41  4.0000000000000D-01  1.5922228209760D+00 -4.2430196618033D-01
    42  4.1000000000000D-01  1.5981664479348D+00 -4.1952620820237D-01
    43  4.2000000000000D-01  1.6011861425822D+00 -4.1009299148751D-01
    44  4.3000000000000D-01  1.6012428136915D+00 -3.9583951431859D-01
    45  4.4000000000000D-01  1.5983085984444D+00 -3.7663987921108D-01
    46  4.5000000000000D-01  1.5923673269970D+00 -3.5240684370753D-01
    47  4.6000000000000D-01  1.5834149095560D+00 -3.2309322828692D-01
    48  4.7000000000000D-01  1.5714596418563D+00 -2.8869296612623D-01
    49  4.8000000000000D-01  1.5565224256159D+00 -2.4924178284604D-01
    50  4.9000000000000D-01  1.5386369012694D+00 -2.0481749789493D-01
    51  5.0000000000000D-01  1.5178494910227D+00 -1.5553994284023D-01
    52  5.1000000000000D-01  1.4942193510454D+00 -1.0157049550239D-01
    53  5.2000000000000D-01  1.4678182323915D+00 -4.3111232560713D-02
    54  5.3000000000000D-01  1.4387302510295D+00  1.9596293065671D-02
    55  5.4000000000000D-01  1.4070515681415D+00  8.6272640137773D-02
    56  5.5000000000000D-01  1.3728899826310D+00  1.5660241885601D-01
    57  5.6000000000000D-01  1.3363644385337D+00  2.3023656558598D-01
    58  5.7000000000000D-01  1.2976044507634D+00  3.0679493242573D-01
    59  5.8000000000000D-01  1.2567494533307D+00  3.8586916841924D-01
    60  5.9000000000000D-01  1.2139480748401D+00  4.6702586638401D-01
    61  6.0000000000000D-01  1.1693573466992D+00  5.4980994671901D-01
    62  6.1000000000000D-01  1.1231418500501D+00  6.3374824724752D-01
    63  6.2000000000000D-01  1.0754728079596D+00  7.1835328612696D-01
    64  6.3000000000000D-01  1.0265271298659D+00  8.0312716316211D-01
    65  6.4000000000000D-01  9.7648641568621D-01  8.8756556350067D-01
    66  6.5000000000000D-01  9.2553592732299D-01  9.7116182668161D-01
    67  6.6000000000000D-01  8.7386353557061D-01  1.0534110433675D+00
    68  6.7000000000000D-01  8.2165865062066D-01  1.1338141418194D+00
    69  6.8000000000000D-01  7.6911114448105D-01  1.2118819262755D+00
    70  6.9000000000000D-01  7.1641027366898D-01  1.2871390298770D+00
    71  7.0000000000000D-01  6.6374361050738D-01  1.3591277456223D+00
    72  7.1000000000000D-01  6.1129599124806D-01  1.4274117000499D+00
    73  7.2000000000000D-01  5.5924848906573D-01  1.4915793359020D+00
    74  7.3000000000000D-01  5.0777741971600D-01  1.5512471719167D+00
    75  7.4000000000000D-01  4.5705338732950D-01  1.6060628101119D+00
    76  7.5000000000000D-01  4.0724037742995D-01  1.6557076634098D+00
    77  7.6000000000000D-01  3.5849490381375D-01  1.6998993792448D+00
    78  7.7000000000000D-01  3.1096521542425D-01  1.7383939377918D+00
    79  7.8000000000000D-01  2.6479056879569D-01  1.7709874066811D+00
    80  7.9000000000000D-01  2.2010057103665D-01  1.7975173374609D+00
    81  8.0000000000000D-01  1.7701459767718D-01  1.8178637926080D+00
    82  8.1000000000000D-01  1.3564128902345D-01  1.8319499955318D+00
    83  8.2000000000000D-01  9.6078127955595D-02  1.8397425997304D+00
    84  8.3000000000000D-01  5.8411101375684D-02  1.8412515769957D+00
    85  8.4000000000000D-01  2.2714446769993D-02  1.8365297283008D+00
    86  8.5000000000000D-01 -1.0949515399150D-02  1.8256718246839D+00
    87  8.6000000000000D-01 -4.2530463504636D-02  1.8088133890419D+00
    88  8.7000000000000D-01 -7.1990071542003D-02  1.7861291332217D+00
    89  8.8000000000000D-01 -9.9301922390430D-02  1.7578310681098D+00
    90  8.9000000000000D-01 -1.2445133974746D-01  1.7241663075428D+00
    91  9.0000000000000D-01 -1.4743514161131D-01  1.6854145897530D+00
    92  9.1000000000000D-01 -1.6826131882289D-01  1.6418855427011D+00
    93  9.2000000000000D-01 -1.8694864277726D-01  1.5939157220008D+00
    94  9.3000000000000D-01 -2.0352620696455D-01  1.5418654521854D+00
    95  9.4000000000000D-01 -2.1803290749967D-01  1.4861155037790D+00
    96  9.5000000000000D-01 -2.3051686824270D-01  1.4270636400095D+00
    97  9.6000000000000D-01 -2.4103481649534D-01  1.3651210680036D+00
    98  9.7000000000000D-01 -2.4965141557827D-01  1.3007088299478D+00
    99  9.8000000000000D-01 -2.5643856084968D-01  1.2342541699613D+00
   100  9.9000000000000D-01 -2.6147464591067D-01  1.1661869123006D+00
   101  1.0000000000000D+00 -2.6484380586341D-01  1.0969358860590D+00
   102  1.0100000000000D+00 -2.6663514453864D-01  1.0269254306292D+00
   103  1.0200000000000D+00 -2.6694195258902D-01  9.5657201500556D-01
   104  1.0300000000000D+00 -2.6586092326045D-01  8.8628100243626D-01
   105  1.0400000000000D+00 -2.6349137250477D-01  8.1644359007262D-01
   106  1.0500000000000D+00 -2.5993446986708D-01  7.4743395095138D-01
   107  1.0600000000000D+00 -2.5529248634505D-01  6.7960660348299D-01
   108  1.0700000000000D+00 -2.4966806504213D-01  6.1329403052631D-01
   109  1.0800000000000D+00 -2.4316352008521D-01  5.4880456745830D-01
   110  1.0900000000000D+00 -2.3588016883869D-01  4.8642057543558D-01
   111  1.1000000000000D+00 -2.2791770195133D-01  4.2639691262866D-01
   112  1.1100000000000D+00 -2.1937359534574D-01  3.6895971332678D-01
   113  1.1200000000000D+00 -2.1034256761201D-01  3.1430548063846D-01
   114  1.1300000000000D+00 -2.0091608579520D-01  2.6260049558546D-01
   115  1.1400000000000D+00 -1.9118192189277D-01  2.1398054133949D-01
   116  1.1500000000000D+00 -1.8122376195492D-01  1.6855093883188D-01
   117  1.1600000000000D+00 -1.7112086888538D-01  1.2638688543826D-01
   118  1.1700000000000D+00 -1.6094779957634D-01  8.7534085927778D-02
   119  1.1800000000000D+00 -1.5077417634313D-01  5.2009661332255D-02
   120  1.1900000000000D+00 -1.4066451222169D-01  1.9803319252267D-02
   121  1.2000000000000D+00 -1.3067808890100D-01 -9.1212347805956D-03
   122  1.2100000000000D+00 -1.2086888566904D-01 -3.4824666996396D-02
   123  1.2200000000000D+00 -1.1128555733646D-01 -5.7390190171053D-02
   124  1.2300000000000D+00 -1.0197145850261D-01 -7.6921570116098D-02
   125  1.2400000000000D+00 -9.2964711134799D-02 -9.3540991815576D-02
   126  1.2500000000000D+00 -8.4298312156214D-02 -1.0738681404132D-01
   127  1.2600000000000D+00 -7.6000277363891D-02 -1.1861124261753D-01
   128  1.2700000000000D+00 -6.8093817636069D-02 -1.2737795299335D-01
   129  1.2800000000000D+00 -6.0597543322932D-02 -1.3385969252875D-01
   130  1.2900000000000D+00 -5.3525692457145D-02 -1.3823589356490D-01
   131  1.3000000000000D+00 -4.6888378278295D-02 -1.4069032695403D-01
   132  1.3100000000000D+00 -4.0691851624533D-02 -1.4140882514430D-01
   133  1.3200000000000D+00 -3.4938773577929D-02 -1.4057710373479D-01
   134  1.3300000000000D+00 -2.9628493968881D-02 -1.3837870663587D-01
   135  1.3400000000000D+00 -2.4757331326777D-02 -1.3499310056191D-01
   136  1.3500000000000D+00 -2.0318849949034D-02 -1.3059394200560D-01
   137  1.3600000000000D+00 -1.6304130306941D-02 -1.2534753460682D-01
   138  1.3700000000000D+00 -1.2702028624692D-02 -1.1941149835268D-01
   139  1.3800000000000D+00 -9.4994223319410D-03 -1.1293366310664D-01
   140  1.3900000000000D+00 -6.6814382439536D-03 -1.0605119843385D-01
   141  1.4000000000000D+00 -4.2316600993039D-03 -9.8889992768730D-02
   142  1.4100000000000D+00 -2.1323136028395D-03 -9.1564282518316D-02
   143  1.4200000000000D+00 -3.6442616591922D-04 -8.4176539617901D-02
   144  1.4300000000000D+00  1.0920242333676D-03 -7.6817545130229D-02
   145  1.4400000000000D+00  2.2581323473839D-03 -6.9567347519595D-02
   146  1.4500000000000D+00  3.1557762651783D-03 -6.2494969000801D-02
   147  1.4600000000000D+00  3.8065227980766D-03 -5.5654693892541D-02
   148  1.4700000000000D+00  4.2358259727065D-03 -4.9105641317740D-02
   149  1.4800000000000D+00  4.4732678046416D-03 -4.2914077910053D-02
   150  1.4900000000000D+00  4.5349874160952D-03 -3.7077877255212D-02
   151  1.5000000000000D+00  4.4337166642580D-03 -3.1571750062370D-02
   152  1.5100000000000D+00  4.2136432644907D-03 -2.6501199972491D-02
   153  1.5200000000000D+00  3.9203553419623D-03 -2.1972446021945D-02
   154  1.5300000000000D+00  3.5720200945929D-03 -1.7967745542291D-02
   155  1.5400000000000D+00  3.1842337906741D-03 -1.4456476269276D-02
   156  1.5500000000000D+00  2.7776342116785D-03 -1.1430499744963D-02
   157  1.5600000000000D+00  2.3694668735615D-03 -8.8687249252094D-03
   158  1.5700000000000D+00  1.9736062429820D-03 -6.7388538294806D-03
   159  1.5800000000000D+00  1.6018128241068D-03 -5.0045031875419D-03
   160  1.5900000000000D+00  1.2634837646147D-03 -3.6255933369367D-03
   161  1.6000000000000D+00  9.6560329394633D-04 -2.5595181059458D-03
   162  1.6100000000000D+00  7.1277240236305D-04 -1.7625433692563D-03
   163  1.6200000000000D+00  5.0723126057404D-04 -1.1910505405926D-03
   164  1.6300000000000D+00  3.4905239837152D-04 -8.0328565348796D-04
   165  1.6400000000000D+00  2.3534936609106D-04 -5.5724560709307D-04
   166  1.6500000000000D+00  1.6004491775536D-04 -4.1157910024916D-04
   167  1.6600000000000D+00  1.2192734213949D-04 -3.5123406099744D-04
   168  1.6700000000000D+00  1.1537114229602D-04 -3.5745372286361D-04
   169  1.6800000000000D+00  1.0180838405749D-04 -3.2101776568732D-04
   170  1.6900000000000D+00  5.1012372516133D-05 -1.6138179403116D-04
   171  1.7000000000000D+00 -1.4247694509936D-07  4.5368340698295D-07
   172  1.7100000000000D+00 -1.0526744706482D-05  3.3566214864726D-05
   173  1.7200000000000D+00 -4.4258246792835D-07  1.4122076995407D-06
   174  1.7300000000000D+00  2.3972262697648D-06 -7.6529332454147D-06
   175  1.7400000000000D+00  3.2018022034903D-07 -1.0228744428607D-06
   176  1.7500000000000D+00 -2.8843812888343D-07  9.0932907865558D-07
   177  1.7600000000000D+00 -7.6403940840827D-08  2.4087080789004D-07
   178  1.7700000000000D+00  0.0000000000000D+00  0.0000000000000D+00
   179  1.7800000000000D+00  0.0000000000000D+00  0.0000000000000D+00
   180  1.7900000000000D+00  0.0000000000000D+00  0.0000000000000D+00
   181  1.8000000000000D+00  0.0000000000000D+00  0.0000000000000D+00
   182  1.8100000000000D+00  0.0000000000000D+00  0.0000000000000D+00
   183  1.8200000000000D+00  0.0000000000000D+00  0.0000000000000D+00
   184  1.8300000000000D+00  0.0000000000000D+00  0.0000000000000D+00
   185  1.8400000000000D+00  0.0000000000000D+00  0.0000000000000D+00
   186  1.8500000000000D+00  0.0000000000000D+00  0.0000000000000D+00
   187  1.8600000000000D+00  0.0000000000000D+00  0.0000000000000D+00
   188  1.8700000000000D+00  0.0000000000000D+00  0.0000000000000D+00
   189  1.8800000000000D+00  0.0000000000000D+00  0.0000000000000D+00
   190  1.8900000000000D+00  0.0000000000000D+00  0.0000000000000D+00
   191  1.9000000000000D+00  0.0000000000000D+00  0.0000000000000D+00
   192  1.9100000000000D+00  0.0000000000000D+00  0.0000000000000D+00
   193  1.9200000000000D+00  0.0000000000000D+00  0.0000000000000D+00
   194  1.9300000000000D+00  0.0000000000000D+00  0.0000000000000D+00
   195  1.9400000000000D+00  0.0000000000000D+00  0.0000000000000D+00
   196  1.9500000000000D+00  0.0000000000000D+00  0.0000000000000D+00
   197  1.9600000000000D+00  0.0000000000000D+00  0.0000000000000D+00
   198  1.9700000000000D+00  0.0000000000000D+00  0.0000000000000D+00
   199  1.9800000000000D+00  0.0000000000000D+00  0.0000000000000D+00
   200  1.9900000000000D+00  0.0000000000000D+00  0.0000000000000D+00
   201  2.0000000000000D+00  0.0000000000000D+00  0.0000000000000D+00
   202  2.0100000000000D+00  0.0000000000000D+00  0.0000000000000D+00
   203  2.0200000000000D+00  0.0000000000000D+00  0.0000000000000D+00
   204  2.0300000000000D+00  0.0000000000000D+00  0.0000000000000D+00
   205  2.0400000000000D+00  0.0000000000000D+00  0.0000000000000D+00
   206  2.0500000000000D+00  0.0000000000000D+00  0.0000000000000D+00
   207  2.0600000000000D+00  0.0000000000000D+00  0.0000000000000D+00
   208  2.0700000000000D+00  0.0000000000000D+00  0.0000000000000D+00
   209  2.0800000000000D+00  0.0000000000000D+00  0.0000000000000D+00
   210  2.0900000000000D+00  0.0000000000000D+00  0.0000000000000D+00
   211  2.1000000000000D+00  0.0000000000000D+00  0.0000000000000D+00
   212  2.1100000000000D+00  0.0000000000000D+00  0.0000000000000D+00
   213  2.1200000000000D+00  0.0000000000000D+00  0.0000000000000D+00
   214  2.1300000000000D+00  0.0000000000000D+00  0.0000000000000D+00
   215  2.1400000000000D+00  0.0000000000000D+00  0.0000000000000D+00
   216  2.1500000000000D+00  0.0000000000000D+00  0.0000000000000D+00
   217  2.1600000000000D+00  0.0000000000000D+00  0.0000000000000D+00
   218  2.1700000000000D+00  0.0000000000000D+00  0.0000000000000D+00
   219  2.1800000000000D+00  0.0000000000000D+00  0.0000000000000D+00
   220  2.1900000000000D+00  0.0000000000000D+00  0.0000000000000D+00
   221  2.2000000000000D+00  0.0000000000000D+00  0.0000000000000D+00
   222  2.2100000000000D+00  0.0000000000000D+00  0.0000000000000D+00
   223  2.2200000000000D+00  0.0000000000000D+00  0.0000000000000D+00
   224  2.2300000000000D+00  0.0000000000000D+00  0.0000000000000D+00
   225  2.2400000000000D+00  0.0000000000000D+00  0.0000000000000D+00
   226  2.2500000000000D+00  0.0000000000000D+00  0.0000000000000D+00
   227  2.2600000000000D+00  0.0000000000000D+00  0.0000000000000D+00
   228  2.2700000000000D+00  0.0000000000000D+00  0.0000000000000D+00
   229  2.2800000000000D+00  0.0000000000000D+00  0.0000000000000D+00
   230  2.2900000000000D+00  0.0000000000000D+00  0.0000000000000D+00
   231  2.3000000000000D+00  0.0000000000000D+00  0.0000000000000D+00
   232  2.3100000000000D+00  0.0000000000000D+00  0.0000000000000D+00
   233  2.3200000000000D+00  0.0000000000000D+00  0.0000000000000D+00
   234  2.3300000000000D+00  0.0000000000000D+00  0.0000000000000D+00
   235  2.3400000000000D+00  0.0000000000000D+00  0.0000000000000D+00
   236  2.3500000000000D+00  0.0000000000000D+00  0.0000000000000D+00
   237  2.3600000000000D+00  0.0000000000000D+00  0.0000000000000D+00
   238  2.3700000000000D+00  0.0000000000000D+00  0.0000000000000D+00
   239  2.3800000000000D+00  0.0000000000000D+00  0.0000000000000D+00
   240  2.3900000000000D+00  0.0000000000000D+00  0.0000000000000D+00
   241  2.4000000000000D+00  0.0000000000000D+00  0.0000000000000D+00
   242  2.4100000000000D+00  0.0000000000000D+00  0.0000000000000D+00
   243  2.4200000000000D+00  0.0000000000000D+00  0.0000000000000D+00
   244  2.4300000000000D+00  0.0000000000000D+00  0.0000000000000D+00
   245  2.4400000000000D+00  0.0000000000000D+00  0.0000000000000D+00
   246  2.4500000000000D+00  0.0000000000000D+00  0.0000000000000D+00
   247  2.4600000000000D+00  0.0000000000000D+00  0.0000000000000D+00
   248  2.4700000000000D+00  0.0000000000000D+00  0.0000000000000D+00
   249  2.4800000000000D+00  0.0000000000000D+00  0.0000000000000D+00
   250  2.4900000000000D+00  0.0000000000000D+00  0.0000000000000D+00
   251  2.5000000000000D+00  0.0000000000000D+00  0.0000000000000D+00
   252  2.5100000000000D+00  0.0000000000000D+00  0.0000000000000D+00
   253  2.5200000000000D+00  0.0000000000000D+00  0.0000000000000D+00
   254  2.5300000000000D+00  0.0000000000000D+00  0.0000000000000D+00
   255  2.5400000000000D+00  0.0000000000000D+00  0.0000000000000D+00
   256  2.5500000000000D+00  0.0000000000000D+00  0.0000000000000D+00
   257  2.5600000000000D+00  0.0000000000000D+00  0.0000000000000D+00
   258  2.5700000000000D+00  0.0000000000000D+00  0.0000000000000D+00
   259  2.5800000000000D+00  0.0000000000000D+00  0.0000000000000D+00
   260  2.5900000000000D+00  0.0000000000000D+00  0.0000000000000D+00
   261  2.6000000000000D+00  0.0000000000000D+00  0.0000000000000D+00
   262  2.6100000000000D+00  0.0000000000000D+00  0.0000000000000D+00
   263  2.6200000000000D+00  0.0000000000000D+00  0.0000000000000D+00
   264  2.6300000000000D+00  0.0000000000000D+00  0.0000000000000D+00
   265  2.6400000000000D+00  0.0000000000000D+00  0.0000000000000D+00
   266  2.6500000000000D+00  0.0000000000000D+00  0.0000000000000D+00
   267  2.6600000000000D+00  0.0000000000000D+00  0.0000000000000D+00
   268  2.6700000000000D+00  0.0000000000000D+00  0.0000000000000D+00
   269  2.6800000000000D+00  0.0000000000000D+00  0.0000000000000D+00
   270  2.6900000000000D+00  0.0000000000000D+00  0.0000000000000D+00
   271  2.7000000000000D+00  0.0000000000000D+00  0.0000000000000D+00
   272  2.7100000000000D+00  0.0000000000000D+00  0.0000000000000D+00
   273  2.7200000000000D+00  0.0000000000000D+00  0.0000000000000D+00
   274  2.7300000000000D+00  0.0000000000000D+00  0.0000000000000D+00
   275  2.7400000000000D+00  0.0000000000000D+00  0.0000000000000D+00
   276  2.7500000000000D+00  0.0000000000000D+00  0.0000000000000D+00
   277  2.7600000000000D+00  0.0000000000000D+00  0.0000000000000D+00
   278  2.7700000000000D+00  0.0000000000000D+00  0.0000000000000D+00
   279  2.7800000000000D+00  0.0000000000000D+00  0.0000000000000D+00
   280  2.7900000000000D+00  0.0000000000000D+00  0.0000000000000D+00
   281  2.8000000000000D+00  0.0000000000000D+00  0.0000000000000D+00
   282  2.8100000000000D+00  0.0000000000000D+00  0.0000000000000D+00
   283  2.8200000000000D+00  0.0000000000000D+00  0.0000000000000D+00
   284  2.8300000000000D+00  0.0000000000000D+00  0.0000000000000D+00
   285  2.8400000000000D+00  0.0000000000000D+00  0.0000000000000D+00
   286  2.8500000000000D+00  0.0000000000000D+00  0.0000000000000D+00
   287  2.8600000000000D+00  0.0000000000000D+00  0.0000000000000D+00
   288  2.8700000000000D+00  0.0000000000000D+00  0.0000000000000D+00
   289  2.8800000000000D+00  0.0000000000000D+00  0.0000000000000D+00
   290  2.8900000000000D+00  0.0000000000000D+00  0.0000000000000D+00
   291  2.9000000000000D+00  0.0000000000000D+00  0.0000000000000D+00
   292  2.9100000000000D+00  0.0000000000000D+00  0.0000000000000D+00
   293  2.9200000000000D+00  0.0000000000000D+00  0.0000000000000D+00
   294  2.9300000000000D+00  0.0000000000000D+00  0.0000000000000D+00
   295  2.9400000000000D+00  0.0000000000000D+00  0.0000000000000D+00
   296  2.9500000000000D+00  0.0000000000000D+00  0.0000000000000D+00
   297  2.9600000000000D+00  0.0000000000000D+00  0.0000000000000D+00
   298  2.9700000000000D+00  0.0000000000000D+00  0.0000000000000D+00
   299  2.9800000000000D+00  0.0000000000000D+00  0.0000000000000D+00
   300  2.9900000000000D+00  0.0000000000000D+00  0.0000000000000D+00
   301  3.0000000000000D+00  0.0000000000000D+00  0.0000000000000D+00
   302  3.0100000000000D+00  0.0000000000000D+00  0.0000000000000D+00
   303  3.0200000000000D+00  0.0000000000000D+00  0.0000000000000D+00
   304  3.0300000000000D+00  0.0000000000000D+00  0.0000000000000D+00
   305  3.0400000000000D+00  0.0000000000000D+00  0.0000000000000D+00
   306  3.0500000000000D+00  0.0000000000000D+00  0.0000000000000D+00
   307  3.0600000000000D+00  0.0000000000000D+00  0.0000000000000D+00
   308  3.0700000000000D+00  0.0000000000000D+00  0.0000000000000D+00
   309  3.0800000000000D+00  0.0000000000000D+00  0.0000000000000D+00
   310  3.0900000000000D+00  0.0000000000000D+00  0.0000000000000D+00
   311  3.1000000000000D+00  0.0000000000000D+00  0.0000000000000D+00
   312  3.1100000000000D+00  0.0000000000000D+00  0.0000000000000D+00
   313  3.1200000000000D+00  0.0000000000000D+00  0.0000000000000D+00
   314  3.1300000000000D+00  0.0000000000000D+00  0.0000000000000D+00
   315  3.1400000000000D+00  0.0000000000000D+00  0.0000000000000D+00
   316  3.1500000000000D+00  0.0000000000000D+00  0.0000000000000D+00
   317  3.1600000000000D+00  0.0000000000000D+00  0.0000000000000D+00
   318  3.1700000000000D+00  0.0000000000000D+00  0.0000000000000D+00
   319  3.1800000000000D+00  0.0000000000000D+00  0.0000000000000D+00
   320  3.1900000000000D+00  0.0000000000000D+00  0.0000000000000D+00
   321  3.2000000000000D+00  0.0000000000000D+00  0.0000000000000D+00
   322  3.2100000000000D+00  0.0000000000000D+00  0.0000000000000D+00
   323  3.2200000000000D+00  0.0000000000000D+00  0.0000000000000D+00
   324  3.2300000000000D+00  0.0000000000000D+00  0.0000000000000D+00
   325  3.2400000000000D+00  0.0000000000000D+00  0.0000000000000D+00
   326  3.2500000000000D+00  0.0000000000000D+00  0.0000000000000D+00
   327  3.2600000000000D+00  0.0000000000000D+00  0.0000000000000D+00
   328  3.2700000000000D+00  0.0000000000000D+00  0.0000000000000D+00
   329  3.2800000000000D+00  0.0000000000000D+00  0.0000000000000D+00
   330  3.2900000000000D+00  0.0000000000000D+00  0.0000000000000D+00
   331  3.3000000000000D+00  0.0000000000000D+00  0.0000000000000D+00
   332  3.3100000000000D+00  0.0000000000000D+00  0.0000000000000D+00
   333  3.3200000000000D+00  0.0000000000000D+00  0.0000000000000D+00
   334  3.3300000000000D+00  0.0000000000000D+00  0.0000000000000D+00
   335  3.3400000000000D+00  0.0000000000000D+00  0.0000000000000D+00
   336  3.3500000000000D+00  0.0000000000000D+00  0.0000000000000D+00
   337  3.3600000000000D+00  0.0000000000000D+00  0.0000000000000D+00
   338  3.3700000000000D+00  0.0000000000000D+00  0.0000000000000D+00
   339  3.3800000000000D+00  0.0000000000000D+00  0.0000000000000D+00
   340  3.3900000000000D+00  0.0000000000000D+00  0.0000000000000D+00
   341  3.4000000000000D+00  0.0000000000000D+00  0.0000000000000D+00
   342  3.4100000000000D+00  0.0000000000000D+00  0.0000000000000D+00
   343  3.4200000000000D+00  0.0000000000000D+00  0.0000000000000D+00
   344  3.4300000000000D+00  0.0000000000000D+00  0.0000000000000D+00
   345  3.4400000000000D+00  0.0000000000000D+00  0.0000000000000D+00
   346  3.4500000000000D+00  0.0000000000000D+00  0.0000000000000D+00
   347  3.4600000000000D+00  0.0000000000000D+00  0.0000000000000D+00
   348  3.4700000000000D+00  0.0000000000000D+00  0.0000000000000D+00
   349  3.4800000000000D+00  0.0000000000000D+00  0.0000000000000D+00
   350  3.4900000000000D+00  0.0000000000000D+00  0.0000000000000D+00
   351  3.5000000000000D+00  0.0000000000000D+00  0.0000000000000D+00
   352  3.5100000000000D+00  0.0000000000000D+00  0.0000000000000D+00
   353  3.5200000000000D+00  0.0000000000000D+00  0.0000000000000D+00
   354  3.5300000000000D+00  0.0000000000000D+00  0.0000000000000D+00
   355  3.5400000000000D+00  0.0000000000000D+00  0.0000000000000D+00
   356  3.5500000000000D+00  0.0000000000000D+00  0.0000000000000D+00
   357  3.5600000000000D+00  0.0000000000000D+00  0.0000000000000D+00
   358  3.5700000000000D+00  0.0000000000000D+00  0.0000000000000D+00
   359  3.5800000000000D+00  0.0000000000000D+00  0.0000000000000D+00
   360  3.5900000000000D+00  0.0000000000000D+00  0.0000000000000D+00
   361  3.6000000000000D+00  0.0000000000000D+00  0.0000000000000D+00
   362  3.6100000000000D+00  0.0000000000000D+00  0.0000000000000D+00
   363  3.6200000000000D+00  0.0000000000000D+00  0.0000000000000D+00
   364  3.6300000000000D+00  0.0000000000000D+00  0.0000000000000D+00
   365  3.6400000000000D+00  0.0000000000000D+00  0.0000000000000D+00
   366  3.6500000000000D+00  0.0000000000000D+00  0.0000000000000D+00
   367  3.6600000000000D+00  0.0000000000000D+00  0.0000000000000D+00
   368  3.6700000000000D+00  0.0000000000000D+00  0.0000000000000D+00
   369  3.6800000000000D+00  0.0000000000000D+00  0.0000000000000D+00
   370  3.6900000000000D+00  0.0000000000000D+00  0.0000000000000D+00
   371  3.7000000000000D+00  0.0000000000000D+00  0.0000000000000D+00
   372  3.7100000000000D+00  0.0000000000000D+00  0.0000000000000D+00
   373  3.7200000000000D+00  0.0000000000000D+00  0.0000000000000D+00
   374  3.7300000000000D+00  0.0000000000000D+00  0.0000000000000D+00
   375  3.7400000000000D+00  0.0000000000000D+00  0.0000000000000D+00
   376  3.7500000000000D+00  0.0000000000000D+00  0.0000000000000D+00
   377  3.7600000000000D+00  0.0000000000000D+00  0.0000000000000D+00
   378  3.7700000000000D+00  0.0000000000000D+00  0.0000000000000D+00
   379  3.7800000000000D+00  0.0000000000000D+00  0.0000000000000D+00
   380  3.7900000000000D+00  0.0000000000000D+00  0.0000000000000D+00
   381  3.8000000000000D+00  0.0000000000000D+00  0.0000000000000D+00
   382  3.8100000000000D+00  0.0000000000000D+00  0.0000000000000D+00
   383  3.8200000000000D+00  0.0000000000000D+00  0.0000000000000D+00
   384  3.8300000000000D+00  0.0000000000000D+00  0.0000000000000D+00
   385  3.8400000000000D+00  0.0000000000000D+00  0.0000000000000D+00
   386  3.8500000000000D+00  0.0000000000000D+00  0.0000000000000D+00
   387  3.8600000000000D+00  0.0000000000000D+00  0.0000000000000D+00
   388  3.8700000000000D+00  0.0000000000000D+00  0.0000000000000D+00
   389  3.8800000000000D+00  0.0000000000000D+00  0.0000000000000D+00
   390  3.8900000000000D+00  0.0000000000000D+00  0.0000000000000D+00
   391  3.9000000000000D+00  0.0000000000000D+00  0.0000000000000D+00
   392  3.9100000000000D+00  0.0000000000000D+00  0.0000000000000D+00
   393  3.9200000000000D+00  0.0000000000000D+00  0.0000000000000D+00
   394  3.9300000000000D+00  0.0000000000000D+00  0.0000000000000D+00
   395  3.9400000000000D+00  0.0000000000000D+00  0.0000000000000D+00
   396  3.9500000000000D+00  0.0000000000000D+00  0.0000000000000D+00
   397  3.9600000000000D+00  0.0000000000000D+00  0.0000000000000D+00
   398  3.9700000000000D+00  0.0000000000000D+00  0.0000000000000D+00
   399  3.9800000000000D+00  0.0000000000000D+00  0.0000000000000D+00
   400  3.9900000000000D+00  0.0000000000000D+00  0.0000000000000D+00
   401  4.0000000000000D+00  0.0000000000000D+00  0.0000000000000D+00
   402  4.0100000000000D+00  0.0000000000000D+00  0.0000000000000D+00
   403  4.0200000000000D+00  0.0000000000000D+00  0.0000000000000D+00
   404  4.0300000000000D+00  0.0000000000000D+00  0.0000000000000D+00
   405  4.0400000000000D+00  0.0000000000000D+00  0.0000000000000D+00
   406  4.0500000000000D+00  0.0000000000000D+00  0.0000000000000D+00
   407  4.0600000000000D+00  0.0000000000000D+00  0.0000000000000D+00
   408  4.0700000000000D+00  0.0000000000000D+00  0.0000000000000D+00
   409  4.0800000000000D+00  0.0000000000000D+00  0.0000000000000D+00
   410  4.0900000000000D+00  0.0000000000000D+00  0.0000000000000D+00
   411  4.1000000000000D+00  0.0000000000000D+00  0.0000000000000D+00
   412  4.1100000000000D+00  0.0000000000000D+00  0.0000000000000D+00
   413  4.1200000000000D+00  0.0000000000000D+00  0.0000000000000D+00
   414  4.1300000000000D+00  0.0000000000000D+00  0.0000000000000D+00
   415  4.1400000000000D+00  0.0000000000000D+00  0.0000000000000D+00
   416  4.1500000000000D+00  0.0000000000000D+00  0.0000000000000D+00
   417  4.1600000000000D+00  0.0000000000000D+00  0.0000000000000D+00
   418  4.1700000000000D+00  0.0000000000000D+00  0.0000000000000D+00
   419  4.1800000000000D+00  0.0000000000000D+00  0.0000000000000D+00
   420  4.1900000000000D+00  0.0000000000000D+00  0.0000000000000D+00
   421  4.2000000000000D+00  0.0000000000000D+00  0.0000000000000D+00
   422  4.2100000000000D+00  0.0000000000000D+00  0.0000000000000D+00