Ne    ONCVPSP-3.3.1  r_core=   2.65215   2.68397
     10.0000      8.0000      210904    zatom,zion,pspd
     8       2   1     4   600     0    pspcod,pspxc,lmax,lloc,mmax,r2well
  5.99000000  0.00000000  0.00000000    rchrg fchrg qchrg
     2     2     0     0     0    nproj
     1     1           extension_switch
   0                        -2.2207395904505D+00 -8.5665337158211D-01
     1  0.0000000000000D+00  3.9988012900949D-12  3.3600899840280D-13
     2  1.0000000000000D-02  2.1597508063449D-02 -3.7654831807117D-02
     3  2.0000000000000D-02  4.3200545911924D-02 -7.5244167941980D-02
     4  3.0000000000000D-02  6.4814578060408D-02 -1.1270262037210D-01
     5  4.0000000000000D-02  8.6444938751287D-02 -1.4996501618706D-01
     6  5.0000000000000D-02  1.0809676748579D-01 -1.8696650476594D-01
     7  6.0000000000000D-02  1.2977494535390D-01 -2.2364266447273D-01
     8  7.0000000000000D-02  1.5148403242411D-01 -2.5992960872262D-01
     9  8.0000000000000D-02  1.7322820645061D-01 -2.9576409126268D-01
    10  9.0000000000000D-02  1.9501120315029D-01 -3.3108361051063D-01
    11  1.0000000000000D-01  2.1683625829605D-01 -3.6582651279606D-01
    12  1.1000000000000D-01  2.3870605186623D-01 -3.9993209434908D-01
    13  1.2000000000000D-01  2.6062265448196D-01 -4.3334070188200D-01
    14  1.3000000000000D-01  2.8258747635577D-01 -4.6599383161067D-01
    15  1.4000000000000D-01  3.0460121896521D-01 -4.9783422656290D-01
    16  1.5000000000000D-01  3.2666382965502D-01 -5.2880597202263D-01
    17  1.6000000000000D-01  3.4877445936015D-01 -5.5885458895959D-01
    18  1.7000000000000D-01  3.7093142363057D-01 -5.8792712529582D-01
    19  1.8000000000000D-01  3.9313216712573D-01 -6.1597224486165D-01
    20  1.9000000000000D-01  4.1537323173398D-01 -6.4294031389573D-01
    21  2.0000000000000D-01  4.3765022845830D-01 -6.6878348494544D-01
    22  2.1000000000000D-01  4.5995781319554D-01 -6.9345577802605D-01
    23  2.2000000000000D-01  4.8228966652163D-01 -7.1691315889943D-01
    24  2.3000000000000D-01  5.0463847758024D-01 -7.3911361433546D-01
    25  2.4000000000000D-01  5.2699593215673D-01 -7.6001722422194D-01
    26  2.5000000000000D-01  5.4935270500356D-01 -7.7958623039196D-01
    27  2.6000000000000D-01  5.7169845646717D-01 -7.9778510204060D-01
    28  2.7000000000000D-01  5.9402183345040D-01 -8.1458059760636D-01
    29  2.8000000000000D-01  6.1631047472766D-01 -8.2994182299646D-01
    30  2.9000000000000D-01  6.3855102061432D-01 -8.4384028603889D-01
    31  3.0000000000000D-01  6.6072912697473D-01 -8.5624994704860D-01
    32  3.1000000000000D-01  6.8282948353744D-01 -8.6714726539933D-01
    33  3.2000000000000D-01  7.0483583646957D-01 -8.7651124199779D-01
    34  3.3000000000000D-01  7.2673101514656D-01 -8.8432345756159D-01
    35  3.4000000000000D-01  7.4849696303743D-01 -8.9056810660795D-01
    36  3.5000000000000D-01  7.7011477261048D-01 -8.9523202706578D-01
    37  3.6000000000000D-01  7.9156472414880D-01 -8.9830472542969D-01
    38  3.7000000000000D-01  8.1282632835075D-01 -8.9977839738082D-01
    39  3.8000000000000D-01  8.3387837257586D-01 -8.9964794380600D-01
    40  3.9000000000000D-01  8.5469897058307D-01 -8.9791098215338D-01
    41  4.0000000000000D-01  8.7526561559511D-01 -8.9456785307025D-01
    42  4.1000000000000D-01  8.9555523651008D-01 -8.8962162227596D-01
    43  4.2000000000000D-01  9.1554425706970D-01 -8.8307807763060D-01
    44  4.3000000000000D-01  9.3520865778229D-01 -8.7494572136840D-01
    45  4.4000000000000D-01  9.5452404038820D-01 -8.6523575747280D-01
    46  4.5000000000000D-01  9.7346569464602D-01 -8.5396207417901D-01
    47  4.6000000000000D-01  9.9200866720866D-01 -8.4114122159851D-01
    48  4.7000000000000D-01  1.0101278323510D+00 -8.2679238446900D-01
    49  4.8000000000000D-01  1.0277979643033D+00 -8.1093735004283D-01
    50  4.9000000000000D-01  1.0449938109387D+00 -7.9360047113601D-01
    51  5.0000000000000D-01  1.0616901685577D+00 -7.7480862437008D-01
    52  5.1000000000000D-01  1.0778619575093D+00 -7.5459116364838D-01
    53  5.2000000000000D-01  1.0934842983823D+00 -7.3297986891880D-01
    54  5.3000000000000D-01  1.1085325885027D+00 -7.1000889028471D-01
    55  5.4000000000000D-01  1.1229825784664D+00 -6.8571468753633D-01
    56  5.5000000000000D-01  1.1368104484412D+00 -6.6013596518476D-01
    57  5.6000000000000D-01  1.1499928839679D+00 -6.3331360309153D-01
    58  5.7000000000000D-01  1.1625071509966D+00 -6.0529058279642D-01
    59  5.8000000000000D-01  1.1743311698922D+00 -5.7611190965712D-01
    60  5.9000000000000D-01  1.1854435881515D+00 -5.4582453092412D-01
    61  6.0000000000000D-01  1.1958238515744D+00 -5.1447724988468D-01
    62  6.1000000000000D-01  1.2054522736396D+00 -4.8212063621983D-01
    63  6.2000000000000D-01  1.2143101028417D+00 -4.4880693272813D-01
    64  6.3000000000000D-01  1.2223795877520D+00 -4.1458995857978D-01
    65  6.4000000000000D-01  1.2296440395750D+00 -3.7952500927453D-01
    66  6.5000000000000D-01  1.2360878919804D+00 -3.4366875348564D-01
    67  6.6000000000000D-01  1.2416967580017D+00 -3.0707912698184D-01
    68  6.7000000000000D-01  1.2464574837991D+00 -2.6981522382751D-01
    69  6.8000000000000D-01  1.2503581991017D+00 -2.3193718507009D-01
    70  6.9000000000000D-01  1.2533883641485D+00 -1.9350608513168D-01
    71  7.0000000000000D-01  1.2555388129659D+00 -1.5458381612949D-01
    72  7.1000000000000D-01  1.2568017928298D+00 -1.1523297035692D-01
    73  7.2000000000000D-01  1.2571709997727D+00 -7.5516721164191D-02
    74  7.3000000000000D-01  1.2566416100135D+00 -3.5498702483250D-02
    75  7.4000000000000D-01  1.2552103071984D+00  4.7571127521207D-03
    76  7.5000000000000D-01  1.2528753053582D+00  4.5186535035168D-02
    77  7.6000000000000D-01  1.2496363675018D+00  8.5725281303353D-02
    78  7.7000000000000D-01  1.2454948197807D+00  1.2630909827928D-01
    79  7.8000000000000D-01  1.2404535611732D+00  1.6687388586738D-01
    80  7.9000000000000D-01  1.2345170686577D+00  2.0735582033563D-01
    81  8.0000000000000D-01  1.2276913978514D+00  2.4769147700939D-01
    82  8.1000000000000D-01  1.2199841791162D+00  2.8781795220344D-01
    83  8.2000000000000D-01  1.2114046091410D+00  3.2767298411706D-01
    84  8.3000000000000D-01  1.2019634380297D+00  3.6719507241763D-01
    85  8.4000000000000D-01  1.1916729519380D+00  4.0632359623876D-01
    86  8.5000000000000D-01  1.1805469513170D+00  4.4499893032036D-01
    87  8.6000000000000D-01  1.1686007248377D+00  4.8316255902076D-01
    88  8.7000000000000D-01  1.1558510190823D+00  5.2075718793378D-01
    89  8.8000000000000D-01  1.1423160041063D+00  5.5772685284749D-01
    90  8.9000000000000D-01  1.1280152349843D+00  5.9401702578619D-01
    91  9.0000000000000D-01  1.1129696094709D+00  6.2957471788229D-01
    92  9.1000000000000D-01  1.0972013219153D+00  6.6434857883110D-01
    93  9.2000000000000D-01  1.0807338135856D+00  6.9828899268821D-01
    94  9.3000000000000D-01  1.0635917195655D+00  7.3134816977704D-01
    95  9.4000000000000D-01  1.0458008124012D+00  7.6348023448214D-01
    96  9.5000000000000D-01  1.0273879426836D+00  7.9464130871317D-01
    97  9.6000000000000D-01  1.0083809767606D+00  8.2478959083424D-01
    98  9.7000000000000D-01  9.8880873178562D-01  8.5388542986343D-01
    99  9.8000000000000D-01  9.6870090831309D-01  8.8189139475875D-01
   100  9.9000000000000D-01  9.4808802066028D-01  9.0877233861832D-01
   101  1.0000000000000D+00  9.2700132526203D-01  9.3449545763491D-01
   102  1.0100000000000D+00  9.0547274724863D-01  9.5903034465777D-01
   103  1.0200000000000D+00  8.8353480548309D-01  9.8234903722811D-01
   104  1.0300000000000D+00  8.6122053629716D-01  1.0044260599688D+00
   105  1.0400000000000D+00  8.3856341616854D-01  1.0252384612227D+00
   106  1.0500000000000D+00  8.1559728358363D-01  1.0447658438483D+00
   107  1.0600000000000D+00  7.9235626033144D-01  1.0629903900991D+00
   108  1.0700000000000D+00  7.6887467247431D-01  1.0798968805244D+00
   109  1.0800000000000D+00  7.4518697124066D-01  1.0954727068491D+00
   110  1.0900000000000D+00  7.2132765408318D-01  1.1097078788037D+00
   111  1.1000000000000D+00  6.9733118614404D-01  1.1225950248914D+00
   112  1.1100000000000D+00  6.7323192236483D-01  1.1341293870984D+00
   113  1.1200000000000D+00  6.4906403047562D-01  1.1443088095661D+00
   114  1.1300000000000D+00  6.2486141509160D-01  1.1531337212651D+00
   115  1.1400000000000D+00  6.0065764314202D-01  1.1606071127209D+00
   116  1.1500000000000D+00  5.7648587084790D-01  1.1667345068635D+00
   117  1.1600000000000D+00  5.5237877245887D-01  1.1715239240874D+00
   118  1.1700000000000D+00  5.2836847095100D-01  1.1749858416233D+00
   119  1.1800000000000D+00  5.0448647088129D-01  1.1771331473391D+00
   120  1.1900000000000D+00  4.8076359358232D-01  1.1779810881044D+00
   121  1.2000000000000D+00  4.5722991487217D-01  1.1775472128688D+00
   122  1.2100000000000D+00  4.3391470544619D-01  1.1758513106154D+00
   123  1.2200000000000D+00  4.1084637410518D-01  1.1729153433674D+00
   124  1.2300000000000D+00  3.8805241396203D-01  1.1687633744434D+00
   125  1.2400000000000D+00  3.6555935175915D-01  1.1634214921637D+00
   126  1.2500000000000D+00  3.4339270041992D-01  1.1569177292254D+00
   127  1.2600000000000D+00  3.2157691493820D-01  1.1492819779787D+00
   128  1.2700000000000D+00  3.0013535170168D-01  1.1405459018483D+00
   129  1.2800000000000D+00  2.7909023133755D-01  1.1307428431453D+00
   130  1.2900000000000D+00  2.5846260514423D-01  1.1199077275410D+00
   131  1.3000000000000D+00  2.3827232516732D-01  1.1080769654710D+00
   132  1.3100000000000D+00  2.1853801797105D-01  1.0952883507477D+00
   133  1.3200000000000D+00  1.9927706212719D-01  1.0815809566748D+00
   134  1.3300000000000D+00  1.8050556944415D-01  1.0669950299551D+00
   135  1.3400000000000D+00  1.6223836994692D-01  1.0515718826922D+00
   136  1.3500000000000D+00  1.4448900058896D-01  1.0353537827949D+00
   137  1.3600000000000D+00  1.2726969768786D-01  1.0183838430901D+00
   138  1.3700000000000D+00  1.1059139304995D-01  1.0007059094600D+00
   139  1.3800000000000D+00  9.4463713729570D-02  9.8236444831566D-01
   140  1.3900000000000D+00  7.8894985387847D-02  9.6340443372422D-01
   141  1.4000000000000D+00  6.3892239163313D-02  9.4387123450537D-01
   142  1.4100000000000D+00  4.9461221986597D-02  9.2381050160916D-01
   143  1.4200000000000D+00  3.5606410254959D-02  9.0326805609370D-01
   144  1.4300000000000D+00  2.2331026750689D-02  8.8228977800256D-01
   145  1.4400000000000D+00  9.6370607192554D-03  8.6092149645998D-01
   146  1.4500000000000D+00 -2.4747090325227D-03  8.3920888127389D-01
   147  1.4600000000000D+00 -1.4004688131116D-02  8.1719733634524D-01
   148  1.4700000000000D+00 -2.4954437857884D-02  7.9493189517950D-01
   149  1.4800000000000D+00 -3.5326643750330D-02  7.7245711875863D-01
   150  1.4900000000000D+00 -4.5125081710499D-02  7.4981699607997D-01
   151  1.5000000000000D+00 -5.4354581797895D-02  7.2705484758208D-01
   152  1.5100000000000D+00 -6.3020989844658D-02  7.0421323174964D-01
   153  1.5200000000000D+00 -7.1131127072933D-02  6.8133385510753D-01
   154  1.5300000000000D+00 -7.8692747872719D-02  6.5845748584605D-01
   155  1.5400000000000D+00 -8.5714495915515D-02  6.3562387130148D-01
   156  1.5500000000000D+00 -9.2205858777557D-02  6.1287165946152D-01
   157  1.5600000000000D+00 -9.8177121246907D-02  5.9023832474412D-01
   158  1.5700000000000D+00 -1.0363931749287D-01  5.6776009813613D-01
   159  1.5800000000000D+00 -1.0860418227641D-01  5.4547190196288D-01
   160  1.5900000000000D+00 -1.1308410137490D-01  5.2340728930383D-01
   161  1.6000000000000D+00 -1.1709206140635D-01  5.0159838831505D-01
   162  1.6100000000000D+00 -1.2064159921708D-01  4.8007585144046D-01
   163  1.6200000000000D+00 -1.2374675102015D-01  4.5886880972471D-01
   164  1.6300000000000D+00 -1.2642200144051D-01  4.3800483219988D-01
   165  1.6400000000000D+00 -1.2868223264935D-01  4.1750989049741D-01
   166  1.6500000000000D+00 -1.3054267373720D-01  3.9740832865073D-01
   167  1.6600000000000D+00 -1.3201885049802D-01  3.7772283817894D-01
   168  1.6700000000000D+00 -1.3312653576742D-01  3.5847443840632D-01
   169  1.6800000000000D+00 -1.3388170047374D-01  3.3968246205286D-01
   170  1.6900000000000D+00 -1.3430046553666D-01  3.2136454603204D-01
   171  1.7000000000000D+00 -1.3439905475806D-01  3.0353662744635D-01
   172  1.7100000000000D+00 -1.3419374882673D-01  2.8621294468711D-01
   173  1.7200000000000D+00 -1.3370084057073D-01  2.6940604359864D-01
   174  1.7300000000000D+00 -1.3293659155780D-01  2.5312678857047D-01
   175  1.7400000000000D+00 -1.3191719017379D-01  2.3738437850350D-01
   176  1.7500000000000D+00 -1.3065871124706D-01  2.2218636745751D-01
   177  1.7600000000000D+00 -1.2917707735551D-01  2.0753868992866D-01
   178  1.7700000000000D+00 -1.2748802183801D-01  1.9344569049560D-01
   179  1.7800000000000D+00 -1.2560705366688D-01  1.7991015780109D-01
   180  1.7900000000000D+00 -1.2354942414114D-01  1.6693336253083D-01
   181  1.8000000000000D+00 -1.2133009559280D-01  1.5451509938406D-01
   182  1.8100000000000D+00 -1.1896371198853D-01  1.4265373262255D-01
   183  1.8200000000000D+00 -1.1646457166346D-01  1.3134624521394D-01
   184  1.8300000000000D+00 -1.1384660199793D-01  1.2058829111135D-01
   185  1.8400000000000D+00 -1.1112333628908D-01  1.1037425066011D-01
   186  1.8500000000000D+00 -1.0830789261289D-01  1.0069728870048D-01
   187  1.8600000000000D+00 -1.0541295487045D-01  9.1549415264137D-02
   188  1.8700000000000D+00 -1.0245075587145D-01  8.2921548517795D-02
   189  1.8800000000000D+00 -9.9433062536626D-02  7.4803579740965D-02
   190  1.8900000000000D+00 -9.6371163166986D-02  6.7184440069266D-02
   191  1.9000000000000D+00 -9.3275856725093D-02  6.0052168717444D-02
   192  1.9100000000000D+00 -9.0157444189120D-02  5.3393982442845D-02
   193  1.9200000000000D+00 -8.7025721784828D-02  4.7196345963327D-02
   194  1.9300000000000D+00 -8.3889976249524D-02  4.1445043047477D-02
   195  1.9400000000000D+00 -8.0758981861293D-02  3.6125248060895D-02
   196  1.9500000000000D+00 -7.7640999366134D-02  3.1221597615762D-02
   197  1.9600000000000D+00 -7.4543776601370D-02  2.6718262157694D-02
   198  1.9700000000000D+00 -7.1474550815402D-02  2.2599017156481D-02
   199  1.9800000000000D+00 -6.8440052614235D-02  1.8847313651949D-02
   200  1.9900000000000D+00 -6.5446511390660D-02  1.5446348006953D-02
   201  2.0000000000000D+00 -6.2499662265194D-02  1.2379130395644D-02
   202  2.0100000000000D+00 -5.9604754332385D-02  9.6285521275103D-03
   203  2.0200000000000D+00 -5.6766560229171D-02  7.1774512039446D-03
   204  2.0300000000000D+00 -5.3989386872822D-02  5.0086762026931D-03
   205  2.0400000000000D+00 -5.1277087296999D-02  3.1051481432621D-03
   206  2.0500000000000D+00 -4.8633073505675D-02  1.4499200067346D-03
   207  2.0600000000000D+00 -4.6060330231943D-02  2.6234167503369D-05
   208  2.0700000000000D+00 -4.3561429516112D-02 -1.1824231274448D-03
   209  2.0800000000000D+00 -4.1138546021385D-02 -2.1922696703957D-03
   210  2.0900000000000D+00 -3.8793472972974D-02 -3.0191782419482D-03
   211  2.1000000000000D+00 -3.6527638632057D-02 -3.6786306481092D-03
   212  2.1100000000000D+00 -3.4342123258999D-02 -4.1856745606000D-03
   213  2.1200000000000D+00 -3.2237676372757D-02 -4.5548840720297D-03
   214  2.1300000000000D+00 -3.0214734352947D-02 -4.8003231456290D-03
   215  2.1400000000000D+00 -2.8273438192176D-02 -4.9355126923552D-03
   216  2.1500000000000D+00 -2.6413651334092D-02 -4.9734012231729D-03
   217  2.1600000000000D+00 -2.4634977635576D-02 -4.9263385786394D-03
   218  2.1700000000000D+00 -2.2936779139954D-02 -4.8060538149039D-03
   219  2.1800000000000D+00 -2.1318193848643D-02 -4.6236361703426D-03
   220  2.1900000000000D+00 -1.9778153265141D-02 -4.3895197480931D-03
   221  2.2000000000000D+00 -1.8315399618362D-02 -4.1134719884523D-03
   222  2.2100000000000D+00 -1.6928502927062D-02 -3.8045851458165D-03
   223  2.2200000000000D+00 -1.5615877518733D-02 -3.4712718084407D-03
   224  2.2300000000000D+00 -1.4375798218087D-02 -3.1212635566165D-03
   225  2.2400000000000D+00 -1.3206416117126D-02 -2.7616128295661D-03
   226  2.2500000000000D+00 -1.2105773667325D-02 -2.3986985239240D-03
   227  2.2600000000000D+00 -1.1071819405492D-02 -2.0382342722299D-03
   228  2.2700000000000D+00 -1.0102421995753D-02 -1.6852800385704D-03
   229  2.2800000000000D+00 -9.1953836097906D-03 -1.3442567695482D-03
   230  2.2900000000000D+00 -8.3484528619737D-03 -1.0189634180910D-03
   231  2.3000000000000D+00 -7.5593368639633D-03 -7.1259712104675D-04
   232  2.3100000000000D+00 -6.8257127156268D-03 -4.2777565427623D-04
   233  2.3200000000000D+00 -6.1452384037145D-03 -1.6656206979945D-04
   234  2.3300000000000D+00 -5.5155628038237D-03  6.9508111014850D-05
   235  2.3400000000000D+00 -4.9343351718839D-03  2.7939801948420D-04
   236  2.3500000000000D+00 -4.3992139168862D-03  4.6253869922353D-04
   237  2.3600000000000D+00 -3.9078745833099D-03  6.1879660089696D-04
   238  2.3700000000000D+00 -3.4580173260666D-03  7.4843985424779D-04
   239  2.3800000000000D+00 -3.0473736275954D-03  8.5210322480692D-04
   240  2.3900000000000D+00 -2.6737123477805D-03  9.3075205031225D-04
   241  2.4000000000000D+00 -2.3348452808110D-03  9.8564541895070D-04
   242  2.4100000000000D+00 -2.0286319829474D-03  1.0182987367751D-03
   243  2.4200000000000D+00 -1.7529840554579D-03  1.0304459334809D-03
   244  2.4300000000000D+00 -1.5058689616090D-03  1.0240013743754D-03
   245  2.4400000000000D+00 -1.2853132063170D-03  1.0010219874785D-03
   246  2.4500000000000D+00 -1.0894050797279D-03  9.6366956442341D-04
   247  2.4600000000000D+00 -9.1629697007806D-04  9.1417325212318D-04
   248  2.4700000000000D+00 -7.6420718881757D-04  8.5479312089036D-04
   249  2.4800000000000D+00 -6.3142143726257D-04  7.8778431470532D-04
   250  2.4900000000000D+00 -5.1629389971962D-04  7.1536193728870D-04
   251  2.5000000000000D+00 -4.1724802019344D-04  6.3966775915956D-04
   252  2.5100000000000D+00 -3.3277697747835D-04  5.6273789784949D-04
   253  2.5200000000000D+00 -2.6144386295698D-04  4.8647170850110D-04
   254  2.5300000000000D+00 -2.0188170506441D-04  4.1260317398323D-04
   255  2.5400000000000D+00 -1.5279324641307D-04  3.4267360247167D-04
   256  2.5500000000000D+00 -1.1295049287378D-04  2.7800589082291D-04
   257  2.5600000000000D+00 -8.1194010709471D-05  2.1968233390472D-04
   258  2.5700000000000D+00 -5.6431371884306D-05  1.6852510726611D-04
   259  2.5800000000000D+00 -3.7642451343025D-05  1.2506672423704D-04
   260  2.5900000000000D+00 -2.3870354425409D-05  8.9538540548816D-05
   261  2.6000000000000D+00 -1.4214097322080D-05  6.1682209554629D-05
   262  2.6100000000000D+00 -7.8610881395584D-06  4.1493828223405D-05
   263  2.6200000000000D+00 -4.0485661007707D-06  2.8324839091303D-05
   264  2.6300000000000D+00 -2.1419430617926D-06  2.1832134708819D-05
   265  2.6400000000000D+00 -1.3765676890012D-06  1.8869295419479D-05
   266  2.6500000000000D+00 -1.1472082311520D-06  1.6869250481681D-05
   267  2.6600000000000D+00 -8.8445586308792D-07  1.2651384462508D-05
   268  2.6700000000000D+00 -5.2477952887072D-07  7.1145675751126D-06
   269  2.6800000000000D+00 -1.3774390502310D-07  1.7636171832180D-06
   270  2.6900000000000D+00  7.8115423469272D-08 -1.1680298785028D-06
   271  2.7000000000000D+00  1.0910156824598D-07 -1.6067811172072D-06
   272  2.7100000000000D+00  5.2903718020823D-08 -7.6705600519815D-07
   273  2.7200000000000D+00 -8.4650018843850D-09  1.5699043928133D-07
   274  2.7300000000000D+00 -1.8996216117865D-08  3.5730632921564D-07
   275  2.7400000000000D+00 -1.3002391043247D-08  2.4754174023584D-07
   276  2.7500000000000D+00  4.4267146676154D-10 -6.4564554991314D-09
   277  2.7600000000000D+00  2.9145242870023D-09 -4.2508943478628D-08
   278  2.7700000000000D+00  2.7628256531246D-09 -4.0296387322534D-08
   279  2.7800000000000D+00  4.9865782648838D-10 -7.2730282111228D-09
   280  2.7900000000000D+00  0.0000000000000D+00  0.0000000000000D+00
   281  2.8000000000000D+00  0.0000000000000D+00  0.0000000000000D+00
   282  2.8100000000000D+00  0.0000000000000D+00  0.0000000000000D+00
   283  2.8200000000000D+00  0.0000000000000D+00  0.0000000000000D+00
   284  2.8300000000000D+00  0.0000000000000D+00  0.0000000000000D+00
   285  2.8400000000000D+00  0.0000000000000D+00  0.0000000000000D+00
   286  2.8500000000000D+00  0.0000000000000D+00  0.0000000000000D+00
   287  2.8600000000000D+00  0.0000000000000D+00  0.0000000000000D+00
   288  2.8700000000000D+00  0.0000000000000D+00  0.0000000000000D+00
   289  2.8800000000000D+00  0.0000000000000D+00  0.0000000000000D+00
   290  2.8900000000000D+00  0.0000000000000D+00  0.0000000000000D+00
   291  2.9000000000000D+00  0.0000000000000D+00  0.0000000000000D+00
   292  2.9100000000000D+00  0.0000000000000D+00  0.0000000000000D+00
   293  2.9200000000000D+00  0.0000000000000D+00  0.0000000000000D+00
   294  2.9300000000000D+00  0.0000000000000D+00  0.0000000000000D+00
   295  2.9400000000000D+00  0.0000000000000D+00  0.0000000000000D+00
   296  2.9500000000000D+00  0.0000000000000D+00  0.0000000000000D+00
   297  2.9600000000000D+00  0.0000000000000D+00  0.0000000000000D+00
   298  2.9700000000000D+00  0.0000000000000D+00  0.0000000000000D+00
   299  2.9800000000000D+00  0.0000000000000D+00  0.0000000000000D+00
   300  2.9900000000000D+00  0.0000000000000D+00  0.0000000000000D+00
   301  3.0000000000000D+00  0.0000000000000D+00  0.0000000000000D+00
   302  3.0100000000000D+00  0.0000000000000D+00  0.0000000000000D+00
   303  3.0200000000000D+00  0.0000000000000D+00  0.0000000000000D+00
   304  3.0300000000000D+00  0.0000000000000D+00  0.0000000000000D+00
   305  3.0400000000000D+00  0.0000000000000D+00  0.0000000000000D+00
   306  3.0500000000000D+00  0.0000000000000D+00  0.0000000000000D+00
   307  3.0600000000000D+00  0.0000000000000D+00  0.0000000000000D+00
   308  3.0700000000000D+00  0.0000000000000D+00  0.0000000000000D+00
   309  3.0800000000000D+00  0.0000000000000D+00  0.0000000000000D+00
   310  3.0900000000000D+00  0.0000000000000D+00  0.0000000000000D+00
   311  3.1000000000000D+00  0.0000000000000D+00  0.0000000000000D+00
   312  3.1100000000000D+00  0.0000000000000D+00  0.0000000000000D+00
   313  3.1200000000000D+00  0.0000000000000D+00  0.0000000000000D+00
   314  3.1300000000000D+00  0.0000000000000D+00  0.0000000000000D+00
   315  3.1400000000000D+00  0.0000000000000D+00  0.0000000000000D+00
   316  3.1500000000000D+00  0.0000000000000D+00  0.0000000000000D+00
   317  3.1600000000000D+00  0.0000000000000D+00  0.0000000000000D+00
   318  3.1700000000000D+00  0.0000000000000D+00  0.0000000000000D+00
   319  3.1800000000000D+00  0.0000000000000D+00  0.0000000000000D+00
   320  3.1900000000000D+00  0.0000000000000D+00  0.0000000000000D+00
   321  3.2000000000000D+00  0.0000000000000D+00  0.0000000000000D+00
   322  3.2100000000000D+00  0.0000000000000D+00  0.0000000000000D+00
   323  3.2200000000000D+00  0.0000000000000D+00  0.0000000000000D+00
   324  3.2300000000000D+00  0.0000000000000D+00  0.0000000000000D+00
   325  3.2400000000000D+00  0.0000000000000D+00  0.0000000000000D+00
   326  3.2500000000000D+00  0.0000000000000D+00  0.0000000000000D+00
   327  3.2600000000000D+00  0.0000000000000D+00  0.0000000000000D+00
   328  3.2700000000000D+00  0.0000000000000D+00  0.0000000000000D+00
   329  3.2800000000000D+00  0.0000000000000D+00  0.0000000000000D+00
   330  3.2900000000000D+00  0.0000000000000D+00  0.0000000000000D+00
   331  3.3000000000000D+00  0.0000000000000D+00  0.0000000000000D+00
   332  3.3100000000000D+00  0.0000000000000D+00  0.0000000000000D+00
   333  3.3200000000000D+00  0.0000000000000D+00  0.0000000000000D+00
   334  3.3300000000000D+00  0.0000000000000D+00  0.0000000000000D+00
   335  3.3400000000000D+00  0.0000000000000D+00  0.0000000000000D+00
   336  3.3500000000000D+00  0.0000000000000D+00  0.0000000000000D+00
   337  3.3600000000000D+00  0.0000000000000D+00  0.0000000000000D+00
   338  3.3700000000000D+00  0.0000000000000D+00  0.0000000000000D+00
   339  3.3800000000000D+00  0.0000000000000D+00  0.0000000000000D+00
   340  3.3900000000000D+00  0.0000000000000D+00  0.0000000000000D+00
   341  3.4000000000000D+00  0.0000000000000D+00  0.0000000000000D+00
   342  3.4100000000000D+00  0.0000000000000D+00  0.0000000000000D+00
   343  3.4200000000000D+00  0.0000000000000D+00  0.0000000000000D+00
   344  3.4300000000000D+00  0.0000000000000D+00  0.0000000000000D+00
   345  3.4400000000000D+00  0.0000000000000D+00  0.0000000000000D+00
   346  3.4500000000000D+00  0.0000000000000D+00  0.0000000000000D+00
   347  3.4600000000000D+00  0.0000000000000D+00  0.0000000000000D+00
   348  3.4700000000000D+00  0.0000000000000D+00  0.0000000000000D+00
   349  3.4800000000000D+00  0.0000000000000D+00  0.0000000000000D+00
   350  3.4900000000000D+00  0.0000000000000D+00  0.0000000000000D+00
   351  3.5000000000000D+00  0.0000000000000D+00  0.0000000000000D+00
   352  3.5100000000000D+00  0.0000000000000D+00  0.0000000000000D+00
   353  3.5200000000000D+00  0.0000000000000D+00  0.0000000000000D+00
   354  3.5300000000000D+00  0.0000000000000D+00  0.0000000000000D+00
   355  3.5400000000000D+00  0.0000000000000D+00  0.0000000000000D+00
   356  3.5500000000000D+00  0.0000000000000D+00  0.0000000000000D+00
   357  3.5600000000000D+00  0.0000000000000D+00  0.0000000000000D+00
   358  3.5700000000000D+00  0.0000000000000D+00  0.0000000000000D+00
   359  3.5800000000000D+00  0.0000000000000D+00  0.0000000000000D+00
   360  3.5900000000000D+00  0.0000000000000D+00  0.0000000000000D+00
   361  3.6000000000000D+00  0.0000000000000D+00  0.0000000000000D+00
   362  3.6100000000000D+00  0.0000000000000D+00  0.0000000000000D+00
   363  3.6200000000000D+00  0.0000000000000D+00  0.0000000000000D+00
   364  3.6300000000000D+00  0.0000000000000D+00  0.0000000000000D+00
   365  3.6400000000000D+00  0.0000000000000D+00  0.0000000000000D+00
   366  3.6500000000000D+00  0.0000000000000D+00  0.0000000000000D+00
   367  3.6600000000000D+00  0.0000000000000D+00  0.0000000000000D+00
   368  3.6700000000000D+00  0.0000000000000D+00  0.0000000000000D+00
   369  3.6800000000000D+00  0.0000000000000D+00  0.0000000000000D+00
   370  3.6900000000000D+00  0.0000000000000D+00  0.0000000000000D+00
   371  3.7000000000000D+00  0.0000000000000D+00  0.0000000000000D+00
   372  3.7100000000000D+00  0.0000000000000D+00  0.0000000000000D+00
   373  3.7200000000000D+00  0.0000000000000D+00  0.0000000000000D+00
   374  3.7300000000000D+00  0.0000000000000D+00  0.0000000000000D+00
   375  3.7400000000000D+00  0.0000000000000D+00  0.0000000000000D+00
   376  3.7500000000000D+00  0.0000000000000D+00  0.0000000000000D+00
   377  3.7600000000000D+00  0.0000000000000D+00  0.0000000000000D+00
   378  3.7700000000000D+00  0.0000000000000D+00  0.0000000000000D+00
   379  3.7800000000000D+00  0.0000000000000D+00  0.0000000000000D+00
   380  3.7900000000000D+00  0.0000000000000D+00  0.0000000000000D+00
   381  3.8000000000000D+00  0.0000000000000D+00  0.0000000000000D+00
   382  3.8100000000000D+00  0.0000000000000D+00  0.0000000000000D+00
   383  3.8200000000000D+00  0.0000000000000D+00  0.0000000000000D+00
   384  3.8300000000000D+00  0.0000000000000D+00  0.0000000000000D+00
   385  3.8400000000000D+00  0.0000000000000D+00  0.0000000000000D+00
   386  3.8500000000000D+00  0.0000000000000D+00  0.0000000000000D+00
   387  3.8600000000000D+00  0.0000000000000D+00  0.0000000000000D+00
   388  3.8700000000000D+00  0.0000000000000D+00  0.0000000000000D+00
   389  3.8800000000000D+00  0.0000000000000D+00  0.0000000000000D+00
   390  3.8900000000000D+00  0.0000000000000D+00  0.0000000000000D+00
   391  3.9000000000000D+00  0.0000000000000D+00  0.0000000000000D+00
   392  3.9100000000000D+00  0.0000000000000D+00  0.0000000000000D+00
   393  3.9200000000000D+00  0.0000000000000D+00  0.0000000000000D+00
   394  3.9300000000000D+00  0.0000000000000D+00  0.0000000000000D+00
   395  3.9400000000000D+00  0.0000000000000D+00  0.0000000000000D+00
   396  3.9500000000000D+00  0.0000000000000D+00  0.0000000000000D+00
   397  3.9600000000000D+00  0.0000000000000D+00  0.0000000000000D+00
   398  3.9700000000000D+00  0.0000000000000D+00  0.0000000000000D+00
   399  3.9800000000000D+00  0.0000000000000D+00  0.0000000000000D+00
   400  3.9900000000000D+00  0.0000000000000D+00  0.0000000000000D+00
   401  4.0000000000000D+00  0.0000000000000D+00  0.0000000000000D+00
   402  4.0100000000000D+00  0.0000000000000D+00  0.0000000000000D+00
   403  4.0200000000000D+00  0.0000000000000D+00  0.0000000000000D+00
   404  4.0300000000000D+00  0.0000000000000D+00  0.0000000000000D+00
   405  4.0400000000000D+00  0.0000000000000D+00  0.0000000000000D+00
   406  4.0500000000000D+00  0.0000000000000D+00  0.0000000000000D+00
   407  4.0600000000000D+00  0.0000000000000D+00  0.0000000000000D+00
   408  4.0700000000000D+00  0.0000000000000D+00  0.0000000000000D+00
   409  4.0800000000000D+00  0.0000000000000D+00  0.0000000000000D+00
   410  4.0900000000000D+00  0.0000000000000D+00  0.0000000000000D+00
   411  4.1000000000000D+00  0.0000000000000D+00  0.0000000000000D+00
   412  4.1100000000000D+00  0.0000000000000D+00  0.0000000000000D+00
   413  4.1200000000000D+00  0.0000000000000D+00  0.0000000000000D+00
   414  4.1300000000000D+00  0.0000000000000D+00  0.0000000000000D+00
   415  4.1400000000000D+00  0.0000000000000D+00  0.0000000000000D+00
   416  4.1500000000000D+00  0.0000000000000D+00  0.0000000000000D+00
   417  4.1600000000000D+00  0.0000000000000D+00  0.0000000000000D+00
   418  4.1700000000000D+00  0.0000000000000D+00  0.0000000000000D+00
   419  4.1800000000000D+00  0.0000000000000D+00  0.0000000000000D+00
   420  4.1900000000000D+00  0.0000000000000D+00  0.0000000000000D+00
   421  4.2000000000000D+00  0.0000000000000D+00  0.0000000000000D+00
   422  4.2100000000000D+00  0.0000000000000D+00  0.0000000000000D+00
   423  4.2200000000000D+00  0.0000000000000D+00  0.0000000000000D+00