Ni    ONCVPSP-3.3.1  r_core=   2.20931   2.20931   2.28980
     28.0000     18.0000      210904    zatom,zion,pspd
     8       2   2     4   600     0    pspcod,pspxc,lmax,lloc,mmax,r2well
  5.99000000  0.00000000  0.00000000    rchrg fchrg qchrg
     2     3     2     0    nproj
     3     1           extension_switch
     4     3     0    nprojso
   0                        -3.4128724484349D+00 -2.1456697046504D-01
     1  0.0000000000000D+00 -7.0227157422664D-13 -7.5954242895193D-12
     2  1.0000000000000D-02  4.1815551666743D-02 -3.3776773636744D-02
     3  2.0000000000000D-02  8.3586446918112D-02 -6.7483353633354D-02
     4  3.0000000000000D-02  1.2526809636277D-01 -1.0104964744763D-01
     5  4.0000000000000D-02  1.6681604454344D-01 -1.3440576480518D-01
     6  5.0000000000000D-02  2.0818603661913D-01 -1.6748211901129D-01
     7  6.0000000000000D-02  2.4933408470593D-01 -2.0020952847075D-01
     8  7.0000000000000D-02  2.9021653376368D-01 -2.3251931847608D-01
     9  8.0000000000000D-02  3.3079012691590D-01 -2.6434342331666D-01
    10  9.0000000000000D-02  3.7101207009192D-01 -2.9561448875188D-01
    11  1.0000000000000D-01  4.1084009588059D-01 -3.2626597488025D-01
    12  1.1000000000000D-01  4.5023252648654D-01 -3.5623225942345D-01
    13  1.2000000000000D-01  4.8914833568127D-01 -3.8544874143001D-01
    14  1.3000000000000D-01  5.2754720964273D-01 -4.1385194538727D-01
    15  1.4000000000000D-01  5.6538960657909D-01 -4.4137962571346D-01
    16  1.5000000000000D-01  6.0263681503403D-01 -4.6797087158291D-01
    17  1.6000000000000D-01  6.3925101077301D-01 -4.9356621201877D-01
    18  1.7000000000000D-01  6.7519531215248D-01 -5.1810772116656D-01
    19  1.8000000000000D-01  7.1043383387591D-01 -5.4153912364183D-01
    20  1.9000000000000D-01  7.4493173904362D-01 -5.6380589982309D-01
    21  2.0000000000000D-01  7.7865528940578D-01 -5.8485539093971D-01
    22  2.1000000000000D-01  8.1157189373092D-01 -6.0463690378250D-01
    23  2.2000000000000D-01  8.4365015420562D-01 -6.2310181484260D-01
    24  2.3000000000000D-01  8.7485991078385D-01 -6.4020367366277D-01
    25  2.4000000000000D-01  9.0517228340814D-01 -6.5589830516339D-01
    26  2.5000000000000D-01  9.3455971202830D-01 -6.7014391068528D-01
    27  2.6000000000000D-01  9.6299599434687D-01 -6.8290116747096D-01
    28  2.7000000000000D-01  9.9045632122456D-01 -6.9413332628693D-01
    29  2.8000000000000D-01  1.0169173096829D+00 -7.0380630687204D-01
    30  2.9000000000000D-01  1.0423570334451D+00 -7.1188879087975D-01
    31  3.0000000000000D-01  1.0667550509614D+00 -7.1835231196748D-01
    32  3.1000000000000D-01  1.0900924308679D+00 -7.2317134267243D-01
    33  3.2000000000000D-01  1.1123517748341D+00 -7.2632337770161D-01
    34  3.3000000000000D-01  1.1335172377578D+00 -7.2778901325402D-01
    35  3.4000000000000D-01  1.1535745452723D+00 -7.2755202198533D-01
    36  3.5000000000000D-01  1.1725110085326D+00 -7.2559942321971D-01
    37  3.6000000000000D-01  1.1903155362566D+00 -7.2192154801037D-01
    38  3.7000000000000D-01  1.2069786439987D+00 -7.1651209864956D-01
    39  3.8000000000000D-01  1.2224924606402D+00 -7.0936820223019D-01
    40  3.9000000000000D-01  1.2368507320851D+00 -7.0049045786608D-01
    41  4.0000000000000D-01  1.2500488221571D+00 -6.8988297718372D-01
    42  4.1000000000000D-01  1.2620837106954D+00 -6.7755341770878D-01
    43  4.2000000000000D-01  1.2729539888568D+00 -6.6351300878188D-01
    44  4.3000000000000D-01  1.2826598516328D+00 -6.4777656965364D-01
    45  4.4000000000000D-01  1.2912030875986D+00 -6.3036251942568D-01
    46  4.5000000000000D-01  1.2985870659156D+00 -6.1129287852463D-01
    47  4.6000000000000D-01  1.3048167206138D+00 -5.9059326141875D-01
    48  4.7000000000000D-01  1.3098985321870D+00 -5.6829286031139D-01
    49  4.8000000000000D-01  1.3138405065380D+00 -5.4442441957341D-01
    50  4.9000000000000D-01  1.3166521513181D+00 -5.1902420070589D-01
    51  5.0000000000000D-01  1.3183444497080D+00 -4.9213193765691D-01
    52  5.1000000000000D-01  1.3189298316960D+00 -4.6379078234943D-01
    53  5.2000000000000D-01  1.3184221429099D+00 -4.3404724031400D-01
    54  5.3000000000000D-01  1.3168366110702D+00 -4.0295109635657D-01
    55  5.4000000000000D-01  1.3141898101302D+00 -3.7055533023218D-01
    56  5.5000000000000D-01  1.3104996221806D+00 -3.3691602233423D-01
    57  5.6000000000000D-01  1.3057851971952D+00 -3.0209224945255D-01
    58  5.7000000000000D-01  1.3000669107028D+00 -2.6614597069453D-01
    59  5.8000000000000D-01  1.2933663194723D+00 -2.2914190370843D-01
    60  5.9000000000000D-01  1.2857061153050D+00 -1.9114739139105D-01
    61  6.0000000000000D-01  1.2771100770289D+00 -1.5223225930668D-01
    62  6.1000000000000D-01  1.2676030207977D+00 -1.1246866408874D-01
    63  6.2000000000000D-01  1.2572107487973D+00 -7.1930933139279D-02
    64  6.3000000000000D-01  1.2459599964680D+00 -3.0695395985658D-02
    65  6.4000000000000D-01  1.2338783783553D+00  1.1159792303241D-02
    66  6.5000000000000D-01  1.2209943327006D+00  5.3554835196970D-02
    67  6.6000000000000D-01  1.2073370648924D+00  9.6408485793977D-02
    68  6.7000000000000D-01  1.1929364898950D+00  1.3963824439777D-01
    69  6.8000000000000D-01  1.1778231737786D+00  1.8316056201544D-01
    70  6.9000000000000D-01  1.1620282744739D+00  2.2689104917970D-01
    71  7.0000000000000D-01  1.1455834818768D+00  2.7074468946139D-01
    72  7.1000000000000D-01  1.1285209574321D+00  3.1463605700762D-01
    73  7.2000000000000D-01  1.1108732733225D+00  3.5847953741195D-01
    74  7.3000000000000D-01  1.0926733513928D+00  4.0218955119627D-01
    75  7.4000000000000D-01  1.0739544019405D+00  4.4568077916085D-01
    76  7.5000000000000D-01  1.0547498625001D+00  4.8886838883854D-01
    77  7.6000000000000D-01  1.0350933367535D+00  5.3166826127187D-01
    78  7.7000000000000D-01  1.0150185336933D+00  5.7399721731800D-01
    79  7.8000000000000D-01  9.9455920717040D-01  6.1577324267637D-01
    80  7.9000000000000D-01  9.7374909595083D-01  6.5691571082694D-01
    81  8.0000000000000D-01  9.5262186440923D-01  6.9734560306400D-01
    82  8.1000000000000D-01  9.3121104398319D-01  7.3698572481128D-01
    83  8.2000000000000D-01  9.0954997551030D-01  7.7576091740846D-01
    84  8.3000000000000D-01  8.8767175256805D-01  8.1359826456774D-01
    85  8.4000000000000D-01  8.6560916593370D-01  8.5042729271095D-01
    86  8.5000000000000D-01  8.4339464927818D-01  8.8618016441409D-01
    87  8.6000000000000D-01  8.2106022620504D-01  9.2079186420536D-01
    88  8.7000000000000D-01  7.9863745874160D-01  9.5420037598677D-01
    89  8.8000000000000D-01  7.7615739738576D-01  9.8634685137608D-01
    90  8.9000000000000D-01  7.5365053280760D-01  1.0171757682966D+00
    91  9.0000000000000D-01  7.3114674930079D-01  1.0466350791764D+00
    92  9.1000000000000D-01  7.0867528007371D-01  1.0746763481564D+00
    93  9.2000000000000D-01  6.8626466446583D-01  1.1012548767453D+00
    94  9.3000000000000D-01  6.6394270716914D-01  1.1263298174063D+00
    95  9.4000000000000D-01  6.4173643952973D-01  1.1498642746024D+00
    96  9.5000000000000D-01  6.1967208299855D-01  1.1718253928799D+00
    97  9.6000000000000D-01  5.9777501479493D-01  1.1921844316174D+00
    98  9.7000000000000D-01  5.7606973584057D-01  1.2109168261240D+00
    99  9.8000000000000D-01  5.5457984101548D-01  1.2280022348216D+00
   100  9.9000000000000D-01  5.3332799178144D-01  1.2434245723075D+00
   101  1.0000000000000D+00  5.1233589121210D-01  1.2571720281471D+00
   102  1.0100000000000D+00  4.9162426146254D-01  1.2692370713069D+00
   103  1.0200000000000D+00  4.7121282370467D-01  1.2796164402010D+00
   104  1.0300000000000D+00  4.5112028054833D-01  1.2883111183774D+00
   105  1.0400000000000D+00  4.3136430096151D-01  1.2953262959390D+00
   106  1.0500000000000D+00  4.1196150769620D-01  1.3006713168480D+00
   107  1.0600000000000D+00  3.9292746722067D-01  1.3043596123245D+00
   108  1.0700000000000D+00  3.7427668215142D-01  1.3064086206103D+00
   109  1.0800000000000D+00  3.5602258617224D-01  1.3068396934245D+00
   110  1.0900000000000D+00  3.3817754142135D-01  1.3056779894964D+00
   111  1.1000000000000D+00  3.2075283832066D-01  1.3029523556170D+00
   112  1.1100000000000D+00  3.0375869781626D-01  1.2986951956965D+00
   113  1.1200000000000D+00  2.8720427599150D-01  1.2929423283770D+00
   114  1.1300000000000D+00  2.7109767100946D-01  1.2857328337908D+00
   115  1.1400000000000D+00  2.5544593233443D-01  1.2771088901049D+00
   116  1.1500000000000D+00  2.4025507217827D-01  1.2671156005285D+00
   117  1.1600000000000D+00  2.2553007911000D-01  1.2558008115093D+00
   118  1.1700000000000D+00  2.1127493376322D-01  1.2432149228762D+00
   119  1.1800000000000D+00  1.9749262656962D-01  1.2294106907207D+00
   120  1.1900000000000D+00  1.8418517744430D-01  1.2144430238339D+00
   121  1.2000000000000D+00  1.7135365734125D-01  1.1983687745510D+00
   122  1.2100000000000D+00  1.5899821159490D-01  1.1812465248707D+00
   123  1.2200000000000D+00  1.4711808495946D-01  1.1631363687341D+00
   124  1.2300000000000D+00  1.3571164825394D-01  1.1440996913656D+00
   125  1.2400000000000D+00  1.2477642651659D-01  1.1241989465857D+00
   126  1.2500000000000D+00  1.1430912857061D-01  1.1034974330087D+00
   127  1.2600000000000D+00  1.0430567789987D-01  1.0820590700451D+00
   128  1.2700000000000D+00  9.4761244730067D-02  1.0599481746213D+00
   129  1.2800000000000D+00  8.5670279209672D-02  1.0372292395172D+00
   130  1.2900000000000D+00  7.7026545583201D-02  1.0139667142284D+00
   131  1.3000000000000D+00  6.8823157246792D-02  9.9022478922143D-01
   132  1.3100000000000D+00  6.1052612576386D-02  9.6606718444169D-01
   133  1.3200000000000D+00  5.3706831417144D-02  9.4155694292696D-01
   134  1.3300000000000D+00  4.6777192122456D-02  9.1675623031292D-01
   135  1.3400000000000D+00  4.0254569031333D-02  8.9172614102329D-01
   136  1.3500000000000D+00  3.4129370272035D-02  8.6652651190252D-01
   137  1.3600000000000D+00  2.8391575782400D-02  8.4121574395929D-01
   138  1.3700000000000D+00  2.3030775435780D-02  8.1585063293968D-01
   139  1.3800000000000D+00  1.8036207164328D-02  7.9048620932762D-01
   140  1.3900000000000D+00  1.3396794974262D-02  7.6517558832978D-01
   141  1.4000000000000D+00  9.1011867442960D-03  7.3996983045308D-01
   142  1.4100000000000D+00  5.1377917088295D-03  7.1491781306029D-01
   143  1.4200000000000D+00  1.4948175220782D-03  6.9006611341182D-01
   144  1.4300000000000D+00 -1.8396931943890D-03  6.6545890355477D-01
   145  1.4400000000000D+00 -4.8778269109182D-03  6.4113785732288D-01
   146  1.4500000000000D+00 -7.6317639560468D-03  6.1714206985014D-01
   147  1.4600000000000D+00 -1.0113744066532D-02  5.9350798964522D-01
   148  1.4700000000000D+00 -1.2336032815272D-02  5.7026936353753D-01
   149  1.4800000000000D+00 -1.4310888991170D-02  5.4745719450252D-01
   150  1.4900000000000D+00 -1.6050533006351D-02  5.2509971242380D-01
   151  1.5000000000000D+00 -1.7567116410597D-02  5.0322235786963D-01
   152  1.5100000000000D+00 -1.8872692563252D-02  4.8184777864235D-01
   153  1.5200000000000D+00 -1.9979188548213D-02  4.6099583923383D-01
   154  1.5300000000000D+00 -2.0898378363195D-02  4.4068364274624D-01
   155  1.5400000000000D+00 -2.1641857460112D-02  4.2092556530928D-01
   156  1.5500000000000D+00 -2.2221018664668D-02  4.0173330253380D-01
   157  1.5600000000000D+00 -2.2647029529510D-02  3.8311592781406D-01
   158  1.5700000000000D+00 -2.2930811153946D-02  3.6507996206736D-01
   159  1.5800000000000D+00 -2.3083018497283D-02  3.4762945449939D-01
   160  1.5900000000000D+00 -2.3114022225736D-02  3.3076607403033D-01
   161  1.6000000000000D+00 -2.3033892091668D-02  3.1448921078340D-01
   162  1.6100000000000D+00 -2.2852381891992D-02  2.9879608729321D-01
   163  1.6200000000000D+00 -2.2578915976956D-02  2.8368187870126D-01
   164  1.6300000000000D+00 -2.2222577361736D-02  2.6913984158649D-01
   165  1.6400000000000D+00 -2.1792097386723D-02  2.5516145062234D-01
   166  1.6500000000000D+00 -2.1295846981422D-02  2.4173654266381D-01
   167  1.6600000000000D+00 -2.0741829458482D-02  2.2885346744460D-01
   168  1.6700000000000D+00 -2.0137674887715D-02  2.1649924440486D-01
   169  1.6800000000000D+00 -1.9490635965519D-02  2.0465972487563D-01
   170  1.6900000000000D+00 -1.8807585419726D-02  1.9331975904208D-01
   171  1.7000000000000D+00 -1.8095014856783D-02  1.8246336698748D-01
   172  1.7100000000000D+00 -1.7359035082250D-02  1.7207391314339D-01
   173  1.7200000000000D+00 -1.6605377792311D-02  1.6213428354968D-01
   174  1.7300000000000D+00 -1.5839398660621D-02  1.5262706514859D-01
   175  1.7400000000000D+00 -1.5066081708289D-02  1.4353472665367D-01
   176  1.7500000000000D+00 -1.4290044975721D-02  1.3483980010344D-01
   177  1.7600000000000D+00 -1.3515547377263D-02  1.2652506280702D-01
   178  1.7700000000000D+00 -1.2746496747119D-02  1.1857371868891D-01
   179  1.7800000000000D+00 -1.1986458959652D-02  1.1096957888994D-01
   180  1.7900000000000D+00 -1.1238668114327D-02  1.0369724059222D-01
   181  1.8000000000000D+00 -1.0506037679169D-02  9.6742264010131D-02
   182  1.8100000000000D+00 -9.7911726735469D-03  9.0091352608924D-02
   183  1.8200000000000D+00 -9.0963821265660D-03  8.3732500575555D-02
   184  1.8300000000000D+00 -8.4236938785267D-03  7.7655219299343D-02
   185  1.8400000000000D+00 -7.7748669928752D-03  7.1850598287893D-02
   186  1.8500000000000D+00 -7.1514061082932D-03  6.6311427302867D-02
   187  1.8600000000000D+00 -6.5545834662317D-03  6.1032691217119D-02
   188  1.8700000000000D+00 -5.9854565715330D-03  5.6011811787441D-02
   189  1.8800000000000D+00 -5.4448586177710D-03  5.1247399469753D-02
   190  1.8900000000000D+00 -4.9333995452919D-03  4.6738533745751D-02
   191  1.9000000000000D+00 -4.4514677625328D-03  4.2484162110796D-02
   192  1.9100000000000D+00 -3.9992186460890D-03  3.8481750192765D-02
   193  1.9200000000000D+00 -3.5765942605769D-03  3.4727593264706D-02
   194  1.9300000000000D+00 -3.1833442621949D-03  3.1217197298650D-02
   195  1.9400000000000D+00 -2.8190415361211D-03  2.7945357619610D-02
   196  1.9500000000000D+00 -2.4830955630043D-03  2.4906099564081D-02
   197  1.9600000000000D+00 -2.1747698595836D-03  2.2092843117773D-02
   198  1.9700000000000D+00 -1.8931971025909D-03  1.9498442073877D-02
   199  1.9800000000000D+00 -1.6373949558068D-03  1.7115263851616D-02
   200  1.9900000000000D+00 -1.4062814563115D-03  1.4935256273654D-02
   201  2.0000000000000D+00 -1.1986901594601D-03  1.2950010775027D-02
   202  2.0100000000000D+00 -1.0133849031561D-03  1.1150821457212D-02
   203  2.0200000000000D+00 -8.4907414936563D-04  9.5287401042026D-03
   204  2.0300000000000D+00 -7.0442489637410D-04  8.0746274850416D-03
   205  2.0400000000000D+00 -5.7807598893717D-04  6.7792003889775D-03
   206  2.0500000000000D+00 -4.6865093638704D-04  5.6330751364167D-03
   207  2.0600000000000D+00 -3.7477002986568D-04  4.6268070588340D-03
   208  2.0700000000000D+00 -2.9506182662887D-04  3.7509263585078D-03
   209  2.0800000000000D+00 -2.2817393948942D-04  2.9959703869541D-03
   210  2.0900000000000D+00 -1.7278300913706D-04  2.3525122879819D-03
   211  2.1000000000000D+00 -1.2760400338876D-04  1.8111863346209D-03
   212  2.1100000000000D+00 -9.1398596859874D-05  1.3627098913995D-03
   213  2.1200000000000D+00 -6.2982783782935D-05  9.9790219222572D-04
   214  2.1300000000000D+00 -4.1233637755790D-05  7.0770003245875D-04
   215  2.1400000000000D+00 -2.5087509022834D-05  4.8317592223780D-04
   216  2.1500000000000D+00 -1.3575296723362D-05  3.1552643363789D-04
   217  2.1600000000000D+00 -5.8108406898683D-06  1.9597767338272D-04
   218  2.1700000000000D+00 -9.5853500213627D-07  1.1601047830016D-04
   219  2.1800000000000D+00  1.8431292173414D-06  6.7972083967018D-05
   220  2.1900000000000D+00  3.3635428730888D-06  4.4842663411493D-05
   221  2.2000000000000D+00  3.8828403753236D-06  3.5781859313921D-05
   222  2.2100000000000D+00  3.4772297845870D-06  3.0027524168480D-05
   223  2.2200000000000D+00  2.1469550315941D-06  1.8619411935250D-05
   224  2.2300000000000D+00  6.8424808736184D-07  6.1310753450937D-06
   225  2.2400000000000D+00 -2.3421841169649D-07 -1.9108118347049D-06
   226  2.2500000000000D+00 -3.5752542056564D-07 -2.9263936721062D-06
   227  2.2600000000000D+00 -9.0619309535973D-08 -7.4573470054228D-07
   228  2.2700000000000D+00  7.2971318596124D-08  5.4579993392055D-07
   229  2.2800000000000D+00  7.5569585077042D-08  5.6097351680873D-07
   230  2.2900000000000D+00 -2.8104076556755D-10 -2.4317340005830D-09
   231  2.3000000000000D+00 -9.5667248000895D-09 -8.2777065895114D-08
   232  2.3100000000000D+00 -7.0829862616098D-09 -6.1286263874339D-08
   233  2.3200000000000D+00  0.0000000000000D+00  0.0000000000000D+00
   234  2.3300000000000D+00  0.0000000000000D+00  0.0000000000000D+00
   235  2.3400000000000D+00  0.0000000000000D+00  0.0000000000000D+00
   236  2.3500000000000D+00  0.0000000000000D+00  0.0000000000000D+00
   237  2.3600000000000D+00  0.0000000000000D+00  0.0000000000000D+00
   238  2.3700000000000D+00  0.0000000000000D+00  0.0000000000000D+00
   239  2.3800000000000D+00  0.0000000000000D+00  0.0000000000000D+00
   240  2.3900000000000D+00  0.0000000000000D+00  0.0000000000000D+00
   241  2.4000000000000D+00  0.0000000000000D+00  0.0000000000000D+00
   242  2.4100000000000D+00  0.0000000000000D+00  0.0000000000000D+00
   243  2.4200000000000D+00  0.0000000000000D+00  0.0000000000000D+00
   244  2.4300000000000D+00  0.0000000000000D+00  0.0000000000000D+00
   245  2.4400000000000D+00  0.0000000000000D+00  0.0000000000000D+00
   246  2.4500000000000D+00  0.0000000000000D+00  0.0000000000000D+00
   247  2.4600000000000D+00  0.0000000000000D+00  0.0000000000000D+00
   248  2.4700000000000D+00  0.0000000000000D+00  0.0000000000000D+00
   249  2.4800000000000D+00  0.0000000000000D+00  0.0000000000000D+00
   250  2.4900000000000D+00  0.0000000000000D+00  0.0000000000000D+00
   251  2.5000000000000D+00  0.0000000000000D+00  0.0000000000000D+00
   252  2.5100000000000D+00  0.0000000000000D+00  0.0000000000000D+00
   253  2.5200000000000D+00  0.0000000000000D+00  0.0000000000000D+00
   254  2.5300000000000D+00  0.0000000000000D+00  0.0000000000000D+00
   255  2.5400000000000D+00  0.0000000000000D+00  0.0000000000000D+00
   256  2.5500000000000D+00  0.0000000000000D+00  0.0000000000000D+00
   257  2.5600000000000D+00  0.0000000000000D+00  0.0000000000000D+00
   258  2.5700000000000D+00  0.0000000000000D+00  0.0000000000000D+00
   259  2.5800000000000D+00  0.0000000000000D+00  0.0000000000000D+00
   260  2.5900000000000D+00  0.0000000000000D+00  0.0000000000000D+00
   261  2.6000000000000D+00  0.0000000000000D+00  0.0000000000000D+00
   262  2.6100000000000D+00  0.0000000000000D+00  0.0000000000000D+00
   263  2.6200000000000D+00  0.0000000000000D+00  0.0000000000000D+00
   264  2.6300000000000D+00  0.0000000000000D+00  0.0000000000000D+00
   265  2.6400000000000D+00  0.0000000000000D+00  0.0000000000000D+00
   266  2.6500000000000D+00  0.0000000000000D+00  0.0000000000000D+00
   267  2.6600000000000D+00  0.0000000000000D+00  0.0000000000000D+00
   268  2.6700000000000D+00  0.0000000000000D+00  0.0000000000000D+00
   269  2.6800000000000D+00  0.0000000000000D+00  0.0000000000000D+00
   270  2.6900000000000D+00  0.0000000000000D+00  0.0000000000000D+00
   271  2.7000000000000D+00  0.0000000000000D+00  0.0000000000000D+00
   272  2.7100000000000D+00  0.0000000000000D+00  0.0000000000000D+00
   273  2.7200000000000D+00  0.0000000000000D+00  0.0000000000000D+00
   274  2.7300000000000D+00  0.0000000000000D+00  0.0000000000000D+00
   275  2.7400000000000D+00  0.0000000000000D+00  0.0000000000000D+00
   276  2.7500000000000D+00  0.0000000000000D+00  0.0000000000000D+00
   277  2.7600000000000D+00  0.0000000000000D+00  0.0000000000000D+00
   278  2.7700000000000D+00  0.0000000000000D+00  0.0000000000000D+00
   279  2.7800000000000D+00  0.0000000000000D+00  0.0000000000000D+00
   280  2.7900000000000D+00  0.0000000000000D+00  0.0000000000000D+00
   281  2.8000000000000D+00  0.0000000000000D+00  0.0000000000000D+00
   282  2.8100000000000D+00  0.0000000000000D+00  0.0000000000000D+00
   283  2.8200000000000D+00  0.0000000000000D+00  0.0000000000000D+00
   284  2.8300000000000D+00  0.0000000000000D+00  0.0000000000000D+00
   285  2.8400000000000D+00  0.0000000000000D+00  0.0000000000000D+00
   286  2.8500000000000D+00  0.0000000000000D+00  0.0000000000000D+00
   287  2.8600000000000D+00  0.0000000000000D+00  0.0000000000000D+00
   288  2.8700000000000D+00  0.0000000000000D+00  0.0000000000000D+00
   289  2.8800000000000D+00  0.0000000000000D+00  0.0000000000000D+00
   290  2.8900000000000D+00  0.0000000000000D+00  0.0000000000000D+00
   291  2.9000000000000D+00  0.0000000000000D+00  0.0000000000000D+00
   292  2.9100000000000D+00  0.0000000000000D+00  0.0000000000000D+00
   293  2.9200000000000D+00  0.0000000000000D+00  0.0000000000000D+00
   294  2.9300000000000D+00  0.0000000000000D+00  0.0000000000000D+00
   295  2.9400000000000D+00  0.0000000000000D+00  0.0000000000000D+00
   296  2.9500000000000D+00  0.0000000000000D+00  0.0000000000000D+00
   297  2.9600000000000D+00  0.0000000000000D+00  0.0000000000000D+00
   298  2.9700000000000D+00  0.0000000000000D+00  0.0000000000000D+00
   299  2.9800000000000D+00  0.0000000000000D+00  0.0000000000000D+00
   300  2.9900000000000D+00  0.0000000000000D+00  0.0000000000000D+00
   301  3.0000000000000D+00  0.0000000000000D+00  0.0000000000000D+00
   302  3.0100000000000D+00  0.0000000000000D+00  0.0000000000000D+00
   303  3.0200000000000D+00  0.0000000000000D+00  0.0000000000000D+00
   304  3.0300000000000D+00  0.0000000000000D+00  0.0000000000000D+00
   305  3.0400000000000D+00  0.0000000000000D+00  0.0000000000000D+00
   306  3.0500000000000D+00  0.0000000000000D+00  0.0000000000000D+00
   307  3.0600000000000D+00  0.0000000000000D+00  0.0000000000000D+00
   308  3.0700000000000D+00  0.0000000000000D+00  0.0000000000000D+00
   309  3.0800000000000D+00  0.0000000000000D+00  0.0000000000000D+00
   310  3.0900000000000D+00  0.0000000000000D+00  0.0000000000000D+00
   311  3.1000000000000D+00  0.0000000000000D+00  0.0000000000000D+00
   312  3.1100000000000D+00  0.0000000000000D+00  0.0000000000000D+00
   313  3.1200000000000D+00  0.0000000000000D+00  0.0000000000000D+00
   314  3.1300000000000D+00  0.0000000000000D+00  0.0000000000000D+00
   315  3.1400000000000D+00  0.0000000000000D+00  0.0000000000000D+00
   316  3.1500000000000D+00  0.0000000000000D+00  0.0000000000000D+00
   317  3.1600000000000D+00  0.0000000000000D+00  0.0000000000000D+00
   318  3.1700000000000D+00  0.0000000000000D+00  0.0000000000000D+00
   319  3.1800000000000D+00  0.0000000000000D+00  0.0000000000000D+00
   320  3.1900000000000D+00  0.0000000000000D+00  0.0000000000000D+00
   321  3.2000000000000D+00  0.0000000000000D+00  0.0000000000000D+00
   322  3.2100000000000D+00  0.0000000000000D+00  0.0000000000000D+00
   323  3.2200000000000D+00  0.0000000000000D+00  0.0000000000000D+00
   324  3.2300000000000D+00  0.0000000000000D+00  0.0000000000000D+00
   325  3.2400000000000D+00  0.0000000000000D+00  0.0000000000000D+00
   326  3.2500000000000D+00  0.0000000000000D+00  0.0000000000000D+00
   327  3.2600000000000D+00  0.0000000000000D+00  0.0000000000000D+00
   328  3.2700000000000D+00  0.0000000000000D+00  0.0000000000000D+00
   329  3.2800000000000D+00  0.0000000000000D+00  0.0000000000000D+00
   330  3.2900000000000D+00  0.0000000000000D+00  0.0000000000000D+00
   331  3.3000000000000D+00  0.0000000000000D+00  0.0000000000000D+00
   332  3.3100000000000D+00  0.0000000000000D+00  0.0000000000000D+00
   333  3.3200000000000D+00  0.0000000000000D+00  0.0000000000000D+00
   334  3.3300000000000D+00  0.0000000000000D+00  0.0000000000000D+00
   335  3.3400000000000D+00  0.0000000000000D+00  0.0000000000000D+00
   336  3.3500000000000D+00  0.0000000000000D+00  0.0000000000000D+00
   337  3.3600000000000D+00  0.0000000000000D+00  0.0000000000000D+00
   338  3.3700000000000D+00  0.0000000000000D+00  0.0000000000000D+00
   339  3.3800000000000D+00  0.0000000000000D+00  0.0000000000000D+00
   340  3.3900000000000D+00  0.0000000000000D+00  0.0000000000000D+00
   341  3.4000000000000D+00  0.0000000000000D+00  0.0000000000000D+00
   342  3.4100000000000D+00  0.0000000000000D+00  0.0000000000000D+00
   343  3.4200000000000D+00  0.0000000000000D+00  0.0000000000000D+00
   344  3.4300000000000D+00  0.0000000000000D+00  0.0000000000000D+00
   345  3.4400000000000D+00  0.0000000000000D+00  0.0000000000000D+00
   346  3.4500000000000D+00  0.0000000000000D+00  0.0000000000000D+00
   347  3.4600000000000D+00  0.0000000000000D+00  0.0000000000000D+00
   348  3.4700000000000D+00  0.0000000000000D+00  0.0000000000000D+00
   349  3.4800000000000D+00  0.0000000000000D+00  0.0000000000000D+00
   350  3.4900000000000D+00  0.0000000000000D+00  0.0000000000000D+00
   351  3.5000000000000D+00  0.0000000000000D+00  0.0000000000000D+00
   352  3.5100000000000D+00  0.0000000000000D+00  0.0000000000000D+00
   353  3.5200000000000D+00  0.0000000000000D+00  0.0000000000000D+00
   354  3.5300000000000D+00  0.0000000000000D+00  0.0000000000000D+00
   355  3.5400000000000D+00  0.0000000000000D+00  0.0000000000000D+00
   356  3.5500000000000D+00  0.0000000000000D+00  0.0000000000000D+00
   357  3.5600000000000D+00  0.0000000000000D+00  0.0000000000000D+00
   358  3.5700000000000D+00  0.0000000000000D+00  0.0000000000000D+00
   359  3.5800000000000D+00  0.0000000000000D+00  0.0000000000000D+00
   360  3.5900000000000D+00  0.0000000000000D+00  0.0000000000000D+00
   361  3.6000000000000D+00  0.0000000000000D+00  0.0000000000000D+00
   362  3.6100000000000D+00  0.0000000000000D+00  0.0000000000000D+00
   363  3.6200000000000D+00  0.0000000000000D+00  0.0000000000000D+00
   364  3.6300000000000D+00  0.0000000000000D+00  0.0000000000000D+00
   365  3.6400000000000D+00  0.0000000000000D+00  0.0000000000000D+00
   366  3.6500000000000D+00  0.0000000000000D+00  0.0000000000000D+00
   367  3.6600000000000D+00  0.0000000000000D+00  0.0000000000000D+00
   368  3.6700000000000D+00  0.0000000000000D+00  0.0000000000000D+00
   369  3.6800000000000D+00  0.0000000000000D+00  0.0000000000000D+00
   370  3.6900000000000D+00  0.0000000000000D+00  0.0000000000000D+00
   371  3.7000000000000D+00  0.0000000000000D+00  0.0000000000000D+00
   372  3.7100000000000D+00  0.0000000000000D+00  0.0000000000000D+00
   373  3.7200000000000D+00  0.0000000000000D+00  0.0000000000000D+00
   374  3.7300000000000D+00  0.0000000000000D+00  0.0000000000000D+00
   375  3.7400000000000D+00  0.0000000000000D+00  0.0000000000000D+00
   376  3.7500000000000D+00  0.0000000000000D+00  0.0000000000000D+00
   377  3.7600000000000D+00  0.0000000000000D+00  0.0000000000000D+00
   378  3.7700000000000D+00  0.0000000000000D+00  0.0000000000000D+00
   379  3.7800000000000D+00  0.0000000000000D+00  0.0000000000000D+00
   380  3.7900000000000D+00  0.0000000000000D+00  0.0000000000000D+00
   381  3.8000000000000D+00  0.0000000000000D+00  0.0000000000000D+00
   382  3.8100000000000D+00  0.0000000000000D+00  0.0000000000000D+00
   383  3.8200000000000D+00  0.0000000000000D+00  0.0000000000000D+00
   384  3.8300000000000D+00  0.0000000000000D+00  0.0000000000000D+00
   385  3.8400000000000D+00  0.0000000000000D+00  0.0000000000000D+00
   386  3.8500000000000D+00  0.0000000000000D+00  0.0000000000000D+00
   387  3.8600000000000D+00  0.0000000000000D+00  0.0000000000000D+00
   388  3.8700000000000D+00  0.0000000000000D+00  0.0000000000000D+00
   389  3.8800000000000D+00  0.0000000000000D+00  0.0000000000000D+00
   390  3.8900000000000D+00  0.0000000000000D+00  0.0000000000000D+00
   391  3.9000000000000D+00  0.0000000000000D+00  0.0000000000000D+00
   392  3.9100000000000D+00  0.0000000000000D+00  0.0000000000000D+00
   393  3.9200000000000D+00  0.0000000000000D+00  0.0000000000000D+00
   394  3.9300000000000D+00  0.0000000000000D+00  0.0000000000000D+00
   395  3.9400000000000D+00  0.0000000000000D+00  0.0000000000000D+00
   396  3.9500000000000D+00  0.0000000000000D+00  0.0000000000000D+00
   397  3.9600000000000D+00  0.0000000000000D+00  0.0000000000000D+00
   398  3.9700000000000D+00  0.0000000000000D+00  0.0000000000000D+00
   399  3.9800000000000D+00  0.0000000000000D+00  0.0000000000000D+00
   400  3.9900000000000D+00  0.0000000000000D+00  0.0000000000000D+00
   401  4.0000000000000D+00  0.0000000000000D+00  0.0000000000000D+00
   402  4.0100000000000D+00  0.0000000000000D+00  0.0000000000000D+00
   403  4.0200000000000D+00  0.0000000000000D+00  0.0000000000000D+00
   404  4.0300000000000D+00  0.0000000000000D+00  0.0000000000000D+00
   405  4.0400000000000D+00  0.0000000000000D+00  0.0000000000000D+00
   406  4.0500000000000D+00  0.0000000000000D+00  0.0000000000000D+00
   407  4.0600000000000D+00  0.0000000000000D+00  0.0000000000000D+00
   408  4.0700000000000D+00  0.0000000000000D+00  0.0000000000000D+00
   409  4.0800000000000D+00  0.0000000000000D+00  0.0000000000000D+00
   410  4.0900000000000D+00  0.0000000000000D+00  0.0000000000000D+00
   411  4.1000000000000D+00  0.0000000000000D+00  0.0000000000000D+00
   412  4.1100000000000D+00  0.0000000000000D+00  0.0000000000000D+00
   413  4.1200000000000D+00  0.0000000000000D+00  0.0000000000000D+00
   414  4.1300000000000D+00  0.0000000000000D+00  0.0000000000000D+00
   415  4.1400000000000D+00  0.0000000000000D+00  0.0000000000000D+00
   416  4.1500000000000D+00  0.0000000000000D+00  0.0000000000000D+00
   417  4.1600000000000D+00  0.0000000000000D+00  0.0000000000000D+00
   418  4.1700000000000D+00  0.0000000000000D+00  0.0000000000000D+00
   419  4.1800000000000D+00  0.0000000000000D+00  0.0000000000000D+00
   420  4.1900000000000D+00  0.0000000000000D+00  0.0000000000000D+00
   421  4.2000000000000D+00  0.0000000000000D+00  0.0000000000000D+00
   422  4.2100000000000D+00  0.0000000000000D+00  0.0000000000000D+00