O     ONCVPSP-3.3.1  r_core=   1.29195   1.47310
      8.0000      6.0000      210904    zatom,zion,pspd
     8       2   1     4   600     0    pspcod,pspxc,lmax,lloc,mmax,r2well
  5.99000000  0.00000000  0.00000000    rchrg fchrg qchrg
     2     2     0     0     0    nproj
     1     1           extension_switch
   0                         9.8039457263344D+00  1.3940968360205D+00
     1  0.0000000000000D+00  2.8162727705450D-09 -9.8155622102469D-09
     2  1.0000000000000D-02  8.9663020284471D-02 -6.4027828666814D-03
     3  2.0000000000000D-02  1.7918092502738D-01 -1.3049430097274D-02
     4  3.0000000000000D-02  2.6840691576458D-01 -2.0176044503325D-02
     5  4.0000000000000D-02  3.5719087054206D-01 -2.8003355278574D-02
     6  5.0000000000000D-02  4.4537778732620D-01 -3.6729402350507D-02
     7  6.0000000000000D-02  5.3280635155995D-01 -4.6522659006865D-02
     8  7.0000000000000D-02  6.1930766588065D-01 -5.7515727150173D-02
     9  8.0000000000000D-02  7.0470417719939D-01 -6.9799729717792D-02
    10  9.0000000000000D-02  7.8880883290569D-01 -8.3419512838592D-02
    11  1.0000000000000D-01  8.7142449396202D-01 -9.8369756375544D-02
    12  1.1000000000000D-01  9.5234362815130D-01 -1.1459207585306D-01
    13  1.2000000000000D-01  1.0313483018115D+00 -1.3197318164569D-01
    14  1.3000000000000D-01  1.1082104831117D+00 -1.5034414299066D-01
    15  1.4000000000000D-01  1.1826926643801D+00 -1.6948078518251D-01
    16  1.5000000000000D-01  1.2545488052731D+00 -1.8910522852942D-01
    17  1.6000000000000D-01  1.3235255927718D+00 -2.0888855762553D-01
    18  1.7000000000000D-01  1.3893640081992D+00 -2.2845458955354D-01
    19  1.8000000000000D-01  1.4518011857632D+00 -2.4738469010911D-01
    20  1.9000000000000D-01  1.5105725416415D+00 -2.6522356836117D-01
    21  2.0000000000000D-01  1.5654141474244D+00 -2.8148596214472D-01
    22  2.1000000000000D-01  1.6160653169066D+00 -2.9566411072757D-01
    23  2.2000000000000D-01  1.6622713708500D+00 -3.0723589617733D-01
    24  2.3000000000000D-01  1.7037865405026D+00 -3.1567352213567D-01
    25  2.4000000000000D-01  1.7403769674164D+00 -3.2045258800726D-01
    26  2.5000000000000D-01  1.7718237545203D+00 -3.2106140818094D-01
    27  2.6000000000000D-01  1.7979260215166D+00 -3.1701041997678D-01
    28  2.7000000000000D-01  1.8185039165201D+00 -3.0784152066528D-01
    29  2.8000000000000D-01  1.8334015354700D+00 -2.9313717321103D-01
    30  2.9000000000000D-01  1.8424897012299D+00 -2.7252912237637D-01
    31  3.0000000000000D-01  1.8456685554510D+00 -2.4570656747097D-01
    32  3.1000000000000D-01  1.8428699181949D+00 -2.1242364528565D-01
    33  3.2000000000000D-01  1.8340593729724D+00 -1.7250608650564D-01
    34  3.3000000000000D-01  1.8192380382148D+00 -1.2585692100866D-01
    35  3.4000000000000D-01  1.7984439902096D+00 -7.2461121735675D-02
    36  3.5000000000000D-01  1.7717533071404D+00 -1.2389093049480D-02
    37  3.6000000000000D-01  1.7392807090095D+00  5.4201072584815D-02
    38  3.7000000000000D-01  1.7011797738009D+00  1.2706262644572D-01
    39  3.8000000000000D-01  1.6576427161976D+00  2.0586052036441D-01
    40  3.9000000000000D-01  1.6088997213792D+00  2.9017310377217D-01
    41  4.0000000000000D-01  1.5552178328288D+00  3.7949515468663D-01
    42  4.1000000000000D-01  1.4968993995455D+00  4.7324221671644D-01
    43  4.2000000000000D-01  1.4342800945081D+00  5.7075619285080D-01
    44  4.3000000000000D-01  1.3677265225512D+00  6.7131212615697D-01
    45  4.4000000000000D-01  1.2976334419062D+00  7.7412607788069D-01
    46  4.5000000000000D-01  1.2244206294260D+00  8.7836399516728D-01
    47  4.6000000000000D-01  1.1485294248574D+00  9.8315144400693D-01
    48  4.7000000000000D-01  1.0704189943731D+00  1.0875840683408D+00
    49  4.8000000000000D-01  9.9056235783533D-01  1.1907386238041D+00
    50  4.9000000000000D-01  9.0944222787957D-01  1.2916844245391D+00
    51  5.0000000000000D-01  8.2754671181112D-01  1.3894950340721D+00
    52  5.1000000000000D-01  7.4536492945633D-01  1.4832600265413D+00
    53  5.2000000000000D-01  6.6338260147171D-01  1.5720966426729D+00
    54  5.3000000000000D-01  5.8207766316101D-01  1.6551611658870D+00
    55  5.4000000000000D-01  5.0191595857850D-01  1.7316598477313D+00
    56  5.5000000000000D-01  4.2334706860911D-01  1.8008592184710D+00
    57  5.6000000000000D-01  3.4680032482970D-01  1.8620956279662D+00
    58  5.7000000000000D-01  2.7268105831054D-01  1.9147838737914D+00
    59  5.8000000000000D-01  2.0136712913691D-01  1.9584247877481D+00
    60  5.9000000000000D-01  1.3320577840836D-01  1.9926116681291D+00
    61  6.0000000000000D-01  6.8510839825461D-02  2.0170354632211D+00
    62  6.1000000000000D-01  7.5603428381299D-03  2.0314886310379D+00
    63  6.2000000000000D-01 -4.9405466267415D-02  2.0358676210540D+00
    64  6.3000000000000D-01 -1.0218566489257D-01  2.0301739452370D+00
    65  6.4000000000000D-01 -1.5061974196434D-01  2.0145138275936D+00
    66  6.5000000000000D-01 -1.9458822512578D-01  1.9890964435430D+00
    67  6.6000000000000D-01 -2.3401284564222D-01  1.9542307820378D+00
    68  6.7000000000000D-01 -2.6885624566652D-01  1.9103211843248D+00
    69  6.8000000000000D-01 -2.9912123862603D-01  1.8578616331673D+00
    70  6.9000000000000D-01 -3.2484963932401D-01  1.7974288847802D+00
    71  7.0000000000000D-01 -3.4612068580973D-01  1.7296745524195D+00
    72  7.1000000000000D-01 -3.6304908011581D-01  1.6553162653079D+00
    73  7.2000000000000D-01 -3.7578267944122D-01  1.5751280389383D+00
    74  7.3000000000000D-01 -3.8449987325600D-01  1.4899300027063D+00
    75  7.4000000000000D-01 -3.8940668504698D-01  1.4005776380665D+00
    76  7.5000000000000D-01 -3.9073363995373D-01  1.3079506848694D+00
    77  7.6000000000000D-01 -3.8873244135834D-01  1.2129418751715D+00
    78  7.7000000000000D-01 -3.8367250053261D-01  1.1164456525725D+00
    79  7.8000000000000D-01 -3.7583736373705D-01  1.0193470310945D+00
    80  7.9000000000000D-01 -3.6552108070037D-01  9.2251074085566D-01
    81  8.0000000000000D-01 -3.5302455720967D-01  8.2677079844483D-01
    82  8.1000000000000D-01 -3.3865193264400D-01  7.3292062816644D-01
    83  8.2000000000000D-01 -3.2270702073329D-01  6.4170384642704D-01
    84  8.3000000000000D-01 -3.0548984867754D-01  5.5380580575161D-01
    85  8.4000000000000D-01 -2.8729332608496D-01  4.6984597754813D-01
    86  8.5000000000000D-01 -2.6840007105813D-01  3.9037123412469D-01
    87  8.6000000000000D-01 -2.4907941625767D-01  3.1585007095359D-01
    88  8.7000000000000D-01 -2.2958461299145D-01  2.4666779014694D-01
    89  8.8000000000000D-01 -2.1015024640749D-01  1.8312264593370D-01
    90  8.9000000000000D-01 -1.9098986910660D-01  1.2542292976336D-01
    91  9.0000000000000D-01 -1.7229385551729D-01  7.3684955199510D-02
    92  9.1000000000000D-01 -1.5422752426849D-01  2.7932103691590D-02
    93  9.2000000000000D-01 -1.3692926137233D-01 -1.1906322150448D-02
    94  9.3000000000000D-01 -1.2051120980377D-01 -4.5984716989351D-02
    95  9.4000000000000D-01 -1.0506238783293D-01 -7.4521331969292D-02
    96  9.5000000000000D-01 -9.0650812771780D-02 -9.7785091939228D-02
    97  9.6000000000000D-01 -7.7324235291731D-02 -1.1608983096972D-01
    98  9.7000000000000D-01 -6.5111322353616D-02 -1.2978695727571D-01
    99  9.8000000000000D-01 -5.4022981588167D-02 -1.3925806280222D-01
   100  9.9000000000000D-01 -4.4053839420048D-02 -1.4490738947454D-01
   101  1.0000000000000D+00 -3.5183841682199D-02 -1.4715428528128D-01
   102  1.0100000000000D+00 -2.7379943010315D-02 -1.4642578789356D-01
   103  1.0200000000000D+00 -2.0597852564643D-02 -1.4314946292423D-01
   104  1.0300000000000D+00 -1.4783804482539D-02 -1.3774661559353D-01
   105  1.0400000000000D+00 -9.8763228534618D-03 -1.3062598431926D-01
   106  1.0500000000000D+00 -5.8079530476810D-03 -1.2217801185318D-01
   107  1.0600000000000D+00 -2.5069332682022D-03 -1.1276977750453D-01
   108  1.0700000000000D+00  1.0121669291940D-04 -1.0274065686046D-01
   109  1.0800000000000D+00  2.0922097030408D-03 -9.2398760765839D-02
   110  1.0900000000000D+00  3.5416253745817D-03 -8.2018188171032D-02
   111  1.1000000000000D+00  4.5236771637736D-03 -7.1837109631849D-02
   112  1.1100000000000D+00  5.1102593948500D-03 -6.2057151025621D-02
   113  1.1200000000000D+00  5.3692038744009D-03 -5.2840381584828D-02
   114  1.1300000000000D+00  5.3641881058150D-03 -4.4312207331426D-02
   115  1.1400000000000D+00  5.1654666917670D-03 -3.6601579497147D-02
   116  1.1500000000000D+00  4.7833868977257D-03 -2.9616778566182D-02
   117  1.1600000000000D+00  4.2543534346584D-03 -2.3344596868593D-02
   118  1.1700000000000D+00  3.6953744132903D-03 -1.8041028618363D-02
   119  1.1800000000000D+00  3.1237357857552D-03 -1.3614053027552D-02
   120  1.1900000000000D+00  2.5531911147518D-03 -9.9593677600864D-03
   121  1.2000000000000D+00  2.0158502092233D-03 -7.0396427494440D-03
   122  1.2100000000000D+00  1.5295746247945D-03 -4.7754955261268D-03
   123  1.2200000000000D+00  1.1076256142855D-03 -3.0821738957135D-03
   124  1.2300000000000D+00  7.5820678486049D-04 -1.8711068059006D-03
   125  1.2400000000000D+00  4.8446787375811D-04 -1.0527718552142D-03
   126  1.2500000000000D+00  2.8489574194339D-04 -5.4052666145659D-04
   127  1.2600000000000D+00  1.5338585617936D-04 -2.5330011487059D-04
   128  1.2700000000000D+00  7.8887334505414D-05 -1.1736483037396D-04
   129  1.2800000000000D+00  5.2652704375328D-05 -8.0332987204028D-05
   130  1.2900000000000D+00  4.8703665889205D-05 -7.9687462060030D-05
   131  1.3000000000000D+00  2.2959963888738D-05 -3.8531259078315D-05
   132  1.3100000000000D+00 -3.1635086544797D-06  5.3444531898082D-06
   133  1.3200000000000D+00 -2.4164065829292D-06  4.1056378999714D-06
   134  1.3300000000000D+00  1.0840117180812D-06 -1.8116673658599D-06
   135  1.3400000000000D+00 -2.9570609490644D-08  4.8728327934143D-08
   136  1.3500000000000D+00 -1.0639352365473D-07  1.7532200384158D-07
   137  1.3600000000000D+00  0.0000000000000D+00  0.0000000000000D+00
   138  1.3700000000000D+00  0.0000000000000D+00  0.0000000000000D+00
   139  1.3800000000000D+00  0.0000000000000D+00  0.0000000000000D+00
   140  1.3900000000000D+00  0.0000000000000D+00  0.0000000000000D+00
   141  1.4000000000000D+00  0.0000000000000D+00  0.0000000000000D+00
   142  1.4100000000000D+00  0.0000000000000D+00  0.0000000000000D+00
   143  1.4200000000000D+00  0.0000000000000D+00  0.0000000000000D+00
   144  1.4300000000000D+00  0.0000000000000D+00  0.0000000000000D+00
   145  1.4400000000000D+00  0.0000000000000D+00  0.0000000000000D+00
   146  1.4500000000000D+00  0.0000000000000D+00  0.0000000000000D+00
   147  1.4600000000000D+00  0.0000000000000D+00  0.0000000000000D+00
   148  1.4700000000000D+00  0.0000000000000D+00  0.0000000000000D+00
   149  1.4800000000000D+00  0.0000000000000D+00  0.0000000000000D+00
   150  1.4900000000000D+00  0.0000000000000D+00  0.0000000000000D+00
   151  1.5000000000000D+00  0.0000000000000D+00  0.0000000000000D+00
   152  1.5100000000000D+00  0.0000000000000D+00  0.0000000000000D+00
   153  1.5200000000000D+00  0.0000000000000D+00  0.0000000000000D+00
   154  1.5300000000000D+00  0.0000000000000D+00  0.0000000000000D+00
   155  1.5400000000000D+00  0.0000000000000D+00  0.0000000000000D+00
   156  1.5500000000000D+00  0.0000000000000D+00  0.0000000000000D+00
   157  1.5600000000000D+00  0.0000000000000D+00  0.0000000000000D+00
   158  1.5700000000000D+00  0.0000000000000D+00  0.0000000000000D+00
   159  1.5800000000000D+00  0.0000000000000D+00  0.0000000000000D+00
   160  1.5900000000000D+00  0.0000000000000D+00  0.0000000000000D+00
   161  1.6000000000000D+00  0.0000000000000D+00  0.0000000000000D+00
   162  1.6100000000000D+00  0.0000000000000D+00  0.0000000000000D+00
   163  1.6200000000000D+00  0.0000000000000D+00  0.0000000000000D+00
   164  1.6300000000000D+00  0.0000000000000D+00  0.0000000000000D+00
   165  1.6400000000000D+00  0.0000000000000D+00  0.0000000000000D+00
   166  1.6500000000000D+00  0.0000000000000D+00  0.0000000000000D+00
   167  1.6600000000000D+00  0.0000000000000D+00  0.0000000000000D+00
   168  1.6700000000000D+00  0.0000000000000D+00  0.0000000000000D+00
   169  1.6800000000000D+00  0.0000000000000D+00  0.0000000000000D+00
   170  1.6900000000000D+00  0.0000000000000D+00  0.0000000000000D+00
   171  1.7000000000000D+00  0.0000000000000D+00  0.0000000000000D+00
   172  1.7100000000000D+00  0.0000000000000D+00  0.0000000000000D+00
   173  1.7200000000000D+00  0.0000000000000D+00  0.0000000000000D+00
   174  1.7300000000000D+00  0.0000000000000D+00  0.0000000000000D+00
   175  1.7400000000000D+00  0.0000000000000D+00  0.0000000000000D+00
   176  1.7500000000000D+00  0.0000000000000D+00  0.0000000000000D+00
   177  1.7600000000000D+00  0.0000000000000D+00  0.0000000000000D+00
   178  1.7700000000000D+00  0.0000000000000D+00  0.0000000000000D+00
   179  1.7800000000000D+00  0.0000000000000D+00  0.0000000000000D+00
   180  1.7900000000000D+00  0.0000000000000D+00  0.0000000000000D+00
   181  1.8000000000000D+00  0.0000000000000D+00  0.0000000000000D+00
   182  1.8100000000000D+00  0.0000000000000D+00  0.0000000000000D+00
   183  1.8200000000000D+00  0.0000000000000D+00  0.0000000000000D+00
   184  1.8300000000000D+00  0.0000000000000D+00  0.0000000000000D+00
   185  1.8400000000000D+00  0.0000000000000D+00  0.0000000000000D+00
   186  1.8500000000000D+00  0.0000000000000D+00  0.0000000000000D+00
   187  1.8600000000000D+00  0.0000000000000D+00  0.0000000000000D+00
   188  1.8700000000000D+00  0.0000000000000D+00  0.0000000000000D+00
   189  1.8800000000000D+00  0.0000000000000D+00  0.0000000000000D+00
   190  1.8900000000000D+00  0.0000000000000D+00  0.0000000000000D+00
   191  1.9000000000000D+00  0.0000000000000D+00  0.0000000000000D+00
   192  1.9100000000000D+00  0.0000000000000D+00  0.0000000000000D+00
   193  1.9200000000000D+00  0.0000000000000D+00  0.0000000000000D+00
   194  1.9300000000000D+00  0.0000000000000D+00  0.0000000000000D+00
   195  1.9400000000000D+00  0.0000000000000D+00  0.0000000000000D+00
   196  1.9500000000000D+00  0.0000000000000D+00  0.0000000000000D+00
   197  1.9600000000000D+00  0.0000000000000D+00  0.0000000000000D+00
   198  1.9700000000000D+00  0.0000000000000D+00  0.0000000000000D+00
   199  1.9800000000000D+00  0.0000000000000D+00  0.0000000000000D+00
   200  1.9900000000000D+00  0.0000000000000D+00  0.0000000000000D+00
   201  2.0000000000000D+00  0.0000000000000D+00  0.0000000000000D+00
   202  2.0100000000000D+00  0.0000000000000D+00  0.0000000000000D+00
   203  2.0200000000000D+00  0.0000000000000D+00  0.0000000000000D+00
   204  2.0300000000000D+00  0.0000000000000D+00  0.0000000000000D+00
   205  2.0400000000000D+00  0.0000000000000D+00  0.0000000000000D+00
   206  2.0500000000000D+00  0.0000000000000D+00  0.0000000000000D+00
   207  2.0600000000000D+00  0.0000000000000D+00  0.0000000000000D+00
   208  2.0700000000000D+00  0.0000000000000D+00  0.0000000000000D+00
   209  2.0800000000000D+00  0.0000000000000D+00  0.0000000000000D+00
   210  2.0900000000000D+00  0.0000000000000D+00  0.0000000000000D+00
   211  2.1000000000000D+00  0.0000000000000D+00  0.0000000000000D+00
   212  2.1100000000000D+00  0.0000000000000D+00  0.0000000000000D+00
   213  2.1200000000000D+00  0.0000000000000D+00  0.0000000000000D+00
   214  2.1300000000000D+00  0.0000000000000D+00  0.0000000000000D+00
   215  2.1400000000000D+00  0.0000000000000D+00  0.0000000000000D+00
   216  2.1500000000000D+00  0.0000000000000D+00  0.0000000000000D+00
   217  2.1600000000000D+00  0.0000000000000D+00  0.0000000000000D+00
   218  2.1700000000000D+00  0.0000000000000D+00  0.0000000000000D+00
   219  2.1800000000000D+00  0.0000000000000D+00  0.0000000000000D+00
   220  2.1900000000000D+00  0.0000000000000D+00  0.0000000000000D+00
   221  2.2000000000000D+00  0.0000000000000D+00  0.0000000000000D+00
   222  2.2100000000000D+00  0.0000000000000D+00  0.0000000000000D+00
   223  2.2200000000000D+00  0.0000000000000D+00  0.0000000000000D+00
   224  2.2300000000000D+00  0.0000000000000D+00  0.0000000000000D+00
   225  2.2400000000000D+00  0.0000000000000D+00  0.0000000000000D+00
   226  2.2500000000000D+00  0.0000000000000D+00  0.0000000000000D+00
   227  2.2600000000000D+00  0.0000000000000D+00  0.0000000000000D+00
   228  2.2700000000000D+00  0.0000000000000D+00  0.0000000000000D+00
   229  2.2800000000000D+00  0.0000000000000D+00  0.0000000000000D+00
   230  2.2900000000000D+00  0.0000000000000D+00  0.0000000000000D+00
   231  2.3000000000000D+00  0.0000000000000D+00  0.0000000000000D+00
   232  2.3100000000000D+00  0.0000000000000D+00  0.0000000000000D+00
   233  2.3200000000000D+00  0.0000000000000D+00  0.0000000000000D+00
   234  2.3300000000000D+00  0.0000000000000D+00  0.0000000000000D+00
   235  2.3400000000000D+00  0.0000000000000D+00  0.0000000000000D+00
   236  2.3500000000000D+00  0.0000000000000D+00  0.0000000000000D+00
   237  2.3600000000000D+00  0.0000000000000D+00  0.0000000000000D+00
   238  2.3700000000000D+00  0.0000000000000D+00  0.0000000000000D+00
   239  2.3800000000000D+00  0.0000000000000D+00  0.0000000000000D+00
   240  2.3900000000000D+00  0.0000000000000D+00  0.0000000000000D+00
   241  2.4000000000000D+00  0.0000000000000D+00  0.0000000000000D+00
   242  2.4100000000000D+00  0.0000000000000D+00  0.0000000000000D+00
   243  2.4200000000000D+00  0.0000000000000D+00  0.0000000000000D+00
   244  2.4300000000000D+00  0.0000000000000D+00  0.0000000000000D+00
   245  2.4400000000000D+00  0.0000000000000D+00  0.0000000000000D+00
   246  2.4500000000000D+00  0.0000000000000D+00  0.0000000000000D+00
   247  2.4600000000000D+00  0.0000000000000D+00  0.0000000000000D+00
   248  2.4700000000000D+00  0.0000000000000D+00  0.0000000000000D+00
   249  2.4800000000000D+00  0.0000000000000D+00  0.0000000000000D+00
   250  2.4900000000000D+00  0.0000000000000D+00  0.0000000000000D+00
   251  2.5000000000000D+00  0.0000000000000D+00  0.0000000000000D+00
   252  2.5100000000000D+00  0.0000000000000D+00  0.0000000000000D+00
   253  2.5200000000000D+00  0.0000000000000D+00  0.0000000000000D+00
   254  2.5300000000000D+00  0.0000000000000D+00  0.0000000000000D+00
   255  2.5400000000000D+00  0.0000000000000D+00  0.0000000000000D+00
   256  2.5500000000000D+00  0.0000000000000D+00  0.0000000000000D+00
   257  2.5600000000000D+00  0.0000000000000D+00  0.0000000000000D+00
   258  2.5700000000000D+00  0.0000000000000D+00  0.0000000000000D+00
   259  2.5800000000000D+00  0.0000000000000D+00  0.0000000000000D+00
   260  2.5900000000000D+00  0.0000000000000D+00  0.0000000000000D+00
   261  2.6000000000000D+00  0.0000000000000D+00  0.0000000000000D+00
   262  2.6100000000000D+00  0.0000000000000D+00  0.0000000000000D+00
   263  2.6200000000000D+00  0.0000000000000D+00  0.0000000000000D+00
   264  2.6300000000000D+00  0.0000000000000D+00  0.0000000000000D+00
   265  2.6400000000000D+00  0.0000000000000D+00  0.0000000000000D+00
   266  2.6500000000000D+00  0.0000000000000D+00  0.0000000000000D+00
   267  2.6600000000000D+00  0.0000000000000D+00  0.0000000000000D+00
   268  2.6700000000000D+00  0.0000000000000D+00  0.0000000000000D+00
   269  2.6800000000000D+00  0.0000000000000D+00  0.0000000000000D+00
   270  2.6900000000000D+00  0.0000000000000D+00  0.0000000000000D+00
   271  2.7000000000000D+00  0.0000000000000D+00  0.0000000000000D+00
   272  2.7100000000000D+00  0.0000000000000D+00  0.0000000000000D+00
   273  2.7200000000000D+00  0.0000000000000D+00  0.0000000000000D+00
   274  2.7300000000000D+00  0.0000000000000D+00  0.0000000000000D+00
   275  2.7400000000000D+00  0.0000000000000D+00  0.0000000000000D+00
   276  2.7500000000000D+00  0.0000000000000D+00  0.0000000000000D+00
   277  2.7600000000000D+00  0.0000000000000D+00  0.0000000000000D+00
   278  2.7700000000000D+00  0.0000000000000D+00  0.0000000000000D+00
   279  2.7800000000000D+00  0.0000000000000D+00  0.0000000000000D+00
   280  2.7900000000000D+00  0.0000000000000D+00  0.0000000000000D+00
   281  2.8000000000000D+00  0.0000000000000D+00  0.0000000000000D+00
   282  2.8100000000000D+00  0.0000000000000D+00  0.0000000000000D+00
   283  2.8200000000000D+00  0.0000000000000D+00  0.0000000000000D+00
   284  2.8300000000000D+00  0.0000000000000D+00  0.0000000000000D+00
   285  2.8400000000000D+00  0.0000000000000D+00  0.0000000000000D+00
   286  2.8500000000000D+00  0.0000000000000D+00  0.0000000000000D+00
   287  2.8600000000000D+00  0.0000000000000D+00  0.0000000000000D+00
   288  2.8700000000000D+00  0.0000000000000D+00  0.0000000000000D+00
   289  2.8800000000000D+00  0.0000000000000D+00  0.0000000000000D+00
   290  2.8900000000000D+00  0.0000000000000D+00  0.0000000000000D+00
   291  2.9000000000000D+00  0.0000000000000D+00  0.0000000000000D+00
   292  2.9100000000000D+00  0.0000000000000D+00  0.0000000000000D+00
   293  2.9200000000000D+00  0.0000000000000D+00  0.0000000000000D+00
   294  2.9300000000000D+00  0.0000000000000D+00  0.0000000000000D+00
   295  2.9400000000000D+00  0.0000000000000D+00  0.0000000000000D+00
   296  2.9500000000000D+00  0.0000000000000D+00  0.0000000000000D+00
   297  2.9600000000000D+00  0.0000000000000D+00  0.0000000000000D+00
   298  2.9700000000000D+00  0.0000000000000D+00  0.0000000000000D+00
   299  2.9800000000000D+00  0.0000000000000D+00  0.0000000000000D+00
   300  2.9900000000000D+00  0.0000000000000D+00  0.0000000000000D+00
   301  3.0000000000000D+00  0.0000000000000D+00  0.0000000000000D+00
   302  3.0100000000000D+00  0.0000000000000D+00  0.0000000000000D+00
   303  3.0200000000000D+00  0.0000000000000D+00  0.0000000000000D+00
   304  3.0300000000000D+00  0.0000000000000D+00  0.0000000000000D+00
   305  3.0400000000000D+00  0.0000000000000D+00  0.0000000000000D+00
   306  3.0500000000000D+00  0.0000000000000D+00  0.0000000000000D+00
   307  3.0600000000000D+00  0.0000000000000D+00  0.0000000000000D+00
   308  3.0700000000000D+00  0.0000000000000D+00  0.0000000000000D+00
   309  3.0800000000000D+00  0.0000000000000D+00  0.0000000000000D+00
   310  3.0900000000000D+00  0.0000000000000D+00  0.0000000000000D+00
   311  3.1000000000000D+00  0.0000000000000D+00  0.0000000000000D+00
   312  3.1100000000000D+00  0.0000000000000D+00  0.0000000000000D+00
   313  3.1200000000000D+00  0.0000000000000D+00  0.0000000000000D+00
   314  3.1300000000000D+00  0.0000000000000D+00  0.0000000000000D+00
   315  3.1400000000000D+00  0.0000000000000D+00  0.0000000000000D+00
   316  3.1500000000000D+00  0.0000000000000D+00  0.0000000000000D+00
   317  3.1600000000000D+00  0.0000000000000D+00  0.0000000000000D+00
   318  3.1700000000000D+00  0.0000000000000D+00  0.0000000000000D+00
   319  3.1800000000000D+00  0.0000000000000D+00  0.0000000000000D+00
   320  3.1900000000000D+00  0.0000000000000D+00  0.0000000000000D+00
   321  3.2000000000000D+00  0.0000000000000D+00  0.0000000000000D+00
   322  3.2100000000000D+00  0.0000000000000D+00  0.0000000000000D+00
   323  3.2200000000000D+00  0.0000000000000D+00  0.0000000000000D+00
   324  3.2300000000000D+00  0.0000000000000D+00  0.0000000000000D+00
   325  3.2400000000000D+00  0.0000000000000D+00  0.0000000000000D+00
   326  3.2500000000000D+00  0.0000000000000D+00  0.0000000000000D+00
   327  3.2600000000000D+00  0.0000000000000D+00  0.0000000000000D+00
   328  3.2700000000000D+00  0.0000000000000D+00  0.0000000000000D+00
   329  3.2800000000000D+00  0.0000000000000D+00  0.0000000000000D+00
   330  3.2900000000000D+00  0.0000000000000D+00  0.0000000000000D+00
   331  3.3000000000000D+00  0.0000000000000D+00  0.0000000000000D+00
   332  3.3100000000000D+00  0.0000000000000D+00  0.0000000000000D+00
   333  3.3200000000000D+00  0.0000000000000D+00  0.0000000000000D+00
   334  3.3300000000000D+00  0.0000000000000D+00  0.0000000000000D+00
   335  3.3400000000000D+00  0.0000000000000D+00  0.0000000000000D+00
   336  3.3500000000000D+00  0.0000000000000D+00  0.0000000000000D+00
   337  3.3600000000000D+00  0.0000000000000D+00  0.0000000000000D+00
   338  3.3700000000000D+00  0.0000000000000D+00  0.0000000000000D+00
   339  3.3800000000000D+00  0.0000000000000D+00  0.0000000000000D+00
   340  3.3900000000000D+00  0.0000000000000D+00  0.0000000000000D+00
   341  3.4000000000000D+00  0.0000000000000D+00  0.0000000000000D+00
   342  3.4100000000000D+00  0.0000000000000D+00  0.0000000000000D+00
   343  3.4200000000000D+00  0.0000000000000D+00  0.0000000000000D+00
   344  3.4300000000000D+00  0.0000000000000D+00  0.0000000000000D+00
   345  3.4400000000000D+00  0.0000000000000D+00  0.0000000000000D+00
   346  3.4500000000000D+00  0.0000000000000D+00  0.0000000000000D+00
   347  3.4600000000000D+00  0.0000000000000D+00  0.0000000000000D+00
   348  3.4700000000000D+00  0.0000000000000D+00  0.0000000000000D+00
   349  3.4800000000000D+00  0.0000000000000D+00  0.0000000000000D+00
   350  3.4900000000000D+00  0.0000000000000D+00  0.0000000000000D+00
   351  3.5000000000000D+00  0.0000000000000D+00  0.0000000000000D+00
   352  3.5100000000000D+00  0.0000000000000D+00  0.0000000000000D+00
   353  3.5200000000000D+00  0.0000000000000D+00  0.0000000000000D+00
   354  3.5300000000000D+00  0.0000000000000D+00  0.0000000000000D+00
   355  3.5400000000000D+00  0.0000000000000D+00  0.0000000000000D+00
   356  3.5500000000000D+00  0.0000000000000D+00  0.0000000000000D+00
   357  3.5600000000000D+00  0.0000000000000D+00  0.0000000000000D+00
   358  3.5700000000000D+00  0.0000000000000D+00  0.0000000000000D+00
   359  3.5800000000000D+00  0.0000000000000D+00  0.0000000000000D+00
   360  3.5900000000000D+00  0.0000000000000D+00  0.0000000000000D+00
   361  3.6000000000000D+00  0.0000000000000D+00  0.0000000000000D+00
   362  3.6100000000000D+00  0.0000000000000D+00  0.0000000000000D+00
   363  3.6200000000000D+00  0.0000000000000D+00  0.0000000000000D+00
   364  3.6300000000000D+00  0.0000000000000D+00  0.0000000000000D+00
   365  3.6400000000000D+00  0.0000000000000D+00  0.0000000000000D+00
   366  3.6500000000000D+00  0.0000000000000D+00  0.0000000000000D+00
   367  3.6600000000000D+00  0.0000000000000D+00  0.0000000000000D+00
   368  3.6700000000000D+00  0.0000000000000D+00  0.0000000000000D+00
   369  3.6800000000000D+00  0.0000000000000D+00  0.0000000000000D+00
   370  3.6900000000000D+00  0.0000000000000D+00  0.0000000000000D+00
   371  3.7000000000000D+00  0.0000000000000D+00  0.0000000000000D+00
   372  3.7100000000000D+00  0.0000000000000D+00  0.0000000000000D+00
   373  3.7200000000000D+00  0.0000000000000D+00  0.0000000000000D+00
   374  3.7300000000000D+00  0.0000000000000D+00  0.0000000000000D+00
   375  3.7400000000000D+00  0.0000000000000D+00  0.0000000000000D+00
   376  3.7500000000000D+00  0.0000000000000D+00  0.0000000000000D+00
   377  3.7600000000000D+00  0.0000000000000D+00  0.0000000000000D+00
   378  3.7700000000000D+00  0.0000000000000D+00  0.0000000000000D+00
   379  3.7800000000000D+00  0.0000000000000D+00  0.0000000000000D+00
   380  3.7900000000000D+00  0.0000000000000D+00  0.0000000000000D+00
   381  3.8000000000000D+00  0.0000000000000D+00  0.0000000000000D+00
   382  3.8100000000000D+00  0.0000000000000D+00  0.0000000000000D+00
   383  3.8200000000000D+00  0.0000000000000D+00  0.0000000000000D+00
   384  3.8300000000000D+00  0.0000000000000D+00  0.0000000000000D+00
   385  3.8400000000000D+00  0.0000000000000D+00  0.0000000000000D+00
   386  3.8500000000000D+00  0.0000000000000D+00  0.0000000000000D+00
   387  3.8600000000000D+00  0.0000000000000D+00  0.0000000000000D+00
   388  3.8700000000000D+00  0.0000000000000D+00  0.0000000000000D+00
   389  3.8800000000000D+00  0.0000000000000D+00  0.0000000000000D+00
   390  3.8900000000000D+00  0.0000000000000D+00  0.0000000000000D+00
   391  3.9000000000000D+00  0.0000000000000D+00  0.0000000000000D+00
   392  3.9100000000000D+00  0.0000000000000D+00  0.0000000000000D+00
   393  3.9200000000000D+00  0.0000000000000D+00  0.0000000000000D+00
   394  3.9300000000000D+00  0.0000000000000D+00  0.0000000000000D+00
   395  3.9400000000000D+00  0.0000000000000D+00  0.0000000000000D+00
   396  3.9500000000000D+00  0.0000000000000D+00  0.0000000000000D+00
   397  3.9600000000000D+00  0.0000000000000D+00  0.0000000000000D+00
   398  3.9700000000000D+00  0.0000000000000D+00  0.0000000000000D+00
   399  3.9800000000000D+00  0.0000000000000D+00  0.0000000000000D+00
   400  3.9900000000000D+00  0.0000000000000D+00  0.0000000000000D+00
   401  4.0000000000000D+00  0.0000000000000D+00  0.0000000000000D+00
   402  4.0100000000000D+00  0.0000000000000D+00  0.0000000000000D+00
   403  4.0200000000000D+00  0.0000000000000D+00  0.0000000000000D+00
   404  4.0300000000000D+00  0.0000000000000D+00  0.0000000000000D+00
   405  4.0400000000000D+00  0.0000000000000D+00  0.0000000000000D+00
   406  4.0500000000000D+00  0.0000000000000D+00  0.0000000000000D+00
   407  4.0600000000000D+00  0.0000000000000D+00  0.0000000000000D+00
   408  4.0700000000000D+00  0.0000000000000D+00  0.0000000000000D+00
   409  4.0800000000000D+00  0.0000000000000D+00  0.0000000000000D+00
   410  4.0900000000000D+00  0.0000000000000D+00  0.0000000000000D+00
   411  4.1000000000000D+00  0.0000000000000D+00  0.0000000000000D+00
   412  4.1100000000000D+00  0.0000000000000D+00  0.0000000000000D+00
   413  4.1200000000000D+00  0.0000000000000D+00  0.0000000000000D+00
   414  4.1300000000000D+00  0.0000000000000D+00  0.0000000000000D+00
   415  4.1400000000000D+00  0.0000000000000D+00  0.0000000000000D+00
   416  4.1500000000000D+00  0.0000000000000D+00  0.0000000000000D+00
   417  4.1600000000000D+00  0.0000000000000D+00  0.0000000000000D+00
   418  4.1700000000000D+00  0.0000000000000D+00  0.0000000000000D+00
   419  4.1800000000000D+00  0.0000000000000D+00  0.0000000000000D+00
   420  4.1900000000000D+00  0.0000000000000D+00  0.0000000000000D+00
   421  4.2000000000000D+00  0.0000000000000D+00  0.0000000000000D+00
   422  4.2100000000000D+00  0.0000000000000D+00  0.0000000000000D+00
   423  4.2200000000000D+00  0.0000000000000D+00  0.0000000000000D+00