Os    ONCVPSP-3.3.1  r_core=   1.76739   1.87601   1.51352   2.61993
     76.0000     16.0000      210904    zatom,zion,pspd
     8       2   3     4   600     0    pspcod,pspxc,lmax,lloc,mmax,r2well
  5.99000000  0.00000000  0.00000000    rchrg fchrg qchrg
     2     2     2     2     0    nproj
     1     1           extension_switch
   0                         1.4150121692912D+01  2.0793485580557D+00
     1  0.0000000000000D+00  1.3848372448777D-10 -3.1565182412319D-10
     2  1.0000000000000D-02  5.2817797951030D-02 -9.2219653372615D-03
     3  2.0000000000000D-02  1.0560665596735D-01 -1.8487939210054D-02
     4  3.0000000000000D-02  1.5833722373442D-01 -2.7840896826611D-02
     5  4.0000000000000D-02  2.1097933464426D-01 -3.7321757015249D-02
     6  5.0000000000000D-02  2.6350160877925D-01 -4.6968379641046D-02
     7  6.0000000000000D-02  3.1587106915419D-01 -5.6814593526749D-02
     8  7.0000000000000D-02  3.6805277547296D-01 -6.6889264674483D-02
     9  8.0000000000000D-02  4.2000947951761D-01 -7.7215414269170D-02
    10  9.0000000000000D-02  4.7170130611618D-01 -8.7809395553467D-02
    11  1.0000000000000D-01  5.2308546343232D-01 -9.8680138199657D-02
    12  1.1000000000000D-01  5.7411598608593D-01 -1.0982846826939D-01
    13  1.2000000000000D-01  6.2474351435125D-01 -1.2124651125013D-01
    14  1.3000000000000D-01  6.7491511238839D-01 -1.3291718499191D-01
    15  1.4000000000000D-01  7.2457412814920D-01 -1.4481378864310D-01
    16  1.5000000000000D-01  7.7366009725927D-01 -1.5689969290422D-01
    17  1.6000000000000D-01  8.2210869281815D-01 -1.6912813608933D-01
    18  1.7000000000000D-01  8.6985172268168D-01 -1.8144212961036D-01
    19  1.8000000000000D-01  9.1681717539602D-01 -1.9377447558711D-01
    20  1.9000000000000D-01  9.6292931554563D-01 -2.0604789834011D-01
    21  2.0000000000000D-01  1.0081088288598D+00 -2.1817529055245D-01
    22  2.1000000000000D-01  1.0522730169975D+00 -2.3006007389599D-01
    23  2.2000000000000D-01  1.0953360415008D+00 -2.4159667291511D-01
    24  2.3000000000000D-01  1.1372092159786D+00 -2.5267109995391D-01
    25  2.4000000000000D-01  1.1778013451513D+00 -2.6316164790902D-01
    26  2.5000000000000D-01  1.2170191089693D+00 -2.7293968659697D-01
    27  2.6000000000000D-01  1.2547674896006D+00 -2.8187055755098D-01
    28  2.7000000000000D-01  1.2909502386845D+00 -2.8981456111491D-01
    29  2.8000000000000D-01  1.3254703818607D+00 -2.9662802878938D-01
    30  2.9000000000000D-01  1.3582307572165D+00 -3.0216447291631D-01
    31  3.0000000000000D-01  1.3891345839502D+00 -3.0627580496901D-01
    32  3.1000000000000D-01  1.4180860572270D+00 -3.0881361295547D-01
    33  3.2000000000000D-01  1.4449909649113D+00 -3.0963048774854D-01
    34  3.3000000000000D-01  1.4697573215968D+00 -3.0858138753572D-01
    35  3.4000000000000D-01  1.4922960151280D+00 -3.0552502904083D-01
    36  3.5000000000000D-01  1.5125214606094D+00 -3.0032529371527D-01
    37  3.6000000000000D-01  1.5303522567471D+00 -2.9285263673360D-01
    38  3.7000000000000D-01  1.5457118392455D+00 -2.8298548636313D-01
    39  3.8000000000000D-01  1.5585291259117D+00 -2.7061162111284D-01
    40  3.9000000000000D-01  1.5687391480804D+00 -2.5562951200789D-01
    41  4.0000000000000D-01  1.5762836629879D+00 -2.3794961738566D-01
    42  4.1000000000000D-01  1.5811117417737D+00 -2.1749561776764D-01
    43  4.2000000000000D-01  1.5831803278871D+00 -1.9420557863229D-01
    44  4.3000000000000D-01  1.5824547608201D+00 -1.6803302929491D-01
    45  4.4000000000000D-01  1.5789092602706D+00 -1.3894794659247D-01
    46  4.5000000000000D-01  1.5725273660723D+00 -1.0693763267115D-01
    47  4.6000000000000D-01  1.5633023294951D+00 -7.2007476879698D-02
    48  4.7000000000000D-01  1.5512374518329D+00 -3.4181592578690D-02
    49  4.8000000000000D-01  1.5363463665419D+00  6.4966794216535D-03
    50  4.9000000000000D-01  1.5186532615800D+00  4.9964408088491D-02
    51  5.0000000000000D-01  1.4981930390134D+00  9.6138856275711D-02
    52  5.1000000000000D-01  1.4750114094044D+00  1.4491741678099D-01
    53  5.2000000000000D-01  1.4491649189717D+00  1.9617770419822D-01
    54  5.3000000000000D-01  1.4207209080087D+00  2.4977780513844D-01
    55  5.4000000000000D-01  1.3897573995648D+00  3.0555668807248D-01
    56  5.5000000000000D-01  1.3563629179282D+00  3.6333477269224D-01
    57  5.6000000000000D-01  1.3206362369873D+00  4.2291465731155D-01
    58  5.7000000000000D-01  1.2826860591035D+00  4.8408200143597D-01
    59  5.8000000000000D-01  1.2426306256741D+00  5.4660655924730D-01
    60  5.9000000000000D-01  1.2005972611166D+00  6.1024335837299D-01
    61  6.0000000000000D-01  1.1567218525431D+00  6.7473401697055D-01
    62  6.1000000000000D-01  1.1111482679240D+00  7.3980819084850D-01
    63  6.2000000000000D-01  1.0640277160494D+00  8.0518514110176D-01
    64  6.3000000000000D-01  1.0155180520883D+00  8.7057541154919D-01
    65  6.4000000000000D-01  9.6578303300571D-01  9.3568260416068D-01
    66  6.5000000000000D-01  9.1499152753341D-01  1.0002052396432D+00
    67  6.6000000000000D-01  8.6331668578563D-01  1.0638386894395D+00
    68  6.7000000000000D-01  8.1093507397264D-01  1.1262771645912D+00
    69  6.8000000000000D-01  7.5802577998164D-01  1.1872157462318D+00
    70  6.9000000000000D-01  7.0476949586856D-01  1.2463524419177D+00
    71  7.0000000000000D-01  6.5134758352933D-01  1.3033902515866D+00
    72  7.1000000000000D-01  5.9794112999439D-01  1.3580392266459D+00
    73  7.2000000000000D-01  5.4472999891486D-01  1.4100185055618D+00
    74  7.3000000000000D-01  4.9189188487857D-01  1.4590583093258D+00
    75  7.4000000000000D-01  4.3960137721126D-01  1.5049018803360D+00
    76  7.5000000000000D-01  3.8802903988005D-01  1.5473073485394D+00
    77  7.6000000000000D-01  3.3734051402391D-01  1.5860495091344D+00
    78  7.7000000000000D-01  2.8769564949084D-01  1.6209214967312D+00
    79  7.8000000000000D-01  2.3924767156161D-01  1.6517363416081D+00
    80  7.9000000000000D-01  1.9214238879172D-01  1.6783283945710D+00
    81  8.0000000000000D-01  1.4651744760436D-01  1.7005546079197D+00
    82  8.1000000000000D-01  1.0250163892342D-01  1.7182956611412D+00
    83  8.2000000000000D-01  6.0214261747953D-02  1.7314569211644D+00
    84  8.3000000000000D-01  1.9764548142844D-02  1.7399692283319D+00
    85  8.4000000000000D-01 -1.8748846342130D-02  1.7437895006363D+00
    86  8.5000000000000D-01 -5.5238283306473D-02  1.7429011502374D+00
    87  8.6000000000000D-01 -8.9627510188860D-02  1.7373143077979D+00
    88  8.7000000000000D-01 -1.2185195455796D-01  1.7270658517345D+00
    89  8.8000000000000D-01 -1.5185894210924D-01  1.7122192410680D+00
    90  8.9000000000000D-01 -1.7960783704439D-01  1.6928641521490D+00
    91  9.0000000000000D-01 -2.0507010408827D-01  1.6691159211230D+00
    92  9.1000000000000D-01 -2.2822929197729D-01  1.6411147955622D+00
    93  9.2000000000000D-01 -2.4908093882860D-01  1.6090250002160D+00
    94  9.3000000000000D-01 -2.6763240036469D-01  1.5730336233011D+00
    95  9.4000000000000D-01 -2.8390260251910D-01  1.5333493311565D+00
    96  9.5000000000000D-01 -2.9792172047978D-01  1.4902009204031D+00
    97  9.6000000000000D-01 -3.0973078673465D-01  1.4438357179746D+00
    98  9.7000000000000D-01 -3.1938123116017D-01  1.3945178404948D+00
    99  9.8000000000000D-01 -3.2693435663585D-01  1.3425263254674D+00
   100  9.9000000000000D-01 -3.3246075408193D-01  1.2881531476222D+00
   101  1.0000000000000D+00 -3.3603966117758D-01  1.2317011344752D+00
   102  1.0100000000000D+00 -3.3775826934350D-01  1.1734817957488D+00
   103  1.0200000000000D+00 -3.3771098384921D-01  1.1138130817307D+00
   104  1.0300000000000D+00 -3.3599864213661D-01  1.0530170859311D+00
   105  1.0400000000000D+00 -3.3272769562633D-01  9.9141770751647D-01
   106  1.0500000000000D+00 -3.2800936040801D-01  9.2933828898480D-01
   107  1.0600000000000D+00 -3.2195874229272D-01  8.6709924434825D-01
   108  1.0700000000000D+00 -3.1469394173149D-01  8.0501569276712D-01
   109  1.0800000000000D+00 -3.0633514408128D-01  7.4339511208931D-01
   110  1.0900000000000D+00 -2.9700370062413D-01  6.8253502612805D-01
   111  1.1000000000000D+00 -2.8682120564150D-01  6.2272073882803D-01
   112  1.1100000000000D+00 -2.7590857465920D-01  5.6422312749831D-01
   113  1.1200000000000D+00 -2.6438512879128D-01  5.0729650641334D-01
   114  1.1300000000000D+00 -2.5236768982259D-01  4.5217657084471D-01
   115  1.1400000000000D+00 -2.3996969047488D-01  3.9907843076492D-01
   116  1.1500000000000D+00 -2.2730030387990D-01  3.4819474182284D-01
   117  1.1600000000000D+00 -2.1446359600963D-01  2.9969394018850D-01
   118  1.1700000000000D+00 -2.0155770295064D-01  2.5371857981859D-01
   119  1.1800000000000D+00 -1.8867404194892D-01  2.1038380382158D-01
   120  1.1900000000000D+00 -1.7589655214137D-01  1.6977591731301D-01
   121  1.2000000000000D+00 -1.6330101296162D-01  1.3195128104510D-01
   122  1.2100000000000D+00 -1.5095408300654D-01  9.6933882303635D-02
   123  1.2200000000000D+00 -1.3891378692730D-01  6.4719463449936D-02
   124  1.2300000000000D+00 -1.2723061578641D-01  3.5281989326453D-02
   125  1.2400000000000D+00 -1.1594895161593D-01  8.5808339864125D-03
   126  1.2500000000000D+00 -1.0510716767704D-01 -1.5438355753953D-02
   127  1.2600000000000D+00 -9.4737669636961D-02 -3.6843221113869D-02
   128  1.2700000000000D+00 -8.4867102941750D-02 -5.5713507806157D-02
   129  1.2800000000000D+00 -7.5516547312410D-02 -7.2140043277600D-02
   130  1.2900000000000D+00 -6.6701742833100D-02 -8.6223641335014D-02
   131  1.3000000000000D+00 -5.8433342178849D-02 -9.8073960045229D-02
   132  1.3100000000000D+00 -5.0717185791669D-02 -1.0780832497094D-01
   133  1.3200000000000D+00 -4.3554596627388D-02 -1.1555052996459D-01
   134  1.3300000000000D+00 -3.6942691356013D-02 -1.2142962660568D-01
   135  1.3400000000000D+00 -3.0874704761683D-02 -1.2557871368827D-01
   136  1.3500000000000D+00 -2.5340324188201D-02 -1.2813373727425D-01
   137  1.3600000000000D+00 -2.0326030874321D-02 -1.2923231200163D-01
   138  1.3700000000000D+00 -1.5815445023643D-02 -1.2901257394455D-01
   139  1.3800000000000D+00 -1.1789671783695D-02 -1.2761207376897D-01
   140  1.3900000000000D+00 -8.2276450195592D-03 -1.2516672027579D-01
   141  1.4000000000000D+00 -5.1064663348356D-03 -1.2180978159578D-01
   142  1.4100000000000D+00 -2.4017367485545D-03 -1.1767095168842D-01
   143  1.4200000000000D+00 -8.7878401182102D-05 -1.1287548975028D-01
   144  1.4300000000000D+00  1.8615554628215D-03 -1.0754343645330D-01
   145  1.4400000000000D+00  3.4735847673159D-03 -1.0178891421576D-01
   146  1.4500000000000D+00  4.7755224495580D-03 -9.5719513568415D-02
   147  1.4600000000000D+00  5.7947115616458D-03 -8.9435769315799D-02
   148  1.4700000000000D+00  6.5582811681679D-03 -8.3030729440174D-02
   149  1.4800000000000D+00  7.0929214273037D-03 -7.6589615256082D-02
   150  1.4900000000000D+00  7.4246795999373D-03 -7.0189576557245D-02
   151  1.5000000000000D+00  7.5787765000728D-03 -6.3899536861005D-02
   152  1.5100000000000D+00  7.5794445180976D-03 -5.7780130133635D-02
   153  1.5200000000000D+00  7.4498667693644D-03 -5.1884000280148D-02
   154  1.5300000000000D+00  7.2116893521643D-03 -4.6254638714956D-02
   155  1.5400000000000D+00  6.8848114069557D-03 -4.0926184636345D-02
   156  1.5500000000000D+00  6.4905766791165D-03 -3.5934987958266D-02
   157  1.5600000000000D+00  6.0478604090343D-03 -3.1306634435523D-02
   158  1.5700000000000D+00  5.5608268211937D-03 -2.7014116635451D-02
   159  1.5800000000000D+00  5.0367147177719D-03 -2.3039965222955D-02
   160  1.5900000000000D+00  4.5014072888995D-03 -1.9430734570531D-02
   161  1.6000000000000D+00  3.9762332464809D-03 -1.6216972859576D-02
   162  1.6100000000000D+00  3.4667811768940D-03 -1.3374860406664D-02
   163  1.6200000000000D+00  2.9780284560781D-03 -1.0879299031588D-02
   164  1.6300000000000D+00  2.5180819388676D-03 -8.7174033668537D-03
   165  1.6400000000000D+00  2.0930126779002D-03 -6.8709675090620D-03
   166  1.6500000000000D+00  1.7067708147487D-03 -5.3165823095642D-03
   167  1.6600000000000D+00  1.3622069597597D-03 -4.0295780844279D-03
   168  1.6700000000000D+00  1.0609961255677D-03 -2.9841184539499D-03
   169  1.6800000000000D+00  8.0363355727053D-04 -2.1535147929638D-03
   170  1.6900000000000D+00  5.8951792533277D-04 -1.5108117582340D-03
   171  1.7000000000000D+00  4.1701593420357D-04 -1.0292743287850D-03
   172  1.7100000000000D+00  2.8356551367516D-04 -6.8299684826537D-04
   173  1.7200000000000D+00  1.8558294885932D-04 -4.4668568482032D-04
   174  1.7300000000000D+00  1.1819370149869D-04 -2.9504591001484D-04
   175  1.7400000000000D+00  7.6958000658030D-05 -2.0863850041170D-04
   176  1.7500000000000D+00  5.8601654915324D-05 -1.7592777464935D-04
   177  1.7600000000000D+00  5.3393156091069D-05 -1.6933979723717D-04
   178  1.7700000000000D+00  4.2663844588614D-05 -1.3679068145999D-04
   179  1.7800000000000D+00  1.8919428188329D-05 -6.0730804484460D-05
   180  1.7900000000000D+00 -1.4707337717228D-06  4.7599034218306D-06
   181  1.8000000000000D+00 -4.6881960414899D-06  1.5190454666049D-05
   182  1.8100000000000D+00 -3.7118695151545D-08  1.2033096998655D-07
   183  1.8200000000000D+00  1.0968723076357D-06 -3.5635868723020D-06
   184  1.8300000000000D+00  2.5029443122619D-07 -8.1384453306349D-07
   185  1.8400000000000D+00 -1.2868203360517D-07  4.1187111409930D-07
   186  1.8500000000000D+00 -6.5383864793299D-08  2.0927338869358D-07
   187  1.8600000000000D+00  0.0000000000000D+00  0.0000000000000D+00
   188  1.8700000000000D+00  0.0000000000000D+00  0.0000000000000D+00
   189  1.8800000000000D+00  0.0000000000000D+00  0.0000000000000D+00
   190  1.8900000000000D+00  0.0000000000000D+00  0.0000000000000D+00
   191  1.9000000000000D+00  0.0000000000000D+00  0.0000000000000D+00
   192  1.9100000000000D+00  0.0000000000000D+00  0.0000000000000D+00
   193  1.9200000000000D+00  0.0000000000000D+00  0.0000000000000D+00
   194  1.9300000000000D+00  0.0000000000000D+00  0.0000000000000D+00
   195  1.9400000000000D+00  0.0000000000000D+00  0.0000000000000D+00
   196  1.9500000000000D+00  0.0000000000000D+00  0.0000000000000D+00
   197  1.9600000000000D+00  0.0000000000000D+00  0.0000000000000D+00
   198  1.9700000000000D+00  0.0000000000000D+00  0.0000000000000D+00
   199  1.9800000000000D+00  0.0000000000000D+00  0.0000000000000D+00
   200  1.9900000000000D+00  0.0000000000000D+00  0.0000000000000D+00
   201  2.0000000000000D+00  0.0000000000000D+00  0.0000000000000D+00
   202  2.0100000000000D+00  0.0000000000000D+00  0.0000000000000D+00
   203  2.0200000000000D+00  0.0000000000000D+00  0.0000000000000D+00
   204  2.0300000000000D+00  0.0000000000000D+00  0.0000000000000D+00
   205  2.0400000000000D+00  0.0000000000000D+00  0.0000000000000D+00
   206  2.0500000000000D+00  0.0000000000000D+00  0.0000000000000D+00
   207  2.0600000000000D+00  0.0000000000000D+00  0.0000000000000D+00
   208  2.0700000000000D+00  0.0000000000000D+00  0.0000000000000D+00
   209  2.0800000000000D+00  0.0000000000000D+00  0.0000000000000D+00
   210  2.0900000000000D+00  0.0000000000000D+00  0.0000000000000D+00
   211  2.1000000000000D+00  0.0000000000000D+00  0.0000000000000D+00
   212  2.1100000000000D+00  0.0000000000000D+00  0.0000000000000D+00
   213  2.1200000000000D+00  0.0000000000000D+00  0.0000000000000D+00
   214  2.1300000000000D+00  0.0000000000000D+00  0.0000000000000D+00
   215  2.1400000000000D+00  0.0000000000000D+00  0.0000000000000D+00
   216  2.1500000000000D+00  0.0000000000000D+00  0.0000000000000D+00
   217  2.1600000000000D+00  0.0000000000000D+00  0.0000000000000D+00
   218  2.1700000000000D+00  0.0000000000000D+00  0.0000000000000D+00
   219  2.1800000000000D+00  0.0000000000000D+00  0.0000000000000D+00
   220  2.1900000000000D+00  0.0000000000000D+00  0.0000000000000D+00
   221  2.2000000000000D+00  0.0000000000000D+00  0.0000000000000D+00
   222  2.2100000000000D+00  0.0000000000000D+00  0.0000000000000D+00
   223  2.2200000000000D+00  0.0000000000000D+00  0.0000000000000D+00
   224  2.2300000000000D+00  0.0000000000000D+00  0.0000000000000D+00
   225  2.2400000000000D+00  0.0000000000000D+00  0.0000000000000D+00
   226  2.2500000000000D+00  0.0000000000000D+00  0.0000000000000D+00
   227  2.2600000000000D+00  0.0000000000000D+00  0.0000000000000D+00
   228  2.2700000000000D+00  0.0000000000000D+00  0.0000000000000D+00
   229  2.2800000000000D+00  0.0000000000000D+00  0.0000000000000D+00
   230  2.2900000000000D+00  0.0000000000000D+00  0.0000000000000D+00
   231  2.3000000000000D+00  0.0000000000000D+00  0.0000000000000D+00
   232  2.3100000000000D+00  0.0000000000000D+00  0.0000000000000D+00
   233  2.3200000000000D+00  0.0000000000000D+00  0.0000000000000D+00
   234  2.3300000000000D+00  0.0000000000000D+00  0.0000000000000D+00
   235  2.3400000000000D+00  0.0000000000000D+00  0.0000000000000D+00
   236  2.3500000000000D+00  0.0000000000000D+00  0.0000000000000D+00
   237  2.3600000000000D+00  0.0000000000000D+00  0.0000000000000D+00
   238  2.3700000000000D+00  0.0000000000000D+00  0.0000000000000D+00
   239  2.3800000000000D+00  0.0000000000000D+00  0.0000000000000D+00
   240  2.3900000000000D+00  0.0000000000000D+00  0.0000000000000D+00
   241  2.4000000000000D+00  0.0000000000000D+00  0.0000000000000D+00
   242  2.4100000000000D+00  0.0000000000000D+00  0.0000000000000D+00
   243  2.4200000000000D+00  0.0000000000000D+00  0.0000000000000D+00
   244  2.4300000000000D+00  0.0000000000000D+00  0.0000000000000D+00
   245  2.4400000000000D+00  0.0000000000000D+00  0.0000000000000D+00
   246  2.4500000000000D+00  0.0000000000000D+00  0.0000000000000D+00
   247  2.4600000000000D+00  0.0000000000000D+00  0.0000000000000D+00
   248  2.4700000000000D+00  0.0000000000000D+00  0.0000000000000D+00
   249  2.4800000000000D+00  0.0000000000000D+00  0.0000000000000D+00
   250  2.4900000000000D+00  0.0000000000000D+00  0.0000000000000D+00
   251  2.5000000000000D+00  0.0000000000000D+00  0.0000000000000D+00
   252  2.5100000000000D+00  0.0000000000000D+00  0.0000000000000D+00
   253  2.5200000000000D+00  0.0000000000000D+00  0.0000000000000D+00
   254  2.5300000000000D+00  0.0000000000000D+00  0.0000000000000D+00
   255  2.5400000000000D+00  0.0000000000000D+00  0.0000000000000D+00
   256  2.5500000000000D+00  0.0000000000000D+00  0.0000000000000D+00
   257  2.5600000000000D+00  0.0000000000000D+00  0.0000000000000D+00
   258  2.5700000000000D+00  0.0000000000000D+00  0.0000000000000D+00
   259  2.5800000000000D+00  0.0000000000000D+00  0.0000000000000D+00
   260  2.5900000000000D+00  0.0000000000000D+00  0.0000000000000D+00
   261  2.6000000000000D+00  0.0000000000000D+00  0.0000000000000D+00
   262  2.6100000000000D+00  0.0000000000000D+00  0.0000000000000D+00
   263  2.6200000000000D+00  0.0000000000000D+00  0.0000000000000D+00
   264  2.6300000000000D+00  0.0000000000000D+00  0.0000000000000D+00
   265  2.6400000000000D+00  0.0000000000000D+00  0.0000000000000D+00
   266  2.6500000000000D+00  0.0000000000000D+00  0.0000000000000D+00
   267  2.6600000000000D+00  0.0000000000000D+00  0.0000000000000D+00
   268  2.6700000000000D+00  0.0000000000000D+00  0.0000000000000D+00
   269  2.6800000000000D+00  0.0000000000000D+00  0.0000000000000D+00
   270  2.6900000000000D+00  0.0000000000000D+00  0.0000000000000D+00
   271  2.7000000000000D+00  0.0000000000000D+00  0.0000000000000D+00
   272  2.7100000000000D+00  0.0000000000000D+00  0.0000000000000D+00
   273  2.7200000000000D+00  0.0000000000000D+00  0.0000000000000D+00
   274  2.7300000000000D+00  0.0000000000000D+00  0.0000000000000D+00
   275  2.7400000000000D+00  0.0000000000000D+00  0.0000000000000D+00
   276  2.7500000000000D+00  0.0000000000000D+00  0.0000000000000D+00
   277  2.7600000000000D+00  0.0000000000000D+00  0.0000000000000D+00
   278  2.7700000000000D+00  0.0000000000000D+00  0.0000000000000D+00
   279  2.7800000000000D+00  0.0000000000000D+00  0.0000000000000D+00
   280  2.7900000000000D+00  0.0000000000000D+00  0.0000000000000D+00
   281  2.8000000000000D+00  0.0000000000000D+00  0.0000000000000D+00
   282  2.8100000000000D+00  0.0000000000000D+00  0.0000000000000D+00
   283  2.8200000000000D+00  0.0000000000000D+00  0.0000000000000D+00
   284  2.8300000000000D+00  0.0000000000000D+00  0.0000000000000D+00
   285  2.8400000000000D+00  0.0000000000000D+00  0.0000000000000D+00
   286  2.8500000000000D+00  0.0000000000000D+00  0.0000000000000D+00
   287  2.8600000000000D+00  0.0000000000000D+00  0.0000000000000D+00
   288  2.8700000000000D+00  0.0000000000000D+00  0.0000000000000D+00
   289  2.8800000000000D+00  0.0000000000000D+00  0.0000000000000D+00
   290  2.8900000000000D+00  0.0000000000000D+00  0.0000000000000D+00
   291  2.9000000000000D+00  0.0000000000000D+00  0.0000000000000D+00
   292  2.9100000000000D+00  0.0000000000000D+00  0.0000000000000D+00
   293  2.9200000000000D+00  0.0000000000000D+00  0.0000000000000D+00
   294  2.9300000000000D+00  0.0000000000000D+00  0.0000000000000D+00
   295  2.9400000000000D+00  0.0000000000000D+00  0.0000000000000D+00
   296  2.9500000000000D+00  0.0000000000000D+00  0.0000000000000D+00
   297  2.9600000000000D+00  0.0000000000000D+00  0.0000000000000D+00
   298  2.9700000000000D+00  0.0000000000000D+00  0.0000000000000D+00
   299  2.9800000000000D+00  0.0000000000000D+00  0.0000000000000D+00
   300  2.9900000000000D+00  0.0000000000000D+00  0.0000000000000D+00
   301  3.0000000000000D+00  0.0000000000000D+00  0.0000000000000D+00
   302  3.0100000000000D+00  0.0000000000000D+00  0.0000000000000D+00
   303  3.0200000000000D+00  0.0000000000000D+00  0.0000000000000D+00
   304  3.0300000000000D+00  0.0000000000000D+00  0.0000000000000D+00
   305  3.0400000000000D+00  0.0000000000000D+00  0.0000000000000D+00
   306  3.0500000000000D+00  0.0000000000000D+00  0.0000000000000D+00
   307  3.0600000000000D+00  0.0000000000000D+00  0.0000000000000D+00
   308  3.0700000000000D+00  0.0000000000000D+00  0.0000000000000D+00
   309  3.0800000000000D+00  0.0000000000000D+00  0.0000000000000D+00
   310  3.0900000000000D+00  0.0000000000000D+00  0.0000000000000D+00
   311  3.1000000000000D+00  0.0000000000000D+00  0.0000000000000D+00
   312  3.1100000000000D+00  0.0000000000000D+00  0.0000000000000D+00
   313  3.1200000000000D+00  0.0000000000000D+00  0.0000000000000D+00
   314  3.1300000000000D+00  0.0000000000000D+00  0.0000000000000D+00
   315  3.1400000000000D+00  0.0000000000000D+00  0.0000000000000D+00
   316  3.1500000000000D+00  0.0000000000000D+00  0.0000000000000D+00
   317  3.1600000000000D+00  0.0000000000000D+00  0.0000000000000D+00
   318  3.1700000000000D+00  0.0000000000000D+00  0.0000000000000D+00
   319  3.1800000000000D+00  0.0000000000000D+00  0.0000000000000D+00
   320  3.1900000000000D+00  0.0000000000000D+00  0.0000000000000D+00
   321  3.2000000000000D+00  0.0000000000000D+00  0.0000000000000D+00
   322  3.2100000000000D+00  0.0000000000000D+00  0.0000000000000D+00
   323  3.2200000000000D+00  0.0000000000000D+00  0.0000000000000D+00
   324  3.2300000000000D+00  0.0000000000000D+00  0.0000000000000D+00
   325  3.2400000000000D+00  0.0000000000000D+00  0.0000000000000D+00
   326  3.2500000000000D+00  0.0000000000000D+00  0.0000000000000D+00
   327  3.2600000000000D+00  0.0000000000000D+00  0.0000000000000D+00
   328  3.2700000000000D+00  0.0000000000000D+00  0.0000000000000D+00
   329  3.2800000000000D+00  0.0000000000000D+00  0.0000000000000D+00
   330  3.2900000000000D+00  0.0000000000000D+00  0.0000000000000D+00
   331  3.3000000000000D+00  0.0000000000000D+00  0.0000000000000D+00
   332  3.3100000000000D+00  0.0000000000000D+00  0.0000000000000D+00
   333  3.3200000000000D+00  0.0000000000000D+00  0.0000000000000D+00
   334  3.3300000000000D+00  0.0000000000000D+00  0.0000000000000D+00
   335  3.3400000000000D+00  0.0000000000000D+00  0.0000000000000D+00
   336  3.3500000000000D+00  0.0000000000000D+00  0.0000000000000D+00
   337  3.3600000000000D+00  0.0000000000000D+00  0.0000000000000D+00
   338  3.3700000000000D+00  0.0000000000000D+00  0.0000000000000D+00
   339  3.3800000000000D+00  0.0000000000000D+00  0.0000000000000D+00
   340  3.3900000000000D+00  0.0000000000000D+00  0.0000000000000D+00
   341  3.4000000000000D+00  0.0000000000000D+00  0.0000000000000D+00
   342  3.4100000000000D+00  0.0000000000000D+00  0.0000000000000D+00
   343  3.4200000000000D+00  0.0000000000000D+00  0.0000000000000D+00
   344  3.4300000000000D+00  0.0000000000000D+00  0.0000000000000D+00
   345  3.4400000000000D+00  0.0000000000000D+00  0.0000000000000D+00
   346  3.4500000000000D+00  0.0000000000000D+00  0.0000000000000D+00
   347  3.4600000000000D+00  0.0000000000000D+00  0.0000000000000D+00
   348  3.4700000000000D+00  0.0000000000000D+00  0.0000000000000D+00
   349  3.4800000000000D+00  0.0000000000000D+00  0.0000000000000D+00
   350  3.4900000000000D+00  0.0000000000000D+00  0.0000000000000D+00
   351  3.5000000000000D+00  0.0000000000000D+00  0.0000000000000D+00
   352  3.5100000000000D+00  0.0000000000000D+00  0.0000000000000D+00
   353  3.5200000000000D+00  0.0000000000000D+00  0.0000000000000D+00
   354  3.5300000000000D+00  0.0000000000000D+00  0.0000000000000D+00
   355  3.5400000000000D+00  0.0000000000000D+00  0.0000000000000D+00
   356  3.5500000000000D+00  0.0000000000000D+00  0.0000000000000D+00
   357  3.5600000000000D+00  0.0000000000000D+00  0.0000000000000D+00
   358  3.5700000000000D+00  0.0000000000000D+00  0.0000000000000D+00
   359  3.5800000000000D+00  0.0000000000000D+00  0.0000000000000D+00
   360  3.5900000000000D+00  0.0000000000000D+00  0.0000000000000D+00
   361  3.6000000000000D+00  0.0000000000000D+00  0.0000000000000D+00
   362  3.6100000000000D+00  0.0000000000000D+00  0.0000000000000D+00
   363  3.6200000000000D+00  0.0000000000000D+00  0.0000000000000D+00
   364  3.6300000000000D+00  0.0000000000000D+00  0.0000000000000D+00
   365  3.6400000000000D+00  0.0000000000000D+00  0.0000000000000D+00
   366  3.6500000000000D+00  0.0000000000000D+00  0.0000000000000D+00
   367  3.6600000000000D+00  0.0000000000000D+00  0.0000000000000D+00
   368  3.6700000000000D+00  0.0000000000000D+00  0.0000000000000D+00
   369  3.6800000000000D+00  0.0000000000000D+00  0.0000000000000D+00
   370  3.6900000000000D+00  0.0000000000000D+00  0.0000000000000D+00
   371  3.7000000000000D+00  0.0000000000000D+00  0.0000000000000D+00
   372  3.7100000000000D+00  0.0000000000000D+00  0.0000000000000D+00
   373  3.7200000000000D+00  0.0000000000000D+00  0.0000000000000D+00
   374  3.7300000000000D+00  0.0000000000000D+00  0.0000000000000D+00
   375  3.7400000000000D+00  0.0000000000000D+00  0.0000000000000D+00
   376  3.7500000000000D+00  0.0000000000000D+00  0.0000000000000D+00
   377  3.7600000000000D+00  0.0000000000000D+00  0.0000000000000D+00
   378  3.7700000000000D+00  0.0000000000000D+00  0.0000000000000D+00
   379  3.7800000000000D+00  0.0000000000000D+00  0.0000000000000D+00
   380  3.7900000000000D+00  0.0000000000000D+00  0.0000000000000D+00
   381  3.8000000000000D+00  0.0000000000000D+00  0.0000000000000D+00
   382  3.8100000000000D+00  0.0000000000000D+00  0.0000000000000D+00
   383  3.8200000000000D+00  0.0000000000000D+00  0.0000000000000D+00
   384  3.8300000000000D+00  0.0000000000000D+00  0.0000000000000D+00
   385  3.8400000000000D+00  0.0000000000000D+00  0.0000000000000D+00
   386  3.8500000000000D+00  0.0000000000000D+00  0.0000000000000D+00
   387  3.8600000000000D+00  0.0000000000000D+00  0.0000000000000D+00
   388  3.8700000000000D+00  0.0000000000000D+00  0.0000000000000D+00
   389  3.8800000000000D+00  0.0000000000000D+00  0.0000000000000D+00
   390  3.8900000000000D+00  0.0000000000000D+00  0.0000000000000D+00
   391  3.9000000000000D+00  0.0000000000000D+00  0.0000000000000D+00
   392  3.9100000000000D+00  0.0000000000000D+00  0.0000000000000D+00
   393  3.9200000000000D+00  0.0000000000000D+00  0.0000000000000D+00
   394  3.9300000000000D+00  0.0000000000000D+00  0.0000000000000D+00
   395  3.9400000000000D+00  0.0000000000000D+00  0.0000000000000D+00
   396  3.9500000000000D+00  0.0000000000000D+00  0.0000000000000D+00
   397  3.9600000000000D+00  0.0000000000000D+00  0.0000000000000D+00
   398  3.9700000000000D+00  0.0000000000000D+00  0.0000000000000D+00
   399  3.9800000000000D+00  0.0000000000000D+00  0.0000000000000D+00
   400  3.9900000000000D+00  0.0000000000000D+00  0.0000000000000D+00
   401  4.0000000000000D+00  0.0000000000000D+00  0.0000000000000D+00
   402  4.0100000000000D+00  0.0000000000000D+00  0.0000000000000D+00
   403  4.0200000000000D+00  0.0000000000000D+00  0.0000000000000D+00
   404  4.0300000000000D+00  0.0000000000000D+00  0.0000000000000D+00
   405  4.0400000000000D+00  0.0000000000000D+00  0.0000000000000D+00
   406  4.0500000000000D+00  0.0000000000000D+00  0.0000000000000D+00
   407  4.0600000000000D+00  0.0000000000000D+00  0.0000000000000D+00
   408  4.0700000000000D+00  0.0000000000000D+00  0.0000000000000D+00
   409  4.0800000000000D+00  0.0000000000000D+00  0.0000000000000D+00
   410  4.0900000000000D+00  0.0000000000000D+00  0.0000000000000D+00
   411  4.1000000000000D+00  0.0000000000000D+00  0.0000000000000D+00
   412  4.1100000000000D+00  0.0000000000000D+00  0.0000000000000D+00
   413  4.1200000000000D+00  0.0000000000000D+00  0.0000000000000D+00
   414  4.1300000000000D+00  0.0000000000000D+00  0.0000000000000D+00
   415  4.1400000000000D+00  0.0000000000000D+00  0.0000000000000D+00
   416  4.1500000000000D+00  0.0000000000000D+00  0.0000000000000D+00
   417  4.1600000000000D+00  0.0000000000000D+00  0.0000000000000D+00
   418  4.1700000000000D+00  0.0000000000000D+00  0.0000000000000D+00
   419  4.1800000000000D+00  0.0000000000000D+00  0.0000000000000D+00
   420  4.1900000000000D+00  0.0000000000000D+00  0.0000000000000D+00
   421  4.2000000000000D+00  0.0000000000000D+00  0.0000000000000D+00
   422  4.2100000000000D+00  0.0000000000000D+00  0.0000000000000D+00