Pd    ONCVPSP-3.3.1  r_core=   2.47094   2.44164   2.24604
     46.0000     18.0000      210904    zatom,zion,pspd
     8       2   2     4   600     0    pspcod,pspxc,lmax,lloc,mmax,r2well
  5.99000000  0.00000000  0.00000000    rchrg fchrg qchrg
     2     4     3     0    nproj
     3     1           extension_switch
     4     4     0    nprojso
   0                         8.4156382896548D-01  4.8077878855456D+00
     1  0.0000000000000D+00 -1.6836254612684D-12 -3.6275982218115D-12
     2  1.0000000000000D-02 -8.3053182987734D-03  5.7766960305279D-02
     3  2.0000000000000D-02 -1.6567994518825D-02  1.1544168129008D-01
     4  3.0000000000000D-02 -2.4745457412730D-02  1.7293210206491D-01
     5  4.0000000000000D-02 -3.2795277392220D-02  2.3014651822410D-01
     6  5.0000000000000D-02 -4.0675237348707D-02  2.8699375914344D-01
     7  6.0000000000000D-02 -4.8343403461769D-02  3.4338336414720D-01
     8  7.0000000000000D-02 -5.5758195989565D-02  3.9922575717183D-01
     9  8.0000000000000D-02 -6.2878460033464D-02  4.5443241955749D-01
    10  9.0000000000000D-02 -6.9663536267004D-02  5.0891606060273D-01
    11  1.0000000000000D-01 -7.6073331616720D-02  5.6259078552325D-01
    12  1.1000000000000D-01 -8.2068389879359D-02  6.1537226046169D-01
    13  1.2000000000000D-01 -8.7609962256519D-02  6.6717787420260D-01
    14  1.3000000000000D-01 -9.2660077783849D-02  7.1792689625430D-01
    15  1.4000000000000D-01 -9.7181613627595D-02  7.6754063096818D-01
    16  1.5000000000000D-01 -1.0113836521641D-01  8.1594256737496D-01
    17  1.6000000000000D-01 -1.0449511617125D-01  8.6305852442793D-01
    18  1.7000000000000D-01 -1.0721770799022D-01  9.0881679135322D-01
    19  1.8000000000000D-01 -1.0927310943940D-01  9.5314826281897D-01
    20  1.9000000000000D-01 -1.1062948559389D-01  9.9598656864695D-01
    21  2.0000000000000D-01 -1.1125626646639D-01  1.0372681978025D+00
    22  2.1000000000000D-01 -1.1112421515324D-01  1.0769326164120D+00
    23  2.2000000000000D-01 -1.1020549542019D-01  1.1149223795694D+00
    24  2.3000000000000D-01 -1.0847373864155D-01  1.1511832367097D+00
    25  2.4000000000000D-01 -1.0590410999864D-01  1.1856642303372D+00
    26  2.5000000000000D-01 -1.0247337383370D-01  1.2183177879165D+00
    27  2.6000000000000D-01 -9.8159958047162D-02  1.2490998067429D+00
    28  2.7000000000000D-01 -9.2944017416296D-02  1.2779697316301D+00
    29  2.8000000000000D-01 -8.6807495703870D-02  1.3048906252631D+00
    30  2.9000000000000D-01 -7.9734186415844D-02  1.3298292310836D+00
    31  3.0000000000000D-01 -7.1709792057168D-02  1.3527560285888D+00
    32  3.1000000000000D-01 -6.2721981725053D-02  1.3736452809404D+00
    33  3.2000000000000D-01 -5.2760446869275D-02  1.3924750747982D+00
    34  3.3000000000000D-01 -4.1816955039345D-02  1.4092273523054D+00
    35  3.4000000000000D-01 -2.9885401428904D-02  1.4238879351719D+00
    36  3.5000000000000D-01 -1.6961858018413D-02  1.4364465408159D+00
    37  3.6000000000000D-01 -3.0446201084575D-03  1.4468967905392D+00
    38  3.7000000000000D-01  1.1865749972792D-02  1.4552362097309D+00
    39  3.8000000000000D-01  2.7766382211965D-02  1.4614662201039D+00
    40  3.9000000000000D-01  4.4652061534453D-02  1.4655921239907D+00
    41  4.0000000000000D-01  6.2515193947949D-02  1.4676230807349D+00
    42  4.1000000000000D-01  8.1345776449580D-02  1.4675720752339D+00
    43  4.2000000000000D-01  1.0113137094547D-01  1.4654558787005D+00
    44  4.3000000000000D-01  1.2185708243534D-01  1.4612950017272D+00
    45  4.4000000000000D-01  1.4350554171760D-01  1.4551136397524D+00
    46  4.5000000000000D-01  1.6605689287188D-01  1.4469396110405D+00
    47  4.6000000000000D-01  1.8948878577622D-01  1.4368042873025D+00
    48  4.7000000000000D-01  2.1377637391473D-01  1.4247425170989D+00
    49  4.8000000000000D-01  2.3889231772914D-01  1.4107925421781D+00
    50  4.9000000000000D-01  2.6480679376328D-01  1.3949959069201D+00
    51  5.0000000000000D-01  2.9148750984342D-01  1.3773973610652D+00
    52  5.1000000000000D-01  3.1889972653008D-01  1.3580447559216D+00
    53  5.2000000000000D-01  3.4700628506722D-01  1.3369889342611D+00
    54  5.3000000000000D-01  3.7576764204351D-01  1.3142836141190D+00
    55  5.4000000000000D-01  4.0514191096722D-01  1.2899852667323D+00
    56  5.5000000000000D-01  4.3508491094103D-01  1.2641529888575D+00
    57  5.6000000000000D-01  4.6555022260622D-01  1.2368483697248D+00
    58  5.7000000000000D-01  4.9648925150622D-01  1.2081353528929D+00
    59  5.8000000000000D-01  5.2785129899918D-01  1.1780800932830D+00
    60  5.9000000000000D-01  5.5958364082527D-01  1.1467508096795D+00
    61  6.0000000000000D-01  5.9163161341066D-01  1.1142176329950D+00
    62  6.1000000000000D-01  6.2393870796232D-01  1.0805524506095D+00
    63  6.2000000000000D-01  6.5644667237987D-01  1.0458287470993D+00
    64  6.3000000000000D-01  6.8909562097988D-01  1.0101214416854D+00
    65  6.4000000000000D-01  7.2182415199629D-01  9.7350672273622D-01
    66  6.5000000000000D-01  7.5456947278675D-01  9.3606187966911D-01
    67  6.6000000000000D-01  7.8726753263973D-01  8.9786513260508D-01
    68  6.7000000000000D-01  8.1985316304060D-01  8.5899546013572D-01
    69  6.8000000000000D-01  8.5226022521762D-01  8.1953242557097D-01
    70  6.9000000000000D-01  8.8442176474977D-01  7.7955600204186D-01
    71  7.0000000000000D-01  9.1627017297892D-01  7.3914639683901D-01
    72  7.1000000000000D-01  9.4773735492876D-01  6.9838387537297D-01
    73  7.2000000000000D-01  9.7875490339221D-01  6.5734858514771D-01
    74  7.3000000000000D-01  1.0092542788077D+00  6.1612038014277D-01
    75  7.4000000000000D-01  1.0391669945043D+00  5.7477864600347D-01
    76  7.5000000000000D-01  1.0684248068545D+00  5.3340212644138D-01
    77  7.6000000000000D-01  1.0969599098322D+00  4.9206875124968D-01
    78  7.7000000000000D-01  1.1247051334358D+00  4.5085546633930D-01
    79  7.8000000000000D-01  1.1515941453947D+00  4.0983806620275D-01
    80  7.9000000000000D-01  1.1775616555410D+00  3.6909102921194D-01
    81  8.0000000000000D-01  1.2025436221925D+00  3.2868735615538D-01
    82  8.1000000000000D-01  1.2264774598566D+00  2.8869841241830D-01
    83  8.2000000000000D-01  1.2493022475328D+00  2.4919377420591D-01
    84  8.3000000000000D-01  1.2709589368603D+00  2.1024107920622D-01
    85  8.4000000000000D-01  1.2913905593293D+00  1.7190588208388D-01
    86  8.5000000000000D-01  1.3105424317476D+00  1.3425151519018D-01
    87  8.6000000000000D-01  1.3283623591321D+00  9.7338954867505D-02
    88  8.7000000000000D-01  1.3448008341750D+00  6.1226693717881D-02
    89  8.8000000000000D-01  1.3598112324155D+00  2.5970619196244D-02
    90  8.9000000000000D-01  1.3733500022377D+00 -8.3761011218307D-03
    91  9.0000000000000D-01  1.3853768488039D+00 -4.1763127259691D-02
    92  9.1000000000000D-01  1.3958549110252D+00 -7.4143047221192D-02
    93  9.2000000000000D-01  1.4047509306732D+00 -1.0547146972302D-01
    94  9.3000000000000D-01  1.4120354127343D+00 -1.3570710898164D-01
    95  9.4000000000000D-01  1.4176827761165D+00 -1.6481186127522D-01
    96  9.5000000000000D-01  1.4216714938302D+00 -1.9275087301807D-01
    97  9.6000000000000D-01  1.4239842217749D+00 -2.1949260010417D-01
    98  9.7000000000000D-01  1.4246079152882D+00 -2.4500885829543D-01
    99  9.8000000000000D-01  1.4235339326315D+00 -2.6927486445154D-01
   100  9.9000000000000D-01  1.4207581246187D+00 -2.9226926841980D-01
   101  1.0000000000000D+00  1.4162809096236D+00 -3.1397417542579D-01
   102  1.0100000000000D+00  1.4101073332380D+00 -3.3437515882970D-01
   103  1.0200000000000D+00  1.4022471118938D+00 -3.5346126313704D-01
   104  1.0300000000000D+00  1.3927146598064D+00 -3.7122499717872D-01
   105  1.0400000000000D+00  1.3815290986427D+00 -3.8766231739917D-01
   106  1.0500000000000D+00  1.3687142493721D+00 -4.0277260122037D-01
   107  1.0600000000000D+00  1.3542986058109D+00 -4.1655861047484D-01
   108  1.0700000000000D+00  1.3383152894307D+00 -4.2902644492850D-01
   109  1.0800000000000D+00  1.3208019850662D+00 -4.4018548594359D-01
   110  1.0900000000000D+00  1.3018008572111D+00 -4.5004833035655D-01
   111  1.1000000000000D+00  1.2813584466717D+00 -4.5863071467749D-01
   112  1.1100000000000D+00  1.2595255474064D+00 -4.6595142974446D-01
   113  1.1200000000000D+00  1.2363570634564D+00 -4.7203222599427D-01
   114  1.1300000000000D+00  1.2119118459414D+00 -4.7689770953966D-01
   115  1.1400000000000D+00  1.1862525101653D+00 -4.8057522926822D-01
   116  1.1500000000000D+00  1.1594452329590D+00 -4.8309475520968D-01
   117  1.1600000000000D+00  1.1315595304583D+00 -4.8448874844259D-01
   118  1.1700000000000D+00  1.1026680165870D+00 -4.8479202283652D-01
   119  1.1800000000000D+00  1.0728461425876D+00 -4.8404159895112D-01
   120  1.1900000000000D+00  1.0421719180259D+00 -4.8227655044062D-01
   121  1.2000000000000D+00  1.0107256137686D+00 -4.7953784333496D-01
   122  1.2100000000000D+00  9.7858944747802D-01 -4.7586816858395D-01
   123  1.2200000000000D+00  9.4584725227403D-01 -4.7131176828216D-01
   124  1.2300000000000D+00  9.1258412926317D-01 -4.6591425600696D-01
   125  1.2400000000000D+00  8.7888608469080D-01 -4.5972243171716D-01
   126  1.2500000000000D+00  8.4483965254189D-01 -4.5278409167982D-01
   127  1.2600000000000D+00  8.1053150348715D-01 -4.4514783391008D-01
   128  1.2700000000000D+00  7.7604804110201D-01 -4.3686285961551D-01
   129  1.2800000000000D+00  7.4147498634127D-01 -4.2797877115129D-01
   130  1.2900000000000D+00  7.0689695132300D-01 -4.1854536700504D-01
   131  1.3000000000000D+00  6.7239700348292D-01 -4.0861243433110D-01
   132  1.3100000000000D+00  6.3805622121095D-01 -3.9822953956465D-01
   133  1.3200000000000D+00  6.0395324213133D-01 -3.8744581764861D-01
   134  1.3300000000000D+00  5.7016380517921D-01 -3.7630976040502D-01
   135  1.3400000000000D+00  5.3676028767756D-01 -3.6486900458839D-01
   136  1.3500000000000D+00  5.0381123862447D-01 -3.5317012014545D-01
   137  1.3600000000000D+00  4.7138090940196D-01 -3.4125839921404D-01
   138  1.3700000000000D+00  4.3952878314412D-01 -3.2917764637889D-01
   139  1.3800000000000D+00  4.0830910119044D-01 -3.1696997007331D-01
   140  1.3900000000000D+00  3.7777040290925D-01 -3.0467557896160D-01
   141  1.4000000000000D+00  3.4795501776166D-01 -2.9233256966950D-01
   142  1.4100000000000D+00  3.1889875516117D-01 -2.7997676270675D-01
   143  1.4200000000000D+00  2.9063032292658D-01 -2.6764147602834D-01
   144  1.4300000000000D+00  2.6317019684986D-01 -2.5535718797057D-01
   145  1.4400000000000D+00  2.3653293242694D-01 -2.4315195220468D-01
   146  1.4500000000000D+00  2.1072929948955D-01 -2.3105180103112D-01
   147  1.4600000000000D+00  1.8576895585115D-01 -2.1908132971753D-01
   148  1.4700000000000D+00  1.6166143322323D-01 -2.0726391667927D-01
   149  1.4800000000000D+00  1.3841517677017D-01 -1.9562153575129D-01
   150  1.4900000000000D+00  1.1603750886540D-01 -1.8417475832943D-01
   151  1.5000000000000D+00  9.4537117014959D-02 -1.7294337844019D-01
   152  1.5100000000000D+00  7.3917364499605D-02 -1.6194480824363D-01
   153  1.5200000000000D+00  5.4170557313463D-02 -1.5119271504757D-01
   154  1.5300000000000D+00  3.5321323228991D-02 -1.4070754757302D-01
   155  1.5400000000000D+00  1.7421350945181D-02 -1.3051529475575D-01
   156  1.5500000000000D+00  4.5169510037326D-04 -1.2062395110322D-01
   157  1.5600000000000D+00 -1.5649350501651D-02 -1.1103022375422D-01
   158  1.5700000000000D+00 -3.0884243516611D-02 -1.0174404813954D-01
   159  1.5800000000000D+00 -4.5232541681968D-02 -9.2779906911484D-02
   160  1.5900000000000D+00 -5.8701567362236D-02 -8.4144737421090D-02
   161  1.6000000000000D+00 -7.1302484254359D-02 -7.5843685280275D-02
   162  1.6100000000000D+00 -8.3042609885303D-02 -6.7881969308575D-02
   163  1.6200000000000D+00 -9.3931470867560D-02 -6.0263462218778D-02
   164  1.6300000000000D+00 -1.0398050098895D-01 -5.2990790677333D-02
   165  1.6400000000000D+00 -1.1320247597228D-01 -4.6065499756993D-02
   166  1.6500000000000D+00 -1.2161160070998D-01 -3.9488061312203D-02
   167  1.6600000000000D+00 -1.2922347598947D-01 -3.3257911570232D-02
   168  1.6700000000000D+00 -1.3605505868698D-01 -2.7373490545200D-02
   169  1.6800000000000D+00 -1.4212461536999D-01 -2.1832283247596D-02
   170  1.6900000000000D+00 -1.4745166975551D-01 -1.6630862520726D-02
   171  1.7000000000000D+00 -1.5205694421293D-01 -1.1764933411570D-02
   172  1.7100000000000D+00 -1.5596229584713D-01 -7.2293788857833D-03
   173  1.7200000000000D+00 -1.5919064737295D-01 -3.0183067859783D-03
   174  1.7300000000000D+00 -1.6176591335603D-01  8.7490216562141D-04
   175  1.7400000000000D+00 -1.6371292207488D-01  4.4575454347797D-03
   176  1.7500000000000D+00 -1.6505733360795D-01  7.7375490158934D-03
   177  1.7600000000000D+00 -1.6582555443659D-01  1.0723417173511D-02
   178  1.7700000000000D+00 -1.6604464917807D-01  1.3424181783284D-02
   179  1.7800000000000D+00 -1.6574224978766D-01  1.5849351419320D-02
   180  1.7900000000000D+00 -1.6494646281197D-01  1.8008860366508D-02
   181  1.8000000000000D+00 -1.6368577511452D-01  1.9913017736226D-02
   182  1.8100000000000D+00 -1.6198895856477D-01  2.1572456825148D-02
   183  1.8200000000000D+00 -1.5988497422874D-01  2.2998084935400D-02
   184  1.8300000000000D+00 -1.5740287642929D-01  2.4201033752482D-02
   185  1.8400000000000D+00 -1.5457171730882D-01  2.5192610523507D-02
   186  1.8500000000000D+00 -1.5142045218141D-01  2.5984250111082D-02
   187  1.8600000000000D+00 -1.4797784630692D-01  2.6587468151597D-02
   188  1.8700000000000D+00 -1.4427238340081D-01  2.7013815413140D-02
   189  1.8800000000000D+00 -1.4033217635746D-01  2.7274833512574D-02
   190  1.8900000000000D+00 -1.3618488069120D-01  2.7382012165029D-02
   191  1.9000000000000D+00 -1.3185761082023D-01  2.7346747987633D-02
   192  1.9100000000000D+00 -1.2737686006290D-01  2.7180305168201D-02
   193  1.9200000000000D+00 -1.2276842398977D-01  2.6893777842338D-02
   194  1.9300000000000D+00 -1.1805732832944D-01  2.6498054607015D-02
   195  1.9400000000000D+00 -1.1326776086369D-01  2.6003784942789D-02
   196  1.9500000000000D+00 -1.0842300830425D-01  2.5421347890918D-02
   197  1.9600000000000D+00 -1.0354539799464D-01  2.4760822911681D-02
   198  1.9700000000000D+00 -9.8656244674438D-02  2.4031962992775D-02
   199  1.9800000000000D+00 -9.3775802976616D-02  2.3244170233037D-02
   200  1.9900000000000D+00 -8.8923224836556D-02  2.2406473592536D-02
   201  2.0000000000000D+00 -8.4116523327092D-02  2.1527509331753D-02
   202  2.0100000000000D+00 -7.9372541588354D-02  2.0615503653836D-02
   203  2.0200000000000D+00 -7.4706928042909D-02  1.9678257954160D-02
   204  2.0300000000000D+00 -7.0134117411465D-02  1.8723136492497D-02
   205  2.0400000000000D+00 -6.5667317357737D-02  1.7757056413013D-02
   206  2.0500000000000D+00 -6.1318501616986D-02  1.6786480394299D-02
   207  2.0600000000000D+00 -5.7098408191264D-02  1.5817411424116D-02
   208  2.0700000000000D+00 -5.3016544022594D-02  1.4855390170334D-02
   209  2.0800000000000D+00 -4.9081194883248D-02  1.3905494499955D-02
   210  2.0900000000000D+00 -4.5299440771722D-02  1.2972341229766D-02
   211  2.1000000000000D+00 -4.1677177079657D-02  1.2060090183235D-02
   212  2.1100000000000D+00 -3.8219140183461D-02  1.1172450081822D-02
   213  2.1200000000000D+00 -3.4928938726568D-02  1.0312686681463D-02
   214  2.1300000000000D+00 -3.1809089098745D-02  9.4836326361172D-03
   215  2.1400000000000D+00 -2.8861055387344D-02  8.6876991636270D-03
   216  2.1500000000000D+00 -2.6085293804567D-02  7.9268894971040D-03
   217  2.1600000000000D+00 -2.3481300384773D-02  7.2028137072721D-03
   218  2.1700000000000D+00 -2.1047662711810D-02  6.5167051237351D-03
   219  2.1800000000000D+00 -1.8782114542915D-02  5.8694379688291D-03
   220  2.1900000000000D+00 -1.6681593176204D-02  5.2615461344824D-03
   221  2.2000000000000D+00 -1.4742299529971D-02  4.6932430664743D-03
   222  2.2100000000000D+00 -1.2959760017468D-02  4.1644424524150D-03
   223  2.2200000000000D+00 -1.1328890250430D-02  3.6747796888592D-03
   224  2.2300000000000D+00 -9.8440600158729D-03  3.2236339360442D-03
   225  2.2400000000000D+00 -8.4991591403227D-03  2.8101506289712D-03
   226  2.2500000000000D+00 -7.2876638172723D-03  2.4332642552837D-03
   227  2.2600000000000D+00 -6.2027031349922D-03  2.0917213355193D-03
   228  2.2700000000000D+00 -5.2371253075226D-03  1.7841034062666D-03
   229  2.2800000000000D+00 -4.3835630533187D-03  1.5088497975364D-03
   230  2.2900000000000D+00 -3.6344983273156D-03  1.2642802958894D-03
   231  2.3000000000000D+00 -2.9823252571035D-03  1.0486172560329D-03
   232  2.3100000000000D+00 -2.4194112706117D-03  8.6000716337865D-04
   233  2.3200000000000D+00 -1.9381567890364D-03  6.9654178766526D-04
   234  2.3300000000000D+00 -1.5310514371938D-03  5.5627817008488D-04
   235  2.3400000000000D+00 -1.1907281281687D-03  4.3725794734262D-04
   236  2.3500000000000D+00 -9.1001437201861D-04  3.3752577183548D-04
   237  2.3600000000000D+00 -6.8197920240077D-04  2.5514624327308D-04
   238  2.3700000000000D+00 -4.9997754297682D-04  1.8822001382200D-04
   239  2.3800000000000D+00 -3.5769049340663D-04  1.3489851438989D-04
   240  2.3900000000000D+00 -2.4917849977820D-04  9.3395177657284D-05
   241  2.4000000000000D+00 -1.6885678971539D-04  6.2003562032119D-05
   242  2.4100000000000D+00 -1.1155367419893D-04  3.9104411350685D-05
   243  2.4200000000000D+00 -7.2389455034745D-05  2.3157547093949D-05
   244  2.4300000000000D+00 -4.7465244066366D-05  1.2751564754556D-05
   245  2.4400000000000D+00 -3.3286480143477D-05  6.5763882995413D-06
   246  2.4500000000000D+00 -2.7266009168069D-05  3.5142325742306D-06
   247  2.4600000000000D+00 -2.4807655429770D-05  2.2967443663228D-06
   248  2.4700000000000D+00 -2.2210320103368D-05  1.8836920894884D-06
   249  2.4800000000000D+00 -1.5673163741415D-05  1.3357472324783D-06
   250  2.4900000000000D+00 -7.5769865876989D-06  6.7211134916717D-07
   251  2.5000000000000D+00 -3.4910713391662D-07  3.2471916185565D-08
   252  2.5100000000000D+00  2.1429568980268D-06 -1.6986250222963D-07
   253  2.5200000000000D+00  1.8150836767681D-06 -1.4507474688942D-07
   254  2.5300000000000D+00  1.1080720558599D-07 -8.9421733954820D-09
   255  2.5400000000000D+00 -4.4231534818547D-07  2.9686147432322D-08
   256  2.5500000000000D+00 -4.2370050243721D-07  2.8086004324510D-08
   257  2.5600000000000D+00 -4.3741453126057D-08  2.8690226761752D-09
   258  2.5700000000000D+00  5.2570903811786D-08 -4.4656576456844D-09
   259  2.5800000000000D+00  5.5918022107998D-08 -4.7499800241621D-09
   260  2.5900000000000D+00  1.0060773952609D-08 -8.5461669603064D-10
   261  2.6000000000000D+00  0.0000000000000D+00  0.0000000000000D+00
   262  2.6100000000000D+00  0.0000000000000D+00  0.0000000000000D+00
   263  2.6200000000000D+00  0.0000000000000D+00  0.0000000000000D+00
   264  2.6300000000000D+00  0.0000000000000D+00  0.0000000000000D+00
   265  2.6400000000000D+00  0.0000000000000D+00  0.0000000000000D+00
   266  2.6500000000000D+00  0.0000000000000D+00  0.0000000000000D+00
   267  2.6600000000000D+00  0.0000000000000D+00  0.0000000000000D+00
   268  2.6700000000000D+00  0.0000000000000D+00  0.0000000000000D+00
   269  2.6800000000000D+00  0.0000000000000D+00  0.0000000000000D+00
   270  2.6900000000000D+00  0.0000000000000D+00  0.0000000000000D+00
   271  2.7000000000000D+00  0.0000000000000D+00  0.0000000000000D+00
   272  2.7100000000000D+00  0.0000000000000D+00  0.0000000000000D+00
   273  2.7200000000000D+00  0.0000000000000D+00  0.0000000000000D+00
   274  2.7300000000000D+00  0.0000000000000D+00  0.0000000000000D+00
   275  2.7400000000000D+00  0.0000000000000D+00  0.0000000000000D+00
   276  2.7500000000000D+00  0.0000000000000D+00  0.0000000000000D+00
   277  2.7600000000000D+00  0.0000000000000D+00  0.0000000000000D+00
   278  2.7700000000000D+00  0.0000000000000D+00  0.0000000000000D+00
   279  2.7800000000000D+00  0.0000000000000D+00  0.0000000000000D+00
   280  2.7900000000000D+00  0.0000000000000D+00  0.0000000000000D+00
   281  2.8000000000000D+00  0.0000000000000D+00  0.0000000000000D+00
   282  2.8100000000000D+00  0.0000000000000D+00  0.0000000000000D+00
   283  2.8200000000000D+00  0.0000000000000D+00  0.0000000000000D+00
   284  2.8300000000000D+00  0.0000000000000D+00  0.0000000000000D+00
   285  2.8400000000000D+00  0.0000000000000D+00  0.0000000000000D+00
   286  2.8500000000000D+00  0.0000000000000D+00  0.0000000000000D+00
   287  2.8600000000000D+00  0.0000000000000D+00  0.0000000000000D+00
   288  2.8700000000000D+00  0.0000000000000D+00  0.0000000000000D+00
   289  2.8800000000000D+00  0.0000000000000D+00  0.0000000000000D+00
   290  2.8900000000000D+00  0.0000000000000D+00  0.0000000000000D+00
   291  2.9000000000000D+00  0.0000000000000D+00  0.0000000000000D+00
   292  2.9100000000000D+00  0.0000000000000D+00  0.0000000000000D+00
   293  2.9200000000000D+00  0.0000000000000D+00  0.0000000000000D+00
   294  2.9300000000000D+00  0.0000000000000D+00  0.0000000000000D+00
   295  2.9400000000000D+00  0.0000000000000D+00  0.0000000000000D+00
   296  2.9500000000000D+00  0.0000000000000D+00  0.0000000000000D+00
   297  2.9600000000000D+00  0.0000000000000D+00  0.0000000000000D+00
   298  2.9700000000000D+00  0.0000000000000D+00  0.0000000000000D+00
   299  2.9800000000000D+00  0.0000000000000D+00  0.0000000000000D+00
   300  2.9900000000000D+00  0.0000000000000D+00  0.0000000000000D+00
   301  3.0000000000000D+00  0.0000000000000D+00  0.0000000000000D+00
   302  3.0100000000000D+00  0.0000000000000D+00  0.0000000000000D+00
   303  3.0200000000000D+00  0.0000000000000D+00  0.0000000000000D+00
   304  3.0300000000000D+00  0.0000000000000D+00  0.0000000000000D+00
   305  3.0400000000000D+00  0.0000000000000D+00  0.0000000000000D+00
   306  3.0500000000000D+00  0.0000000000000D+00  0.0000000000000D+00
   307  3.0600000000000D+00  0.0000000000000D+00  0.0000000000000D+00
   308  3.0700000000000D+00  0.0000000000000D+00  0.0000000000000D+00
   309  3.0800000000000D+00  0.0000000000000D+00  0.0000000000000D+00
   310  3.0900000000000D+00  0.0000000000000D+00  0.0000000000000D+00
   311  3.1000000000000D+00  0.0000000000000D+00  0.0000000000000D+00
   312  3.1100000000000D+00  0.0000000000000D+00  0.0000000000000D+00
   313  3.1200000000000D+00  0.0000000000000D+00  0.0000000000000D+00
   314  3.1300000000000D+00  0.0000000000000D+00  0.0000000000000D+00
   315  3.1400000000000D+00  0.0000000000000D+00  0.0000000000000D+00
   316  3.1500000000000D+00  0.0000000000000D+00  0.0000000000000D+00
   317  3.1600000000000D+00  0.0000000000000D+00  0.0000000000000D+00
   318  3.1700000000000D+00  0.0000000000000D+00  0.0000000000000D+00
   319  3.1800000000000D+00  0.0000000000000D+00  0.0000000000000D+00
   320  3.1900000000000D+00  0.0000000000000D+00  0.0000000000000D+00
   321  3.2000000000000D+00  0.0000000000000D+00  0.0000000000000D+00
   322  3.2100000000000D+00  0.0000000000000D+00  0.0000000000000D+00
   323  3.2200000000000D+00  0.0000000000000D+00  0.0000000000000D+00
   324  3.2300000000000D+00  0.0000000000000D+00  0.0000000000000D+00
   325  3.2400000000000D+00  0.0000000000000D+00  0.0000000000000D+00
   326  3.2500000000000D+00  0.0000000000000D+00  0.0000000000000D+00
   327  3.2600000000000D+00  0.0000000000000D+00  0.0000000000000D+00
   328  3.2700000000000D+00  0.0000000000000D+00  0.0000000000000D+00
   329  3.2800000000000D+00  0.0000000000000D+00  0.0000000000000D+00
   330  3.2900000000000D+00  0.0000000000000D+00  0.0000000000000D+00
   331  3.3000000000000D+00  0.0000000000000D+00  0.0000000000000D+00
   332  3.3100000000000D+00  0.0000000000000D+00  0.0000000000000D+00
   333  3.3200000000000D+00  0.0000000000000D+00  0.0000000000000D+00
   334  3.3300000000000D+00  0.0000000000000D+00  0.0000000000000D+00
   335  3.3400000000000D+00  0.0000000000000D+00  0.0000000000000D+00
   336  3.3500000000000D+00  0.0000000000000D+00  0.0000000000000D+00
   337  3.3600000000000D+00  0.0000000000000D+00  0.0000000000000D+00
   338  3.3700000000000D+00  0.0000000000000D+00  0.0000000000000D+00
   339  3.3800000000000D+00  0.0000000000000D+00  0.0000000000000D+00
   340  3.3900000000000D+00  0.0000000000000D+00  0.0000000000000D+00
   341  3.4000000000000D+00  0.0000000000000D+00  0.0000000000000D+00
   342  3.4100000000000D+00  0.0000000000000D+00  0.0000000000000D+00
   343  3.4200000000000D+00  0.0000000000000D+00  0.0000000000000D+00
   344  3.4300000000000D+00  0.0000000000000D+00  0.0000000000000D+00
   345  3.4400000000000D+00  0.0000000000000D+00  0.0000000000000D+00
   346  3.4500000000000D+00  0.0000000000000D+00  0.0000000000000D+00
   347  3.4600000000000D+00  0.0000000000000D+00  0.0000000000000D+00
   348  3.4700000000000D+00  0.0000000000000D+00  0.0000000000000D+00
   349  3.4800000000000D+00  0.0000000000000D+00  0.0000000000000D+00
   350  3.4900000000000D+00  0.0000000000000D+00  0.0000000000000D+00
   351  3.5000000000000D+00  0.0000000000000D+00  0.0000000000000D+00
   352  3.5100000000000D+00  0.0000000000000D+00  0.0000000000000D+00
   353  3.5200000000000D+00  0.0000000000000D+00  0.0000000000000D+00
   354  3.5300000000000D+00  0.0000000000000D+00  0.0000000000000D+00
   355  3.5400000000000D+00  0.0000000000000D+00  0.0000000000000D+00
   356  3.5500000000000D+00  0.0000000000000D+00  0.0000000000000D+00
   357  3.5600000000000D+00  0.0000000000000D+00  0.0000000000000D+00
   358  3.5700000000000D+00  0.0000000000000D+00  0.0000000000000D+00
   359  3.5800000000000D+00  0.0000000000000D+00  0.0000000000000D+00
   360  3.5900000000000D+00  0.0000000000000D+00  0.0000000000000D+00
   361  3.6000000000000D+00  0.0000000000000D+00  0.0000000000000D+00
   362  3.6100000000000D+00  0.0000000000000D+00  0.0000000000000D+00
   363  3.6200000000000D+00  0.0000000000000D+00  0.0000000000000D+00
   364  3.6300000000000D+00  0.0000000000000D+00  0.0000000000000D+00
   365  3.6400000000000D+00  0.0000000000000D+00  0.0000000000000D+00
   366  3.6500000000000D+00  0.0000000000000D+00  0.0000000000000D+00
   367  3.6600000000000D+00  0.0000000000000D+00  0.0000000000000D+00
   368  3.6700000000000D+00  0.0000000000000D+00  0.0000000000000D+00
   369  3.6800000000000D+00  0.0000000000000D+00  0.0000000000000D+00
   370  3.6900000000000D+00  0.0000000000000D+00  0.0000000000000D+00
   371  3.7000000000000D+00  0.0000000000000D+00  0.0000000000000D+00
   372  3.7100000000000D+00  0.0000000000000D+00  0.0000000000000D+00
   373  3.7200000000000D+00  0.0000000000000D+00  0.0000000000000D+00
   374  3.7300000000000D+00  0.0000000000000D+00  0.0000000000000D+00
   375  3.7400000000000D+00  0.0000000000000D+00  0.0000000000000D+00
   376  3.7500000000000D+00  0.0000000000000D+00  0.0000000000000D+00
   377  3.7600000000000D+00  0.0000000000000D+00  0.0000000000000D+00
   378  3.7700000000000D+00  0.0000000000000D+00  0.0000000000000D+00
   379  3.7800000000000D+00  0.0000000000000D+00  0.0000000000000D+00
   380  3.7900000000000D+00  0.0000000000000D+00  0.0000000000000D+00
   381  3.8000000000000D+00  0.0000000000000D+00  0.0000000000000D+00
   382  3.8100000000000D+00  0.0000000000000D+00  0.0000000000000D+00
   383  3.8200000000000D+00  0.0000000000000D+00  0.0000000000000D+00
   384  3.8300000000000D+00  0.0000000000000D+00  0.0000000000000D+00
   385  3.8400000000000D+00  0.0000000000000D+00  0.0000000000000D+00
   386  3.8500000000000D+00  0.0000000000000D+00  0.0000000000000D+00
   387  3.8600000000000D+00  0.0000000000000D+00  0.0000000000000D+00
   388  3.8700000000000D+00  0.0000000000000D+00  0.0000000000000D+00
   389  3.8800000000000D+00  0.0000000000000D+00  0.0000000000000D+00
   390  3.8900000000000D+00  0.0000000000000D+00  0.0000000000000D+00
   391  3.9000000000000D+00  0.0000000000000D+00  0.0000000000000D+00
   392  3.9100000000000D+00  0.0000000000000D+00  0.0000000000000D+00
   393  3.9200000000000D+00  0.0000000000000D+00  0.0000000000000D+00
   394  3.9300000000000D+00  0.0000000000000D+00  0.0000000000000D+00
   395  3.9400000000000D+00  0.0000000000000D+00  0.0000000000000D+00
   396  3.9500000000000D+00  0.0000000000000D+00  0.0000000000000D+00
   397  3.9600000000000D+00  0.0000000000000D+00  0.0000000000000D+00
   398  3.9700000000000D+00  0.0000000000000D+00  0.0000000000000D+00
   399  3.9800000000000D+00  0.0000000000000D+00  0.0000000000000D+00
   400  3.9900000000000D+00  0.0000000000000D+00  0.0000000000000D+00
   401  4.0000000000000D+00  0.0000000000000D+00  0.0000000000000D+00
   402  4.0100000000000D+00  0.0000000000000D+00  0.0000000000000D+00
   403  4.0200000000000D+00  0.0000000000000D+00  0.0000000000000D+00
   404  4.0300000000000D+00  0.0000000000000D+00  0.0000000000000D+00
   405  4.0400000000000D+00  0.0000000000000D+00  0.0000000000000D+00
   406  4.0500000000000D+00  0.0000000000000D+00  0.0000000000000D+00
   407  4.0600000000000D+00  0.0000000000000D+00  0.0000000000000D+00
   408  4.0700000000000D+00  0.0000000000000D+00  0.0000000000000D+00
   409  4.0800000000000D+00  0.0000000000000D+00  0.0000000000000D+00
   410  4.0900000000000D+00  0.0000000000000D+00  0.0000000000000D+00
   411  4.1000000000000D+00  0.0000000000000D+00  0.0000000000000D+00
   412  4.1100000000000D+00  0.0000000000000D+00  0.0000000000000D+00
   413  4.1200000000000D+00  0.0000000000000D+00  0.0000000000000D+00
   414  4.1300000000000D+00  0.0000000000000D+00  0.0000000000000D+00
   415  4.1400000000000D+00  0.0000000000000D+00  0.0000000000000D+00
   416  4.1500000000000D+00  0.0000000000000D+00  0.0000000000000D+00
   417  4.1600000000000D+00  0.0000000000000D+00  0.0000000000000D+00
   418  4.1700000000000D+00  0.0000000000000D+00  0.0000000000000D+00
   419  4.1800000000000D+00  0.0000000000000D+00  0.0000000000000D+00
   420  4.1900000000000D+00  0.0000000000000D+00  0.0000000000000D+00
   421  4.2000000000000D+00  0.0000000000000D+00  0.0000000000000D+00
   422  4.2100000000000D+00  0.0000000000000D+00  0.0000000000000D+00