Pt    ONCVPSP-3.3.1  r_core=   2.32041   2.32041   2.23884   3.01673
     78.0000     18.0000      210904    zatom,zion,pspd
     8       2   3     4   600     0    pspcod,pspxc,lmax,lloc,mmax,r2well
  5.99000000  0.00000000  0.00000000    rchrg fchrg qchrg
     2     4     4     3    nproj
     3     1           extension_switch
     4     4     4    nprojso
   0                         1.2613935210735D+00  6.3611115440290D+00
     1  0.0000000000000D+00 -2.0884002860377D-11  5.5042637114866D-12
     2  1.0000000000000D-02 -8.1892401232483D-03  5.8209075347372D-02
     3  2.0000000000000D-02 -1.6339528537093D-02  1.1632765093025D-01
     4  3.0000000000000D-02 -2.4411921400649D-02  1.7426536979439D-01
     5  4.0000000000000D-02 -3.2367491213971D-02  2.3193216054125D-01
     6  5.0000000000000D-02 -4.0167336492971D-02  2.8923837994237D-01
     7  6.0000000000000D-02 -4.7772593234806D-02  3.4609495535373D-01
     8  7.0000000000000D-02 -5.5144448745902D-02  4.0241352685673D-01
     9  8.0000000000000D-02 -6.2244158383865D-02  4.5810658904718D-01
    10  9.0000000000000D-02 -6.9033065738628D-02  5.1308763238660D-01
    11  1.0000000000000D-01 -7.5472626747509D-02  5.6727128402235D-01
    12  1.1000000000000D-01 -8.1524438203619D-02  6.2057344797369D-01
    13  1.2000000000000D-01 -8.7150271077444D-02  6.7291144457082D-01
    14  1.3000000000000D-01 -9.2312109027734D-02  7.2420414902256D-01
    15  1.4000000000000D-01 -9.6972192430438D-02  7.7437212897646D-01
    16  1.5000000000000D-01 -1.0109306820347D-01  8.2333778092195D-01
    17  1.6000000000000D-01 -1.0463764565108D-01  8.7102546527417D-01
    18  1.7000000000000D-01 -1.0756925849504D-01  9.1736163996160D-01
    19  1.8000000000000D-01 -1.0985173320037D-01  9.6227499232681D-01
    20  1.9000000000000D-01 -1.1144946364285D-01  1.0056965691348D+00
    21  2.0000000000000D-01 -1.1232749210261D-01  1.0475599044688D+00
    22  2.1000000000000D-01 -1.1245159650460D-01  1.0878011452791D+00
    23  2.2000000000000D-01 -1.1178838376270D-01  1.1263591743361D+00
    24  2.3000000000000D-01 -1.1030538901939D-01  1.1631757303247D+00
    25  2.4000000000000D-01 -1.0797118050934D-01  1.1981955248035D+00
    26  2.5000000000000D-01 -1.0475546971107D-01  1.2313663557412D+00
    27  2.6000000000000D-01 -1.0062922638958D-01  1.2626392173282D+00
    28  2.7000000000000D-01 -9.5564798071192D-02  1.2919684057535D+00
    29  2.8000000000000D-01 -8.9536033434265D-02  1.3193116206238D+00
    30  2.9000000000000D-01 -8.2518409042776D-02  1.3446300616980D+00
    31  3.0000000000000D-01 -7.4489158797000D-02  1.3678885205983D+00
    32  3.1000000000000D-01 -6.5427405425682D-02  1.3890554671576D+00
    33  3.2000000000000D-01 -5.5314293298085D-02  1.4081031300569D+00
    34  3.3000000000000D-01 -4.4133121792269D-02  1.4250075714060D+00
    35  3.4000000000000D-01 -3.1869478418578D-02  1.4397487549185D+00
    36  3.5000000000000D-01 -1.8511370864340D-02  1.4523106073373D+00
    37  3.6000000000000D-01 -4.0493570981854D-03  1.4626810727670D+00
    38  3.7000000000000D-01  1.1523327350267D-02  1.4708521595787D+00
    39  3.8000000000000D-01  2.8210645836399D-02  1.4768199795590D+00
    40  3.9000000000000D-01  4.6013641684741D-02  1.4805847789866D+00
    41  4.0000000000000D-01  6.4930324829123D-02  1.4821509613307D+00
    42  4.1000000000000D-01  8.4955564926028D-02  1.4815271012836D+00
    43  4.2000000000000D-01  1.0608099185191D-01  1.4787259498525D+00
    44  4.3000000000000D-01  1.2829490448221D-01  1.4737644302597D+00
    45  4.4000000000000D-01  1.5158218863136D-01  1.4666636244167D+00
    46  4.5000000000000D-01  1.7592424500745D-01  1.4574487497668D+00
    47  4.6000000000000D-01  2.0129892800502D-01  1.4461491263113D+00
    48  4.7000000000000D-01  2.2768049612171D-01  1.4327981336662D+00
    49  4.8000000000000D-01  2.5503957474256D-01  1.4174331580231D+00
    50  4.9000000000000D-01  2.8334313198660D-01  1.4000955289212D+00
    51  5.0000000000000D-01  3.1255446825752D-01  1.3808304457686D+00
    52  5.1000000000000D-01  3.4263322008060D-01  1.3596868940882D+00
    53  5.2000000000000D-01  3.7353537874495D-01  1.3367175514965D+00
    54  5.3000000000000D-01  4.0521332420152D-01  1.3119786834626D+00
    55  5.4000000000000D-01  4.3761587459504D-01  1.2855300289338D+00
    56  5.5000000000000D-01  4.7068835173198D-01  1.2574346759503D+00
    57  5.6000000000000D-01  5.0437266270662D-01  1.2277589274154D+00
    58  5.7000000000000D-01  5.3860739782525D-01  1.1965721572240D+00
    59  5.8000000000000D-01  5.7332794488282D-01  1.1639466569965D+00
    60  5.9000000000000D-01  6.0846661975977D-01  1.1299574737030D+00
    61  6.0000000000000D-01  6.4395281321763D-01  1.0946822385056D+00
    62  6.1000000000000D-01  6.7971315368242D-01  1.0582009871859D+00
    63  6.2000000000000D-01  7.1567168571458D-01  1.0205959725636D+00
    64  6.3000000000000D-01  7.5175006377355D-01  9.8195146935463D-01
    65  6.4000000000000D-01  7.8786776079583D-01  9.4235357195025D-01
    66  6.5000000000000D-01  8.2394229101594D-01  9.0188998564016D-01
    67  6.6000000000000D-01  8.5988944637282D-01  8.6064981183468D-01
    68  6.7000000000000D-01  8.9562354575912D-01  8.1872332787667D-01
    69  6.8000000000000D-01  9.3105769628796D-01  7.7620176206500D-01
    70  6.9000000000000D-01  9.6610406567254D-01  7.3317706454162D-01
    71  7.0000000000000D-01  1.0006741647380D+00  6.8974167472166D-01
    72  7.1000000000000D-01  1.0346791390131D+00  6.4598828597139D-01
    73  7.2000000000000D-01  1.0680300682826D+00  6.0200960826164D-01
    74  7.3000000000000D-01  1.1006382729170D+00  5.5789812954384D-01
    75  7.4000000000000D-01  1.1324156257423D+00  5.1374587661337D-01
    76  7.5000000000000D-01  1.1632748681587D+00  4.6964417623844D-01
    77  7.6000000000000D-01  1.1931299291719D+00  4.2568341734394D-01
    78  7.7000000000000D-01  1.2218962459650D+00  3.8195281504719D-01
    79  7.8000000000000D-01  1.2494910846017D+00  3.3854017734684D-01
    80  7.9000000000000D-01  1.2758338594324D+00  2.9553167526715D-01
    81  8.0000000000000D-01  1.3008464497495D+00  2.5301161725714D-01
    82  8.1000000000000D-01  1.3244535122352D+00  2.1106222863846D-01
    83  8.2000000000000D-01  1.3465827877347D+00  1.6976343688582D-01
    84  8.3000000000000D-01  1.3671654008954D+00  1.2919266351133D-01
    85  8.4000000000000D-01  1.3861361512247D+00  8.9424623307037D-02
    86  8.5000000000000D-01  1.4034337941347D+00  5.0531131680614D-02
    87  8.6000000000000D-01  1.4190013105716D+00  1.2580920795367D-02
    88  8.7000000000000D-01  1.4327861638606D+00 -2.4360534800579D-02
    89  8.8000000000000D-01  1.4447405424372D+00 -6.0231182400991D-02
    90  8.9000000000000D-01  1.4548215871845D+00 -9.4972544602020D-02
    91  9.0000000000000D-01  1.4629916021525D+00 -1.2852986141026D-01
    92  9.1000000000000D-01  1.4692182474928D+00 -1.6085222045075D-01
    93  9.2000000000000D-01  1.4734747135153D+00 -1.9189267476862D-01
    94  9.3000000000000D-01  1.4757398748423D+00 -2.2160834776185D-01
    95  9.4000000000000D-01  1.4759984237174D+00 -2.4996052482850D-01
    96  9.5000000000000D-01  1.4742409816111D+00 -2.7691473136013D-01
    97  9.6000000000000D-01  1.4704641883508D+00 -3.0244079676257D-01
    98  9.7000000000000D-01  1.4646707681021D+00 -3.2651290423718D-01
    99  9.8000000000000D-01  1.4568695716194D+00 -3.4910962610895D-01
   100  9.9000000000000D-01  1.4470755942880D+00 -3.7021394453997D-01
   101  1.0000000000000D+00  1.4353099695813D+00 -3.8981325752436D-01
   102  1.0100000000000D+00  1.4215999376635D+00 -4.0789937011412D-01
   103  1.0200000000000D+00  1.4059787889729D+00 -4.2446847088202D-01
   104  1.0300000000000D+00  1.3884857827306D+00 -4.3952109368321D-01
   105  1.0400000000000D+00  1.3691660404281D+00 -4.5306206483357D-01
   106  1.0500000000000D+00  1.3480704144530D+00 -4.6510043587680D-01
   107  1.0600000000000D+00  1.3252553321211D+00 -4.7564940216658D-01
   108  1.0700000000000D+00  1.3007826154904D+00 -4.8472620754561D-01
   109  1.0800000000000D+00  1.2747192774354D+00 -4.9235203545260D-01
   110  1.0900000000000D+00  1.2471372945633D+00 -4.9855188684181D-01
   111  1.1000000000000D+00  1.2181133576501D+00 -5.0335444534499D-01
   112  1.1100000000000D+00  1.1877286003705D+00 -5.0679193015426D-01
   113  1.1200000000000D+00  1.1560683071908D+00 -5.0889993715023D-01
   114  1.1300000000000D+00  1.1232216013769D+00 -5.0971726883943D-01
   115  1.1400000000000D+00  1.0892811141531D+00 -5.0928575370628D-01
   116  1.1500000000000D+00  1.0543426361177D+00 -5.0765005561676D-01
   117  1.1600000000000D+00  1.0185047521038D+00 -5.0485747395226D-01
   118  1.1700000000000D+00  9.8186846073101D-01 -5.0095773517663D-01
   119  1.1800000000000D+00  9.4453677994872D-01 -4.9600277656647D-01
   120  1.1900000000000D+00  9.0661433992657D-01 -4.9004652285959D-01
   121  1.2000000000000D+00  8.6820696469527D-01 -4.8314465659795D-01
   122  1.2100000000000D+00  8.2942124397388D-01 -4.7535438295569D-01
   123  1.2200000000000D+00  7.9036409664211D-01 -4.6673418985297D-01
   124  1.2300000000000D+00  7.5114232735497D-01 -4.5734360417229D-01
   125  1.2400000000000D+00  7.1186217779608D-01 -4.4724294489186D-01
   126  1.2500000000000D+00  6.7262887407754D-01 -4.3649307395511D-01
   127  1.2600000000000D+00  6.3354617179964D-01 -4.2515514569533D-01
   128  1.2700000000000D+00  5.9471590026171D-01 -4.1329035562157D-01
   129  1.2800000000000D+00  5.5623750731081D-01 -4.0095968936878D-01
   130  1.2900000000000D+00  5.1820760629609D-01 -3.8822367260332D-01
   131  1.3000000000000D+00  4.8071952653838D-01 -3.7514212264407D-01
   132  1.3100000000000D+00  4.4386286872539D-01 -3.6177390255941D-01
   133  1.3200000000000D+00  4.0772306658574D-01 -3.4817667846937D-01
   134  1.3300000000000D+00  3.7238095610104D-01 -3.3440668073408D-01
   135  1.3400000000000D+00  3.3791235355389D-01 -3.2051846972878D-01
   136  1.3500000000000D+00  3.0438764356378D-01 -3.0656470683050D-01
   137  1.3600000000000D+00  2.7187137818565D-01 -2.9259593120199D-01
   138  1.3700000000000D+00  2.4042188821694D-01 -2.7866034299452D-01
   139  1.3800000000000D+00  2.1009090756492D-01 -2.6480359344111D-01
   140  1.3900000000000D+00  1.8092321100660D-01 -2.5106858218611D-01
   141  1.4000000000000D+00  1.5295626548964D-01 -2.3749526212203D-01
   142  1.4100000000000D+00  1.2621989530980D-01 -2.2412045174814D-01
   143  1.4200000000000D+00  1.0073601653685D-01 -2.1097767244491D-01
   144  1.4300000000000D+00  7.6518398297025D-02 -1.9809699508403D-01
   145  1.4400000000000D+00  5.3571671645216D-02 -1.8550468038141D-01
   146  1.4500000000000D+00  3.1892731579512D-02 -1.7322350029953D-01
   147  1.4600000000000D+00  1.1472846659806D-02 -1.6127326297172D-01
   148  1.4700000000000D+00 -7.7001927500271D-03 -1.4967142051113D-01
   149  1.4800000000000D+00 -2.5640337407493D-02 -1.3843356881479D-01
   150  1.4900000000000D+00 -4.2363920900733D-02 -1.2757329615742D-01
   151  1.5000000000000D+00 -5.7889595424747D-02 -1.1710223127916D-01
   152  1.5100000000000D+00 -7.2238166256658D-02 -1.0703011695257D-01
   153  1.5200000000000D+00 -8.5432539194149D-02 -9.7364856266748D-02
   154  1.5300000000000D+00 -9.7497657981080D-02 -8.8112561556229D-02
   155  1.5400000000000D+00 -1.0846037761204D-01 -7.9277625080991D-02
   156  1.5500000000000D+00 -1.1834857710708D-01 -7.0863029400014D-02
   157  1.5600000000000D+00 -1.2719345945395D-01 -6.2869658326154D-02
   158  1.5700000000000D+00 -1.3503060706476D-01 -5.5296002851601D-02
   159  1.5800000000000D+00 -1.4188729187401D-01 -4.8142164936521D-02
   160  1.5900000000000D+00 -1.4778293175425D-01 -4.1409754591402D-02
   161  1.6000000000000D+00 -1.5275178192790D-01 -3.5094876572512D-02
   162  1.6100000000000D+00 -1.5684140383676D-01 -2.9188624265055D-02
   163  1.6200000000000D+00 -1.6009652964730D-01 -2.3682064950304D-02
   164  1.6300000000000D+00 -1.6255909500385D-01 -1.8566285328014D-02
   165  1.6400000000000D+00 -1.6426935837075D-01 -1.3832141905164D-02
   166  1.6500000000000D+00 -1.6526623898940D-01 -9.4701845184891D-03
   167  1.6600000000000D+00 -1.6559000323570D-01 -5.4698448825457D-03
   168  1.6700000000000D+00 -1.6528158055356D-01 -1.8196922918053D-03
   169  1.6800000000000D+00 -1.6438170359550D-01  1.4922606484601D-03
   170  1.6900000000000D+00 -1.6293108866647D-01  4.4785770022020D-03
   171  1.7000000000000D+00 -1.6097031528563D-01  7.1523208547581D-03
   172  1.7100000000000D+00 -1.5853967771256D-01  9.5269743792566D-03
   173  1.7200000000000D+00 -1.5567905818182D-01  1.1616362128712D-02
   174  1.7300000000000D+00 -1.5242780434992D-01  1.3434577237910D-02
   175  1.7400000000000D+00 -1.4882461108131D-01  1.4995909598732D-02
   176  1.7500000000000D+00 -1.4490740745790D-01  1.6314776409410D-02
   177  1.7600000000000D+00 -1.4071324901552D-01  1.7405655111789D-02
   178  1.7700000000000D+00 -1.3627821602959D-01  1.8283019089361D-02
   179  1.7800000000000D+00 -1.3163731782641D-01  1.8961276127903D-02
   180  1.7900000000000D+00 -1.2682440379953D-01  1.9454709948624D-02
   181  1.8000000000000D+00 -1.2187208115601D-01  1.9777424837173D-02
   182  1.8100000000000D+00 -1.1681163982557D-01  1.9943293570390D-02
   183  1.8200000000000D+00 -1.1167298471105D-01  1.9965908731450D-02
   184  1.8300000000000D+00 -1.0648457534969D-01  1.9858537456153D-02
   185  1.8400000000000D+00 -1.0127337343791D-01  1.9634079820648D-02
   186  1.8500000000000D+00 -9.6064797799491D-02  1.9305030699599D-02
   187  1.8600000000000D+00 -9.0882687625929D-02  1.8883445470122D-02
   188  1.8700000000000D+00 -8.5749273012185D-02  1.8380909146053D-02
   189  1.8800000000000D+00 -8.0685153966801D-02  1.7808509471090D-02
   190  1.8900000000000D+00 -7.5709286624836D-02  1.7176813426620D-02
   191  1.9000000000000D+00 -7.0838977657767D-02  1.6495847602184D-02
   192  1.9100000000000D+00 -6.6089885941241D-02  1.5775082029120D-02
   193  1.9200000000000D+00 -6.1476031801584D-02  1.5023417631361D-02
   194  1.9300000000000D+00 -5.7009813533964D-02  1.4249177170848D-02
   195  1.9400000000000D+00 -5.2702030693244D-02  1.3460099480640D-02
   196  1.9500000000000D+00 -4.8561914552078D-02  1.2663337172442D-02
   197  1.9600000000000D+00 -4.4597164464227D-02  1.1865457274487D-02
   198  1.9700000000000D+00 -4.0813990945414D-02  1.1072445173304D-02
   199  1.9800000000000D+00 -3.7217164083085D-02  1.0289711256372D-02
   200  1.9900000000000D+00 -3.3810067636351D-02  9.5221004314076D-03
   201  2.0000000000000D+00 -3.0594758118598D-02  8.7739042206541D-03
   202  2.0100000000000D+00 -2.7572028363136D-02  8.0488752218924D-03
   203  2.0200000000000D+00 -2.4741475542958D-02  7.3502439407680D-03
   204  2.0300000000000D+00 -2.2101572618661D-02  6.6807375439084D-03
   205  2.0400000000000D+00 -1.9649743334962D-02  6.0426006120266D-03
   206  2.0500000000000D+00 -1.7382439871822D-02  5.4376174961369D-03
   207  2.0600000000000D+00 -1.5295222852290D-02  4.8671361657614D-03
   208  2.0700000000000D+00 -1.3382843223799D-02  4.3320933480128D-03
   209  2.0800000000000D+00 -1.1639325469707D-02  3.8330407139912D-03
   210  2.0900000000000D+00 -1.0058051631801D-02  3.3701719198216D-03
   211  2.1000000000000D+00 -8.6318458016404D-03  2.9433503307372D-03
   212  2.1100000000000D+00 -7.3530583984942D-03  2.5521371591868D-03
   213  2.1200000000000D+00 -6.2136498036117D-03  2.1958198302885D-03
   214  2.1300000000000D+00 -5.2052731896719D-03  1.8734404929518D-03
   215  2.1400000000000D+00 -4.3193553520778D-03  1.5838241968395D-03
   216  2.1500000000000D+00 -3.5471760269970D-03  1.3256069096945D-03
   217  2.1600000000000D+00 -2.8799445454953D-03  1.0972629059346D-03
   218  2.1700000000000D+00 -2.3088734545265D-03  8.9713136588583D-04
   219  2.1800000000000D+00 -1.8252496434737D-03  7.2344239244773D-04
   220  2.1900000000000D+00 -1.4205008529504D-03  5.7434157579846D-04
   221  2.2000000000000D+00 -1.0862590095056D-03  4.4791368190346D-04
   222  2.2100000000000D+00 -8.1441915815334D-04  3.4220495631428D-04
   223  2.2200000000000D+00 -5.9719320423759D-04  2.5524371184497D-04
   224  2.2300000000000D+00 -4.2715991752143D-04  1.8505978613862D-04
   225  2.2400000000000D+00 -2.9731330498843D-04  1.2970148279917D-04
   226  2.2500000000000D+00 -2.0111319472887D-04  8.7250218639482D-05
   227  2.2600000000000D+00 -1.3241841611402D-04  5.5843444733146D-05
   228  2.2700000000000D+00 -8.5512795608800D-05  3.3655989359344D-05
   229  2.2800000000000D+00 -5.5515846237236D-05  1.8959009659822D-05
   230  2.2900000000000D+00 -3.8456241784682D-05  1.0138025248964D-05
   231  2.3000000000000D+00 -3.1189458262280D-05  5.7551793738906D-06
   232  2.3100000000000D+00 -2.8418858725312D-05  4.0297419404933D-06
   233  2.3200000000000D+00 -2.5235150446791D-05  3.3451409288849D-06
   234  2.3300000000000D+00 -1.6903387080213D-05  2.2351144227163D-06
   235  2.3400000000000D+00 -7.0142717503699D-06  9.5083772090538D-07
   236  2.3500000000000D+00  7.3940857082263D-07 -9.2202482357494D-08
   237  2.3600000000000D+00  2.6083814815802D-06 -3.2561890004623D-07
   238  2.3700000000000D+00  1.4331798423946D-06 -1.7957137081602D-07
   239  2.3800000000000D+00 -2.6266125934177D-07  3.0167553034234D-08
   240  2.3900000000000D+00 -5.6863523540765D-07  6.4745197997780D-08
   241  2.4000000000000D+00 -2.6724833458517D-07  3.0210158542821D-08
   242  2.4100000000000D+00  4.1391056609785D-08 -5.4885930240071D-09
   243  2.4200000000000D+00  7.0158154882956D-08 -9.3032068037803D-09
   244  2.4300000000000D+00  2.6977750271162D-08 -3.5773402292587D-09
   245  2.4400000000000D+00  0.0000000000000D+00  0.0000000000000D+00
   246  2.4500000000000D+00  0.0000000000000D+00  0.0000000000000D+00
   247  2.4600000000000D+00  0.0000000000000D+00  0.0000000000000D+00
   248  2.4700000000000D+00  0.0000000000000D+00  0.0000000000000D+00
   249  2.4800000000000D+00  0.0000000000000D+00  0.0000000000000D+00
   250  2.4900000000000D+00  0.0000000000000D+00  0.0000000000000D+00
   251  2.5000000000000D+00  0.0000000000000D+00  0.0000000000000D+00
   252  2.5100000000000D+00  0.0000000000000D+00  0.0000000000000D+00
   253  2.5200000000000D+00  0.0000000000000D+00  0.0000000000000D+00
   254  2.5300000000000D+00  0.0000000000000D+00  0.0000000000000D+00
   255  2.5400000000000D+00  0.0000000000000D+00  0.0000000000000D+00
   256  2.5500000000000D+00  0.0000000000000D+00  0.0000000000000D+00
   257  2.5600000000000D+00  0.0000000000000D+00  0.0000000000000D+00
   258  2.5700000000000D+00  0.0000000000000D+00  0.0000000000000D+00
   259  2.5800000000000D+00  0.0000000000000D+00  0.0000000000000D+00
   260  2.5900000000000D+00  0.0000000000000D+00  0.0000000000000D+00
   261  2.6000000000000D+00  0.0000000000000D+00  0.0000000000000D+00
   262  2.6100000000000D+00  0.0000000000000D+00  0.0000000000000D+00
   263  2.6200000000000D+00  0.0000000000000D+00  0.0000000000000D+00
   264  2.6300000000000D+00  0.0000000000000D+00  0.0000000000000D+00
   265  2.6400000000000D+00  0.0000000000000D+00  0.0000000000000D+00
   266  2.6500000000000D+00  0.0000000000000D+00  0.0000000000000D+00
   267  2.6600000000000D+00  0.0000000000000D+00  0.0000000000000D+00
   268  2.6700000000000D+00  0.0000000000000D+00  0.0000000000000D+00
   269  2.6800000000000D+00  0.0000000000000D+00  0.0000000000000D+00
   270  2.6900000000000D+00  0.0000000000000D+00  0.0000000000000D+00
   271  2.7000000000000D+00  0.0000000000000D+00  0.0000000000000D+00
   272  2.7100000000000D+00  0.0000000000000D+00  0.0000000000000D+00
   273  2.7200000000000D+00  0.0000000000000D+00  0.0000000000000D+00
   274  2.7300000000000D+00  0.0000000000000D+00  0.0000000000000D+00
   275  2.7400000000000D+00  0.0000000000000D+00  0.0000000000000D+00
   276  2.7500000000000D+00  0.0000000000000D+00  0.0000000000000D+00
   277  2.7600000000000D+00  0.0000000000000D+00  0.0000000000000D+00
   278  2.7700000000000D+00  0.0000000000000D+00  0.0000000000000D+00
   279  2.7800000000000D+00  0.0000000000000D+00  0.0000000000000D+00
   280  2.7900000000000D+00  0.0000000000000D+00  0.0000000000000D+00
   281  2.8000000000000D+00  0.0000000000000D+00  0.0000000000000D+00
   282  2.8100000000000D+00  0.0000000000000D+00  0.0000000000000D+00
   283  2.8200000000000D+00  0.0000000000000D+00  0.0000000000000D+00
   284  2.8300000000000D+00  0.0000000000000D+00  0.0000000000000D+00
   285  2.8400000000000D+00  0.0000000000000D+00  0.0000000000000D+00
   286  2.8500000000000D+00  0.0000000000000D+00  0.0000000000000D+00
   287  2.8600000000000D+00  0.0000000000000D+00  0.0000000000000D+00
   288  2.8700000000000D+00  0.0000000000000D+00  0.0000000000000D+00
   289  2.8800000000000D+00  0.0000000000000D+00  0.0000000000000D+00
   290  2.8900000000000D+00  0.0000000000000D+00  0.0000000000000D+00
   291  2.9000000000000D+00  0.0000000000000D+00  0.0000000000000D+00
   292  2.9100000000000D+00  0.0000000000000D+00  0.0000000000000D+00
   293  2.9200000000000D+00  0.0000000000000D+00  0.0000000000000D+00
   294  2.9300000000000D+00  0.0000000000000D+00  0.0000000000000D+00
   295  2.9400000000000D+00  0.0000000000000D+00  0.0000000000000D+00
   296  2.9500000000000D+00  0.0000000000000D+00  0.0000000000000D+00
   297  2.9600000000000D+00  0.0000000000000D+00  0.0000000000000D+00
   298  2.9700000000000D+00  0.0000000000000D+00  0.0000000000000D+00
   299  2.9800000000000D+00  0.0000000000000D+00  0.0000000000000D+00
   300  2.9900000000000D+00  0.0000000000000D+00  0.0000000000000D+00
   301  3.0000000000000D+00  0.0000000000000D+00  0.0000000000000D+00
   302  3.0100000000000D+00  0.0000000000000D+00  0.0000000000000D+00
   303  3.0200000000000D+00  0.0000000000000D+00  0.0000000000000D+00
   304  3.0300000000000D+00  0.0000000000000D+00  0.0000000000000D+00
   305  3.0400000000000D+00  0.0000000000000D+00  0.0000000000000D+00
   306  3.0500000000000D+00  0.0000000000000D+00  0.0000000000000D+00
   307  3.0600000000000D+00  0.0000000000000D+00  0.0000000000000D+00
   308  3.0700000000000D+00  0.0000000000000D+00  0.0000000000000D+00
   309  3.0800000000000D+00  0.0000000000000D+00  0.0000000000000D+00
   310  3.0900000000000D+00  0.0000000000000D+00  0.0000000000000D+00
   311  3.1000000000000D+00  0.0000000000000D+00  0.0000000000000D+00
   312  3.1100000000000D+00  0.0000000000000D+00  0.0000000000000D+00
   313  3.1200000000000D+00  0.0000000000000D+00  0.0000000000000D+00
   314  3.1300000000000D+00  0.0000000000000D+00  0.0000000000000D+00
   315  3.1400000000000D+00  0.0000000000000D+00  0.0000000000000D+00
   316  3.1500000000000D+00  0.0000000000000D+00  0.0000000000000D+00
   317  3.1600000000000D+00  0.0000000000000D+00  0.0000000000000D+00
   318  3.1700000000000D+00  0.0000000000000D+00  0.0000000000000D+00
   319  3.1800000000000D+00  0.0000000000000D+00  0.0000000000000D+00
   320  3.1900000000000D+00  0.0000000000000D+00  0.0000000000000D+00
   321  3.2000000000000D+00  0.0000000000000D+00  0.0000000000000D+00
   322  3.2100000000000D+00  0.0000000000000D+00  0.0000000000000D+00
   323  3.2200000000000D+00  0.0000000000000D+00  0.0000000000000D+00
   324  3.2300000000000D+00  0.0000000000000D+00  0.0000000000000D+00
   325  3.2400000000000D+00  0.0000000000000D+00  0.0000000000000D+00
   326  3.2500000000000D+00  0.0000000000000D+00  0.0000000000000D+00
   327  3.2600000000000D+00  0.0000000000000D+00  0.0000000000000D+00
   328  3.2700000000000D+00  0.0000000000000D+00  0.0000000000000D+00
   329  3.2800000000000D+00  0.0000000000000D+00  0.0000000000000D+00
   330  3.2900000000000D+00  0.0000000000000D+00  0.0000000000000D+00
   331  3.3000000000000D+00  0.0000000000000D+00  0.0000000000000D+00
   332  3.3100000000000D+00  0.0000000000000D+00  0.0000000000000D+00
   333  3.3200000000000D+00  0.0000000000000D+00  0.0000000000000D+00
   334  3.3300000000000D+00  0.0000000000000D+00  0.0000000000000D+00
   335  3.3400000000000D+00  0.0000000000000D+00  0.0000000000000D+00
   336  3.3500000000000D+00  0.0000000000000D+00  0.0000000000000D+00
   337  3.3600000000000D+00  0.0000000000000D+00  0.0000000000000D+00
   338  3.3700000000000D+00  0.0000000000000D+00  0.0000000000000D+00
   339  3.3800000000000D+00  0.0000000000000D+00  0.0000000000000D+00
   340  3.3900000000000D+00  0.0000000000000D+00  0.0000000000000D+00
   341  3.4000000000000D+00  0.0000000000000D+00  0.0000000000000D+00
   342  3.4100000000000D+00  0.0000000000000D+00  0.0000000000000D+00
   343  3.4200000000000D+00  0.0000000000000D+00  0.0000000000000D+00
   344  3.4300000000000D+00  0.0000000000000D+00  0.0000000000000D+00
   345  3.4400000000000D+00  0.0000000000000D+00  0.0000000000000D+00
   346  3.4500000000000D+00  0.0000000000000D+00  0.0000000000000D+00
   347  3.4600000000000D+00  0.0000000000000D+00  0.0000000000000D+00
   348  3.4700000000000D+00  0.0000000000000D+00  0.0000000000000D+00
   349  3.4800000000000D+00  0.0000000000000D+00  0.0000000000000D+00
   350  3.4900000000000D+00  0.0000000000000D+00  0.0000000000000D+00
   351  3.5000000000000D+00  0.0000000000000D+00  0.0000000000000D+00
   352  3.5100000000000D+00  0.0000000000000D+00  0.0000000000000D+00
   353  3.5200000000000D+00  0.0000000000000D+00  0.0000000000000D+00
   354  3.5300000000000D+00  0.0000000000000D+00  0.0000000000000D+00
   355  3.5400000000000D+00  0.0000000000000D+00  0.0000000000000D+00
   356  3.5500000000000D+00  0.0000000000000D+00  0.0000000000000D+00
   357  3.5600000000000D+00  0.0000000000000D+00  0.0000000000000D+00
   358  3.5700000000000D+00  0.0000000000000D+00  0.0000000000000D+00
   359  3.5800000000000D+00  0.0000000000000D+00  0.0000000000000D+00
   360  3.5900000000000D+00  0.0000000000000D+00  0.0000000000000D+00
   361  3.6000000000000D+00  0.0000000000000D+00  0.0000000000000D+00
   362  3.6100000000000D+00  0.0000000000000D+00  0.0000000000000D+00
   363  3.6200000000000D+00  0.0000000000000D+00  0.0000000000000D+00
   364  3.6300000000000D+00  0.0000000000000D+00  0.0000000000000D+00
   365  3.6400000000000D+00  0.0000000000000D+00  0.0000000000000D+00
   366  3.6500000000000D+00  0.0000000000000D+00  0.0000000000000D+00
   367  3.6600000000000D+00  0.0000000000000D+00  0.0000000000000D+00
   368  3.6700000000000D+00  0.0000000000000D+00  0.0000000000000D+00
   369  3.6800000000000D+00  0.0000000000000D+00  0.0000000000000D+00
   370  3.6900000000000D+00  0.0000000000000D+00  0.0000000000000D+00
   371  3.7000000000000D+00  0.0000000000000D+00  0.0000000000000D+00
   372  3.7100000000000D+00  0.0000000000000D+00  0.0000000000000D+00
   373  3.7200000000000D+00  0.0000000000000D+00  0.0000000000000D+00
   374  3.7300000000000D+00  0.0000000000000D+00  0.0000000000000D+00
   375  3.7400000000000D+00  0.0000000000000D+00  0.0000000000000D+00
   376  3.7500000000000D+00  0.0000000000000D+00  0.0000000000000D+00
   377  3.7600000000000D+00  0.0000000000000D+00  0.0000000000000D+00
   378  3.7700000000000D+00  0.0000000000000D+00  0.0000000000000D+00
   379  3.7800000000000D+00  0.0000000000000D+00  0.0000000000000D+00
   380  3.7900000000000D+00  0.0000000000000D+00  0.0000000000000D+00
   381  3.8000000000000D+00  0.0000000000000D+00  0.0000000000000D+00
   382  3.8100000000000D+00  0.0000000000000D+00  0.0000000000000D+00
   383  3.8200000000000D+00  0.0000000000000D+00  0.0000000000000D+00
   384  3.8300000000000D+00  0.0000000000000D+00  0.0000000000000D+00
   385  3.8400000000000D+00  0.0000000000000D+00  0.0000000000000D+00
   386  3.8500000000000D+00  0.0000000000000D+00  0.0000000000000D+00
   387  3.8600000000000D+00  0.0000000000000D+00  0.0000000000000D+00
   388  3.8700000000000D+00  0.0000000000000D+00  0.0000000000000D+00
   389  3.8800000000000D+00  0.0000000000000D+00  0.0000000000000D+00
   390  3.8900000000000D+00  0.0000000000000D+00  0.0000000000000D+00
   391  3.9000000000000D+00  0.0000000000000D+00  0.0000000000000D+00
   392  3.9100000000000D+00  0.0000000000000D+00  0.0000000000000D+00
   393  3.9200000000000D+00  0.0000000000000D+00  0.0000000000000D+00
   394  3.9300000000000D+00  0.0000000000000D+00  0.0000000000000D+00
   395  3.9400000000000D+00  0.0000000000000D+00  0.0000000000000D+00
   396  3.9500000000000D+00  0.0000000000000D+00  0.0000000000000D+00
   397  3.9600000000000D+00  0.0000000000000D+00  0.0000000000000D+00
   398  3.9700000000000D+00  0.0000000000000D+00  0.0000000000000D+00
   399  3.9800000000000D+00  0.0000000000000D+00  0.0000000000000D+00
   400  3.9900000000000D+00  0.0000000000000D+00  0.0000000000000D+00
   401  4.0000000000000D+00  0.0000000000000D+00  0.0000000000000D+00
   402  4.0100000000000D+00  0.0000000000000D+00  0.0000000000000D+00
   403  4.0200000000000D+00  0.0000000000000D+00  0.0000000000000D+00
   404  4.0300000000000D+00  0.0000000000000D+00  0.0000000000000D+00
   405  4.0400000000000D+00  0.0000000000000D+00  0.0000000000000D+00
   406  4.0500000000000D+00  0.0000000000000D+00  0.0000000000000D+00
   407  4.0600000000000D+00  0.0000000000000D+00  0.0000000000000D+00
   408  4.0700000000000D+00  0.0000000000000D+00  0.0000000000000D+00
   409  4.0800000000000D+00  0.0000000000000D+00  0.0000000000000D+00
   410  4.0900000000000D+00  0.0000000000000D+00  0.0000000000000D+00
   411  4.1000000000000D+00  0.0000000000000D+00  0.0000000000000D+00
   412  4.1100000000000D+00  0.0000000000000D+00  0.0000000000000D+00
   413  4.1200000000000D+00  0.0000000000000D+00  0.0000000000000D+00
   414  4.1300000000000D+00  0.0000000000000D+00  0.0000000000000D+00
   415  4.1400000000000D+00  0.0000000000000D+00  0.0000000000000D+00
   416  4.1500000000000D+00  0.0000000000000D+00  0.0000000000000D+00
   417  4.1600000000000D+00  0.0000000000000D+00  0.0000000000000D+00
   418  4.1700000000000D+00  0.0000000000000D+00  0.0000000000000D+00
   419  4.1800000000000D+00  0.0000000000000D+00  0.0000000000000D+00
   420  4.1900000000000D+00  0.0000000000000D+00  0.0000000000000D+00
   421  4.2000000000000D+00  0.0000000000000D+00  0.0000000000000D+00
   422  4.2100000000000D+00  0.0000000000000D+00  0.0000000000000D+00