Rb    ONCVPSP-3.3.1  r_core=   3.18390   3.03555   2.89411
     37.0000      9.0000      210904    zatom,zion,pspd
     8       2   2     4   600     0    pspcod,pspxc,lmax,lloc,mmax,r2well
  5.99000000  0.00000000  0.00000000    rchrg fchrg qchrg
     2     3     4     0    nproj
     3     1           extension_switch
     4     4     0    nprojso
   0                        -4.8854837067827D-02  1.3172021780873D+00
     1  0.0000000000000D+00  3.4350300381902D-13 -4.2132963784525D-14
     2  1.0000000000000D-02  1.3895798842049D-02  3.4506353749853D-02
     3  2.0000000000000D-02  2.7777386768147D-02  6.8984052666212D-02
     4  3.0000000000000D-02  4.1630567781579D-02  1.0340446957108D-01
     5  4.0000000000000D-02  5.5441175726086D-02  1.3773903257148D-01
     6  5.0000000000000D-02  6.9195089210962D-02  1.7195925263694D-01
     7  6.0000000000000D-02  8.2878246541771D-02  2.0603675109913D-01
     8  7.0000000000000D-02  9.6476660658163D-02  2.3994328704755D-01
     9  8.0000000000000D-02  1.0997643407994D-01  2.7365078459557D-01
    10  9.0000000000000D-02  1.2336377386213D-01  3.0713135999088D-01
    11  1.0000000000000D-01  1.3662500655938D-01  3.4035734854471D-01
    12  1.1000000000000D-01  1.4974659319923D-01  3.7330133135422D-01
    13  1.2000000000000D-01  1.6271514426354D-01  4.0593616179236D-01
    14  1.3000000000000D-01  1.7551743467626D-01  4.3823499174006D-01
    15  1.4000000000000D-01  1.8814041879529D-01  4.7017129753521D-01
    16  1.5000000000000D-01  2.0057124540504D-01  5.0171890561348D-01
    17  1.6000000000000D-01  2.1279727270572D-01  5.3285201781604D-01
    18  1.7000000000000D-01  2.2480608329420D-01  5.6354523633924D-01
    19  1.8000000000000D-01  2.3658549913036D-01  5.9377358830187D-01
    20  1.9000000000000D-01  2.4812359648185D-01  6.2351254990551D-01
    21  2.0000000000000D-01  2.5940872083908D-01  6.5273807016395D-01
    22  2.1000000000000D-01  2.7042950179104D-01  6.8142659417767D-01
    23  2.2000000000000D-01  2.8117486785156D-01  7.0955508592997D-01
    24  2.3000000000000D-01  2.9163406122424D-01  7.3710105058121D-01
    25  2.4000000000000D-01  3.0179665249337D-01  7.6404255623837D-01
    26  2.5000000000000D-01  3.1165255522656D-01  7.9035825517713D-01
    27  2.6000000000000D-01  3.2119204047399D-01  8.1602740449417D-01
    28  2.7000000000000D-01  3.3040575114766D-01  8.4102988616777D-01
    29  2.8000000000000D-01  3.3928471626284D-01  8.6534622650513D-01
    30  2.9000000000000D-01  3.4782036502308D-01  8.8895761495529D-01
    31  3.0000000000000D-01  3.5600454072824D-01  9.1184592226696D-01
    32  3.1000000000000D-01  3.6382951448460D-01  9.3399371797103D-01
    33  3.2000000000000D-01  3.7128799869442D-01  9.5538428716796D-01
    34  3.3000000000000D-01  3.7837316030147D-01  9.7600164660094D-01
    35  3.4000000000000D-01  3.8507863376795D-01  9.9583055999604D-01
    36  3.5000000000000D-01  3.9139853375717D-01  1.0148565526513D+00
    37  3.6000000000000D-01  3.9732746749539D-01  1.0330659252572D+00
    38  3.7000000000000D-01  4.0286054678541D-01  1.0504457669314D+00
    39  3.8000000000000D-01  4.0799339964354D-01  1.0669839674523D+00
    40  3.9000000000000D-01  4.1272218153095D-01  1.0826692286741D+00
    41  4.0000000000000D-01  4.1704358614962D-01  1.0974910751109D+00
    42  4.1000000000000D-01  4.2095485577241D-01  1.1114398636733D+00
    43  4.2000000000000D-01  4.2445379107666D-01  1.1245067925460D+00
    44  4.3000000000000D-01  4.2753876044960D-01  1.1366839091917D+00
    45  4.4000000000000D-01  4.3020870873445D-01  1.1479641174722D+00
    46  4.5000000000000D-01  4.3246316538482D-01  1.1583411838728D+00
    47  4.6000000000000D-01  4.3430225199581D-01  1.1678097428226D+00
    48  4.7000000000000D-01  4.3572668917957D-01  1.1763653010983D+00
    49  4.8000000000000D-01  4.3673780275357D-01  1.1840042413070D+00
    50  4.9000000000000D-01  4.3733752920974D-01  1.1907238244372D+00
    51  5.0000000000000D-01  4.3752842043316D-01  1.1965221914732D+00
    52  5.1000000000000D-01  4.3731364763933D-01  1.2013983640677D+00
    53  5.2000000000000D-01  4.3669700449961D-01  1.2053522442671D+00
    54  5.3000000000000D-01  4.3568290942531D-01  1.2083846132869D+00
    55  5.4000000000000D-01  4.3427640698118D-01  1.2104971293347D+00
    56  5.5000000000000D-01  4.3248316840071D-01  1.2116923244792D+00
    57  5.6000000000000D-01  4.3030949117603D-01  1.2119736005657D+00
    58  5.7000000000000D-01  4.2776229769695D-01  1.2113452241781D+00
    59  5.8000000000000D-01  4.2484913291441D-01  1.2098123206505D+00
    60  5.9000000000000D-01  4.2157816100543D-01  1.2073808671305D+00
    61  6.0000000000000D-01  4.1795816101826D-01  1.2040576847001D+00
    62  6.1000000000000D-01  4.1399852147748D-01  1.1998504295578D+00
    63  6.2000000000000D-01  4.0970923393136D-01  1.1947675832704D+00
    64  6.3000000000000D-01  4.0510088542508D-01  1.1888184421015D+00
    65  6.4000000000000D-01  4.0018464988562D-01  1.1820131054262D+00
    66  6.5000000000000D-01  3.9497227840635D-01  1.1743624632419D+00
    67  6.6000000000000D-01  3.8947608842103D-01  1.1658781827872D+00
    68  6.7000000000000D-01  3.8370895176013D-01  1.1565726942820D+00
    69  6.8000000000000D-01  3.7768428158357D-01  1.1464591758016D+00
    70  6.9000000000000D-01  3.7141601818757D-01  1.1355515373012D+00
    71  7.0000000000000D-01  3.6491861368508D-01  1.1238644038070D+00
    72  7.1000000000000D-01  3.5820701556216D-01  1.1114130977907D+00
    73  7.2000000000000D-01  3.5129664911530D-01  1.0982136207473D+00
    74  7.3000000000000D-01  3.4420339877761D-01  1.0842826339959D+00
    75  7.4000000000000D-01  3.3694358834398D-01  1.0696374387237D+00
    76  7.5000000000000D-01  3.2953396010919D-01  1.0542959552976D+00
    77  7.6000000000000D-01  3.2199165293446D-01  1.0382767018644D+00
    78  7.7000000000000D-01  3.1433417926224D-01  1.0215987722667D+00
    79  7.8000000000000D-01  3.0657940110078D-01  1.0042818132979D+00
    80  7.9000000000000D-01  2.9874550500373D-01  9.8634600132479D-01
    81  8.0000000000000D-01  2.9085097607247D-01  9.6781201830456D-01
    82  8.1000000000000D-01  2.8291457101204D-01  9.4870102722591D-01
    83  8.2000000000000D-01  2.7495529027454D-01  9.2903464700303D-01
    84  8.3000000000000D-01  2.6699234932625D-01  9.0883492685420D-01
    85  8.4000000000000D-01  2.5904514907829D-01  8.8812432019615D-01
    86  8.5000000000000D-01  2.5113324552287D-01  8.6692565808697D-01
    87  8.6000000000000D-01  2.4327631862019D-01  8.4526212225092D-01
    88  8.7000000000000D-01  2.3549414048373D-01  8.2315721771932D-01
    89  8.8000000000000D-01  2.2780654291428D-01  8.0063474512259D-01
    90  8.9000000000000D-01  2.2023338433558D-01  7.7771877266884D-01
    91  9.0000000000000D-01  2.1279451618691D-01  7.5443360784565D-01
    92  9.1000000000000D-01  2.0550974883055D-01  7.3080376888158D-01
    93  9.2000000000000D-01  1.9839881703367D-01  7.0685395600513D-01
    94  9.3000000000000D-01  1.9148134508736D-01  6.8260902253899D-01
    95  9.4000000000000D-01  1.8477681162646D-01  6.5809394586785D-01
    96  9.5000000000000D-01  1.7830451421662D-01  6.3333379831866D-01
    97  9.6000000000000D-01  1.7208353377608D-01  6.0835371799233D-01
    98  9.7000000000000D-01  1.6613269890203D-01  5.8317887958616D-01
    99  9.8000000000000D-01  1.6047055017208D-01  5.5783446524656D-01
   100  9.9000000000000D-01  1.5511530449321D-01  5.3234563549160D-01
   101  1.0000000000000D+00  1.5008481957171D-01  5.0673750024319D-01
   102  1.0100000000000D+00  1.4539655857811D-01  4.8103509000847D-01
   103  1.0200000000000D+00  1.4106755508258D-01  4.5526332725012D-01
   104  1.0300000000000D+00  1.3711437833633D-01  4.2944699798499D-01
   105  1.0400000000000D+00  1.3355309897519D-01  4.0361072365035D-01
   106  1.0500000000000D+00  1.3039925522202D-01  3.7777893327682D-01
   107  1.0600000000000D+00  1.2766781966413D-01  3.5197583600652D-01
   108  1.0700000000000D+00  1.2537316668211D-01  3.2622539399474D-01
   109  1.0800000000000D+00  1.2352904060625D-01  3.0055129573303D-01
   110  1.0900000000000D+00  1.2214852467573D-01  2.7497692983062D-01
   111  1.1000000000000D+00  1.2124401087536D-01  2.4952535929115D-01
   112  1.1100000000000D+00  1.2082717072359D-01  2.2421929632031D-01
   113  1.1200000000000D+00  1.2090892708440D-01  1.9908107769977D-01
   114  1.1300000000000D+00  1.2149942707425D-01  1.7413264076171D-01
   115  1.1400000000000D+00  1.2260801613385D-01  1.4939549999741D-01
   116  1.1500000000000D+00  1.2424321333248D-01  1.2489072433242D-01
   117  1.1600000000000D+00  1.2641268797088D-01  1.0063891509991D-01
   118  1.1700000000000D+00  1.2912323754683D-01  7.6660184742655D-02
   119  1.1800000000000D+00  1.3238076714451D-01  5.2974136273014D-02
   120  1.1900000000000D+00  1.3619027030639D-01  2.9599843518929D-02
   121  1.2000000000000D+00  1.4055581144473D-01  6.5558321831190D-03
   122  1.2100000000000D+00  1.4548050984539D-01 -1.6139938259000D-02
   123  1.2200000000000D+00  1.5096652531425D-01 -3.8470091798480D-02
   124  1.2300000000000D+00  1.5701504551345D-01 -6.0417852246125D-02
   125  1.2400000000000D+00  1.6362627503167D-01 -8.1967058678146D-02
   126  1.2500000000000D+00  1.7079942622789D-01 -1.0310217995456D-01
   127  1.2600000000000D+00  1.7853271188502D-01 -1.2380832829196D-01
   128  1.2700000000000D+00  1.8682333970757D-01 -1.4407127187297D-01
   129  1.2800000000000D+00  1.9566750869069D-01 -1.6387744647788D-01
   130  1.2900000000000D+00  2.0506040738502D-01 -1.8321396612476D-01
   131  1.3000000000000D+00  2.1499621408053D-01 -2.0206863270504D-01
   132  1.3100000000000D+00  2.2546809892298D-01 -2.2042994460525D-01
   133  1.3200000000000D+00  2.3646822797544D-01 -2.3828710430614D-01
   134  1.3300000000000D+00  2.4798776923548D-01 -2.5563002495113D-01
   135  1.3400000000000D+00  2.6001690060691D-01 -2.7244933588052D-01
   136  1.3500000000000D+00  2.7254481982774D-01 -2.8873638712688D-01
   137  1.3600000000000D+00  2.8555975634928D-01 -3.0448325286967D-01
   138  1.3700000000000D+00  2.9904898515160D-01 -3.1968273385089D-01
   139  1.3800000000000D+00  3.1299884248669D-01 -3.3432835875103D-01
   140  1.3900000000000D+00  3.2739474352545D-01 -3.4841438453085D-01
   141  1.4000000000000D+00  3.4222120188388D-01 -3.6193579574415D-01
   142  1.4100000000000D+00  3.5746185100621D-01 -3.7488830282669D-01
   143  1.4200000000000D+00  3.7309946736254D-01 -3.8726833937322D-01
   144  1.4300000000000D+00  3.8911599543237D-01 -3.9907305840996D-01
   145  1.4400000000000D+00  4.0549257442733D-01 -4.1030032767656D-01
   146  1.4500000000000D+00  4.2220956670596D-01 -4.2094872393181D-01
   147  1.4600000000000D+00  4.3924658783758D-01 -4.3101752629569D-01
   148  1.4700000000000D+00  4.5658253824896D-01 -4.4050670864953D-01
   149  1.4800000000000D+00  4.7419563640893D-01 -4.4941693110770D-01
   150  1.4900000000000D+00  4.9206345347725D-01 -4.5774953058546D-01
   151  1.5000000000000D+00  5.1016294935873D-01 -4.6550651048197D-01
   152  1.5100000000000D+00  5.2847051009215D-01 -4.7269052950193D-01
   153  1.5200000000000D+00  5.4696198649628D-01 -4.7930488964244D-01
   154  1.5300000000000D+00  5.6561273400722D-01 -4.8535352336646D-01
   155  1.5400000000000D+00  5.8439765361359D-01 -4.9084097999639D-01
   156  1.5500000000000D+00  6.0329123382436D-01 -4.9577241134861D-01
   157  1.5600000000000D+00  6.2226759356850D-01 -5.0015355664593D-01
   158  1.5700000000000D+00  6.4130052595338D-01 -5.0399072673224D-01
   159  1.5800000000000D+00  6.6036354278232D-01 -5.0729078762572D-01
   160  1.5900000000000D+00  6.7942991974748D-01 -5.1006114344018D-01
   161  1.6000000000000D+00  6.9847274220088D-01 -5.1230971870963D-01
   162  1.6100000000000D+00  7.1746495141157D-01 -5.1404494015011D-01
   163  1.6200000000000D+00  7.3637939121265D-01 -5.1527571789319D-01
   164  1.6300000000000D+00  7.5518885494168D-01 -5.1601142622840D-01
   165  1.6400000000000D+00  7.7386613257747D-01 -5.1626188388899D-01
   166  1.6500000000000D+00  7.9238405797616D-01 -5.1603733392023D-01
   167  1.6600000000000D+00  8.1071555610685D-01 -5.1534842316528D-01
   168  1.6700000000000D+00  8.2883369019305D-01 -5.1420618140842D-01
   169  1.6800000000000D+00  8.4671170865604D-01 -5.1262200021219D-01
   170  1.6900000000000D+00  8.6432309177318D-01 -5.1060761148737D-01
   171  1.7000000000000D+00  8.8164159794205D-01 -5.0817506583428D-01
   172  1.7100000000000D+00  8.9864130947281D-01 -5.0533671069282D-01
   173  1.7200000000000D+00  9.1529667779485D-01 -5.0210516834147D-01
   174  1.7300000000000D+00  9.3158256801064D-01 -4.9849331378067D-01
   175  1.7400000000000D+00  9.4747430267954D-01 -4.9451425254244D-01
   176  1.7500000000000D+00  9.6294770477473D-01 -4.9018129845926D-01
   177  1.7600000000000D+00  9.7797913969648D-01 -4.8550795143507D-01
   178  1.7700000000000D+00  9.9254555629187D-01 -4.8050787524950D-01
   179  1.7800000000000D+00  1.0066245267714D+00 -4.7519487543771D-01
   180  1.7900000000000D+00  1.0201942854730D+00 -4.6958287727620D-01
   181  1.8000000000000D+00  1.0332337663820D+00 -4.6368590391422D-01
   182  1.8100000000000D+00  1.0457226393469D+00 -4.5751805468280D-01
   183  1.8200000000000D+00  1.0576413449312D+00 -4.5109348361467D-01
   184  1.8300000000000D+00  1.0689711278177D+00 -4.4442637821227D-01
   185  1.8400000000000D+00  1.0796940687542D+00 -4.3753093848604D-01
   186  1.8500000000000D+00  1.0897931149152D+00 -4.3042135631026D-01
   187  1.8600000000000D+00  1.0992521087368D+00 -4.2311179510226D-01
   188  1.8700000000000D+00  1.1080558150490D+00 -4.1561636988497D-01
   189  1.8800000000000D+00  1.1161899466174D+00 -4.0794912772421D-01
   190  1.8900000000000D+00  1.1236411879118D+00 -4.0012402860428D-01
   191  1.9000000000000D+00  1.1303972172069D+00 -3.9215492673313D-01
   192  1.9100000000000D+00  1.1364467268917D+00 -3.8405555232686D-01
   193  1.9200000000000D+00  1.1417794420267D+00 -3.7583949388153D-01
   194  1.9300000000000D+00  1.1463861371377D+00 -3.6752018095306D-01
   195  1.9400000000000D+00  1.1502586511728D+00 -3.5911086748256D-01
   196  1.9500000000000D+00  1.1533899007597D+00 -3.5062461564845D-01
   197  1.9600000000000D+00  1.1557738915725D+00 -3.4207428031515D-01
   198  1.9700000000000D+00  1.1574057280374D+00 -3.3347249403303D-01
   199  1.9800000000000D+00  1.1582816211945D+00 -3.2483165265894D-01
   200  1.9900000000000D+00  1.1583988948761D+00 -3.1616390156987D-01
   201  2.0000000000000D+00  1.1577559901770D+00 -3.0748112249517D-01
   202  2.0100000000000D+00  1.1563524681957D+00 -2.9879492099195D-01
   203  2.0200000000000D+00  1.1541890112426D+00 -2.9011661452363D-01
   204  2.0300000000000D+00  1.1512674223224D+00 -2.8145722121916D-01
   205  2.0400000000000D+00  1.1475906231876D+00 -2.7282744924047D-01
   206  2.0500000000000D+00  1.1431626508241D+00 -2.6423768682087D-01
   207  2.0600000000000D+00  1.1379886525120D+00 -2.5569799294868D-01
   208  2.0700000000000D+00  1.1320748795639D+00 -2.4721808868250D-01
   209  2.0800000000000D+00  1.1254286796568D+00 -2.3880734914715D-01
   210  2.0900000000000D+00  1.1180584880410D+00 -2.3047479613373D-01
   211  2.1000000000000D+00  1.1099738174977D+00 -2.2222909137183D-01
   212  2.1100000000000D+00  1.1011852472518D+00 -2.1407853042084D-01
   213  2.1200000000000D+00  1.0917044109146D+00 -2.0603103717643D-01
   214  2.1300000000000D+00  1.0815439834385D+00 -1.9809415902472D-01
   215  2.1400000000000D+00  1.0707176673413D+00 -1.9027506256411D-01
   216  2.1500000000000D+00  1.0592401781312D+00 -1.8258052995494D-01
   217  2.1600000000000D+00  1.0471272291219D+00 -1.7501695584042D-01
   218  2.1700000000000D+00  1.0343955157427D+00 -1.6759034482210D-01
   219  2.1800000000000D+00  1.0210626993550D+00 -1.6030630952232D-01
   220  2.1900000000000D+00  1.0071473907917D+00 -1.5317006915057D-01
   221  2.2000000000000D+00  9.9266913364148D-01 -1.4618644861198D-01
   222  2.2100000000000D+00  9.7764838740827D-01 -1.3935987812210D-01
   223  2.2200000000000D+00  9.6210651067459D-01 -1.3269439328029D-01
   224  2.2300000000000D+00  9.4606574433765D-01 -1.2619363564420D-01
   225  2.2400000000000D+00  9.2954919505054D-01 -1.1986085372359D-01
   226  2.2500000000000D+00  9.1258081896892D-01 -1.1369890440200D-01
   227  2.2600000000000D+00  8.9518540592618D-01 -1.0771025477412D-01
   228  2.2700000000000D+00  8.7738856409248D-01 -1.0189698434330D-01
   229  2.2800000000000D+00  8.5921670530140D-01 -9.6260787590361D-02
   230  2.2900000000000D+00  8.4069703111052D-01 -9.0802976874650D-02
   231  2.3000000000000D+00  8.2185751962009D-01 -8.5524485635685D-02
   232  2.3100000000000D+00  8.0272691688837D-01 -8.0425871669848D-02
   233  2.3200000000000D+00  7.8333472013815D-01 -7.5507321243616D-02
   234  2.3300000000000D+00  7.6371115019032D-01 -7.0768654201290D-02
   235  2.3400000000000D+00  7.4388723190162D-01 -6.6209322273318D-02
   236  2.3500000000000D+00  7.2389462985680D-01 -6.1828424157329D-02
   237  2.3600000000000D+00  7.0376567708060D-01 -5.7624707683474D-02
   238  2.3700000000000D+00  6.8353338226193D-01 -5.3596572190040D-02
   239  2.3800000000000D+00  6.6323196516947D-01 -4.9742041492453D-02
   240  2.3900000000000D+00  6.4289624124271D-01 -4.6058806305462D-02
   241  2.4000000000000D+00  6.2256111936439D-01 -4.2544263145998D-02
   242  2.4100000000000D+00  6.0226121271379D-01 -3.9195537751284D-02
   243  2.4200000000000D+00  5.8203044992237D-01 -3.6009526503343D-02
   244  2.4300000000000D+00  5.6190190813635D-01 -3.2982917687225D-02
   245  2.4400000000000D+00  5.4190656764680D-01 -3.0112283093454D-02
   246  2.4500000000000D+00  5.2207414261194D-01 -2.7394038134428D-02
   247  2.4600000000000D+00  5.0243281327917D-01 -2.4824472198688D-02
   248  2.4700000000000D+00  4.8300961118272D-01 -2.2399741444569D-02
   249  2.4800000000000D+00  4.6383003952988D-01 -2.0115902343972D-02
   250  2.4900000000000D+00  4.4491816923067D-01 -1.7968919501272D-02
   251  2.5000000000000D+00  4.2629668062716D-01 -1.5954675983558D-02
   252  2.5100000000000D+00  4.0798682095550D-01 -1.4068988309044D-02
   253  2.5200000000000D+00  3.9000841841991D-01 -1.2307617919496D-02
   254  2.5300000000000D+00  3.7237988675255D-01 -1.0666282981107D-02
   255  2.5400000000000D+00  3.5511823244404D-01 -9.1406697062920D-03
   256  2.5500000000000D+00  3.3823906386735D-01 -7.7264433384590D-03
   257  2.5600000000000D+00  3.2175660244509D-01 -6.4192587604012D-03
   258  2.5700000000000D+00  3.0568369649685D-01 -5.2147705879820D-03
   259  2.5800000000000D+00  2.9003183693457D-01 -4.1086429049226D-03
   260  2.5900000000000D+00  2.7481117488402D-01 -3.0965586136465D-03
   261  2.6000000000000D+00  2.6003054196967D-01 -2.1742282403425D-03
   262  2.6100000000000D+00  2.4569747236479D-01 -1.3373983668372D-03
   263  2.6200000000000D+00  2.3181822656590D-01 -5.8185968901586D-04
   264  2.6300000000000D+00  2.1839781779383D-01  9.6545498624604D-05
   265  2.6400000000000D+00  2.0544003999912D-01  7.0191618960709D-04
   266  2.6500000000000D+00  1.9294749742172D-01  1.2382859207111D-03
   267  2.6600000000000D+00  1.8092163657370D-01  1.7096165954504D-03
   268  2.6700000000000D+00  1.6936277968936D-01  2.1197926812219D-03
   269  2.6800000000000D+00  1.5827015958068D-01  2.4726157748484D-03
   270  2.6900000000000D+00  1.4764195651878D-01  2.7717996884620D-03
   271  2.7000000000000D+00  1.3747533652150D-01  3.0209659289839D-03
   272  2.7100000000000D+00  1.2776649083849D-01  3.2236395331116D-03
   273  2.7200000000000D+00  1.1851067699627D-01  3.3832453565892D-03
   274  2.7300000000000D+00  1.0970226117151D-01  3.5031047764099D-03
   275  2.7400000000000D+00  1.0133476152536D-01  3.5864327296019D-03
   276  2.7500000000000D+00  9.3400892605864D-02  3.6363351282086D-03
   277  2.7600000000000D+00  8.5892610946489D-02  3.6558067000354D-03
   278  2.7700000000000D+00  7.8801161359887D-02  3.6477291409389D-03
   279  2.7800000000000D+00  7.2117123850428D-02  3.6148695647573D-03
   280  2.7900000000000D+00  6.5830461491490D-02  3.5598793789982D-03
   281  2.8000000000000D+00  5.9930568660853D-02  3.4852934232162D-03
   282  2.8100000000000D+00  5.4406319663508D-02  3.3935293835813D-03
   283  2.8200000000000D+00  4.9246117787344D-02  3.2868875480505D-03
   284  2.8300000000000D+00  4.4437944524641D-02  3.1675508198627D-03
   285  2.8400000000000D+00  3.9969408883370D-02  3.0375849745834D-03
   286  2.8500000000000D+00  3.5827796684433D-02  2.8989391665930D-03
   287  2.8600000000000D+00  3.2000119715342D-02  2.7534466826683D-03
   288  2.8700000000000D+00  2.8473164620119D-02  2.6028258932921D-03
   289  2.8800000000000D+00  2.5233541600256D-02  2.4486813992011D-03
   290  2.8900000000000D+00  2.2267732369478D-02  2.2925053708002D-03
   291  2.9000000000000D+00  1.9562137657504D-02  2.1356790445668D-03
   292  2.9100000000000D+00  1.7103124185888D-02  1.9794743830959D-03
   293  2.9200000000000D+00  1.4877070650060D-02  1.8250558580693D-03
   294  2.9300000000000D+00  1.2870412750895D-02  1.6734823490733D-03
   295  2.9400000000000D+00  1.1069687306468D-02  1.5257091501937D-03
   296  2.9500000000000D+00  9.4615756224614D-03  1.3825901011295D-03
   297  2.9600000000000D+00  8.0329449171518D-03  1.2448797208588D-03
   298  2.9700000000000D+00  6.7708888345715D-03  1.1132354352881D-03
   299  2.9800000000000D+00  5.6627668945596D-03  9.8821988840201D-04
   300  2.9900000000000D+00  4.6962420114071D-03  8.7030323231879D-04
   301  3.0000000000000D+00  3.8593163897634D-03  7.5986542735258D-04
   302  3.0100000000000D+00  3.1403658607872D-03  6.5719855375701D-04
   303  3.0200000000000D+00  2.5281733195462D-03  5.6250921754928D-04
   304  3.0300000000000D+00  2.0119588720574D-03  4.7592074896628D-04
   305  3.0400000000000D+00  1.5814089438299D-03  3.9747546983156D-04
   306  3.0500000000000D+00  1.2267037021448D-03  3.2713694992279D-04
   307  3.0600000000000D+00  9.3854229285569D-04  2.6479218278054D-04
   308  3.0700000000000D+00  7.0816545385319D-04  2.1025362083837D-04
   309  3.0800000000000D+00  5.2746709468912D-04  1.6325214310887D-04
   310  3.0900000000000D+00  3.8871330313034D-04  1.2346908726942D-04
   311  3.1000000000000D+00  2.8481760026146D-04  9.0512163131852D-05
   312  3.1100000000000D+00  2.0928207742095D-04  6.3911156336886D-05
   313  3.1200000000000D+00  1.5586267554886D-04  4.3106364258061D-05
   314  3.1300000000000D+00  1.2061089823904D-04  2.7537604949048D-05
   315  3.1400000000000D+00  9.9389078731688D-05  1.6543987750507D-05
   316  3.1500000000000D+00  8.9342636580569D-05  9.4919807195036D-06
   317  3.1600000000000D+00  8.6747743736700D-05  5.5911207105096D-06
   318  3.1700000000000D+00  8.5064805082403D-05  3.7317330562992D-06
   319  3.1800000000000D+00  8.0171122994599D-05  3.0190835401045D-06
   320  3.1900000000000D+00  6.6440006370030D-05  2.4398313123213D-06
   321  3.2000000000000D+00  4.5686012066699D-05  1.7006558259762D-06
   322  3.2100000000000D+00  2.3326933608874D-05  9.0727082772916D-07
   323  3.2200000000000D+00  3.4922471808628D-06  1.4320597554327D-07
   324  3.2300000000000D+00 -6.1084601310338D-06 -1.8751951170920D-07
   325  3.2400000000000D+00 -8.1024885565045D-06 -2.4834517699526D-07
   326  3.2500000000000D+00 -5.3600875339281D-06 -1.6471633887392D-07
   327  3.2600000000000D+00 -3.9875491783122D-07 -1.2315747735218D-08
   328  3.2700000000000D+00  1.3614839070778D-06  3.3888913468547D-08
   329  3.2800000000000D+00  1.7833315529716D-06  4.3540464964880D-08
   330  3.2900000000000D+00  1.1768616869716D-06  2.8246983524789D-08
   331  3.3000000000000D+00 -2.0200219931080D-09 -7.5903481119189D-11
   332  3.3100000000000D+00 -1.6862901027824D-07 -6.3363314565250D-09
   333  3.3200000000000D+00 -2.1616649254314D-07 -8.1225795270203D-09
   334  3.3300000000000D+00 -1.4142890879743D-07 -5.3142720946798D-09
   335  3.3400000000000D+00  0.0000000000000D+00  0.0000000000000D+00
   336  3.3500000000000D+00  0.0000000000000D+00  0.0000000000000D+00
   337  3.3600000000000D+00  0.0000000000000D+00  0.0000000000000D+00
   338  3.3700000000000D+00  0.0000000000000D+00  0.0000000000000D+00
   339  3.3800000000000D+00  0.0000000000000D+00  0.0000000000000D+00
   340  3.3900000000000D+00  0.0000000000000D+00  0.0000000000000D+00
   341  3.4000000000000D+00  0.0000000000000D+00  0.0000000000000D+00
   342  3.4100000000000D+00  0.0000000000000D+00  0.0000000000000D+00
   343  3.4200000000000D+00  0.0000000000000D+00  0.0000000000000D+00
   344  3.4300000000000D+00  0.0000000000000D+00  0.0000000000000D+00
   345  3.4400000000000D+00  0.0000000000000D+00  0.0000000000000D+00
   346  3.4500000000000D+00  0.0000000000000D+00  0.0000000000000D+00
   347  3.4600000000000D+00  0.0000000000000D+00  0.0000000000000D+00
   348  3.4700000000000D+00  0.0000000000000D+00  0.0000000000000D+00
   349  3.4800000000000D+00  0.0000000000000D+00  0.0000000000000D+00
   350  3.4900000000000D+00  0.0000000000000D+00  0.0000000000000D+00
   351  3.5000000000000D+00  0.0000000000000D+00  0.0000000000000D+00
   352  3.5100000000000D+00  0.0000000000000D+00  0.0000000000000D+00
   353  3.5200000000000D+00  0.0000000000000D+00  0.0000000000000D+00
   354  3.5300000000000D+00  0.0000000000000D+00  0.0000000000000D+00
   355  3.5400000000000D+00  0.0000000000000D+00  0.0000000000000D+00
   356  3.5500000000000D+00  0.0000000000000D+00  0.0000000000000D+00
   357  3.5600000000000D+00  0.0000000000000D+00  0.0000000000000D+00
   358  3.5700000000000D+00  0.0000000000000D+00  0.0000000000000D+00
   359  3.5800000000000D+00  0.0000000000000D+00  0.0000000000000D+00
   360  3.5900000000000D+00  0.0000000000000D+00  0.0000000000000D+00
   361  3.6000000000000D+00  0.0000000000000D+00  0.0000000000000D+00
   362  3.6100000000000D+00  0.0000000000000D+00  0.0000000000000D+00
   363  3.6200000000000D+00  0.0000000000000D+00  0.0000000000000D+00
   364  3.6300000000000D+00  0.0000000000000D+00  0.0000000000000D+00
   365  3.6400000000000D+00  0.0000000000000D+00  0.0000000000000D+00
   366  3.6500000000000D+00  0.0000000000000D+00  0.0000000000000D+00
   367  3.6600000000000D+00  0.0000000000000D+00  0.0000000000000D+00
   368  3.6700000000000D+00  0.0000000000000D+00  0.0000000000000D+00
   369  3.6800000000000D+00  0.0000000000000D+00  0.0000000000000D+00
   370  3.6900000000000D+00  0.0000000000000D+00  0.0000000000000D+00
   371  3.7000000000000D+00  0.0000000000000D+00  0.0000000000000D+00
   372  3.7100000000000D+00  0.0000000000000D+00  0.0000000000000D+00
   373  3.7200000000000D+00  0.0000000000000D+00  0.0000000000000D+00
   374  3.7300000000000D+00  0.0000000000000D+00  0.0000000000000D+00
   375  3.7400000000000D+00  0.0000000000000D+00  0.0000000000000D+00
   376  3.7500000000000D+00  0.0000000000000D+00  0.0000000000000D+00
   377  3.7600000000000D+00  0.0000000000000D+00  0.0000000000000D+00
   378  3.7700000000000D+00  0.0000000000000D+00  0.0000000000000D+00
   379  3.7800000000000D+00  0.0000000000000D+00  0.0000000000000D+00
   380  3.7900000000000D+00  0.0000000000000D+00  0.0000000000000D+00
   381  3.8000000000000D+00  0.0000000000000D+00  0.0000000000000D+00
   382  3.8100000000000D+00  0.0000000000000D+00  0.0000000000000D+00
   383  3.8200000000000D+00  0.0000000000000D+00  0.0000000000000D+00
   384  3.8300000000000D+00  0.0000000000000D+00  0.0000000000000D+00
   385  3.8400000000000D+00  0.0000000000000D+00  0.0000000000000D+00
   386  3.8500000000000D+00  0.0000000000000D+00  0.0000000000000D+00
   387  3.8600000000000D+00  0.0000000000000D+00  0.0000000000000D+00
   388  3.8700000000000D+00  0.0000000000000D+00  0.0000000000000D+00
   389  3.8800000000000D+00  0.0000000000000D+00  0.0000000000000D+00
   390  3.8900000000000D+00  0.0000000000000D+00  0.0000000000000D+00
   391  3.9000000000000D+00  0.0000000000000D+00  0.0000000000000D+00
   392  3.9100000000000D+00  0.0000000000000D+00  0.0000000000000D+00
   393  3.9200000000000D+00  0.0000000000000D+00  0.0000000000000D+00
   394  3.9300000000000D+00  0.0000000000000D+00  0.0000000000000D+00
   395  3.9400000000000D+00  0.0000000000000D+00  0.0000000000000D+00
   396  3.9500000000000D+00  0.0000000000000D+00  0.0000000000000D+00
   397  3.9600000000000D+00  0.0000000000000D+00  0.0000000000000D+00
   398  3.9700000000000D+00  0.0000000000000D+00  0.0000000000000D+00
   399  3.9800000000000D+00  0.0000000000000D+00  0.0000000000000D+00
   400  3.9900000000000D+00  0.0000000000000D+00  0.0000000000000D+00
   401  4.0000000000000D+00  0.0000000000000D+00  0.0000000000000D+00
   402  4.0100000000000D+00  0.0000000000000D+00  0.0000000000000D+00
   403  4.0200000000000D+00  0.0000000000000D+00  0.0000000000000D+00
   404  4.0300000000000D+00  0.0000000000000D+00  0.0000000000000D+00
   405  4.0400000000000D+00  0.0000000000000D+00  0.0000000000000D+00
   406  4.0500000000000D+00  0.0000000000000D+00  0.0000000000000D+00
   407  4.0600000000000D+00  0.0000000000000D+00  0.0000000000000D+00
   408  4.0700000000000D+00  0.0000000000000D+00  0.0000000000000D+00
   409  4.0800000000000D+00  0.0000000000000D+00  0.0000000000000D+00
   410  4.0900000000000D+00  0.0000000000000D+00  0.0000000000000D+00
   411  4.1000000000000D+00  0.0000000000000D+00  0.0000000000000D+00
   412  4.1100000000000D+00  0.0000000000000D+00  0.0000000000000D+00
   413  4.1200000000000D+00  0.0000000000000D+00  0.0000000000000D+00
   414  4.1300000000000D+00  0.0000000000000D+00  0.0000000000000D+00
   415  4.1400000000000D+00  0.0000000000000D+00  0.0000000000000D+00
   416  4.1500000000000D+00  0.0000000000000D+00  0.0000000000000D+00
   417  4.1600000000000D+00  0.0000000000000D+00  0.0000000000000D+00
   418  4.1700000000000D+00  0.0000000000000D+00  0.0000000000000D+00
   419  4.1800000000000D+00  0.0000000000000D+00  0.0000000000000D+00
   420  4.1900000000000D+00  0.0000000000000D+00  0.0000000000000D+00
   421  4.2000000000000D+00  0.0000000000000D+00  0.0000000000000D+00
   422  4.2100000000000D+00  0.0000000000000D+00  0.0000000000000D+00