Ru    ONCVPSP-3.3.1  r_core=   2.58325   2.55262   2.61425
     44.0000     16.0000      210904    zatom,zion,pspd
     8       2   2     4   600     0    pspcod,pspxc,lmax,lloc,mmax,r2well
  5.99000000  0.00000000  0.00000000    rchrg fchrg qchrg
     2     4     3     0    nproj
     3     1           extension_switch
     4     4     0    nprojso
   0                         8.1074907518417D-01  4.3128530116351D+00
     1  0.0000000000000D+00 -3.5811631438065D-12 -9.1621155107191D-13
     2  1.0000000000000D-02 -6.9244662682490D-03  5.2219563824535D-02
     3  2.0000000000000D-02 -1.3818096008828D-02  1.0436693509239D-01
     4  3.0000000000000D-02 -2.0650082573227D-02  1.5637003739640D-01
     5  4.0000000000000D-02 -2.7389679187271D-02  2.0815702644600D-01
     6  5.0000000000000D-02 -3.4006229177412D-02  2.5965640566992D-01
     7  6.0000000000000D-02 -4.0469196541440D-02  3.1079714127250D-01
     8  7.0000000000000D-02 -4.6748196974202D-02  3.6150877656293D-01
     9  8.0000000000000D-02 -5.2813029455349D-02  4.1172154537703D-01
    10  9.0000000000000D-02 -5.8633708501622D-02  4.6136648441269D-01
    11  1.0000000000000D-01 -6.4180497180941D-02  5.1037554430131D-01
    12  1.1000000000000D-01 -6.9423940979342D-02  5.5868169923901D-01
    13  1.2000000000000D-01 -7.4334902604868D-02  6.0621905500342D-01
    14  1.3000000000000D-01 -7.8884597804791D-02  6.5292295518365D-01
    15  1.4000000000000D-01 -8.3044632264012D-02  6.9873008545324D-01
    16  1.5000000000000D-01 -8.6787039643229D-02  7.4357857571845D-01
    17  1.6000000000000D-01 -9.0084320805654D-02  7.8740809997673D-01
    18  1.7000000000000D-01 -9.2909484270374D-02  8.3015997372321D-01
    19  1.8000000000000D-01 -9.5236087919382D-02  8.7177724874573D-01
    20  1.9000000000000D-01 -9.7038281973565D-02  9.1220480515274D-01
    21  2.0000000000000D-01 -9.8290853240670D-02  9.5138944048122D-01
    22  2.1000000000000D-01 -9.8969270625686D-02  9.8927995573585D-01
    23  2.2000000000000D-01 -9.9049731880882D-02  1.0258272382143D+00
    24  2.3000000000000D-01 -9.8509211559422D-02  1.0609843409773D+00
    25  2.4000000000000D-01 -9.7325510122687D-02  1.0947065588274D+00
    26  2.5000000000000D-01 -9.5477304137621D-02  1.1269515006627D+00
    27  2.6000000000000D-01 -9.2944197486195D-02  1.1576791580784D+00
    28  2.7000000000000D-01 -8.9706773495052D-02  1.1868519700939D+00
    29  2.8000000000000D-01 -8.5746647879105D-02  1.2144348838848D+00
    30  2.9000000000000D-01 -8.1046522378858D-02  1.2403954114095D+00
    31  3.0000000000000D-01 -7.5590238957065D-02  1.2647036818210D+00
    32  3.1000000000000D-01 -6.9362834406648D-02  1.2873324895620D+00
    33  3.2000000000000D-01 -6.2350595208267D-02  1.3082573380473D+00
    34  3.3000000000000D-01 -5.4541112462714D-02  1.3274564788417D+00
    35  3.4000000000000D-01 -4.5923336710550D-02  1.3449109462499D+00
    36  3.5000000000000D-01 -3.6487632439336D-02  1.3606045872394D+00
    37  3.6000000000000D-01 -2.6225832066823D-02  1.3745240866244D+00
    38  3.7000000000000D-01 -1.5131289177949D-02  1.3866589874449D+00
    39  3.8000000000000D-01 -3.1989307827185D-03  1.3970017064830D+00
    40  3.9000000000000D-01  9.5746916469347D-03  1.4055475448639D+00
    41  4.0000000000000D-01  2.3191352612087D-02  1.4122946936974D+00
    42  4.1000000000000D-01  3.7651104751724D-02  1.4172442347220D+00
    43  4.2000000000000D-01  5.2952233002460D-02  1.4204001359227D+00
    44  4.3000000000000D-01  6.9091211023382D-02  1.4217692420983D+00
    45  4.4000000000000D-01  8.6062660160551D-02  1.4213612603662D+00
    46  4.5000000000000D-01  1.0385931122890D-01  1.4191887405956D+00
    47  4.6000000000000D-01  1.2247196939112D-01  1.4152670507733D+00
    48  4.7000000000000D-01  1.4188948241334D-01  1.4096143473101D+00
    49  4.8000000000000D-01  1.6209871257705D-01  1.4022515403069D+00
    50  4.9000000000000D-01  1.8308451252378D-01  1.3932022538086D+00
    51  5.0000000000000D-01  2.0482970530587D-01  1.3824927810801D+00
    52  5.1000000000000D-01  2.2731506891114D-01  1.3701520349502D+00
    53  5.2000000000000D-01  2.5051932552249D-01  1.3562114932779D+00
    54  5.3000000000000D-01  2.7441913576540D-01  1.3407051396024D+00
    55  5.4000000000000D-01  2.9898909818636D-01  1.3236693990515D+00
    56  5.5000000000000D-01  3.2420175419391D-01  1.3051430695889D+00
    57  5.6000000000000D-01  3.5002759868103D-01  1.2851672486922D+00
    58  5.7000000000000D-01  3.7643509653355D-01  1.2637852555630D+00
    59  5.8000000000000D-01  4.0339070521265D-01  1.2410425489797D+00
    60  5.9000000000000D-01  4.3085890358289D-01  1.2169866409131D+00
    61  6.0000000000000D-01  4.5880222713776D-01  1.1916670060360D+00
    62  6.1000000000000D-01  4.8718130975471D-01  1.1651349872659D+00
    63  6.2000000000000D-01  5.1595493209014D-01  1.1374436974914D+00
    64  6.3000000000000D-01  5.4508007670142D-01  1.1086479176408D+00
    65  6.4000000000000D-01  5.7451198995967D-01  1.0788039912637D+00
    66  6.5000000000000D-01  6.0420425079084D-01  1.0479697158032D+00
    67  6.6000000000000D-01  6.3410884625692D-01  1.0162042307468D+00
    68  6.7000000000000D-01  6.6417625396153D-01  9.8356790285465D-01
    69  6.8000000000000D-01  6.9435553123594D-01  9.5012220867196D-01
    70  6.9000000000000D-01  7.2459441103254D-01  9.1592961453974D-01
    71  7.0000000000000D-01  7.5483940442312D-01  8.8105345433032D-01
    72  7.1000000000000D-01  7.8503590956942D-01  8.4555780513962D-01
    73  7.2000000000000D-01  8.1512832700232D-01  8.0950736117741D-01
    74  7.3000000000000D-01  8.4506018101554D-01  7.7296730610477D-01
    75  7.4000000000000D-01  8.7477424694850D-01  7.3600318407504D-01
    76  7.5000000000000D-01  9.0421268410213D-01  6.9868076974179D-01
    77  7.6000000000000D-01  9.3331717400018D-01  6.6106593750392D-01
    78  7.7000000000000D-01  9.6202906367844D-01  6.2322453026410D-01
    79  7.8000000000000D-01  9.9028951365359D-01  5.8522222798243D-01
    80  7.9000000000000D-01  1.0180396501942D+00  5.4712441631219D-01
    81  8.0000000000000D-01  1.0452207214875D+00  5.0899605560899D-01
    82  8.1000000000000D-01  1.0717742572669D+00  4.7090155060862D-01
    83  8.2000000000000D-01  1.0976422314400D+00  4.3290462107188D-01
    84  8.3000000000000D-01  1.1227672272282D+00  3.9506817369740D-01
    85  8.4000000000000D-01  1.1470926043091D+00  3.5745417560489D-01
    86  8.5000000000000D-01  1.1705626674236D+00  3.2012352969271D-01
    87  8.6000000000000D-01  1.1931228358963D+00  2.8313595217351D-01
    88  8.7000000000000D-01  1.2147198134900D+00  2.4654985259129D-01
    89  8.8000000000000D-01  1.2353017580043D+00  2.1042221662183D-01
    90  8.9000000000000D-01  1.2548184500090D+00  1.7480849195617D-01
    91  9.0000000000000D-01  1.2732214600900D+00  1.3976247756366D-01
    92  9.1000000000000D-01  1.2904643139752D+00  1.0533621662710D-01
    93  9.2000000000000D-01  1.3065026548987D+00  7.1579893437657D-02
    94  9.3000000000000D-01  1.3212944025545D+00  3.8541734531386D-02
    95  9.4000000000000D-01  1.3347999079872D+00  6.2679143423462D-03
    96  9.5000000000000D-01  1.3469821037679D+00 -2.5197534360117D-02
    97  9.6000000000000D-01  1.3578066488000D+00 -5.5812804991093D-02
    98  9.7000000000000D-01  1.3672420671103D+00 -8.5538396377331D-02
    99  9.8000000000000D-01  1.3752598799813D+00 -1.1433718645307D-01
   100  9.9000000000000D-01  1.3818347307936D+00 -1.4217450019635D-01
   101  1.0000000000000D+00  1.3869445019594D+00 -1.6901817159029D-01
   102  1.0100000000000D+00  1.3905704233411D+00 -1.9483859940649D-01
   103  1.0200000000000D+00  1.3926971715697D+00 -2.1960879662158D-01
   104  1.0300000000000D+00  1.3933129596943D+00 -2.4330443329234D-01
   105  1.0400000000000D+00  1.3924096166217D+00 -2.6590387273047D-01
   106  1.0500000000000D+00  1.3899826558270D+00 -2.8738820083382D-01
   107  1.0600000000000D+00  1.3860313328445D+00 -3.0774124844730D-01
   108  1.0700000000000D+00  1.3805586910828D+00 -3.2694960664476D-01
   109  1.0800000000000D+00  1.3735715955346D+00 -3.4500263484044D-01
   110  1.0900000000000D+00  1.3650807539934D+00 -3.6189246165737D-01
   111  1.1000000000000D+00  1.3551007254217D+00 -3.7761397849851D-01
   112  1.1100000000000D+00  1.3436499151550D+00 -3.9216482578555D-01
   113  1.1200000000000D+00  1.3307505566699D+00 -4.0554537185087D-01
   114  1.1300000000000D+00  1.3164286796842D+00 -4.1775868448728D-01
   115  1.1400000000000D+00  1.3007140644041D+00 -4.2881049518088D-01
   116  1.1500000000000D+00  1.2836401817702D+00 -4.3870915606988D-01
   117  1.1600000000000D+00  1.2652441196135D+00 -4.4746558969682D-01
   118  1.1700000000000D+00  1.2455664946712D+00 -4.5509323163951D-01
   119  1.1800000000000D+00  1.2246513504615D+00 -4.6160796612536D-01
   120  1.1900000000000D+00  1.2025460410610D+00 -4.6702805475373D-01
   121  1.2000000000000D+00  1.1793011008876D+00 -4.7137405847289D-01
   122  1.2100000000000D+00  1.1549701006363D+00 -4.7466875297824D-01
   123  1.2200000000000D+00  1.1296094895474D+00 -4.7693703770866D-01
   124  1.2300000000000D+00  1.1032784242615D+00 -4.7820583864845D-01
   125  1.2400000000000D+00  1.0760385845512D+00 -4.7850400515479D-01
   126  1.2500000000000D+00  1.0479539762541D+00 -4.7786220104329D-01
   127  1.2600000000000D+00  1.0190907217918D+00 -4.7631279018731D-01
   128  1.2700000000000D+00  9.8951683871055D-01 -4.7388971690307D-01
   129  1.2800000000000D+00  9.5930200669520D-01 -4.7062838139986D-01
   130  1.2900000000000D+00  9.2851732356911D-01 -4.6656551059415D-01
   131  1.3000000000000D+00  8.9723505083986D-01 -4.6173902460321D-01
   132  1.3100000000000D+00  8.6552834935661D-01 -4.5618789923441D-01
   133  1.3200000000000D+00  8.3347100570429D-01 -4.4995202480681D-01
   134  1.3300000000000D+00  8.0113714999950D-01 -4.4307206165150D-01
   135  1.3400000000000D+00  7.6860096574224D-01 -4.3558929263540D-01
   136  1.3500000000000D+00  7.3593639245060D-01 -4.2754547307348D-01
   137  1.3600000000000D+00  7.0321682181040D-01 -4.1898267839313D-01
   138  1.3700000000000D+00  6.7051478807102D-01 -4.0994314991710D-01
   139  1.3800000000000D+00  6.3790165348404D-01 -4.0046913914314D-01
   140  1.3900000000000D+00  6.0544728954996D-01 -3.9060275089062D-01
   141  1.4000000000000D+00  5.7321975487585D-01 -3.8038578569452D-01
   142  1.4100000000000D+00  5.4128497044919D-01 -3.6985958181635D-01
   143  1.4200000000000D+00  5.0970639313119D-01 -3.5906485725138D-01
   144  1.4300000000000D+00  4.7854468818642D-01 -3.4804155209754D-01
   145  1.4400000000000D+00  4.4785740164505D-01 -3.3682867164936D-01
   146  1.4500000000000D+00  4.1769863332206D-01 -3.2546413058785D-01
   147  1.4600000000000D+00  3.8811871124843D-01 -3.1398459859381D-01
   148  1.4700000000000D+00  3.5916386834926D-01 -3.0242534776194D-01
   149  1.4800000000000D+00  3.3087592207999D-01 -2.9082010211419D-01
   150  1.4900000000000D+00  3.0329195780779D-01 -2.7920088956019D-01
   151  1.5000000000000D+00  2.7644407084504D-01 -2.6759791011440D-01
   152  1.5100000000000D+00  2.5035879139742D-01 -2.5603932683295D-01
   153  1.5200000000000D+00  2.2505655692497D-01 -2.4455106973454D-01
   154  1.5300000000000D+00  2.0055548360724D-01 -2.3315771691935D-01
   155  1.5400000000000D+00  1.7686336815285D-01 -2.2188043524469D-01
   156  1.5500000000000D+00  1.5396949025826D-01 -2.1073489842879D-01
   157  1.5600000000000D+00  1.3187223354742D-01 -1.9973807071090D-01
   158  1.5700000000000D+00  1.1059010635280D-01 -1.8891092142298D-01
   159  1.5800000000000D+00  9.0135790197023D-02 -1.7827214562440D-01
   160  1.5900000000000D+00  7.0511866070103D-02 -1.6783714982481D-01
   161  1.6000000000000D+00  5.1721526358454D-02 -1.5762064511944D-01
   162  1.6100000000000D+00  3.3768104886535D-02 -1.4763654527317D-01
   163  1.6200000000000D+00  1.6653084825392D-02 -1.3789750143564D-01
   164  1.6300000000000D+00  3.7650595639302D-04 -1.2841501428565D-01
   165  1.6400000000000D+00 -1.5062935719269D-02 -1.1919947297102D-01
   166  1.6500000000000D+00 -2.9667937489791D-02 -1.1026015897586D-01
   167  1.6600000000000D+00 -4.3442595198031D-02 -1.0160526132231D-01
   168  1.6700000000000D+00 -5.6392402486086D-02 -9.3241893911640D-02
   169  1.6800000000000D+00 -6.8524244207842D-02 -8.5176114912680D-02
   170  1.6900000000000D+00 -7.9846383865994D-02 -7.7412948220196D-02
   171  1.7000000000000D+00 -9.0368445480774D-02 -6.9956406831372D-02
   172  1.7100000000000D+00 -1.0010138976336D-01 -6.2809518156785D-02
   173  1.7200000000000D+00 -1.0905748503313D-01 -5.5974351103243D-02
   174  1.7300000000000D+00 -1.1725027280106D-01 -4.9452044928876D-02
   175  1.7400000000000D+00 -1.2469452848176D-01 -4.3242839701288D-02
   176  1.7500000000000D+00 -1.3140621722305D-01 -3.7346108337347D-02
   177  1.7600000000000D+00 -1.3740244530924D-01 -3.1760390058358D-02
   178  1.7700000000000D+00 -1.4270140721353D-01 -2.6483425211248D-02
   179  1.7800000000000D+00 -1.4732232872304D-01 -2.1512191300779D-02
   180  1.7900000000000D+00 -1.5128540631215D-01 -1.6842940151554D-02
   181  1.8000000000000D+00 -1.5461174313658D-01 -1.2471236061505D-02
   182  1.8100000000000D+00 -1.5732328192577D-01 -8.3919948343562D-03
   183  1.8200000000000D+00 -1.5944273508966D-01 -4.5995235698455D-03
   184  1.8300000000000D+00 -1.6099351240514D-01 -1.0875610745333D-03
   185  1.8400000000000D+00 -1.6199964655899D-01  2.1506812185869D-03
   186  1.8500000000000D+00 -1.6248571695588D-01  5.1224779663792D-03
   187  1.8600000000000D+00 -1.6247677207369D-01  7.8355483874737D-03
   188  1.8700000000000D+00 -1.6199825075105D-01  1.0298014617121D-02
   189  1.8800000000000D+00 -1.6107590275468D-01  1.2518360093467D-02
   190  1.8900000000000D+00 -1.5973570892498D-01  1.4505388067169D-02
   191  1.9000000000000D+00 -1.5800380133800D-01  1.6268180412075D-02
   192  1.9100000000000D+00 -1.5590638371104D-01  1.7816056808601D-02
   193  1.9200000000000D+00 -1.5346965248683D-01  1.9158534466364D-02
   194  1.9300000000000D+00 -1.5071971887882D-01  2.0305288487065D-02
   195  1.9400000000000D+00 -1.4768253214920D-01  2.1266112962754D-02
   196  1.9500000000000D+00 -1.4438380462698D-01  2.2050883002228D-02
   197  1.9600000000000D+00 -1.4084893839773D-01  2.2669517646316D-02
   198  1.9700000000000D+00 -1.3710295447416D-01  2.3131943980766D-02
   199  1.9800000000000D+00 -1.3317042416250D-01  2.3448062326453D-02
   200  1.9900000000000D+00 -1.2907540335663D-01  2.3627712781578D-02
   201  2.0000000000000D+00 -1.2484136975130D-01  2.3680643105466D-02
   202  2.0100000000000D+00 -1.2049116316674D-01  2.3616478010206D-02
   203  2.0200000000000D+00 -1.1604692958924D-01  2.3444690082905D-02
   204  2.0300000000000D+00 -1.1153006840293D-01  2.3174572135245D-02
   205  2.0400000000000D+00 -1.0696118391435D-01  2.2815211387682D-02
   206  2.0500000000000D+00 -1.0236004046963D-01  2.2375465221709D-02
   207  2.0600000000000D+00 -9.7745521822228D-02  2.1863938739972D-02
   208  2.0700000000000D+00 -9.3135594893773D-02  2.1288964182176D-02
   209  2.0800000000000D+00 -8.8547277399613D-02  2.0658581997079D-02
   210  2.0900000000000D+00 -8.3996610522201D-02  1.9980524001654D-02
   211  2.1000000000000D+00 -7.9498635477924D-02  1.9262198198855D-02
   212  2.1100000000000D+00 -7.5067374897927D-02  1.8510675586920D-02
   213  2.1200000000000D+00 -7.0715818808984D-02  1.7732678877478D-02
   214  2.1300000000000D+00 -6.6455914661241D-02  1.6934572916449D-02
   215  2.1400000000000D+00 -6.2298562542840D-02  1.6122357218119D-02
   216  2.1500000000000D+00 -5.8253614224079D-02  1.5301660114842D-02
   217  2.1600000000000D+00 -5.4329876870657D-02  1.4477734822390D-02
   218  2.1700000000000D+00 -5.0535121221402D-02  1.3655457342148D-02
   219  2.1800000000000D+00 -4.6876093355333D-02  1.2839325879853D-02
   220  2.1900000000000D+00 -4.3358531301247D-02  1.2033462227657D-02
   221  2.2000000000000D+00 -3.9987185015543D-02  1.1241614574250D-02
   222  2.2100000000000D+00 -3.6765840231033D-02  1.0467161918982D-02
   223  2.2200000000000D+00 -3.3697346214036D-02  9.7131200980861D-03
   224  2.2300000000000D+00 -3.0783646399639D-02  8.9821490497840D-03
   225  2.2400000000000D+00 -2.8025812686610D-02  8.2765615915849D-03
   226  2.2500000000000D+00 -2.5424082573793D-02  7.5983334130135D-03
   227  2.2600000000000D+00 -2.2977898806469D-02  6.9491141609574D-03
   228  2.2700000000000D+00 -2.0685951977072D-02  6.3302397682859D-03
   229  2.2800000000000D+00 -1.8546225046455D-02  5.7427456554125D-03
   230  2.2900000000000D+00 -1.6556039955259D-02  5.1873808577053D-03
   231  2.3000000000000D+00 -1.4712106103494D-02  4.6646229935310D-03
   232  2.3100000000000D+00 -1.3010570113388D-02  4.1746938640586D-03
   233  2.3200000000000D+00 -1.1447066901433D-02  3.7175756827821D-03
   234  2.3300000000000D+00 -1.0016771634533D-02  3.2930277813521D-03
   235  2.3400000000000D+00 -8.7144523360671D-03  2.9006037076266D-03
   236  2.3500000000000D+00 -7.5345227802859D-03  2.5396685716102D-03
   237  2.3600000000000D+00 -6.4710955034121D-03  2.2094165835815D-03
   238  2.3700000000000D+00 -5.5180347007075D-03  1.9088886957217D-03
   239  2.3800000000000D+00 -4.6690083740024D-03  1.6369901083060D-03
   240  2.3900000000000D+00 -3.9175399944930D-03  1.3925077419634D-03
   241  2.4000000000000D+00 -3.2570591222293D-03  1.1741274666388D-03
   242  2.4100000000000D+00 -2.6809504173827D-03  9.8045087775800D-04
   243  2.4200000000000D+00 -2.1826016271313D-03  8.1001183466328D-04
   244  2.4300000000000D+00 -1.7554495412924D-03  6.6129238912203D-04
   245  2.4400000000000D+00 -1.3930236759542D-03  5.3273801456039D-04
   246  2.4500000000000D+00 -1.0889884646064D-03  4.2277242002988D-04
   247  2.4600000000000D+00 -8.3718244942536D-04  3.2981139582301D-04
   248  2.4700000000000D+00 -6.3165472895086D-04  2.5227578296618D-04
   249  2.4800000000000D+00 -4.6669952825854D-04  1.8860388040188D-04
   250  2.4900000000000D+00 -3.3688690659922D-04  1.3726256471051D-04
   251  2.5000000000000D+00 -2.3710985308742D-04  9.6755235800211D-05
   252  2.5100000000000D+00 -1.6254132087179D-04  6.5638954545570D-05
   253  2.5200000000000D+00 -1.0871447619975D-04  4.2525704889914D-05
   254  2.5300000000000D+00 -7.1377327114929D-05  2.6068538729563D-05
   255  2.5400000000000D+00 -4.7143627908605D-05  1.5033672913428D-05
   256  2.5500000000000D+00 -3.2930410567167D-05  8.2491645349916D-06
   257  2.5600000000000D+00 -2.6427237660514D-05  4.7088162789849D-06
   258  2.5700000000000D+00 -2.3825889432839D-05  3.1962505679307D-06
   259  2.5800000000000D+00 -2.1701968655104D-05  2.6292609280295D-06
   260  2.5900000000000D+00 -1.6711844663392D-05  2.0153402844139D-06
   261  2.6000000000000D+00 -9.5464822354077D-06  1.1774756828327D-06
   262  2.6100000000000D+00 -2.4835855115497D-06  3.1681797255773D-07
   263  2.6200000000000D+00  1.5043003582068D-06 -1.7098317326761D-07
   264  2.6300000000000D+00  2.1012168870619D-06 -2.3975589240906D-07
   265  2.6400000000000D+00  9.4514940131571D-07 -1.0844833665644D-07
   266  2.6500000000000D+00 -2.3454635521888D-07  2.3897436767238D-08
   267  2.6600000000000D+00 -4.6730549901791D-07  4.7157793507367D-08
   268  2.6700000000000D+00 -2.8475690034052D-07  2.8502824372421D-08
   269  2.6800000000000D+00  1.7412028916627D-08 -2.1089458785912D-09
   270  2.6900000000000D+00  5.6917344145903D-08 -6.8938317832813D-09
   271  2.7000000000000D+00  4.4964356644004D-08 -5.4460852943636D-09
   272  2.7100000000000D+00  0.0000000000000D+00  0.0000000000000D+00
   273  2.7200000000000D+00  0.0000000000000D+00  0.0000000000000D+00
   274  2.7300000000000D+00  0.0000000000000D+00  0.0000000000000D+00
   275  2.7400000000000D+00  0.0000000000000D+00  0.0000000000000D+00
   276  2.7500000000000D+00  0.0000000000000D+00  0.0000000000000D+00
   277  2.7600000000000D+00  0.0000000000000D+00  0.0000000000000D+00
   278  2.7700000000000D+00  0.0000000000000D+00  0.0000000000000D+00
   279  2.7800000000000D+00  0.0000000000000D+00  0.0000000000000D+00
   280  2.7900000000000D+00  0.0000000000000D+00  0.0000000000000D+00
   281  2.8000000000000D+00  0.0000000000000D+00  0.0000000000000D+00
   282  2.8100000000000D+00  0.0000000000000D+00  0.0000000000000D+00
   283  2.8200000000000D+00  0.0000000000000D+00  0.0000000000000D+00
   284  2.8300000000000D+00  0.0000000000000D+00  0.0000000000000D+00
   285  2.8400000000000D+00  0.0000000000000D+00  0.0000000000000D+00
   286  2.8500000000000D+00  0.0000000000000D+00  0.0000000000000D+00
   287  2.8600000000000D+00  0.0000000000000D+00  0.0000000000000D+00
   288  2.8700000000000D+00  0.0000000000000D+00  0.0000000000000D+00
   289  2.8800000000000D+00  0.0000000000000D+00  0.0000000000000D+00
   290  2.8900000000000D+00  0.0000000000000D+00  0.0000000000000D+00
   291  2.9000000000000D+00  0.0000000000000D+00  0.0000000000000D+00
   292  2.9100000000000D+00  0.0000000000000D+00  0.0000000000000D+00
   293  2.9200000000000D+00  0.0000000000000D+00  0.0000000000000D+00
   294  2.9300000000000D+00  0.0000000000000D+00  0.0000000000000D+00
   295  2.9400000000000D+00  0.0000000000000D+00  0.0000000000000D+00
   296  2.9500000000000D+00  0.0000000000000D+00  0.0000000000000D+00
   297  2.9600000000000D+00  0.0000000000000D+00  0.0000000000000D+00
   298  2.9700000000000D+00  0.0000000000000D+00  0.0000000000000D+00
   299  2.9800000000000D+00  0.0000000000000D+00  0.0000000000000D+00
   300  2.9900000000000D+00  0.0000000000000D+00  0.0000000000000D+00
   301  3.0000000000000D+00  0.0000000000000D+00  0.0000000000000D+00
   302  3.0100000000000D+00  0.0000000000000D+00  0.0000000000000D+00
   303  3.0200000000000D+00  0.0000000000000D+00  0.0000000000000D+00
   304  3.0300000000000D+00  0.0000000000000D+00  0.0000000000000D+00
   305  3.0400000000000D+00  0.0000000000000D+00  0.0000000000000D+00
   306  3.0500000000000D+00  0.0000000000000D+00  0.0000000000000D+00
   307  3.0600000000000D+00  0.0000000000000D+00  0.0000000000000D+00
   308  3.0700000000000D+00  0.0000000000000D+00  0.0000000000000D+00
   309  3.0800000000000D+00  0.0000000000000D+00  0.0000000000000D+00
   310  3.0900000000000D+00  0.0000000000000D+00  0.0000000000000D+00
   311  3.1000000000000D+00  0.0000000000000D+00  0.0000000000000D+00
   312  3.1100000000000D+00  0.0000000000000D+00  0.0000000000000D+00
   313  3.1200000000000D+00  0.0000000000000D+00  0.0000000000000D+00
   314  3.1300000000000D+00  0.0000000000000D+00  0.0000000000000D+00
   315  3.1400000000000D+00  0.0000000000000D+00  0.0000000000000D+00
   316  3.1500000000000D+00  0.0000000000000D+00  0.0000000000000D+00
   317  3.1600000000000D+00  0.0000000000000D+00  0.0000000000000D+00
   318  3.1700000000000D+00  0.0000000000000D+00  0.0000000000000D+00
   319  3.1800000000000D+00  0.0000000000000D+00  0.0000000000000D+00
   320  3.1900000000000D+00  0.0000000000000D+00  0.0000000000000D+00
   321  3.2000000000000D+00  0.0000000000000D+00  0.0000000000000D+00
   322  3.2100000000000D+00  0.0000000000000D+00  0.0000000000000D+00
   323  3.2200000000000D+00  0.0000000000000D+00  0.0000000000000D+00
   324  3.2300000000000D+00  0.0000000000000D+00  0.0000000000000D+00
   325  3.2400000000000D+00  0.0000000000000D+00  0.0000000000000D+00
   326  3.2500000000000D+00  0.0000000000000D+00  0.0000000000000D+00
   327  3.2600000000000D+00  0.0000000000000D+00  0.0000000000000D+00
   328  3.2700000000000D+00  0.0000000000000D+00  0.0000000000000D+00
   329  3.2800000000000D+00  0.0000000000000D+00  0.0000000000000D+00
   330  3.2900000000000D+00  0.0000000000000D+00  0.0000000000000D+00
   331  3.3000000000000D+00  0.0000000000000D+00  0.0000000000000D+00
   332  3.3100000000000D+00  0.0000000000000D+00  0.0000000000000D+00
   333  3.3200000000000D+00  0.0000000000000D+00  0.0000000000000D+00
   334  3.3300000000000D+00  0.0000000000000D+00  0.0000000000000D+00
   335  3.3400000000000D+00  0.0000000000000D+00  0.0000000000000D+00
   336  3.3500000000000D+00  0.0000000000000D+00  0.0000000000000D+00
   337  3.3600000000000D+00  0.0000000000000D+00  0.0000000000000D+00
   338  3.3700000000000D+00  0.0000000000000D+00  0.0000000000000D+00
   339  3.3800000000000D+00  0.0000000000000D+00  0.0000000000000D+00
   340  3.3900000000000D+00  0.0000000000000D+00  0.0000000000000D+00
   341  3.4000000000000D+00  0.0000000000000D+00  0.0000000000000D+00
   342  3.4100000000000D+00  0.0000000000000D+00  0.0000000000000D+00
   343  3.4200000000000D+00  0.0000000000000D+00  0.0000000000000D+00
   344  3.4300000000000D+00  0.0000000000000D+00  0.0000000000000D+00
   345  3.4400000000000D+00  0.0000000000000D+00  0.0000000000000D+00
   346  3.4500000000000D+00  0.0000000000000D+00  0.0000000000000D+00
   347  3.4600000000000D+00  0.0000000000000D+00  0.0000000000000D+00
   348  3.4700000000000D+00  0.0000000000000D+00  0.0000000000000D+00
   349  3.4800000000000D+00  0.0000000000000D+00  0.0000000000000D+00
   350  3.4900000000000D+00  0.0000000000000D+00  0.0000000000000D+00
   351  3.5000000000000D+00  0.0000000000000D+00  0.0000000000000D+00
   352  3.5100000000000D+00  0.0000000000000D+00  0.0000000000000D+00
   353  3.5200000000000D+00  0.0000000000000D+00  0.0000000000000D+00
   354  3.5300000000000D+00  0.0000000000000D+00  0.0000000000000D+00
   355  3.5400000000000D+00  0.0000000000000D+00  0.0000000000000D+00
   356  3.5500000000000D+00  0.0000000000000D+00  0.0000000000000D+00
   357  3.5600000000000D+00  0.0000000000000D+00  0.0000000000000D+00
   358  3.5700000000000D+00  0.0000000000000D+00  0.0000000000000D+00
   359  3.5800000000000D+00  0.0000000000000D+00  0.0000000000000D+00
   360  3.5900000000000D+00  0.0000000000000D+00  0.0000000000000D+00
   361  3.6000000000000D+00  0.0000000000000D+00  0.0000000000000D+00
   362  3.6100000000000D+00  0.0000000000000D+00  0.0000000000000D+00
   363  3.6200000000000D+00  0.0000000000000D+00  0.0000000000000D+00
   364  3.6300000000000D+00  0.0000000000000D+00  0.0000000000000D+00
   365  3.6400000000000D+00  0.0000000000000D+00  0.0000000000000D+00
   366  3.6500000000000D+00  0.0000000000000D+00  0.0000000000000D+00
   367  3.6600000000000D+00  0.0000000000000D+00  0.0000000000000D+00
   368  3.6700000000000D+00  0.0000000000000D+00  0.0000000000000D+00
   369  3.6800000000000D+00  0.0000000000000D+00  0.0000000000000D+00
   370  3.6900000000000D+00  0.0000000000000D+00  0.0000000000000D+00
   371  3.7000000000000D+00  0.0000000000000D+00  0.0000000000000D+00
   372  3.7100000000000D+00  0.0000000000000D+00  0.0000000000000D+00
   373  3.7200000000000D+00  0.0000000000000D+00  0.0000000000000D+00
   374  3.7300000000000D+00  0.0000000000000D+00  0.0000000000000D+00
   375  3.7400000000000D+00  0.0000000000000D+00  0.0000000000000D+00
   376  3.7500000000000D+00  0.0000000000000D+00  0.0000000000000D+00
   377  3.7600000000000D+00  0.0000000000000D+00  0.0000000000000D+00
   378  3.7700000000000D+00  0.0000000000000D+00  0.0000000000000D+00
   379  3.7800000000000D+00  0.0000000000000D+00  0.0000000000000D+00
   380  3.7900000000000D+00  0.0000000000000D+00  0.0000000000000D+00
   381  3.8000000000000D+00  0.0000000000000D+00  0.0000000000000D+00
   382  3.8100000000000D+00  0.0000000000000D+00  0.0000000000000D+00
   383  3.8200000000000D+00  0.0000000000000D+00  0.0000000000000D+00
   384  3.8300000000000D+00  0.0000000000000D+00  0.0000000000000D+00
   385  3.8400000000000D+00  0.0000000000000D+00  0.0000000000000D+00
   386  3.8500000000000D+00  0.0000000000000D+00  0.0000000000000D+00
   387  3.8600000000000D+00  0.0000000000000D+00  0.0000000000000D+00
   388  3.8700000000000D+00  0.0000000000000D+00  0.0000000000000D+00
   389  3.8800000000000D+00  0.0000000000000D+00  0.0000000000000D+00
   390  3.8900000000000D+00  0.0000000000000D+00  0.0000000000000D+00
   391  3.9000000000000D+00  0.0000000000000D+00  0.0000000000000D+00
   392  3.9100000000000D+00  0.0000000000000D+00  0.0000000000000D+00
   393  3.9200000000000D+00  0.0000000000000D+00  0.0000000000000D+00
   394  3.9300000000000D+00  0.0000000000000D+00  0.0000000000000D+00
   395  3.9400000000000D+00  0.0000000000000D+00  0.0000000000000D+00
   396  3.9500000000000D+00  0.0000000000000D+00  0.0000000000000D+00
   397  3.9600000000000D+00  0.0000000000000D+00  0.0000000000000D+00
   398  3.9700000000000D+00  0.0000000000000D+00  0.0000000000000D+00
   399  3.9800000000000D+00  0.0000000000000D+00  0.0000000000000D+00
   400  3.9900000000000D+00  0.0000000000000D+00  0.0000000000000D+00
   401  4.0000000000000D+00  0.0000000000000D+00  0.0000000000000D+00
   402  4.0100000000000D+00  0.0000000000000D+00  0.0000000000000D+00
   403  4.0200000000000D+00  0.0000000000000D+00  0.0000000000000D+00
   404  4.0300000000000D+00  0.0000000000000D+00  0.0000000000000D+00
   405  4.0400000000000D+00  0.0000000000000D+00  0.0000000000000D+00
   406  4.0500000000000D+00  0.0000000000000D+00  0.0000000000000D+00
   407  4.0600000000000D+00  0.0000000000000D+00  0.0000000000000D+00
   408  4.0700000000000D+00  0.0000000000000D+00  0.0000000000000D+00
   409  4.0800000000000D+00  0.0000000000000D+00  0.0000000000000D+00
   410  4.0900000000000D+00  0.0000000000000D+00  0.0000000000000D+00
   411  4.1000000000000D+00  0.0000000000000D+00  0.0000000000000D+00
   412  4.1100000000000D+00  0.0000000000000D+00  0.0000000000000D+00
   413  4.1200000000000D+00  0.0000000000000D+00  0.0000000000000D+00
   414  4.1300000000000D+00  0.0000000000000D+00  0.0000000000000D+00
   415  4.1400000000000D+00  0.0000000000000D+00  0.0000000000000D+00
   416  4.1500000000000D+00  0.0000000000000D+00  0.0000000000000D+00
   417  4.1600000000000D+00  0.0000000000000D+00  0.0000000000000D+00
   418  4.1700000000000D+00  0.0000000000000D+00  0.0000000000000D+00
   419  4.1800000000000D+00  0.0000000000000D+00  0.0000000000000D+00
   420  4.1900000000000D+00  0.0000000000000D+00  0.0000000000000D+00
   421  4.2000000000000D+00  0.0000000000000D+00  0.0000000000000D+00
   422  4.2100000000000D+00  0.0000000000000D+00  0.0000000000000D+00