Ru    ONCVPSP-3.3.1  r_core=   2.58325   2.55262   2.61425
     44.0000     16.0000      210904    zatom,zion,pspd
     8       2   2     4   600     0    pspcod,pspxc,lmax,lloc,mmax,r2well
  5.99000000  0.00000000  0.00000000    rchrg fchrg qchrg
     2     2     2     0     0    nproj
     1     1           extension_switch
   0                         4.3093667322434D+00  8.0951118356806D-01
     1  0.0000000000000D+00 -8.9545038051142D-13 -3.5923555796735D-12
     2  1.0000000000000D-02  5.2239132047974D-02 -6.9125180058482D-03
     3  2.0000000000000D-02  1.0440599751938D-01 -1.3794186130405D-02
     4  3.0000000000000D-02  1.5642844621287D-01 -2.0614184472272D-02
     5  4.0000000000000D-02  2.0823456049446D-01 -2.7341753205454D-02
     6  5.0000000000000D-02  2.5975277112373D-01 -3.3946222905185D-02
     7  6.0000000000000D-02  3.1091197253167D-01 -4.0397045216973D-02
     8  7.0000000000000D-02  3.6164163736857D-01 -4.6663823979081D-02
     9  8.0000000000000D-02  4.1187193014091D-01 -5.2716346905041D-02
    10  9.0000000000000D-02  4.6153381975777D-01 -5.8524617928369D-02
    11  1.0000000000000D-01  5.1055919080841D-01 -6.4058890306363D-02
    12  1.1000000000000D-01  5.5888095339407D-01 -6.9289700573634D-02
    13  1.2000000000000D-01  6.0643315133935D-01 -7.4187903429198D-02
    14  1.3000000000000D-01  6.5315106860987D-01 -7.8724707633082D-02
    15  1.4000000000000D-01  6.9897133376576D-01 -8.2871712980025D-02
    16  1.5000000000000D-01  7.4383202228252D-01 -8.6600948408541D-02
    17  1.6000000000000D-01  7.8767275657375D-01 -8.9884911293804D-02
    18  1.7000000000000D-01  8.3043480355279D-01 -9.2696607962203D-02
    19  1.8000000000000D-01  8.7206116957379D-01 -9.5009595454309D-02
    20  1.9000000000000D-01  9.1249669259550D-01 -9.6798024551307D-02
    21  2.0000000000000D-01  9.5168813141508D-01 -9.8036684067704D-02
    22  2.1000000000000D-01  9.8958425182232D-01 -9.8701046400506D-02
    23  2.2000000000000D-01  1.0261359095291D+00 -9.8767314311960D-02
    24  2.3000000000000D-01  1.0612961297323D+00 -9.8212468909628D-02
    25  2.4000000000000D-01  1.0950201831739D+00 -9.7014318773747D-02
    26  2.5000000000000D-01  1.1272656585638D+00 -9.5151550168077D-02
    27  2.6000000000000D-01  1.1579925312395D+00 -9.2603778256315D-02
    28  2.7000000000000D-01  1.1871632279375D+00 -8.9351599231925D-02
    29  2.8000000000000D-01  1.2147426875591D+00 -8.5376643255307D-02
    30  2.9000000000000D-01  1.2406984178174D+00 -8.0661628077843D-02
    31  3.0000000000000D-01  1.2650005476568D+00 -7.5190413218582D-02
    32  3.1000000000000D-01  1.2876218753443D+00 -6.8948054545510D-02
    33  3.2000000000000D-01  1.3085379121351D+00 -6.1920859099749D-02
    34  3.3000000000000D-01  1.3277269214219D+00 -5.4096439988022D-02
    35  3.4000000000000D-01  1.3451699532833D+00 -4.5463771155922D-02
    36  3.5000000000000D-01  1.3608508743541D+00 -3.6013241842344D-02
    37  3.6000000000000D-01  1.3747563929434D+00 -2.5736710503759D-02
    38  3.7000000000000D-01  1.3868760793385D+00 -1.4627557986147D-02
    39  3.8000000000000D-01  1.3972023812322D+00 -2.6807397121045D-03
    40  3.9000000000000D-01  1.4057306342257D+00  1.0107163358790D-02
    41  4.0000000000000D-01  1.4124590673605D+00  2.3737895246766D-02
    42  4.1000000000000D-01  1.4173888036431D+00  3.8211477203726D-02
    43  4.2000000000000D-01  1.4205238555323D+00  5.3526161964804D-02
    44  4.3000000000000D-01  1.4218711153684D+00  6.9678390269584D-02
    45  4.4000000000000D-01  1.4214403407296D+00  8.6662749927235D-02
    46  4.5000000000000D-01  1.4192441347091D+00  1.0447193770296D-01
    47  4.6000000000000D-01  1.4152979211159D+00  1.2309672430495D-01
    48  4.7000000000000D-01  1.4096199146100D+00  1.4252592275143D-01
    49  4.8000000000000D-01  1.4022310857900D+00  1.6274636039663D-01
    50  4.9000000000000D-01  1.3931551212617D+00  1.8374285489214D-01
    51  5.0000000000000D-01  1.3824183787240D+00  2.0549819435628D-01
    52  5.1000000000000D-01  1.3700498371175D+00  2.2799312201900D-01
    53  5.2000000000000D-01  1.3560810418905D+00  2.5120632560306D-01
    54  5.3000000000000D-01  1.3405460454462D+00  2.7511443169384D-01
    55  5.4000000000000D-01  1.3234813428439D+00  2.9969200534041D-01
    56  5.5000000000000D-01  1.3049258028380D+00  3.2491155511929D-01
    57  5.6000000000000D-01  1.2849205943448D+00  3.5074354387910D-01
    58  5.7000000000000D-01  1.2635091084415D+00  3.7715640537011D-01
    59  5.8000000000000D-01  1.2407368760064D+00  4.0411656694684D-01
    60  5.9000000000000D-01  1.2166514811233D+00  4.3158847851430D-01
    61  6.0000000000000D-01  1.1913024703801D+00  4.5953464786950D-01
    62  6.1000000000000D-01  1.1647412582025D+00  4.8791568257005D-01
    63  6.2000000000000D-01  1.1370210283734D+00  5.1669033843948D-01
    64  6.3000000000000D-01  1.1081966318981D+00  5.4581557479641D-01
    65  6.4000000000000D-01  1.0783244813855D+00  5.7524661647053D-01
    66  6.5000000000000D-01  1.0474624421235D+00  6.0493702264283D-01
    67  6.6000000000000D-01  1.0156697200398D+00  6.3483876252133D-01
    68  6.7000000000000D-01  9.8300674674356D-01  6.6490229783638D-01
    69  6.8000000000000D-01  9.4953506185757D-01  6.9507667211114D-01
    70  6.9000000000000D-01  9.1531719285599D-01  7.2530960663396D-01
    71  7.0000000000000D-01  8.8041653263302D-01  7.5554760302975D-01
    72  7.1000000000000D-01  8.4489721503604D-01  7.8573605229751D-01
    73  7.2000000000000D-01  8.0882398860473D-01  8.1581935015011D-01
    74  7.3000000000000D-01  7.7226208876565D-01  8.4574101846189D-01
    75  7.4000000000000D-01  7.3527710873908D-01  8.7544383259876D-01
    76  7.5000000000000D-01  6.9793486942194D-01  9.0486995437391D-01
    77  7.6000000000000D-01  6.6030128851736D-01  9.3396107034214D-01
    78  7.7000000000000D-01  6.2244224918729D-01  9.6265853511449D-01
    79  7.8000000000000D-01  5.8442346851034D-01  9.9090351934511D-01
    80  7.9000000000000D-01  5.4631036603196D-01  1.0186371620127D+00
    81  8.0000000000000D-01  5.0816793269846D-01  1.0458007265900D+00
    82  8.1000000000000D-01  4.7006060047036D-01  1.0723357606662D+00
    83  8.2000000000000D-01  4.3205211291341D-01  1.0981842585625D+00
    84  8.3000000000000D-01  3.9420539706839D-01  1.1232888264514D+00
    85  8.4000000000000D-01  3.5658243690232D-01  1.1475928494697D+00
    86  8.5000000000000D-01  3.1924414864472D-01  1.1710406602918D+00
    87  8.6000000000000D-01  2.8225025831288D-01  1.1935777086046D+00
    88  8.7000000000000D-01  2.4565918172940D-01  1.2151507309121D+00
    89  8.8000000000000D-01  2.0952790733371D-01  1.2357079200758D+00
    90  8.9000000000000D-01  1.7391188208729D-01  1.2551990939817D+00
    91  9.0000000000000D-01  1.3886490076887D-01  1.2735758627141D+00
    92  9.1000000000000D-01  1.0443899895198D-01  1.2907917936019D+00
    93  9.2000000000000D-01  7.0684349952232D-02  1.3068025734965D+00
    94  9.3000000000000D-01  3.7649166025997D-02  1.3215661676326D+00
    95  9.4000000000000D-01  5.3796040951412D-03  1.3350429744205D+00
    96  9.5000000000000D-01 -2.6080323734925D-02  1.3471959755167D+00
    97  9.6000000000000D-01 -5.6688834605386D-02  1.3579908805198D+00
    98  9.7000000000000D-01 -8.6406454033229D-02  1.3673962656454D+00
    99  9.8000000000000D-01 -1.1519608950098D-01  1.3753837057373D+00
   100  9.9000000000000D-01 -1.4302309827929D-01  1.3819278989850D+00
   101  1.0000000000000D+00 -1.6985534926729D-01  1.3870067837268D+00
   102  1.0100000000000D+00 -1.9566327864828D-01  1.3906016467347D+00
   103  1.0200000000000D+00 -2.2041993917229D-01  1.3926972223943D+00
   104  1.0300000000000D+00 -2.4410104289144D-01  1.3932817822145D+00
   105  1.0400000000000D+00 -2.6668499718960D-01  1.3923472141224D+00
   106  1.0500000000000D+00 -2.8815293396369D-01  1.3898890910269D+00
   107  1.0600000000000D+00 -3.0848873183041D-01  1.3859067281620D+00
   108  1.0700000000000D+00 -3.2767903125027D-01  1.3804032287499D+00
   109  1.0800000000000D+00 -3.4571324247772D-01  1.3733855175595D+00
   110  1.0900000000000D+00 -3.6258354626580D-01  1.3648643619697D+00
   111  1.1000000000000D+00 -3.7828488727120D-01  1.3548543801832D+00
   112  1.1100000000000D+00 -3.9281496012541D-01  1.3433740362765D+00
   113  1.1200000000000D+00 -4.0617418815796D-01  1.3304456218132D+00
   114  1.1300000000000D+00 -4.1836569477677D-01  1.3160952237902D+00
   115  1.1400000000000D+00 -4.2939526753171D-01  1.3003526787312D+00
   116  1.1500000000000D+00 -4.3927131490441D-01  1.2832515127800D+00
   117  1.1600000000000D+00 -4.4800481589265D-01  1.2648288677057D+00
   118  1.1700000000000D+00 -4.5560926247469D-01  1.2451254127682D+00
   119  1.1800000000000D+00 -4.6210059505910D-01  1.2241852424451D+00
   120  1.1900000000000D+00 -4.6749713104487D-01  1.2020557600643D+00
   121  1.2000000000000D+00 -4.7181948663906D-01  1.1787875474421D+00
   122  1.2100000000000D+00 -4.7509049209891D-01  1.1544342206794D+00
   123  1.2200000000000D+00 -4.7733510057580D-01  1.1290522722914D+00
   124  1.2300000000000D+00 -4.7858029076882D-01  1.1027008999281D+00
   125  1.2400000000000D+00 -4.7885496360826D-01  1.0754418219741D+00
   126  1.2500000000000D+00 -4.7818983320203D-01  1.0473390803532D+00
   127  1.2600000000000D+00 -4.7661731230088D-01  1.0184588309233D+00
   128  1.2700000000000D+00 -4.7417139255486D-01  9.8886912189525D-01
   129  1.2800000000000D+00 -4.7088751984038D-01  9.5863966073019D-01
   130  1.2900000000000D+00 -4.6680246495732D-01  9.2784157002561D-01
   131  1.3000000000000D+00 -4.6195419001149D-01  8.9654713295170D-01
   132  1.3100000000000D+00 -4.5638171079934D-01  8.6482952880317D-01
   133  1.3200000000000D+00 -4.5012495553124D-01  8.3276255929200D-01
   134  1.3300000000000D+00 -4.4322462024029D-01  8.0042036624572D-01
   135  1.3400000000000D+00 -4.3572202122121D-01  7.6787714136570D-01
   136  1.3500000000000D+00 -4.2765894486452D-01  7.3520682877228D-01
   137  1.3600000000000D+00 -4.1907749524978D-01  7.0248282106884D-01
   138  1.3700000000000D+00 -4.1001993986427D-01  6.6977764965586D-01
   139  1.3800000000000D+00 -4.0052855382533D-01  6.3716267009174D-01
   140  1.3900000000000D+00 -3.9064546297659D-01  6.0470774326520D-01
   141  1.4000000000000D+00 -3.8041248623846D-01  5.7248091318240D-01
   142  1.4100000000000D+00 -3.6987097758231D-01  5.4054808217363D-01
   143  1.4200000000000D+00 -3.5906166800771D-01  5.0897268432293D-01
   144  1.4300000000000D+00 -3.4802450788802D-01  4.7781535793715D-01
   145  1.4400000000000D+00 -3.3679851004738D-01  4.4713361785078D-01
   146  1.4500000000000D+00 -3.2542159394007D-01  4.1698152839063D-01
   147  1.4600000000000D+00 -3.1393043125944D-01  3.8740937775525D-01
   148  1.4700000000000D+00 -3.0236029335361D-01  3.5846335464393D-01
   149  1.4800000000000D+00 -2.9074490074620D-01  3.3018522784608D-01
   150  1.4900000000000D+00 -2.7911627510968D-01  3.0261202957823D-01
   151  1.5000000000000D+00 -2.6750460751022D-01  2.7577579751564D-01
   152  1.5100000000000D+00 -2.5593804932120D-01  2.4970299949869D-01
   153  1.5200000000000D+00 -2.4444251612512D-01  2.2441400565485D-01
   154  1.5300000000000D+00 -2.3304256961013D-01  1.9992686302436D-01
   155  1.5400000000000D+00 -2.2175935686941D-01  1.7624929126728D-01
   156  1.5500000000000D+00 -2.1060852730033D-01  1.5337047966066D-01
   157  1.5600000000000D+00 -1.9960702088977D-01  1.3128872787961D-01
   158  1.5700000000000D+00 -1.8877578490628D-01  1.1002247561523D-01
   159  1.5800000000000D+00 -1.7813349242511D-01  8.9584340875912D-02
   160  1.5900000000000D+00 -1.6769552775457D-01  6.9976844463823D-02
   161  1.6000000000000D+00 -1.5747657952877D-01  5.1203121778906D-02
   162  1.6100000000000D+00 -1.4749053868126D-01  3.3266452035715D-02
   163  1.6200000000000D+00 -1.3775003342442D-01  1.6168266879145D-02
   164  1.6300000000000D+00 -1.2826654143022D-01 -9.1442508749319D-05
   165  1.6400000000000D+00 -1.1905042881257D-01 -1.5514025934813D-02
   166  1.6500000000000D+00 -1.1011095406410D-01 -3.0102223720635D-02
   167  1.6600000000000D+00 -1.0145628331617D-01 -4.3860172021751D-02
   168  1.6700000000000D+00 -9.3093507736493D-02 -5.6793402123868D-02
   169  1.6800000000000D+00 -8.5028662971192D-02 -6.8908833910161D-02
   170  1.6900000000000D+00 -7.7266750653464D-02 -8.0214763356752D-02
   171  1.7000000000000D+00 -6.9811761827539D-02 -9.0720844462046D-02
   172  1.7100000000000D+00 -6.2666702304215D-02 -1.0043806548273D-01
   173  1.7200000000000D+00 -5.5833619785363D-02 -1.0937871991572D-01
   174  1.7300000000000D+00 -4.9313632757738D-02 -1.1755637214824D-01
   175  1.7400000000000D+00 -4.3106960987008D-02 -1.2498581823823D-01
   176  1.7500000000000D+00 -3.7212957590528D-02 -1.3168304181394D-01
   177  1.7600000000000D+00 -3.1630142522704D-02 -1.3766516554865D-01
   178  1.7700000000000D+00 -2.6356237423562D-02 -1.4295039828579D-01
   179  1.7800000000000D+00 -2.1388201675596D-02 -1.4755797823792D-01
   180  1.7900000000000D+00 -1.6722269587708D-02 -1.5150811243492D-01
   181  1.8000000000000D+00 -1.2353988568075D-02 -1.5482191279346D-01
   182  1.8100000000000D+00 -8.2782581733011D-03 -1.5752132908583D-01
   183  1.8200000000000D+00 -4.4893699125479D-03 -1.5962907912434D-01
   184  1.8300000000000D+00 -9.8104766998428D-04 -1.6116857652527D-01
   185  1.8400000000000D+00  2.2535113657593D-03 -1.6216385632728D-01
   186  1.8500000000000D+00  5.2215954104419D-03 -1.6263949887530D-01
   187  1.8600000000000D+00  7.9309365521510D-03 -1.6262055225566D-01
   188  1.8700000000000D+00  1.0389669104433D-02 -1.6213245366343D-01
   189  1.8800000000000D+00  1.2606287991380D-02 -1.6120095004385D-01
   190  1.8900000000000D+00  1.4589607258366D-02 -1.5985201831247D-01
   191  1.9000000000000D+00  1.6348718886446D-02 -1.5811178559319D-01
   192  1.9100000000000D+00  1.7892951981214D-02 -1.5600644969886D-01
   193  1.9200000000000D+00  1.9231832502523D-02 -1.5356220028899D-01
   194  1.9300000000000D+00  2.0375043636028D-02 -1.5080514098706D-01
   195  1.9400000000000D+00  2.1332386901758D-02 -1.4776121272977D-01
   196  1.9500000000000D+00  2.2113744192302D-02 -1.4445611885472D-01
   197  1.9600000000000D+00  2.2729040701234D-02 -1.4091525185844D-01
   198  1.9700000000000D+00  2.3188209050436D-02 -1.3716362263350D-01
   199  1.9800000000000D+00  2.3501154495925D-02 -1.3322579189978D-01
   200  1.9900000000000D+00  2.3677721486773D-02 -1.2912580456154D-01
   201  2.0000000000000D+00  2.3727661566608D-02 -1.2488712698179D-01
   202  2.0100000000000D+00  2.3660602683892D-02 -1.2053258736591D-01
   203  2.0200000000000D+00  2.3486020133577D-02 -1.1608431985916D-01
   204  2.0300000000000D+00  2.3213208926852D-02 -1.1156371183323D-01
   205  2.0400000000000D+00  2.2851257996088D-02 -1.0699135546327D-01
   206  2.0500000000000D+00  2.2409025968442D-02 -1.0238700289524D-01
   207  2.0600000000000D+00  2.1895118747752D-02 -9.7769525661341D-02
   208  2.0700000000000D+00  2.1317868952563D-02 -9.3156878486237D-02
   209  2.0800000000000D+00  2.0685317010583D-02 -8.8566066955459D-02
   210  2.0900000000000D+00  2.0005194340440D-02 -8.4013120229008D-02
   211  2.1000000000000D+00  1.9284908192229D-02 -7.9513067646053D-02
   212  2.1100000000000D+00  1.8531528479620D-02 -7.5079920140923D-02
   213  2.1200000000000D+00  1.7751776520721D-02 -7.0726656256560D-02
   214  2.1300000000000D+00  1.6952015481725D-02 -6.6465212202437D-02
   215  2.1400000000000D+00  1.6138242933453D-02 -6.2306477096512D-02
   216  2.1500000000000D+00  1.5316085023418D-02 -5.8260292034394D-02
   217  2.1600000000000D+00  1.4490792563188D-02 -5.4335453824934D-02
   218  2.1700000000000D+00  1.3667238952236D-02 -5.0539723187727D-02
   219  2.1800000000000D+00  1.2849919618061D-02 -4.6879836537704D-02
   220  2.1900000000000D+00  1.2042953419028D-02 -4.3361522609492D-02
   221  2.2000000000000D+00  1.1250085474905D-02 -3.9989522447857D-02
   222  2.2100000000000D+00  1.0474691600849D-02 -3.6767613266759D-02
   223  2.2200000000000D+00  9.7197843528481D-03 -3.3698636214288D-02
   224  2.2300000000000D+00  8.9880203115855D-03 -3.0784527013804D-02
   225  2.2400000000000D+00  8.2817088777328D-03 -2.8026350262399D-02
   226  2.2500000000000D+00  7.6028222820585D-03 -2.5424336568871D-02
   227  2.2600000000000D+00  6.9530066875511D-03 -2.2977922199830D-02
   228  2.2700000000000D+00  6.3335945339555D-03 -2.0685791678088D-02
   229  2.2800000000000D+00  5.7456177546655D-03 -1.8545922300014D-02
   230  2.2900000000000D+00  5.1898219186932D-03 -1.6555630741295D-02
   231  2.3000000000000D+00  4.6666812124574D-03 -1.4711621529275D-02
   232  2.3100000000000D+00  4.1764140527094D-03 -1.3010036797258D-02
   233  2.3200000000000D+00  3.7189993283140D-03 -1.1446507346579D-02
   234  2.3300000000000D+00  3.2941931175892D-03 -1.0016204591586D-02
   235  2.3400000000000D+00  2.9015457972191D-03 -8.7138931534944D-03
   236  2.3500000000000D+00  2.5404193981452D-03 -7.5339837415332D-03
   237  2.3600000000000D+00  2.2100051529907D-03 -6.4705861499758D-03
   238  2.3700000000000D+00  1.9093411462762D-03 -5.5175621403897D-03
   239  2.3800000000000D+00  1.6373298283674D-03 -4.6685775737627D-03
   240  2.3900000000000D+00  1.3927554948626D-03 -3.9171540573650D-03
   241  2.4000000000000D+00  1.1743015219702D-03 -3.2567195479303D-03
   242  2.4100000000000D+00  9.8056714835017D-04 -2.6806573464384D-03
   243  2.4200000000000D+00  8.1008401862256D-04 -2.1823540682499D-03
   244  2.4300000000000D+00  6.6133211627218D-04 -1.7552455820328D-03
   245  2.4400000000000D+00  5.3275499663010D-04 -1.3928606768560D-03
   246  2.4500000000000D+00  4.2277460401397D-04 -1.0888632367539D-03
   247  2.4600000000000D+00  3.2980511990667D-04 -8.3709141592785D-04
   248  2.4700000000000D+00  2.5226593444451D-04 -6.3159407078070D-04
   249  2.4800000000000D+00  1.8859405505649D-04 -4.6666531463676D-04
   250  2.4900000000000D+00  1.3725522711780D-04 -3.3687521081839D-04
   251  2.5000000000000D+00  9.6751910139562D-05 -2.3711693685421D-04
   252  2.5100000000000D+00  6.5640309440599D-05 -1.6256351477418D-04
   253  2.5200000000000D+00  4.2531729467971D-05 -1.0874829932662D-04
   254  2.5300000000000D+00  2.6078564066812D-05 -7.1419097401313D-05
   255  2.5400000000000D+00  1.5047028035047D-05 -4.7191074154776D-05
   256  2.5500000000000D+00  8.2652479024289D-06 -3.2982441975653D-05
   257  2.5600000000000D+00  4.7274733677110D-06 -2.6484771074122D-05
   258  2.5700000000000D+00  3.2163051747904D-06 -2.3886639246988D-05
   259  2.5800000000000D+00  2.6484918404467D-06 -2.1760066908914D-05
   260  2.5900000000000D+00  2.0302359900955D-06 -1.6756876792234D-05
   261  2.6000000000000D+00  1.1859244106403D-06 -9.5720506325110D-06
   262  2.6100000000000D+00  3.1898824960793D-07 -2.4901645237331D-06
   263  2.6200000000000D+00 -1.7235546346618D-07  1.5084307039147D-06
   264  2.6300000000000D+00 -2.4167018964561D-07  2.1069767656682D-06
   265  2.6400000000000D+00 -1.0930766382317D-07  9.4773450778639D-07
   266  2.6500000000000D+00  2.4119766308212D-08 -2.3521504621654D-07
   267  2.6600000000000D+00  4.7602173145753D-08 -4.6864170423852D-07
   268  2.6700000000000D+00  2.8774336306730D-08 -2.8557313779836D-07
   269  2.6800000000000D+00 -2.1244097587676D-09  1.7458786485308D-08
   270  2.6900000000000D+00 -6.9443809176783D-09  5.7070187714033D-08
   271  2.7000000000000D+00 -5.4860188039322D-09  4.5085102135756D-08
   272  2.7100000000000D+00  0.0000000000000D+00  0.0000000000000D+00
   273  2.7200000000000D+00  0.0000000000000D+00  0.0000000000000D+00
   274  2.7300000000000D+00  0.0000000000000D+00  0.0000000000000D+00
   275  2.7400000000000D+00  0.0000000000000D+00  0.0000000000000D+00
   276  2.7500000000000D+00  0.0000000000000D+00  0.0000000000000D+00
   277  2.7600000000000D+00  0.0000000000000D+00  0.0000000000000D+00
   278  2.7700000000000D+00  0.0000000000000D+00  0.0000000000000D+00
   279  2.7800000000000D+00  0.0000000000000D+00  0.0000000000000D+00
   280  2.7900000000000D+00  0.0000000000000D+00  0.0000000000000D+00
   281  2.8000000000000D+00  0.0000000000000D+00  0.0000000000000D+00
   282  2.8100000000000D+00  0.0000000000000D+00  0.0000000000000D+00
   283  2.8200000000000D+00  0.0000000000000D+00  0.0000000000000D+00
   284  2.8300000000000D+00  0.0000000000000D+00  0.0000000000000D+00
   285  2.8400000000000D+00  0.0000000000000D+00  0.0000000000000D+00
   286  2.8500000000000D+00  0.0000000000000D+00  0.0000000000000D+00
   287  2.8600000000000D+00  0.0000000000000D+00  0.0000000000000D+00
   288  2.8700000000000D+00  0.0000000000000D+00  0.0000000000000D+00
   289  2.8800000000000D+00  0.0000000000000D+00  0.0000000000000D+00
   290  2.8900000000000D+00  0.0000000000000D+00  0.0000000000000D+00
   291  2.9000000000000D+00  0.0000000000000D+00  0.0000000000000D+00
   292  2.9100000000000D+00  0.0000000000000D+00  0.0000000000000D+00
   293  2.9200000000000D+00  0.0000000000000D+00  0.0000000000000D+00
   294  2.9300000000000D+00  0.0000000000000D+00  0.0000000000000D+00
   295  2.9400000000000D+00  0.0000000000000D+00  0.0000000000000D+00
   296  2.9500000000000D+00  0.0000000000000D+00  0.0000000000000D+00
   297  2.9600000000000D+00  0.0000000000000D+00  0.0000000000000D+00
   298  2.9700000000000D+00  0.0000000000000D+00  0.0000000000000D+00
   299  2.9800000000000D+00  0.0000000000000D+00  0.0000000000000D+00
   300  2.9900000000000D+00  0.0000000000000D+00  0.0000000000000D+00
   301  3.0000000000000D+00  0.0000000000000D+00  0.0000000000000D+00
   302  3.0100000000000D+00  0.0000000000000D+00  0.0000000000000D+00
   303  3.0200000000000D+00  0.0000000000000D+00  0.0000000000000D+00
   304  3.0300000000000D+00  0.0000000000000D+00  0.0000000000000D+00
   305  3.0400000000000D+00  0.0000000000000D+00  0.0000000000000D+00
   306  3.0500000000000D+00  0.0000000000000D+00  0.0000000000000D+00
   307  3.0600000000000D+00  0.0000000000000D+00  0.0000000000000D+00
   308  3.0700000000000D+00  0.0000000000000D+00  0.0000000000000D+00
   309  3.0800000000000D+00  0.0000000000000D+00  0.0000000000000D+00
   310  3.0900000000000D+00  0.0000000000000D+00  0.0000000000000D+00
   311  3.1000000000000D+00  0.0000000000000D+00  0.0000000000000D+00
   312  3.1100000000000D+00  0.0000000000000D+00  0.0000000000000D+00
   313  3.1200000000000D+00  0.0000000000000D+00  0.0000000000000D+00
   314  3.1300000000000D+00  0.0000000000000D+00  0.0000000000000D+00
   315  3.1400000000000D+00  0.0000000000000D+00  0.0000000000000D+00
   316  3.1500000000000D+00  0.0000000000000D+00  0.0000000000000D+00
   317  3.1600000000000D+00  0.0000000000000D+00  0.0000000000000D+00
   318  3.1700000000000D+00  0.0000000000000D+00  0.0000000000000D+00
   319  3.1800000000000D+00  0.0000000000000D+00  0.0000000000000D+00
   320  3.1900000000000D+00  0.0000000000000D+00  0.0000000000000D+00
   321  3.2000000000000D+00  0.0000000000000D+00  0.0000000000000D+00
   322  3.2100000000000D+00  0.0000000000000D+00  0.0000000000000D+00
   323  3.2200000000000D+00  0.0000000000000D+00  0.0000000000000D+00
   324  3.2300000000000D+00  0.0000000000000D+00  0.0000000000000D+00
   325  3.2400000000000D+00  0.0000000000000D+00  0.0000000000000D+00
   326  3.2500000000000D+00  0.0000000000000D+00  0.0000000000000D+00
   327  3.2600000000000D+00  0.0000000000000D+00  0.0000000000000D+00
   328  3.2700000000000D+00  0.0000000000000D+00  0.0000000000000D+00
   329  3.2800000000000D+00  0.0000000000000D+00  0.0000000000000D+00
   330  3.2900000000000D+00  0.0000000000000D+00  0.0000000000000D+00
   331  3.3000000000000D+00  0.0000000000000D+00  0.0000000000000D+00
   332  3.3100000000000D+00  0.0000000000000D+00  0.0000000000000D+00
   333  3.3200000000000D+00  0.0000000000000D+00  0.0000000000000D+00
   334  3.3300000000000D+00  0.0000000000000D+00  0.0000000000000D+00
   335  3.3400000000000D+00  0.0000000000000D+00  0.0000000000000D+00
   336  3.3500000000000D+00  0.0000000000000D+00  0.0000000000000D+00
   337  3.3600000000000D+00  0.0000000000000D+00  0.0000000000000D+00
   338  3.3700000000000D+00  0.0000000000000D+00  0.0000000000000D+00
   339  3.3800000000000D+00  0.0000000000000D+00  0.0000000000000D+00
   340  3.3900000000000D+00  0.0000000000000D+00  0.0000000000000D+00
   341  3.4000000000000D+00  0.0000000000000D+00  0.0000000000000D+00
   342  3.4100000000000D+00  0.0000000000000D+00  0.0000000000000D+00
   343  3.4200000000000D+00  0.0000000000000D+00  0.0000000000000D+00
   344  3.4300000000000D+00  0.0000000000000D+00  0.0000000000000D+00
   345  3.4400000000000D+00  0.0000000000000D+00  0.0000000000000D+00
   346  3.4500000000000D+00  0.0000000000000D+00  0.0000000000000D+00
   347  3.4600000000000D+00  0.0000000000000D+00  0.0000000000000D+00
   348  3.4700000000000D+00  0.0000000000000D+00  0.0000000000000D+00
   349  3.4800000000000D+00  0.0000000000000D+00  0.0000000000000D+00
   350  3.4900000000000D+00  0.0000000000000D+00  0.0000000000000D+00
   351  3.5000000000000D+00  0.0000000000000D+00  0.0000000000000D+00
   352  3.5100000000000D+00  0.0000000000000D+00  0.0000000000000D+00
   353  3.5200000000000D+00  0.0000000000000D+00  0.0000000000000D+00
   354  3.5300000000000D+00  0.0000000000000D+00  0.0000000000000D+00
   355  3.5400000000000D+00  0.0000000000000D+00  0.0000000000000D+00
   356  3.5500000000000D+00  0.0000000000000D+00  0.0000000000000D+00
   357  3.5600000000000D+00  0.0000000000000D+00  0.0000000000000D+00
   358  3.5700000000000D+00  0.0000000000000D+00  0.0000000000000D+00
   359  3.5800000000000D+00  0.0000000000000D+00  0.0000000000000D+00
   360  3.5900000000000D+00  0.0000000000000D+00  0.0000000000000D+00
   361  3.6000000000000D+00  0.0000000000000D+00  0.0000000000000D+00
   362  3.6100000000000D+00  0.0000000000000D+00  0.0000000000000D+00
   363  3.6200000000000D+00  0.0000000000000D+00  0.0000000000000D+00
   364  3.6300000000000D+00  0.0000000000000D+00  0.0000000000000D+00
   365  3.6400000000000D+00  0.0000000000000D+00  0.0000000000000D+00
   366  3.6500000000000D+00  0.0000000000000D+00  0.0000000000000D+00
   367  3.6600000000000D+00  0.0000000000000D+00  0.0000000000000D+00
   368  3.6700000000000D+00  0.0000000000000D+00  0.0000000000000D+00
   369  3.6800000000000D+00  0.0000000000000D+00  0.0000000000000D+00
   370  3.6900000000000D+00  0.0000000000000D+00  0.0000000000000D+00
   371  3.7000000000000D+00  0.0000000000000D+00  0.0000000000000D+00
   372  3.7100000000000D+00  0.0000000000000D+00  0.0000000000000D+00
   373  3.7200000000000D+00  0.0000000000000D+00  0.0000000000000D+00
   374  3.7300000000000D+00  0.0000000000000D+00  0.0000000000000D+00
   375  3.7400000000000D+00  0.0000000000000D+00  0.0000000000000D+00
   376  3.7500000000000D+00  0.0000000000000D+00  0.0000000000000D+00
   377  3.7600000000000D+00  0.0000000000000D+00  0.0000000000000D+00
   378  3.7700000000000D+00  0.0000000000000D+00  0.0000000000000D+00
   379  3.7800000000000D+00  0.0000000000000D+00  0.0000000000000D+00
   380  3.7900000000000D+00  0.0000000000000D+00  0.0000000000000D+00
   381  3.8000000000000D+00  0.0000000000000D+00  0.0000000000000D+00
   382  3.8100000000000D+00  0.0000000000000D+00  0.0000000000000D+00
   383  3.8200000000000D+00  0.0000000000000D+00  0.0000000000000D+00
   384  3.8300000000000D+00  0.0000000000000D+00  0.0000000000000D+00
   385  3.8400000000000D+00  0.0000000000000D+00  0.0000000000000D+00
   386  3.8500000000000D+00  0.0000000000000D+00  0.0000000000000D+00
   387  3.8600000000000D+00  0.0000000000000D+00  0.0000000000000D+00
   388  3.8700000000000D+00  0.0000000000000D+00  0.0000000000000D+00
   389  3.8800000000000D+00  0.0000000000000D+00  0.0000000000000D+00
   390  3.8900000000000D+00  0.0000000000000D+00  0.0000000000000D+00
   391  3.9000000000000D+00  0.0000000000000D+00  0.0000000000000D+00
   392  3.9100000000000D+00  0.0000000000000D+00  0.0000000000000D+00
   393  3.9200000000000D+00  0.0000000000000D+00  0.0000000000000D+00
   394  3.9300000000000D+00  0.0000000000000D+00  0.0000000000000D+00
   395  3.9400000000000D+00  0.0000000000000D+00  0.0000000000000D+00
   396  3.9500000000000D+00  0.0000000000000D+00  0.0000000000000D+00
   397  3.9600000000000D+00  0.0000000000000D+00  0.0000000000000D+00
   398  3.9700000000000D+00  0.0000000000000D+00  0.0000000000000D+00
   399  3.9800000000000D+00  0.0000000000000D+00  0.0000000000000D+00
   400  3.9900000000000D+00  0.0000000000000D+00  0.0000000000000D+00
   401  4.0000000000000D+00  0.0000000000000D+00  0.0000000000000D+00
   402  4.0100000000000D+00  0.0000000000000D+00  0.0000000000000D+00
   403  4.0200000000000D+00  0.0000000000000D+00  0.0000000000000D+00
   404  4.0300000000000D+00  0.0000000000000D+00  0.0000000000000D+00
   405  4.0400000000000D+00  0.0000000000000D+00  0.0000000000000D+00
   406  4.0500000000000D+00  0.0000000000000D+00  0.0000000000000D+00
   407  4.0600000000000D+00  0.0000000000000D+00  0.0000000000000D+00
   408  4.0700000000000D+00  0.0000000000000D+00  0.0000000000000D+00
   409  4.0800000000000D+00  0.0000000000000D+00  0.0000000000000D+00
   410  4.0900000000000D+00  0.0000000000000D+00  0.0000000000000D+00
   411  4.1000000000000D+00  0.0000000000000D+00  0.0000000000000D+00
   412  4.1100000000000D+00  0.0000000000000D+00  0.0000000000000D+00
   413  4.1200000000000D+00  0.0000000000000D+00  0.0000000000000D+00
   414  4.1300000000000D+00  0.0000000000000D+00  0.0000000000000D+00
   415  4.1400000000000D+00  0.0000000000000D+00  0.0000000000000D+00
   416  4.1500000000000D+00  0.0000000000000D+00  0.0000000000000D+00
   417  4.1600000000000D+00  0.0000000000000D+00  0.0000000000000D+00
   418  4.1700000000000D+00  0.0000000000000D+00  0.0000000000000D+00
   419  4.1800000000000D+00  0.0000000000000D+00  0.0000000000000D+00
   420  4.1900000000000D+00  0.0000000000000D+00  0.0000000000000D+00
   421  4.2000000000000D+00  0.0000000000000D+00  0.0000000000000D+00
   422  4.2100000000000D+00  0.0000000000000D+00  0.0000000000000D+00