S     ONCVPSP-3.3.1  r_core=   2.12945   1.52480
     16.0000      6.0000      210904    zatom,zion,pspd
     8       2   1     4   600     0    pspcod,pspxc,lmax,lloc,mmax,r2well
  5.99000000  0.00000000  0.00000000    rchrg fchrg qchrg
     2     2     0     0     0    nproj
     1     1           extension_switch
   0                         8.9827180485381D+00  6.8073132037753D-01
     1  0.0000000000000D+00  5.0280668517644D-11 -1.0142822692849D-10
     2  1.0000000000000D-02  3.8571270783766D-02 -2.5601896451733D-02
     3  2.0000000000000D-02  7.7137735269262D-02 -5.1174909788966D-02
     4  3.0000000000000D-02  1.1569434716898D-01 -7.6689871674649D-02
     5  4.0000000000000D-02  1.5423558216502D-01 -1.0211704666359D-01
     6  5.0000000000000D-02  1.9275520375135D-01 -1.2742585696506D-01
     7  6.0000000000000D-02  2.3124603486936D-01 -1.5258461711352D-01
     8  7.0000000000000D-02  2.6969973720873D-01 -1.7756028173092D-01
     9  8.0000000000000D-02  3.0810659999520D-01 -2.0231820946249D-01
    10  9.0000000000000D-02  3.4645534002478D-01 -2.2682194604275D-01
    11  1.0000000000000D-01  3.8473291462981D-01 -2.5103302929918D-01
    12  1.1000000000000D-01  4.2292434917734D-01 -2.7491081872995D-01
    13  1.2000000000000D-01  4.6101258060447D-01 -2.9841235209894D-01
    14  1.3000000000000D-01  4.9897831838910D-01 -3.2149223127849D-01
    15  1.4000000000000D-01  5.3679992423953D-01 -3.4410253933816D-01
    16  1.5000000000000D-01  5.7445331166157D-01 -3.6619279062840D-01
    17  1.6000000000000D-01  6.1191186642976D-01 -3.8770991534267D-01
    18  1.7000000000000D-01  6.4914638884959D-01 -4.0859827976205D-01
    19  1.8000000000000D-01  6.8612505855142D-01 -4.2879974309439D-01
    20  1.9000000000000D-01  7.2281342240501D-01 -4.4825375151747D-01
    21  2.0000000000000D-01  7.5917440598754D-01 -4.6689746972468D-01
    22  2.1000000000000D-01  7.9516834887731D-01 -4.8466594995419D-01
    23  2.2000000000000D-01  8.3075306388316D-01 -5.0149233816016D-01
    24  2.3000000000000D-01  8.6588392015431D-01 -5.1730811666096D-01
    25  2.4000000000000D-01  9.0051394995064D-01 -5.3204338227417D-01
    26  2.5000000000000D-01  9.3459397868766D-01 -5.4562715862697D-01
    27  2.6000000000000D-01  9.6807277770722D-01 -5.5798774101207D-01
    28  2.7000000000000D-01  1.0008972390629D+00 -5.6905307184892D-01
    29  2.8000000000000D-01  1.0330125714518D+00 -5.7875114450781D-01
    30  2.9000000000000D-01  1.0643625162685D+00 -5.8701043296386D-01
    31  3.0000000000000D-01  1.0948895826122D+00 -5.9376034447084D-01
    32  3.1000000000000D-01  1.1245352999308D+00 -5.9893169218296D-01
    33  3.2000000000000D-01  1.1532404868556D+00 -6.0245718440922D-01
    34  3.3000000000000D-01  1.1809455346490D+00 -6.0427192696111D-01
    35  3.4000000000000D-01  1.2075907035734D+00 -6.0431393485171D-01
    36  3.5000000000000D-01  1.2331164303769D+00 -6.0252464942647D-01
    37  3.6000000000000D-01  1.2574636449996D+00 -5.9884945685226D-01
    38  3.7000000000000D-01  1.2805740945100D+00 -5.9323820376566D-01
    39  3.8000000000000D-01  1.3023906722139D+00 -5.8564570578370D-01
    40  3.9000000000000D-01  1.3228577498113D+00 -5.7603224451279D-01
    41  4.0000000000000D-01  1.3419215104276D+00 -5.6436404865533D-01
    42  4.1000000000000D-01  1.3595302803133D+00 -5.5061375480896D-01
    43  4.2000000000000D-01  1.3756348569787D+00 -5.3476084358243D-01
    44  4.3000000000000D-01  1.3901888315264D+00 -5.1679204671446D-01
    45  4.4000000000000D-01  1.4031489029488D+00 -4.9670172097868D-01
    46  4.5000000000000D-01  1.4144751821781D+00 -4.7449218478916D-01
    47  4.6000000000000D-01  1.4241314837114D+00 -4.5017401358654D-01
    48  4.7000000000000D-01  1.4320856026836D+00 -4.2376629028531D-01
    49  4.8000000000000D-01  1.4383095753238D+00 -3.9529680729732D-01
    50  4.9000000000000D-01  1.4427799208078D+00 -3.6480221691429D-01
    51  5.0000000000000D-01  1.4454778626133D+00 -3.3232812713344D-01
    52  5.1000000000000D-01  1.4463895275865D+00 -2.9792914034256D-01
    53  5.2000000000000D-01  1.4455061210483D+00 -2.6166883264525D-01
    54  5.3000000000000D-01  1.4428240763990D+00 -2.2361967199842D-01
    55  5.4000000000000D-01  1.4383451778221D+00 -1.8386287375619D-01
    56  5.5000000000000D-01  1.4320766548403D+00 -1.4248819265932D-01
    57  5.6000000000000D-01  1.4240312476441D+00 -9.9593650780653D-02
    58  5.7000000000000D-01  1.4142272422827D+00 -5.5285201428378D-02
    59  5.8000000000000D-01  1.4026884749926D+00 -9.6763295210865D-03
    60  5.9000000000000D-01  1.3894443051284D+00  3.7112410523808D-02
    61  6.0000000000000D-01  1.3745295563575D+00  8.4953917802305D-02
    62  6.1000000000000D-01  1.3579844259841D+00  1.3371512669914D-01
    63  6.2000000000000D-01  1.3398543624745D+00  1.8325764472214D-01
    64  6.3000000000000D-01  1.3201899114691D+00  2.3343844312619D-01
    65  6.4000000000000D-01  1.2990465307795D+00  2.8411059648417D-01
    66  6.5000000000000D-01  1.2764843750858D+00  3.3512406679147D-01
    67  6.6000000000000D-01  1.2525680512633D+00  3.8632652712500D-01
    68  6.7000000000000D-01  1.2273663454866D+00  4.3756421931627D-01
    69  6.8000000000000D-01  1.2009519234678D+00  4.8868283954799D-01
    70  6.9000000000000D-01  1.1734010053991D+00  5.3952844524712D-01
    71  7.0000000000000D-01  1.1447930173734D+00  5.8994837612826D-01
    72  7.1000000000000D-01  1.1152102212589D+00  6.3979218173761D-01
    73  7.2000000000000D-01  1.0847373251936D+00  6.8891254737208D-01
    74  7.3000000000000D-01  1.0534610770558D+00  7.3716620979393D-01
    75  7.4000000000000D-01  1.0214698434415D+00  7.8441485373767D-01
    76  7.5000000000000D-01  9.8885317684622D-01  8.3052597981196D-01
    77  7.6000000000000D-01  9.5570137390867D-01  8.7537373403919D-01
    78  7.7000000000000D-01  9.2210502771594D-01  9.1883968895149D-01
    79  7.8000000000000D-01  8.8815457730562D-01  9.6081356587559D-01
    80  7.9000000000000D-01  8.5393985761833D-01  1.0011938877926D+00
    81  8.0000000000000D-01  8.1954965326142D-01  1.0398885519543D+00
    82  8.1000000000000D-01  7.8507125953655D-01  1.0768153112757D+00
    83  8.2000000000000D-01  7.5059005426031D-01  1.1119021534073D+00
    84  8.3000000000000D-01  7.1618908396961D-01  1.1450875663173D+00
    85  8.4000000000000D-01  6.8194866814900D-01  1.1763206791910D+00
    86  8.5000000000000D-01  6.4794602514751D-01  1.2055612674724D+00
    87  8.6000000000000D-01  6.1425492346683D-01  1.2327796109447D+00
    88  8.7000000000000D-01  5.8094536210009D-01  1.2579561938571D+00
    89  8.8000000000000D-01  5.4808328358250D-01  1.2810812362702D+00
    90  8.9000000000000D-01  5.1573032338058D-01  1.3021540459963D+00
    91  9.0000000000000D-01  4.8394359919619D-01  1.3211821807634D+00
    92  9.1000000000000D-01  4.5277554369584D-01  1.3381804105287D+00
    93  9.2000000000000D-01  4.2227378409429D-01  1.3531694702027D+00
    94  9.3000000000000D-01  3.9248107192517D-01  1.3661745934253D+00
    95  9.4000000000000D-01  3.6343526571400D-01  1.3772238140349D+00
    96  9.5000000000000D-01  3.3516937401435D-01  1.3863460614955D+00
    97  9.6000000000000D-01  3.0771163960345D-01  1.3935688629092D+00
    98  9.7000000000000D-01  2.8108576343578D-01  1.3989165023095D+00
    99  9.8000000000000D-01  2.5531119136134D-01  1.4024076824534D+00
   100  9.9000000000000D-01  2.3040363733652D-01  1.4040553358377D+00
   101  1.0000000000000D+00  2.0637984088629D-01  1.4039119608004D+00
   102  1.0100000000000D+00  1.8324796549536D-01  1.4019714495405D+00
   103  1.0200000000000D+00  1.6101530779249D-01  1.3982431117361D+00
   104  1.0300000000000D+00  1.3969037088677D-01  1.3927726167859D+00
   105  1.0400000000000D+00  1.1927749566999D-01  1.3855897252262D+00
   106  1.0500000000000D+00  9.9779380586488D-02  1.3767319790390D+00
   107  1.0600000000000D+00  8.1196663638484D-02  1.3662401368340D+00
   108  1.0700000000000D+00  6.3528014453441D-02  1.3541584728640D+00
   109  1.0800000000000D+00  4.6770190013264D-02  1.3405346989536D+00
   110  1.0900000000000D+00  3.0918087267833D-02  1.3254198236514D+00
   111  1.1000000000000D+00  1.5964798956617D-02  1.3088680067820D+00
   112  1.1100000000000D+00  1.9016717363191D-03  1.2909363986480D+00
   113  1.1200000000000D+00 -1.1281633188957D-02  1.2716849643917D+00
   114  1.1300000000000D+00 -2.3597076787600D-02  1.2511762942765D+00
   115  1.1400000000000D+00 -3.5058176176381D-02  1.2294754008356D+00
   116  1.1500000000000D+00 -4.5679935809409D-02  1.2066495039990D+00
   117  1.1600000000000D+00 -5.5478775892741D-02  1.1827678054470D+00
   118  1.1700000000000D+00 -6.4472458093568D-02  1.1579012535478D+00
   119  1.1800000000000D+00 -7.2680008659022D-02  1.1321223002953D+00
   120  1.1900000000000D+00 -8.0121639095692D-02  1.1055046517216D+00
   121  1.2000000000000D+00 -8.6818664613010D-02  1.0781230132940D+00
   122  1.2100000000000D+00 -9.2793420561937D-02  1.0500528318098D+00
   123  1.2200000000000D+00 -9.8069177127903D-02  1.0213700352947D+00
   124  1.2300000000000D+00 -1.0267005256044D-01  9.9215077240660D-01
   125  1.2400000000000D+00 -1.0662092524833D-01  9.6247115280138D-01
   126  1.2500000000000D+00 -1.0994734495539D-01  9.3240698986551D-01
   127  1.2600000000000D+00 -1.1267544354382D-01  9.0203354721890D-01
   128  1.2700000000000D+00 -1.1483184552376D-01  8.7142529027709D-01
   129  1.2800000000000D+00 -1.1644357876117D-01  8.4065564410630D-01
   130  1.2900000000000D+00 -1.1753798568401D-01  8.0979675880496D-01
   131  1.3000000000000D+00 -1.1814263531808D-01  7.7891928347434D-01
   132  1.3100000000000D+00 -1.1828523647252D-01  7.4809214979264D-01
   133  1.3200000000000D+00 -1.1799355240244D-01  7.1738236621634D-01
   134  1.3300000000000D+00 -1.1729531724466D-01  6.8685482359684D-01
   135  1.3400000000000D+00 -1.1621815451832D-01  6.5657211300779D-01
   136  1.3500000000000D+00 -1.1478949798106D-01  6.2659435653807D-01
   137  1.3600000000000D+00 -1.1303651508383D-01  5.9697905155514D-01
   138  1.3700000000000D+00 -1.1098603328216D-01  5.6778092903041D-01
   139  1.3800000000000D+00 -1.0866446943341D-01  5.3905182635545D-01
   140  1.3900000000000D+00 -1.0609776246361D-01  5.1084057488722D-01
   141  1.4000000000000D+00 -1.0331130953011D-01  4.8319290263911D-01
   142  1.4100000000000D+00 -1.0032990581280D-01  4.5615135212369D-01
   143  1.4200000000000D+00 -9.7177688095817D-02  4.2975521349406D-01
   144  1.4300000000000D+00 -9.3878082281991D-02  4.0404047302758D-01
   145  1.4400000000000D+00 -9.0453754903883D-02  3.7903977670277D-01
   146  1.4500000000000D+00 -8.6926568776115D-02  3.5478240892327D-01
   147  1.4600000000000D+00 -8.3317542799367D-02  3.3129428593450D-01
   148  1.4700000000000D+00 -7.9646815995401D-02  3.0859796374572D-01
   149  1.4800000000000D+00 -7.5933615797111D-02  2.8671266015121D-01
   150  1.4900000000000D+00 -7.2196230570014D-02  2.6565429030580D-01
   151  1.5000000000000D+00 -6.8451986412045D-02  2.4543551552132D-01
   152  1.5100000000000D+00 -6.4717228126988D-02  2.2606580448036D-01
   153  1.5200000000000D+00 -6.1007304402941D-02  2.0755150647907D-01
   154  1.5300000000000D+00 -5.7336557065794D-02  1.8989593582620D-01
   155  1.5400000000000D+00 -5.3718314376055D-02  1.7309946682416D-01
   156  1.5500000000000D+00 -5.0164888252898D-02  1.5715963850197D-01
   157  1.5600000000000D+00 -4.6687575318587D-02  1.4207126833802D-01
   158  1.5700000000000D+00 -4.3296661664497D-02  1.2782657417611D-01
   159  1.5800000000000D+00 -4.0001431169152D-02  1.1441530346196D-01
   160  1.5900000000000D+00 -3.6810177278938D-02  1.0182486899363D-01
   161  1.6000000000000D+00 -3.3730218037301D-02  9.0040490291989D-02
   162  1.6100000000000D+00 -3.0767914270277D-02  7.9045339730283D-02
   163  1.6200000000000D+00 -2.7928690693896D-02  6.8820692586233D-02
   164  1.6300000000000D+00 -2.5217059830227D-02  5.9346080082120D-02
   165  1.6400000000000D+00 -2.2636648501697D-02  5.0599444673041D-02
   166  1.6500000000000D+00 -2.0190226760879D-02  4.2557296597077D-02
   167  1.6600000000000D+00 -1.7879739038491D-02  3.5194871050642D-02
   168  1.6700000000000D+00 -1.5706337341922D-02  2.8486284984170D-02
   169  1.6800000000000D+00 -1.3670416301313D-02  2.2404692993459D-02
   170  1.6900000000000D+00 -1.1771649877526D-02  1.6922441301568D-02
   171  1.7000000000000D+00 -1.0009029545261D-02  1.2011219442235D-02
   172  1.7100000000000D+00 -8.3809037516334D-03  7.6422086368017D-03
   173  1.7200000000000D+00 -6.8850184846730D-03  3.7862266526755D-03
   174  1.7300000000000D+00 -5.5185587378831D-03  4.1386810656526D-04
   175  1.7400000000000D+00 -4.2781907352239D-03 -2.5043597634171D-03
   176  1.7500000000000D+00 -3.1601046836666D-03 -4.9979069695394D-03
   177  1.7600000000000D+00 -2.1600579600236D-03 -7.0960559580674D-03
   178  1.7700000000000D+00 -1.2734184711241D-03 -8.8278033550276D-03
   179  1.7800000000000D+00 -4.9520815100055D-04 -1.0221747564018D-02
   180  1.7900000000000D+00  1.7985370163682D-04 -1.1305983636538D-02
   181  1.8000000000000D+00  7.5730722283690D-04 -1.2108004362435D-02
   182  1.8100000000000D+00  1.2429092357055D-03 -1.2654609022039D-02
   183  1.8200000000000D+00  1.6425909046256D-03 -1.2971818662741D-02
   184  1.8300000000000D+00  1.9624160808748D-03 -1.3084799047884D-02
   185  1.8400000000000D+00  2.2085403075131D-03 -1.3017790365610D-02
   186  1.8500000000000D+00  2.3871707029406D-03 -1.2794044315218D-02
   187  1.8600000000000D+00  2.5045267469430D-03 -1.2435768064109D-02
   188  1.8700000000000D+00  2.5668020845069D-03 -1.1964075045925D-02
   189  1.8800000000000D+00  2.5801274582557D-03 -1.1398942587757D-02
   190  1.8900000000000D+00  2.5505347549819D-03 -1.0759175674456D-02
   191  1.9000000000000D+00  2.4839223834055D-03 -1.0062377302741D-02
   192  1.9100000000000D+00  2.3860218342624D-03 -9.3249242118497D-03
   193  1.9200000000000D+00  2.2623657192990D-03 -8.5619486481776D-03
   194  1.9300000000000D+00  2.1182570966734D-03 -7.7873249304697D-03
   195  1.9400000000000D+00  1.9587403111595D-03 -7.0136610535369D-03
   196  1.9500000000000D+00  1.7885732659145D-03 -6.2522946230377D-03
   197  1.9600000000000D+00  1.6122011915169D-03 -5.5132927703778D-03
   198  1.9700000000000D+00  1.4337319728882D-03 -4.8054557125980D-03
   199  1.9800000000000D+00  1.2569129470595D-03 -4.1363234224197D-03
   200  1.9900000000000D+00  1.0851093339588D-03 -3.5121849862691D-03
   201  2.0000000000000D+00  9.2128415303637D-04 -2.9380903799155D-03
   202  2.0100000000000D+00  7.6797975922064D-04 -2.4178639333544D-03
   203  2.0200000000000D+00  6.2730092585294D-04 -1.9541193914266D-03
   204  2.0300000000000D+00  5.0089949256432D-04 -1.5482760361013D-03
   205  2.0400000000000D+00  3.8996060680904D-04 -1.2005752057060D-03
   206  2.0500000000000D+00  2.9519049585318D-04 -9.1009769544284D-04
   207  2.0600000000000D+00  2.1683988162710D-04 -6.7495275264651D-04
   208  2.0700000000000D+00  1.5457987329499D-04 -4.9171275915311D-04
   209  2.0800000000000D+00  1.0749801945277D-04 -3.5549059051759D-04
   210  2.0900000000000D+00  7.3914466227769D-05 -2.5931669875082D-04
   211  2.1000000000000D+00  5.3417656122988D-05 -2.0281144002588D-04
   212  2.1100000000000D+00  4.5104903061636D-05 -1.8439156955908D-04
   213  2.1200000000000D+00  4.2883029389665D-05 -1.8187161681825D-04
   214  2.1300000000000D+00  3.8156238384212D-05 -1.6310002605943D-04
   215  2.1400000000000D+00  2.3460781296459D-05 -1.0041257749944D-04
   216  2.1500000000000D+00  6.8903139558595D-06 -2.9442803514803D-05
   217  2.1600000000000D+00 -2.9440267377281D-06  1.2679671718081D-05
   218  2.1700000000000D+00 -3.6479507530597D-06  1.5716448268748D-05
   219  2.1800000000000D+00 -3.3362921161056D-07  1.4374462453946D-06
   220  2.1900000000000D+00  8.4917614440225D-07 -3.6727934697041D-06
   221  2.2000000000000D+00  6.2141844787306D-07 -2.6893284127083D-06
   222  2.2100000000000D+00 -4.3529436575840D-08  1.8602302191792D-07
   223  2.2200000000000D+00 -1.0973452084577D-07  4.6895041108287D-07
   224  2.2300000000000D+00 -4.2031925535370D-08  1.7962340935647D-07
   225  2.2400000000000D+00  0.0000000000000D+00  0.0000000000000D+00
   226  2.2500000000000D+00  0.0000000000000D+00  0.0000000000000D+00
   227  2.2600000000000D+00  0.0000000000000D+00  0.0000000000000D+00
   228  2.2700000000000D+00  0.0000000000000D+00  0.0000000000000D+00
   229  2.2800000000000D+00  0.0000000000000D+00  0.0000000000000D+00
   230  2.2900000000000D+00  0.0000000000000D+00  0.0000000000000D+00
   231  2.3000000000000D+00  0.0000000000000D+00  0.0000000000000D+00
   232  2.3100000000000D+00  0.0000000000000D+00  0.0000000000000D+00
   233  2.3200000000000D+00  0.0000000000000D+00  0.0000000000000D+00
   234  2.3300000000000D+00  0.0000000000000D+00  0.0000000000000D+00
   235  2.3400000000000D+00  0.0000000000000D+00  0.0000000000000D+00
   236  2.3500000000000D+00  0.0000000000000D+00  0.0000000000000D+00
   237  2.3600000000000D+00  0.0000000000000D+00  0.0000000000000D+00
   238  2.3700000000000D+00  0.0000000000000D+00  0.0000000000000D+00
   239  2.3800000000000D+00  0.0000000000000D+00  0.0000000000000D+00
   240  2.3900000000000D+00  0.0000000000000D+00  0.0000000000000D+00
   241  2.4000000000000D+00  0.0000000000000D+00  0.0000000000000D+00
   242  2.4100000000000D+00  0.0000000000000D+00  0.0000000000000D+00
   243  2.4200000000000D+00  0.0000000000000D+00  0.0000000000000D+00
   244  2.4300000000000D+00  0.0000000000000D+00  0.0000000000000D+00
   245  2.4400000000000D+00  0.0000000000000D+00  0.0000000000000D+00
   246  2.4500000000000D+00  0.0000000000000D+00  0.0000000000000D+00
   247  2.4600000000000D+00  0.0000000000000D+00  0.0000000000000D+00
   248  2.4700000000000D+00  0.0000000000000D+00  0.0000000000000D+00
   249  2.4800000000000D+00  0.0000000000000D+00  0.0000000000000D+00
   250  2.4900000000000D+00  0.0000000000000D+00  0.0000000000000D+00
   251  2.5000000000000D+00  0.0000000000000D+00  0.0000000000000D+00
   252  2.5100000000000D+00  0.0000000000000D+00  0.0000000000000D+00
   253  2.5200000000000D+00  0.0000000000000D+00  0.0000000000000D+00
   254  2.5300000000000D+00  0.0000000000000D+00  0.0000000000000D+00
   255  2.5400000000000D+00  0.0000000000000D+00  0.0000000000000D+00
   256  2.5500000000000D+00  0.0000000000000D+00  0.0000000000000D+00
   257  2.5600000000000D+00  0.0000000000000D+00  0.0000000000000D+00
   258  2.5700000000000D+00  0.0000000000000D+00  0.0000000000000D+00
   259  2.5800000000000D+00  0.0000000000000D+00  0.0000000000000D+00
   260  2.5900000000000D+00  0.0000000000000D+00  0.0000000000000D+00
   261  2.6000000000000D+00  0.0000000000000D+00  0.0000000000000D+00
   262  2.6100000000000D+00  0.0000000000000D+00  0.0000000000000D+00
   263  2.6200000000000D+00  0.0000000000000D+00  0.0000000000000D+00
   264  2.6300000000000D+00  0.0000000000000D+00  0.0000000000000D+00
   265  2.6400000000000D+00  0.0000000000000D+00  0.0000000000000D+00
   266  2.6500000000000D+00  0.0000000000000D+00  0.0000000000000D+00
   267  2.6600000000000D+00  0.0000000000000D+00  0.0000000000000D+00
   268  2.6700000000000D+00  0.0000000000000D+00  0.0000000000000D+00
   269  2.6800000000000D+00  0.0000000000000D+00  0.0000000000000D+00
   270  2.6900000000000D+00  0.0000000000000D+00  0.0000000000000D+00
   271  2.7000000000000D+00  0.0000000000000D+00  0.0000000000000D+00
   272  2.7100000000000D+00  0.0000000000000D+00  0.0000000000000D+00
   273  2.7200000000000D+00  0.0000000000000D+00  0.0000000000000D+00
   274  2.7300000000000D+00  0.0000000000000D+00  0.0000000000000D+00
   275  2.7400000000000D+00  0.0000000000000D+00  0.0000000000000D+00
   276  2.7500000000000D+00  0.0000000000000D+00  0.0000000000000D+00
   277  2.7600000000000D+00  0.0000000000000D+00  0.0000000000000D+00
   278  2.7700000000000D+00  0.0000000000000D+00  0.0000000000000D+00
   279  2.7800000000000D+00  0.0000000000000D+00  0.0000000000000D+00
   280  2.7900000000000D+00  0.0000000000000D+00  0.0000000000000D+00
   281  2.8000000000000D+00  0.0000000000000D+00  0.0000000000000D+00
   282  2.8100000000000D+00  0.0000000000000D+00  0.0000000000000D+00
   283  2.8200000000000D+00  0.0000000000000D+00  0.0000000000000D+00
   284  2.8300000000000D+00  0.0000000000000D+00  0.0000000000000D+00
   285  2.8400000000000D+00  0.0000000000000D+00  0.0000000000000D+00
   286  2.8500000000000D+00  0.0000000000000D+00  0.0000000000000D+00
   287  2.8600000000000D+00  0.0000000000000D+00  0.0000000000000D+00
   288  2.8700000000000D+00  0.0000000000000D+00  0.0000000000000D+00
   289  2.8800000000000D+00  0.0000000000000D+00  0.0000000000000D+00
   290  2.8900000000000D+00  0.0000000000000D+00  0.0000000000000D+00
   291  2.9000000000000D+00  0.0000000000000D+00  0.0000000000000D+00
   292  2.9100000000000D+00  0.0000000000000D+00  0.0000000000000D+00
   293  2.9200000000000D+00  0.0000000000000D+00  0.0000000000000D+00
   294  2.9300000000000D+00  0.0000000000000D+00  0.0000000000000D+00
   295  2.9400000000000D+00  0.0000000000000D+00  0.0000000000000D+00
   296  2.9500000000000D+00  0.0000000000000D+00  0.0000000000000D+00
   297  2.9600000000000D+00  0.0000000000000D+00  0.0000000000000D+00
   298  2.9700000000000D+00  0.0000000000000D+00  0.0000000000000D+00
   299  2.9800000000000D+00  0.0000000000000D+00  0.0000000000000D+00
   300  2.9900000000000D+00  0.0000000000000D+00  0.0000000000000D+00
   301  3.0000000000000D+00  0.0000000000000D+00  0.0000000000000D+00
   302  3.0100000000000D+00  0.0000000000000D+00  0.0000000000000D+00
   303  3.0200000000000D+00  0.0000000000000D+00  0.0000000000000D+00
   304  3.0300000000000D+00  0.0000000000000D+00  0.0000000000000D+00
   305  3.0400000000000D+00  0.0000000000000D+00  0.0000000000000D+00
   306  3.0500000000000D+00  0.0000000000000D+00  0.0000000000000D+00
   307  3.0600000000000D+00  0.0000000000000D+00  0.0000000000000D+00
   308  3.0700000000000D+00  0.0000000000000D+00  0.0000000000000D+00
   309  3.0800000000000D+00  0.0000000000000D+00  0.0000000000000D+00
   310  3.0900000000000D+00  0.0000000000000D+00  0.0000000000000D+00
   311  3.1000000000000D+00  0.0000000000000D+00  0.0000000000000D+00
   312  3.1100000000000D+00  0.0000000000000D+00  0.0000000000000D+00
   313  3.1200000000000D+00  0.0000000000000D+00  0.0000000000000D+00
   314  3.1300000000000D+00  0.0000000000000D+00  0.0000000000000D+00
   315  3.1400000000000D+00  0.0000000000000D+00  0.0000000000000D+00
   316  3.1500000000000D+00  0.0000000000000D+00  0.0000000000000D+00
   317  3.1600000000000D+00  0.0000000000000D+00  0.0000000000000D+00
   318  3.1700000000000D+00  0.0000000000000D+00  0.0000000000000D+00
   319  3.1800000000000D+00  0.0000000000000D+00  0.0000000000000D+00
   320  3.1900000000000D+00  0.0000000000000D+00  0.0000000000000D+00
   321  3.2000000000000D+00  0.0000000000000D+00  0.0000000000000D+00
   322  3.2100000000000D+00  0.0000000000000D+00  0.0000000000000D+00
   323  3.2200000000000D+00  0.0000000000000D+00  0.0000000000000D+00
   324  3.2300000000000D+00  0.0000000000000D+00  0.0000000000000D+00
   325  3.2400000000000D+00  0.0000000000000D+00  0.0000000000000D+00
   326  3.2500000000000D+00  0.0000000000000D+00  0.0000000000000D+00
   327  3.2600000000000D+00  0.0000000000000D+00  0.0000000000000D+00
   328  3.2700000000000D+00  0.0000000000000D+00  0.0000000000000D+00
   329  3.2800000000000D+00  0.0000000000000D+00  0.0000000000000D+00
   330  3.2900000000000D+00  0.0000000000000D+00  0.0000000000000D+00
   331  3.3000000000000D+00  0.0000000000000D+00  0.0000000000000D+00
   332  3.3100000000000D+00  0.0000000000000D+00  0.0000000000000D+00
   333  3.3200000000000D+00  0.0000000000000D+00  0.0000000000000D+00
   334  3.3300000000000D+00  0.0000000000000D+00  0.0000000000000D+00
   335  3.3400000000000D+00  0.0000000000000D+00  0.0000000000000D+00
   336  3.3500000000000D+00  0.0000000000000D+00  0.0000000000000D+00
   337  3.3600000000000D+00  0.0000000000000D+00  0.0000000000000D+00
   338  3.3700000000000D+00  0.0000000000000D+00  0.0000000000000D+00
   339  3.3800000000000D+00  0.0000000000000D+00  0.0000000000000D+00
   340  3.3900000000000D+00  0.0000000000000D+00  0.0000000000000D+00
   341  3.4000000000000D+00  0.0000000000000D+00  0.0000000000000D+00
   342  3.4100000000000D+00  0.0000000000000D+00  0.0000000000000D+00
   343  3.4200000000000D+00  0.0000000000000D+00  0.0000000000000D+00
   344  3.4300000000000D+00  0.0000000000000D+00  0.0000000000000D+00
   345  3.4400000000000D+00  0.0000000000000D+00  0.0000000000000D+00
   346  3.4500000000000D+00  0.0000000000000D+00  0.0000000000000D+00
   347  3.4600000000000D+00  0.0000000000000D+00  0.0000000000000D+00
   348  3.4700000000000D+00  0.0000000000000D+00  0.0000000000000D+00
   349  3.4800000000000D+00  0.0000000000000D+00  0.0000000000000D+00
   350  3.4900000000000D+00  0.0000000000000D+00  0.0000000000000D+00
   351  3.5000000000000D+00  0.0000000000000D+00  0.0000000000000D+00
   352  3.5100000000000D+00  0.0000000000000D+00  0.0000000000000D+00
   353  3.5200000000000D+00  0.0000000000000D+00  0.0000000000000D+00
   354  3.5300000000000D+00  0.0000000000000D+00  0.0000000000000D+00
   355  3.5400000000000D+00  0.0000000000000D+00  0.0000000000000D+00
   356  3.5500000000000D+00  0.0000000000000D+00  0.0000000000000D+00
   357  3.5600000000000D+00  0.0000000000000D+00  0.0000000000000D+00
   358  3.5700000000000D+00  0.0000000000000D+00  0.0000000000000D+00
   359  3.5800000000000D+00  0.0000000000000D+00  0.0000000000000D+00
   360  3.5900000000000D+00  0.0000000000000D+00  0.0000000000000D+00
   361  3.6000000000000D+00  0.0000000000000D+00  0.0000000000000D+00
   362  3.6100000000000D+00  0.0000000000000D+00  0.0000000000000D+00
   363  3.6200000000000D+00  0.0000000000000D+00  0.0000000000000D+00
   364  3.6300000000000D+00  0.0000000000000D+00  0.0000000000000D+00
   365  3.6400000000000D+00  0.0000000000000D+00  0.0000000000000D+00
   366  3.6500000000000D+00  0.0000000000000D+00  0.0000000000000D+00
   367  3.6600000000000D+00  0.0000000000000D+00  0.0000000000000D+00
   368  3.6700000000000D+00  0.0000000000000D+00  0.0000000000000D+00
   369  3.6800000000000D+00  0.0000000000000D+00  0.0000000000000D+00
   370  3.6900000000000D+00  0.0000000000000D+00  0.0000000000000D+00
   371  3.7000000000000D+00  0.0000000000000D+00  0.0000000000000D+00
   372  3.7100000000000D+00  0.0000000000000D+00  0.0000000000000D+00
   373  3.7200000000000D+00  0.0000000000000D+00  0.0000000000000D+00
   374  3.7300000000000D+00  0.0000000000000D+00  0.0000000000000D+00
   375  3.7400000000000D+00  0.0000000000000D+00  0.0000000000000D+00
   376  3.7500000000000D+00  0.0000000000000D+00  0.0000000000000D+00
   377  3.7600000000000D+00  0.0000000000000D+00  0.0000000000000D+00
   378  3.7700000000000D+00  0.0000000000000D+00  0.0000000000000D+00
   379  3.7800000000000D+00  0.0000000000000D+00  0.0000000000000D+00
   380  3.7900000000000D+00  0.0000000000000D+00  0.0000000000000D+00
   381  3.8000000000000D+00  0.0000000000000D+00  0.0000000000000D+00
   382  3.8100000000000D+00  0.0000000000000D+00  0.0000000000000D+00
   383  3.8200000000000D+00  0.0000000000000D+00  0.0000000000000D+00
   384  3.8300000000000D+00  0.0000000000000D+00  0.0000000000000D+00
   385  3.8400000000000D+00  0.0000000000000D+00  0.0000000000000D+00
   386  3.8500000000000D+00  0.0000000000000D+00  0.0000000000000D+00
   387  3.8600000000000D+00  0.0000000000000D+00  0.0000000000000D+00
   388  3.8700000000000D+00  0.0000000000000D+00  0.0000000000000D+00
   389  3.8800000000000D+00  0.0000000000000D+00  0.0000000000000D+00
   390  3.8900000000000D+00  0.0000000000000D+00  0.0000000000000D+00
   391  3.9000000000000D+00  0.0000000000000D+00  0.0000000000000D+00
   392  3.9100000000000D+00  0.0000000000000D+00  0.0000000000000D+00
   393  3.9200000000000D+00  0.0000000000000D+00  0.0000000000000D+00
   394  3.9300000000000D+00  0.0000000000000D+00  0.0000000000000D+00
   395  3.9400000000000D+00  0.0000000000000D+00  0.0000000000000D+00
   396  3.9500000000000D+00  0.0000000000000D+00  0.0000000000000D+00
   397  3.9600000000000D+00  0.0000000000000D+00  0.0000000000000D+00
   398  3.9700000000000D+00  0.0000000000000D+00  0.0000000000000D+00
   399  3.9800000000000D+00  0.0000000000000D+00  0.0000000000000D+00
   400  3.9900000000000D+00  0.0000000000000D+00  0.0000000000000D+00
   401  4.0000000000000D+00  0.0000000000000D+00  0.0000000000000D+00
   402  4.0100000000000D+00  0.0000000000000D+00  0.0000000000000D+00
   403  4.0200000000000D+00  0.0000000000000D+00  0.0000000000000D+00
   404  4.0300000000000D+00  0.0000000000000D+00  0.0000000000000D+00
   405  4.0400000000000D+00  0.0000000000000D+00  0.0000000000000D+00
   406  4.0500000000000D+00  0.0000000000000D+00  0.0000000000000D+00
   407  4.0600000000000D+00  0.0000000000000D+00  0.0000000000000D+00
   408  4.0700000000000D+00  0.0000000000000D+00  0.0000000000000D+00
   409  4.0800000000000D+00  0.0000000000000D+00  0.0000000000000D+00
   410  4.0900000000000D+00  0.0000000000000D+00  0.0000000000000D+00
   411  4.1000000000000D+00  0.0000000000000D+00  0.0000000000000D+00
   412  4.1100000000000D+00  0.0000000000000D+00  0.0000000000000D+00
   413  4.1200000000000D+00  0.0000000000000D+00  0.0000000000000D+00
   414  4.1300000000000D+00  0.0000000000000D+00  0.0000000000000D+00
   415  4.1400000000000D+00  0.0000000000000D+00  0.0000000000000D+00
   416  4.1500000000000D+00  0.0000000000000D+00  0.0000000000000D+00
   417  4.1600000000000D+00  0.0000000000000D+00  0.0000000000000D+00
   418  4.1700000000000D+00  0.0000000000000D+00  0.0000000000000D+00
   419  4.1800000000000D+00  0.0000000000000D+00  0.0000000000000D+00
   420  4.1900000000000D+00  0.0000000000000D+00  0.0000000000000D+00
   421  4.2000000000000D+00  0.0000000000000D+00  0.0000000000000D+00
   422  4.2100000000000D+00  0.0000000000000D+00  0.0000000000000D+00
   423  4.2200000000000D+00  0.0000000000000D+00  0.0000000000000D+00