Sc    ONCVPSP-3.3.1  r_core=   2.91081   2.94574   2.37654
     21.0000     11.0000      210904    zatom,zion,pspd
     8       2   2     4   600     0    pspcod,pspxc,lmax,lloc,mmax,r2well
  5.99000000  0.00000000  0.00000000    rchrg fchrg qchrg
     2     2     2     0    nproj
     3     1           extension_switch
     3     2     0    nprojso
   0                        -3.7101123938836D-01  1.2768724322396D+00
     1  0.0000000000000D+00 -2.3137047833188D-12 -1.2200240817606D-12
     2  1.0000000000000D-02  1.5977419752160D-02  4.8065124731514D-02
     3  2.0000000000000D-02  3.1937346642203D-02  9.6064730792881D-02
     4  3.0000000000000D-02  4.7862345536901D-02  1.4393340344543D-01
     5  4.0000000000000D-02  6.3735096568204D-02  1.9160593563451D-01
     6  5.0000000000000D-02  7.9538452284907D-02  2.3901743138438D-01
     7  6.0000000000000D-02  9.5255494228841D-02  2.8610340865759D-01
     8  7.0000000000000D-02  1.1086958874647D-01  3.3279990150151D-01
     9  8.0000000000000D-02  1.2636444184910D-01  3.7904356130644D-01
    10  9.0000000000000D-02  1.4172415293777D-01  4.2477175700069D-01
    11  1.0000000000000D-01  1.5693326721233D-01  4.6992267401035D-01
    12  1.1000000000000D-01  1.7197682658825D-01  5.1443541181337D-01
    13  1.2000000000000D-01  1.8684041894920D-01  5.5825007992002D-01
    14  1.3000000000000D-01  2.0151022556849D-01  6.0130789211456D-01
    15  1.4000000000000D-01  2.1597306653802D-01  6.4355125879604D-01
    16  1.5000000000000D-01  2.3021644404965D-01  6.8492387725935D-01
    17  1.6000000000000D-01  2.4422858338010D-01  7.2537081976132D-01
    18  1.7000000000000D-01  2.5799847143797D-01  7.6483861922039D-01
    19  1.8000000000000D-01  2.7151589273859D-01  8.0327535240273D-01
    20  1.9000000000000D-01  2.8477146268052D-01  8.4063072045184D-01
    21  2.0000000000000D-01  2.9775665800579D-01  8.7685612662341D-01
    22  2.1000000000000D-01  3.1046384433469D-01  9.1190475109226D-01
    23  2.2000000000000D-01  3.2288630067499D-01  9.4573162270296D-01
    24  2.3000000000000D-01  3.3501824081491D-01  9.7829368754144D-01
    25  2.4000000000000D-01  3.4685483151886D-01  1.0095498742104D+00
    26  2.5000000000000D-01  3.5839220745498D-01  1.0394611556968D+00
    27  2.6000000000000D-01  3.6962748279387D-01  1.0679906077266D+00
    28  2.7000000000000D-01  3.8055875942831D-01  1.0951034635068D+00
    29  2.8000000000000D-01  3.9118513177451D-01  1.1207671647627D+00
    30  2.9000000000000D-01  4.0150668812638D-01  1.1449514089834D+00
    31  3.0000000000000D-01  4.1152450854518D-01  1.1676281927965D+00
    32  3.1000000000000D-01  4.2124065927828D-01  1.1887718513995D+00
    33  3.2000000000000D-01  4.3065818371168D-01  1.2083590939821D+00
    34  3.3000000000000D-01  4.3978108987249D-01  1.2263690350799D+00
    35  3.4000000000000D-01  4.4861433450853D-01  1.2427832218111D+00
    36  3.5000000000000D-01  4.5716380378376D-01  1.2575856569489D+00
    37  3.6000000000000D-01  4.6543629063917D-01  1.2707628177964D+00
    38  3.7000000000000D-01  4.7343946888006D-01  1.2823036708326D+00
    39  3.8000000000000D-01  4.8118186406137D-01  1.2921996821109D+00
    40  3.9000000000000D-01  4.8867282125384D-01  1.3004448233942D+00
    41  4.0000000000000D-01  4.9592246978414D-01  1.3070355740229D+00
    42  4.1000000000000D-01  5.0294168505251D-01  1.3119709185160D+00
    43  4.2000000000000D-01  5.0974204754183D-01  1.3152523399165D+00
    44  4.3000000000000D-01  5.1633579914152D-01  1.3168838088974D+00
    45  4.4000000000000D-01  5.2273579691938D-01  1.3168717686547D+00
    46  4.5000000000000D-01  5.2895546448369D-01  1.3152251156185D+00
    47  4.6000000000000D-01  5.3500874108639D-01  1.3119551760250D+00
    48  4.7000000000000D-01  5.4091002862668D-01  1.3070756783951D+00
    49  4.8000000000000D-01  5.4667413672231D-01  1.3006027219772D+00
    50  4.9000000000000D-01  5.5231622602296D-01  1.2925547412165D+00
    51  5.0000000000000D-01  5.5785174994733D-01  1.2829524663201D+00
    52  5.1000000000000D-01  5.6329639503165D-01  1.2718188799978D+00
    53  5.2000000000000D-01  5.6866602008317D-01  1.2591791704605D+00
    54  5.3000000000000D-01  5.7397659433763D-01  1.2450606807700D+00
    55  5.4000000000000D-01  5.7924413482386D-01  1.2294928546368D+00
    56  5.5000000000000D-01  5.8448464314314D-01  1.2125071787718D+00
    57  5.6000000000000D-01  5.8971404187380D-01  1.1941371219027D+00
    58  5.7000000000000D-01  5.9494811081467D-01  1.1744180705721D+00
    59  5.8000000000000D-01  6.0020242328256D-01  1.1533872618415D+00
    60  5.9000000000000D-01  6.0549228268046D-01  1.1310837130297D+00
    61  6.0000000000000D-01  6.1083265955389D-01  1.1075481486200D+00
    62  6.1000000000000D-01  6.1623812935223D-01  1.0828229244770D+00
    63  6.2000000000000D-01  6.2172281111167D-01  1.0569519495162D+00
    64  6.3000000000000D-01  6.2730030727422D-01  1.0299806049777D+00
    65  6.4000000000000D-01  6.3298364485547D-01  1.0019556614562D+00
    66  6.5000000000000D-01  6.3878521817050D-01  9.7292519384642D-01
    67  6.6000000000000D-01  6.4471673332353D-01  9.4293849436556D-01
    68  6.7000000000000D-01  6.5078915466289D-01  9.1204598381738D-01
    69  6.8000000000000D-01  6.5701265339713D-01  8.8029912126724D-01
    70  6.9000000000000D-01  6.6339655856285D-01  8.4775031229892D-01
    71  7.0000000000000D-01  6.6994931052773D-01  8.1445281602694D-01
    72  7.1000000000000D-01  6.7667841720560D-01  7.8046065104052D-01
    73  7.2000000000000D-01  6.8359041315198D-01  7.4582850045662D-01
    74  7.3000000000000D-01  6.9069082170047D-01  7.1061161626146D-01
    75  7.4000000000000D-01  6.9798412029099D-01  6.7486572312042D-01
    76  7.5000000000000D-01  7.0547370913132D-01  6.3864692183749D-01
    77  7.6000000000000D-01  7.1316188332311D-01  6.0201159264531D-01
    78  7.7000000000000D-01  7.2104980857273D-01  5.6501629850725D-01
    79  7.8000000000000D-01  7.2913750059606D-01  5.2771768861204D-01
    80  7.9000000000000D-01  7.3742380831468D-01  4.9017240224132D-01
    81  8.0000000000000D-01  7.4590640092856D-01  4.5243697318881D-01
    82  8.1000000000000D-01  7.5458175893805D-01  4.1456773490856D-01
    83  8.2000000000000D-01  7.6344516917485D-01  3.7662072656780D-01
    84  8.3000000000000D-01  7.7249072388853D-01  3.3865160017778D-01
    85  8.4000000000000D-01  7.8171132392170D-01  3.0071552897309D-01
    86  8.5000000000000D-01  7.9109868599325D-01  2.6286711720740D-01
    87  8.6000000000000D-01  8.0064335409510D-01  2.2516031152998D-01
    88  8.7000000000000D-01  8.1033471499406D-01  1.8764831410382D-01
    89  8.8000000000000D-01  8.2016101781619D-01  1.5038349762217D-01
    90  8.9000000000000D-01  8.3010939767702D-01  1.1341732237611D-01
    91  9.0000000000000D-01  8.4016590330690D-01  7.6800255520988D-02
    92  9.1000000000000D-01  8.5031552860662D-01  4.0581692684772D-02
    93  9.2000000000000D-01  8.6054224805474D-01  4.8098820561311D-03
    94  9.3000000000000D-01  8.7082905587413D-01 -3.0468148915518D-02
    95  9.4000000000000D-01  8.8115800885186D-01 -6.5206664081436D-02
    96  9.5000000000000D-01  8.9151027269322D-01 -9.9361286295998D-02
    97  9.6000000000000D-01  9.0186617177784D-01 -1.3288906214591D-01
    98  9.7000000000000D-01  9.1220524217329D-01 -1.6574852359853D-01
    99  9.8000000000000D-01  9.2250628774924D-01 -1.9789974646825D-01
   100  9.9000000000000D-01  9.3274743922404D-01 -2.2930440560699D-01
   101  1.0000000000000D+00  9.4290621596381D-01 -2.5992582673166D-01
   102  1.0100000000000D+00  9.5295959034408D-01 -2.8972903480910D-01
   103  1.0200000000000D+00  9.6288405447364D-01 -3.1868079892616D-01
   104  1.0300000000000D+00  9.7265568907116D-01 -3.4674967358017D-01
   105  1.0400000000000D+00  9.8225023427613D-01 -3.7390603633289D-01
   106  1.0500000000000D+00  9.9164316216822D-01 -4.0012212177862D-01
   107  1.0600000000000D+00  1.0008097507615D+00 -4.2537205178495D-01
   108  1.0700000000000D+00  1.0097251592336D+00 -4.4963186197285D-01
   109  1.0800000000000D+00  1.0183645041443D+00 -4.7287952441032D-01
   110  1.0900000000000D+00  1.0267029363939D+00 -4.9509496650237D-01
   111  1.1000000000000D+00  1.0347157186663D+00 -5.1626008606735D-01
   112  1.1100000000000D+00  1.0423783031003D+00 -5.3635876259793D-01
   113  1.1200000000000D+00  1.0496664089300D+00 -5.5537686471337D-01
   114  1.1300000000000D+00  1.0565560998328D+00 -5.7330225381691D-01
   115  1.1400000000000D+00  1.0630238607263D+00 -5.9012478398050D-01
   116  1.1500000000000D+00  1.0690466737514D+00 -6.0583629808577D-01
   117  1.1600000000000D+00  1.0746020931852D+00 -6.2043062025911D-01
   118  1.1700000000000D+00  1.0796683190274D+00 -6.3390354464551D-01
   119  1.1800000000000D+00  1.0842242690078D+00 -6.4625282057284D-01
   120  1.1900000000000D+00  1.0882496487659D+00 -6.5747813416525D-01
   121  1.2000000000000D+00  1.0917250199617D+00 -6.6758108647243D-01
   122  1.2100000000000D+00  1.0946318660816D+00 -6.7656516818807D-01
   123  1.2200000000000D+00  1.0969526557078D+00 -6.8443573103479D-01
   124  1.2300000000000D+00  1.0986709030321D+00 -6.9119995590298D-01
   125  1.2400000000000D+00  1.0997712254037D+00 -6.9686681783555D-01
   126  1.2500000000000D+00  1.1002393977040D+00 -7.0144704795431D-01
   127  1.2600000000000D+00  1.1000624033598D+00 -7.0495309243214D-01
   128  1.2700000000000D+00  1.0992284818146D+00 -7.0739906862008D-01
   129  1.2800000000000D+00  1.0977271722876D+00 -7.0880071844080D-01
   130  1.2900000000000D+00  1.0955493536625D+00 -7.0917535916701D-01
   131  1.3000000000000D+00  1.0926872803711D+00 -7.0854183170824D-01
   132  1.3100000000000D+00  1.0891346141334D+00 -7.0692044653007D-01
   133  1.3200000000000D+00  1.0848864514430D+00 -7.0433292733654D-01
   134  1.3300000000000D+00  1.0799393467062D+00 -7.0080235265013D-01
   135  1.3400000000000D+00  1.0742913309358D+00 -6.9635309542265D-01
   136  1.3500000000000D+00  1.0679419259410D+00 -6.9101076081786D-01
   137  1.3600000000000D+00  1.0608921539667D+00 -6.8480212230645D-01
   138  1.3700000000000D+00  1.0531445427252D+00 -6.7775505621447D-01
   139  1.3800000000000D+00  1.0447031258250D+00 -6.6989847487165D-01
   140  1.3900000000000D+00  1.0355734385805D+00 -6.6126225850316D-01
   141  1.4000000000000D+00  1.0257625092099D+00 -6.5187718601191D-01
   142  1.4100000000000D+00  1.0152788454784D+00 -6.4177486479720D-01
   143  1.4200000000000D+00  1.0041324167955D+00 -6.3098765975662D-01
   144  1.4300000000000D+00  9.9233463186466D-01 -6.1954862161721D-01
   145  1.4400000000000D+00  9.7989831195018D-01 -6.0749141474024D-01
   146  1.4500000000000D+00  9.6683765984596D-01 -5.9485024454683D-01
   147  1.4600000000000D+00  9.5316822469581D-01 -5.8165978470168D-01
   148  1.4700000000000D+00  9.3890686273838D-01 -5.6795510420379D-01
   149  1.4800000000000D+00  9.2407169417525D-01 -5.5377159451488D-01
   150  1.4900000000000D+00  9.0868205627734D-01 -5.3914489686819D-01
   151  1.5000000000000D+00  8.9275845292128D-01 -5.2411082988919D-01
   152  1.5100000000000D+00  8.7632250074312D-01 -5.0870531765559D-01
   153  1.5200000000000D+00  8.5939687208190D-01 -4.9296431833382D-01
   154  1.5300000000000D+00  8.4200523496712D-01 -4.7692375349836D-01
   155  1.5400000000000D+00  8.2417219031266D-01 -4.6061943827713D-01
   156  1.5500000000000D+00  8.0592320661077D-01 -4.4408701241153D-01
   157  1.5600000000000D+00  7.8728455231029D-01 -4.2736187236851D-01
   158  1.5700000000000D+00  7.6828322617467D-01 -4.1047910458819D-01
   159  1.5800000000000D+00  7.4894688584417D-01 -3.9347341998568D-01
   160  1.5900000000000D+00  7.2930377488848D-01 -3.7637908979308D-01
   161  1.6000000000000D+00  7.0938264860795D-01 -3.5922988283545D-01
   162  1.6100000000000D+00  6.8921269886459D-01 -3.4205900433170D-01
   163  1.6200000000000D+00  6.6882347822024D-01 -3.2489903628671D-01
   164  1.6300000000000D+00  6.4824482366518D-01 -3.0778187957114D-01
   165  1.6400000000000D+00  6.2750678021824D-01 -2.9073869772671D-01
   166  1.6500000000000D+00  6.0663952469106D-01 -2.7379986259839D-01
   167  1.6600000000000D+00  5.8567328988540D-01 -2.5699490180302D-01
   168  1.6700000000000D+00  5.6463828953237D-01 -2.4035244813922D-01
   169  1.6800000000000D+00  5.4356464421611D-01 -2.2390019092149D-01
   170  1.6900000000000D+00  5.2248230861118D-01 -2.0766482934401D-01
   171  1.7000000000000D+00  5.0142100023875D-01 -1.9167202783370D-01
   172  1.7100000000000D+00  4.8041013009209D-01 -1.7594637349458D-01
   173  1.7200000000000D+00  4.5947873529219D-01 -1.6051133558444D-01
   174  1.7300000000000D+00  4.3865541414105D-01 -1.4538922711719D-01
   175  1.7400000000000D+00  4.1796826368890D-01 -1.3060116851943D-01
   176  1.7500000000000D+00  3.9744482018871D-01 -1.1616705341967D-01
   177  1.7600000000000D+00  3.7711200251762D-01 -1.0210551649390D-01
   178  1.7700000000000D+00  3.5699605892453D-01 -8.8433903423460D-02
   179  1.7800000000000D+00  3.3712251716540D-01 -7.5168242892832D-02
   180  1.7900000000000D+00  3.1751613834023D-01 -6.2323220652744D-02
   181  1.8000000000000D+00  2.9820087450655D-01 -4.9912155589736D-02
   182  1.8100000000000D+00  2.7919983029456D-01 -3.7946977788453D-02
   183  1.8200000000000D+00  2.6053522865629D-01 -2.6438208550790D-02
   184  1.8300000000000D+00  2.4222838083034D-01 -1.5394942312223D-02
   185  1.8400000000000D+00  2.2429966076689D-01 -4.8248304490911D-03
   186  1.8500000000000D+00  2.0676848388959D-01  5.2659331316860D-03
   187  1.8600000000000D+00  1.8965329060901D-01  1.4872624594953D-02
   188  1.8700000000000D+00  1.7297153420916D-01  2.3992001125055D-02
   189  1.8800000000000D+00  1.5673967565916D-01  3.2622312168529D-02
   190  1.8900000000000D+00  1.4097317259187D-01  4.0763298745969D-02
   191  1.9000000000000D+00  1.2568650307553D-01  4.8416221916766D-02
   192  1.9100000000000D+00  1.1089313275698D-01  5.5583825652048D-02
   193  1.9200000000000D+00  9.6605531717350D-02  6.2270347070848D-02
   194  1.9300000000000D+00  8.2835269400141D-02  6.8481599616675D-02
   195  1.9400000000000D+00  6.9593070021118D-02  7.4225005694300D-02
   196  1.9500000000000D+00  5.6888491761479D-02  7.9509245512165D-02
   197  1.9600000000000D+00  4.4729754813334D-02  8.4344062600701D-02
   198  1.9700000000000D+00  3.3123607024283D-02  8.8740051285574D-02
   199  1.9800000000000D+00  2.2075028917741D-02  9.2708289681064D-02
   200  1.9900000000000D+00  1.1587245140423D-02  9.6260271900948D-02
   201  2.0000000000000D+00  1.6618499540172D-03  9.9407946541860D-02
   202  2.0100000000000D+00 -7.7011004926642D-03  1.0216371474892D-01
   203  2.0200000000000D+00 -1.6503113656808D-02  1.0454031825757D-01
   204  2.0300000000000D+00 -2.4747175160321D-02  1.0655082911249D-01
   205  2.0400000000000D+00 -3.2437703487877D-02  1.0820859881500D-01
   206  2.0500000000000D+00 -3.9580491520142D-02  1.0952721842211D-01
   207  2.0600000000000D+00 -4.6182646109139D-02  1.1052047883222D-01
   208  2.0700000000000D+00 -5.2252525612211D-02  1.1120233158189D-01
   209  2.0800000000000D+00 -5.7799675419460D-02  1.1158685050286D-01
   210  2.0900000000000D+00 -6.2834761408850D-02  1.1168819441209D-01
   211  2.1000000000000D+00 -6.7369501819339D-02  1.1152057075057D-01
   212  2.1100000000000D+00 -7.1416597617977D-02  1.1109820031432D-01
   213  2.1200000000000D+00 -7.4989661625073D-02  1.1043528310261D-01
   214  2.1300000000000D+00 -7.8103146676734D-02  1.0954596524839D-01
   215  2.1400000000000D+00 -8.0772273010249D-02  1.0844430722780D-01
   216  2.1500000000000D+00 -8.3012955123447D-02  1.0714425320787D-01
   217  2.1600000000000D+00 -8.4841728366993D-02  1.0565960168847D-01
   218  2.1700000000000D+00 -8.6275675515811D-02  1.0400397746197D-01
   219  2.1800000000000D+00 -8.7332353427155D-02  1.0219080479042D-01
   220  2.1900000000000D+00 -8.8029720278438D-02  1.0023328205252D-01
   221  2.2000000000000D+00 -8.8386063322570D-02  9.8144357661476D-02
   222  2.2100000000000D+00 -8.8419927533188D-02  9.5936707378427D-02
   223  2.2200000000000D+00 -8.8150045478152D-02  9.3622713095780D-02
   224  2.2300000000000D+00 -8.7595268238160D-02  9.1214442915128D-02
   225  2.2400000000000D+00 -8.6774498089294D-02  8.8723632755031D-02
   226  2.2500000000000D+00 -8.5706622829990D-02  8.6161669362058D-02
   227  2.2600000000000D+00 -8.4410451767010D-02  8.3539574672213D-02
   228  2.2700000000000D+00 -8.2904654225520D-02  8.0867991756945D-02
   229  2.2800000000000D+00 -8.1207699924849D-02  7.8157172076956D-02
   230  2.2900000000000D+00 -7.9337801858563D-02  7.5416964190603D-02
   231  2.3000000000000D+00 -7.7312862013556D-02  7.2656803956543D-02
   232  2.3100000000000D+00 -7.5150419293700D-02  6.9885706008637D-02
   233  2.3200000000000D+00 -7.2867600703425D-02  6.7112256729414D-02
   234  2.3300000000000D+00 -7.0481075494566D-02  6.4344608596285D-02
   235  2.3400000000000D+00 -6.8007011806618D-02  6.1590475752287D-02
   236  2.3500000000000D+00 -6.5461037259518D-02  5.8857131081489D-02
   237  2.3600000000000D+00 -6.2858202341101D-02  5.6151404490158D-02
   238  2.3700000000000D+00 -6.0212946828448D-02  5.3479682409951D-02
   239  2.3800000000000D+00 -5.7539070310315D-02  5.0847908685294D-02
   240  2.3900000000000D+00 -5.4849705483190D-02  4.8261586549991D-02
   241  2.4000000000000D+00 -5.2157294909765D-02  4.5725781781444D-02
   242  2.4100000000000D+00 -4.9473571757200D-02  4.3245127075052D-02
   243  2.4200000000000D+00 -4.6809543304419D-02  4.0823827399784D-02
   244  2.4300000000000D+00 -4.4175478165510D-02  3.8465666442508D-02
   245  2.4400000000000D+00 -4.1580897245943D-02  3.6174014097956D-02
   246  2.4500000000000D+00 -3.9034567391752D-02  3.3951834821395D-02
   247  2.4600000000000D+00 -3.6544498836817D-02  3.1801696944881D-02
   248  2.4700000000000D+00 -3.4117946044415D-02  2.9725782860923D-02
   249  2.4800000000000D+00 -3.1761411093100D-02  2.7725899940781D-02
   250  2.4900000000000D+00 -2.9480650753657D-02  2.5803492258689D-02
   251  2.5000000000000D+00 -2.7280686564942D-02  2.3959653006815D-02
   252  2.5100000000000D+00 -2.5165817234591D-02  2.2195137508784D-02
   253  2.5200000000000D+00 -2.3139634432528D-02  2.0510376855738D-02
   254  2.5300000000000D+00 -2.1205041157319D-02  1.8905492060289D-02
   255  2.5400000000000D+00 -1.9364272142919D-02  1.7380308667440D-02
   256  2.5500000000000D+00 -1.7618917182637D-02  1.5934371788115D-02
   257  2.5600000000000D+00 -1.5969946584089D-02  1.4566961481203D-02
   258  2.5700000000000D+00 -1.4417738324587D-02  1.3277108448262D-02
   259  2.5800000000000D+00 -1.2962107503227D-02  1.2063609946119D-02
   260  2.5900000000000D+00 -1.1602337466750D-02  1.0925045878909D-02
   261  2.6000000000000D+00 -1.0337212252037D-02  9.8597950586802D-03
   262  2.6100000000000D+00 -9.1650506141679D-03  8.8660514885551D-03
   263  2.6200000000000D+00 -8.0837412384857D-03  7.9418406509392D-03
   264  2.6300000000000D+00 -7.0907788529618D-03  7.0850358227317D-03
   265  2.6400000000000D+00 -6.1833012039868D-03  6.2933742438481D-03
   266  2.6500000000000D+00 -5.3581266568275D-03  5.5644731031219D-03
   267  2.6600000000000D+00 -4.6117922561657D-03  4.8958454138029D-03
   268  2.6700000000000D+00 -3.9405920217564D-03  4.2849156174792D-03
   269  2.6800000000000D+00 -3.3406151848318D-03  3.7290347954221D-03
   270  2.6900000000000D+00 -2.8077844249163D-03  3.2254956369150D-03
   271  2.7000000000000D+00 -2.3378939298246D-03  2.7715470735115D-03
   272  2.7100000000000D+00 -1.9266465239872D-03  2.3644082803952D-03
   273  2.7200000000000D+00 -1.5696903192591D-03  2.0012823069397D-03
   274  2.7300000000000D+00 -1.2626551130102D-03  1.6793693871813D-03
   275  2.7400000000000D+00 -1.0011866890443D-03  1.3958793281965D-03
   276  2.7500000000000D+00 -7.8098046125824D-04  1.1480434947032D-03
   277  2.7600000000000D+00 -5.9781441840636D-04  9.3312634404008D-04
   278  2.7700000000000D+00 -4.4757956234541D-04  7.4843601319236D-04
   279  2.7800000000000D+00 -3.2630898812081D-04  5.9133430027753D-04
   280  2.7900000000000D+00 -2.3020585831406D-04  4.5924610207713D-04
   281  2.8000000000000D+00 -1.5566912080654D-04  3.4966801706888D-04
   282  2.8100000000000D+00 -9.9313756872637D-05  2.6017518500215D-04
   283  2.8200000000000D+00 -5.7988013893279D-05  1.8842705070926D-04
   284  2.8300000000000D+00 -2.8838600355827D-05  1.3218708985013D-04
   285  2.8400000000000D+00 -9.2673062029021D-06  8.9310443890909D-05
   286  2.8500000000000D+00  2.8907847630257D-06  5.7715402454117D-05
   287  2.8600000000000D+00  9.8696426505056D-06  3.5509789366559D-05
   288  2.8700000000000D+00  1.3517497717742D-05  2.0890910262069D-05
   289  2.8800000000000D+00  1.5446044130739D-05  1.2247865774576D-05
   290  2.8900000000000D+00  1.6538902923630D-05  7.9489460886689D-06
   291  2.9000000000000D+00  1.6417432055997D-05  6.1145365051397D-06
   292  2.9100000000000D+00  1.4919116312664D-05  5.3198057476962D-06
   293  2.9200000000000D+00  1.1074797384466D-05  4.0116765795618D-06
   294  2.9300000000000D+00  6.4277112742540D-06  2.4342582685575D-06
   295  2.9400000000000D+00  2.0401309746966D-06  8.1425434185282D-07
   296  2.9500000000000D+00 -7.6912883989782D-07 -2.6228909283524D-07
   297  2.9600000000000D+00 -1.5063044407855D-06 -5.1912271140161D-07
   298  2.9700000000000D+00 -1.0882279322899D-06 -3.7953638397017D-07
   299  2.9800000000000D+00 -1.1231070882770D-07 -3.9652519565303D-08
   300  2.9900000000000D+00  2.7718113530856D-07  7.8466751987567D-08
   301  3.0000000000000D+00  3.4419130182073D-07  9.6426955954443D-08
   302  3.0100000000000D+00  1.8143971137154D-07  5.0375249113940D-08
   303  3.0200000000000D+00 -1.3076892805895D-08 -4.6743288875284D-09
   304  3.0300000000000D+00 -3.9361772430782D-08 -1.4069846152948D-08
   305  3.0400000000000D+00 -3.6554717293377D-08 -1.3066465677752D-08
   306  3.0500000000000D+00 -1.0327187872800D-08 -3.6914482145945D-09
   307  3.0600000000000D+00  0.0000000000000D+00  0.0000000000000D+00
   308  3.0700000000000D+00  0.0000000000000D+00  0.0000000000000D+00
   309  3.0800000000000D+00  0.0000000000000D+00  0.0000000000000D+00
   310  3.0900000000000D+00  0.0000000000000D+00  0.0000000000000D+00
   311  3.1000000000000D+00  0.0000000000000D+00  0.0000000000000D+00
   312  3.1100000000000D+00  0.0000000000000D+00  0.0000000000000D+00
   313  3.1200000000000D+00  0.0000000000000D+00  0.0000000000000D+00
   314  3.1300000000000D+00  0.0000000000000D+00  0.0000000000000D+00
   315  3.1400000000000D+00  0.0000000000000D+00  0.0000000000000D+00
   316  3.1500000000000D+00  0.0000000000000D+00  0.0000000000000D+00
   317  3.1600000000000D+00  0.0000000000000D+00  0.0000000000000D+00
   318  3.1700000000000D+00  0.0000000000000D+00  0.0000000000000D+00
   319  3.1800000000000D+00  0.0000000000000D+00  0.0000000000000D+00
   320  3.1900000000000D+00  0.0000000000000D+00  0.0000000000000D+00
   321  3.2000000000000D+00  0.0000000000000D+00  0.0000000000000D+00
   322  3.2100000000000D+00  0.0000000000000D+00  0.0000000000000D+00
   323  3.2200000000000D+00  0.0000000000000D+00  0.0000000000000D+00
   324  3.2300000000000D+00  0.0000000000000D+00  0.0000000000000D+00
   325  3.2400000000000D+00  0.0000000000000D+00  0.0000000000000D+00
   326  3.2500000000000D+00  0.0000000000000D+00  0.0000000000000D+00
   327  3.2600000000000D+00  0.0000000000000D+00  0.0000000000000D+00
   328  3.2700000000000D+00  0.0000000000000D+00  0.0000000000000D+00
   329  3.2800000000000D+00  0.0000000000000D+00  0.0000000000000D+00
   330  3.2900000000000D+00  0.0000000000000D+00  0.0000000000000D+00
   331  3.3000000000000D+00  0.0000000000000D+00  0.0000000000000D+00
   332  3.3100000000000D+00  0.0000000000000D+00  0.0000000000000D+00
   333  3.3200000000000D+00  0.0000000000000D+00  0.0000000000000D+00
   334  3.3300000000000D+00  0.0000000000000D+00  0.0000000000000D+00
   335  3.3400000000000D+00  0.0000000000000D+00  0.0000000000000D+00
   336  3.3500000000000D+00  0.0000000000000D+00  0.0000000000000D+00
   337  3.3600000000000D+00  0.0000000000000D+00  0.0000000000000D+00
   338  3.3700000000000D+00  0.0000000000000D+00  0.0000000000000D+00
   339  3.3800000000000D+00  0.0000000000000D+00  0.0000000000000D+00
   340  3.3900000000000D+00  0.0000000000000D+00  0.0000000000000D+00
   341  3.4000000000000D+00  0.0000000000000D+00  0.0000000000000D+00
   342  3.4100000000000D+00  0.0000000000000D+00  0.0000000000000D+00
   343  3.4200000000000D+00  0.0000000000000D+00  0.0000000000000D+00
   344  3.4300000000000D+00  0.0000000000000D+00  0.0000000000000D+00
   345  3.4400000000000D+00  0.0000000000000D+00  0.0000000000000D+00
   346  3.4500000000000D+00  0.0000000000000D+00  0.0000000000000D+00
   347  3.4600000000000D+00  0.0000000000000D+00  0.0000000000000D+00
   348  3.4700000000000D+00  0.0000000000000D+00  0.0000000000000D+00
   349  3.4800000000000D+00  0.0000000000000D+00  0.0000000000000D+00
   350  3.4900000000000D+00  0.0000000000000D+00  0.0000000000000D+00
   351  3.5000000000000D+00  0.0000000000000D+00  0.0000000000000D+00
   352  3.5100000000000D+00  0.0000000000000D+00  0.0000000000000D+00
   353  3.5200000000000D+00  0.0000000000000D+00  0.0000000000000D+00
   354  3.5300000000000D+00  0.0000000000000D+00  0.0000000000000D+00
   355  3.5400000000000D+00  0.0000000000000D+00  0.0000000000000D+00
   356  3.5500000000000D+00  0.0000000000000D+00  0.0000000000000D+00
   357  3.5600000000000D+00  0.0000000000000D+00  0.0000000000000D+00
   358  3.5700000000000D+00  0.0000000000000D+00  0.0000000000000D+00
   359  3.5800000000000D+00  0.0000000000000D+00  0.0000000000000D+00
   360  3.5900000000000D+00  0.0000000000000D+00  0.0000000000000D+00
   361  3.6000000000000D+00  0.0000000000000D+00  0.0000000000000D+00
   362  3.6100000000000D+00  0.0000000000000D+00  0.0000000000000D+00
   363  3.6200000000000D+00  0.0000000000000D+00  0.0000000000000D+00
   364  3.6300000000000D+00  0.0000000000000D+00  0.0000000000000D+00
   365  3.6400000000000D+00  0.0000000000000D+00  0.0000000000000D+00
   366  3.6500000000000D+00  0.0000000000000D+00  0.0000000000000D+00
   367  3.6600000000000D+00  0.0000000000000D+00  0.0000000000000D+00
   368  3.6700000000000D+00  0.0000000000000D+00  0.0000000000000D+00
   369  3.6800000000000D+00  0.0000000000000D+00  0.0000000000000D+00
   370  3.6900000000000D+00  0.0000000000000D+00  0.0000000000000D+00
   371  3.7000000000000D+00  0.0000000000000D+00  0.0000000000000D+00
   372  3.7100000000000D+00  0.0000000000000D+00  0.0000000000000D+00
   373  3.7200000000000D+00  0.0000000000000D+00  0.0000000000000D+00
   374  3.7300000000000D+00  0.0000000000000D+00  0.0000000000000D+00
   375  3.7400000000000D+00  0.0000000000000D+00  0.0000000000000D+00
   376  3.7500000000000D+00  0.0000000000000D+00  0.0000000000000D+00
   377  3.7600000000000D+00  0.0000000000000D+00  0.0000000000000D+00
   378  3.7700000000000D+00  0.0000000000000D+00  0.0000000000000D+00
   379  3.7800000000000D+00  0.0000000000000D+00  0.0000000000000D+00
   380  3.7900000000000D+00  0.0000000000000D+00  0.0000000000000D+00
   381  3.8000000000000D+00  0.0000000000000D+00  0.0000000000000D+00
   382  3.8100000000000D+00  0.0000000000000D+00  0.0000000000000D+00
   383  3.8200000000000D+00  0.0000000000000D+00  0.0000000000000D+00
   384  3.8300000000000D+00  0.0000000000000D+00  0.0000000000000D+00
   385  3.8400000000000D+00  0.0000000000000D+00  0.0000000000000D+00
   386  3.8500000000000D+00  0.0000000000000D+00  0.0000000000000D+00
   387  3.8600000000000D+00  0.0000000000000D+00  0.0000000000000D+00
   388  3.8700000000000D+00  0.0000000000000D+00  0.0000000000000D+00
   389  3.8800000000000D+00  0.0000000000000D+00  0.0000000000000D+00
   390  3.8900000000000D+00  0.0000000000000D+00  0.0000000000000D+00
   391  3.9000000000000D+00  0.0000000000000D+00  0.0000000000000D+00
   392  3.9100000000000D+00  0.0000000000000D+00  0.0000000000000D+00
   393  3.9200000000000D+00  0.0000000000000D+00  0.0000000000000D+00
   394  3.9300000000000D+00  0.0000000000000D+00  0.0000000000000D+00
   395  3.9400000000000D+00  0.0000000000000D+00  0.0000000000000D+00
   396  3.9500000000000D+00  0.0000000000000D+00  0.0000000000000D+00
   397  3.9600000000000D+00  0.0000000000000D+00  0.0000000000000D+00
   398  3.9700000000000D+00  0.0000000000000D+00  0.0000000000000D+00
   399  3.9800000000000D+00  0.0000000000000D+00  0.0000000000000D+00
   400  3.9900000000000D+00  0.0000000000000D+00  0.0000000000000D+00
   401  4.0000000000000D+00  0.0000000000000D+00  0.0000000000000D+00
   402  4.0100000000000D+00  0.0000000000000D+00  0.0000000000000D+00
   403  4.0200000000000D+00  0.0000000000000D+00  0.0000000000000D+00
   404  4.0300000000000D+00  0.0000000000000D+00  0.0000000000000D+00
   405  4.0400000000000D+00  0.0000000000000D+00  0.0000000000000D+00
   406  4.0500000000000D+00  0.0000000000000D+00  0.0000000000000D+00
   407  4.0600000000000D+00  0.0000000000000D+00  0.0000000000000D+00
   408  4.0700000000000D+00  0.0000000000000D+00  0.0000000000000D+00
   409  4.0800000000000D+00  0.0000000000000D+00  0.0000000000000D+00
   410  4.0900000000000D+00  0.0000000000000D+00  0.0000000000000D+00
   411  4.1000000000000D+00  0.0000000000000D+00  0.0000000000000D+00
   412  4.1100000000000D+00  0.0000000000000D+00  0.0000000000000D+00
   413  4.1200000000000D+00  0.0000000000000D+00  0.0000000000000D+00
   414  4.1300000000000D+00  0.0000000000000D+00  0.0000000000000D+00
   415  4.1400000000000D+00  0.0000000000000D+00  0.0000000000000D+00
   416  4.1500000000000D+00  0.0000000000000D+00  0.0000000000000D+00
   417  4.1600000000000D+00  0.0000000000000D+00  0.0000000000000D+00
   418  4.1700000000000D+00  0.0000000000000D+00  0.0000000000000D+00
   419  4.1800000000000D+00  0.0000000000000D+00  0.0000000000000D+00
   420  4.1900000000000D+00  0.0000000000000D+00  0.0000000000000D+00
   421  4.2000000000000D+00  0.0000000000000D+00  0.0000000000000D+00
   422  4.2100000000000D+00  0.0000000000000D+00  0.0000000000000D+00