Se    ONCVPSP-3.3.1  r_core=   2.63348   2.72943   3.38315
     34.0000      6.0000      210904    zatom,zion,pspd
     8       2   2     4   600     0    pspcod,pspxc,lmax,lloc,mmax,r2well
  5.99000000  0.00000000  0.00000000    rchrg fchrg qchrg
     2     2     2     0     0    nproj
     1     1           extension_switch
   0                         6.3272857257399D+00  4.1566178135405D-01
     1  0.0000000000000D+00  6.1962379671598D-12 -1.3461565195882D-11
     2  1.0000000000000D-02  3.0735683790460D-02 -1.6007919272759D-02
     3  2.0000000000000D-02  6.1462836007842D-02 -3.2007671528146D-02
     4  3.0000000000000D-02  9.2172867494208D-02 -4.7990985877755D-02
     5  4.0000000000000D-02  1.2285707426266D-01 -6.3949384383423D-02
     6  5.0000000000000D-02  1.5350658093316D-01 -7.9874080259728D-02
     7  6.0000000000000D-02  1.8411228518437D-01 -9.5755878139834D-02
     8  7.0000000000000D-02  2.1466480355288D-01 -1.1158507707672D-01
     9  8.0000000000000D-02  2.4515441890503D-01 -1.2735137693834D-01
    10  9.0000000000000D-02  2.7557102989889D-01 -1.4304378883860D-01
    11  1.0000000000000D-01  3.0590410274467D-01 -1.5865055022633D-01
    12  1.1000000000000D-01  3.3614262556151D-01 -1.7415904523113D-01
    13  1.2000000000000D-01  3.6627506561634D-01 -1.8955573083962D-01
    14  1.3000000000000D-01  3.9628932971751D-01 -2.0482606944637D-01
    15  1.4000000000000D-01  4.2617272802122D-01 -2.1995446829252D-01
    16  1.5000000000000D-01  4.5591194149302D-01 -2.3492422627103D-01
    17  1.6000000000000D-01  4.8549299324985D-01 -2.4971748854093D-01
    18  1.7000000000000D-01  5.1490122399026D-01 -2.6431520935416D-01
    19  1.8000000000000D-01  5.4412127170125D-01 -2.7869712345769D-01
    20  1.9000000000000D-01  5.7313705581072D-01 -2.9284172639094D-01
    21  2.0000000000000D-01  6.0193176593374D-01 -3.0672626395383D-01
    22  2.1000000000000D-01  6.3048785533954D-01 -3.2032673107490D-01
    23  2.2000000000000D-01  6.5878703924421D-01 -3.3361788026155D-01
    24  2.3000000000000D-01  6.8681029801163D-01 -3.4657323976594D-01
    25  2.4000000000000D-01  7.1453788532227D-01 -3.5916514155115D-01
    26  2.5000000000000D-01  7.4194934134625D-01 -3.7136475909147D-01
    27  2.6000000000000D-01  7.6902351093359D-01 -3.8314215499135D-01
    28  2.7000000000000D-01  7.9573856681108D-01 -3.9446633835585D-01
    29  2.8000000000000D-01  8.2207203775152D-01 -4.0530533179588D-01
    30  2.9000000000000D-01  8.4800084165767D-01 -4.1562624790025D-01
    31  3.0000000000000D-01  8.7350132347988D-01 -4.2539537495769D-01
    32  3.1000000000000D-01  8.9854929786325D-01 -4.3457827166212D-01
    33  3.2000000000000D-01  9.2312009639782D-01 -4.4313987048664D-01
    34  3.3000000000000D-01  9.4718861932277D-01 -4.5104458936478D-01
    35  3.4000000000000D-01  9.7072939151435D-01 -4.5825645127156D-01
    36  3.5000000000000D-01  9.9371662256625D-01 -4.6473921125339D-01
    37  3.6000000000000D-01  1.0161242707510D+00 -4.7045649041288D-01
    38  3.7000000000000D-01  1.0379261106316D+00 -4.7537191631494D-01
    39  3.8000000000000D-01  1.0590958040752D+00 -4.7944926924220D-01
    40  3.9000000000000D-01  1.0796069744009D+00 -4.8265263369177D-01
    41  4.0000000000000D-01  1.0994332833821D+00 -4.8494655447249D-01
    42  4.1000000000000D-01  1.1185485108022D+00 -4.8629619673086D-01
    43  4.2000000000000D-01  1.1369266362567D+00 -4.8666750920619D-01
    44  4.3000000000000D-01  1.1545419228740D+00 -4.8602738999065D-01
    45  4.4000000000000D-01  1.1713690026236D+00 -4.8434385404818D-01
    46  4.5000000000000D-01  1.1873829628641D+00 -4.8158620172717D-01
    47  4.6000000000000D-01  1.2025594337807D+00 -4.7772518748736D-01
    48  4.7000000000000D-01  1.2168746763507D+00 -4.7273318804816D-01
    49  4.8000000000000D-01  1.2303056704736D+00 -4.6658436915843D-01
    50  4.9000000000000D-01  1.2428302028955D+00 -4.5925485018132D-01
    51  5.0000000000000D-01  1.2544269545582D+00 -4.5072286568713D-01
    52  5.1000000000000D-01  1.2650755870003D+00 -4.4096892324841D-01
    53  5.2000000000000D-01  1.2747568274404D+00 -4.2997595663761D-01
    54  5.3000000000000D-01  1.2834525521741D+00 -4.1772947363598D-01
    55  5.4000000000000D-01  1.2911458679189D+00 -4.0421769767515D-01
    56  5.5000000000000D-01  1.2978211907514D+00 -3.8943170254921D-01
    57  5.6000000000000D-01  1.3034643222815D+00 -3.7336553945356D-01
    58  5.7000000000000D-01  1.3080625227232D+00 -3.5601635563085D-01
    59  5.8000000000000D-01  1.3116045805274D+00 -3.3738450392889D-01
    60  5.9000000000000D-01  1.3140808782554D+00 -3.1747364260640D-01
    61  6.0000000000000D-01  1.3154834543836D+00 -2.9629082475280D-01
    62  6.1000000000000D-01  1.3158060607453D+00 -2.7384657672569D-01
    63  6.2000000000000D-01  1.3150442153284D+00 -2.5015496504585D-01
    64  6.3000000000000D-01  1.3131952501678D+00 -2.2523365123198D-01
    65  6.4000000000000D-01  1.3102583540847D+00 -1.9910393409986D-01
    66  6.5000000000000D-01  1.3062346100482D+00 -1.7179077909694D-01
    67  6.6000000000000D-01  1.3011270269495D+00 -1.4332283429113D-01
    68  6.7000000000000D-01  1.2949405656043D+00 -1.1373243268270D-01
    69  6.8000000000000D-01  1.2876821588163D+00 -8.3055580560576D-02
    70  6.9000000000000D-01  1.2793607253597D+00 -5.1331931676832D-02
    71  7.0000000000000D-01  1.2699871777588D+00 -1.8604747069801D-02
    72  7.1000000000000D-01  1.2595744237691D+00  1.5079159578889D-02
    73  7.2000000000000D-01  1.2481373614849D+00  4.9669491109558D-02
    74  7.3000000000000D-01  1.2356928680241D+00  8.5112550570730D-02
    75  7.4000000000000D-01  1.2222597817659D+00  1.2135133936550D-01
    76  7.5000000000000D-01  1.2078588781395D+00  1.5832566973879D-01
    77  7.6000000000000D-01  1.1925128389888D+00  1.9597229142573D-01
    78  7.7000000000000D-01  1.1762462155610D+00  2.3422503222262D-01
    79  7.8000000000000D-01  1.1590853851921D+00  2.7301495218272D-01
    80  7.9000000000000D-01  1.1410585017863D+00  3.1227051107989D-01
    81  8.0000000000000D-01  1.1221954402112D+00  3.5191774872527D-01
    82  8.1000000000000D-01  1.1025277347525D+00  3.9188047766530D-01
    83  8.2000000000000D-01  1.0820885117962D+00  4.3208048773246D-01
    84  8.3000000000000D-01  1.0609124169289D+00  4.7243776186579D-01
    85  8.4000000000000D-01  1.0390355366675D+00  5.1287070256494D-01
    86  8.5000000000000D-01  1.0164953150523D+00  5.5329636828902D-01
    87  8.6000000000000D-01  9.9333046535578D-01  5.9363071906255D-01
    88  8.7000000000000D-01  9.6958087718090D-01  6.3378887050205D-01
    89  8.8000000000000D-01  9.4528751923975D-01  6.7368535543173D-01
    90  8.9000000000000D-01  9.2049233812118D-01  7.1323439221252D-01
    91  9.0000000000000D-01  8.9523815337273D-01  7.5235015886855D-01
    92  9.1000000000000D-01  8.6956854923693D-01  7.9094707205625D-01
    93  9.2000000000000D-01  8.4352776339665D-01  8.2894006988528D-01
    94  9.3000000000000D-01  8.1716057309637D-01  8.6624489756881D-01
    95  9.4000000000000D-01  7.9051217901846D-01  9.0277839484908D-01
    96  9.5000000000000D-01  7.6362808730332D-01  9.3845878411858D-01
    97  9.6000000000000D-01  7.3655399011144D-01  9.7320595813268D-01
    98  9.7000000000000D-01  7.0933564513309D-01  1.0069417661888D+00
    99  9.8000000000000D-01  6.8201875445722D-01  1.0395902976303D+00
   100  9.9000000000000D-01  6.5464884321657D-01  1.0710781615175D+00
   101  1.0000000000000D+00  6.2727113842884D-01  1.1013347612997D+00
   102  1.0100000000000D+00  5.9993044845634D-01  1.1302925633115D+00
   103  1.0200000000000D+00  5.7267104350701D-01  1.1578873579141D+00
   104  1.0300000000000D+00  5.4553653759907D-01  1.1840585121009D+00
   105  1.0400000000000D+00  5.1856977240956D-01  1.2087492123870D+00
   106  1.0500000000000D+00  4.9181270342371D-01  1.2319066968110D+00
   107  1.0600000000000D+00  4.6530628879727D-01  1.2534824748806D+00
   108  1.0700000000000D+00  4.3909038133820D-01  1.2734325343115D+00
   109  1.0800000000000D+00  4.1320362400695D-01  1.2917175334172D+00
   110  1.0900000000000D+00  3.8768334932596D-01  1.3083029780292D+00
   111  1.1000000000000D+00  3.6256548307983D-01  1.3231593818458D+00
   112  1.1100000000000D+00  3.3788445267606D-01  1.3362624091316D+00
   113  1.1200000000000D+00  3.1367310052642D-01  1.3475929987142D+00
   114  1.1300000000000D+00  2.8996260279460D-01  1.3571374682537D+00
   115  1.1400000000000D+00  2.6678239384278D-01  1.3648875977921D+00
   116  1.1500000000000D+00  2.4416009669449D-01  1.3708406916247D+00
   117  1.1600000000000D+00  2.2212145981819D-01  1.3749996175639D+00
   118  1.1700000000000D+00  2.0069030051744D-01  1.3773728227104D+00
   119  1.1800000000000D+00  1.7988845519786D-01  1.3779743248832D+00
   120  1.1900000000000D+00  1.5973573676106D-01  1.3768236789063D+00
   121  1.2000000000000D+00  1.4024989936619D-01  1.3739459169751D+00
   122  1.2100000000000D+00  1.2144661077030D-01  1.3693714623918D+00
   123  1.2200000000000D+00  1.0333943244539D-01  1.3631360159979D+00
   124  1.2300000000000D+00  8.5939807654111D-02  1.3552804146633D+00
   125  1.2400000000000D+00  6.9257057642292D-02  1.3458504612565D+00
   126  1.2500000000000D+00  5.3298386085063D-02  1.3348967255684D+00
   127  1.2600000000000D+00  3.8068891909775D-02  1.3224743157014D+00
   128  1.2700000000000D+00  2.3571590599066D-02  1.3086426194792D+00
   129  1.2800000000000D+00  9.8074440480825D-03  1.2934650155137D+00
   130  1.2900000000000D+00 -3.2246009578759D-03  1.2770085535804D+00
   131  1.3000000000000D+00 -1.5527565598921D-02  1.2593436040099D+00
   132  1.3100000000000D+00 -2.7106383196418D-02  1.2405434758852D+00
   133  1.3200000000000D+00 -3.7967834695525D-02  1.2206840038398D+00
   134  1.3300000000000D+00 -4.8120475467060D-02  1.1998431033146D+00
   135  1.3400000000000D+00 -5.7574553472346D-02  1.1781002942232D+00
   136  1.3500000000000D+00 -6.6341918823679D-02  1.1555361929385D+00
   137  1.3600000000000D+00 -7.4435924814796D-02  1.1322319726355D+00
   138  1.3700000000000D+00 -8.1871320511525D-02  1.1082687920662D+00
   139  1.3800000000000D+00 -8.8664134977767D-02  1.0837271928033D+00
   140  1.3900000000000D+00 -9.4831553275093D-02  1.0586864651693D+00
   141  1.4000000000000D+00 -1.0039178434854D-01  1.0332239829992D+00
   142  1.4100000000000D+00 -1.0536392093700D-01  1.0074145074543D+00
   143  1.4200000000000D+00 -1.0976779142085D-01  9.8132945587201D-01
   144  1.4300000000000D+00 -1.1362380528411D-01  9.5503616163808D-01
   145  1.4400000000000D+00 -1.1695278563409D-01  9.2859702068431D-01
   146  1.4500000000000D+00 -1.1977581466399D-01  9.0206889796944D-01
   147  1.4600000000000D+00 -1.2211403936552D-01  8.7550208023394D-01
   148  1.4700000000000D+00 -1.2398844836262D-01  8.4893864815017D-01
   149  1.4800000000000D+00 -1.2541985107769D-01  8.2241454737686D-01
   150  1.4900000000000D+00 -1.2642886555927D-01  7.9596145663321D-01
   151  1.5000000000000D+00 -1.2703602711176D-01  7.6960955785388D-01
   152  1.5100000000000D+00 -1.2726182025935D-01  7.4338893153122D-01
   153  1.5200000000000D+00 -1.2712659698140D-01  7.1732862939287D-01
   154  1.5300000000000D+00 -1.2665055001099D-01  6.9145680011733D-01
   155  1.5400000000000D+00 -1.2585367906920D-01  6.6580069535989D-01
   156  1.5500000000000D+00 -1.2475575796415D-01  6.4038663878290D-01
   157  1.5600000000000D+00 -1.2337630299757D-01  6.1524000221458D-01
   158  1.5700000000000D+00 -1.2173454262554D-01  5.9038518040934D-01
   159  1.5800000000000D+00 -1.1984938863969D-01  5.6584556943416D-01
   160  1.5900000000000D+00 -1.1773940882418D-01  5.4164354691133D-01
   161  1.6000000000000D+00 -1.1542280109964D-01  5.1780045414383D-01
   162  1.6100000000000D+00 -1.1291736919237D-01  4.9433658021459D-01
   163  1.6200000000000D+00 -1.1024049983977D-01  4.7127114808585D-01
   164  1.6300000000000D+00 -1.0740914155495D-01  4.4862230275407D-01
   165  1.6400000000000D+00 -1.0443978496216D-01  4.2640710148818D-01
   166  1.6500000000000D+00 -1.0134844470932D-01  4.0464150617039D-01
   167  1.6600000000000D+00 -9.8150642969673D-02  3.8334037776729D-01
   168  1.6700000000000D+00 -9.4861394522987D-02  3.6251747291797D-01
   169  1.6800000000000D+00 -9.1495193426733D-02  3.4218544266284D-01
   170  1.6900000000000D+00 -8.8066001254131D-02  3.2235583327384D-01
   171  1.7000000000000D+00 -8.4587236905496D-02  3.0303908920042D-01
   172  1.7100000000000D+00 -8.1071767959313D-02  2.8424455807385D-01
   173  1.7200000000000D+00 -7.7531903562401D-02  2.6598049776922D-01
   174  1.7300000000000D+00 -7.3979388819289D-02  2.4825408545809D-01
   175  1.7400000000000D+00 -7.0425400669547D-02  2.3107142863085D-01
   176  1.7500000000000D+00 -6.6880545211417D-02  2.1443757801994D-01
   177  1.7600000000000D+00 -6.3354856446521D-02  1.9835654237863D-01
   178  1.7700000000000D+00 -5.9857796406552D-02  1.8283130505135D-01
   179  1.7800000000000D+00 -5.6398256620065D-02  1.6786384226382D-01
   180  1.7900000000000D+00 -5.2984560886344D-02  1.5345514307775D-01
   181  1.8000000000000D+00 -4.9624469296565D-02  1.3960523091292D-01
   182  1.8100000000000D+00 -4.6325183477030D-02  1.2631318659075D-01
   183  1.8200000000000D+00 -4.3093352977882D-02  1.1357717278193D-01
   184  1.8300000000000D+00 -3.9935082788963D-02  1.0139445981708D-01
   185  1.8400000000000D+00 -3.6855941893807D-02  8.9761452733025D-02
   186  1.8500000000000D+00 -3.3860972844719D-02  7.8673719508473D-02
   187  1.8600000000000D+00 -3.0954702269113D-02  6.8126020368707D-02
   188  1.8700000000000D+00 -2.8141152277889D-02  5.8112338092148D-02
   189  1.8800000000000D+00 -2.5423852699657D-02  4.8625909219920D-02
   190  1.8900000000000D+00 -2.2805854092215D-02  3.9659256078604D-02
   191  1.9000000000000D+00 -2.0289741470050D-02  3.1204219532364D-02
   192  1.9100000000000D+00 -1.7877648687201D-02  2.3251992370113D-02
   193  1.9200000000000D+00 -1.5571273418111D-02  1.5793153236752D-02
   194  1.9300000000000D+00 -1.3371892680112D-02  8.8177010381755D-03
   195  1.9400000000000D+00 -1.1280378828050D-02  2.3150896967526D-03
   196  1.9500000000000D+00 -9.2972159836505D-03 -3.7257367709214D-03
   197  1.9600000000000D+00 -7.4225168132671D-03 -9.3163090063547D-03
   198  1.9700000000000D+00 -5.6560396279622D-03 -1.4468596905349D-02
   199  1.9800000000000D+00 -3.9972057265733D-03 -1.9194974185684D-02
   200  1.9900000000000D+00 -2.4451169346723D-03 -2.3508182989008D-02
   201  2.0000000000000D+00 -9.9857330278212D-04 -2.7421298559165D-02
   202  2.0100000000000D+00  3.4390913236336D-04 -3.0947694150000D-02
   203  2.0200000000000D+00  1.5840805057681D-03 -3.4101006110598D-02
   204  2.0300000000000D+00  2.7239393279622D-03 -3.6895099348648D-02
   205  2.0400000000000D+00  3.7657147151547D-03 -3.9344033122749D-02
   206  2.0500000000000D+00  4.7118487225119D-03 -4.1462027275881D-02
   207  2.0600000000000D+00  5.5649788435700D-03 -4.3263428998795D-02
   208  2.0700000000000D+00  6.3279206378756D-03 -4.4762680051269D-02
   209  2.0800000000000D+00  7.0036506491120D-03 -4.5974284684159D-02
   210  2.0900000000000D+00  7.5952895222675D-03 -4.6912778110659D-02
   211  2.1000000000000D+00  8.1060854401878D-03 -4.7592695700907D-02
   212  2.1100000000000D+00  8.5393978998864D-03 -4.8028542921348D-02
   213  2.1200000000000D+00  8.8986817850275D-03 -4.8234765946853D-02
   214  2.1300000000000D+00  9.1874719011642D-03 -4.8225723181124D-02
   215  2.1400000000000D+00  9.4093678473244D-03 -4.8015657495628D-02
   216  2.1500000000000D+00  9.5680193478286D-03 -4.7618669357614D-02
   217  2.1600000000000D+00  9.6671120573035D-03 -4.7048690858628D-02
   218  2.1700000000000D+00  9.7103537582944D-03 -4.6319460525588D-02
   219  2.1800000000000D+00  9.7014611394091D-03 -4.5444499168099D-02
   220  2.1900000000000D+00  9.6441469995977D-03 -4.4437086545437D-02
   221  2.2000000000000D+00  9.5421079737535D-03 -4.3310238976332D-02
   222  2.2100000000000D+00  9.3990128190029D-03 -4.2076687937992D-02
   223  2.2200000000000D+00  9.2184911464062D-03 -4.0748859494933D-02
   224  2.2300000000000D+00  9.0041227551301D-03 -3.9338854768114D-02
   225  2.2400000000000D+00  8.7594274710545D-03 -3.7858431302860D-02
   226  2.2500000000000D+00  8.4878554791965D-03 -3.6318985323739D-02
   227  2.2600000000000D+00  8.1927782623562D-03 -3.4731534999034D-02
   228  2.2700000000000D+00  7.8774799980461D-03 -3.3106704538568D-02
   229  2.2800000000000D+00  7.5451495011043D-03 -3.1454709226041D-02
   230  2.2900000000000D+00  7.1988727115362D-03 -2.9785341381526D-02
   231  2.3000000000000D+00  6.8416256272293D-03 -2.8107957124223D-02
   232  2.3100000000000D+00  6.4762677903581D-03 -2.6431464058362D-02
   233  2.3200000000000D+00  6.1055362479309D-03 -2.4764309785500D-02
   234  2.3300000000000D+00  5.7320399445541D-03 -2.3114471189518D-02
   235  2.3400000000000D+00  5.3582546420550D-03 -2.1489444595610D-02
   236  2.3500000000000D+00  4.9865182425480D-03 -1.9896236657756D-02
   237  2.3600000000000D+00  4.6190265396160D-03 -1.8341355997109D-02
   238  2.3700000000000D+00  4.2578294164884D-03 -1.6830805602419D-02
   239  2.3800000000000D+00  3.9048274115965D-03 -1.5370075904100D-02
   240  2.3900000000000D+00  3.5617686727603D-03 -1.3964138534238D-02
   241  2.4000000000000D+00  3.2302462832629D-03 -1.2617440745988D-02
   242  2.4100000000000D+00  2.9116959179506D-03 -1.1333900450294D-02
   243  2.4200000000000D+00  2.6073938299091D-03 -1.0116901852031D-02
   244  2.4300000000000D+00  2.3184551416891D-03 -8.9692916547758D-03
   245  2.4400000000000D+00  2.0458324283058D-03 -7.8933758262945D-03
   246  2.4500000000000D+00  1.7903145589789D-03 -6.8909168617798D-03
   247  2.4600000000000D+00  1.5525257865046D-03 -5.9631315394208D-03
   248  2.4700000000000D+00  1.3329250902099D-03 -5.1106891810433D-03
   249  2.4800000000000D+00  1.1318056983088D-03 -4.3337103022122D-03
   250  2.4900000000000D+00  9.4929481181617D-04 -3.6317656928066D-03
   251  2.5000000000000D+00  7.8535354543368D-04 -3.0038759498225D-03
   252  2.5100000000000D+00  6.3977696795070D-04 -2.4485112937084D-03
   253  2.5200000000000D+00  5.1219430765273D-04 -1.9635917652648D-03
   254  2.5300000000000D+00  4.0206934170997D-04 -1.5464878285445D-03
   255  2.5400000000000D+00  3.0870081150821D-04 -1.1940211601571D-03
   256  2.5500000000000D+00  2.3124265476471D-04 -9.0260564180516D-04
   257  2.5600000000000D+00  1.6863111471249D-04 -6.6772583652701D-04
   258  2.5700000000000D+00  1.1966272229752D-04 -4.8448798575751D-04
   259  2.5800000000000D+00  8.2699833033952D-05 -3.4606216652033D-04
   260  2.5900000000000D+00  5.6739286110087D-05 -2.4930847772904D-04
   261  2.6000000000000D+00  4.0341054543683D-05 -1.8910703187268D-04
   262  2.6100000000000D+00  3.2570321795984D-05 -1.6298316918885D-04
   263  2.6200000000000D+00  2.9428376390968D-05 -1.5319581262336D-04
   264  2.6300000000000D+00  2.7043259666603D-05 -1.4254325134993D-04
   265  2.6400000000000D+00  2.1168027583299D-05 -1.1174378113326D-04
   266  2.6500000000000D+00  1.2454798655253D-05 -6.5656332932089D-05
   267  2.6600000000000D+00  3.7058214160488D-06 -1.9477420185189D-05
   268  2.6700000000000D+00 -1.6431573582766D-06  8.7412267282628D-06
   269  2.6800000000000D+00 -2.6558709977670D-06  1.4129737085511D-05
   270  2.6900000000000D+00 -1.4266300579158D-06  7.5886439291420D-06
   271  2.7000000000000D+00  2.0246285527460D-07 -1.0853434463953D-06
   272  2.7100000000000D+00  5.7482380802608D-07 -3.0840707003232D-06
   273  2.7200000000000D+00  4.2935550712581D-07 -2.3052387742330D-06
   274  2.7300000000000D+00 -4.8153300544067D-09  2.5388795126012D-08
   275  2.7400000000000D+00 -6.5422361269619D-08  3.4493895707404D-07
   276  2.7500000000000D+00 -6.5276688908410D-08  3.4417090053534D-07
   277  2.7600000000000D+00 -1.4341557884725D-08  7.5615766896377D-08
   278  2.7700000000000D+00  0.0000000000000D+00  0.0000000000000D+00
   279  2.7800000000000D+00  0.0000000000000D+00  0.0000000000000D+00
   280  2.7900000000000D+00  0.0000000000000D+00  0.0000000000000D+00
   281  2.8000000000000D+00  0.0000000000000D+00  0.0000000000000D+00
   282  2.8100000000000D+00  0.0000000000000D+00  0.0000000000000D+00
   283  2.8200000000000D+00  0.0000000000000D+00  0.0000000000000D+00
   284  2.8300000000000D+00  0.0000000000000D+00  0.0000000000000D+00
   285  2.8400000000000D+00  0.0000000000000D+00  0.0000000000000D+00
   286  2.8500000000000D+00  0.0000000000000D+00  0.0000000000000D+00
   287  2.8600000000000D+00  0.0000000000000D+00  0.0000000000000D+00
   288  2.8700000000000D+00  0.0000000000000D+00  0.0000000000000D+00
   289  2.8800000000000D+00  0.0000000000000D+00  0.0000000000000D+00
   290  2.8900000000000D+00  0.0000000000000D+00  0.0000000000000D+00
   291  2.9000000000000D+00  0.0000000000000D+00  0.0000000000000D+00
   292  2.9100000000000D+00  0.0000000000000D+00  0.0000000000000D+00
   293  2.9200000000000D+00  0.0000000000000D+00  0.0000000000000D+00
   294  2.9300000000000D+00  0.0000000000000D+00  0.0000000000000D+00
   295  2.9400000000000D+00  0.0000000000000D+00  0.0000000000000D+00
   296  2.9500000000000D+00  0.0000000000000D+00  0.0000000000000D+00
   297  2.9600000000000D+00  0.0000000000000D+00  0.0000000000000D+00
   298  2.9700000000000D+00  0.0000000000000D+00  0.0000000000000D+00
   299  2.9800000000000D+00  0.0000000000000D+00  0.0000000000000D+00
   300  2.9900000000000D+00  0.0000000000000D+00  0.0000000000000D+00
   301  3.0000000000000D+00  0.0000000000000D+00  0.0000000000000D+00
   302  3.0100000000000D+00  0.0000000000000D+00  0.0000000000000D+00
   303  3.0200000000000D+00  0.0000000000000D+00  0.0000000000000D+00
   304  3.0300000000000D+00  0.0000000000000D+00  0.0000000000000D+00
   305  3.0400000000000D+00  0.0000000000000D+00  0.0000000000000D+00
   306  3.0500000000000D+00  0.0000000000000D+00  0.0000000000000D+00
   307  3.0600000000000D+00  0.0000000000000D+00  0.0000000000000D+00
   308  3.0700000000000D+00  0.0000000000000D+00  0.0000000000000D+00
   309  3.0800000000000D+00  0.0000000000000D+00  0.0000000000000D+00
   310  3.0900000000000D+00  0.0000000000000D+00  0.0000000000000D+00
   311  3.1000000000000D+00  0.0000000000000D+00  0.0000000000000D+00
   312  3.1100000000000D+00  0.0000000000000D+00  0.0000000000000D+00
   313  3.1200000000000D+00  0.0000000000000D+00  0.0000000000000D+00
   314  3.1300000000000D+00  0.0000000000000D+00  0.0000000000000D+00
   315  3.1400000000000D+00  0.0000000000000D+00  0.0000000000000D+00
   316  3.1500000000000D+00  0.0000000000000D+00  0.0000000000000D+00
   317  3.1600000000000D+00  0.0000000000000D+00  0.0000000000000D+00
   318  3.1700000000000D+00  0.0000000000000D+00  0.0000000000000D+00
   319  3.1800000000000D+00  0.0000000000000D+00  0.0000000000000D+00
   320  3.1900000000000D+00  0.0000000000000D+00  0.0000000000000D+00
   321  3.2000000000000D+00  0.0000000000000D+00  0.0000000000000D+00
   322  3.2100000000000D+00  0.0000000000000D+00  0.0000000000000D+00
   323  3.2200000000000D+00  0.0000000000000D+00  0.0000000000000D+00
   324  3.2300000000000D+00  0.0000000000000D+00  0.0000000000000D+00
   325  3.2400000000000D+00  0.0000000000000D+00  0.0000000000000D+00
   326  3.2500000000000D+00  0.0000000000000D+00  0.0000000000000D+00
   327  3.2600000000000D+00  0.0000000000000D+00  0.0000000000000D+00
   328  3.2700000000000D+00  0.0000000000000D+00  0.0000000000000D+00
   329  3.2800000000000D+00  0.0000000000000D+00  0.0000000000000D+00
   330  3.2900000000000D+00  0.0000000000000D+00  0.0000000000000D+00
   331  3.3000000000000D+00  0.0000000000000D+00  0.0000000000000D+00
   332  3.3100000000000D+00  0.0000000000000D+00  0.0000000000000D+00
   333  3.3200000000000D+00  0.0000000000000D+00  0.0000000000000D+00
   334  3.3300000000000D+00  0.0000000000000D+00  0.0000000000000D+00
   335  3.3400000000000D+00  0.0000000000000D+00  0.0000000000000D+00
   336  3.3500000000000D+00  0.0000000000000D+00  0.0000000000000D+00
   337  3.3600000000000D+00  0.0000000000000D+00  0.0000000000000D+00
   338  3.3700000000000D+00  0.0000000000000D+00  0.0000000000000D+00
   339  3.3800000000000D+00  0.0000000000000D+00  0.0000000000000D+00
   340  3.3900000000000D+00  0.0000000000000D+00  0.0000000000000D+00
   341  3.4000000000000D+00  0.0000000000000D+00  0.0000000000000D+00
   342  3.4100000000000D+00  0.0000000000000D+00  0.0000000000000D+00
   343  3.4200000000000D+00  0.0000000000000D+00  0.0000000000000D+00
   344  3.4300000000000D+00  0.0000000000000D+00  0.0000000000000D+00
   345  3.4400000000000D+00  0.0000000000000D+00  0.0000000000000D+00
   346  3.4500000000000D+00  0.0000000000000D+00  0.0000000000000D+00
   347  3.4600000000000D+00  0.0000000000000D+00  0.0000000000000D+00
   348  3.4700000000000D+00  0.0000000000000D+00  0.0000000000000D+00
   349  3.4800000000000D+00  0.0000000000000D+00  0.0000000000000D+00
   350  3.4900000000000D+00  0.0000000000000D+00  0.0000000000000D+00
   351  3.5000000000000D+00  0.0000000000000D+00  0.0000000000000D+00
   352  3.5100000000000D+00  0.0000000000000D+00  0.0000000000000D+00
   353  3.5200000000000D+00  0.0000000000000D+00  0.0000000000000D+00
   354  3.5300000000000D+00  0.0000000000000D+00  0.0000000000000D+00
   355  3.5400000000000D+00  0.0000000000000D+00  0.0000000000000D+00
   356  3.5500000000000D+00  0.0000000000000D+00  0.0000000000000D+00
   357  3.5600000000000D+00  0.0000000000000D+00  0.0000000000000D+00
   358  3.5700000000000D+00  0.0000000000000D+00  0.0000000000000D+00
   359  3.5800000000000D+00  0.0000000000000D+00  0.0000000000000D+00
   360  3.5900000000000D+00  0.0000000000000D+00  0.0000000000000D+00
   361  3.6000000000000D+00  0.0000000000000D+00  0.0000000000000D+00
   362  3.6100000000000D+00  0.0000000000000D+00  0.0000000000000D+00
   363  3.6200000000000D+00  0.0000000000000D+00  0.0000000000000D+00
   364  3.6300000000000D+00  0.0000000000000D+00  0.0000000000000D+00
   365  3.6400000000000D+00  0.0000000000000D+00  0.0000000000000D+00
   366  3.6500000000000D+00  0.0000000000000D+00  0.0000000000000D+00
   367  3.6600000000000D+00  0.0000000000000D+00  0.0000000000000D+00
   368  3.6700000000000D+00  0.0000000000000D+00  0.0000000000000D+00
   369  3.6800000000000D+00  0.0000000000000D+00  0.0000000000000D+00
   370  3.6900000000000D+00  0.0000000000000D+00  0.0000000000000D+00
   371  3.7000000000000D+00  0.0000000000000D+00  0.0000000000000D+00
   372  3.7100000000000D+00  0.0000000000000D+00  0.0000000000000D+00
   373  3.7200000000000D+00  0.0000000000000D+00  0.0000000000000D+00
   374  3.7300000000000D+00  0.0000000000000D+00  0.0000000000000D+00
   375  3.7400000000000D+00  0.0000000000000D+00  0.0000000000000D+00
   376  3.7500000000000D+00  0.0000000000000D+00  0.0000000000000D+00
   377  3.7600000000000D+00  0.0000000000000D+00  0.0000000000000D+00
   378  3.7700000000000D+00  0.0000000000000D+00  0.0000000000000D+00
   379  3.7800000000000D+00  0.0000000000000D+00  0.0000000000000D+00
   380  3.7900000000000D+00  0.0000000000000D+00  0.0000000000000D+00
   381  3.8000000000000D+00  0.0000000000000D+00  0.0000000000000D+00
   382  3.8100000000000D+00  0.0000000000000D+00  0.0000000000000D+00
   383  3.8200000000000D+00  0.0000000000000D+00  0.0000000000000D+00
   384  3.8300000000000D+00  0.0000000000000D+00  0.0000000000000D+00
   385  3.8400000000000D+00  0.0000000000000D+00  0.0000000000000D+00
   386  3.8500000000000D+00  0.0000000000000D+00  0.0000000000000D+00
   387  3.8600000000000D+00  0.0000000000000D+00  0.0000000000000D+00
   388  3.8700000000000D+00  0.0000000000000D+00  0.0000000000000D+00
   389  3.8800000000000D+00  0.0000000000000D+00  0.0000000000000D+00
   390  3.8900000000000D+00  0.0000000000000D+00  0.0000000000000D+00
   391  3.9000000000000D+00  0.0000000000000D+00  0.0000000000000D+00
   392  3.9100000000000D+00  0.0000000000000D+00  0.0000000000000D+00
   393  3.9200000000000D+00  0.0000000000000D+00  0.0000000000000D+00
   394  3.9300000000000D+00  0.0000000000000D+00  0.0000000000000D+00
   395  3.9400000000000D+00  0.0000000000000D+00  0.0000000000000D+00
   396  3.9500000000000D+00  0.0000000000000D+00  0.0000000000000D+00
   397  3.9600000000000D+00  0.0000000000000D+00  0.0000000000000D+00
   398  3.9700000000000D+00  0.0000000000000D+00  0.0000000000000D+00
   399  3.9800000000000D+00  0.0000000000000D+00  0.0000000000000D+00
   400  3.9900000000000D+00  0.0000000000000D+00  0.0000000000000D+00
   401  4.0000000000000D+00  0.0000000000000D+00  0.0000000000000D+00
   402  4.0100000000000D+00  0.0000000000000D+00  0.0000000000000D+00
   403  4.0200000000000D+00  0.0000000000000D+00  0.0000000000000D+00
   404  4.0300000000000D+00  0.0000000000000D+00  0.0000000000000D+00
   405  4.0400000000000D+00  0.0000000000000D+00  0.0000000000000D+00
   406  4.0500000000000D+00  0.0000000000000D+00  0.0000000000000D+00
   407  4.0600000000000D+00  0.0000000000000D+00  0.0000000000000D+00
   408  4.0700000000000D+00  0.0000000000000D+00  0.0000000000000D+00
   409  4.0800000000000D+00  0.0000000000000D+00  0.0000000000000D+00
   410  4.0900000000000D+00  0.0000000000000D+00  0.0000000000000D+00
   411  4.1000000000000D+00  0.0000000000000D+00  0.0000000000000D+00
   412  4.1100000000000D+00  0.0000000000000D+00  0.0000000000000D+00
   413  4.1200000000000D+00  0.0000000000000D+00  0.0000000000000D+00
   414  4.1300000000000D+00  0.0000000000000D+00  0.0000000000000D+00
   415  4.1400000000000D+00  0.0000000000000D+00  0.0000000000000D+00
   416  4.1500000000000D+00  0.0000000000000D+00  0.0000000000000D+00
   417  4.1600000000000D+00  0.0000000000000D+00  0.0000000000000D+00
   418  4.1700000000000D+00  0.0000000000000D+00  0.0000000000000D+00
   419  4.1800000000000D+00  0.0000000000000D+00  0.0000000000000D+00
   420  4.1900000000000D+00  0.0000000000000D+00  0.0000000000000D+00
   421  4.2000000000000D+00  0.0000000000000D+00  0.0000000000000D+00
   422  4.2100000000000D+00  0.0000000000000D+00  0.0000000000000D+00