Se    ONCVPSP-3.3.1  r_core=   2.63348   2.72943   3.38315
     34.0000      6.0000      210904    zatom,zion,pspd
     8       2   2     4   600     0    pspcod,pspxc,lmax,lloc,mmax,r2well
  5.99000000  0.00000000  0.00000000    rchrg fchrg qchrg
     2     3     3     0    nproj
     3     1           extension_switch
     4     4     0    nprojso
   0                         4.1540138202720D-01  6.3276164476376D+00
     1  0.0000000000000D+00 -1.3466922021976D-11  6.2003735479266D-12
     2  1.0000000000000D-02 -1.5995761936433D-02  3.0721055411055D-02
     3  2.0000000000000D-02 -3.1983414639253D-02  6.1433614440899D-02
     4  3.0000000000000D-02 -4.7954744807408D-02  9.2129123038174D-02
     5  4.0000000000000D-02 -6.3901331697910D-02  1.2279891215220D-01
     6  5.0000000000000D-02 -7.9814445133810D-02  1.5343414108420D-01
     7  6.0000000000000D-02 -9.5684945577403D-02  1.8402574185510D-01
     8  7.0000000000000D-02 -1.1150318694130D-01  2.1456436492175D-01
     9  8.0000000000000D-02 -1.2725892279653D-01  2.4504032656669D-01
    10  9.0000000000000D-02 -1.4294121662024D-01  2.7544355827940D-01
    11  1.0000000000000D-01 -1.5853835670547D-01  3.0576355843760D-01
    12  1.1000000000000D-01 -1.7403777633301D-01  3.3598934658648D-01
    13  1.2000000000000D-01 -1.8942597977876D-01  3.6610942060203D-01
    14  1.3000000000000D-01 -2.0468847470194D-01  3.9611171701121D-01
    15  1.4000000000000D-01 -2.1980971142740D-01  4.2598357472719D-01
    16  1.5000000000000D-01 -2.3477302960167D-01  4.5571170244218D-01
    17  1.6000000000000D-01 -2.4956061266544D-01  4.8528214990348D-01
    18  1.7000000000000D-01 -2.6415345054651D-01  5.1468028328041D-01
    19  1.8000000000000D-01 -2.7853131093668D-01  5.4389076481102D-01
    20  1.9000000000000D-01 -2.9267271947244D-01  5.7289753689742D-01
    21  2.0000000000000D-01 -3.0655494909575D-01  6.0168381079828D-01
    22  2.1000000000000D-01 -3.2015401882426D-01  6.3023206004544D-01
    23  2.2000000000000D-01 -3.3344470211372D-01  6.5852401868981D-01
    24  2.3000000000000D-01 -3.4640054494614D-01  6.8654068445917D-01
    25  2.4000000000000D-01 -3.5899389372862D-01  7.1426232688757D-01
    26  2.5000000000000D-01 -3.7119593303723D-01  7.4166850045295D-01
    27  2.6000000000000D-01 -3.8297673319014D-01  7.6873806273586D-01
    28  2.7000000000000D-01 -3.9430530758363D-01  7.9544919758881D-01
    29  2.8000000000000D-01 -4.0514967967384D-01  8.2177944328225D-01
    30  2.9000000000000D-01 -4.1547695943689D-01  8.4770572556922D-01
    31  3.0000000000000D-01 -4.2525342909006D-01  8.7320439558804D-01
    32  3.1000000000000D-01 -4.3444463780787D-01  8.9825127249876D-01
    33  3.2000000000000D-01 -4.4301550511814D-01  9.2282169072682D-01
    34  3.3000000000000D-01 -4.5093043261667D-01  9.4689055166514D-01
    35  3.4000000000000D-01 -4.5815342359308D-01  9.7043237966407D-01
    36  3.5000000000000D-01 -4.6464821011645D-01  9.9342138211816D-01
    37  3.6000000000000D-01 -4.7037838708713D-01  1.0158315134381D+00
    38  3.7000000000000D-01 -4.7530755272042D-01  1.0376365426774D+00
    39  3.8000000000000D-01 -4.7939945489035D-01  1.0588101245646D+00
    40  3.9000000000000D-01 -4.8261814272492D-01  1.0793258736746D+00
    41  4.0000000000000D-01 -4.8492812281202D-01  1.0991574414578D+00
    42  4.1000000000000D-01 -4.8629451934369D-01  1.1182785958272D+00
    43  4.2000000000000D-01 -4.8668323749894D-01  1.1366633029951D+00
    44  4.3000000000000D-01 -4.8606112934041D-01  1.1542858112330D+00
    45  4.4000000000000D-01 -4.8439616147841D-01  1.1711207362216D+00
    46  4.5000000000000D-01 -4.8165758373691D-01  1.1871431476454D+00
    47  4.6000000000000D-01 -4.7781609804119D-01  1.2023286566791D+00
    48  4.7000000000000D-01 -4.7284402673408D-01  1.2166535040059D+00
    49  4.8000000000000D-01 -4.6671547952033D-01  1.2300946480030D+00
    50  4.9000000000000D-01 -4.5940651823170D-01  1.2426298527252D+00
    51  5.0000000000000D-01 -4.5089531860585D-01  1.2542377753148D+00
    52  5.1000000000000D-01 -4.4116232827217D-01  1.2648980524675D+00
    53  5.2000000000000D-01 -4.3019042014423D-01  1.2745913855820D+00
    54  5.3000000000000D-01 -4.1796504042700D-01  1.2832996242252D+00
    55  5.4000000000000D-01 -4.0447435046009D-01  1.2910058475491D+00
    56  5.5000000000000D-01 -3.8970936163303D-01  1.2976944432998D+00
    57  5.6000000000000D-01 -3.7366406262954D-01  1.3033511840669D+00
    58  5.7000000000000D-01 -3.5633553827920D-01  1.3079633004297D+00
    59  5.8000000000000D-01 -3.3772407932176D-01  1.3115195506675D+00
    60  5.9000000000000D-01 -3.1783328241822D-01  1.3140102867114D+00
    61  6.0000000000000D-01 -2.9667013977537D-01  1.3154275160278D+00
    62  6.1000000000000D-01 -2.7424511778535D-01  1.3157649591402D+00
    63  6.2000000000000D-01 -2.5057222412074D-01  1.3150181025067D+00
    64  6.3000000000000D-01 -2.2566906276572D-01  1.3131842464928D+00
    65  6.4000000000000D-01 -1.9955687650757D-01  1.3102625481913D+00
    66  6.5000000000000D-01 -1.7226057645921D-01  1.3062540588628D+00
    67  6.6000000000000D-01 -1.4380875823023D-01  1.3011617557906D+00
    68  6.7000000000000D-01 -1.1423370441531D-01  1.2949905683610D+00
    69  6.8000000000000D-01 -8.3571373120014D-02  1.2877473982051D+00
    70  6.9000000000000D-01 -5.1861372297902D-02  1.2794411332576D+00
    71  7.0000000000000D-01 -1.9146919728000D-02  1.2700826556123D+00
    72  7.1000000000000D-01  1.4525211482054D-02  1.2596848430767D+00
    73  7.2000000000000D-01  4.9104761924127D-02  1.2482625643514D+00
    74  7.3000000000000D-01  8.4538069448475D-02  1.2358326677857D+00
    75  7.4000000000000D-01  1.2076816719256D-01  1.2224139636828D+00
    76  7.5000000000000D-01  1.5773489596145D-01  1.2080272001544D+00
    77  7.6000000000000D-01  1.9537503078000D-01  1.1926950325489D+00
    78  7.7000000000000D-01  2.3362242137933D-01  1.1764419864999D+00
    79  7.8000000000000D-01  2.7240814631952D-01  1.1592944146700D+00
    80  7.9000000000000D-01  3.1166068039223D-01  1.1412804472849D+00
    81  8.0000000000000D-01  3.5130607488873D-01  1.1224299365804D+00
    82  8.1000000000000D-01  3.9126815026175D-01  1.1027743953050D+00
    83  8.2000000000000D-01  4.3146870065274D-01  1.0823469294479D+00
    84  8.3000000000000D-01  4.7182770970199D-01  1.0611821653806D+00
    85  8.4000000000000D-01  5.1226357700482D-01  1.0393161716248D+00
    86  8.5000000000000D-01  5.5269335452622D-01  1.0167863754792D+00
    87  8.6000000000000D-01  5.9303299223518D-01  9.9363147475984D-01
    88  8.7000000000000D-01  6.3319759217294D-01  9.6989134492465D-01
    89  8.8000000000000D-01  6.7310167012301D-01  9.4560694187505D-01
    90  8.9000000000000D-01  7.1265942400776D-01  9.2082020074264D-01
    91  9.0000000000000D-01  7.5178500809478D-01  8.9557393098601D-01
    92  9.1000000000000D-01  7.9039281205829D-01  8.6991170813818D-01
    93  9.2000000000000D-01  8.2839774390468D-01  8.4387776255882D-01
    94  9.3000000000000D-01  8.6571551573901D-01  8.1751686555863D-01
    95  9.4000000000000D-01  9.0226293131833D-01  7.9087421327452D-01
    96  9.5000000000000D-01  9.3795817431156D-01  7.6399530868482D-01
    97  9.6000000000000D-01  9.7272109616140D-01  7.3692584216243D-01
    98  9.7000000000000D-01  1.0064735024227D+00  7.0971157097170D-01
    99  9.8000000000000D-01  1.0391394364351D+00  6.8239819812070D-01
   100  9.9000000000000D-01  1.0706454591715D+00  6.5503125098588D-01
   101  1.0000000000000D+00  1.1009209240959D+00  6.2765596012924D-01
   102  1.0100000000000D+00  1.1298982458529D+00  6.0031713873023D-01
   103  1.0200000000000D+00  1.1575131616089D+00  5.7305906305566D-01
   104  1.0300000000000D+00  1.1837049838633D+00  5.4592535438973D-01
   105  1.0400000000000D+00  1.2084168435500D+00  5.1895886284483D-01
   106  1.0500000000000D+00  1.2315959222533D+00  4.9220155346995D-01
   107  1.0600000000000D+00  1.2531936723735D+00  4.6569439506913D-01
   108  1.0700000000000D+00  1.2731660240861D+00  4.3947725213632D-01
   109  1.0800000000000D+00  1.2914735779554D+00  4.1358878030633D-01
   110  1.0900000000000D+00  1.3080817820776D+00  3.8806632571230D-01
   111  1.1000000000000D+00  1.3229610926529D+00  3.6294582863167D-01
   112  1.1100000000000D+00  1.3360871169067D+00  3.3826173179037D-01
   113  1.1200000000000D+00  1.3474407373055D+00  3.1404689368594D-01
   114  1.1300000000000D+00  1.3570082160423D+00  2.9033250727478D-01
   115  1.1400000000000D+00  1.3647812787970D+00  2.6714802435711D-01
   116  1.1500000000000D+00  1.3707571768138D+00  2.4452108597656D-01
   117  1.1600000000000D+00  1.3749387263632D+00  2.2247745913941D-01
   118  1.1700000000000D+00  1.3773343247048D+00  2.0104098013951D-01
   119  1.1800000000000D+00  1.3779579416991D+00  1.8023350475903D-01
   120  1.1900000000000D+00  1.3768290862667D+00  1.6007486559591D-01
   121  1.2000000000000D+00  1.3739727469153D+00  1.4058283675833D-01
   122  1.2100000000000D+00  1.3694193056246D+00  1.2177310613807D-01
   123  1.2200000000000D+00  1.3632044244137D+00  1.0365925546056D-01
   124  1.2300000000000D+00  1.3553689039523D+00  8.6252748293883D-02
   125  1.2400000000000D+00  1.3459585136363D+00  6.9562926175262D-02
   126  1.2500000000000D+00  1.3350237926021D+00  5.3597012991731D-02
   127  1.2600000000000D+00  1.3226198211866D+00  3.8360127738643D-02
   128  1.2700000000000D+00  1.3088059623923D+00  2.3855305759469D-02
   129  1.2800000000000D+00  1.2936455729876D+00  1.0083528541134D-02
   130  1.2900000000000D+00  1.2772056838976D+00 -2.9562378686814D-03
   131  1.3000000000000D+00  1.2595566495878D+00 -1.5266995775662D-02
   132  1.3100000000000D+00  1.2407717662330D+00 -2.6853660071310D-02
   133  1.3200000000000D+00  1.2209268584634D+00 -3.7722993769943D-02
   134  1.3300000000000D+00  1.2000998345467D+00 -4.7883534862702D-02
   135  1.3400000000000D+00  1.1783702099526D+00 -5.7345514532049D-02
   136  1.3500000000000D+00  1.1558185992159D+00 -6.6120766759205D-02
   137  1.3600000000000D+00  1.1325261761273D+00 -7.4222629398776D-02
   138  1.3700000000000D+00  1.1085741023322D+00 -8.1665836810600D-02
   139  1.3800000000000D+00  1.0840429243700D+00 -8.8466404123779D-02
   140  1.3900000000000D+00  1.0590119393719D+00 -9.4641503271093D-02
   141  1.4000000000000D+00  1.0335585295638D+00 -1.0020933090624D-01
   142  1.4100000000000D+00  1.0077574657931D+00 -1.0518896834216D-01
   143  1.4200000000000D+00  9.8168017605992D-01 -1.0960023342324D-01
   144  1.4300000000000D+00  9.5539400504887D-01 -1.1346352600711D-01
   145  1.4400000000000D+00  9.2896136023181D-01 -1.1679966050486D-01
   146  1.4500000000000D+00  9.0243911801381D-01 -1.1962971134431D-01
   147  1.4600000000000D+00  8.7587757598328D-01 -1.2197481870136D-01
   148  1.4700000000000D+00  8.4931882440611D-01 -1.2385596538775D-01
   149  1.4800000000000D+00  8.2279881760782D-01 -1.2529395583440D-01
   150  1.4900000000000D+00  7.9634924237290D-01 -1.2630940375644D-01
   151  1.5000000000000D+00  7.7000028888367D-01 -1.2692284059653D-01
   152  1.5100000000000D+00  7.4378204645474D-01 -1.2715474738666D-01
   153  1.5200000000000D+00  7.1772357599684D-01 -1.2702547303307D-01
   154  1.5300000000000D+00  6.9185303579669D-01 -1.2655520759650D-01
   155  1.5400000000000D+00  6.6619768756773D-01 -1.2576394851522D-01
   156  1.5500000000000D+00  6.4078386549527D-01 -1.2467146769590D-01
   157  1.5600000000000D+00  6.1563695240816D-01 -1.2329727991132D-01
   158  1.5700000000000D+00  5.9078135454804D-01 -1.2166061245242D-01
   159  1.5800000000000D+00  5.6624047996200D-01 -1.1978037630047D-01
   160  1.5900000000000D+00  5.4203671874852D-01 -1.1767513877489D-01
   161  1.6000000000000D+00  5.1819142518268D-01 -1.1536309766786D-01
   162  1.6100000000000D+00  4.9472490181213D-01 -1.1286205690384D-01
   163  1.6200000000000D+00  4.7165638554997D-01 -1.1018940373526D-01
   164  1.6300000000000D+00  4.4900403581993D-01 -1.0736208749698D-01
   165  1.6400000000000D+00  4.2678492478196D-01 -1.0439659993138D-01
   166  1.6500000000000D+00  4.0501502965730D-01 -1.0130895709027D-01
   167  1.6600000000000D+00  3.8370922718094D-01 -9.8114682825690D-02
   168  1.6700000000000D+00  3.6288129016852D-01 -9.4828793859890D-02
   169  1.6800000000000D+00  3.4254388622106D-01 -9.1465786445162D-02
   170  1.6900000000000D+00  3.2270857852880D-01 -8.8039624590191D-02
   171  1.7000000000000D+00  3.0338582878841D-01 -8.4563729859505D-02
   172  1.7100000000000D+00  2.8458500217642D-01 -8.1050972712429D-02
   173  1.7200000000000D+00  2.6631437437839D-01 -7.7513665380924D-02
   174  1.7300000000000D+00  2.4858114060690D-01 -7.3963556246448D-02
   175  1.7400000000000D+00  2.3139142658765D-01 -7.0411825704615D-02
   176  1.7500000000000D+00  2.1475030144500D-01 -6.6869083476022D-02
   177  1.7600000000000D+00  1.9866179244195D-01 -6.3345367338039D-02
   178  1.7700000000000D+00  1.8312890151052D-01 -5.9850143238489D-02
   179  1.7800000000000D+00  1.6815362350110D-01 -5.6392306749396D-02
   180  1.7900000000000D+00  1.5373696609583D-01 -5.2980185827766D-02
   181  1.8000000000000D+00  1.3987897128886D-01 -4.9621544823682D-02
   182  1.8100000000000D+00  1.2657873838782D-01 -4.6323589710500D-02
   183  1.8200000000000D+00  1.1383444841926D-01 -4.3092974460597D-02
   184  1.8300000000000D+00  1.0164338989731D-01 -3.9935808548365D-02
   185  1.8400000000000D+00  9.0001985828222D-02 -3.6857665491468D-02
   186  1.8500000000000D+00  7.8905821904774D-02 -3.3863592413350D-02
   187  1.8600000000000D+00  6.8349675770276D-02 -3.0958120537192D-02
   188  1.8700000000000D+00  5.8327547285361D-02 -2.8145276582139D-02
   189  1.8800000000000D+00  4.8832689698649D-02 -2.5428594985614D-02
   190  1.8900000000000D+00  3.9857641631774D-02 -2.2811130903184D-02
   191  1.9000000000000D+00  3.1394259795003D-02 -2.0295473924742D-02
   192  1.9100000000000D+00  2.3433752339297D-02 -1.7883762446397D-02
   193  1.9200000000000D+00  1.5966712754018D-02 -1.5577698640711D-02
   194  1.9300000000000D+00  8.9831542399636D-03 -1.3378563968956D-02
   195  1.9400000000000D+00  2.4725444347786D-03 -1.1287235165913D-02
   196  1.9500000000000D+00 -3.5761595376582D-03 -9.3042006598462D-03
   197  1.9600000000000D+00 -9.1744758457939D-03 -7.4295773413129D-03
   198  1.9700000000000D+00 -1.4334362570892D-02 -5.6631276547590D-03
   199  1.9800000000000D+00 -1.9068182296806D-02 -4.0042769335972D-03
   200  1.9900000000000D+00 -2.3388666731739D-02 -2.4521309316768D-03
   201  2.0000000000000D+00 -2.7308881404245D-02 -1.0054935145062D-03
   202  2.0100000000000D+00 -3.0842190586238D-02  3.3711558592705D-04
   203  2.0200000000000D+00 -3.4002222391248D-02  1.5774429350533D-03
   204  2.0300000000000D+00 -3.6802834248196D-02  2.7174836048737D-03
   205  2.0400000000000D+00 -3.9258078701793D-02  3.7594634089560D-03
   206  2.0500000000000D+00 -4.1382169651621D-02  4.7058212400003D-03
   207  2.0600000000000D+00 -4.3189449118579D-02  5.5591915729637D-03
   208  2.0700000000000D+00 -4.4694354466923D-02  6.3223870959029D-03
   209  2.0800000000000D+00 -4.5911386324370D-02  6.9983816306884D-03
   210  2.0900000000000D+00 -4.6855077049176D-02  7.5902932522532D-03
   211  2.1000000000000D+00 -4.7539959918027D-02  8.1013677266581D-03
   212  2.1100000000000D+00 -4.7980539056253D-02  8.5349622883610D-03
   213  2.1200000000000D+00 -4.8191260038618D-02  8.8945297131618D-03
   214  2.1300000000000D+00 -4.8186481395822D-02  9.1836028533216D-03
   215  2.1400000000000D+00 -4.7980446837482D-02  9.4057795085560D-03
   216  2.1500000000000D+00 -4.7587258361909D-02  9.5647077567385D-03
   217  2.1600000000000D+00 -4.7020850264186D-02  9.6640717572936D-03
   218  2.1700000000000D+00 -4.6294963924942D-02  9.7075779467539D-03
   219  2.1800000000000D+00 -4.5423123633119D-02  9.6989418143322D-03
   220  2.1900000000000D+00 -4.4418613226714D-02  9.6418751032243D-03
   221  2.2000000000000D+00 -4.3294453674462D-02  9.5400735327996D-03
   222  2.2100000000000D+00 -4.2063381644970D-02  9.3972050810542D-03
   223  2.2200000000000D+00 -4.0737828903972D-02  9.2168987120885D-03
   224  2.2300000000000D+00 -3.9329902750662D-02  9.0027337057211D-03
   225  2.2400000000000D+00 -3.7851367351326D-02  8.7582294911852D-03
   226  2.2500000000000D+00 -3.6313625959065D-02  8.4868359743844D-03
   227  2.2600000000000D+00 -3.4727704140850D-02  8.1919244709065D-03
   228  2.2700000000000D+00 -3.3104233837261D-02  7.8767790971075D-03
   229  2.2800000000000D+00 -3.1453438355949D-02  7.5445887066513D-03
   230  2.2900000000000D+00 -2.9785118294780D-02  7.1984393720988D-03
   231  2.3000000000000D+00 -2.8108638264568D-02  6.8413073111783D-03
   232  2.3100000000000D+00 -2.6432914533980D-02  6.4760523665071D-03
   233  2.3200000000000D+00 -2.4766403500550D-02  6.1054119593307D-03
   234  2.3300000000000D+00 -2.3117090934056D-02  5.7319954753540D-03
   235  2.3400000000000D+00 -2.1492482093851D-02  5.3582791773536D-03
   236  2.3500000000000D+00 -1.9899592574544D-02  4.9866015211532D-03
   237  2.3600000000000D+00 -1.8344939902685D-02  4.6191588996714D-03
   238  2.3700000000000D+00 -1.6834535895761D-02  4.2580018339603D-03
   239  2.3800000000000D+00 -1.5373879695103D-02  3.9050315316166D-03
   240  2.3900000000000D+00 -1.3967951485226D-02  3.5619968338650D-03
   241  2.4000000000000D+00 -1.2621206873228D-02  3.2304915346023D-03
   242  2.4100000000000D+00 -1.1337571886083D-02  2.9119520295266D-03
   243  2.4200000000000D+00 -1.0120438568288D-02  2.6076552959687D-03
   244  2.4300000000000D+00 -8.9726611491166D-03  2.3187171774135D-03
   245  2.4400000000000D+00 -7.8965527714349D-03  2.0460909599071D-03
   246  2.4500000000000D+00 -6.8938827196884D-03  1.7905662074319D-03
   247  2.4600000000000D+00 -5.9658741414714D-03  1.5527678451057D-03
   248  2.4700000000000D+00 -5.1132022752686D-03  1.3331554961297D-03
   249  2.4800000000000D+00 -4.3359930694940D-03  1.1320229984479D-03
   250  2.4900000000000D+00 -3.6338222334408D-03  9.4949812319834D-04
   251  2.5000000000000D+00 -3.0057147419087D-03  7.8554251036651D-04
   252  2.5100000000000D+00 -2.4501446253854D-03  6.3995170431024D-04
   253  2.5200000000000D+00 -1.9650351425390D-03  5.1235535458286D-04
   254  2.5300000000000D+00 -1.5477593601302D-03  4.0221760097015D-04
   255  2.5400000000000D+00 -1.1951409220328D-03  3.0883748494863D-04
   256  2.5500000000000D+00 -9.0359605321169D-04  2.3136934241553D-04
   257  2.5600000000000D+00 -6.6860816722374D-04  1.6874929554666D-04
   258  2.5700000000000D+00 -4.8528289519100D-04  1.1977387717612D-04
   259  2.5800000000000D+00 -3.4678257432749D-04  8.2804369494155D-05
   260  2.5900000000000D+00 -2.4997986931547D-04  5.6839745502492D-05
   261  2.6000000000000D+00 -1.8975983561369D-04  4.0440956463337D-05
   262  2.6100000000000D+00 -1.6366429506816D-04  3.2675968595818D-05
   263  2.6200000000000D+00 -1.5390193610105D-04  2.9538522294200D-05
   264  2.6300000000000D+00 -1.4322108726084D-04  2.7149145614222D-05
   265  2.6400000000000D+00 -1.1227823582512D-04  2.1251524534571D-05
   266  2.6500000000000D+00 -6.5969899419994D-05  1.2503776276121D-05
   267  2.6600000000000D+00 -1.9569956474822D-05  3.7202694559166D-06
   268  2.6700000000000D+00  8.7837505377420D-06 -1.6498065963825D-06
   269  2.6800000000000D+00  1.4198501598855D-05 -2.6666233770977D-06
   270  2.6900000000000D+00  7.6255686281253D-06 -1.4324036491911D-06
   271  2.7000000000000D+00 -1.0907037867052D-06  2.0330176597904D-07
   272  2.7100000000000D+00 -3.0993296270327D-06  5.7721209665564D-07
   273  2.7200000000000D+00 -2.3166613855642D-06  4.3114348140448D-07
   274  2.7300000000000D+00  2.5509762444669D-08 -4.8342265333161D-09
   275  2.7400000000000D+00  3.4658245140020D-07 -6.5679093883162D-08
   276  2.7500000000000D+00  3.4581073538339D-07 -6.5532849869610D-08
   277  2.7600000000000D+00  7.5976045378449D-08 -1.4397837504821D-08
   278  2.7700000000000D+00  0.0000000000000D+00  0.0000000000000D+00
   279  2.7800000000000D+00  0.0000000000000D+00  0.0000000000000D+00
   280  2.7900000000000D+00  0.0000000000000D+00  0.0000000000000D+00
   281  2.8000000000000D+00  0.0000000000000D+00  0.0000000000000D+00
   282  2.8100000000000D+00  0.0000000000000D+00  0.0000000000000D+00
   283  2.8200000000000D+00  0.0000000000000D+00  0.0000000000000D+00
   284  2.8300000000000D+00  0.0000000000000D+00  0.0000000000000D+00
   285  2.8400000000000D+00  0.0000000000000D+00  0.0000000000000D+00
   286  2.8500000000000D+00  0.0000000000000D+00  0.0000000000000D+00
   287  2.8600000000000D+00  0.0000000000000D+00  0.0000000000000D+00
   288  2.8700000000000D+00  0.0000000000000D+00  0.0000000000000D+00
   289  2.8800000000000D+00  0.0000000000000D+00  0.0000000000000D+00
   290  2.8900000000000D+00  0.0000000000000D+00  0.0000000000000D+00
   291  2.9000000000000D+00  0.0000000000000D+00  0.0000000000000D+00
   292  2.9100000000000D+00  0.0000000000000D+00  0.0000000000000D+00
   293  2.9200000000000D+00  0.0000000000000D+00  0.0000000000000D+00
   294  2.9300000000000D+00  0.0000000000000D+00  0.0000000000000D+00
   295  2.9400000000000D+00  0.0000000000000D+00  0.0000000000000D+00
   296  2.9500000000000D+00  0.0000000000000D+00  0.0000000000000D+00
   297  2.9600000000000D+00  0.0000000000000D+00  0.0000000000000D+00
   298  2.9700000000000D+00  0.0000000000000D+00  0.0000000000000D+00
   299  2.9800000000000D+00  0.0000000000000D+00  0.0000000000000D+00
   300  2.9900000000000D+00  0.0000000000000D+00  0.0000000000000D+00
   301  3.0000000000000D+00  0.0000000000000D+00  0.0000000000000D+00
   302  3.0100000000000D+00  0.0000000000000D+00  0.0000000000000D+00
   303  3.0200000000000D+00  0.0000000000000D+00  0.0000000000000D+00
   304  3.0300000000000D+00  0.0000000000000D+00  0.0000000000000D+00
   305  3.0400000000000D+00  0.0000000000000D+00  0.0000000000000D+00
   306  3.0500000000000D+00  0.0000000000000D+00  0.0000000000000D+00
   307  3.0600000000000D+00  0.0000000000000D+00  0.0000000000000D+00
   308  3.0700000000000D+00  0.0000000000000D+00  0.0000000000000D+00
   309  3.0800000000000D+00  0.0000000000000D+00  0.0000000000000D+00
   310  3.0900000000000D+00  0.0000000000000D+00  0.0000000000000D+00
   311  3.1000000000000D+00  0.0000000000000D+00  0.0000000000000D+00
   312  3.1100000000000D+00  0.0000000000000D+00  0.0000000000000D+00
   313  3.1200000000000D+00  0.0000000000000D+00  0.0000000000000D+00
   314  3.1300000000000D+00  0.0000000000000D+00  0.0000000000000D+00
   315  3.1400000000000D+00  0.0000000000000D+00  0.0000000000000D+00
   316  3.1500000000000D+00  0.0000000000000D+00  0.0000000000000D+00
   317  3.1600000000000D+00  0.0000000000000D+00  0.0000000000000D+00
   318  3.1700000000000D+00  0.0000000000000D+00  0.0000000000000D+00
   319  3.1800000000000D+00  0.0000000000000D+00  0.0000000000000D+00
   320  3.1900000000000D+00  0.0000000000000D+00  0.0000000000000D+00
   321  3.2000000000000D+00  0.0000000000000D+00  0.0000000000000D+00
   322  3.2100000000000D+00  0.0000000000000D+00  0.0000000000000D+00
   323  3.2200000000000D+00  0.0000000000000D+00  0.0000000000000D+00
   324  3.2300000000000D+00  0.0000000000000D+00  0.0000000000000D+00
   325  3.2400000000000D+00  0.0000000000000D+00  0.0000000000000D+00
   326  3.2500000000000D+00  0.0000000000000D+00  0.0000000000000D+00
   327  3.2600000000000D+00  0.0000000000000D+00  0.0000000000000D+00
   328  3.2700000000000D+00  0.0000000000000D+00  0.0000000000000D+00
   329  3.2800000000000D+00  0.0000000000000D+00  0.0000000000000D+00
   330  3.2900000000000D+00  0.0000000000000D+00  0.0000000000000D+00
   331  3.3000000000000D+00  0.0000000000000D+00  0.0000000000000D+00
   332  3.3100000000000D+00  0.0000000000000D+00  0.0000000000000D+00
   333  3.3200000000000D+00  0.0000000000000D+00  0.0000000000000D+00
   334  3.3300000000000D+00  0.0000000000000D+00  0.0000000000000D+00
   335  3.3400000000000D+00  0.0000000000000D+00  0.0000000000000D+00
   336  3.3500000000000D+00  0.0000000000000D+00  0.0000000000000D+00
   337  3.3600000000000D+00  0.0000000000000D+00  0.0000000000000D+00
   338  3.3700000000000D+00  0.0000000000000D+00  0.0000000000000D+00
   339  3.3800000000000D+00  0.0000000000000D+00  0.0000000000000D+00
   340  3.3900000000000D+00  0.0000000000000D+00  0.0000000000000D+00
   341  3.4000000000000D+00  0.0000000000000D+00  0.0000000000000D+00
   342  3.4100000000000D+00  0.0000000000000D+00  0.0000000000000D+00
   343  3.4200000000000D+00  0.0000000000000D+00  0.0000000000000D+00
   344  3.4300000000000D+00  0.0000000000000D+00  0.0000000000000D+00
   345  3.4400000000000D+00  0.0000000000000D+00  0.0000000000000D+00
   346  3.4500000000000D+00  0.0000000000000D+00  0.0000000000000D+00
   347  3.4600000000000D+00  0.0000000000000D+00  0.0000000000000D+00
   348  3.4700000000000D+00  0.0000000000000D+00  0.0000000000000D+00
   349  3.4800000000000D+00  0.0000000000000D+00  0.0000000000000D+00
   350  3.4900000000000D+00  0.0000000000000D+00  0.0000000000000D+00
   351  3.5000000000000D+00  0.0000000000000D+00  0.0000000000000D+00
   352  3.5100000000000D+00  0.0000000000000D+00  0.0000000000000D+00
   353  3.5200000000000D+00  0.0000000000000D+00  0.0000000000000D+00
   354  3.5300000000000D+00  0.0000000000000D+00  0.0000000000000D+00
   355  3.5400000000000D+00  0.0000000000000D+00  0.0000000000000D+00
   356  3.5500000000000D+00  0.0000000000000D+00  0.0000000000000D+00
   357  3.5600000000000D+00  0.0000000000000D+00  0.0000000000000D+00
   358  3.5700000000000D+00  0.0000000000000D+00  0.0000000000000D+00
   359  3.5800000000000D+00  0.0000000000000D+00  0.0000000000000D+00
   360  3.5900000000000D+00  0.0000000000000D+00  0.0000000000000D+00
   361  3.6000000000000D+00  0.0000000000000D+00  0.0000000000000D+00
   362  3.6100000000000D+00  0.0000000000000D+00  0.0000000000000D+00
   363  3.6200000000000D+00  0.0000000000000D+00  0.0000000000000D+00
   364  3.6300000000000D+00  0.0000000000000D+00  0.0000000000000D+00
   365  3.6400000000000D+00  0.0000000000000D+00  0.0000000000000D+00
   366  3.6500000000000D+00  0.0000000000000D+00  0.0000000000000D+00
   367  3.6600000000000D+00  0.0000000000000D+00  0.0000000000000D+00
   368  3.6700000000000D+00  0.0000000000000D+00  0.0000000000000D+00
   369  3.6800000000000D+00  0.0000000000000D+00  0.0000000000000D+00
   370  3.6900000000000D+00  0.0000000000000D+00  0.0000000000000D+00
   371  3.7000000000000D+00  0.0000000000000D+00  0.0000000000000D+00
   372  3.7100000000000D+00  0.0000000000000D+00  0.0000000000000D+00
   373  3.7200000000000D+00  0.0000000000000D+00  0.0000000000000D+00
   374  3.7300000000000D+00  0.0000000000000D+00  0.0000000000000D+00
   375  3.7400000000000D+00  0.0000000000000D+00  0.0000000000000D+00
   376  3.7500000000000D+00  0.0000000000000D+00  0.0000000000000D+00
   377  3.7600000000000D+00  0.0000000000000D+00  0.0000000000000D+00
   378  3.7700000000000D+00  0.0000000000000D+00  0.0000000000000D+00
   379  3.7800000000000D+00  0.0000000000000D+00  0.0000000000000D+00
   380  3.7900000000000D+00  0.0000000000000D+00  0.0000000000000D+00
   381  3.8000000000000D+00  0.0000000000000D+00  0.0000000000000D+00
   382  3.8100000000000D+00  0.0000000000000D+00  0.0000000000000D+00
   383  3.8200000000000D+00  0.0000000000000D+00  0.0000000000000D+00
   384  3.8300000000000D+00  0.0000000000000D+00  0.0000000000000D+00
   385  3.8400000000000D+00  0.0000000000000D+00  0.0000000000000D+00
   386  3.8500000000000D+00  0.0000000000000D+00  0.0000000000000D+00
   387  3.8600000000000D+00  0.0000000000000D+00  0.0000000000000D+00
   388  3.8700000000000D+00  0.0000000000000D+00  0.0000000000000D+00
   389  3.8800000000000D+00  0.0000000000000D+00  0.0000000000000D+00
   390  3.8900000000000D+00  0.0000000000000D+00  0.0000000000000D+00
   391  3.9000000000000D+00  0.0000000000000D+00  0.0000000000000D+00
   392  3.9100000000000D+00  0.0000000000000D+00  0.0000000000000D+00
   393  3.9200000000000D+00  0.0000000000000D+00  0.0000000000000D+00
   394  3.9300000000000D+00  0.0000000000000D+00  0.0000000000000D+00
   395  3.9400000000000D+00  0.0000000000000D+00  0.0000000000000D+00
   396  3.9500000000000D+00  0.0000000000000D+00  0.0000000000000D+00
   397  3.9600000000000D+00  0.0000000000000D+00  0.0000000000000D+00
   398  3.9700000000000D+00  0.0000000000000D+00  0.0000000000000D+00
   399  3.9800000000000D+00  0.0000000000000D+00  0.0000000000000D+00
   400  3.9900000000000D+00  0.0000000000000D+00  0.0000000000000D+00
   401  4.0000000000000D+00  0.0000000000000D+00  0.0000000000000D+00
   402  4.0100000000000D+00  0.0000000000000D+00  0.0000000000000D+00
   403  4.0200000000000D+00  0.0000000000000D+00  0.0000000000000D+00
   404  4.0300000000000D+00  0.0000000000000D+00  0.0000000000000D+00
   405  4.0400000000000D+00  0.0000000000000D+00  0.0000000000000D+00
   406  4.0500000000000D+00  0.0000000000000D+00  0.0000000000000D+00
   407  4.0600000000000D+00  0.0000000000000D+00  0.0000000000000D+00
   408  4.0700000000000D+00  0.0000000000000D+00  0.0000000000000D+00
   409  4.0800000000000D+00  0.0000000000000D+00  0.0000000000000D+00
   410  4.0900000000000D+00  0.0000000000000D+00  0.0000000000000D+00
   411  4.1000000000000D+00  0.0000000000000D+00  0.0000000000000D+00
   412  4.1100000000000D+00  0.0000000000000D+00  0.0000000000000D+00
   413  4.1200000000000D+00  0.0000000000000D+00  0.0000000000000D+00
   414  4.1300000000000D+00  0.0000000000000D+00  0.0000000000000D+00
   415  4.1400000000000D+00  0.0000000000000D+00  0.0000000000000D+00
   416  4.1500000000000D+00  0.0000000000000D+00  0.0000000000000D+00
   417  4.1600000000000D+00  0.0000000000000D+00  0.0000000000000D+00
   418  4.1700000000000D+00  0.0000000000000D+00  0.0000000000000D+00
   419  4.1800000000000D+00  0.0000000000000D+00  0.0000000000000D+00
   420  4.1900000000000D+00  0.0000000000000D+00  0.0000000000000D+00
   421  4.2000000000000D+00  0.0000000000000D+00  0.0000000000000D+00
   422  4.2100000000000D+00  0.0000000000000D+00  0.0000000000000D+00