Sr    ONCVPSP-3.3.1  r_core=   2.81795   2.68665   2.38455
     38.0000     10.0000      210904    zatom,zion,pspd
     8       2   2     4   600     0    pspcod,pspxc,lmax,lloc,mmax,r2well
  5.99000000  0.00000000  0.00000000    rchrg fchrg qchrg
     2     4     3     0    nproj
     3     1           extension_switch
     4     4     0    nprojso
   0                         4.8153151573666D-01  3.0186592726926D+00
     1  0.0000000000000D+00 -2.6165250521792D-12  1.1293188606487D-12
     2  1.0000000000000D-02 -4.1758877502129D-03  3.8568944571764D-02
     3  2.0000000000000D-02 -8.3388164149203D-03  7.7104345028649D-02
     4  3.0000000000000D-02 -1.2475815657718D-02  1.1557267818429D-01
     5  4.0000000000000D-02 -1.6573892784625D-02  1.5394046275001D-01
     6  5.0000000000000D-02 -2.0620021925191D-02  1.9217428038501D-01
     7  6.0000000000000D-02 -2.4601133643634D-02  2.3024079686738D-01
     8  7.0000000000000D-02 -2.8504105120286D-02  2.6810678342489D-01
     9  8.0000000000000D-02 -3.2315751041007D-02  3.0573913826337D-01
    10  9.0000000000000D-02 -3.6022815328984D-02  3.4310490832907D-01
    11  1.0000000000000D-01 -3.9611963849458D-02  3.8017131133984D-01
    12  1.1000000000000D-01 -4.3069778213409D-02  4.1690575811770D-01
    13  1.2000000000000D-01 -4.6382750801209D-02  4.5327587525382D-01
    14  1.3000000000000D-01 -4.9537281121524D-02  4.8924952813360D-01
    15  1.4000000000000D-01 -5.2519673614608D-02  5.2479484434777D-01
    16  1.5000000000000D-01 -5.5316137002316D-02  5.5988023751192D-01
    17  1.6000000000000D-01 -5.7912785279961D-02  5.9447443151397D-01
    18  1.7000000000000D-01 -6.0295640437408D-02  6.2854648520583D-01
    19  1.8000000000000D-01 -6.2450636988521D-02  6.6206581755189D-01
    20  1.9000000000000D-01 -6.4363628379620D-02  6.9500223324331D-01
    21  2.0000000000000D-01 -6.6020395338400D-02  7.2732594878340D-01
    22  2.1000000000000D-01 -6.7406656215629D-02  7.5900761904513D-01
    23  2.2000000000000D-01 -6.8508079361947D-02  7.9001836429793D-01
    24  2.3000000000000D-01 -6.9310297572480D-02  8.2032979769663D-01
    25  2.4000000000000D-01 -6.9798924621366D-02  8.4991405322103D-01
    26  2.5000000000000D-01 -6.9959573898139D-02  8.7874381405034D-01
    27  2.6000000000000D-01 -6.9777879147137D-02  9.0679234135207D-01
    28  2.7000000000000D-01 -6.9239517300359D-02  9.3403350346073D-01
    29  2.8000000000000D-01 -6.8330233383444D-02  9.6044180541683D-01
    30  2.9000000000000D-01 -6.7035867463415D-02  9.8599241883270D-01
    31  3.0000000000000D-01 -6.5342383595977D-02  1.0106612120464D+00
    32  3.1000000000000D-01 -6.3235900719371D-02  1.0344247805217D+00
    33  3.2000000000000D-01 -6.0702725430790D-02  1.0572604774456D+00
    34  3.3000000000000D-01 -5.7729386570936D-02  1.0791464444741D+00
    35  3.4000000000000D-01 -5.4302671531505D-02  1.1000616425684D+00
    36  3.5000000000000D-01 -5.0409664190376D-02  1.1199858828630D+00
    37  3.6000000000000D-01 -4.6037784368918D-02  1.1388998575020D+00
    38  3.7000000000000D-01 -4.1174828696344D-02  1.1567851703752D+00
    39  3.8000000000000D-01 -3.5809012756336D-02  1.1736243676837D+00
    40  3.9000000000000D-01 -2.9929014382303D-02  1.1894009682604D+00
    41  4.0000000000000D-01 -2.3524017958874D-02  1.2040994935670D+00
    42  4.1000000000000D-01 -1.6583759579025D-02  1.2177054972870D+00
    43  4.2000000000000D-01 -9.0985728984605D-03  1.2302055944315D+00
    44  4.3000000000000D-01 -1.0594355219239D-03  1.2415874898710D+00
    45  4.4000000000000D-01  7.5419842509547D-03  1.2518400062054D+00
    46  4.5000000000000D-01  1.6713280498377D-02  1.2609531108823D+00
    47  4.6000000000000D-01  2.6461262751303D-02  1.2689179424711D+00
    48  4.7000000000000D-01  3.6791909259089D-02  1.2757268359998D+00
    49  4.8000000000000D-01  4.7710320638407D-02  1.2813733472613D+00
    50  4.9000000000000D-01  5.9220674101354D-02  1.2858522759933D+00
    51  5.0000000000000D-01  7.1326178461518D-02  1.2891596878373D+00
    52  5.1000000000000D-01  8.4029030118554D-02  1.2912929349821D+00
    53  5.2000000000000D-01  9.7330370223133D-02  1.2922506753959D+00
    54  5.3000000000000D-01  1.1123024322448D-01  1.2920328905549D+00
    55  5.4000000000000D-01  1.2572755700233D-01  1.2906409015745D+00
    56  5.5000000000000D-01  1.4082004478413D-01  1.2880773836526D+00
    57  5.6000000000000D-01  1.5650422904601D-01  1.2843463787354D+00
    58  5.7000000000000D-01  1.7277538759372D-01  1.2794533063198D+00
    59  5.8000000000000D-01  1.8962752201575D-01  1.2734049723062D+00
    60  5.9000000000000D-01  2.0705332869670D-01  1.2662095758227D+00
    61  6.0000000000000D-01  2.2504417257363D-01  1.2578767139420D+00
    62  6.1000000000000D-01  2.4359006381239D-01  1.2484173842161D+00
    63  6.2000000000000D-01  2.6267963757383D-01  1.2378439849605D+00
    64  6.3000000000000D-01  2.8230013703254D-01  1.2261703132213D+00
    65  6.4000000000000D-01  3.0243739980240D-01  1.2134115603654D+00
    66  6.5000000000000D-01  3.2307584791421D-01  1.1995843052379D+00
    67  6.6000000000000D-01  3.4419848148103D-01  1.1847065048365D+00
    68  6.7000000000000D-01  3.6578687617636D-01  1.1687974824594D+00
    69  6.8000000000000D-01  3.8782118463946D-01  1.1518779132882D+00
    70  6.9000000000000D-01  4.1028014191019D-01  1.1339698073741D+00
    71  7.0000000000000D-01  4.3314107498388D-01  1.1150964900011D+00
    72  7.1000000000000D-01  4.5637991656354D-01  1.0952825794101D+00
    73  7.2000000000000D-01  4.7997122307388D-01  1.0745539618699D+00
    74  7.3000000000000D-01  5.0388819698755D-01  1.0529377640930D+00
    75  7.4000000000000D-01  5.2810271349997D-01  1.0304623229979D+00
    76  7.5000000000000D-01  5.5258535157469D-01  1.0071571528296D+00
    77  7.6000000000000D-01  5.7730542936614D-01  9.8305290965705D-01
    78  7.7000000000000D-01  6.0223104401181D-01  9.5818135327186D-01
    79  7.8000000000000D-01  6.2732911577026D-01  9.3257530652504D-01
    80  7.9000000000000D-01  6.5256543646613D-01  9.0626861214155D-01
    81  8.0000000000000D-01  6.7790472218752D-01  8.7929608706357D-01
    82  8.1000000000000D-01  7.0331067016554D-01  8.5169347438003D-01
    83  8.2000000000000D-01  7.2874601975017D-01  8.2349739290802D-01
    84  8.3000000000000D-01  7.5417261738089D-01  7.9474528449961D-01
    85  8.4000000000000D-01  7.7955148543528D-01  7.6547535915519D-01
    86  8.5000000000000D-01  8.0484289482320D-01  7.3572653803228D-01
    87  8.6000000000000D-01  8.3000644117938D-01  7.0553839444593D-01
    88  8.7000000000000D-01  8.5500112449233D-01  6.7495109296434D-01
    89  8.8000000000000D-01  8.7978543199310D-01  6.4400532671036D-01
    90  8.9000000000000D-01  9.0431742411366D-01  6.1274225298631D-01
    91  9.0000000000000D-01  9.2855482331071D-01  5.8120342734632D-01
    92  9.1000000000000D-01  9.5245510553825D-01  5.4943073624648D-01
    93  9.2000000000000D-01  9.7597559413944D-01  5.1746632840945D-01
    94  9.3000000000000D-01  9.9907355591684D-01  4.8535254504541D-01
    95  9.4000000000000D-01  1.0217062991287D+00  4.5313184907702D-01
    96  9.5000000000000D-01  1.0438312731491D+00  4.2084675352063D-01
    97  9.6000000000000D-01  1.0654061695196D+00  3.8853974918074D-01
    98  9.7000000000000D-01  1.0863890241117D+00  3.5625323181868D-01
    99  9.8000000000000D-01  1.1067383201119D+00  3.2402942896041D-01
   100  9.9000000000000D-01  1.1264130915329D+00  2.9191032651115D-01
   101  1.0000000000000D+00  1.1453730269509D+00  2.5993759534762D-01
   102  1.0100000000000D+00  1.1635785731600D+00  2.2815251806089D-01
   103  1.0200000000000D+00  1.1809910384363D+00  1.9659591602433D-01
   104  1.0300000000000D+00  1.1975726950947D+00  1.6530807696257D-01
   105  1.0400000000000D+00  1.2132868810259D+00  1.3432868319811D-01
   106  1.0500000000000D+00  1.2280980998952D+00  1.0369674075218D-01
   107  1.0600000000000D+00  1.2419721196882D+00  7.3450509476206D-02
   108  1.0700000000000D+00  1.2548760692878D+00  4.3627434389244D-02
   109  1.0800000000000D+00  1.2667785327714D+00  1.4264078395175D-02
   110  1.0900000000000D+00  1.2776496411181D+00 -1.4603943448408D-02
   111  1.1000000000000D+00  1.2874611610230D+00 -4.2942027940440D-02
   112  1.1100000000000D+00  1.2961865805206D+00 -7.0716645859666D-02
   113  1.1200000000000D+00  1.3038011911241D+00 -9.7895402038712D-02
   114  1.1300000000000D+00  1.3102821662002D+00 -1.2444709323073D-01
   115  1.1400000000000D+00  1.3156086353020D+00 -1.5034176361494D-01
   116  1.1500000000000D+00  1.3197617541975D+00 -1.7555075779323D-01
   117  1.1600000000000D+00  1.3227247703405D+00 -2.0004677113564D-01
   118  1.1700000000000D+00  1.3244830835417D+00 -2.2380389733826D-01
   119  1.1800000000000D+00  1.3250243016122D+00 -2.4679767306392D-01
   120  1.1900000000000D+00  1.3243382907649D+00 -2.6900511954387D-01
   121  1.2000000000000D+00  1.3224172205767D+00 -2.9040478102674D-01
   122  1.2100000000000D+00  1.3192556033221D+00 -3.1097675996572D-01
   123  1.2200000000000D+00  1.3148503275144D+00 -3.3070274884776D-01
   124  1.2300000000000D+00  1.3092006855058D+00 -3.4956605857554D-01
   125  1.2400000000000D+00  1.3023083950075D+00 -3.6755164332048D-01
   126  1.2500000000000D+00  1.2941776144182D+00 -3.8464612177555D-01
   127  1.2600000000000D+00  1.2848149518670D+00 -4.0083779474894D-01
   128  1.2700000000000D+00  1.2742294678917D+00 -4.1611665904516D-01
   129  1.2800000000000D+00  1.2624326716919D+00 -4.3047441759078D-01
   130  1.2900000000000D+00  1.2494385109281D+00 -4.4390448577780D-01
   131  1.3000000000000D+00  1.2352633550437D+00 -4.5640199400117D-01
   132  1.3100000000000D+00  1.2199259721107D+00 -4.6796378637795D-01
   133  1.3200000000000D+00  1.2034474992334D+00 -4.7858841565536D-01
   134  1.3300000000000D+00  1.1858514065440D+00 -4.8827613431179D-01
   135  1.3400000000000D+00  1.1671634548547D+00 -4.9702888187338D-01
   136  1.3500000000000D+00  1.1474116470672D+00 -5.0485026848564D-01
   137  1.3600000000000D+00  1.1266261734194D+00 -5.1174555477009D-01
   138  1.3700000000000D+00  1.1048393507132D+00 -5.1772162802857D-01
   139  1.3800000000000D+00  1.0820855556685D+00 -5.2278697485866D-01
   140  1.3900000000000D+00  1.0584011525454D+00 -5.2695165024201D-01
   141  1.4000000000000D+00  1.0338244152470D+00 -5.3022724320519D-01
   142  1.4100000000000D+00  1.0083954440779D+00 -5.3262683913144D-01
   143  1.4200000000000D+00  9.8215607738218D-01 -5.3416497882982D-01
   144  1.4300000000000D+00  9.5514979831006D-01 -5.3485761447986D-01
   145  1.4400000000000D+00  9.2742163692859D-01 -5.3472206255287D-01
   146  1.4500000000000D+00  8.9901806798087D-01 -5.3377695385918D-01
   147  1.4600000000000D+00  8.6998690453759D-01 -5.3204218083761D-01
   148  1.4700000000000D+00  8.4037718785164D-01 -5.2953884224001D-01
   149  1.4800000000000D+00  8.1023907371722D-01 -5.2628918535972D-01
   150  1.4900000000000D+00  7.7962371563162D-01 -5.2231654594950D-01
   151  1.5000000000000D+00  7.4858314511264D-01 -5.1764528600832D-01
   152  1.5100000000000D+00  7.1717014946786D-01 -5.1230072958081D-01
   153  1.5200000000000D+00  6.8543814739032D-01 -5.0630909676266D-01
   154  1.5300000000000D+00  6.5344106269946D-01 -4.9969743606976D-01
   155  1.5400000000000D+00  6.2123319659620D-01 -4.9249355536141D-01
   156  1.5500000000000D+00  5.8886909877555D-01 -4.8472595149292D-01
   157  1.5600000000000D+00  5.5640343776163D-01 -4.7642373888429D-01
   158  1.5700000000000D+00  5.2389087081436D-01 -4.6761657718971D-01
   159  1.5800000000000D+00  4.9138591377912D-01 -4.5833459825571D-01
   160  1.5900000000000D+00  4.5894281121308D-01 -4.4860833255164D-01
   161  1.6000000000000D+00  4.2661540717576D-01 -4.3846863526666D-01
   162  1.6100000000000D+00  3.9445701698509D-01 -4.2794661224673D-01
   163  1.6200000000000D+00  3.6252030034302D-01 -4.1707354597403D-01
   164  1.6300000000000D+00  3.3085713609672D-01 -4.0588082174832D-01
   165  1.6400000000000D+00  2.9951849904197D-01 -3.9439985427659D-01
   166  1.6500000000000D+00  2.6855433900524D-01 -3.8266201481739D-01
   167  1.6600000000000D+00  2.3801346260090D-01 -3.7069855908489D-01
   168  1.6700000000000D+00  2.0794341786944D-01 -3.5854055604515D-01
   169  1.6800000000000D+00  1.7839038217807D-01 -3.4621881780561D-01
   170  1.6900000000000D+00  1.4939905355217D-01 -3.3376383071350D-01
   171  1.7000000000000D+00  1.2101254580513D-01 -3.2120568786010D-01
   172  1.7100000000000D+00  9.3272287584847D-02 -3.0857402308404D-01
   173  1.7200000000000D+00  6.6217925699127D-02 -2.9589794666976D-01
   174  1.7300000000000D+00  3.9887232768643D-02 -2.8320598280313D-01
   175  1.7400000000000D+00  1.4316019580967D-02 -2.7052600898659D-01
   176  1.7500000000000D+00 -1.0461947901933D-02 -2.5788519743217D-01
   177  1.7600000000000D+00 -3.4415026473483D-02 -2.4530995865232D-01
   178  1.7700000000000D+00 -5.7513768725814D-02 -2.3282588720737D-01
   179  1.7800000000000D+00 -7.9730990731510D-02 -2.2045770986172D-01
   180  1.7900000000000D+00 -1.0104183470104D-01 -2.0822923603182D-01
   181  1.8000000000000D+00 -1.2142382606252D-01 -1.9616331081683D-01
   182  1.8100000000000D+00 -1.4085692543397D-01 -1.8428177043051D-01
   183  1.8200000000000D+00 -1.5932357494250D-01 -1.7260540032529D-01
   184  1.8300000000000D+00 -1.7680873937066D-01 -1.6115389581869D-01
   185  1.8400000000000D+00 -1.9329994172160D-01 -1.4994582545206D-01
   186  1.8500000000000D+00 -2.0878729357794D-01 -1.3899859693841D-01
   187  1.8600000000000D+00 -2.2326352007884D-01 -1.2832842582105D-01
   188  1.8700000000000D+00 -2.3672397970244D-01 -1.1795030678809D-01
   189  1.8800000000000D+00 -2.4916667898084D-01 -1.0787798761849D-01
   190  1.8900000000000D+00 -2.6059228208511D-01 -9.8123945827606D-02
   191  1.9000000000000D+00 -2.7100411574960D-01 -8.8699367816572D-02
   192  1.9100000000000D+00 -2.8040816922153D-01 -7.9614130723101D-02
   193  1.9200000000000D+00 -2.8881308996452D-01 -7.0876786641255D-02
   194  1.9300000000000D+00 -2.9623017473763D-01 -6.2494549448077D-02
   195  1.9400000000000D+00 -3.0267335674155D-01 -5.4473283915761D-02
   196  1.9500000000000D+00 -3.0815919099436D-01 -4.6817496409130D-02
   197  1.9600000000000D+00 -3.1270682842440D-01 -3.9530330512820D-02
   198  1.9700000000000D+00 -3.1633798477932D-01 -3.2613565418282D-02
   199  1.9800000000000D+00 -3.1907698618698D-01 -2.6067587765374D-02
   200  1.9900000000000D+00 -3.2095053023744D-01 -1.9891467090732D-02
   201  2.0000000000000D+00 -3.2198782411361D-01 -1.4082894469374D-02
   202  2.0100000000000D+00 -3.2222081791969D-01 -8.6380929085296D-03
   203  2.0200000000000D+00 -3.2168380487606D-01 -3.5519506315587D-03
   204  2.0300000000000D+00 -3.2041277683678D-01  1.1817585534401D-03
   205  2.0400000000000D+00 -3.1844493562442D-01  5.5702092603204D-03
   206  2.0500000000000D+00 -3.1581828179774D-01  9.6213670184786D-03
   207  2.0600000000000D+00 -3.1257069873302D-01  1.3343657294446D-02
   208  2.0700000000000D+00 -3.0874005049745D-01  1.6745989750113D-02
   209  2.0800000000000D+00 -3.0436420079507D-01  1.9837751264698D-02
   210  2.0900000000000D+00 -2.9948101358202D-01  2.2628791467885D-02
   211  2.1000000000000D+00 -2.9412810594249D-01  2.5129324752191D-02
   212  2.1100000000000D+00 -2.8834283707040D-01  2.7349912036538D-02
   213  2.1200000000000D+00 -2.8216220121257D-01  2.9301409306808D-02
   214  2.1300000000000D+00 -2.7562274512896D-01  3.0994924352935D-02
   215  2.1400000000000D+00 -2.6876048752728D-01  3.2441773938125D-02
   216  2.1500000000000D+00 -2.6161084005515D-01  3.3653441299408D-02
   217  2.1600000000000D+00 -2.5420853067158D-01  3.4641534275788D-02
   218  2.1700000000000D+00 -2.4658753043227D-01  3.5417744490290D-02
   219  2.1800000000000D+00 -2.3878098331506D-01  3.5993807463493D-02
   220  2.1900000000000D+00 -2.3082113935720D-01  3.6381463788030D-02
   221  2.2000000000000D+00 -2.2273929190391D-01  3.6592421705097D-02
   222  2.2100000000000D+00 -2.1456571814959D-01  3.6638320776760D-02
   223  2.2200000000000D+00 -2.0632962408025D-01  3.6530697121880D-02
   224  2.2300000000000D+00 -1.9805909365741D-01  3.6280950172796D-02
   225  2.2400000000000D+00 -1.8978104170943D-01  3.5900310754874D-02
   226  2.2500000000000D+00 -1.8152117214585D-01  3.5399811170691D-02
   227  2.2600000000000D+00 -1.7330394007179D-01  3.4790256725521D-02
   228  2.2700000000000D+00 -1.6515251858227D-01  3.4082199034590D-02
   229  2.2800000000000D+00 -1.5708877078135D-01  3.3285911358391D-02
   230  2.2900000000000D+00 -1.4913322579050D-01  3.2411365472556D-02
   231  2.3000000000000D+00 -1.4130506009499D-01  3.1468210654278D-02
   232  2.3100000000000D+00 -1.3362208377331D-01  3.0465754615612D-02
   233  2.3200000000000D+00 -1.2610073074198D-01  2.9412946037904D-02
   234  2.3300000000000D+00 -1.1875605481850D-01  2.8318359487341D-02
   235  2.3400000000000D+00 -1.1160172998021D-01  2.7190182046767D-02
   236  2.3500000000000D+00 -1.0465005497276D-01  2.6036201746969D-02
   237  2.3600000000000D+00 -9.7911963445913D-02  2.4863798320166D-02
   238  2.3700000000000D+00 -9.1397037839891D-02  2.3679935536973D-02
   239  2.3800000000000D+00 -8.5113527786113D-02  2.2491155473606D-02
   240  2.3900000000000D+00 -7.9068373360981D-02  2.1303574877219D-02
   241  2.4000000000000D+00 -7.3267231739254D-02  2.0122883020140D-02
   242  2.4100000000000D+00 -6.7714508235043D-02  1.8954341494184D-02
   243  2.4200000000000D+00 -6.2413391416780D-02  1.7802785830562D-02
   244  2.4300000000000D+00 -5.7365891202298D-02  1.6672628483520D-02
   245  2.4400000000000D+00 -5.2572880967390D-02  1.5567863660148D-02
   246  2.4500000000000D+00 -4.8034142898487D-02  1.4492073677378D-02
   247  2.4600000000000D+00 -4.3748415839124D-02  1.3448436527110D-02
   248  2.4700000000000D+00 -3.9713446531615D-02  1.2439735089825D-02
   249  2.4800000000000D+00 -3.5926043271226D-02  1.1468367571823D-02
   250  2.4900000000000D+00 -3.2382131508141D-02  1.0536358966983D-02
   251  2.5000000000000D+00 -2.9076812007159D-02  9.6453738745452D-03
   252  2.5100000000000D+00 -2.6004420617997D-02  8.7967302453706D-03
   253  2.5200000000000D+00 -2.3158589401330D-02  7.9914139462877D-03
   254  2.5300000000000D+00 -2.0532309300784D-02  7.2300943104071D-03
   255  2.5400000000000D+00 -1.8117993666460D-02  6.5131403353629D-03
   256  2.5500000000000D+00 -1.5907542515276D-02  5.8406374778886D-03
   257  2.5600000000000D+00 -1.3892407215531D-02  5.2124050119255D-03
   258  2.5700000000000D+00 -1.2063655300665D-02  4.6280137671036D-03
   259  2.5800000000000D+00 -1.0412035395253D-02  4.0868042349371D-03
   260  2.5900000000000D+00 -8.9280414203399D-03  3.5879047981430D-03
   261  2.6000000000000D+00 -7.6019762148131D-03  3.1302500754131D-03
   262  2.6100000000000D+00 -6.4240146592590D-03  2.7125994067929D-03
   263  2.6200000000000D+00 -5.3842650206826D-03  2.3335550474126D-03
   264  2.6300000000000D+00 -4.4728289605811D-03  1.9915801954577D-03
   265  2.6400000000000D+00 -3.6798604657321D-03  1.6850169415003D-03
   266  2.6500000000000D+00 -2.9956221604547D-03  1.4121035901020D-03
   267  2.6600000000000D+00 -2.4105394225178D-03  1.1709914915156D-03
   268  2.6700000000000D+00 -1.9152528807157D-03  9.5976158722070D-04
   269  2.6800000000000D+00 -1.5006678181592D-03  7.7644012838024D-04
   270  2.6900000000000D+00 -1.1580003383018D-03  6.1901350775124D-04
   271  2.7000000000000D+00 -8.7882141289882D-04  4.8544261110061D-04
   272  2.7100000000000D+00 -6.5509785720948D-04  3.7367633283507D-04
   273  2.7200000000000D+00 -4.7923690969236D-04  2.8166501419085D-04
   274  2.7300000000000D+00 -3.4414938688996D-04  2.0737661029735D-04
   275  2.7400000000000D+00 -2.4309137696361D-04  1.4877714122564D-04
   276  2.7500000000000D+00 -1.6992962978165D-04  1.0387802787944D-04
   277  2.7600000000000D+00 -1.1869139632438D-04  7.0576754164938D-05
   278  2.7700000000000D+00 -8.5114599970138D-05  4.7233255756265D-05
   279  2.7800000000000D+00 -6.5182408179369D-05  3.2130698352843D-05
   280  2.7900000000000D+00 -5.6027671203435D-05  2.3889549961817D-05
   281  2.8000000000000D+00 -5.3001129641476D-05  2.0217950704420D-05
   282  2.8100000000000D+00 -5.0535055872613D-05  1.8324917831642D-05
   283  2.8200000000000D+00 -4.4288378906499D-05  1.5903652648590D-05
   284  2.8300000000000D+00 -3.0988132593273D-05  1.1103085087569D-05
   285  2.8400000000000D+00 -1.5733186499676D-05  5.6623240883481D-06
   286  2.8500000000000D+00 -2.0069919912295D-06  7.2731242248491D-07
   287  2.8600000000000D+00  4.0718083563512D-06 -1.4255630578950D-06
   288  2.8700000000000D+00  4.6610343337123D-06 -1.6308029416355D-06
   289  2.8800000000000D+00  2.1022496182779D-06 -7.3548621728717D-07
   290  2.8900000000000D+00 -4.6351615174174D-07  1.5974609703540D-07
   291  2.9000000000000D+00 -1.0602786189399D-06  3.6466809377024D-07
   292  2.9100000000000D+00 -8.2198829304810D-07  2.8221984005734D-07
   293  2.9200000000000D+00 -5.3763366623161D-08  1.8431342242630D-08
   294  2.9300000000000D+00  1.0550632403048D-07 -3.7960858712335D-08
   295  2.9400000000000D+00  1.2782387764090D-07 -4.5990647515949D-08
   296  2.9500000000000D+00  6.0530106684959D-08 -2.1778550706085D-08
   297  2.9600000000000D+00  0.0000000000000D+00  0.0000000000000D+00
   298  2.9700000000000D+00  0.0000000000000D+00  0.0000000000000D+00
   299  2.9800000000000D+00  0.0000000000000D+00  0.0000000000000D+00
   300  2.9900000000000D+00  0.0000000000000D+00  0.0000000000000D+00
   301  3.0000000000000D+00  0.0000000000000D+00  0.0000000000000D+00
   302  3.0100000000000D+00  0.0000000000000D+00  0.0000000000000D+00
   303  3.0200000000000D+00  0.0000000000000D+00  0.0000000000000D+00
   304  3.0300000000000D+00  0.0000000000000D+00  0.0000000000000D+00
   305  3.0400000000000D+00  0.0000000000000D+00  0.0000000000000D+00
   306  3.0500000000000D+00  0.0000000000000D+00  0.0000000000000D+00
   307  3.0600000000000D+00  0.0000000000000D+00  0.0000000000000D+00
   308  3.0700000000000D+00  0.0000000000000D+00  0.0000000000000D+00
   309  3.0800000000000D+00  0.0000000000000D+00  0.0000000000000D+00
   310  3.0900000000000D+00  0.0000000000000D+00  0.0000000000000D+00
   311  3.1000000000000D+00  0.0000000000000D+00  0.0000000000000D+00
   312  3.1100000000000D+00  0.0000000000000D+00  0.0000000000000D+00
   313  3.1200000000000D+00  0.0000000000000D+00  0.0000000000000D+00
   314  3.1300000000000D+00  0.0000000000000D+00  0.0000000000000D+00
   315  3.1400000000000D+00  0.0000000000000D+00  0.0000000000000D+00
   316  3.1500000000000D+00  0.0000000000000D+00  0.0000000000000D+00
   317  3.1600000000000D+00  0.0000000000000D+00  0.0000000000000D+00
   318  3.1700000000000D+00  0.0000000000000D+00  0.0000000000000D+00
   319  3.1800000000000D+00  0.0000000000000D+00  0.0000000000000D+00
   320  3.1900000000000D+00  0.0000000000000D+00  0.0000000000000D+00
   321  3.2000000000000D+00  0.0000000000000D+00  0.0000000000000D+00
   322  3.2100000000000D+00  0.0000000000000D+00  0.0000000000000D+00
   323  3.2200000000000D+00  0.0000000000000D+00  0.0000000000000D+00
   324  3.2300000000000D+00  0.0000000000000D+00  0.0000000000000D+00
   325  3.2400000000000D+00  0.0000000000000D+00  0.0000000000000D+00
   326  3.2500000000000D+00  0.0000000000000D+00  0.0000000000000D+00
   327  3.2600000000000D+00  0.0000000000000D+00  0.0000000000000D+00
   328  3.2700000000000D+00  0.0000000000000D+00  0.0000000000000D+00
   329  3.2800000000000D+00  0.0000000000000D+00  0.0000000000000D+00
   330  3.2900000000000D+00  0.0000000000000D+00  0.0000000000000D+00
   331  3.3000000000000D+00  0.0000000000000D+00  0.0000000000000D+00
   332  3.3100000000000D+00  0.0000000000000D+00  0.0000000000000D+00
   333  3.3200000000000D+00  0.0000000000000D+00  0.0000000000000D+00
   334  3.3300000000000D+00  0.0000000000000D+00  0.0000000000000D+00
   335  3.3400000000000D+00  0.0000000000000D+00  0.0000000000000D+00
   336  3.3500000000000D+00  0.0000000000000D+00  0.0000000000000D+00
   337  3.3600000000000D+00  0.0000000000000D+00  0.0000000000000D+00
   338  3.3700000000000D+00  0.0000000000000D+00  0.0000000000000D+00
   339  3.3800000000000D+00  0.0000000000000D+00  0.0000000000000D+00
   340  3.3900000000000D+00  0.0000000000000D+00  0.0000000000000D+00
   341  3.4000000000000D+00  0.0000000000000D+00  0.0000000000000D+00
   342  3.4100000000000D+00  0.0000000000000D+00  0.0000000000000D+00
   343  3.4200000000000D+00  0.0000000000000D+00  0.0000000000000D+00
   344  3.4300000000000D+00  0.0000000000000D+00  0.0000000000000D+00
   345  3.4400000000000D+00  0.0000000000000D+00  0.0000000000000D+00
   346  3.4500000000000D+00  0.0000000000000D+00  0.0000000000000D+00
   347  3.4600000000000D+00  0.0000000000000D+00  0.0000000000000D+00
   348  3.4700000000000D+00  0.0000000000000D+00  0.0000000000000D+00
   349  3.4800000000000D+00  0.0000000000000D+00  0.0000000000000D+00
   350  3.4900000000000D+00  0.0000000000000D+00  0.0000000000000D+00
   351  3.5000000000000D+00  0.0000000000000D+00  0.0000000000000D+00
   352  3.5100000000000D+00  0.0000000000000D+00  0.0000000000000D+00
   353  3.5200000000000D+00  0.0000000000000D+00  0.0000000000000D+00
   354  3.5300000000000D+00  0.0000000000000D+00  0.0000000000000D+00
   355  3.5400000000000D+00  0.0000000000000D+00  0.0000000000000D+00
   356  3.5500000000000D+00  0.0000000000000D+00  0.0000000000000D+00
   357  3.5600000000000D+00  0.0000000000000D+00  0.0000000000000D+00
   358  3.5700000000000D+00  0.0000000000000D+00  0.0000000000000D+00
   359  3.5800000000000D+00  0.0000000000000D+00  0.0000000000000D+00
   360  3.5900000000000D+00  0.0000000000000D+00  0.0000000000000D+00
   361  3.6000000000000D+00  0.0000000000000D+00  0.0000000000000D+00
   362  3.6100000000000D+00  0.0000000000000D+00  0.0000000000000D+00
   363  3.6200000000000D+00  0.0000000000000D+00  0.0000000000000D+00
   364  3.6300000000000D+00  0.0000000000000D+00  0.0000000000000D+00
   365  3.6400000000000D+00  0.0000000000000D+00  0.0000000000000D+00
   366  3.6500000000000D+00  0.0000000000000D+00  0.0000000000000D+00
   367  3.6600000000000D+00  0.0000000000000D+00  0.0000000000000D+00
   368  3.6700000000000D+00  0.0000000000000D+00  0.0000000000000D+00
   369  3.6800000000000D+00  0.0000000000000D+00  0.0000000000000D+00
   370  3.6900000000000D+00  0.0000000000000D+00  0.0000000000000D+00
   371  3.7000000000000D+00  0.0000000000000D+00  0.0000000000000D+00
   372  3.7100000000000D+00  0.0000000000000D+00  0.0000000000000D+00
   373  3.7200000000000D+00  0.0000000000000D+00  0.0000000000000D+00
   374  3.7300000000000D+00  0.0000000000000D+00  0.0000000000000D+00
   375  3.7400000000000D+00  0.0000000000000D+00  0.0000000000000D+00
   376  3.7500000000000D+00  0.0000000000000D+00  0.0000000000000D+00
   377  3.7600000000000D+00  0.0000000000000D+00  0.0000000000000D+00
   378  3.7700000000000D+00  0.0000000000000D+00  0.0000000000000D+00
   379  3.7800000000000D+00  0.0000000000000D+00  0.0000000000000D+00
   380  3.7900000000000D+00  0.0000000000000D+00  0.0000000000000D+00
   381  3.8000000000000D+00  0.0000000000000D+00  0.0000000000000D+00
   382  3.8100000000000D+00  0.0000000000000D+00  0.0000000000000D+00
   383  3.8200000000000D+00  0.0000000000000D+00  0.0000000000000D+00
   384  3.8300000000000D+00  0.0000000000000D+00  0.0000000000000D+00
   385  3.8400000000000D+00  0.0000000000000D+00  0.0000000000000D+00
   386  3.8500000000000D+00  0.0000000000000D+00  0.0000000000000D+00
   387  3.8600000000000D+00  0.0000000000000D+00  0.0000000000000D+00
   388  3.8700000000000D+00  0.0000000000000D+00  0.0000000000000D+00
   389  3.8800000000000D+00  0.0000000000000D+00  0.0000000000000D+00
   390  3.8900000000000D+00  0.0000000000000D+00  0.0000000000000D+00
   391  3.9000000000000D+00  0.0000000000000D+00  0.0000000000000D+00
   392  3.9100000000000D+00  0.0000000000000D+00  0.0000000000000D+00
   393  3.9200000000000D+00  0.0000000000000D+00  0.0000000000000D+00
   394  3.9300000000000D+00  0.0000000000000D+00  0.0000000000000D+00
   395  3.9400000000000D+00  0.0000000000000D+00  0.0000000000000D+00
   396  3.9500000000000D+00  0.0000000000000D+00  0.0000000000000D+00
   397  3.9600000000000D+00  0.0000000000000D+00  0.0000000000000D+00
   398  3.9700000000000D+00  0.0000000000000D+00  0.0000000000000D+00
   399  3.9800000000000D+00  0.0000000000000D+00  0.0000000000000D+00
   400  3.9900000000000D+00  0.0000000000000D+00  0.0000000000000D+00
   401  4.0000000000000D+00  0.0000000000000D+00  0.0000000000000D+00
   402  4.0100000000000D+00  0.0000000000000D+00  0.0000000000000D+00
   403  4.0200000000000D+00  0.0000000000000D+00  0.0000000000000D+00
   404  4.0300000000000D+00  0.0000000000000D+00  0.0000000000000D+00
   405  4.0400000000000D+00  0.0000000000000D+00  0.0000000000000D+00
   406  4.0500000000000D+00  0.0000000000000D+00  0.0000000000000D+00
   407  4.0600000000000D+00  0.0000000000000D+00  0.0000000000000D+00
   408  4.0700000000000D+00  0.0000000000000D+00  0.0000000000000D+00
   409  4.0800000000000D+00  0.0000000000000D+00  0.0000000000000D+00
   410  4.0900000000000D+00  0.0000000000000D+00  0.0000000000000D+00
   411  4.1000000000000D+00  0.0000000000000D+00  0.0000000000000D+00
   412  4.1100000000000D+00  0.0000000000000D+00  0.0000000000000D+00
   413  4.1200000000000D+00  0.0000000000000D+00  0.0000000000000D+00
   414  4.1300000000000D+00  0.0000000000000D+00  0.0000000000000D+00
   415  4.1400000000000D+00  0.0000000000000D+00  0.0000000000000D+00
   416  4.1500000000000D+00  0.0000000000000D+00  0.0000000000000D+00
   417  4.1600000000000D+00  0.0000000000000D+00  0.0000000000000D+00
   418  4.1700000000000D+00  0.0000000000000D+00  0.0000000000000D+00
   419  4.1800000000000D+00  0.0000000000000D+00  0.0000000000000D+00
   420  4.1900000000000D+00  0.0000000000000D+00  0.0000000000000D+00
   421  4.2000000000000D+00  0.0000000000000D+00  0.0000000000000D+00
   422  4.2100000000000D+00  0.0000000000000D+00  0.0000000000000D+00