Ta    ONCVPSP-3.3.1  r_core=   2.25368   2.17446   2.04856   3.00072
     73.0000     27.0000      210904    zatom,zion,pspd
     8       2   3     4   600     0    pspcod,pspxc,lmax,lloc,mmax,r2well
  5.99000000  0.00000000  0.00000000    rchrg fchrg qchrg
     2     4     4     2    nproj
     3     1           extension_switch
     4     4     4    nprojso
   0                        -1.2351779301623D-01  4.2392947809056D+00
     1  0.0000000000000D+00  6.3923588644599D-12 -6.2916338805508D-13
     2  1.0000000000000D-02  2.1188720020783D-02  5.6535405388931D-02
     3  2.0000000000000D-02  4.2327311385538D-02  1.1298315154729D-01
     4  3.0000000000000D-02  6.3365775600163D-02  1.6925574074306D-01
     5  4.0000000000000D-02  8.4254374366168D-02  2.2526599795936D-01
     6  5.0000000000000D-02  1.0494375935624D-01  2.8092723154714D-01
     7  6.0000000000000D-02  1.2538510159860D-01  3.3615339303260D-01
     8  7.0000000000000D-02  1.4553022033218D-01  3.9085923579809D-01
     9  8.0000000000000D-02  1.6533171118846D-01  4.4496047235616D-01
    10  9.0000000000000D-02  1.8474307354792D-01  4.9837392993723D-01
    11  1.0000000000000D-01  2.0371883690983D-01  5.5101770411203D-01
    12  1.1000000000000D-01  2.2221468610417D-01  6.0281131017174D-01
    13  1.2000000000000D-01  2.4018758516227D-01  6.5367583198973D-01
    14  1.3000000000000D-01  2.5759589965089D-01  7.0353406809070D-01
    15  1.4000000000000D-01  2.7439951726089D-01  7.5231067465516D-01
    16  1.5000000000000D-01  2.9055996642733D-01  7.9993230518914D-01
    17  1.6000000000000D-01  3.0604053274386D-01  8.4632774659197D-01
    18  1.7000000000000D-01  3.2080637291894D-01  8.9142805135781D-01
    19  1.8000000000000D-01  3.3482462600662D-01  9.3516666564982D-01
    20  1.9000000000000D-01  3.4806452162968D-01  9.7747955299009D-01
    21  2.0000000000000D-01  3.6049748489820D-01  1.0183053133121D+00
    22  2.1000000000000D-01  3.7209723771257D-01  1.0575852971275D+00
    23  2.2000000000000D-01  3.8283989612616D-01  1.0952637145646D+00
    24  2.3000000000000D-01  3.9270406343070D-01  1.1312877390408D+00
    25  2.4000000000000D-01  4.0167091861541D-01  1.1656076053377D+00
    26  2.5000000000000D-01  4.0972429984101D-01  1.1981767018565D+00
    27  2.6000000000000D-01  4.1685078256110D-01  1.2289516568342D+00
    28  2.7000000000000D-01  4.2303975191611D-01  1.2578924183157D+00
    29  2.8000000000000D-01  4.2828346902004D-01  1.2849623276787D+00
    30  2.9000000000000D-01  4.3257713075730D-01  1.3101281865248D+00
    31  3.0000000000000D-01  4.3591892270594D-01  1.3333603167534D+00
    32  3.1000000000000D-01  4.3831006480501D-01  1.3546326136524D+00
    33  3.2000000000000D-01  4.3975484938822D-01  1.3739225918457D+00
    34  3.3000000000000D-01  4.4026067121229D-01  1.3912114239551D+00
    35  3.4000000000000D-01  4.3983804911827D-01  1.4064839718416D+00
    36  3.5000000000000D-01  4.3850063897588D-01  1.4197288103098D+00
    37  3.6000000000000D-01  4.3626523757651D-01  1.4309382431713D+00
    38  3.7000000000000D-01  4.3315177715836D-01  1.4401083115769D+00
    39  3.8000000000000D-01  4.2918331026816D-01  1.4472387945469D+00
    40  3.9000000000000D-01  4.2438598468821D-01  1.4523332016413D+00
    41  4.0000000000000D-01  4.1878900818415D-01  1.4553987577310D+00
    42  4.1000000000000D-01  4.1242460285894D-01  1.4564463798493D+00
    43  4.2000000000000D-01  4.0532794893106D-01  1.4554906461192D+00
    44  4.3000000000000D-01  3.9753711779058D-01  1.4525497567723D+00
    45  4.4000000000000D-01  3.8909299422472D-01  1.4476454872945D+00
    46  4.5000000000000D-01  3.8003918774537D-01  1.4408031337524D+00
    47  4.6000000000000D-01  3.7042193299348D-01  1.4320514503747D+00
    48  4.7000000000000D-01  3.6028997924141D-01  1.4214225794840D+00
    49  4.8000000000000D-01  3.4969446906025D-01  1.4089519738940D+00
    50  4.9000000000000D-01  3.3868880626929D-01  1.3946783119083D+00
    51  5.0000000000000D-01  3.2732851333407D-01  1.3786434050784D+00
    52  5.1000000000000D-01  3.1567107843263D-01  1.3608920988979D+00
    53  5.2000000000000D-01  3.0377579246069D-01  1.3414721666331D+00
    54  5.3000000000000D-01  2.9170357630167D-01  1.3204341965083D+00
    55  5.4000000000000D-01  2.7951679873995D-01  1.2978314724875D+00
    56  5.5000000000000D-01  2.6727908545103D-01  1.2737198489115D+00
    57  5.6000000000000D-01  2.5505511955499D-01  1.2481576192715D+00
    58  5.7000000000000D-01  2.4291043427412D-01  1.2212053794191D+00
    59  5.8000000000000D-01  2.3091119828686D-01  1.1929258855304D+00
    60  5.9000000000000D-01  2.1912399442261D-01  1.1633839071622D+00
    61  6.0000000000000D-01  2.0761559239067D-01  1.1326460757533D+00
    62  6.1000000000000D-01  1.9645271628523D-01  1.1007807289431D+00
    63  6.2000000000000D-01  1.8570180765332D-01  1.0678577510930D+00
    64  6.3000000000000D-01  1.7542878495603D-01  1.0339484104129D+00
    65  6.4000000000000D-01  1.6569880029343D-01  9.9912519310749D-01
    66  6.5000000000000D-01  1.5657599430043D-01  9.6346163497074D-01
    67  6.6000000000000D-01  1.4812325015457D-01  9.2703215086675D-01
    68  6.7000000000000D-01  1.4040194766600D-01  8.8991186254689D-01
    69  6.8000000000000D-01  1.3347171844602D-01  8.5217642526073D-01
    70  6.9000000000000D-01  1.2739020317129D-01  8.1390185362592D-01
    71  7.0000000000000D-01  1.2221281197767D-01  7.7516434722810D-01
    72  7.1000000000000D-01  1.1799248902988D-01  7.3604011642574D-01
    73  7.2000000000000D-01  1.1477948231947D-01  6.9660520883815D-01
    74  7.3000000000000D-01  1.1262111974581D-01  6.5693533699535D-01
    75  7.4000000000000D-01  1.1156159253093D-01  6.1710570762836D-01
    76  7.5000000000000D-01  1.1164174701033D-01  5.7719085307600D-01
    77  7.6000000000000D-01  1.1289888582732D-01  5.3726446528045D-01
    78  7.7000000000000D-01  1.1536657953816D-01  4.9739923283820D-01
    79  7.8000000000000D-01  1.1907448961027D-01  4.5766668156557D-01
    80  7.9000000000000D-01  1.2404820376376D-01  4.1813701902905D-01
    81  8.0000000000000D-01  1.3030908457095D-01  3.7887898347995D-01
    82  8.1000000000000D-01  1.3787413218527D-01  3.3995969762042D-01
    83  8.2000000000000D-01  1.4675586202418D-01  3.0144452761386D-01
    84  8.3000000000000D-01  1.5696219817803D-01  2.6339694773708D-01
    85  8.4000000000000D-01  1.6849638325865D-01  2.2587841105448D-01
    86  8.5000000000000D-01  1.8135690533955D-01  1.8894822647552D-01
    87  8.6000000000000D-01  1.9553744257202D-01  1.5266344253698D-01
    88  8.7000000000000D-01  2.1102682599038D-01  1.1707873822958D-01
    89  8.8000000000000D-01  2.2780902094420D-01  8.2246321165913D-02
    90  8.9000000000000D-01  2.4586312751610D-01  4.8215833362447D-02
    91  9.0000000000000D-01  2.6516340020157D-01  1.5034264883245D-02
    92  9.1000000000000D-01  2.8567928704208D-01 -1.7254124433364D-02
    93  9.2000000000000D-01  3.0737548831463D-01 -4.8607874971014D-02
    94  9.3000000000000D-01  3.3021203479102D-01 -7.8988388888416D-02
    95  9.4000000000000D-01  3.5414438548966D-01 -1.0835998309191D-01
    96  9.5000000000000D-01  3.7912354474817D-01 -1.3668993351970D-01
    97  9.6000000000000D-01  4.0509619835331D-01 -1.6394851065962D-01
    98  9.7000000000000D-01  4.3200486837056D-01 -1.9010900625266D-01
    99  9.8000000000000D-01  4.5978808622228D-01 -2.1514775116481D-01
   100  9.9000000000000D-01  4.8838058347149D-01 -2.3904412444063D-01
   101  1.0000000000000D+00  5.1771349967710D-01 -2.6178055358210D-01
   102  1.0100000000000D+00  5.4771460659540D-01 -2.8334250612757D-01
   103  1.0200000000000D+00  5.7830854792028D-01 -3.0371847263442D-01
   104  1.0300000000000D+00  6.0941709366573D-01 -3.2289994120006D-01
   105  1.0400000000000D+00  6.4095940821601D-01 -3.4088136368471D-01
   106  1.0500000000000D+00  6.7285233099220D-01 -3.5766011382756D-01
   107  1.0600000000000D+00  7.0501066861096D-01 -3.7323643747618D-01
   108  1.0700000000000D+00  7.3734749734258D-01 -3.8761339517615D-01
   109  1.0800000000000D+00  7.6977447461804D-01 -4.0079679739183D-01
   110  1.0900000000000D+00  8.0220215827032D-01 -4.1279513265676D-01
   111  1.1000000000000D+00  8.3454033215116D-01 -4.2361948897329D-01
   112  1.1100000000000D+00  8.6669833671620D-01 -4.3328346880475D-01
   113  1.1200000000000D+00  8.9858540313774D-01 -4.4180309802213D-01
   114  1.1300000000000D+00  9.3011098947046D-01 -4.4919672918781D-01
   115  1.1400000000000D+00  9.6118511737310D-01 -4.5548493957630D-01
   116  1.1500000000000D+00  9.9171870787467D-01 -4.6069042434739D-01
   117  1.1600000000000D+00  1.0216239146663D+00 -4.6483788530014D-01
   118  1.1700000000000D+00  1.0508144533963D+00 -4.6795391564923D-01
   119  1.1800000000000D+00  1.0792059254559D+00 -4.7006688127594D-01
   120  1.1900000000000D+00  1.1067161347660D+00 -4.7120679891326D-01
   121  1.2000000000000D+00  1.1332653960820D+00 -4.7140521173031D-01
   122  1.2100000000000D+00  1.1587768333817D+00 -4.7069506278815D-01
   123  1.2200000000000D+00  1.1831766669391D+00 -4.6911056683876D-01
   124  1.2300000000000D+00  1.2063944877271D+00 -4.6668708094005D-01
   125  1.2400000000000D+00  1.2283635178447D+00 -4.6346097435973D-01
   126  1.2500000000000D+00  1.2490208557440D+00 -4.5946949823468D-01
   127  1.2600000000000D+00  1.2683077050989D+00 -4.5475065544667D-01
   128  1.2700000000000D+00  1.2861695861915D+00 -4.4934307117326D-01
   129  1.2800000000000D+00  1.3025565288496D+00 -4.4328586455500D-01
   130  1.2900000000000D+00  1.3174232460170D+00 -4.3661852191151D-01
   131  1.3000000000000D+00  1.3307292870858D+00 -4.2938077193537D-01
   132  1.3100000000000D+00  1.3424391703354D+00 -4.2161246326025D-01
   133  1.3200000000000D+00  1.3525224938382D+00 -4.1335344479544D-01
   134  1.3300000000000D+00  1.3609540242764D+00 -4.0464344920809D-01
   135  1.3400000000000D+00  1.3677137633741D+00 -3.9552197988828D-01
   136  1.3500000000000D+00  1.3727869915836D+00 -3.8602820174282D-01
   137  1.3600000000000D+00  1.3761642888670D+00 -3.7620083612951D-01
   138  1.3700000000000D+00  1.3778415326486D+00 -3.6607806019506D-01
   139  1.3800000000000D+00  1.3778198728306D+00 -3.5569741091765D-01
   140  1.3900000000000D+00  1.3761056842425D+00 -3.4509569406023D-01
   141  1.4000000000000D+00  1.3727104968097D+00 -3.3430889825246D-01
   142  1.4100000000000D+00  1.3676509037779D+00 -3.2337211441517D-01
   143  1.4200000000000D+00  1.3609484487856D+00 -3.1231946063476D-01
   144  1.4300000000000D+00  1.3526294922213D+00 -3.0118401267741D-01
   145  1.4400000000000D+00  1.3427250578475D+00 -2.8999774020797D-01
   146  1.4500000000000D+00  1.3312706605689D+00 -2.7879144879585D-01
   147  1.4600000000000D+00  1.3183061162358D+00 -2.6759472779642D-01
   148  1.4700000000000D+00  1.3038753348771D+00 -2.5643590405561D-01
   149  1.4800000000000D+00  1.2880260982428D+00 -2.4534200153095D-01
   150  1.4900000000000D+00  1.2708098232953D+00 -2.3433870670687D-01
   151  1.5000000000000D+00  1.2522813128186D+00 -2.2345033981331D-01
   152  1.5100000000000D+00  1.2324984947297D+00 -2.1269983174241D-01
   153  1.5200000000000D+00  1.2115221516575D+00 -2.0210870654094D-01
   154  1.5300000000000D+00  1.1894156422864D+00 -1.9169706940866D-01
   155  1.5400000000000D+00  1.1662446163229D+00 -1.8148359995812D-01
   156  1.5500000000000D+00  1.1420767245756D+00 -1.7148555068401D-01
   157  1.5600000000000D+00  1.1169813261192D+00 -1.6171875032390D-01
   158  1.5700000000000D+00  1.0910291941485D+00 -1.5219761201766D-01
   159  1.5800000000000D+00  1.0642922224473D+00 -1.4293514594215D-01
   160  1.5900000000000D+00  1.0368431342014D+00 -1.3394297625203D-01
   161  1.6000000000000D+00  1.0087551950252D+00 -1.2523136201922D-01
   162  1.6100000000000D+00  9.8010193194355D-01 -1.1680922193384D-01
   163  1.6200000000000D+00  9.5095686019367D-01 -1.0868416247004D-01
   164  1.6300000000000D+00  9.2139321946939D-01 -1.0086250923371D-01
   165  1.6400000000000D+00  8.9148372151941D-01 -9.3349341195661D-02
   166  1.6500000000000D+00  8.6130031047982D-01 -8.6148527505982D-02
   167  1.6600000000000D+00  8.3091393793760D-01 -7.9262766582633D-02
   168  1.6700000000000D+00  8.0039435376271D-01 -7.2693627172428D-02
   169  1.6800000000000D+00  7.6980991480330D-01 -6.6441591058105D-02
   170  1.6900000000000D+00  7.3922741207474D-01 -6.0506097132544D-02
   171  1.7000000000000D+00  7.0871191861025D-01 -5.4885586490129D-02
   172  1.7100000000000D+00  6.7832665818133D-01 -4.9577548293669D-02
   173  1.7200000000000D+00  6.4813289705701D-01 -4.4578566045377D-02
   174  1.7300000000000D+00  6.1818985863225D-01 -3.9884364063768D-02
   175  1.7400000000000D+00  5.8855466296645D-01 -3.5489853784511D-02
   176  1.7500000000000D+00  5.5928229079970D-01 -3.1389179725639D-02
   177  1.7600000000000D+00  5.3042557376519D-01 -2.7575764746847D-02
   178  1.7700000000000D+00  5.0203521029556D-01 -2.4042354463606D-02
   179  1.7800000000000D+00  4.7415980835727D-01 -2.0781060492504D-02
   180  1.7900000000000D+00  4.4684595470785D-01 -1.7783402376033D-02
   181  1.8000000000000D+00  4.2013831755687D-01 -1.5040347541186D-02
   182  1.8100000000000D+00  3.9407975111914D-01 -1.2542351069765D-02
   183  1.8200000000000D+00  3.6871146110423D-01 -1.0279391355653D-02
   184  1.8300000000000D+00  3.4407323766158D-01 -8.2410012104698D-03
   185  1.8400000000000D+00  3.2020330282012D-01 -6.4163235458732D-03
   186  1.8500000000000D+00  2.9713888429535D-01 -4.7941169296188D-03
   187  1.8600000000000D+00  2.7491765248229D-01 -3.3627124644033D-03
   188  1.8700000000000D+00  2.5357514584595D-01 -2.1102163311541D-03
   189  1.8800000000000D+00  2.3314350760031D-01 -1.0246263009485D-03
   190  1.8900000000000D+00  2.1365022731167D-01 -9.3967365352818D-05
   191  1.9000000000000D+00  1.9511601088118D-01  6.9351838401522D-04
   192  1.9100000000000D+00  1.7755439291447D-01  1.3492919677785D-03
   193  1.9200000000000D+00  1.6097278294911D-01  1.8845262508765D-03
   194  1.9300000000000D+00  1.4537305086083D-01  2.3100863170463D-03
   195  1.9400000000000D+00  1.3075134063507D-01  2.6364703604341D-03
   196  1.9500000000000D+00  1.1709863671488D-01  2.8737960195822D-03
   197  1.9600000000000D+00  1.0440102135287D-01  3.0317715380555D-03
   198  1.9700000000000D+00  9.2640045802815D-02  3.1196761635590D-03
   199  1.9800000000000D+00  8.1793093365232D-02  3.1463428075957D-03
   200  1.9900000000000D+00  7.1833750435750D-02  3.1201437270287D-03
   201  2.0000000000000D+00  6.2732183626032D-02  3.0489790788044D-03
   202  2.0100000000000D+00  5.4455521292979D-02  2.9402683390793D-03
   203  2.0200000000000D+00  4.6968237430602D-02  2.8009441557473D-03
   204  2.0300000000000D+00  4.0232535687797D-02  2.6374487384510D-03
   205  2.0400000000000D+00  3.4208732273024D-02  2.4557323807513D-03
   206  2.0500000000000D+00  2.8855635082981D-02  2.2612540364193D-03
   207  2.0600000000000D+00  2.4130917435789D-02  2.0589837414610D-03
   208  2.0700000000000D+00  1.9991485395327D-02  1.8534066821894D-03
   209  2.0800000000000D+00  1.6393834704000D-02  1.6485286836413D-03
   210  2.0900000000000D+00  1.3294398720362D-02  1.4478830325476D-03
   211  2.1000000000000D+00  1.0649882571461D-02  1.2545382990431D-03
   212  2.1100000000000D+00  8.4175836324433D-03  1.0711070720514D-03
   213  2.1200000000000D+00  6.5556976647956D-03  8.9975549125816D-04
   214  2.1300000000000D+00  5.0236054018378D-03  7.4221311994018D-04
   215  2.1400000000000D+00  3.7821438366145D-03  5.9978344140341D-04
   216  2.1500000000000D+00  2.7938555967170D-03  4.7335436816846D-04
   217  2.1600000000000D+00  2.0232178271778D-03  3.6340883991900D-04
   218  2.1700000000000D+00  1.4368516704435D-03  2.7003557299409D-04
   219  2.1800000000000D+00  1.0039240224714D-03  1.9293347997262D-04
   220  2.1900000000000D+00  6.9558824530016D-04  1.3144073338691D-04
   221  2.2000000000000D+00  4.8547525317906D-04  8.4535124745471D-05
   222  2.2100000000000D+00  3.4810264516021D-04  5.0720318976263D-05
   223  2.2200000000000D+00  2.6907816631578D-04  2.8450975351973D-05
   224  2.2300000000000D+00  2.3570398854505D-04  1.5861581432027D-05
   225  2.2400000000000D+00  2.3004226309427D-04  1.0437414466790D-05
   226  2.2500000000000D+00  2.1592552930191D-04  8.3645437184239D-06
   227  2.2600000000000D+00  1.6150305332449D-04  6.1215618857438D-06
   228  2.2700000000000D+00  7.9285879073324D-05  3.0435928671189D-06
   229  2.2800000000000D+00  4.3772226265966D-06  1.7284294756340D-07
   230  2.2900000000000D+00 -2.0742067778282D-05 -7.2858565388749D-07
   231  2.3000000000000D+00 -1.4840991616988D-05 -5.2082767900461D-07
   232  2.3100000000000D+00  1.2785175493594D-06  4.2415938128376D-08
   233  2.3200000000000D+00  4.7556157127593D-06  1.5631014846173D-07
   234  2.3300000000000D+00  2.6569602879872D-06  8.6664103044002D-08
   235  2.3400000000000D+00 -2.9660687859796D-07 -1.1405467272389D-08
   236  2.3500000000000D+00 -5.7464458052103D-07 -2.2096891303968D-08
   237  2.3600000000000D+00 -2.2639959309561D-07 -8.7057763519846D-09
   238  2.3700000000000D+00  0.0000000000000D+00  0.0000000000000D+00
   239  2.3800000000000D+00  0.0000000000000D+00  0.0000000000000D+00
   240  2.3900000000000D+00  0.0000000000000D+00  0.0000000000000D+00
   241  2.4000000000000D+00  0.0000000000000D+00  0.0000000000000D+00
   242  2.4100000000000D+00  0.0000000000000D+00  0.0000000000000D+00
   243  2.4200000000000D+00  0.0000000000000D+00  0.0000000000000D+00
   244  2.4300000000000D+00  0.0000000000000D+00  0.0000000000000D+00
   245  2.4400000000000D+00  0.0000000000000D+00  0.0000000000000D+00
   246  2.4500000000000D+00  0.0000000000000D+00  0.0000000000000D+00
   247  2.4600000000000D+00  0.0000000000000D+00  0.0000000000000D+00
   248  2.4700000000000D+00  0.0000000000000D+00  0.0000000000000D+00
   249  2.4800000000000D+00  0.0000000000000D+00  0.0000000000000D+00
   250  2.4900000000000D+00  0.0000000000000D+00  0.0000000000000D+00
   251  2.5000000000000D+00  0.0000000000000D+00  0.0000000000000D+00
   252  2.5100000000000D+00  0.0000000000000D+00  0.0000000000000D+00
   253  2.5200000000000D+00  0.0000000000000D+00  0.0000000000000D+00
   254  2.5300000000000D+00  0.0000000000000D+00  0.0000000000000D+00
   255  2.5400000000000D+00  0.0000000000000D+00  0.0000000000000D+00
   256  2.5500000000000D+00  0.0000000000000D+00  0.0000000000000D+00
   257  2.5600000000000D+00  0.0000000000000D+00  0.0000000000000D+00
   258  2.5700000000000D+00  0.0000000000000D+00  0.0000000000000D+00
   259  2.5800000000000D+00  0.0000000000000D+00  0.0000000000000D+00
   260  2.5900000000000D+00  0.0000000000000D+00  0.0000000000000D+00
   261  2.6000000000000D+00  0.0000000000000D+00  0.0000000000000D+00
   262  2.6100000000000D+00  0.0000000000000D+00  0.0000000000000D+00
   263  2.6200000000000D+00  0.0000000000000D+00  0.0000000000000D+00
   264  2.6300000000000D+00  0.0000000000000D+00  0.0000000000000D+00
   265  2.6400000000000D+00  0.0000000000000D+00  0.0000000000000D+00
   266  2.6500000000000D+00  0.0000000000000D+00  0.0000000000000D+00
   267  2.6600000000000D+00  0.0000000000000D+00  0.0000000000000D+00
   268  2.6700000000000D+00  0.0000000000000D+00  0.0000000000000D+00
   269  2.6800000000000D+00  0.0000000000000D+00  0.0000000000000D+00
   270  2.6900000000000D+00  0.0000000000000D+00  0.0000000000000D+00
   271  2.7000000000000D+00  0.0000000000000D+00  0.0000000000000D+00
   272  2.7100000000000D+00  0.0000000000000D+00  0.0000000000000D+00
   273  2.7200000000000D+00  0.0000000000000D+00  0.0000000000000D+00
   274  2.7300000000000D+00  0.0000000000000D+00  0.0000000000000D+00
   275  2.7400000000000D+00  0.0000000000000D+00  0.0000000000000D+00
   276  2.7500000000000D+00  0.0000000000000D+00  0.0000000000000D+00
   277  2.7600000000000D+00  0.0000000000000D+00  0.0000000000000D+00
   278  2.7700000000000D+00  0.0000000000000D+00  0.0000000000000D+00
   279  2.7800000000000D+00  0.0000000000000D+00  0.0000000000000D+00
   280  2.7900000000000D+00  0.0000000000000D+00  0.0000000000000D+00
   281  2.8000000000000D+00  0.0000000000000D+00  0.0000000000000D+00
   282  2.8100000000000D+00  0.0000000000000D+00  0.0000000000000D+00
   283  2.8200000000000D+00  0.0000000000000D+00  0.0000000000000D+00
   284  2.8300000000000D+00  0.0000000000000D+00  0.0000000000000D+00
   285  2.8400000000000D+00  0.0000000000000D+00  0.0000000000000D+00
   286  2.8500000000000D+00  0.0000000000000D+00  0.0000000000000D+00
   287  2.8600000000000D+00  0.0000000000000D+00  0.0000000000000D+00
   288  2.8700000000000D+00  0.0000000000000D+00  0.0000000000000D+00
   289  2.8800000000000D+00  0.0000000000000D+00  0.0000000000000D+00
   290  2.8900000000000D+00  0.0000000000000D+00  0.0000000000000D+00
   291  2.9000000000000D+00  0.0000000000000D+00  0.0000000000000D+00
   292  2.9100000000000D+00  0.0000000000000D+00  0.0000000000000D+00
   293  2.9200000000000D+00  0.0000000000000D+00  0.0000000000000D+00
   294  2.9300000000000D+00  0.0000000000000D+00  0.0000000000000D+00
   295  2.9400000000000D+00  0.0000000000000D+00  0.0000000000000D+00
   296  2.9500000000000D+00  0.0000000000000D+00  0.0000000000000D+00
   297  2.9600000000000D+00  0.0000000000000D+00  0.0000000000000D+00
   298  2.9700000000000D+00  0.0000000000000D+00  0.0000000000000D+00
   299  2.9800000000000D+00  0.0000000000000D+00  0.0000000000000D+00
   300  2.9900000000000D+00  0.0000000000000D+00  0.0000000000000D+00
   301  3.0000000000000D+00  0.0000000000000D+00  0.0000000000000D+00
   302  3.0100000000000D+00  0.0000000000000D+00  0.0000000000000D+00
   303  3.0200000000000D+00  0.0000000000000D+00  0.0000000000000D+00
   304  3.0300000000000D+00  0.0000000000000D+00  0.0000000000000D+00
   305  3.0400000000000D+00  0.0000000000000D+00  0.0000000000000D+00
   306  3.0500000000000D+00  0.0000000000000D+00  0.0000000000000D+00
   307  3.0600000000000D+00  0.0000000000000D+00  0.0000000000000D+00
   308  3.0700000000000D+00  0.0000000000000D+00  0.0000000000000D+00
   309  3.0800000000000D+00  0.0000000000000D+00  0.0000000000000D+00
   310  3.0900000000000D+00  0.0000000000000D+00  0.0000000000000D+00
   311  3.1000000000000D+00  0.0000000000000D+00  0.0000000000000D+00
   312  3.1100000000000D+00  0.0000000000000D+00  0.0000000000000D+00
   313  3.1200000000000D+00  0.0000000000000D+00  0.0000000000000D+00
   314  3.1300000000000D+00  0.0000000000000D+00  0.0000000000000D+00
   315  3.1400000000000D+00  0.0000000000000D+00  0.0000000000000D+00
   316  3.1500000000000D+00  0.0000000000000D+00  0.0000000000000D+00
   317  3.1600000000000D+00  0.0000000000000D+00  0.0000000000000D+00
   318  3.1700000000000D+00  0.0000000000000D+00  0.0000000000000D+00
   319  3.1800000000000D+00  0.0000000000000D+00  0.0000000000000D+00
   320  3.1900000000000D+00  0.0000000000000D+00  0.0000000000000D+00
   321  3.2000000000000D+00  0.0000000000000D+00  0.0000000000000D+00
   322  3.2100000000000D+00  0.0000000000000D+00  0.0000000000000D+00
   323  3.2200000000000D+00  0.0000000000000D+00  0.0000000000000D+00
   324  3.2300000000000D+00  0.0000000000000D+00  0.0000000000000D+00
   325  3.2400000000000D+00  0.0000000000000D+00  0.0000000000000D+00
   326  3.2500000000000D+00  0.0000000000000D+00  0.0000000000000D+00
   327  3.2600000000000D+00  0.0000000000000D+00  0.0000000000000D+00
   328  3.2700000000000D+00  0.0000000000000D+00  0.0000000000000D+00
   329  3.2800000000000D+00  0.0000000000000D+00  0.0000000000000D+00
   330  3.2900000000000D+00  0.0000000000000D+00  0.0000000000000D+00
   331  3.3000000000000D+00  0.0000000000000D+00  0.0000000000000D+00
   332  3.3100000000000D+00  0.0000000000000D+00  0.0000000000000D+00
   333  3.3200000000000D+00  0.0000000000000D+00  0.0000000000000D+00
   334  3.3300000000000D+00  0.0000000000000D+00  0.0000000000000D+00
   335  3.3400000000000D+00  0.0000000000000D+00  0.0000000000000D+00
   336  3.3500000000000D+00  0.0000000000000D+00  0.0000000000000D+00
   337  3.3600000000000D+00  0.0000000000000D+00  0.0000000000000D+00
   338  3.3700000000000D+00  0.0000000000000D+00  0.0000000000000D+00
   339  3.3800000000000D+00  0.0000000000000D+00  0.0000000000000D+00
   340  3.3900000000000D+00  0.0000000000000D+00  0.0000000000000D+00
   341  3.4000000000000D+00  0.0000000000000D+00  0.0000000000000D+00
   342  3.4100000000000D+00  0.0000000000000D+00  0.0000000000000D+00
   343  3.4200000000000D+00  0.0000000000000D+00  0.0000000000000D+00
   344  3.4300000000000D+00  0.0000000000000D+00  0.0000000000000D+00
   345  3.4400000000000D+00  0.0000000000000D+00  0.0000000000000D+00
   346  3.4500000000000D+00  0.0000000000000D+00  0.0000000000000D+00
   347  3.4600000000000D+00  0.0000000000000D+00  0.0000000000000D+00
   348  3.4700000000000D+00  0.0000000000000D+00  0.0000000000000D+00
   349  3.4800000000000D+00  0.0000000000000D+00  0.0000000000000D+00
   350  3.4900000000000D+00  0.0000000000000D+00  0.0000000000000D+00
   351  3.5000000000000D+00  0.0000000000000D+00  0.0000000000000D+00
   352  3.5100000000000D+00  0.0000000000000D+00  0.0000000000000D+00
   353  3.5200000000000D+00  0.0000000000000D+00  0.0000000000000D+00
   354  3.5300000000000D+00  0.0000000000000D+00  0.0000000000000D+00
   355  3.5400000000000D+00  0.0000000000000D+00  0.0000000000000D+00
   356  3.5500000000000D+00  0.0000000000000D+00  0.0000000000000D+00
   357  3.5600000000000D+00  0.0000000000000D+00  0.0000000000000D+00
   358  3.5700000000000D+00  0.0000000000000D+00  0.0000000000000D+00
   359  3.5800000000000D+00  0.0000000000000D+00  0.0000000000000D+00
   360  3.5900000000000D+00  0.0000000000000D+00  0.0000000000000D+00
   361  3.6000000000000D+00  0.0000000000000D+00  0.0000000000000D+00
   362  3.6100000000000D+00  0.0000000000000D+00  0.0000000000000D+00
   363  3.6200000000000D+00  0.0000000000000D+00  0.0000000000000D+00
   364  3.6300000000000D+00  0.0000000000000D+00  0.0000000000000D+00
   365  3.6400000000000D+00  0.0000000000000D+00  0.0000000000000D+00
   366  3.6500000000000D+00  0.0000000000000D+00  0.0000000000000D+00
   367  3.6600000000000D+00  0.0000000000000D+00  0.0000000000000D+00
   368  3.6700000000000D+00  0.0000000000000D+00  0.0000000000000D+00
   369  3.6800000000000D+00  0.0000000000000D+00  0.0000000000000D+00
   370  3.6900000000000D+00  0.0000000000000D+00  0.0000000000000D+00
   371  3.7000000000000D+00  0.0000000000000D+00  0.0000000000000D+00
   372  3.7100000000000D+00  0.0000000000000D+00  0.0000000000000D+00
   373  3.7200000000000D+00  0.0000000000000D+00  0.0000000000000D+00
   374  3.7300000000000D+00  0.0000000000000D+00  0.0000000000000D+00
   375  3.7400000000000D+00  0.0000000000000D+00  0.0000000000000D+00
   376  3.7500000000000D+00  0.0000000000000D+00  0.0000000000000D+00
   377  3.7600000000000D+00  0.0000000000000D+00  0.0000000000000D+00
   378  3.7700000000000D+00  0.0000000000000D+00  0.0000000000000D+00
   379  3.7800000000000D+00  0.0000000000000D+00  0.0000000000000D+00
   380  3.7900000000000D+00  0.0000000000000D+00  0.0000000000000D+00
   381  3.8000000000000D+00  0.0000000000000D+00  0.0000000000000D+00
   382  3.8100000000000D+00  0.0000000000000D+00  0.0000000000000D+00
   383  3.8200000000000D+00  0.0000000000000D+00  0.0000000000000D+00
   384  3.8300000000000D+00  0.0000000000000D+00  0.0000000000000D+00
   385  3.8400000000000D+00  0.0000000000000D+00  0.0000000000000D+00
   386  3.8500000000000D+00  0.0000000000000D+00  0.0000000000000D+00
   387  3.8600000000000D+00  0.0000000000000D+00  0.0000000000000D+00
   388  3.8700000000000D+00  0.0000000000000D+00  0.0000000000000D+00
   389  3.8800000000000D+00  0.0000000000000D+00  0.0000000000000D+00
   390  3.8900000000000D+00  0.0000000000000D+00  0.0000000000000D+00
   391  3.9000000000000D+00  0.0000000000000D+00  0.0000000000000D+00
   392  3.9100000000000D+00  0.0000000000000D+00  0.0000000000000D+00
   393  3.9200000000000D+00  0.0000000000000D+00  0.0000000000000D+00
   394  3.9300000000000D+00  0.0000000000000D+00  0.0000000000000D+00
   395  3.9400000000000D+00  0.0000000000000D+00  0.0000000000000D+00
   396  3.9500000000000D+00  0.0000000000000D+00  0.0000000000000D+00
   397  3.9600000000000D+00  0.0000000000000D+00  0.0000000000000D+00
   398  3.9700000000000D+00  0.0000000000000D+00  0.0000000000000D+00
   399  3.9800000000000D+00  0.0000000000000D+00  0.0000000000000D+00
   400  3.9900000000000D+00  0.0000000000000D+00  0.0000000000000D+00
   401  4.0000000000000D+00  0.0000000000000D+00  0.0000000000000D+00
   402  4.0100000000000D+00  0.0000000000000D+00  0.0000000000000D+00
   403  4.0200000000000D+00  0.0000000000000D+00  0.0000000000000D+00
   404  4.0300000000000D+00  0.0000000000000D+00  0.0000000000000D+00
   405  4.0400000000000D+00  0.0000000000000D+00  0.0000000000000D+00
   406  4.0500000000000D+00  0.0000000000000D+00  0.0000000000000D+00
   407  4.0600000000000D+00  0.0000000000000D+00  0.0000000000000D+00
   408  4.0700000000000D+00  0.0000000000000D+00  0.0000000000000D+00
   409  4.0800000000000D+00  0.0000000000000D+00  0.0000000000000D+00
   410  4.0900000000000D+00  0.0000000000000D+00  0.0000000000000D+00
   411  4.1000000000000D+00  0.0000000000000D+00  0.0000000000000D+00
   412  4.1100000000000D+00  0.0000000000000D+00  0.0000000000000D+00
   413  4.1200000000000D+00  0.0000000000000D+00  0.0000000000000D+00
   414  4.1300000000000D+00  0.0000000000000D+00  0.0000000000000D+00
   415  4.1400000000000D+00  0.0000000000000D+00  0.0000000000000D+00
   416  4.1500000000000D+00  0.0000000000000D+00  0.0000000000000D+00
   417  4.1600000000000D+00  0.0000000000000D+00  0.0000000000000D+00
   418  4.1700000000000D+00  0.0000000000000D+00  0.0000000000000D+00
   419  4.1800000000000D+00  0.0000000000000D+00  0.0000000000000D+00
   420  4.1900000000000D+00  0.0000000000000D+00  0.0000000000000D+00
   421  4.2000000000000D+00  0.0000000000000D+00  0.0000000000000D+00
   422  4.2100000000000D+00  0.0000000000000D+00  0.0000000000000D+00