Tc    ONCVPSP-3.3.1  r_core=   2.46076   2.58101   2.67505
     43.0000     15.0000      210904    zatom,zion,pspd
     8       2   2     4   600     0    pspcod,pspxc,lmax,lloc,mmax,r2well
  5.99000000  0.00000000  0.00000000    rchrg fchrg qchrg
     2     2     2     0     0    nproj
     1     1           extension_switch
   0                         4.3731378313247D+00  8.4371151445599D-01
     1  0.0000000000000D+00  2.2190027593183D-12 -8.2503934240030D-12
     2  1.0000000000000D-02  4.9903039667114D-02 -4.5032053555577D-03
     3  2.0000000000000D-02  9.9743406324661D-02 -8.9862270903452D-03
     4  3.0000000000000D-02  1.4945850109118D-01 -1.3428858841893D-02
     5  4.0000000000000D-02  1.9898587334319D-01 -1.7810849136918D-02
     6  5.0000000000000D-02  2.4826329484800D-01 -2.2111879765279D-02
     7  6.0000000000000D-02  2.9722883389957D-01 -2.6311545263361D-02
     8  7.0000000000000D-02  3.4582092945580D-01 -3.0389333866971D-02
     9  8.0000000000000D-02  3.9397846527350D-01 -3.4324610285640D-02
    10  9.0000000000000D-02  4.4164084403434D-01 -3.8096600639894D-02
    11  1.0000000000000D-01  4.8874806145216D-01 -4.1684379890899D-02
    12  1.1000000000000D-01  5.3524078034783D-01 -4.5066862077679D-02
    13  1.2000000000000D-01  5.8106040467402D-01 -4.8222793661186D-02
    14  1.3000000000000D-01  6.2614915346708D-01 -5.1130750256618D-02
    15  1.4000000000000D-01  6.7045013469857D-01 -5.3769137015947D-02
    16  1.5000000000000D-01  7.1390741899296D-01 -5.6116192901383D-02
    17  1.6000000000000D-01  7.5646611317236D-01 -5.8149999067830D-02
    18  1.7000000000000D-01  7.9807243358284D-01 -5.9848491548167D-02
    19  1.8000000000000D-01  8.3867377915004D-01 -6.1189478409659D-02
    20  1.9000000000000D-01  8.7821880410534D-01 -6.2150661522924D-02
    21  2.0000000000000D-01  9.1665749031627D-01 -6.2709663057013D-02
    22  2.1000000000000D-01  9.5394121914782D-01 -6.2844056785093D-02
    23  2.2000000000000D-01  9.9002284277383D-01 -6.2531404255338D-02
    24  2.3000000000000D-01  1.0248567548498D+00 -6.1749295851011D-02
    25  2.4000000000000D-01  1.0583989604514D+00 -6.0475396732386D-02
    26  2.5000000000000D-01  1.0906071451741D+00 -5.8687497621332D-02
    27  2.6000000000000D-01  1.1214407432838D+00 -5.6363570357316D-02
    28  2.7000000000000D-01  1.1508610047979D+00 -5.3481828121161D-02
    29  2.8000000000000D-01  1.1788310613721D+00 -5.0020790190499D-02
    30  2.9000000000000D-01  1.2053159908582D+00 -4.5959351058611D-02
    31  3.0000000000000D-01  1.2302828803926D+00 -4.1276853716304D-02
    32  3.1000000000000D-01  1.2537008878683D+00 -3.5953166864793D-02
    33  3.2000000000000D-01  1.2755413016370D+00 -2.9968765796637D-02
    34  3.3000000000000D-01  1.2957775982814D+00 -2.3304816651411D-02
    35  3.4000000000000D-01  1.3143854982925D+00 -1.5943263723461D-02
    36  3.5000000000000D-01  1.3313430194821D+00 -7.8669194707401D-03
    37  3.6000000000000D-01  1.3466305279562D+00  9.4044315334633D-04
    38  3.7000000000000D-01  1.3602307864698D+00  1.0493996448951D-02
    39  3.8000000000000D-01  1.3721289999828D+00  2.0807762227543D-02
    40  3.9000000000000D-01  1.3823128582320D+00  3.1894515029052D-02
    41  4.0000000000000D-01  1.3907725751336D+00  4.3765684769528D-02
    42  4.1000000000000D-01  1.3975009248297D+00  5.6431259309273D-02
    43  4.2000000000000D-01  1.4024932741906D+00  6.9899687448009D-02
    44  4.3000000000000D-01  1.4057476115883D+00  8.4177782868086D-02
    45  4.4000000000000D-01  1.4072645717549D+00  9.9270629558713D-02
    46  4.5000000000000D-01  1.4070474565444D+00  1.1518148926403D-01
    47  4.6000000000000D-01  1.4051022514196D+00  1.3191171150461D-01
    48  4.7000000000000D-01  1.4014376374886D+00  1.4946064672676D-01
    49  4.8000000000000D-01  1.3960649989234D+00  1.6782556313534D-01
    50  4.9000000000000D-01  1.3889984255972D+00  1.8700156776517D-01
    51  5.0000000000000D-01  1.3802547107857D+00  2.0698153234178D-01
    52  5.1000000000000D-01  1.3698533437866D+00  2.2775602447564D-01
    53  5.2000000000000D-01  1.3578164973194D+00  2.4931324472443D-01
    54  5.3000000000000D-01  1.3441690095797D+00  2.7163897004496D-01
    55  5.4000000000000D-01  1.3289383608325D+00  2.9471650414096D-01
    56  5.5000000000000D-01  1.3121546444431D+00  3.1852663519432D-01
    57  5.6000000000000D-01  1.2938505322555D+00  3.4304760144614D-01
    58  5.7000000000000D-01  1.2740612342441D+00  3.6825506506942D-01
    59  5.8000000000000D-01  1.2528244523810D+00  3.9412209474829D-01
    60  5.9000000000000D-01  1.2301803286725D+00  4.2061915734887D-01
    61  6.0000000000000D-01  1.2061713873425D+00  4.4771411903435D-01
    62  6.1000000000000D-01  1.1808424711521D+00  4.7537225614196D-01
    63  6.2000000000000D-01  1.1542406718659D+00  5.0355627610205D-01
    64  6.3000000000000D-01  1.1264152548958D+00  5.3222634863970D-01
    65  6.4000000000000D-01  1.0974175781685D+00  5.6134014745786D-01
    66  6.5000000000000D-01  1.0673010052895D+00  5.9085290255660D-01
    67  6.6000000000000D-01  1.0361208130898D+00  6.2071746329792D-01
    68  6.7000000000000D-01  1.0039340936694D+00  6.5088437227825D-01
    69  6.8000000000000D-01  9.7079965106722D-01  6.8130195002206D-01
    70  6.9000000000000D-01  9.3677789271292D-01  7.1191639045993D-01
    71  7.0000000000000D-01  9.0193071583447D-01  7.4267186710441D-01
    72  7.1000000000000D-01  8.6632138901906D-01  7.7351064978448D-01
    73  7.2000000000000D-01  8.3001442914485D-01  8.0437323174803D-01
    74  7.3000000000000D-01  7.9307547392327D-01  8.3519846688919D-01
    75  7.4000000000000D-01  7.5557115031186D-01  8.6592371680521D-01
    76  7.5000000000000D-01  7.1756893907855D-01  8.9648500733543D-01
    77  7.6000000000000D-01  6.7913703581785D-01  9.2681719418341D-01
    78  7.7000000000000D-01  6.4034420873919D-01  9.5685413717265D-01
    79  7.8000000000000D-01  6.0125965356587D-01  9.8652888263660D-01
    80  7.9000000000000D-01  5.6195284590109D-01  1.0157738533954D+00
    81  8.0000000000000D-01  5.2249339143431D-01  1.0445210457252D+00
    82  8.1000000000000D-01  4.8295087437690D-01  1.0727022326805D+00
    83  8.2000000000000D-01  4.4339470453094D-01  1.1002491730890D+00
    84  8.3000000000000D-01  4.0389396340805D-01  1.1270938254943D+00
    85  8.4000000000000D-01  3.6451724982781D-01  1.1531685662896D+00
    86  8.5000000000000D-01  3.2533252543550D-01  1.1784064112455D+00
    87  8.6000000000000D-01  2.8640696058844D-01  1.2027412396055D+00
    88  8.7000000000000D-01  2.4780678106783D-01  1.2261080198952D+00
    89  8.8000000000000D-01  2.0959711607887D-01  1.2484430365642D+00
    90  8.9000000000000D-01  1.7184184800654D-01  1.2696841165592D+00
    91  9.0000000000000D-01  1.3460346439666D-01  1.2897708549097D+00
    92  9.1000000000000D-01  9.7942912633088D-02  1.3086448383929D+00
    93  9.2000000000000D-01  6.1919457780419D-02  1.3262498663373D+00
    94  9.3000000000000D-01  2.6590544058948D-02  1.3425321676152D+00
    95  9.4000000000000D-01 -7.9883395862280D-03  1.3574406128791D+00
    96  9.5000000000000D-01 -4.1763789366865D-02  1.3709269210940D+00
    97  9.6000000000000D-01 -7.4684611537413D-02  1.3829458594315D+00
    98  9.7000000000000D-01 -1.0670194184902D-01  1.3934554355990D+00
    99  9.8000000000000D-01 -1.3776935914812D-01  1.4024170816980D+00
   100  9.9000000000000D-01 -1.6784299271039D-01  1.4097958287239D+00
   101  1.0000000000000D+00 -1.9688162291651D-01  1.4155604708464D+00
   102  1.0100000000000D+00 -2.2484677489483D-01  1.4196837186396D+00
   103  1.0200000000000D+00 -2.5170280477499D-01  1.4221423404649D+00
   104  1.0300000000000D+00 -2.7741697821824D-01  1.4229172912474D+00
   105  1.0400000000000D+00 -3.0195954091282D-01  1.4219938279290D+00
   106  1.0500000000000D+00 -3.2530378074824D-01  1.4193616109290D+00
   107  1.0600000000000D+00 -3.4742608140548D-01  1.4150147909869D+00
   108  1.0700000000000D+00 -3.6830596713092D-01  1.4089520808225D+00
   109  1.0800000000000D+00 -3.8792613848738D-01  1.4011768110989D+00
   110  1.0900000000000D+00 -4.0627249890649D-01  1.3916969702346D+00
   111  1.1000000000000D+00 -4.2333417189805D-01  1.3805252276750D+00
   112  1.1100000000000D+00 -4.3910350879893D-01  1.3676789402887D+00
   113  1.1200000000000D+00 -4.5357608698283D-01  1.3531801416326D+00
   114  1.1300000000000D+00 -4.6675069847907D-01  1.3370555138861D+00
   115  1.1400000000000D+00 -4.7862932898786D-01  1.3193363423355D+00
   116  1.1500000000000D+00 -4.8921712730260D-01  1.3000584523406D+00
   117  1.1600000000000D+00 -4.9852236519551D-01  1.2792621288091D+00
   118  1.1700000000000D+00 -5.0655638784848D-01  1.2569920182589D+00
   119  1.1800000000000D+00 -5.1333355494943D-01  1.2332970136347D+00
   120  1.1900000000000D+00 -5.1887117259799D-01  1.2082301220876D+00
   121  1.2000000000000D+00 -5.2318941621016D-01  1.1818483160334D+00
   122  1.2100000000000D+00 -5.2631124463753D-01  1.1542123678550D+00
   123  1.2200000000000D+00 -5.2826230574134D-01  1.1253866686714D+00
   124  1.2300000000000D+00 -5.2907083370120D-01  1.0954390316799D+00
   125  1.2400000000000D+00 -5.2876753836728D-01  1.0644404806416D+00
   126  1.2500000000000D+00 -5.2738548698559D-01  1.0324650241271D+00
   127  1.2600000000000D+00 -5.2495997865422D-01  9.9958941619948D-01
   128  1.2700000000000D+00 -5.2152841190338D-01  9.6589290428866D-01
   129  1.2800000000000D+00 -5.1713014580338D-01  9.3145696503819D-01
   130  1.2900000000000D+00 -5.1180635502693D-01  8.9636502895185D-01
   131  1.3000000000000D+00 -5.0559987932620D-01  8.6070219474470D-01
   132  1.3100000000000D+00 -4.9855506788562D-01  8.2455493430372D-01
   133  1.3200000000000D+00 -4.9071761903409D-01  7.8801078921395D-01
   134  1.3300000000000D+00 -4.8213441582286D-01  7.5115805985584D-01
   135  1.3400000000000D+00 -4.7285335796982D-01  7.1408548806800D-01
   136  1.3500000000000D+00 -4.6292319069509D-01  6.7688193442300D-01
   137  1.3600000000000D+00 -4.5239333097511D-01  6.3963605116937D-01
   138  1.3700000000000D+00 -4.4131369174255D-01  6.0243595189341D-01
   139  1.3800000000000D+00 -4.2973450457262D-01  5.6536887898422D-01
   140  1.3900000000000D+00 -4.1770614138276D-01  5.2852086995549D-01
   141  1.4000000000000D+00 -4.0527893568849D-01  4.9197642371234D-01
   142  1.4100000000000D+00 -3.9250300393141D-01  4.5581816779331D-01
   143  1.4200000000000D+00 -3.7942806741143D-01  4.2012652765263D-01
   144  1.4300000000000D+00 -3.6610327533462D-01  3.8497939900233D-01
   145  1.4400000000000D+00 -3.5257702946318D-01  3.5045182417932D-01
   146  1.4500000000000D+00 -3.3889681089064D-01  3.1661567358296D-01
   147  1.4600000000000D+00 -3.2510900936583D-01  2.8353933300907D-01
   148  1.4700000000000D+00 -3.1125875567485D-01  2.5128739789532D-01
   149  1.4800000000000D+00 -2.9738975747723D-01  2.1992037524355D-01
   150  1.4900000000000D+00 -2.8354413902498D-01  1.8949439405594D-01
   151  1.5000000000000D+00 -2.6976228518440D-01  1.6006092510309D-01
   152  1.5100000000000D+00 -2.5608269005946D-01  1.3166651057404D-01
   153  1.5200000000000D+00 -2.4254181067334D-01  1.0435250450707D-01
   154  1.5300000000000D+00 -2.2917392520573D-01  7.8154822000817D-02
   155  1.5400000000000D+00 -2.1601099968622D-01  5.3103709701092D-02
   156  1.5500000000000D+00 -2.0308255084273D-01  2.9223496836678D-02
   157  1.5600000000000D+00 -1.9041554572701D-01  6.5324576244237D-03
   158  1.5700000000000D+00 -1.7803429272854D-01 -1.4957355304753D-02
   159  1.5800000000000D+00 -1.6596016704632D-01 -3.5240849051360D-02
   160  1.5900000000000D+00 -1.5421176731759D-01 -5.4319189638351D-02
   161  1.6000000000000D+00 -1.4280527540026D-01 -7.2198404536384D-02
   162  1.6100000000000D+00 -1.3175477160654D-01 -8.8888274339249D-02
   163  1.6200000000000D+00 -1.2107273208922D-01 -1.0440066232549D-01
   164  1.6300000000000D+00 -1.1077002420211D-01 -1.1874955362213D-01
   165  1.6400000000000D+00 -1.0085582038373D-01 -1.3195141432586D-01
   166  1.6500000000000D+00 -9.1337696830482D-02 -1.4402489468812D-01
   167  1.6600000000000D+00 -8.2221649621751D-02 -1.5499083066605D-01
   168  1.6700000000000D+00 -7.3512141318007D-02 -1.6487214434865D-01
   169  1.6800000000000D+00 -6.5212143420480D-02 -1.7369376322395D-01
   170  1.6900000000000D+00 -5.7323183783148D-02 -1.8148252687800D-01
   171  1.7000000000000D+00 -4.9845397400786D-02 -1.8826708617460D-01
   172  1.7100000000000D+00 -4.2777580434105D-02 -1.9407779532010D-01
   173  1.7200000000000D+00 -3.6117247057654D-02 -1.9894659781852D-01
   174  1.7300000000000D+00 -2.9860689036532D-02 -2.0290690652440D-01
   175  1.7400000000000D+00 -2.4003037632361D-02 -2.0599347875821D-01
   176  1.7500000000000D+00 -1.8538327689984D-02 -2.0824228683082D-01
   177  1.7600000000000D+00 -1.3459563539160D-02 -2.0969038485397D-01
   178  1.7700000000000D+00 -8.7587865012882D-03 -2.1037577233861D-01
   179  1.7800000000000D+00 -4.4271436813942D-03 -2.1033725534024D-01
   180  1.7900000000000D+00 -4.5495777683946D-04 -2.0961430579997D-01
   181  1.8000000000000D+00  3.1682023701328D-03 -2.0824691972186D-01
   182  1.8100000000000D+00  6.4534507865741D-03 -2.0627547493823D-01
   183  1.8200000000000D+00  9.4125131910549D-03 -2.0374058902560D-01
   184  1.8300000000000D+00  1.2057655941141D-02 -2.0068297813462D-01
   185  1.8400000000000D+00  1.4401615352416D-02 -1.9714331731286D-01
   186  1.8500000000000D+00  1.6457527654929D-02 -1.9316210294740D-01
   187  1.8600000000000D+00  1.8238859898224D-02 -1.8877951807487D-01
   188  1.8700000000000D+00  1.9759341940435D-02 -1.8403530084901D-01
   189  1.8800000000000D+00  2.1032899971294D-02 -1.7896861726897D-01
   190  1.8900000000000D+00  2.2073591503462D-02 -1.7361793794384D-01
   191  1.9000000000000D+00  2.2895542434182D-02 -1.6802092038365D-01
   192  1.9100000000000D+00  2.3512885987390D-02 -1.6221429627737D-01
   193  1.9200000000000D+00  2.3939704096634D-02 -1.5623376513782D-01
   194  1.9300000000000D+00  2.4189971153740D-02 -1.5011389407090D-01
   195  1.9400000000000D+00  2.4277500411748D-02 -1.4388802435275D-01
   196  1.9500000000000D+00  2.4215893271357D-02 -1.3758818534843D-01
   197  1.9600000000000D+00  2.4018491301687D-02 -1.3124501534351D-01
   198  1.9700000000000D+00  2.3698331626057D-02 -1.2488769083922D-01
   199  1.9800000000000D+00  2.3268105136841D-02 -1.1854386290573D-01
   200  1.9900000000000D+00  2.2740118294952D-02 -1.1223960245482D-01
   201  2.0000000000000D+00  2.2126258056260D-02 -1.0599935322930D-01
   202  2.0100000000000D+00  2.1437960259861D-02 -9.9845893305919D-02
   203  2.0200000000000D+00  2.0686181593031D-02 -9.3800305353422D-02
   204  2.0300000000000D+00  1.9881374711275D-02 -8.7881954538998D-02
   205  2.0400000000000D+00  1.9033467261618D-02 -8.2108475912675D-02
   206  2.0500000000000D+00  1.8151843965386D-02 -7.6495769109243D-02
   207  2.0600000000000D+00  1.7245332419203D-02 -7.1058001967246D-02
   208  2.0700000000000D+00  1.6322192229468D-02 -6.5807622057587D-02
   209  2.0800000000000D+00  1.5390107325421D-02 -6.0755375688226D-02
   210  2.0900000000000D+00  1.4456181879902D-02 -5.5910335402561D-02
   211  2.1000000000000D+00  1.3526939007585D-02 -5.1279933866167D-02
   212  2.1100000000000D+00  1.2608322865712D-02 -4.6870005635845D-02
   213  2.1200000000000D+00  1.1705703578325D-02 -4.2684835335065D-02
   214  2.1300000000000D+00  1.0823884889332D-02 -3.8727211952977D-02
   215  2.1400000000000D+00  9.9671147758787D-03 -3.4998489777363D-02
   216  2.1500000000000D+00  9.1390982737747D-03 -3.1498654091948D-02
   217  2.1600000000000D+00  8.3430129123648D-03 -2.8226392536497D-02
   218  2.1700000000000D+00  7.5815262786634D-03 -2.5179170920041D-02
   219  2.1800000000000D+00  6.8568154843176D-03 -2.2353312890159D-02
   220  2.1900000000000D+00  6.1705886654561D-03 -1.9744083683807D-02
   221  2.2000000000000D+00  5.5241079389512D-03 -1.7345776566218D-02
   222  2.2100000000000D+00  4.9182138671336D-03 -1.5151801977126D-02
   223  2.2200000000000D+00  4.3533511644364D-03 -1.3154778696612D-02
   224  2.2300000000000D+00  3.8295953816620D-03 -1.1346626407184D-02
   225  2.2400000000000D+00  3.3466804249008D-03 -9.7186591195943D-03
   226  2.2500000000000D+00  2.9040266869573D-03 -8.2616790148798D-03
   227  2.2600000000000D+00  2.5007695867135D-03 -6.9660701062563D-03
   228  2.2700000000000D+00  2.1357882080434D-03 -5.8218908609016D-03
   229  2.2800000000000D+00  1.8077340898722D-03 -4.8189660262150D-03
   230  2.2900000000000D+00  1.5150596605975D-03 -3.9469762290058D-03
   231  2.3000000000000D+00  1.2560462150708D-03 -3.1955451154269D-03
   232  2.3100000000000D+00  1.0288316155905D-03 -2.5543245746321D-03
   233  2.3200000000000D+00  8.3143676150468D-04 -2.0130754176491D-03
   234  2.3300000000000D+00  6.6179134733385D-04 -1.5617449890886D-03
   235  2.3400000000000D+00  5.1775870468706D-04 -1.1905411655910D-03
   236  2.3500000000000D+00  3.9715882097501D-04 -8.9000029229715D-04
   237  2.3600000000000D+00  2.9779044106458D-04 -6.5105154936680D-04
   238  2.3700000000000D+00  2.1745153138521D-04 -4.6507581226932D-04
   239  2.3800000000000D+00  1.5395896411155D-04 -3.2398823895654D-04
   240  2.3900000000000D+00  1.0516155823174D-04 -2.2018930767305D-04
   241  2.4000000000000D+00  6.8957094380096D-05 -1.4665343681670D-04
   242  2.4100000000000D+00  4.3239901806641D-05 -9.6746738525871D-05
   243  2.4200000000000D+00  2.6155521539723D-05 -6.5324050305057D-05
   244  2.4300000000000D+00  1.5904080588938D-05 -4.7812641609353D-05
   245  2.4400000000000D+00  1.0996925515872D-05 -4.0955999082651D-05
   246  2.4500000000000D+00  8.9957467878119D-06 -3.8240666737303D-05
   247  2.4600000000000D+00  7.8487585739893D-06 -3.4470409433841D-05
   248  2.4700000000000D+00  5.4865420534236D-06 -2.4177376587625D-05
   249  2.4800000000000D+00  2.6304371730567D-06 -1.1480640519012D-05
   250  2.4900000000000D+00  6.0484541703115D-08 -2.6037968417943D-07
   251  2.5000000000000D+00 -7.4879360951829D-07  3.4020701205596D-06
   252  2.5100000000000D+00 -6.0899198164439D-07  2.7651173932033D-06
   253  2.5200000000000D+00 -1.0747732622898D-08  4.8732905104443D-08
   254  2.5300000000000D+00  1.5157861952757D-07 -7.1363114237390D-07
   255  2.5400000000000D+00  1.3706901304609D-07 -6.4744898602489D-07
   256  2.5500000000000D+00  6.2096080503087D-09 -2.9412841963337D-08
   257  2.5600000000000D+00 -1.9322166527559D-08  8.4840478939563D-08
   258  2.5700000000000D+00 -1.9204732982518D-08  8.4324847413945D-08
   259  2.5800000000000D+00 -2.1493838961150D-09  9.4375938076762D-09
   260  2.5900000000000D+00  0.0000000000000D+00  0.0000000000000D+00
   261  2.6000000000000D+00  0.0000000000000D+00  0.0000000000000D+00
   262  2.6100000000000D+00  0.0000000000000D+00  0.0000000000000D+00
   263  2.6200000000000D+00  0.0000000000000D+00  0.0000000000000D+00
   264  2.6300000000000D+00  0.0000000000000D+00  0.0000000000000D+00
   265  2.6400000000000D+00  0.0000000000000D+00  0.0000000000000D+00
   266  2.6500000000000D+00  0.0000000000000D+00  0.0000000000000D+00
   267  2.6600000000000D+00  0.0000000000000D+00  0.0000000000000D+00
   268  2.6700000000000D+00  0.0000000000000D+00  0.0000000000000D+00
   269  2.6800000000000D+00  0.0000000000000D+00  0.0000000000000D+00
   270  2.6900000000000D+00  0.0000000000000D+00  0.0000000000000D+00
   271  2.7000000000000D+00  0.0000000000000D+00  0.0000000000000D+00
   272  2.7100000000000D+00  0.0000000000000D+00  0.0000000000000D+00
   273  2.7200000000000D+00  0.0000000000000D+00  0.0000000000000D+00
   274  2.7300000000000D+00  0.0000000000000D+00  0.0000000000000D+00
   275  2.7400000000000D+00  0.0000000000000D+00  0.0000000000000D+00
   276  2.7500000000000D+00  0.0000000000000D+00  0.0000000000000D+00
   277  2.7600000000000D+00  0.0000000000000D+00  0.0000000000000D+00
   278  2.7700000000000D+00  0.0000000000000D+00  0.0000000000000D+00
   279  2.7800000000000D+00  0.0000000000000D+00  0.0000000000000D+00
   280  2.7900000000000D+00  0.0000000000000D+00  0.0000000000000D+00
   281  2.8000000000000D+00  0.0000000000000D+00  0.0000000000000D+00
   282  2.8100000000000D+00  0.0000000000000D+00  0.0000000000000D+00
   283  2.8200000000000D+00  0.0000000000000D+00  0.0000000000000D+00
   284  2.8300000000000D+00  0.0000000000000D+00  0.0000000000000D+00
   285  2.8400000000000D+00  0.0000000000000D+00  0.0000000000000D+00
   286  2.8500000000000D+00  0.0000000000000D+00  0.0000000000000D+00
   287  2.8600000000000D+00  0.0000000000000D+00  0.0000000000000D+00
   288  2.8700000000000D+00  0.0000000000000D+00  0.0000000000000D+00
   289  2.8800000000000D+00  0.0000000000000D+00  0.0000000000000D+00
   290  2.8900000000000D+00  0.0000000000000D+00  0.0000000000000D+00
   291  2.9000000000000D+00  0.0000000000000D+00  0.0000000000000D+00
   292  2.9100000000000D+00  0.0000000000000D+00  0.0000000000000D+00
   293  2.9200000000000D+00  0.0000000000000D+00  0.0000000000000D+00
   294  2.9300000000000D+00  0.0000000000000D+00  0.0000000000000D+00
   295  2.9400000000000D+00  0.0000000000000D+00  0.0000000000000D+00
   296  2.9500000000000D+00  0.0000000000000D+00  0.0000000000000D+00
   297  2.9600000000000D+00  0.0000000000000D+00  0.0000000000000D+00
   298  2.9700000000000D+00  0.0000000000000D+00  0.0000000000000D+00
   299  2.9800000000000D+00  0.0000000000000D+00  0.0000000000000D+00
   300  2.9900000000000D+00  0.0000000000000D+00  0.0000000000000D+00
   301  3.0000000000000D+00  0.0000000000000D+00  0.0000000000000D+00
   302  3.0100000000000D+00  0.0000000000000D+00  0.0000000000000D+00
   303  3.0200000000000D+00  0.0000000000000D+00  0.0000000000000D+00
   304  3.0300000000000D+00  0.0000000000000D+00  0.0000000000000D+00
   305  3.0400000000000D+00  0.0000000000000D+00  0.0000000000000D+00
   306  3.0500000000000D+00  0.0000000000000D+00  0.0000000000000D+00
   307  3.0600000000000D+00  0.0000000000000D+00  0.0000000000000D+00
   308  3.0700000000000D+00  0.0000000000000D+00  0.0000000000000D+00
   309  3.0800000000000D+00  0.0000000000000D+00  0.0000000000000D+00
   310  3.0900000000000D+00  0.0000000000000D+00  0.0000000000000D+00
   311  3.1000000000000D+00  0.0000000000000D+00  0.0000000000000D+00
   312  3.1100000000000D+00  0.0000000000000D+00  0.0000000000000D+00
   313  3.1200000000000D+00  0.0000000000000D+00  0.0000000000000D+00
   314  3.1300000000000D+00  0.0000000000000D+00  0.0000000000000D+00
   315  3.1400000000000D+00  0.0000000000000D+00  0.0000000000000D+00
   316  3.1500000000000D+00  0.0000000000000D+00  0.0000000000000D+00
   317  3.1600000000000D+00  0.0000000000000D+00  0.0000000000000D+00
   318  3.1700000000000D+00  0.0000000000000D+00  0.0000000000000D+00
   319  3.1800000000000D+00  0.0000000000000D+00  0.0000000000000D+00
   320  3.1900000000000D+00  0.0000000000000D+00  0.0000000000000D+00
   321  3.2000000000000D+00  0.0000000000000D+00  0.0000000000000D+00
   322  3.2100000000000D+00  0.0000000000000D+00  0.0000000000000D+00
   323  3.2200000000000D+00  0.0000000000000D+00  0.0000000000000D+00
   324  3.2300000000000D+00  0.0000000000000D+00  0.0000000000000D+00
   325  3.2400000000000D+00  0.0000000000000D+00  0.0000000000000D+00
   326  3.2500000000000D+00  0.0000000000000D+00  0.0000000000000D+00
   327  3.2600000000000D+00  0.0000000000000D+00  0.0000000000000D+00
   328  3.2700000000000D+00  0.0000000000000D+00  0.0000000000000D+00
   329  3.2800000000000D+00  0.0000000000000D+00  0.0000000000000D+00
   330  3.2900000000000D+00  0.0000000000000D+00  0.0000000000000D+00
   331  3.3000000000000D+00  0.0000000000000D+00  0.0000000000000D+00
   332  3.3100000000000D+00  0.0000000000000D+00  0.0000000000000D+00
   333  3.3200000000000D+00  0.0000000000000D+00  0.0000000000000D+00
   334  3.3300000000000D+00  0.0000000000000D+00  0.0000000000000D+00
   335  3.3400000000000D+00  0.0000000000000D+00  0.0000000000000D+00
   336  3.3500000000000D+00  0.0000000000000D+00  0.0000000000000D+00
   337  3.3600000000000D+00  0.0000000000000D+00  0.0000000000000D+00
   338  3.3700000000000D+00  0.0000000000000D+00  0.0000000000000D+00
   339  3.3800000000000D+00  0.0000000000000D+00  0.0000000000000D+00
   340  3.3900000000000D+00  0.0000000000000D+00  0.0000000000000D+00
   341  3.4000000000000D+00  0.0000000000000D+00  0.0000000000000D+00
   342  3.4100000000000D+00  0.0000000000000D+00  0.0000000000000D+00
   343  3.4200000000000D+00  0.0000000000000D+00  0.0000000000000D+00
   344  3.4300000000000D+00  0.0000000000000D+00  0.0000000000000D+00
   345  3.4400000000000D+00  0.0000000000000D+00  0.0000000000000D+00
   346  3.4500000000000D+00  0.0000000000000D+00  0.0000000000000D+00
   347  3.4600000000000D+00  0.0000000000000D+00  0.0000000000000D+00
   348  3.4700000000000D+00  0.0000000000000D+00  0.0000000000000D+00
   349  3.4800000000000D+00  0.0000000000000D+00  0.0000000000000D+00
   350  3.4900000000000D+00  0.0000000000000D+00  0.0000000000000D+00
   351  3.5000000000000D+00  0.0000000000000D+00  0.0000000000000D+00
   352  3.5100000000000D+00  0.0000000000000D+00  0.0000000000000D+00
   353  3.5200000000000D+00  0.0000000000000D+00  0.0000000000000D+00
   354  3.5300000000000D+00  0.0000000000000D+00  0.0000000000000D+00
   355  3.5400000000000D+00  0.0000000000000D+00  0.0000000000000D+00
   356  3.5500000000000D+00  0.0000000000000D+00  0.0000000000000D+00
   357  3.5600000000000D+00  0.0000000000000D+00  0.0000000000000D+00
   358  3.5700000000000D+00  0.0000000000000D+00  0.0000000000000D+00
   359  3.5800000000000D+00  0.0000000000000D+00  0.0000000000000D+00
   360  3.5900000000000D+00  0.0000000000000D+00  0.0000000000000D+00
   361  3.6000000000000D+00  0.0000000000000D+00  0.0000000000000D+00
   362  3.6100000000000D+00  0.0000000000000D+00  0.0000000000000D+00
   363  3.6200000000000D+00  0.0000000000000D+00  0.0000000000000D+00
   364  3.6300000000000D+00  0.0000000000000D+00  0.0000000000000D+00
   365  3.6400000000000D+00  0.0000000000000D+00  0.0000000000000D+00
   366  3.6500000000000D+00  0.0000000000000D+00  0.0000000000000D+00
   367  3.6600000000000D+00  0.0000000000000D+00  0.0000000000000D+00
   368  3.6700000000000D+00  0.0000000000000D+00  0.0000000000000D+00
   369  3.6800000000000D+00  0.0000000000000D+00  0.0000000000000D+00
   370  3.6900000000000D+00  0.0000000000000D+00  0.0000000000000D+00
   371  3.7000000000000D+00  0.0000000000000D+00  0.0000000000000D+00
   372  3.7100000000000D+00  0.0000000000000D+00  0.0000000000000D+00
   373  3.7200000000000D+00  0.0000000000000D+00  0.0000000000000D+00
   374  3.7300000000000D+00  0.0000000000000D+00  0.0000000000000D+00
   375  3.7400000000000D+00  0.0000000000000D+00  0.0000000000000D+00
   376  3.7500000000000D+00  0.0000000000000D+00  0.0000000000000D+00
   377  3.7600000000000D+00  0.0000000000000D+00  0.0000000000000D+00
   378  3.7700000000000D+00  0.0000000000000D+00  0.0000000000000D+00
   379  3.7800000000000D+00  0.0000000000000D+00  0.0000000000000D+00
   380  3.7900000000000D+00  0.0000000000000D+00  0.0000000000000D+00
   381  3.8000000000000D+00  0.0000000000000D+00  0.0000000000000D+00
   382  3.8100000000000D+00  0.0000000000000D+00  0.0000000000000D+00
   383  3.8200000000000D+00  0.0000000000000D+00  0.0000000000000D+00
   384  3.8300000000000D+00  0.0000000000000D+00  0.0000000000000D+00
   385  3.8400000000000D+00  0.0000000000000D+00  0.0000000000000D+00
   386  3.8500000000000D+00  0.0000000000000D+00  0.0000000000000D+00
   387  3.8600000000000D+00  0.0000000000000D+00  0.0000000000000D+00
   388  3.8700000000000D+00  0.0000000000000D+00  0.0000000000000D+00
   389  3.8800000000000D+00  0.0000000000000D+00  0.0000000000000D+00
   390  3.8900000000000D+00  0.0000000000000D+00  0.0000000000000D+00
   391  3.9000000000000D+00  0.0000000000000D+00  0.0000000000000D+00
   392  3.9100000000000D+00  0.0000000000000D+00  0.0000000000000D+00
   393  3.9200000000000D+00  0.0000000000000D+00  0.0000000000000D+00
   394  3.9300000000000D+00  0.0000000000000D+00  0.0000000000000D+00
   395  3.9400000000000D+00  0.0000000000000D+00  0.0000000000000D+00
   396  3.9500000000000D+00  0.0000000000000D+00  0.0000000000000D+00
   397  3.9600000000000D+00  0.0000000000000D+00  0.0000000000000D+00
   398  3.9700000000000D+00  0.0000000000000D+00  0.0000000000000D+00
   399  3.9800000000000D+00  0.0000000000000D+00  0.0000000000000D+00
   400  3.9900000000000D+00  0.0000000000000D+00  0.0000000000000D+00
   401  4.0000000000000D+00  0.0000000000000D+00  0.0000000000000D+00
   402  4.0100000000000D+00  0.0000000000000D+00  0.0000000000000D+00
   403  4.0200000000000D+00  0.0000000000000D+00  0.0000000000000D+00
   404  4.0300000000000D+00  0.0000000000000D+00  0.0000000000000D+00
   405  4.0400000000000D+00  0.0000000000000D+00  0.0000000000000D+00
   406  4.0500000000000D+00  0.0000000000000D+00  0.0000000000000D+00
   407  4.0600000000000D+00  0.0000000000000D+00  0.0000000000000D+00
   408  4.0700000000000D+00  0.0000000000000D+00  0.0000000000000D+00
   409  4.0800000000000D+00  0.0000000000000D+00  0.0000000000000D+00
   410  4.0900000000000D+00  0.0000000000000D+00  0.0000000000000D+00
   411  4.1000000000000D+00  0.0000000000000D+00  0.0000000000000D+00
   412  4.1100000000000D+00  0.0000000000000D+00  0.0000000000000D+00
   413  4.1200000000000D+00  0.0000000000000D+00  0.0000000000000D+00
   414  4.1300000000000D+00  0.0000000000000D+00  0.0000000000000D+00
   415  4.1400000000000D+00  0.0000000000000D+00  0.0000000000000D+00
   416  4.1500000000000D+00  0.0000000000000D+00  0.0000000000000D+00
   417  4.1600000000000D+00  0.0000000000000D+00  0.0000000000000D+00
   418  4.1700000000000D+00  0.0000000000000D+00  0.0000000000000D+00
   419  4.1800000000000D+00  0.0000000000000D+00  0.0000000000000D+00
   420  4.1900000000000D+00  0.0000000000000D+00  0.0000000000000D+00
   421  4.2000000000000D+00  0.0000000000000D+00  0.0000000000000D+00
   422  4.2100000000000D+00  0.0000000000000D+00  0.0000000000000D+00