Tc    ONCVPSP-3.3.1  r_core=   2.46076   2.58101   2.67505
     43.0000     15.0000      210904    zatom,zion,pspd
     8       2   2     4   600     0    pspcod,pspxc,lmax,lloc,mmax,r2well
  5.99000000  0.00000000  0.00000000    rchrg fchrg qchrg
     2     4     3     0    nproj
     3     1           extension_switch
     4     4     0    nprojso
   0                         8.4472896444992D-01  4.3767825114754D+00
     1  0.0000000000000D+00 -8.3016996055285D-12  2.2229995622070D-12
     2  1.0000000000000D-02 -4.5232224738844D-03  4.9887885779655D-02
     3  2.0000000000000D-02 -9.0262453618688D-03  9.9713157165606D-02
     4  3.0000000000000D-02 -1.3488846340312D-02  1.4941327372283D-01
     5  4.0000000000000D-02 -1.7890757982694D-02  1.9892584293592D-01
     6  5.0000000000000D-02 -2.2211646137606D-02  2.4818869417400D-01
     7  6.0000000000000D-02 -2.6431089416217D-02  2.9713995266013D-01
     8  7.0000000000000D-02 -3.0528560149377D-02  3.4571811344423D-01
     9  8.0000000000000D-02 -3.4483407166205D-02  3.9386211537599D-01
    10  9.0000000000000D-02 -3.8274840735810D-02  4.4151141507194D-01
    11  1.0000000000000D-01 -4.1881920001530D-02  4.8860606086711D-01
    12  1.1000000000000D-01 -4.5283543222944D-02  5.3508676673829D-01
    13  1.2000000000000D-01 -4.8458441124914D-02  5.8089498618134D-01
    14  1.3000000000000D-01 -5.1385173635120D-02  6.2597298602061D-01
    15  1.4000000000000D-01 -5.4042130272032D-02  6.7026392012299D-01
    16  1.5000000000000D-01 -5.6407534424095D-02  7.1371190298381D-01
    17  1.6000000000000D-01 -5.8459451738190D-02  7.5626208314573D-01
    18  1.7000000000000D-01 -6.0175802811218D-02  7.9786071640551D-01
    19  1.8000000000000D-01 -6.1534380353114D-02  8.3845523875685D-01
    20  1.9000000000000D-01 -6.2512870962803D-02  8.7799433901068D-01
    21  2.0000000000000D-01 -6.3088881630567D-02  9.1642803102704D-01
    22  2.1000000000000D-01 -6.3239971051431D-02  9.5370772548553D-01
    23  2.2000000000000D-01 -6.2943685804101D-02  9.8978630111349D-01
    24  2.3000000000000D-01 -6.2177601419538D-02  1.0246181752839D+00
    25  2.4000000000000D-01 -6.0919368331715D-02  1.0581593738872D+00
    26  2.5000000000000D-01 -5.9146762671541D-02  1.0903676003724D+00
    27  2.6000000000000D-01 -5.6837741832567D-02  1.1212023038485D+00
    28  2.7000000000000D-01 -5.3970504704921D-02  1.1506247461244D+00
    29  2.8000000000000D-01 -5.0523556441381D-02  1.1785980675639D+00
    30  2.9000000000000D-01 -4.6475777587325D-02  1.2050873516199D+00
    31  3.0000000000000D-01 -4.1806497374101D-02  1.2300596879095D+00
    32  3.1000000000000D-01 -3.6495570943958D-02  1.2534842336804D+00
    33  3.2000000000000D-01 -3.0523460243459D-02  1.2753322735173D+00
    34  3.3000000000000D-01 -2.3871318292093D-02  1.2955772771268D+00
    35  3.4000000000000D-01 -1.6521076503478D-02  1.3141949550365D+00
    36  3.5000000000000D-01 -8.4555347080684D-03  1.3311633120382D+00
    37  3.6000000000000D-01  3.4154650062967D-04  1.3464626982007D+00
    38  3.7000000000000D-01  9.8853515002201D-03  1.3600758572720D+00
    39  3.8000000000000D-01  2.0189913881931D-02  1.3719879722924D+00
    40  3.9000000000000D-01  3.1268019652019D-02  1.3821867082301D+00
    41  4.0000000000000D-01  4.3131109863280D-02  1.3906622514568D+00
    42  4.1000000000000D-01  5.5789183166570D-02  1.3974073458739D+00
    43  4.2000000000000D-01  6.9250698789029D-02  1.4024173255037D+00
    44  4.3000000000000D-01  8.3522480459867D-02  1.4056901433566D+00
    45  4.4000000000000D-01  9.8609621816879D-02  1.4072263963923D+00
    46  4.5000000000000D-01  1.1451539383639D-01  1.4070293463901D+00
    47  4.6000000000000D-01  1.3124115483637D-01  1.4051049365504D+00
    48  4.7000000000000D-01  1.4878626360694D-01  1.4014618036522D+00
    49  4.8000000000000D-01  1.6714799622429D-01  1.3961112855979D+00
    50  4.9000000000000D-01  1.8632146710276D-01  1.3890674241820D+00
    51  5.0000000000000D-01  2.0629955483618D-01  1.3803469629289D+00
    52  5.1000000000000D-01  2.2707283337248D-01  1.3699693398527D+00
    53  5.2000000000000D-01  2.4862950905626D-01  1.3579566750016D+00
    54  5.3000000000000D-01  2.7095536406075D-01  1.3443337526602D+00
    55  5.4000000000000D-01  2.9403370671582D-01  1.3291279980937D+00
    56  5.5000000000000D-01  3.1784532921927D-01  1.3123694487325D+00
    57  5.6000000000000D-01  3.4236847319809D-01  1.2940907197062D+00
    58  5.7000000000000D-01  3.6757880356135D-01  1.2743269636531D+00
    59  5.8000000000000D-01  3.9344939105984D-01  1.2531158247452D+00
    60  5.9000000000000D-01  4.1995070393758D-01  1.2304973868851D+00
    61  6.0000000000000D-01  4.4705060902779D-01  1.2065141160483D+00
    62  6.1000000000000D-01  4.7471438261103D-01  1.1812107967623D+00
    63  6.2000000000000D-01  5.0290473131591D-01  1.1546344627321D+00
    64  6.3000000000000D-01  5.3158182330279D-01  1.1268343216409D+00
    65  6.4000000000000D-01  5.6070332992952D-01  1.0978616741744D+00
    66  6.5000000000000D-01  5.9022447805384D-01  1.0677698273386D+00
    67  6.6000000000000D-01  6.2009811308210D-01  1.0366140021579D+00
    68  6.7000000000000D-01  6.5027477282639D-01  1.0044512358677D+00
    69  6.8000000000000D-01  6.8070277218351D-01  9.7134027872973D-01
    70  6.9000000000000D-01  7.1132829859945D-01  9.3734148562531D-01
    71  7.0000000000000D-01  7.4209551823255D-01  9.0251670260099D-01
    72  7.1000000000000D-01  7.7294669267627D-01  8.6692914856241D-01
    73  7.2000000000000D-01  8.0382230605118D-01  8.3064329233451D-01
    74  7.3000000000000D-01  8.3466120222306D-01  7.9372472532692D-01
    75  7.4000000000000D-01  8.6540073185173D-01  7.5624003006456D-01
    76  7.5000000000000D-01  8.9597690892340D-01  7.1825664486365D-01
    77  7.6000000000000D-01  9.2632457636769D-01  6.7984272495365D-01
    78  7.7000000000000D-01  9.5637758030966D-01  6.4106700036491D-01
    79  7.8000000000000D-01  9.8606895245782D-01  6.0199863092022D-01
    80  7.9000000000000D-01  1.0153311000806D+00  5.6270705868667D-01
    81  8.0000000000000D-01  1.0440960029769D+00  5.2326185826060D-01
    82  8.1000000000000D-01  1.0722954168022D+00  4.8373258527471D-01
    83  8.2000000000000D-01  1.0998610820677D+00  4.4418862353064D-01
    84  8.3000000000000D-01  1.1267249380912D+00  4.0469903117427D-01
    85  8.4000000000000D-01  1.1528193411395D+00  3.6533238634257D-01
    86  8.5000000000000D-01  1.1780772859671D+00  3.2615663272219D-01
    87  8.6000000000000D-01  1.2024326299258D+00  2.8723892546864D-01
    88  8.7000000000000D-01  1.2258203187894D+00  2.4864547794302D-01
    89  8.8000000000000D-01  1.2481766134131D+00  2.1044140972908D-01
    90  8.9000000000000D-01  1.2694393163273D+00  1.7269059639795D-01
    91  9.0000000000000D-01  1.2895479973455D+00  1.3545552149021D-01
    92  9.1000000000000D-01  1.3084442172544D+00  9.8797131186086D-02
    93  9.2000000000000D-01  1.3260717486443D+00  6.2774692133427D-02
    94  9.3000000000000D-01  1.3423767929319D+00  2.7445652900097D-02
    95  9.4000000000000D-01  1.3573081926281D+00 -7.1344904871385D-03
    96  9.5000000000000D-01  1.3708176379056D+00 -4.0912324461979D-02
    97  9.6000000000000D-01  1.3828598665292D+00 -7.3836642849518D-02
    98  9.7000000000000D-01  1.3933928562249D+00 -1.0585856637253D-01
    99  9.8000000000000D-01  1.4023780085796D+00 -1.3693165630935D-01
   100  9.9000000000000D-01  1.4097803235849D+00 -1.6701202189383D-01
   101  1.0000000000000D+00  1.4155685639643D+00 -1.9605842106374D-01
   102  1.0100000000000D+00  1.4197154084515D+00 -2.2403235418230D-01
   103  1.0200000000000D+00  1.4221975932247D+00 -2.5089815037671D-01
   104  1.0300000000000D+00  1.4229960407355D+00 -2.7662304615916D-01
   105  1.0400000000000D+00  1.4220959752176D+00 -3.0117725601820D-01
   106  1.0500000000000D+00  1.4194870242043D+00 -3.2453403469433D-01
   107  1.0600000000000D+00  1.4151633054304D+00 -3.4666973087618D-01
   108  1.0700000000000D+00  1.4091234985534D+00 -3.6756383208484D-01
   109  1.0800000000000D+00  1.4013709011791D+00 -3.8719900053957D-01
   110  1.0900000000000D+00  1.3919134687376D+00 -4.0556109982842D-01
   111  1.1000000000000D+00  1.3807638378211D+00 -4.2263921223928D-01
   112  1.1100000000000D+00  1.3679393326469D+00 -4.3842564663353D-01
   113  1.1200000000000D+00  1.3534619543912D+00 -4.5291593678303D-01
   114  1.1300000000000D+00  1.3373583531921D+00 -4.6610883011858D-01
   115  1.1400000000000D+00  1.3196597827054D+00 -4.7800626687644D-01
   116  1.1500000000000D+00  1.3004020371416D+00 -4.8861334965356D-01
   117  1.1600000000000D+00  1.2796253708122D+00 -4.9793830342709D-01
   118  1.1700000000000D+00  1.2573744002648D+00 -5.0599242611975D-01
   119  1.1800000000000D+00  1.2336979891714D+00 -5.1279002983109D-01
   120  1.1900000000000D+00  1.2086491161818D+00 -5.1834837287776D-01
   121  1.2000000000000D+00  1.1822847260535D+00 -5.2268758283249D-01
   122  1.2100000000000D+00  1.1546655644274D+00 -5.2583057077656D-01
   123  1.2200000000000D+00  1.1258559966684D+00 -5.2780293700590D-01
   124  1.2300000000000D+00  1.0959238112789D+00 -5.2863286847031D-01
   125  1.2400000000000D+00  1.0649400084554D+00 -5.2835102825401D-01
   126  1.2500000000000D+00  1.0329785744037D+00 -5.2699043742709D-01
   127  1.2600000000000D+00  1.0001162420903D+00 -5.2458634962517D-01
   128  1.2700000000000D+00  9.6643223918435D-01 -5.2117611874991D-01
   129  1.2800000000000D+00  9.3200802397006D-01 -5.1679906019411D-01
   130  1.2900000000000D+00  8.9692701005746D-01 -5.1149630601759D-01
   131  1.3000000000000D+00  8.6127428079568D-01 -5.0531065453387D-01
   132  1.3100000000000D+00  8.2513629429402D-01 -4.9828641476851D-01
   133  1.3200000000000D+00  7.8860058000612D-01 -4.9046924627242D-01
   134  1.3300000000000D+00  7.5175542788320D-01 -4.8190599479619D-01
   135  1.3400000000000D+00  7.1468957109020D-01 -4.7264452432597D-01
   136  1.3500000000000D+00  6.7749186333233D-01 -4.6273354600570D-01
   137  1.3600000000000D+00  6.4025095184522D-01 -4.5222244447243D-01
   138  1.3700000000000D+00  6.0305494710187D-01 -4.4116110213228D-01
   139  1.3800000000000D+00  5.6599109032002D-01 -4.2959972191705D-01
   140  1.3900000000000D+00  5.2914541982313D-01 -4.1758864904882D-01
   141  1.4000000000000D+00  4.9260243734331D-01 -4.0517819235471D-01
   142  1.4100000000000D+00  4.5644477529611D-01 -3.9241844564811D-01
   143  1.4200000000000D+00  4.2075286609242D-01 -3.7935910970828D-01
   144  1.4300000000000D+00  3.8560461450667D-01 -3.6604931536956D-01
   145  1.4400000000000D+00  3.5107507406677D-01 -3.5253744820682D-01
   146  1.4500000000000D+00  3.1723612851102D-01 -3.3887097534017D-01
   147  1.4600000000000D+00  2.8415617913802D-01 -3.2509627478261D-01
   148  1.4700000000000D+00  2.5189983906447D-01 -3.1125846783972D-01
   149  1.4800000000000D+00  2.2052763515654D-01 -2.9740125495784D-01
   150  1.4900000000000D+00  1.9009571847150D-01 -2.8356675544924D-01
   151  1.5000000000000D+00  1.6065558402798D-01 -2.6979535151471D-01
   152  1.5100000000000D+00  1.3225380045471D-01 -2.5612553686197D-01
   153  1.5200000000000D+00  1.0493175041677D-01 -2.4259377037694D-01
   154  1.5300000000000D+00  7.8725379814276D-02 -2.2923433434446D-01
   155  1.5400000000000D+00  5.3664968272390D-02 -2.1607920112484D-01
   156  1.5500000000000D+00  2.9774880205253D-02 -2.0315789599077D-01
   157  1.5600000000000D+00  7.0734269907119D-03 -1.9049739665588D-01
   158  1.5700000000000D+00 -1.4427299483228D-02 -1.7812202429447D-01
   159  1.5800000000000D+00 -3.4722164508517D-02 -1.6605316914218D-01
   160  1.5900000000000D+00 -5.3812289891836D-02 -1.5430944700296D-01
   161  1.6000000000000D+00 -7.1703655926482D-02 -1.4290705908161D-01
   162  1.6100000000000D+00 -8.8405995004607D-02 -1.3186010652771D-01
   163  1.6200000000000D+00 -1.0393112469961D-01 -1.2118108663112D-01
   164  1.6300000000000D+00 -1.1829298661998D-01 -1.1088088820107D-01
   165  1.6400000000000D+00 -1.3150800502786D-01 -1.0096870553505D-01
   166  1.6500000000000D+00 -1.4359479033865D-01 -9.1452136913687D-02
   167  1.6600000000000D+00 -1.5457414046173D-01 -8.2337200715488D-02
   168  1.6700000000000D+00 -1.6446894126895D-01 -7.3628381927989D-02
   169  1.6800000000000D+00 -1.7330408581472D-01 -6.5328674549602D-02
   170  1.6900000000000D+00 -1.8110638100090D-01 -5.7439628941518D-02
   171  1.7000000000000D+00 -1.8790444672350D-01 -4.9961402557129D-02
   172  1.7100000000000D+00 -1.9372860790490D-01 -4.2892813910383D-02
   173  1.7200000000000D+00 -1.9861078041639D-01 -3.6231399368785D-02
   174  1.7300000000000D+00 -2.0258435109884D-01 -2.9973472677211D-02
   175  1.7400000000000D+00 -2.0568405284594D-01 -2.4114186813014D-02
   176  1.7500000000000D+00 -2.0794583509683D-01 -1.8647598024007D-02
   177  1.7600000000000D+00 -2.0940673061471D-01 -1.3566731683606D-02
   178  1.7700000000000D+00 -2.1010471905345D-01 -8.8636497532973D-03
   179  1.7800000000000D+00 -2.1007858807118D-01 -4.5295195326351D-03
   180  1.7900000000000D+00 -2.0936779263972D-01 -5.5468342838165D-04
   181  1.8000000000000D+00 -2.0801231318999D-01  3.0712705301334D-03
   182  1.8100000000000D+00 -2.0605251334552D-01  6.3594377398762D-03
   183  1.8200000000000D+00 -2.0352899780627D-01  9.3215258785336D-03
   184  1.8300000000000D+00 -2.0048247114636D-01  1.1969783881630D-02
   185  1.8400000000000D+00 -1.9695359810426D-01  1.4316931288615D-02
   186  1.8500000000000D+00 -1.9298286599259D-01  1.6376088223784D-02
   187  1.8600000000000D+00 -1.8861044997500D-01  1.8160706323136D-02
   188  1.8700000000000D+00 -1.8387608150016D-01  1.9684500742710D-02
   189  1.8800000000000D+00 -1.7881892099612D-01  2.0961383698115D-02
   190  1.8900000000000D+00 -1.7347743460041D-01  2.2005399469849D-02
   191  1.9000000000000D+00 -1.6788927641607D-01  2.2830661476179D-02
   192  1.9100000000000D+00 -1.6209117575438D-01  2.3451291223996D-02
   193  1.9200000000000D+00 -1.5611883074374D-01  2.3881359697771D-02
   194  1.9300000000000D+00 -1.5000680806219D-01  2.4134831111632D-02
   195  1.9400000000000D+00 -1.4378844947750D-01  2.4225509313253D-02
   196  1.9500000000000D+00 -1.3749578572879D-01  2.4166987068912D-02
   197  1.9600000000000D+00 -1.3115945732113D-01  2.3972598080731D-02
   198  1.9700000000000D+00 -1.2480864378035D-01  2.3655372365365D-02
   199  1.9800000000000D+00 -1.1847099996413D-01  2.3227994459141D-02
   200  1.9900000000000D+00 -1.1217260129717D-01  2.2702765207256D-02
   201  2.0000000000000D+00 -1.0593789672274D-01  2.2091566677866D-02
   202  2.0100000000000D+00 -9.9789670165330D-02  2.1405830535147D-02
   203  2.0200000000000D+00 -9.3749010745489D-02  2.0656509986087D-02
   204  2.0300000000000D+00 -8.7835290642940D-02  1.9854054880592D-02
   205  2.0400000000000D+00 -8.2066152440844D-02  1.9008390714143D-02
   206  2.0500000000000D+00 -7.6457503785969D-02  1.8128900687808D-02
   207  2.0600000000000D+00 -7.1023520965202D-02  1.7224411484575D-02
   208  2.0700000000000D+00 -6.5776660391521D-02  1.6303182377660D-02
   209  2.0800000000000D+00 -6.0727677566197D-02  1.5372897516078D-02
   210  2.0900000000000D+00 -5.5885654534699D-02  1.4440661816581D-02
   211  2.1000000000000D+00 -5.1258033731054D-02  1.3512999631939D-02
   212  2.1100000000000D+00 -4.6850659704640D-02  1.2595856820649D-02
   213  2.1200000000000D+00 -4.2667827253667D-02  1.1694605639226D-02
   214  2.1300000000000D+00 -3.8712335682595D-02  1.0814052362587D-02
   215  2.1400000000000D+00 -3.4985549693913D-02  9.9584478640463D-03
   216  2.1500000000000D+00 -3.1487465044858D-02  9.1315004068954D-03
   217  2.1600000000000D+00 -2.8216779867537D-02  8.3363910450302D-03
   218  2.1700000000000D+00 -2.5170970442925D-02  7.5757911526113D-03
   219  2.1800000000000D+00 -2.2346370831748D-02  6.8518818564328D-03
   220  2.1900000000000D+00 -1.9738256587881D-02  6.1663755012504D-03
   221  2.2000000000000D+00 -1.7340931160789D-02  5.5205385716304D-03
   222  2.2100000000000D+00 -1.5147815006462D-02  4.9152161225907D-03
   223  2.2200000000000D+00 -1.3151536719213D-02  4.3508574526240D-03
   224  2.2300000000000D+00 -1.1344025560899D-02  3.8275427547786D-03
   225  2.2400000000000D+00 -9.7166048554466D-03  3.3450106032479D-03
   226  2.2500000000000D+00 -8.2600858009597D-03  2.9026860531403D-03
   227  2.2600000000000D+00 -6.9648611032265D-03  2.4997091490970D-03
   228  2.2700000000000D+00 -5.8209975709058D-03  2.1349635346403D-03
   229  2.2800000000000D+00 -4.8183279166697D-03  1.8071052135865D-03
   230  2.2900000000000D+00 -3.9465403332082D-03  1.5145909572173D-03
   231  2.3000000000000D+00 -3.1952656118484D-03  1.2557062553895D-03
   232  2.3100000000000D+00 -2.5541623464960D-03  1.0285929928017D-03
   233  2.3200000000000D+00 -2.0129975950992D-03  8.3127589575590D-04
   234  2.3300000000000D+00 -1.5617244757170D-03  6.6168826882963D-04
   235  2.3400000000000D+00 -1.1905561511857D-03  5.1769681685850D-04
   236  2.3500000000000D+00 -8.9003375421993D-04  3.9712464582314D-04
   237  2.3600000000000D+00 -6.5109074426701D-04  2.9777334811385D-04
   238  2.3700000000000D+00 -4.6511176024653D-04  2.1744345213183D-04
   239  2.3800000000000D+00 -3.2401514964362D-04  1.5395406376804D-04
   240  2.3900000000000D+00 -2.2020417110087D-04  1.0515599321777D-04
   241  2.4000000000000D+00 -1.4665553007422D-04  6.8948713524559D-05
   242  2.4100000000000D+00 -9.6737341543212D-05  4.3228062232470D-05
   243  2.4200000000000D+00 -6.5304900586486D-05  2.6140167985774D-05
   244  2.4300000000000D+00 -4.7785527624785D-05  1.5885478011433D-05
   245  2.4400000000000D+00 -4.0921820630326D-05  1.0975065364715D-05
   246  2.4500000000000D+00 -3.8202993536691D-05  8.9723976017958D-06
   247  2.4600000000000D+00 -3.4434780220396D-05  7.8270002411389D-06
   248  2.4700000000000D+00 -2.4152102139806D-05  5.4712047947060D-06
   249  2.4800000000000D+00 -1.1468673795697D-05  2.6231989900063D-06
   250  2.4900000000000D+00 -2.6011048014821D-07  6.0322002806291D-08
   251  2.5000000000000D+00  3.3984166637889D-06 -7.4658784277070D-07
   252  2.5100000000000D+00  2.7621476667485D-06 -6.0720044808203D-07
   253  2.5200000000000D+00  4.8680602176248D-08 -1.0716197761258D-08
   254  2.5300000000000D+00 -7.1284335930444D-07  1.5110261907574D-07
   255  2.5400000000000D+00 -6.4673222265190D-07  1.3663610777523D-07
   256  2.5500000000000D+00 -2.9380202344802D-08  6.1899015977095D-09
   257  2.5600000000000D+00  8.4752692919340D-08 -1.9268596714852D-08
   258  2.5700000000000D+00  8.4237594927245D-08 -1.9151488748881D-08
   259  2.5800000000000D+00  9.4278285539765D-09 -2.1434248287099D-09
   260  2.5900000000000D+00  0.0000000000000D+00  0.0000000000000D+00
   261  2.6000000000000D+00  0.0000000000000D+00  0.0000000000000D+00
   262  2.6100000000000D+00  0.0000000000000D+00  0.0000000000000D+00
   263  2.6200000000000D+00  0.0000000000000D+00  0.0000000000000D+00
   264  2.6300000000000D+00  0.0000000000000D+00  0.0000000000000D+00
   265  2.6400000000000D+00  0.0000000000000D+00  0.0000000000000D+00
   266  2.6500000000000D+00  0.0000000000000D+00  0.0000000000000D+00
   267  2.6600000000000D+00  0.0000000000000D+00  0.0000000000000D+00
   268  2.6700000000000D+00  0.0000000000000D+00  0.0000000000000D+00
   269  2.6800000000000D+00  0.0000000000000D+00  0.0000000000000D+00
   270  2.6900000000000D+00  0.0000000000000D+00  0.0000000000000D+00
   271  2.7000000000000D+00  0.0000000000000D+00  0.0000000000000D+00
   272  2.7100000000000D+00  0.0000000000000D+00  0.0000000000000D+00
   273  2.7200000000000D+00  0.0000000000000D+00  0.0000000000000D+00
   274  2.7300000000000D+00  0.0000000000000D+00  0.0000000000000D+00
   275  2.7400000000000D+00  0.0000000000000D+00  0.0000000000000D+00
   276  2.7500000000000D+00  0.0000000000000D+00  0.0000000000000D+00
   277  2.7600000000000D+00  0.0000000000000D+00  0.0000000000000D+00
   278  2.7700000000000D+00  0.0000000000000D+00  0.0000000000000D+00
   279  2.7800000000000D+00  0.0000000000000D+00  0.0000000000000D+00
   280  2.7900000000000D+00  0.0000000000000D+00  0.0000000000000D+00
   281  2.8000000000000D+00  0.0000000000000D+00  0.0000000000000D+00
   282  2.8100000000000D+00  0.0000000000000D+00  0.0000000000000D+00
   283  2.8200000000000D+00  0.0000000000000D+00  0.0000000000000D+00
   284  2.8300000000000D+00  0.0000000000000D+00  0.0000000000000D+00
   285  2.8400000000000D+00  0.0000000000000D+00  0.0000000000000D+00
   286  2.8500000000000D+00  0.0000000000000D+00  0.0000000000000D+00
   287  2.8600000000000D+00  0.0000000000000D+00  0.0000000000000D+00
   288  2.8700000000000D+00  0.0000000000000D+00  0.0000000000000D+00
   289  2.8800000000000D+00  0.0000000000000D+00  0.0000000000000D+00
   290  2.8900000000000D+00  0.0000000000000D+00  0.0000000000000D+00
   291  2.9000000000000D+00  0.0000000000000D+00  0.0000000000000D+00
   292  2.9100000000000D+00  0.0000000000000D+00  0.0000000000000D+00
   293  2.9200000000000D+00  0.0000000000000D+00  0.0000000000000D+00
   294  2.9300000000000D+00  0.0000000000000D+00  0.0000000000000D+00
   295  2.9400000000000D+00  0.0000000000000D+00  0.0000000000000D+00
   296  2.9500000000000D+00  0.0000000000000D+00  0.0000000000000D+00
   297  2.9600000000000D+00  0.0000000000000D+00  0.0000000000000D+00
   298  2.9700000000000D+00  0.0000000000000D+00  0.0000000000000D+00
   299  2.9800000000000D+00  0.0000000000000D+00  0.0000000000000D+00
   300  2.9900000000000D+00  0.0000000000000D+00  0.0000000000000D+00
   301  3.0000000000000D+00  0.0000000000000D+00  0.0000000000000D+00
   302  3.0100000000000D+00  0.0000000000000D+00  0.0000000000000D+00
   303  3.0200000000000D+00  0.0000000000000D+00  0.0000000000000D+00
   304  3.0300000000000D+00  0.0000000000000D+00  0.0000000000000D+00
   305  3.0400000000000D+00  0.0000000000000D+00  0.0000000000000D+00
   306  3.0500000000000D+00  0.0000000000000D+00  0.0000000000000D+00
   307  3.0600000000000D+00  0.0000000000000D+00  0.0000000000000D+00
   308  3.0700000000000D+00  0.0000000000000D+00  0.0000000000000D+00
   309  3.0800000000000D+00  0.0000000000000D+00  0.0000000000000D+00
   310  3.0900000000000D+00  0.0000000000000D+00  0.0000000000000D+00
   311  3.1000000000000D+00  0.0000000000000D+00  0.0000000000000D+00
   312  3.1100000000000D+00  0.0000000000000D+00  0.0000000000000D+00
   313  3.1200000000000D+00  0.0000000000000D+00  0.0000000000000D+00
   314  3.1300000000000D+00  0.0000000000000D+00  0.0000000000000D+00
   315  3.1400000000000D+00  0.0000000000000D+00  0.0000000000000D+00
   316  3.1500000000000D+00  0.0000000000000D+00  0.0000000000000D+00
   317  3.1600000000000D+00  0.0000000000000D+00  0.0000000000000D+00
   318  3.1700000000000D+00  0.0000000000000D+00  0.0000000000000D+00
   319  3.1800000000000D+00  0.0000000000000D+00  0.0000000000000D+00
   320  3.1900000000000D+00  0.0000000000000D+00  0.0000000000000D+00
   321  3.2000000000000D+00  0.0000000000000D+00  0.0000000000000D+00
   322  3.2100000000000D+00  0.0000000000000D+00  0.0000000000000D+00
   323  3.2200000000000D+00  0.0000000000000D+00  0.0000000000000D+00
   324  3.2300000000000D+00  0.0000000000000D+00  0.0000000000000D+00
   325  3.2400000000000D+00  0.0000000000000D+00  0.0000000000000D+00
   326  3.2500000000000D+00  0.0000000000000D+00  0.0000000000000D+00
   327  3.2600000000000D+00  0.0000000000000D+00  0.0000000000000D+00
   328  3.2700000000000D+00  0.0000000000000D+00  0.0000000000000D+00
   329  3.2800000000000D+00  0.0000000000000D+00  0.0000000000000D+00
   330  3.2900000000000D+00  0.0000000000000D+00  0.0000000000000D+00
   331  3.3000000000000D+00  0.0000000000000D+00  0.0000000000000D+00
   332  3.3100000000000D+00  0.0000000000000D+00  0.0000000000000D+00
   333  3.3200000000000D+00  0.0000000000000D+00  0.0000000000000D+00
   334  3.3300000000000D+00  0.0000000000000D+00  0.0000000000000D+00
   335  3.3400000000000D+00  0.0000000000000D+00  0.0000000000000D+00
   336  3.3500000000000D+00  0.0000000000000D+00  0.0000000000000D+00
   337  3.3600000000000D+00  0.0000000000000D+00  0.0000000000000D+00
   338  3.3700000000000D+00  0.0000000000000D+00  0.0000000000000D+00
   339  3.3800000000000D+00  0.0000000000000D+00  0.0000000000000D+00
   340  3.3900000000000D+00  0.0000000000000D+00  0.0000000000000D+00
   341  3.4000000000000D+00  0.0000000000000D+00  0.0000000000000D+00
   342  3.4100000000000D+00  0.0000000000000D+00  0.0000000000000D+00
   343  3.4200000000000D+00  0.0000000000000D+00  0.0000000000000D+00
   344  3.4300000000000D+00  0.0000000000000D+00  0.0000000000000D+00
   345  3.4400000000000D+00  0.0000000000000D+00  0.0000000000000D+00
   346  3.4500000000000D+00  0.0000000000000D+00  0.0000000000000D+00
   347  3.4600000000000D+00  0.0000000000000D+00  0.0000000000000D+00
   348  3.4700000000000D+00  0.0000000000000D+00  0.0000000000000D+00
   349  3.4800000000000D+00  0.0000000000000D+00  0.0000000000000D+00
   350  3.4900000000000D+00  0.0000000000000D+00  0.0000000000000D+00
   351  3.5000000000000D+00  0.0000000000000D+00  0.0000000000000D+00
   352  3.5100000000000D+00  0.0000000000000D+00  0.0000000000000D+00
   353  3.5200000000000D+00  0.0000000000000D+00  0.0000000000000D+00
   354  3.5300000000000D+00  0.0000000000000D+00  0.0000000000000D+00
   355  3.5400000000000D+00  0.0000000000000D+00  0.0000000000000D+00
   356  3.5500000000000D+00  0.0000000000000D+00  0.0000000000000D+00
   357  3.5600000000000D+00  0.0000000000000D+00  0.0000000000000D+00
   358  3.5700000000000D+00  0.0000000000000D+00  0.0000000000000D+00
   359  3.5800000000000D+00  0.0000000000000D+00  0.0000000000000D+00
   360  3.5900000000000D+00  0.0000000000000D+00  0.0000000000000D+00
   361  3.6000000000000D+00  0.0000000000000D+00  0.0000000000000D+00
   362  3.6100000000000D+00  0.0000000000000D+00  0.0000000000000D+00
   363  3.6200000000000D+00  0.0000000000000D+00  0.0000000000000D+00
   364  3.6300000000000D+00  0.0000000000000D+00  0.0000000000000D+00
   365  3.6400000000000D+00  0.0000000000000D+00  0.0000000000000D+00
   366  3.6500000000000D+00  0.0000000000000D+00  0.0000000000000D+00
   367  3.6600000000000D+00  0.0000000000000D+00  0.0000000000000D+00
   368  3.6700000000000D+00  0.0000000000000D+00  0.0000000000000D+00
   369  3.6800000000000D+00  0.0000000000000D+00  0.0000000000000D+00
   370  3.6900000000000D+00  0.0000000000000D+00  0.0000000000000D+00
   371  3.7000000000000D+00  0.0000000000000D+00  0.0000000000000D+00
   372  3.7100000000000D+00  0.0000000000000D+00  0.0000000000000D+00
   373  3.7200000000000D+00  0.0000000000000D+00  0.0000000000000D+00
   374  3.7300000000000D+00  0.0000000000000D+00  0.0000000000000D+00
   375  3.7400000000000D+00  0.0000000000000D+00  0.0000000000000D+00
   376  3.7500000000000D+00  0.0000000000000D+00  0.0000000000000D+00
   377  3.7600000000000D+00  0.0000000000000D+00  0.0000000000000D+00
   378  3.7700000000000D+00  0.0000000000000D+00  0.0000000000000D+00
   379  3.7800000000000D+00  0.0000000000000D+00  0.0000000000000D+00
   380  3.7900000000000D+00  0.0000000000000D+00  0.0000000000000D+00
   381  3.8000000000000D+00  0.0000000000000D+00  0.0000000000000D+00
   382  3.8100000000000D+00  0.0000000000000D+00  0.0000000000000D+00
   383  3.8200000000000D+00  0.0000000000000D+00  0.0000000000000D+00
   384  3.8300000000000D+00  0.0000000000000D+00  0.0000000000000D+00
   385  3.8400000000000D+00  0.0000000000000D+00  0.0000000000000D+00
   386  3.8500000000000D+00  0.0000000000000D+00  0.0000000000000D+00
   387  3.8600000000000D+00  0.0000000000000D+00  0.0000000000000D+00
   388  3.8700000000000D+00  0.0000000000000D+00  0.0000000000000D+00
   389  3.8800000000000D+00  0.0000000000000D+00  0.0000000000000D+00
   390  3.8900000000000D+00  0.0000000000000D+00  0.0000000000000D+00
   391  3.9000000000000D+00  0.0000000000000D+00  0.0000000000000D+00
   392  3.9100000000000D+00  0.0000000000000D+00  0.0000000000000D+00
   393  3.9200000000000D+00  0.0000000000000D+00  0.0000000000000D+00
   394  3.9300000000000D+00  0.0000000000000D+00  0.0000000000000D+00
   395  3.9400000000000D+00  0.0000000000000D+00  0.0000000000000D+00
   396  3.9500000000000D+00  0.0000000000000D+00  0.0000000000000D+00
   397  3.9600000000000D+00  0.0000000000000D+00  0.0000000000000D+00
   398  3.9700000000000D+00  0.0000000000000D+00  0.0000000000000D+00
   399  3.9800000000000D+00  0.0000000000000D+00  0.0000000000000D+00
   400  3.9900000000000D+00  0.0000000000000D+00  0.0000000000000D+00
   401  4.0000000000000D+00  0.0000000000000D+00  0.0000000000000D+00
   402  4.0100000000000D+00  0.0000000000000D+00  0.0000000000000D+00
   403  4.0200000000000D+00  0.0000000000000D+00  0.0000000000000D+00
   404  4.0300000000000D+00  0.0000000000000D+00  0.0000000000000D+00
   405  4.0400000000000D+00  0.0000000000000D+00  0.0000000000000D+00
   406  4.0500000000000D+00  0.0000000000000D+00  0.0000000000000D+00
   407  4.0600000000000D+00  0.0000000000000D+00  0.0000000000000D+00
   408  4.0700000000000D+00  0.0000000000000D+00  0.0000000000000D+00
   409  4.0800000000000D+00  0.0000000000000D+00  0.0000000000000D+00
   410  4.0900000000000D+00  0.0000000000000D+00  0.0000000000000D+00
   411  4.1000000000000D+00  0.0000000000000D+00  0.0000000000000D+00
   412  4.1100000000000D+00  0.0000000000000D+00  0.0000000000000D+00
   413  4.1200000000000D+00  0.0000000000000D+00  0.0000000000000D+00
   414  4.1300000000000D+00  0.0000000000000D+00  0.0000000000000D+00
   415  4.1400000000000D+00  0.0000000000000D+00  0.0000000000000D+00
   416  4.1500000000000D+00  0.0000000000000D+00  0.0000000000000D+00
   417  4.1600000000000D+00  0.0000000000000D+00  0.0000000000000D+00
   418  4.1700000000000D+00  0.0000000000000D+00  0.0000000000000D+00
   419  4.1800000000000D+00  0.0000000000000D+00  0.0000000000000D+00
   420  4.1900000000000D+00  0.0000000000000D+00  0.0000000000000D+00
   421  4.2000000000000D+00  0.0000000000000D+00  0.0000000000000D+00
   422  4.2100000000000D+00  0.0000000000000D+00  0.0000000000000D+00