Ti    ONCVPSP-3.3.1  r_core=   2.46607   2.35117   2.29574
     22.0000     12.0000      210904    zatom,zion,pspd
     8       2   2     4   600     0    pspcod,pspxc,lmax,lloc,mmax,r2well
  5.99000000  0.00000000  0.00000000    rchrg fchrg qchrg
     2     2     2     0     0    nproj
     1     1           extension_switch
   0                         2.0455911955443D+00 -1.0612030790362D-01
     1  0.0000000000000D+00  3.7446712397582D-12 -2.3520019265533D-11
     2  1.0000000000000D-02  4.8177681917954D-02  3.3042131878068D-02
     3  2.0000000000000D-02  9.6297791145337D-02  6.5987790868293D-02
     4  3.0000000000000D-02  1.4430280410114D-01  9.8740886471910D-02
     5  4.0000000000000D-02  1.9213529553155D-01  1.3120609144479D-01
     6  5.0000000000000D-02  2.3973798794278D-01  1.6328921962189D-01
     7  6.0000000000000D-02  2.8705380135437D-01  1.9489759919482D-01
     8  7.0000000000000D-02  3.3402590347532D-01  2.2594043995460D-01
     9  8.0000000000000D-02  3.8059776040177D-01  2.5632919303495D-01
    10  9.0000000000000D-02  4.2671318793035D-01  2.8597790172107D-01
    11  1.0000000000000D-01  4.7231640357550D-01  3.1480354192332D-01
    12  1.1000000000000D-01  5.1735207937300D-01  3.4272635095601D-01
    13  1.2000000000000D-01  5.6176539554462D-01  3.6967014330677D-01
    14  1.3000000000000D-01  6.0550209509044D-01  3.9556261213332D-01
    15  1.4000000000000D-01  6.4850853936710D-01  4.2033561527998D-01
    16  1.5000000000000D-01  6.9073176470018D-01  4.4392544466727D-01
    17  1.6000000000000D-01  7.3211954006887D-01  4.6627307797292D-01
    18  1.7000000000000D-01  7.7262042589024D-01  4.8732441159254D-01
    19  1.8000000000000D-01  8.1218383391861D-01  5.0703047394169D-01
    20  1.9000000000000D-01  8.5076008826371D-01  5.2534761823872D-01
    21  2.0000000000000D-01  8.8830048751857D-01  5.4223769398871D-01
    22  2.1000000000000D-01  9.2475736797505D-01  5.5766819647329D-01
    23  2.2000000000000D-01  9.6008416789147D-01  5.7161239363802D-01
    24  2.3000000000000D-01  9.9423549276320D-01  5.8404942985920D-01
    25  2.4000000000000D-01  1.0271671815327D+00  5.9496440616352D-01
    26  2.5000000000000D-01  1.0588363736618D+00  6.0434843656840D-01
    27  2.6000000000000D-01  1.0892015769737D+00  6.1219868030588D-01
    28  2.7000000000000D-01  1.1182227361598D+00  6.1851834978983D-01
    29  2.8000000000000D-01  1.1458613018291D+00  6.2331669428360D-01
    30  2.9000000000000D-01  1.1720802999663D+00  6.2660895932310D-01
    31  3.0000000000000D-01  1.1968444016493D+00  6.2841632204819D-01
    32  3.1000000000000D-01  1.2201199928638D+00  6.2876580269261D-01
    33  3.2000000000000D-01  1.2418752442375D+00  6.2769015257999D-01
    34  3.3000000000000D-01  1.2620801805059D+00  6.2522771906821D-01
    35  3.4000000000000D-01  1.2807067495062D+00  6.2142228797963D-01
    36  3.5000000000000D-01  1.2977288904864D+00  6.1632290414590D-01
    37  3.6000000000000D-01  1.3131226015038D+00  6.0998367078674D-01
    38  3.7000000000000D-01  1.3268660056757D+00  6.0246352852872D-01
    39  3.8000000000000D-01  1.3389394160384D+00  5.9382601495486D-01
    40  3.9000000000000D-01  1.3493253987574D+00  5.8413900565620D-01
    41  4.0000000000000D-01  1.3580088344269D+00  5.7347443783401D-01
    42  4.1000000000000D-01  1.3649769771884D+00  5.6190801757360D-01
    43  4.2000000000000D-01  1.3702195113924D+00  5.4951891198027D-01
    44  4.3000000000000D-01  1.3737286055227D+00  5.3638942743077D-01
    45  4.4000000000000D-01  1.3754989630984D+00  5.2260467525326D-01
    46  4.5000000000000D-01  1.3755278702678D+00  5.0825222620173D-01
    47  4.6000000000000D-01  1.3738152398067D+00  4.9342175513936D-01
    48  4.7000000000000D-01  1.3703636512337D+00  4.7820467738707D-01
    49  4.8000000000000D-01  1.3651783867576D+00  4.6269377823018D-01
    50  4.9000000000000D-01  1.3582674627746D+00  4.4698283710586D-01
    51  5.0000000000000D-01  1.3496416566396D+00  4.3116624801779D-01
    52  5.1000000000000D-01  1.3393145284385D+00  4.1533863774201D-01
    53  5.2000000000000D-01  1.3273024375005D+00  3.9959448339806D-01
    54  5.3000000000000D-01  1.3136245533965D+00  3.8402773096418D-01
    55  5.4000000000000D-01  1.2983028611790D+00  3.6873141631161D-01
    56  5.5000000000000D-01  1.2813621606362D+00  3.5379729032460D-01
    57  5.6000000000000D-01  1.2628300593407D+00  3.3931544965555D-01
    58  5.7000000000000D-01  1.2427369592950D+00  3.2537397464224D-01
    59  5.8000000000000D-01  1.2211160369860D+00  3.1205857588381D-01
    60  5.9000000000000D-01  1.1980032166867D+00  2.9945225093704D-01
    61  6.0000000000000D-01  1.1734371368560D+00  2.8763495254994D-01
    62  6.1000000000000D-01  1.1474591095130D+00  2.7668326980265D-01
    63  6.2000000000000D-01  1.1201130724825D+00  2.6667012346896D-01
    64  6.3000000000000D-01  1.0914455344337D+00  2.5766447685147D-01
    65  6.4000000000000D-01  1.0615055126556D+00  2.4973106327662D-01
    66  6.5000000000000D-01  1.0303444635424D+00  2.4293013136343D-01
    67  6.6000000000000D-01  9.9801620578488D-01  2.3731720910301D-01
    68  6.7000000000000D-01  9.6457683629405D-01  2.3294288770361D-01
    69  6.8000000000000D-01  9.3008463891053D-01  2.2985262606974D-01
    70  6.9000000000000D-01  8.9459998598125D-01  2.2808657669349D-01
    71  7.0000000000000D-01  8.5818523291566D-01  2.2767943364178D-01
    72  7.1000000000000D-01  8.2090460586246D-01  2.2866030322665D-01
    73  7.2000000000000D-01  7.8282408267820D-01  2.3105259784477D-01
    74  7.3000000000000D-01  7.4401126738894D-01  2.3487395337044D-01
    75  7.4000000000000D-01  7.0453525837628D-01  2.4013617038165D-01
    76  7.5000000000000D-01  6.6446651054878D-01  2.4684517939323D-01
    77  7.6000000000000D-01  6.2387669178947D-01  2.5500103016472D-01
    78  7.7000000000000D-01  5.8283853399894D-01  2.6459790504272D-01
    79  7.8000000000000D-01  5.4142567908214D-01  2.7562415619150D-01
    80  7.9000000000000D-01  4.9971252025445D-01  2.8806236645863D-01
    81  8.0000000000000D-01  4.5777403906936D-01  3.0188943351730D-01
    82  8.1000000000000D-01  4.1568563859581D-01  3.1707667682381D-01
    83  8.2000000000000D-01  3.7352297319744D-01  3.3358996682669D-01
    84  8.3000000000000D-01  3.3136177538926D-01  3.5138987576556D-01
    85  8.4000000000000D-01  2.8927768026866D-01  3.7043184930177D-01
    86  8.5000000000000D-01  2.4734604803765D-01  3.9066639813137D-01
    87  8.6000000000000D-01  2.0564178515129D-01  4.1203930864235D-01
    88  8.7000000000000D-01  1.6423916464351D-01  4.3449187159501D-01
    89  8.8000000000000D-01  1.2321164619593D-01  4.5796112772581D-01
    90  8.9000000000000D-01  8.2631696527071D-02  4.8238012910185D-01
    91  9.0000000000000D-01  4.2570610689533D-02  5.0767821498557D-01
    92  9.1000000000000D-01  3.0983348701800D-03  5.3378130090842D-01
    93  9.2000000000000D-01 -3.5716708706453D-02  5.6061217959690D-01
    94  9.3000000000000D-01 -7.3807794168549D-02  5.8809083234650D-01
    95  9.4000000000000D-01 -1.1111006107800D-01  6.1613474939806D-01
    96  9.5000000000000D-01 -1.4756067960121D-01  6.4465925783689D-01
    97  9.6000000000000D-01 -1.8309901117376D-01  6.7357785550848D-01
    98  9.7000000000000D-01 -2.1766676407090D-01  7.0280254942635D-01
    99  9.8000000000000D-01 -2.5120814330551D-01  7.3224419713552D-01
   100  9.9000000000000D-01 -2.8366999428851D-01  7.6181284949226D-01
   101  1.0000000000000D+00 -3.1500193970203D-01  7.9141809332509D-01
   102  1.0100000000000D+00 -3.4515650905350D-01  8.2096939245413D-01
   103  1.0200000000000D+00 -3.7408926039973D-01  8.5037642556618D-01
   104  1.0300000000000D+00 -4.0175889375271D-01  8.7954941946997D-01
   105  1.0400000000000D+00 -4.2812735570541D-01  9.0839947629401D-01
   106  1.0500000000000D+00 -4.5315993484124D-01  9.3683889322680D-01
   107  1.0600000000000D+00 -4.7682534752375D-01  9.6478147345548D-01
   108  1.0700000000000D+00 -4.9909581369348D-01  9.9214282701199D-01
   109  1.0800000000000D+00 -5.1994712233282D-01  1.0188406602999D+00
   110  1.0900000000000D+00 -5.3935868629884D-01  1.0447950531510D+00
   111  1.1000000000000D+00 -5.5731358625449D-01  1.0699287223230D+00
   112  1.1100000000000D+00 -5.7379860347641D-01  1.0941672704479D+00
   113  1.1200000000000D+00 -5.8880424135206D-01  1.1174394195165D+00
   114  1.1300000000000D+00 -6.0232473542522D-01  1.1396772280866D+00
   115  1.1400000000000D+00 -6.1435805188526D-01  1.1608162914829D+00
   116  1.1500000000000D+00 -6.2490587444502D-01  1.1807959243704D+00
   117  1.1600000000000D+00 -6.3397357959397D-01  1.1995593251829D+00
   118  1.1700000000000D+00 -6.4157020026225D-01  1.2170537220021D+00
   119  1.1800000000000D+00 -6.4770837796289D-01  1.2332304995620D+00
   120  1.1900000000000D+00 -6.5240430354012D-01  1.2480453072004D+00
   121  1.2000000000000D+00 -6.5567764668895D-01  1.2614581476734D+00
   122  1.2100000000000D+00 -6.5755147445609D-01  1.2734334468625D+00
   123  1.2200000000000D+00 -6.5805215896774D-01  1.2839401044944D+00
   124  1.2300000000000D+00 -6.5720927468824D-01  1.2929515261454D+00
   125  1.2400000000000D+00 -6.5505548555059D-01  1.3004456369029D+00
   126  1.2500000000000D+00 -6.5162642231705D-01  1.3064048770988D+00
   127  1.2600000000000D+00 -6.4696055060319D-01  1.3108161807354D+00
   128  1.2700000000000D+00 -6.4109903001823D-01  1.3136709372809D+00
   129  1.2800000000000D+00 -6.3408556489170D-01  1.3149649375568D+00
   130  1.2900000000000D+00 -6.2596624712281D-01  1.3146983046273D+00
   131  1.3000000000000D+00 -6.1678939170580D-01  1.3128754106582D+00
   132  1.3100000000000D+00 -6.0660536549109D-01  1.3095047807248D+00
   133  1.3200000000000D+00 -5.9546640980688D-01  1.3045989847464D+00
   134  1.3300000000000D+00 -5.8342645756525D-01  1.2981745187330D+00
   135  1.3400000000000D+00 -5.7054094548739D-01  1.2902516765529D+00
   136  1.3500000000000D+00 -5.5686662213261D-01  1.2808544136053D+00
   137  1.3600000000000D+00 -5.4246135239753D-01  1.2700102037274D+00
   138  1.3700000000000D+00 -5.2738391917905D-01  1.2577498907498D+00
   139  1.3800000000000D+00 -5.1169382290373D-01  1.2441075361829D+00
   140  1.3900000000000D+00 -4.9545107961980D-01  1.2291202644762D+00
   141  1.4000000000000D+00 -4.7871601836581D-01  1.2128281073875D+00
   142  1.4100000000000D+00 -4.6154907850504D-01  1.1952738489511D+00
   143  1.4200000000000D+00 -4.4401060774386D-01  1.1765028725897D+00
   144  1.4300000000000D+00 -4.2616066150009D-01  1.1565630118636D+00
   145  1.4400000000000D+00 -4.0805880431856D-01  1.1355044063793D+00
   146  1.4500000000000D+00 -3.8976391399524D-01  1.1133793643529D+00
   147  1.4600000000000D+00 -3.7133398903055D-01  1.0902422332295D+00
   148  1.4700000000000D+00 -3.5282596009646D-01  1.0661492798993D+00
   149  1.4800000000000D+00 -3.3429550603124D-01  1.0411585817146D+00
   150  1.4900000000000D+00 -3.1579687503989D-01  1.0153299298383D+00
   151  1.5000000000000D+00 -2.9738271155662D-01  9.8872474601362D-01
   152  1.5100000000000D+00 -2.7910388934013D-01  9.6140601406557D-01
   153  1.5200000000000D+00 -2.6100935128374D-01  9.3343822727693D-01
   154  1.5300000000000D+00 -2.4314595632345D-01  9.0488735254390D-01
   155  1.5400000000000D+00 -2.2555833398956D-01  8.7582081259785D-01
   156  1.5500000000000D+00 -2.0828874676270D-01  8.4630748669379D-01
   157  1.5600000000000D+00 -1.9137696083515D-01  8.1641773118581D-01
   158  1.5700000000000D+00 -1.7486012526359D-01  7.8622341997858D-01
   159  1.5800000000000D+00 -1.5877266005546D-01  7.5579800614771D-01
   160  1.5900000000000D+00 -1.4314615248311D-01  7.2521661222380D-01
   161  1.6000000000000D+00 -1.2800926555744D-01  6.9455610767346D-01
   162  1.6100000000000D+00 -1.1338764623449D-01  6.6389531643657D-01
   163  1.6200000000000D+00 -9.9303869055287D-02  6.3331495813862D-01
   164  1.6300000000000D+00 -8.5777373629123D-02  6.0289775605827D-01
   165  1.6400000000000D+00 -7.2824302301001D-02  5.7272989709081D-01
   166  1.6500000000000D+00 -6.0457596852991D-02  5.4289955178365D-01
   167  1.6600000000000D+00 -4.8687247584112D-02  5.1349359201892D-01
   168  1.6700000000000D+00 -3.7520518029629D-02  4.8459520758537D-01
   169  1.6800000000000D+00 -2.6962296657833D-02  4.5628039594328D-01
   170  1.6900000000000D+00 -1.7015217820489D-02  4.2861733212079D-01
   171  1.7000000000000D+00 -7.6796496821593D-03  4.0166759607598D-01
   172  1.7100000000000D+00  1.0462074170845D-03  3.7548607991237D-01
   173  1.7200000000000D+00  9.1662267398692D-03  3.5012101089609D-01
   174  1.7300000000000D+00  1.6686269335929D-02  3.2561418372133D-01
   175  1.7400000000000D+00  2.3614086258955D-02  3.0200111158389D-01
   176  1.7500000000000D+00  2.9959219555210D-02  2.7931123189816D-01
   177  1.7600000000000D+00  3.5732898751533D-02  2.5756811792065D-01
   178  1.7700000000000D+00  4.0947933991609D-02  2.3678970415341D-01
   179  1.7800000000000D+00  4.5618606257509D-02  2.1698852440116D-01
   180  1.7900000000000D+00  4.9760555190267D-02  1.9817196110832D-01
   181  1.8000000000000D+00  5.3390664930593D-02  1.8034250493975D-01
   182  1.8100000000000D+00  5.6526948519123D-02  1.6349802304090D-01
   183  1.8200000000000D+00  5.9188431302682D-02  1.4763203494540D-01
   184  1.8300000000000D+00  6.1395033834148D-02  1.3273399456478D-01
   185  1.8400000000000D+00  6.3167454812059D-02  1.1878957704741D-01
   186  1.8500000000000D+00  6.4527054394168D-02  1.0578096921749D-01
   187  1.8600000000000D+00  6.5495738594690D-02  9.3687161993677D-02
   188  1.8700000000000D+00  6.6095844925739D-02  8.2484243925956D-02
   189  1.8800000000000D+00  6.6350030069457D-02  7.2145693950596D-02
   190  1.8900000000000D+00  6.6281159707917D-02  6.2642672704284D-02
   191  1.9000000000000D+00  6.5912201176940D-02  5.3944310629572D-02
   192  1.9100000000000D+00  6.5266119243014D-02  4.6017991911685D-02
   193  1.9200000000000D+00  6.4365775302006D-02  3.8829633263250D-02
   194  1.9300000000000D+00  6.3233830722148D-02  3.2343955619423D-02
   195  1.9400000000000D+00  6.1892654009728D-02  2.6524749251129D-02
   196  1.9500000000000D+00  6.0364233054192D-02  2.1335129023033D-02
   197  1.9600000000000D+00  5.8670091698759D-02  1.6737781418791D-02
   198  1.9700000000000D+00  5.6831211847867D-02  1.2695200103953D-02
   199  1.9800000000000D+00  5.4867960700838D-02  9.1699108539755D-03
   200  1.9900000000000D+00  5.2800023528278D-02  6.1246845797738D-03
   201  2.0000000000000D+00  5.0646342519687D-02  3.5227368982912D-03
   202  2.0100000000000D+00  4.8425060901602D-02  1.3279161263546D-03
   203  2.0200000000000D+00  4.6153473860724D-02 -4.9512449855242D-04
   204  2.0300000000000D+00  4.3847984831213D-02 -1.9807667776824D-03
   205  2.0400000000000D+00  4.1524068408008D-02 -3.1622832153669D-03
   206  2.0500000000000D+00  3.9196239338818D-02 -4.0717071205501D-03
   207  2.0600000000000D+00  3.6878027360293D-02 -4.7397167070416D-03
   208  2.0700000000000D+00  3.4581958817204D-02 -5.1955359093987D-03
   209  2.0800000000000D+00  3.2319543526979D-02 -5.4668479399105D-03
   210  2.0900000000000D+00  3.0101268295902D-02 -5.5797256091667D-03
   211  2.1000000000000D+00  2.7936595906399D-02 -5.5585753699143D-03
   212  2.1100000000000D+00  2.5833969637021D-02 -5.4260954478315D-03
   213  2.1200000000000D+00  2.3800823791343D-02 -5.2032495808571D-03
   214  2.1300000000000D+00  2.1843598745411D-02 -4.9092524050693D-03
   215  2.1400000000000D+00  1.9967761679001D-02 -4.5615699750932D-03
   216  2.1500000000000D+00  1.8177831752105D-02 -4.1759321215130D-03
   217  2.1600000000000D+00  1.6477409617252D-02 -3.7663565457277D-03
   218  2.1700000000000D+00  1.4869211572789D-02 -3.3451857719882D-03
   219  2.1800000000000D+00  1.3355107029009D-02 -2.9231332975537D-03
   220  2.1900000000000D+00  1.1936159860979D-02 -2.5093409130192D-03
   221  2.2000000000000D+00  1.0612672854605D-02 -2.1114450673033D-03
   222  2.2100000000000D+00  9.3842347387619D-03 -1.7356509700449D-03
   223  2.2200000000000D+00  8.2497699571521D-03 -1.3868153182341D-03
   224  2.2300000000000D+00  7.2075902657929D-03 -1.0685349197353D-03
   225  2.2400000000000D+00  6.2554480372212D-03 -7.8324130234534D-04
   226  2.2500000000000D+00  5.3905908356637D-03 -5.3230028169206D-04
   227  2.2600000000000D+00  4.6098169221190D-03 -3.1611536036379D-04
   228  2.2700000000000D+00  3.9095310937994D-03 -1.3423397615963D-04
   229  2.2800000000000D+00  3.2858006770595D-03  1.4544147773626D-05
   230  2.2900000000000D+00  2.7344114166006D-03  1.3205717065035D-04
   231  2.3000000000000D+00  2.2509222369737D-03  2.2067202270424D-04
   232  2.3100000000000D+00  1.8307194233582D-03  2.8317503912077D-04
   233  2.3200000000000D+00  1.4690692794918D-03  3.2266444245952D-04
   234  2.3300000000000D+00  1.1611686385049D-03  3.4244616417684D-04
   235  2.3400000000000D+00  9.0219410498333D-04  3.4593106798097D-04
   236  2.3500000000000D+00  6.8734824002366D-04  3.3653775024420D-04
   237  2.3600000000000D+00  5.1190298747276D-04  3.1760028474161D-04
   238  2.3700000000000D+00  3.7124123347071D-04  2.9227882313060D-04
   239  2.3800000000000D+00  2.6089354517392D-04  2.6349268827600D-04
   240  2.3900000000000D+00  1.7657027299505D-04  2.3396622554870D-04
   241  2.4000000000000D+00  1.1420328719626D-04  2.0553430937494D-04
   242  2.4100000000000D+00  6.9946978141100D-05  1.7951329047694D-04
   243  2.4200000000000D+00  4.0207482938529D-05  1.5670334139089D-04
   244  2.4300000000000D+00  2.1772200738808D-05  1.4072260838813D-04
   245  2.4400000000000D+00  1.1751358556419D-05  1.3391561714055D-04
   246  2.4500000000000D+00  7.4228099792332D-06  1.3426793886206D-04
   247  2.4600000000000D+00  5.8854476700002D-06  1.2863599231834D-04
   248  2.4700000000000D+00  4.7875801589142D-06  1.0535225771271D-04
   249  2.4800000000000D+00  2.9723664155124D-06  6.3329630613414D-05
   250  2.4900000000000D+00  9.8765136664295D-07  2.0063242073752D-05
   251  2.5000000000000D+00 -3.1752361276311D-07 -7.2893381198256D-06
   252  2.5100000000000D+00 -5.3797660184320D-07 -1.2233451316880D-05
   253  2.5200000000000D+00 -2.5076493254954D-07 -5.6412509753546D-06
   254  2.5300000000000D+00  5.5025139475929D-08  1.4603057381048D-06
   255  2.5400000000000D+00  1.0413821599717D-07  2.7926754995592D-06
   256  2.5500000000000D+00  5.4091124677044D-08  1.4633211601313D-06
   257  2.5600000000000D+00 -7.0721085285060D-09 -1.5563729096623D-07
   258  2.5700000000000D+00 -1.5278578571074D-08 -3.3623870010364D-07
   259  2.5800000000000D+00 -9.0579013788769D-09 -1.9933902693452D-07
   260  2.5900000000000D+00  0.0000000000000D+00  0.0000000000000D+00
   261  2.6000000000000D+00  0.0000000000000D+00  0.0000000000000D+00
   262  2.6100000000000D+00  0.0000000000000D+00  0.0000000000000D+00
   263  2.6200000000000D+00  0.0000000000000D+00  0.0000000000000D+00
   264  2.6300000000000D+00  0.0000000000000D+00  0.0000000000000D+00
   265  2.6400000000000D+00  0.0000000000000D+00  0.0000000000000D+00
   266  2.6500000000000D+00  0.0000000000000D+00  0.0000000000000D+00
   267  2.6600000000000D+00  0.0000000000000D+00  0.0000000000000D+00
   268  2.6700000000000D+00  0.0000000000000D+00  0.0000000000000D+00
   269  2.6800000000000D+00  0.0000000000000D+00  0.0000000000000D+00
   270  2.6900000000000D+00  0.0000000000000D+00  0.0000000000000D+00
   271  2.7000000000000D+00  0.0000000000000D+00  0.0000000000000D+00
   272  2.7100000000000D+00  0.0000000000000D+00  0.0000000000000D+00
   273  2.7200000000000D+00  0.0000000000000D+00  0.0000000000000D+00
   274  2.7300000000000D+00  0.0000000000000D+00  0.0000000000000D+00
   275  2.7400000000000D+00  0.0000000000000D+00  0.0000000000000D+00
   276  2.7500000000000D+00  0.0000000000000D+00  0.0000000000000D+00
   277  2.7600000000000D+00  0.0000000000000D+00  0.0000000000000D+00
   278  2.7700000000000D+00  0.0000000000000D+00  0.0000000000000D+00
   279  2.7800000000000D+00  0.0000000000000D+00  0.0000000000000D+00
   280  2.7900000000000D+00  0.0000000000000D+00  0.0000000000000D+00
   281  2.8000000000000D+00  0.0000000000000D+00  0.0000000000000D+00
   282  2.8100000000000D+00  0.0000000000000D+00  0.0000000000000D+00
   283  2.8200000000000D+00  0.0000000000000D+00  0.0000000000000D+00
   284  2.8300000000000D+00  0.0000000000000D+00  0.0000000000000D+00
   285  2.8400000000000D+00  0.0000000000000D+00  0.0000000000000D+00
   286  2.8500000000000D+00  0.0000000000000D+00  0.0000000000000D+00
   287  2.8600000000000D+00  0.0000000000000D+00  0.0000000000000D+00
   288  2.8700000000000D+00  0.0000000000000D+00  0.0000000000000D+00
   289  2.8800000000000D+00  0.0000000000000D+00  0.0000000000000D+00
   290  2.8900000000000D+00  0.0000000000000D+00  0.0000000000000D+00
   291  2.9000000000000D+00  0.0000000000000D+00  0.0000000000000D+00
   292  2.9100000000000D+00  0.0000000000000D+00  0.0000000000000D+00
   293  2.9200000000000D+00  0.0000000000000D+00  0.0000000000000D+00
   294  2.9300000000000D+00  0.0000000000000D+00  0.0000000000000D+00
   295  2.9400000000000D+00  0.0000000000000D+00  0.0000000000000D+00
   296  2.9500000000000D+00  0.0000000000000D+00  0.0000000000000D+00
   297  2.9600000000000D+00  0.0000000000000D+00  0.0000000000000D+00
   298  2.9700000000000D+00  0.0000000000000D+00  0.0000000000000D+00
   299  2.9800000000000D+00  0.0000000000000D+00  0.0000000000000D+00
   300  2.9900000000000D+00  0.0000000000000D+00  0.0000000000000D+00
   301  3.0000000000000D+00  0.0000000000000D+00  0.0000000000000D+00
   302  3.0100000000000D+00  0.0000000000000D+00  0.0000000000000D+00
   303  3.0200000000000D+00  0.0000000000000D+00  0.0000000000000D+00
   304  3.0300000000000D+00  0.0000000000000D+00  0.0000000000000D+00
   305  3.0400000000000D+00  0.0000000000000D+00  0.0000000000000D+00
   306  3.0500000000000D+00  0.0000000000000D+00  0.0000000000000D+00
   307  3.0600000000000D+00  0.0000000000000D+00  0.0000000000000D+00
   308  3.0700000000000D+00  0.0000000000000D+00  0.0000000000000D+00
   309  3.0800000000000D+00  0.0000000000000D+00  0.0000000000000D+00
   310  3.0900000000000D+00  0.0000000000000D+00  0.0000000000000D+00
   311  3.1000000000000D+00  0.0000000000000D+00  0.0000000000000D+00
   312  3.1100000000000D+00  0.0000000000000D+00  0.0000000000000D+00
   313  3.1200000000000D+00  0.0000000000000D+00  0.0000000000000D+00
   314  3.1300000000000D+00  0.0000000000000D+00  0.0000000000000D+00
   315  3.1400000000000D+00  0.0000000000000D+00  0.0000000000000D+00
   316  3.1500000000000D+00  0.0000000000000D+00  0.0000000000000D+00
   317  3.1600000000000D+00  0.0000000000000D+00  0.0000000000000D+00
   318  3.1700000000000D+00  0.0000000000000D+00  0.0000000000000D+00
   319  3.1800000000000D+00  0.0000000000000D+00  0.0000000000000D+00
   320  3.1900000000000D+00  0.0000000000000D+00  0.0000000000000D+00
   321  3.2000000000000D+00  0.0000000000000D+00  0.0000000000000D+00
   322  3.2100000000000D+00  0.0000000000000D+00  0.0000000000000D+00
   323  3.2200000000000D+00  0.0000000000000D+00  0.0000000000000D+00
   324  3.2300000000000D+00  0.0000000000000D+00  0.0000000000000D+00
   325  3.2400000000000D+00  0.0000000000000D+00  0.0000000000000D+00
   326  3.2500000000000D+00  0.0000000000000D+00  0.0000000000000D+00
   327  3.2600000000000D+00  0.0000000000000D+00  0.0000000000000D+00
   328  3.2700000000000D+00  0.0000000000000D+00  0.0000000000000D+00
   329  3.2800000000000D+00  0.0000000000000D+00  0.0000000000000D+00
   330  3.2900000000000D+00  0.0000000000000D+00  0.0000000000000D+00
   331  3.3000000000000D+00  0.0000000000000D+00  0.0000000000000D+00
   332  3.3100000000000D+00  0.0000000000000D+00  0.0000000000000D+00
   333  3.3200000000000D+00  0.0000000000000D+00  0.0000000000000D+00
   334  3.3300000000000D+00  0.0000000000000D+00  0.0000000000000D+00
   335  3.3400000000000D+00  0.0000000000000D+00  0.0000000000000D+00
   336  3.3500000000000D+00  0.0000000000000D+00  0.0000000000000D+00
   337  3.3600000000000D+00  0.0000000000000D+00  0.0000000000000D+00
   338  3.3700000000000D+00  0.0000000000000D+00  0.0000000000000D+00
   339  3.3800000000000D+00  0.0000000000000D+00  0.0000000000000D+00
   340  3.3900000000000D+00  0.0000000000000D+00  0.0000000000000D+00
   341  3.4000000000000D+00  0.0000000000000D+00  0.0000000000000D+00
   342  3.4100000000000D+00  0.0000000000000D+00  0.0000000000000D+00
   343  3.4200000000000D+00  0.0000000000000D+00  0.0000000000000D+00
   344  3.4300000000000D+00  0.0000000000000D+00  0.0000000000000D+00
   345  3.4400000000000D+00  0.0000000000000D+00  0.0000000000000D+00
   346  3.4500000000000D+00  0.0000000000000D+00  0.0000000000000D+00
   347  3.4600000000000D+00  0.0000000000000D+00  0.0000000000000D+00
   348  3.4700000000000D+00  0.0000000000000D+00  0.0000000000000D+00
   349  3.4800000000000D+00  0.0000000000000D+00  0.0000000000000D+00
   350  3.4900000000000D+00  0.0000000000000D+00  0.0000000000000D+00
   351  3.5000000000000D+00  0.0000000000000D+00  0.0000000000000D+00
   352  3.5100000000000D+00  0.0000000000000D+00  0.0000000000000D+00
   353  3.5200000000000D+00  0.0000000000000D+00  0.0000000000000D+00
   354  3.5300000000000D+00  0.0000000000000D+00  0.0000000000000D+00
   355  3.5400000000000D+00  0.0000000000000D+00  0.0000000000000D+00
   356  3.5500000000000D+00  0.0000000000000D+00  0.0000000000000D+00
   357  3.5600000000000D+00  0.0000000000000D+00  0.0000000000000D+00
   358  3.5700000000000D+00  0.0000000000000D+00  0.0000000000000D+00
   359  3.5800000000000D+00  0.0000000000000D+00  0.0000000000000D+00
   360  3.5900000000000D+00  0.0000000000000D+00  0.0000000000000D+00
   361  3.6000000000000D+00  0.0000000000000D+00  0.0000000000000D+00
   362  3.6100000000000D+00  0.0000000000000D+00  0.0000000000000D+00
   363  3.6200000000000D+00  0.0000000000000D+00  0.0000000000000D+00
   364  3.6300000000000D+00  0.0000000000000D+00  0.0000000000000D+00
   365  3.6400000000000D+00  0.0000000000000D+00  0.0000000000000D+00
   366  3.6500000000000D+00  0.0000000000000D+00  0.0000000000000D+00
   367  3.6600000000000D+00  0.0000000000000D+00  0.0000000000000D+00
   368  3.6700000000000D+00  0.0000000000000D+00  0.0000000000000D+00
   369  3.6800000000000D+00  0.0000000000000D+00  0.0000000000000D+00
   370  3.6900000000000D+00  0.0000000000000D+00  0.0000000000000D+00
   371  3.7000000000000D+00  0.0000000000000D+00  0.0000000000000D+00
   372  3.7100000000000D+00  0.0000000000000D+00  0.0000000000000D+00
   373  3.7200000000000D+00  0.0000000000000D+00  0.0000000000000D+00
   374  3.7300000000000D+00  0.0000000000000D+00  0.0000000000000D+00
   375  3.7400000000000D+00  0.0000000000000D+00  0.0000000000000D+00
   376  3.7500000000000D+00  0.0000000000000D+00  0.0000000000000D+00
   377  3.7600000000000D+00  0.0000000000000D+00  0.0000000000000D+00
   378  3.7700000000000D+00  0.0000000000000D+00  0.0000000000000D+00
   379  3.7800000000000D+00  0.0000000000000D+00  0.0000000000000D+00
   380  3.7900000000000D+00  0.0000000000000D+00  0.0000000000000D+00
   381  3.8000000000000D+00  0.0000000000000D+00  0.0000000000000D+00
   382  3.8100000000000D+00  0.0000000000000D+00  0.0000000000000D+00
   383  3.8200000000000D+00  0.0000000000000D+00  0.0000000000000D+00
   384  3.8300000000000D+00  0.0000000000000D+00  0.0000000000000D+00
   385  3.8400000000000D+00  0.0000000000000D+00  0.0000000000000D+00
   386  3.8500000000000D+00  0.0000000000000D+00  0.0000000000000D+00
   387  3.8600000000000D+00  0.0000000000000D+00  0.0000000000000D+00
   388  3.8700000000000D+00  0.0000000000000D+00  0.0000000000000D+00
   389  3.8800000000000D+00  0.0000000000000D+00  0.0000000000000D+00
   390  3.8900000000000D+00  0.0000000000000D+00  0.0000000000000D+00
   391  3.9000000000000D+00  0.0000000000000D+00  0.0000000000000D+00
   392  3.9100000000000D+00  0.0000000000000D+00  0.0000000000000D+00
   393  3.9200000000000D+00  0.0000000000000D+00  0.0000000000000D+00
   394  3.9300000000000D+00  0.0000000000000D+00  0.0000000000000D+00
   395  3.9400000000000D+00  0.0000000000000D+00  0.0000000000000D+00
   396  3.9500000000000D+00  0.0000000000000D+00  0.0000000000000D+00
   397  3.9600000000000D+00  0.0000000000000D+00  0.0000000000000D+00
   398  3.9700000000000D+00  0.0000000000000D+00  0.0000000000000D+00
   399  3.9800000000000D+00  0.0000000000000D+00  0.0000000000000D+00
   400  3.9900000000000D+00  0.0000000000000D+00  0.0000000000000D+00
   401  4.0000000000000D+00  0.0000000000000D+00  0.0000000000000D+00
   402  4.0100000000000D+00  0.0000000000000D+00  0.0000000000000D+00
   403  4.0200000000000D+00  0.0000000000000D+00  0.0000000000000D+00
   404  4.0300000000000D+00  0.0000000000000D+00  0.0000000000000D+00
   405  4.0400000000000D+00  0.0000000000000D+00  0.0000000000000D+00
   406  4.0500000000000D+00  0.0000000000000D+00  0.0000000000000D+00
   407  4.0600000000000D+00  0.0000000000000D+00  0.0000000000000D+00
   408  4.0700000000000D+00  0.0000000000000D+00  0.0000000000000D+00
   409  4.0800000000000D+00  0.0000000000000D+00  0.0000000000000D+00
   410  4.0900000000000D+00  0.0000000000000D+00  0.0000000000000D+00
   411  4.1000000000000D+00  0.0000000000000D+00  0.0000000000000D+00
   412  4.1100000000000D+00  0.0000000000000D+00  0.0000000000000D+00
   413  4.1200000000000D+00  0.0000000000000D+00  0.0000000000000D+00
   414  4.1300000000000D+00  0.0000000000000D+00  0.0000000000000D+00
   415  4.1400000000000D+00  0.0000000000000D+00  0.0000000000000D+00
   416  4.1500000000000D+00  0.0000000000000D+00  0.0000000000000D+00
   417  4.1600000000000D+00  0.0000000000000D+00  0.0000000000000D+00
   418  4.1700000000000D+00  0.0000000000000D+00  0.0000000000000D+00
   419  4.1800000000000D+00  0.0000000000000D+00  0.0000000000000D+00
   420  4.1900000000000D+00  0.0000000000000D+00  0.0000000000000D+00
   421  4.2000000000000D+00  0.0000000000000D+00  0.0000000000000D+00
   422  4.2100000000000D+00  0.0000000000000D+00  0.0000000000000D+00