Tl    ONCVPSP-3.3.1  r_core=   3.35206   3.68771   3.15798   3.35206
     81.0000     13.0000      210904    zatom,zion,pspd
     8       2   3     4   600     0    pspcod,pspxc,lmax,lloc,mmax,r2well
  5.99000000  0.00000000  0.00000000    rchrg fchrg qchrg
     2     2     2     2     0    nproj
     1     1           extension_switch
   0                         2.9691336700774D+00  2.9055581663805D-01
     1  0.0000000000000D+00  5.9269256169614D-13 -2.6793012253279D-12
     2  1.0000000000000D-02  1.3157266767990D-02  3.6008555872816D-02
     3  2.0000000000000D-02  2.6321938851744D-02  7.1946848423807D-02
     4  3.0000000000000D-02  3.9501392371717D-02  1.0774476252319D-01
     5  4.0000000000000D-02  5.2702945126594D-02  1.4333247910957D-01
     6  5.0000000000000D-02  6.5933827604373D-02  1.7864062243553D-01
     7  6.0000000000000D-02  7.9201154199397D-02  2.1360040636882D-01
     8  7.0000000000000D-02  9.2511894703288D-02  2.4814377943741D-01
     9  8.0000000000000D-02  1.0587284613712D-01  2.8220356830948D-01
    10  9.0000000000000D-02  1.1929060499151D-01  3.1571361940261D-01
    11  1.0000000000000D-01  1.3277153994022D-01  3.4860893832054D-01
    12  1.1000000000000D-01  1.4632176509218D-01  3.8082582682042D-01
    13  1.2000000000000D-01  1.5994711384527D-01  4.1230201701880D-01
    14  1.3000000000000D-01  1.7365311340417D-01  4.4297680255043D-01
    15  1.4000000000000D-01  1.8744496002304D-01  4.7279116640049D-01
    16  1.5000000000000D-01  2.0132749503226D-01  5.0168790513800D-01
    17  1.6000000000000D-01  2.1530518170670D-01  5.2961174928560D-01
    18  1.7000000000000D-01  2.2938208303112D-01  5.5650947956962D-01
    19  1.8000000000000D-01  2.4356184041655D-01  5.8233003880255D-01
    20  1.9000000000000D-01  2.5784765341912D-01  6.0702463915989D-01
    21  2.0000000000000D-01  2.7224226051092D-01  6.3054686462283D-01
    22  2.1000000000000D-01  2.8674792094995D-01  6.5285276836864D-01
    23  2.2000000000000D-01  3.0136639779398D-01  6.7390096490168D-01
    24  2.3000000000000D-01  3.1609894210043D-01  6.9365271672872D-01
    25  2.4000000000000D-01  3.3094627835217D-01  7.1207201539439D-01
    26  2.5000000000000D-01  3.4590859114595D-01  7.2912565670435D-01
    27  2.6000000000000D-01  3.6098551317783D-01  7.4478330997640D-01
    28  2.7000000000000D-01  3.7617611455690D-01  7.5901758117237D-01
    29  2.8000000000000D-01  3.9147889347575D-01  7.7180406977690D-01
    30  2.9000000000000D-01  4.0689176826318D-01  7.8312141930254D-01
    31  3.0000000000000D-01  4.2241207084153D-01  7.9295136131428D-01
    32  3.1000000000000D-01  4.3803654160801D-01  8.0127875288052D-01
    33  3.2000000000000D-01  4.5376132575617D-01  8.0809160737167D-01
    34  3.3000000000000D-01  4.6958197105055D-01  8.1338111854176D-01
    35  3.4000000000000D-01  4.8549342706439D-01  8.1714167784290D-01
    36  3.5000000000000D-01  5.0149004588680D-01  8.1937088493717D-01
    37  3.6000000000000D-01  5.1756558430288D-01  8.2006955138472D-01
    38  3.7000000000000D-01  5.3371320744677D-01  8.1924169750212D-01
    39  3.8000000000000D-01  5.4992549392434D-01  8.1689454239917D-01
    40  3.9000000000000D-01  5.6619444239914D-01  8.1303848721750D-01
    41  4.0000000000000D-01  5.8251147963179D-01  8.0768709160873D-01
    42  4.1000000000000D-01  5.9886746995985D-01  8.0085704350452D-01
    43  4.2000000000000D-01  6.1525272620186D-01  7.9256812224553D-01
    44  4.3000000000000D-01  6.3165702196630D-01  7.8284315515042D-01
    45  4.4000000000000D-01  6.4806960534271D-01  7.7170796762043D-01
    46  4.5000000000000D-01  6.6447921394951D-01  7.5919132688877D-01
    47  4.6000000000000D-01  6.8087409130957D-01  7.4532487953812D-01
    48  4.7000000000000D-01  6.9724200452199D-01  7.3014308292287D-01
    49  4.8000000000000D-01  7.1357026319523D-01  7.1368313064581D-01
    50  4.9000000000000D-01  7.2984573960429D-01  6.9598487225225D-01
    51  5.0000000000000D-01  7.4605489003129D-01  6.7709072731663D-01
    52  5.1000000000000D-01  7.6218377724681D-01  6.5704559410918D-01
    53  5.2000000000000D-01  7.7821809408595D-01  6.3589675304182D-01
    54  5.3000000000000D-01  7.9414318807122D-01  6.1369376510389D-01
    55  5.4000000000000D-01  8.0994408703155D-01  5.9048836550904D-01
    56  5.5000000000000D-01  8.2560552566451D-01  5.6633435278528D-01
    57  5.6000000000000D-01  8.4111197298670D-01  5.4128747354977D-01
    58  5.7000000000000D-01  8.5644766061501D-01  5.1540530321963D-01
    59  5.8000000000000D-01  8.7159661181973D-01  4.8874712291865D-01
    60  5.9000000000000D-01  8.8654267128838D-01  4.6137379284819D-01
    61  6.0000000000000D-01  9.0126953553765D-01  4.3334762239809D-01
    62  6.1000000000000D-01  9.1576078390915D-01  4.0473223728079D-01
    63  6.2000000000000D-01  9.2999991008329D-01  3.7559244397791D-01
    64  6.3000000000000D-01  9.4397035404420D-01  3.4599409179476D-01
    65  6.4000000000000D-01  9.5765553442768D-01  3.1600393282316D-01
    66  6.5000000000000D-01  9.7103888118290D-01  2.8568948011761D-01
    67  6.6000000000000D-01  9.8410386847799D-01  2.5511886439357D-01
    68  6.7000000000000D-01  9.9683404777875D-01  2.2436068956003D-01
    69  6.8000000000000D-01  1.0092130810292D+00  1.9348388740063D-01
    70  6.9000000000000D-01  1.0212247738625D+00  1.6255757171965D-01
    71  7.0000000000000D-01  1.0328531087702D+00  1.3165089227037D-01
    72  7.1000000000000D-01  1.0440822781584D+00  1.0083288878310D-01
    73  7.2000000000000D-01  1.0548967172180D+00  7.0172345410646D-02
    74  7.3000000000000D-01  1.0652811365383D+00  3.9737645907188D-02
    75  7.4000000000000D-01  1.0752205543934D+00  9.5966298552638D-03
    76  7.5000000000000D-01  1.0847003286283D+00 -2.0183549747098D-02
    77  7.6000000000000D-01  1.0937061880781D+00 -4.9536567230239D-02
    78  7.7000000000000D-01  1.1022242634488D+00 -7.8397063022592D-02
    79  7.8000000000000D-01  1.1102411175928D+00 -1.0670078014582D-01
    80  7.9000000000000D-01  1.1177437751119D+00 -1.3438469814002D-01
    81  8.0000000000000D-01  1.1247197512233D+00 -1.6138716412967D-01
    82  8.1000000000000D-01  1.1311570798228D+00 -1.8764802074733D-01
    83  8.2000000000000D-01  1.1370443406852D+00 -2.1310873063956D-01
    84  8.3000000000000D-01  1.1423706857390D+00 -2.3771249728702D-01
    85  8.4000000000000D-01  1.1471258643584D+00 -2.6140438187940D-01
    86  8.5000000000000D-01  1.1513002476154D+00 -2.8413141599468D-01
    87  8.6000000000000D-01  1.1548848514374D+00 -3.0584270984174D-01
    88  8.7000000000000D-01  1.1578713586181D+00 -3.2648955583570D-01
    89  8.8000000000000D-01  1.1602521396328D+00 -3.4602552728569D-01
    90  8.9000000000000D-01  1.1620202722095D+00 -3.6440657198617D-01
    91  9.0000000000000D-01  1.1631695596119D+00 -3.8159110051442D-01
    92  9.1000000000000D-01  1.1636945475936D+00 -3.9754006904886D-01
    93  9.2000000000000D-01  1.1635905399814D+00 -4.1221705653545D-01
    94  9.3000000000000D-01  1.1628536128559D+00 -4.2558833604226D-01
    95  9.4000000000000D-01  1.1614806272919D+00 -4.3762294015562D-01
    96  9.5000000000000D-01  1.1594692406319D+00 -4.4829272028463D-01
    97  9.6000000000000D-01  1.1568179162647D+00 -4.5757239975511D-01
    98  9.7000000000000D-01  1.1535259318851D+00 -4.6543962058784D-01
    99  9.8000000000000D-01  1.1495933862146D+00 -4.7187498387049D-01
   100  9.9000000000000D-01  1.1450212041672D+00 -4.7686208364750D-01
   101  1.0000000000000D+00  1.1398111404447D+00 -4.8038753426638D-01
   102  1.0100000000000D+00  1.1339657815530D+00 -4.8244099113441D-01
   103  1.0200000000000D+00  1.1274885462319D+00 -4.8301516485438D-01
   104  1.0300000000000D+00  1.1203836842948D+00 -4.8210582872324D-01
   105  1.0400000000000D+00  1.1126562738792D+00 -4.7971181959256D-01
   106  1.0500000000000D+00  1.1043122171108D+00 -4.7583503210503D-01
   107  1.0600000000000D+00  1.0953582341884D+00 -4.7048040633593D-01
   108  1.0700000000000D+00  1.0858018559011D+00 -4.6365590888360D-01
   109  1.0800000000000D+00  1.0756514145894D+00 -4.5537250746817D-01
   110  1.0900000000000D+00  1.0649160335701D+00 -4.4564413911210D-01
   111  1.1000000000000D+00  1.0536056150441D+00 -4.3448767199127D-01
   112  1.1100000000000D+00  1.0417308265110D+00 -4.2192286105824D-01
   113  1.1200000000000D+00  1.0293030857186D+00 -4.0797229755516D-01
   114  1.1300000000000D+00  1.0163345441764D+00 -3.9266135254641D-01
   115  1.1400000000000D+00  1.0028380692684D+00 -3.7601811461573D-01
   116  1.1500000000000D+00  9.8882722499958D-01 -3.5807332188351D-01
   117  1.1600000000000D+00  9.7431625141723D-01 -3.3886028851476D-01
   118  1.1700000000000D+00  9.5932004274892D-01 -3.1841482589985D-01
   119  1.1800000000000D+00  9.4385412430239D-01 -2.9677515870287D-01
   120  1.1900000000000D+00  9.2793462817478D-01 -2.7398183598066D-01
   121  1.2000000000000D+00  9.1157826782215D-01 -2.5007763759056D-01
   122  1.2100000000000D+00  8.9480231154195D-01 -2.2510747611368D-01
   123  1.2200000000000D+00  8.7762455492357D-01 -1.9911829452931D-01
   124  1.2300000000000D+00  8.6006329232414D-01 -1.7215895988540D-01
   125  1.2400000000000D+00  8.4213728742942D-01 -1.4428015322120D-01
   126  1.2500000000000D+00  8.2386574296108D-01 -1.1553425600411D-01
   127  1.2600000000000D+00  8.0526826959296D-01 -8.5975233347893D-02
   128  1.2700000000000D+00  7.8636485414185D-01 -5.5658514291798D-02
   129  1.2800000000000D+00  7.6717582709887D-01 -2.4640869422313D-02
   130  1.2900000000000D+00  7.4772182956852D-01  7.0197138771590D-03
   131  1.3000000000000D+00  7.2802377968492D-01  3.9264158252988D-02
   132  1.3100000000000D+00  7.0810283857487D-01  7.2032424989528D-02
   133  1.3200000000000D+00  6.8798037593789D-01  1.0526364410031D-01
   134  1.3300000000000D+00  6.6767793531543D-01  1.3889624559806D-01
   135  1.3400000000000D+00  6.4721719912049D-01  1.7286809164165D-01
   136  1.3500000000000D+00  6.2661995350019D-01  2.0711660925416D-01
   137  1.3600000000000D+00  6.0590805310374D-01  2.4157892330768D-01
   138  1.3700000000000D+00  5.8510338582809D-01  2.7619198947029D-01
   139  1.3800000000000D+00  5.6422783761409D-01  3.1089272681045D-01
   140  1.3900000000000D+00  5.4330325736421D-01  3.4561814976192D-01
   141  1.4000000000000D+00  5.2235142205469D-01  3.8030549914352D-01
   142  1.4100000000000D+00  5.0139400211185D-01  4.1489237194558D-01
   143  1.4200000000000D+00  4.8045252712297D-01  4.4931684958906D-01
   144  1.4300000000000D+00  4.5954835195208D-01  4.8351762436676D-01
   145  1.4400000000000D+00  4.3870262332559D-01  5.1743412379940D-01
   146  1.4500000000000D+00  4.1793624695897D-01  5.5100663261152D-01
   147  1.4600000000000D+00  3.9726985528522D-01  5.8417641208116D-01
   148  1.4700000000000D+00  3.7672377585193D-01  6.1688581648824D-01
   149  1.4800000000000D+00  3.5631800044832D-01  6.4907840641269D-01
   150  1.4900000000000D+00  3.3607215501982D-01  6.8069905865124D-01
   151  1.5000000000000D+00  3.1600547043436D-01  7.1169407249033D-01
   152  1.5100000000000D+00  2.9613675414700D-01  7.4201127215470D-01
   153  1.5200000000000D+00  2.7648436282803D-01  7.7160010516499D-01
   154  1.5300000000000D+00  2.5706617599456D-01  8.0041173645402D-01
   155  1.5400000000000D+00  2.3789957070360D-01  8.2839913800797D-01
   156  1.5500000000000D+00  2.1900139734727D-01  8.5551717387845D-01
   157  1.5600000000000D+00  2.0038795659501D-01  8.8172268039191D-01
   158  1.5700000000000D+00  1.8207497752721D-01  9.0697454138575D-01
   159  1.5800000000000D+00  1.6407759698923D-01  9.3123375836750D-01
   160  1.5900000000000D+00  1.4641034021511D-01  9.5446351540598D-01
   161  1.6000000000000D+00  1.2908710273317D-01  9.7662923872537D-01
   162  1.6100000000000D+00  1.1212113360755D-01  9.9769865078964D-01
   163  1.6200000000000D+00  9.5525020010895D-02  1.0176418189236D+00
   164  1.6300000000000D+00  7.9310673185568D-02  1.0364311982442D+00
   165  1.6400000000000D+00  6.3489315775561D-02  1.0540416690043D+00
   166  1.6500000000000D+00  4.8071470582591D-02  1.0704505681415D+00
   167  1.6600000000000D+00  3.3066950722341D-02  1.0856377151595D+00
   168  1.6700000000000D+00  1.8484851226584D-02  1.0995854321695D+00
   169  1.6800000000000D+00  4.3335420613984D-03  1.1122785582448D+00
   170  1.6900000000000D+00 -9.3793373994832D-03  1.1237044579435D+00
   171  1.7000000000000D+00 -2.2646882483324D-02  1.1338530241847D+00
   172  1.7100000000000D+00 -3.5462925874744D-02  1.1427166753551D+00
   173  1.7200000000000D+00 -4.7822038866335D-02  1.1502903468684D+00
   174  1.7300000000000D+00 -5.9719531171524D-02  1.1565714770682D+00
   175  1.7400000000000D+00 -7.1151449358050D-02  1.1615599877440D+00
   176  1.7500000000000D+00 -8.2114573869459D-02  1.1652582591492D+00
   177  1.7600000000000D+00 -9.2606414707218D-02  1.1676710998507D+00
   178  1.7700000000000D+00 -1.0262520573800D-01  1.1688057112889D+00
   179  1.7800000000000D+00 -1.1216989771314D-01  1.1686716474332D+00
   180  1.7900000000000D+00 -1.2124014996450D-01  1.1672807694157D+00
   181  1.8000000000000D+00 -1.2983632086995D-01  1.1646471955492D+00
   182  1.8100000000000D+00 -1.3795945706447D-01  1.1607872466638D+00
   183  1.8200000000000D+00 -1.4561128148264D-01  1.1557193871346D+00
   184  1.8300000000000D+00 -1.5279418023025D-01  1.1494641616257D+00
   185  1.8400000000000D+00 -1.5951118835594D-01  1.1420441278606D+00
   186  1.8500000000000D+00 -1.6576597454688D-01  1.1334837855490D+00
   187  1.8600000000000D+00 -1.7156282480030D-01  1.1238095017064D+00
   188  1.8700000000000D+00 -1.7690662512316D-01  1.1130494326029D+00
   189  1.8800000000000D+00 -1.8180284329116D-01  1.1012334425025D+00
   190  1.8900000000000D+00 -1.8625750974594D-01  1.0883930195238D+00
   191  1.9000000000000D+00 -1.9027719764541D-01  1.0745611887299D+00
   192  1.9100000000000D+00 -1.9386900216159D-01  1.0597724228248D+00
   193  1.9200000000000D+00 -1.9704051904092D-01  1.0440625505746D+00
   194  1.9300000000000D+00 -1.9979982251464D-01  1.0274686632969D+00
   195  1.9400000000000D+00 -2.0215544259541D-01  1.0100290196135D+00
   196  1.9500000000000D+00 -2.0411634182577D-01  9.9178294873623D-01
   197  1.9600000000000D+00 -2.0569189153770D-01  9.7277075254462D-01
   198  1.9700000000000D+00 -2.0689184767508D-01  9.5303360670344D-01
   199  1.9800000000000D+00 -2.0772632624482D-01  9.3261346105716D-01
   200  1.9900000000000D+00 -2.0820577845260D-01  9.1155293960805D-01
   201  2.0000000000000D+00 -2.0834096557901D-01  8.8989524024436D-01
   202  2.0100000000000D+00 -2.0814293366297D-01  8.6768403456089D-01
   203  2.0200000000000D+00 -2.0762298804314D-01  8.4496336795370D-01
   204  2.0300000000000D+00 -2.0679266781531D-01  8.2177756022721D-01
   205  2.0400000000000D+00 -2.0566372027884D-01  7.9817110706049D-01
   206  2.0500000000000D+00 -2.0424807539422D-01  7.7418858234540D-01
   207  2.0600000000000D+00 -2.0255782035669D-01  7.4987454192200D-01
   208  2.0700000000000D+00 -2.0060517429278D-01  7.2527342865261D-01
   209  2.0800000000000D+00 -1.9840246316067D-01  7.0042947920415D-01
   210  2.0900000000000D+00 -1.9596209491849D-01  6.7538663281261D-01
   211  2.1000000000000D+00 -1.9329653495153D-01  6.5018844190345D-01
   212  2.1100000000000D+00 -1.9041828190705D-01  6.2487798529043D-01
   213  2.1200000000000D+00 -1.8733984388135D-01  5.9949778359242D-01
   214  2.1300000000000D+00 -1.8407371506964D-01  5.7408971737768D-01
   215  2.1400000000000D+00 -1.8063235292943D-01  5.4869494823387D-01
   216  2.1500000000000D+00 -1.7702815581235D-01  5.2335384247481D-01
   217  2.1600000000000D+00 -1.7327344125063D-01  4.9810589836283D-01
   218  2.1700000000000D+00 -1.6938042479381D-01  4.7298967626879D-01
   219  2.1800000000000D+00 -1.6536119950357D-01  4.4804273224985D-01
   220  2.1900000000000D+00 -1.6122771617477D-01  4.2330155532417D-01
   221  2.2000000000000D+00 -1.5699176418463D-01  3.9880150791550D-01
   222  2.2100000000000D+00 -1.5266495317003D-01  3.7457677038028D-01
   223  2.2200000000000D+00 -1.4825869543547D-01  3.5066028910016D-01
   224  2.2300000000000D+00 -1.4378418911670D-01  3.2708372821195D-01
   225  2.2400000000000D+00 -1.3925240225307D-01  3.0387742564826D-01
   226  2.2500000000000D+00 -1.3467405759620D-01  2.8107035263210D-01
   227  2.2600000000000D+00 -1.3005961831828D-01  2.5869007734104D-01
   228  2.2700000000000D+00 -1.2541927461707D-01  2.3676273267789D-01
   229  2.2800000000000D+00 -1.2076293109251D-01  2.1531298753080D-01
   230  2.2900000000000D+00 -1.1610019513052D-01  1.9436402254973D-01
   231  2.3000000000000D+00 -1.1144036612312D-01  1.7393750961755D-01
   232  2.3100000000000D+00 -1.0679242553323D-01  1.5405359501281D-01
   233  2.3200000000000D+00 -1.0216502797887D-01  1.3473088699578D-01
   234  2.3300000000000D+00 -9.7566493108758D-02  1.1598644676148D-01
   235  2.3400000000000D+00 -9.3004798393869D-02  9.7835783265324D-02
   236  2.3500000000000D+00 -8.8487572873586D-02  8.0292852039646D-02
   237  2.3600000000000D+00 -8.4022091674246D-02  6.3370057173741D-02
   238  2.3700000000000D+00 -7.9615271471206D-02  4.7078257139358D-02
   239  2.3800000000000D+00 -7.5273666822152D-02  3.1426774106954D-02
   240  2.3900000000000D+00 -7.1003467243404D-02  1.6423406178924D-02
   241  2.4000000000000D+00 -6.6810495223073D-02  2.0744432822264D-03
   242  2.4100000000000D+00 -6.2700205011333D-02 -1.1615313980860D-02
   243  2.4200000000000D+00 -5.8677682112543D-02 -2.4642532858118D-02
   244  2.4300000000000D+00 -5.4747643674101D-02 -3.7005323652995D-02
   245  2.4400000000000D+00 -5.0914439545600D-02 -4.8703212535231D-02
   246  2.4500000000000D+00 -4.7182054009751D-02 -5.9737111986003D-02
   247  2.4600000000000D+00 -4.3554108305143D-02 -7.0109288521345D-02
   248  2.4700000000000D+00 -4.0033863741503D-02 -7.9823328455146D-02
   249  2.4800000000000D+00 -3.6624225425750D-02 -8.8884101684169D-02
   250  2.4900000000000D+00 -3.3327746659540D-02 -9.7297723399962D-02
   251  2.5000000000000D+00 -3.0146633852863D-02 -1.0507151426246D-01
   252  2.5100000000000D+00 -2.7082751965709D-02 -1.1221395906378D-01
   253  2.5200000000000D+00 -2.4137630496537D-02 -1.1873466397563D-01
   254  2.5300000000000D+00 -2.1312469905668D-02 -1.2464431268920D-01
   255  2.5400000000000D+00 -1.8608148471694D-02 -1.2995462154728D-01
   256  2.5500000000000D+00 -1.6025229566245D-02 -1.3467829392410D-01
   257  2.5600000000000D+00 -1.3563969279408D-02 -1.3882897392972D-01
   258  2.5700000000000D+00 -1.1224324379588D-02 -1.4242119959584D-01
   259  2.5800000000000D+00 -9.0059605585037D-03 -1.4547035598858D-01
   260  2.5900000000000D+00 -6.9082609408498D-03 -1.4799262807229D-01
   261  2.6000000000000D+00 -4.9303348372789D-03 -1.5000495347533D-01
   262  2.6100000000000D+00 -3.0710266415385D-03 -1.5152497589365D-01
   263  2.6200000000000D+00 -1.3289249058856D-03 -1.5257099865991D-01
   264  2.6300000000000D+00  2.9762841162273D-04 -1.5316193850697D-01
   265  2.6400000000000D+00  1.8105287098156D-03 -1.5331728073997D-01
   266  2.6500000000000D+00  3.2119003261510D-03 -1.5305704114489D-01
   267  2.6600000000000D+00  4.5040836645838D-03 -1.5240169894142D-01
   268  2.6700000000000D+00  5.6896295422361D-03 -1.5137217963136D-01
   269  2.6800000000000D+00  6.7712961047510D-03 -1.4998985516937D-01
   270  2.6900000000000D+00  7.7520169047573D-03 -1.4827635479489D-01
   271  2.7000000000000D+00  8.6349107765134D-03 -1.4625365256440D-01
   272  2.7100000000000D+00  9.4232640603302D-03 -1.4394396952593D-01
   273  2.7200000000000D+00  1.0120554472696D-02 -1.4136996550596D-01
   274  2.7300000000000D+00  1.0730423246382D-02 -1.3855457532328D-01
   275  2.7400000000000D+00  1.1256624518448D-02 -1.3552069296813D-01
   276  2.7500000000000D+00  1.1703005417800D-02 -1.3229106232095D-01
   277  2.7600000000000D+00  1.2073475793615D-02 -1.2888809371378D-01
   278  2.7700000000000D+00  1.2371977387683D-02 -1.2533371118408D-01
   279  2.7800000000000D+00  1.2602472500630D-02 -1.2164930952548D-01
   280  2.7900000000000D+00  1.2768844671099D-02 -1.1785512507528D-01
   281  2.8000000000000D+00  1.2874960767807D-02 -1.1397069669195D-01
   282  2.8100000000000D+00  1.2924634882840D-02 -1.1001466210991D-01
   283  2.8200000000000D+00  1.2921643141125D-02 -1.0600491022344D-01
   284  2.8300000000000D+00  1.2869702070737D-02 -1.0195847095173D-01
   285  2.8400000000000D+00  1.2772456216706D-02 -9.7891470606349D-02
   286  2.8500000000000D+00  1.2633474456855D-02 -9.3819148669431D-02
   287  2.8600000000000D+00  1.2456244545357D-02 -8.9755860866462D-02
   288  2.8700000000000D+00  1.2244164263131D-02 -8.5715057343723D-02
   289  2.8800000000000D+00  1.2000536351144D-02 -8.1709286499996D-02
   290  2.8900000000000D+00  1.1728562968264D-02 -7.7750195092069D-02
   291  2.9000000000000D+00  1.1431341165547D-02 -7.3848533504693D-02
   292  2.9100000000000D+00  1.1111858697490D-02 -7.0014162825563D-02
   293  2.9200000000000D+00  1.0772990299602D-02 -6.6256064331042D-02
   294  2.9300000000000D+00  1.0417494607200D-02 -6.2582352165864D-02
   295  2.9400000000000D+00  1.0048011707544D-02 -5.9000289134421D-02
   296  2.9500000000000D+00  9.6670611355379D-03 -5.5516304648129D-02
   297  2.9600000000000D+00  9.2770401478638D-03 -5.2136014049385D-02
   298  2.9700000000000D+00  8.8802229082800D-03 -4.8864242166789D-02
   299  2.9800000000000D+00  8.4787599086195D-03 -4.5705047945727D-02
   300  2.9900000000000D+00  8.0746778042916D-03 -4.2661750957564D-02
   301  3.0000000000000D+00  7.6698797466990D-03 -3.9736960081256D-02
   302  3.0100000000000D+00  7.2661462134598D-03 -3.6932604310064D-02
   303  3.0200000000000D+00  6.8651361610000D-03 -3.4249964851904D-02
   304  3.0300000000000D+00  6.4683884208751D-03 -3.1689708224808D-02
   305  3.0400000000000D+00  6.0773236706728D-03 -2.9251921537588D-02
   306  3.0500000000000D+00  5.6932466044958D-03 -2.6936148447413D-02
   307  3.0600000000000D+00  5.3173483993677D-03 -2.4741426132018D-02
   308  3.0700000000000D+00  4.9507094355001D-03 -2.2666323057209D-02
   309  3.0800000000000D+00  4.5943023358010D-03 -2.0708977587594D-02
   310  3.0900000000000D+00  4.2489951632960D-03 -1.8867136917507D-02
   311  3.1000000000000D+00  3.9155548273678D-03 -1.7138196567482D-02
   312  3.1100000000000D+00  3.5946506490205D-03 -1.5519239832704D-02
   313  3.1200000000000D+00  3.2868580644548D-03 -1.4007077268324D-02
   314  3.1300000000000D+00  2.9926624178532D-03 -1.2598285922853D-02
   315  3.1400000000000D+00  2.7124629480250D-03 -1.1289249108324D-02
   316  3.1500000000000D+00  2.4465766633114D-03 -1.0076194372925D-02
   317  3.1600000000000D+00  2.1952423374771D-03 -8.9552315709786D-03
   318  3.1700000000000D+00  1.9586245068634D-03 -7.9223901119302D-03
   319  3.1800000000000D+00  1.7368175629307D-03 -6.9736560492647D-03
   320  3.1900000000000D+00  1.5298495434756D-03 -6.1050064013971D-03
   321  3.2000000000000D+00  1.3376860082386D-03 -5.3124432927486D-03
   322  3.2100000000000D+00  1.1602338983668D-03 -4.5920272057100D-03
   323  3.2200000000000D+00  9.9734526078265D-04 -3.9399086325883D-03
   324  3.2300000000000D+00  8.4882064216228D-04 -3.3523569254322D-03
   325  3.2400000000000D+00  7.1451352406462D-04 -2.8262670566290D-03
   326  3.2500000000000D+00  5.9405385117083D-04 -2.3578611334350D-03
   327  3.2600000000000D+00  4.8695787329475D-04 -1.9432187309051D-03
   328  3.2700000000000D+00  3.9282844702241D-04 -1.5792346855656D-03
   329  3.2800000000000D+00  3.1058233836716D-04 -1.2602293909582D-03
   330  3.2900000000000D+00  2.4065944497004D-04 -9.8761945925122D-04
   331  3.3000000000000D+00  1.8349995972437D-04 -7.6325550486117D-04
   332  3.3100000000000D+00  1.3887002954222D-04 -5.8645721534788D-04
   333  3.3200000000000D+00  1.0794798719943D-04 -4.6271409755561D-04
   334  3.3300000000000D+00  8.6895232013514D-05 -3.7676064261922D-04
   335  3.3400000000000D+00  7.1828007396237D-05 -3.1325098252562D-04
   336  3.3500000000000D+00  5.9560427412644D-05 -2.5977833308611D-04
   337  3.3600000000000D+00  4.4698313965919D-05 -1.9477081356660D-04
   338  3.3700000000000D+00  2.9036920557799D-05 -1.2631628287533D-04
   339  3.3800000000000D+00  1.4396062966720D-05 -6.2480433997292D-05
   340  3.3900000000000D+00  2.2658804212244D-06 -9.8091163417565D-06
   341  3.4000000000000D+00 -3.6175266284954D-06  1.5828453858424D-05
   342  3.4100000000000D+00 -4.9928695619942D-06  2.1845275510060D-05
   343  3.4200000000000D+00 -3.6291943844140D-06  1.5876768145262D-05
   344  3.4300000000000D+00 -8.8199845179291D-07  3.8578232552586D-06
   345  3.4400000000000D+00  6.9460547981901D-07 -3.0533174519979D-06
   346  3.4500000000000D+00  1.1483156871045D-06 -5.0495318006492D-06
   347  3.4600000000000D+00  9.5921597812865D-07 -4.2193314720068D-06
   348  3.4700000000000D+00  3.2340872791007D-07 -1.4229869593959D-06
   349  3.4800000000000D+00 -7.7893444800591D-08  3.3955217352386D-07
   350  3.4900000000000D+00 -1.5515488931993D-07  6.7634933897588D-07
   351  3.5000000000000D+00 -1.4615741561558D-07  6.3712765914962D-07
   352  3.5100000000000D+00 -6.5455606690297D-08  2.8533329830143D-07
   353  3.5200000000000D+00  0.0000000000000D+00  0.0000000000000D+00
   354  3.5300000000000D+00  0.0000000000000D+00  0.0000000000000D+00
   355  3.5400000000000D+00  0.0000000000000D+00  0.0000000000000D+00
   356  3.5500000000000D+00  0.0000000000000D+00  0.0000000000000D+00
   357  3.5600000000000D+00  0.0000000000000D+00  0.0000000000000D+00
   358  3.5700000000000D+00  0.0000000000000D+00  0.0000000000000D+00
   359  3.5800000000000D+00  0.0000000000000D+00  0.0000000000000D+00
   360  3.5900000000000D+00  0.0000000000000D+00  0.0000000000000D+00
   361  3.6000000000000D+00  0.0000000000000D+00  0.0000000000000D+00
   362  3.6100000000000D+00  0.0000000000000D+00  0.0000000000000D+00
   363  3.6200000000000D+00  0.0000000000000D+00  0.0000000000000D+00
   364  3.6300000000000D+00  0.0000000000000D+00  0.0000000000000D+00
   365  3.6400000000000D+00  0.0000000000000D+00  0.0000000000000D+00
   366  3.6500000000000D+00  0.0000000000000D+00  0.0000000000000D+00
   367  3.6600000000000D+00  0.0000000000000D+00  0.0000000000000D+00
   368  3.6700000000000D+00  0.0000000000000D+00  0.0000000000000D+00
   369  3.6800000000000D+00  0.0000000000000D+00  0.0000000000000D+00
   370  3.6900000000000D+00  0.0000000000000D+00  0.0000000000000D+00
   371  3.7000000000000D+00  0.0000000000000D+00  0.0000000000000D+00
   372  3.7100000000000D+00  0.0000000000000D+00  0.0000000000000D+00
   373  3.7200000000000D+00  0.0000000000000D+00  0.0000000000000D+00
   374  3.7300000000000D+00  0.0000000000000D+00  0.0000000000000D+00
   375  3.7400000000000D+00  0.0000000000000D+00  0.0000000000000D+00
   376  3.7500000000000D+00  0.0000000000000D+00  0.0000000000000D+00
   377  3.7600000000000D+00  0.0000000000000D+00  0.0000000000000D+00
   378  3.7700000000000D+00  0.0000000000000D+00  0.0000000000000D+00
   379  3.7800000000000D+00  0.0000000000000D+00  0.0000000000000D+00
   380  3.7900000000000D+00  0.0000000000000D+00  0.0000000000000D+00
   381  3.8000000000000D+00  0.0000000000000D+00  0.0000000000000D+00
   382  3.8100000000000D+00  0.0000000000000D+00  0.0000000000000D+00
   383  3.8200000000000D+00  0.0000000000000D+00  0.0000000000000D+00
   384  3.8300000000000D+00  0.0000000000000D+00  0.0000000000000D+00
   385  3.8400000000000D+00  0.0000000000000D+00  0.0000000000000D+00
   386  3.8500000000000D+00  0.0000000000000D+00  0.0000000000000D+00
   387  3.8600000000000D+00  0.0000000000000D+00  0.0000000000000D+00
   388  3.8700000000000D+00  0.0000000000000D+00  0.0000000000000D+00
   389  3.8800000000000D+00  0.0000000000000D+00  0.0000000000000D+00
   390  3.8900000000000D+00  0.0000000000000D+00  0.0000000000000D+00
   391  3.9000000000000D+00  0.0000000000000D+00  0.0000000000000D+00
   392  3.9100000000000D+00  0.0000000000000D+00  0.0000000000000D+00
   393  3.9200000000000D+00  0.0000000000000D+00  0.0000000000000D+00
   394  3.9300000000000D+00  0.0000000000000D+00  0.0000000000000D+00
   395  3.9400000000000D+00  0.0000000000000D+00  0.0000000000000D+00
   396  3.9500000000000D+00  0.0000000000000D+00  0.0000000000000D+00
   397  3.9600000000000D+00  0.0000000000000D+00  0.0000000000000D+00
   398  3.9700000000000D+00  0.0000000000000D+00  0.0000000000000D+00
   399  3.9800000000000D+00  0.0000000000000D+00  0.0000000000000D+00
   400  3.9900000000000D+00  0.0000000000000D+00  0.0000000000000D+00
   401  4.0000000000000D+00  0.0000000000000D+00  0.0000000000000D+00
   402  4.0100000000000D+00  0.0000000000000D+00  0.0000000000000D+00
   403  4.0200000000000D+00  0.0000000000000D+00  0.0000000000000D+00
   404  4.0300000000000D+00  0.0000000000000D+00  0.0000000000000D+00
   405  4.0400000000000D+00  0.0000000000000D+00  0.0000000000000D+00
   406  4.0500000000000D+00  0.0000000000000D+00  0.0000000000000D+00
   407  4.0600000000000D+00  0.0000000000000D+00  0.0000000000000D+00
   408  4.0700000000000D+00  0.0000000000000D+00  0.0000000000000D+00
   409  4.0800000000000D+00  0.0000000000000D+00  0.0000000000000D+00
   410  4.0900000000000D+00  0.0000000000000D+00  0.0000000000000D+00
   411  4.1000000000000D+00  0.0000000000000D+00  0.0000000000000D+00
   412  4.1100000000000D+00  0.0000000000000D+00  0.0000000000000D+00
   413  4.1200000000000D+00  0.0000000000000D+00  0.0000000000000D+00
   414  4.1300000000000D+00  0.0000000000000D+00  0.0000000000000D+00
   415  4.1400000000000D+00  0.0000000000000D+00  0.0000000000000D+00
   416  4.1500000000000D+00  0.0000000000000D+00  0.0000000000000D+00
   417  4.1600000000000D+00  0.0000000000000D+00  0.0000000000000D+00
   418  4.1700000000000D+00  0.0000000000000D+00  0.0000000000000D+00
   419  4.1800000000000D+00  0.0000000000000D+00  0.0000000000000D+00
   420  4.1900000000000D+00  0.0000000000000D+00  0.0000000000000D+00
   421  4.2000000000000D+00  0.0000000000000D+00  0.0000000000000D+00
   422  4.2100000000000D+00  0.0000000000000D+00  0.0000000000000D+00