V     ONCVPSP-3.3.1  r_core=   1.72984   1.99606   2.02001
     23.0000     13.0000      210904    zatom,zion,pspd
     8       2   2     4   600     0    pspcod,pspxc,lmax,lloc,mmax,r2well
  5.99000000  0.00000000  0.00000000    rchrg fchrg qchrg
     2     2     2     0     0    nproj
     1     1           extension_switch
   0                         3.5789626912955D+00 -5.1656155861727D-01
     1  0.0000000000000D+00  3.2585800724405D-10  6.7107260026678D-10
     2  1.0000000000000D-02  5.8686033586142D-02 -6.9524426411869D-03
     3  2.0000000000000D-02  1.1732546324811D-01 -1.3715464237070D-02
     4  3.0000000000000D-02  1.7587106779370D-01 -2.0101456782914D-02
     5  4.0000000000000D-02  2.3427439978050D-01 -2.5926420736497D-02
     6  5.0000000000000D-02  2.9248519302211D-01 -3.1011725374726D-02
     7  6.0000000000000D-02  3.5045079461903D-01 -3.5185816980399D-02
     8  7.0000000000000D-02  4.0811562930357D-01 -3.8285858263674D-02
     9  8.0000000000000D-02  4.6542070356195D-01 -4.0159283093906D-02
    10  9.0000000000000D-02  5.2230315659562D-01 -4.0665251444064D-02
    11  1.0000000000000D-01  5.7869586471002D-01 -3.9675990423917D-02
    12  1.1000000000000D-01  6.3452710517872D-01 -3.7078008390164D-02
    13  1.2000000000000D-01  6.8972028502754D-01 -3.2773170360798D-02
    14  1.3000000000000D-01  7.4419373952405D-01 -2.6679624315267D-02
    15  1.4000000000000D-01  7.9786060444800D-01 -1.8732569418197D-02
    16  1.5000000000000D-01  8.5062876546518D-01 -8.8848587484620D-03
    17  1.6000000000000D-01  9.0240088713733D-01  2.8925692678593D-03
    18  1.7000000000000D-01  9.5307452328277D-01  1.6610434848274D-02
    19  1.8000000000000D-01  1.0025423095625D+00  3.2261038681532D-02
    20  1.9000000000000D-01  1.0506922383145D+00  4.9818362266722D-02
    21  2.0000000000000D-01  1.0974080148011D+00  6.9238345692715D-02
    22  2.1000000000000D-01  1.1425694931812D+00  9.0459340051284D-02
    23  2.2000000000000D-01  1.1860531896741D+00  1.1340272996837D-01
    24  2.3000000000000D-01  1.2277328695630D+00  1.3797372007289D-01
    25  2.4000000000000D-01  1.2674802038858D+00  1.6406227761727D-01
    26  2.5000000000000D-01  1.3051654909035D+00  1.9154422193394D-01
    27  2.6000000000000D-01  1.3406584367185D+00  2.2028244997350D-01
    28  2.7000000000000D-01  1.3738289887453D+00  2.5012828583527D-01
    29  2.8000000000000D-01  1.4045482151244D+00  2.8092294098504D-01
    30  2.9000000000000D-01  1.4326892226208D+00  3.1249907076760D-01
    31  3.0000000000000D-01  1.4581281050642D+00  3.4468241187592D-01
    32  3.1000000000000D-01  1.4807449139770D+00  3.7729348464231D-01
    33  3.2000000000000D-01  1.5004246427051D+00  4.1014934337844D-01
    34  3.3000000000000D-01  1.5170582151077D+00  4.4306535751712D-01
    35  3.4000000000000D-01  1.5305434696934D+00  4.7585700600309D-01
    36  3.5000000000000D-01  1.5407861300032D+00  5.0834166724720D-01
    37  3.6000000000000D-01  1.5477007520358D+00  5.4034038699871D-01
    38  3.7000000000000D-01  1.5512116395996D+00  5.7167960670399D-01
    39  3.8000000000000D-01  1.5512537186424D+00  6.0219283530546D-01
    40  3.9000000000000D-01  1.5477733618648D+00  6.3172224798720D-01
    41  4.0000000000000D-01  1.5407291552621D+00  6.6012019608932D-01
    42  4.1000000000000D-01  1.5300925986518D+00  6.8725061328443D-01
    43  4.2000000000000D-01  1.5158487327392D+00  7.1299030412770D-01
    44  4.3000000000000D-01  1.4979966858354D+00  7.3723010224845D-01
    45  4.4000000000000D-01  1.4765501339735D+00  7.5987588673258D-01
    46  4.5000000000000D-01  1.4515376688589D+00  7.8084944664178D-01
    47  4.6000000000000D-01  1.4230030688383D+00  8.0008918511087D-01
    48  4.7000000000000D-01  1.3910054688654D+00  8.1755065604666D-01
    49  4.8000000000000D-01  1.3556194262772D+00  8.3320692810303D-01
    50  4.9000000000000D-01  1.3169348800663D+00  8.4704877231271D-01
    51  5.0000000000000D-01  1.2750570022285D+00  8.5908467149878D-01
    52  5.1000000000000D-01  1.2301059406799D+00  8.6934065135188D-01
    53  5.2000000000000D-01  1.1822164541582D+00  8.7785993482444D-01
    54  5.3000000000000D-01  1.1315374404505D+00  8.8470242324347D-01
    55  5.4000000000000D-01  1.0782313602014D+00  8.8994400926311D-01
    56  5.5000000000000D-01  1.0224735594619D+00  8.9367572844695D-01
    57  5.6000000000000D-01  9.6445149501035D-01  8.9600275787385D-01
    58  5.7000000000000D-01  9.0436386732751D-01  8.9704327168549D-01
    59  5.8000000000000D-01  8.4241966690813D-01  8.9692716491615D-01
    60  5.9000000000000D-01  7.7883714035411D-01  8.9579465826487D-01
    61  6.0000000000000D-01  7.1384268339533D-01  8.9379479765621D-01
    62  6.1000000000000D-01  6.4766966863129D-01  8.9108386349496D-01
    63  6.2000000000000D-01  5.8055721636248D-01  8.8782370542555D-01
    64  6.3000000000000D-01  5.1274891738821D-01  8.8418001916091D-01
    65  6.4000000000000D-01  4.4449151707793D-01  8.8032058253479D-01
    66  6.5000000000000D-01  3.7603357037240D-01  8.7641346834980D-01
    67  6.6000000000000D-01  3.0762407763985D-01  8.7262525184109D-01
    68  6.7000000000000D-01  2.3951111149280D-01  8.6911923064281D-01
    69  6.8000000000000D-01  1.7194044476589D-01  8.6605367503814D-01
    70  6.9000000000000D-01  1.0515418986180D-01  8.6358012598756D-01
    71  7.0000000000000D-01  3.9389459590643D-02  8.6184175797207D-01
    72  7.1000000000000D-01 -2.5122940541382D-02  8.6097182305776D-01
    73  7.2000000000000D-01 -8.8159778890793D-02  8.6109219180017D-01
    74  7.3000000000000D-01 -1.4950661371917D-01  8.6231200565468D-01
    75  7.4000000000000D-01 -2.0895894977174D-01  8.6472645446688D-01
    76  7.5000000000000D-01 -2.6632332693859D-01  8.6841569138591D-01
    77  7.6000000000000D-01 -3.2141833311010D-01  8.7344389619013D-01
    78  7.7000000000000D-01 -3.7407553396976D-01  8.7985849654795D-01
    79  7.8000000000000D-01 -4.2414031315886D-01  8.8768955517874D-01
    80  7.9000000000000D-01 -4.7147261699297D-01  8.9694932923658D-01
    81  8.0000000000000D-01 -5.1594759870448D-01  9.0763200653257D-01
    82  8.1000000000000D-01 -5.5745615801669D-01  9.1971362146141D-01
    83  8.2000000000000D-01 -5.9590537272036D-01  9.3315215171505D-01
    84  8.3000000000000D-01 -6.3121881981290D-01  9.4788779507185D-01
    85  8.4000000000000D-01 -6.6333678466564D-01  9.6384342376206D-01
    86  8.5000000000000D-01 -6.9221635759774D-01  9.8092521214628D-01
    87  8.6000000000000D-01 -7.1783141814856D-01  9.9902343172115D-01
    88  8.7000000000000D-01 -7.4017250824434D-01  1.0180134058033D+00
    89  8.8000000000000D-01 -7.5924659634301D-01  1.0377566146544D+00
    90  8.9000000000000D-01 -7.7507673550395D-01  1.0581019403156D+00
    91  9.0000000000000D-01 -7.8770161916029D-01  1.0788870390273D+00
    92  9.1000000000000D-01 -7.9717503916298D-01  1.0999398278463D+00
    93  9.2000000000000D-01 -8.0356525141020D-01  1.1210800709337D+00
    94  9.3000000000000D-01 -8.0695425506818D-01  1.1421210499997D+00
    95  9.4000000000000D-01 -8.0743699202282D-01  1.1628713025559D+00
    96  9.5000000000000D-01 -8.0512047377113D-01  1.1831364109565D+00
    97  9.6000000000000D-01 -8.0012284345831D-01  1.2027208247098D+00
    98  9.7000000000000D-01 -7.9257238120139D-01  1.2214296982152D+00
    99  9.8000000000000D-01 -7.8260646118604D-01  1.2390707259366D+00
   100  9.9000000000000D-01 -7.7037046929927D-01  1.2554559570599D+00
   101  1.0000000000000D+00 -7.5601669025386D-01  1.2704035718970D+00
   102  1.0100000000000D+00 -7.3970317327327D-01  1.2837396026861D+00
   103  1.0200000000000D+00 -7.2159258543340D-01  1.2952995820302D+00
   104  1.0300000000000D+00 -7.0185106171195D-01  1.3049301029126D+00
   105  1.0400000000000D+00 -6.8064706066706D-01  1.3124902751532D+00
   106  1.0500000000000D+00 -6.5815023445611D-01  1.3178530642183D+00
   107  1.0600000000000D+00 -6.3453032163002D-01  1.3209064994720D+00
   108  1.0700000000000D+00 -6.0995607078108D-01  1.3215547402965D+00
   109  1.0800000000000D+00 -5.8459420269705D-01  1.3197189899573D+00
   110  1.0900000000000D+00 -5.5860841823541D-01  1.3153382485122D+00
   111  1.1000000000000D+00 -5.3215845853019D-01  1.3083698978755D+00
   112  1.1100000000000D+00 -5.0539922361391D-01  1.2987901136652D+00
   113  1.1200000000000D+00 -4.7847995483132D-01  1.2865941004023D+00
   114  1.1300000000000D+00 -4.5154348588270D-01  1.2717961480719D+00
   115  1.1400000000000D+00 -4.2472556649338D-01  1.2544295102137D+00
   116  1.1500000000000D+00 -3.9815426206672D-01  1.2345461052765D+00
   117  1.1600000000000D+00 -3.7194943184050D-01  1.2122160449546D+00
   118  1.1700000000000D+00 -3.4622228753043D-01  1.1875269944832D+00
   119  1.1800000000000D+00 -3.2107503343934D-01  1.1605833721214D+00
   120  1.1900000000000D+00 -2.9660058839719D-01  1.1315053963318D+00
   121  1.2000000000000D+00 -2.7288238911714D-01  1.1004279907582D+00
   122  1.2100000000000D+00 -2.4999427400409D-01  1.0674995582388D+00
   123  1.2200000000000D+00 -2.2800044548119D-01  1.0328806368976D+00
   124  1.2300000000000D+00 -2.0695550837303D-01  9.9674245218773D-01
   125  1.2400000000000D+00 -1.8690458150413D-01  9.5926537948294D-01
   126  1.2500000000000D+00 -1.6788347869398D-01  9.2063733330503D-01
   127  1.2600000000000D+00 -1.4991895500367D-01  8.8105209951979D-01
   128  1.2700000000000D+00 -1.3302901378612D-01  8.4070762729073D-01
   129  1.2800000000000D+00 -1.1722326938320D-01  7.9980429830147D-01
   130  1.2900000000000D+00 -1.0250336007442D-01  7.5854319050564D-01
   131  1.3000000000000D+00 -8.8863405759802D-02  7.1712435386727D-01
   132  1.3100000000000D+00 -7.6290504351272D-02  6.7574511547948D-01
   133  1.3200000000000D+00 -6.4765260882849D-02  6.3459843040204D-01
   134  1.3300000000000D+00 -5.4262343232569D-02  5.9387129512906D-01
   135  1.3400000000000D+00 -4.4751058188234D-02  5.5374323896589D-01
   136  1.3500000000000D+00 -3.6195941899386D-02  5.1438490736629D-01
   137  1.3600000000000D+00 -2.8557358435628D-02  4.7595675236399D-01
   138  1.3700000000000D+00 -2.1792100788266D-02  4.3860784096277D-01
   139  1.3800000000000D+00 -1.5853988604109D-02  4.0247479335678D-01
   140  1.3900000000000D+00 -1.0694456987623D-02  3.6768086160029D-01
   141  1.4000000000000D+00 -6.2631318598763D-03  3.3433515458588D-01
   142  1.4100000000000D+00 -2.5083864051832D-03  3.0253201914507D-01
   143  1.4200000000000D+00  6.2212516329600D-04  2.7235057977312D-01
   144  1.4300000000000D+00  3.1809604852310D-03  2.4385444084116D-01
   145  1.4400000000000D+00  5.2204126356425D-03  2.1709155482544D-01
   146  1.4500000000000D+00  6.7920661583006D-03  1.9209425225360D-01
   147  1.4600000000000D+00  7.9463895580880D-03  1.6887943672344D-01
   148  1.4700000000000D+00  8.7323648109643D-03  1.4744893659339D-01
   149  1.4800000000000D+00  9.1971561737400D-03  1.2779001099267D-01
   150  1.4900000000000D+00  9.3858192138658D-03  1.0987600290406D-01
   151  1.5000000000000D+00  9.3410496804974D-03  9.3667128756792D-02
   152  1.5100000000000D+00  9.1029737325757D-03  7.9111398954211D-02
   153  1.5200000000000D+00  8.7089769695845D-03  6.6145652661285D-02
   154  1.5300000000000D+00  8.1935735009727D-03  5.4696700300782D-02
   155  1.5400000000000D+00  7.5883117222989D-03  4.4682555241071D-02
   156  1.5500000000000D+00  6.9217165578636D-03  3.6013744215626D-02
   157  1.5600000000000D+00  6.2192651338004D-03  2.8594678863768D-02
   158  1.5700000000000D+00  5.5033939706993D-03  2.2325074267337D-02
   159  1.5800000000000D+00  4.7935349684303D-03  1.7101397402346D-02
   160  1.5900000000000D+00  4.1061771924817D-03  1.2818330147254D-02
   161  1.6000000000000D+00  3.4549517020759D-03  9.3702289755321D-03
   162  1.6100000000000D+00  2.8507361219719D-03  6.6525675597241D-03
   163  1.6200000000000D+00  2.3017757578870D-03  4.5633422286087D-03
   164  1.6300000000000D+00  1.8138184427005D-03  3.0044307813112D-03
   165  1.6400000000000D+00  1.3902591279093D-03  1.8828814311845D-03
   166  1.6500000000000D+00  1.0322927401765D-03  1.1121287025776D-03
   167  1.6600000000000D+00  7.3907093421124D-04  6.1311090821504D-04
   168  1.6700000000000D+00  5.0786701099356D-04  3.1530922144267D-04
   169  1.6800000000000D+00  3.3428118186841D-04  1.5773458507272D-04
   170  1.6900000000000D+00  2.1184311014723D-04  8.8706916871417D-05
   171  1.7000000000000D+00  1.3258231721221D-04  6.7812408573538D-05
   172  1.7100000000000D+00  9.1545023461279D-05  7.0525306388357D-05
   173  1.7200000000000D+00  7.9993874308295D-05  8.0423495639059D-05
   174  1.7300000000000D+00  6.9085722191195D-05  7.4261846404918D-05
   175  1.7400000000000D+00  3.5714330773591D-05  3.9009151463474D-05
   176  1.7500000000000D+00  1.6076970150597D-06  1.7512930373700D-06
   177  1.7600000000000D+00 -7.1730661229661D-06 -8.1008149674086D-06
   178  1.7700000000000D+00 -1.3497437787420D-06 -1.5303458944624D-06
   179  1.7800000000000D+00  1.5646165764991D-06  1.7638080658334D-06
   180  1.7900000000000D+00  5.8960055294513D-07  6.6652070188365D-07
   181  1.8000000000000D+00 -1.7829315433181D-07 -1.9154541152863D-07
   182  1.8100000000000D+00 -1.1135384603647D-07 -1.1963060693097D-07
   183  1.8200000000000D+00  0.0000000000000D+00  0.0000000000000D+00
   184  1.8300000000000D+00  0.0000000000000D+00  0.0000000000000D+00
   185  1.8400000000000D+00  0.0000000000000D+00  0.0000000000000D+00
   186  1.8500000000000D+00  0.0000000000000D+00  0.0000000000000D+00
   187  1.8600000000000D+00  0.0000000000000D+00  0.0000000000000D+00
   188  1.8700000000000D+00  0.0000000000000D+00  0.0000000000000D+00
   189  1.8800000000000D+00  0.0000000000000D+00  0.0000000000000D+00
   190  1.8900000000000D+00  0.0000000000000D+00  0.0000000000000D+00
   191  1.9000000000000D+00  0.0000000000000D+00  0.0000000000000D+00
   192  1.9100000000000D+00  0.0000000000000D+00  0.0000000000000D+00
   193  1.9200000000000D+00  0.0000000000000D+00  0.0000000000000D+00
   194  1.9300000000000D+00  0.0000000000000D+00  0.0000000000000D+00
   195  1.9400000000000D+00  0.0000000000000D+00  0.0000000000000D+00
   196  1.9500000000000D+00  0.0000000000000D+00  0.0000000000000D+00
   197  1.9600000000000D+00  0.0000000000000D+00  0.0000000000000D+00
   198  1.9700000000000D+00  0.0000000000000D+00  0.0000000000000D+00
   199  1.9800000000000D+00  0.0000000000000D+00  0.0000000000000D+00
   200  1.9900000000000D+00  0.0000000000000D+00  0.0000000000000D+00
   201  2.0000000000000D+00  0.0000000000000D+00  0.0000000000000D+00
   202  2.0100000000000D+00  0.0000000000000D+00  0.0000000000000D+00
   203  2.0200000000000D+00  0.0000000000000D+00  0.0000000000000D+00
   204  2.0300000000000D+00  0.0000000000000D+00  0.0000000000000D+00
   205  2.0400000000000D+00  0.0000000000000D+00  0.0000000000000D+00
   206  2.0500000000000D+00  0.0000000000000D+00  0.0000000000000D+00
   207  2.0600000000000D+00  0.0000000000000D+00  0.0000000000000D+00
   208  2.0700000000000D+00  0.0000000000000D+00  0.0000000000000D+00
   209  2.0800000000000D+00  0.0000000000000D+00  0.0000000000000D+00
   210  2.0900000000000D+00  0.0000000000000D+00  0.0000000000000D+00
   211  2.1000000000000D+00  0.0000000000000D+00  0.0000000000000D+00
   212  2.1100000000000D+00  0.0000000000000D+00  0.0000000000000D+00
   213  2.1200000000000D+00  0.0000000000000D+00  0.0000000000000D+00
   214  2.1300000000000D+00  0.0000000000000D+00  0.0000000000000D+00
   215  2.1400000000000D+00  0.0000000000000D+00  0.0000000000000D+00
   216  2.1500000000000D+00  0.0000000000000D+00  0.0000000000000D+00
   217  2.1600000000000D+00  0.0000000000000D+00  0.0000000000000D+00
   218  2.1700000000000D+00  0.0000000000000D+00  0.0000000000000D+00
   219  2.1800000000000D+00  0.0000000000000D+00  0.0000000000000D+00
   220  2.1900000000000D+00  0.0000000000000D+00  0.0000000000000D+00
   221  2.2000000000000D+00  0.0000000000000D+00  0.0000000000000D+00
   222  2.2100000000000D+00  0.0000000000000D+00  0.0000000000000D+00
   223  2.2200000000000D+00  0.0000000000000D+00  0.0000000000000D+00
   224  2.2300000000000D+00  0.0000000000000D+00  0.0000000000000D+00
   225  2.2400000000000D+00  0.0000000000000D+00  0.0000000000000D+00
   226  2.2500000000000D+00  0.0000000000000D+00  0.0000000000000D+00
   227  2.2600000000000D+00  0.0000000000000D+00  0.0000000000000D+00
   228  2.2700000000000D+00  0.0000000000000D+00  0.0000000000000D+00
   229  2.2800000000000D+00  0.0000000000000D+00  0.0000000000000D+00
   230  2.2900000000000D+00  0.0000000000000D+00  0.0000000000000D+00
   231  2.3000000000000D+00  0.0000000000000D+00  0.0000000000000D+00
   232  2.3100000000000D+00  0.0000000000000D+00  0.0000000000000D+00
   233  2.3200000000000D+00  0.0000000000000D+00  0.0000000000000D+00
   234  2.3300000000000D+00  0.0000000000000D+00  0.0000000000000D+00
   235  2.3400000000000D+00  0.0000000000000D+00  0.0000000000000D+00
   236  2.3500000000000D+00  0.0000000000000D+00  0.0000000000000D+00
   237  2.3600000000000D+00  0.0000000000000D+00  0.0000000000000D+00
   238  2.3700000000000D+00  0.0000000000000D+00  0.0000000000000D+00
   239  2.3800000000000D+00  0.0000000000000D+00  0.0000000000000D+00
   240  2.3900000000000D+00  0.0000000000000D+00  0.0000000000000D+00
   241  2.4000000000000D+00  0.0000000000000D+00  0.0000000000000D+00
   242  2.4100000000000D+00  0.0000000000000D+00  0.0000000000000D+00
   243  2.4200000000000D+00  0.0000000000000D+00  0.0000000000000D+00
   244  2.4300000000000D+00  0.0000000000000D+00  0.0000000000000D+00
   245  2.4400000000000D+00  0.0000000000000D+00  0.0000000000000D+00
   246  2.4500000000000D+00  0.0000000000000D+00  0.0000000000000D+00
   247  2.4600000000000D+00  0.0000000000000D+00  0.0000000000000D+00
   248  2.4700000000000D+00  0.0000000000000D+00  0.0000000000000D+00
   249  2.4800000000000D+00  0.0000000000000D+00  0.0000000000000D+00
   250  2.4900000000000D+00  0.0000000000000D+00  0.0000000000000D+00
   251  2.5000000000000D+00  0.0000000000000D+00  0.0000000000000D+00
   252  2.5100000000000D+00  0.0000000000000D+00  0.0000000000000D+00
   253  2.5200000000000D+00  0.0000000000000D+00  0.0000000000000D+00
   254  2.5300000000000D+00  0.0000000000000D+00  0.0000000000000D+00
   255  2.5400000000000D+00  0.0000000000000D+00  0.0000000000000D+00
   256  2.5500000000000D+00  0.0000000000000D+00  0.0000000000000D+00
   257  2.5600000000000D+00  0.0000000000000D+00  0.0000000000000D+00
   258  2.5700000000000D+00  0.0000000000000D+00  0.0000000000000D+00
   259  2.5800000000000D+00  0.0000000000000D+00  0.0000000000000D+00
   260  2.5900000000000D+00  0.0000000000000D+00  0.0000000000000D+00
   261  2.6000000000000D+00  0.0000000000000D+00  0.0000000000000D+00
   262  2.6100000000000D+00  0.0000000000000D+00  0.0000000000000D+00
   263  2.6200000000000D+00  0.0000000000000D+00  0.0000000000000D+00
   264  2.6300000000000D+00  0.0000000000000D+00  0.0000000000000D+00
   265  2.6400000000000D+00  0.0000000000000D+00  0.0000000000000D+00
   266  2.6500000000000D+00  0.0000000000000D+00  0.0000000000000D+00
   267  2.6600000000000D+00  0.0000000000000D+00  0.0000000000000D+00
   268  2.6700000000000D+00  0.0000000000000D+00  0.0000000000000D+00
   269  2.6800000000000D+00  0.0000000000000D+00  0.0000000000000D+00
   270  2.6900000000000D+00  0.0000000000000D+00  0.0000000000000D+00
   271  2.7000000000000D+00  0.0000000000000D+00  0.0000000000000D+00
   272  2.7100000000000D+00  0.0000000000000D+00  0.0000000000000D+00
   273  2.7200000000000D+00  0.0000000000000D+00  0.0000000000000D+00
   274  2.7300000000000D+00  0.0000000000000D+00  0.0000000000000D+00
   275  2.7400000000000D+00  0.0000000000000D+00  0.0000000000000D+00
   276  2.7500000000000D+00  0.0000000000000D+00  0.0000000000000D+00
   277  2.7600000000000D+00  0.0000000000000D+00  0.0000000000000D+00
   278  2.7700000000000D+00  0.0000000000000D+00  0.0000000000000D+00
   279  2.7800000000000D+00  0.0000000000000D+00  0.0000000000000D+00
   280  2.7900000000000D+00  0.0000000000000D+00  0.0000000000000D+00
   281  2.8000000000000D+00  0.0000000000000D+00  0.0000000000000D+00
   282  2.8100000000000D+00  0.0000000000000D+00  0.0000000000000D+00
   283  2.8200000000000D+00  0.0000000000000D+00  0.0000000000000D+00
   284  2.8300000000000D+00  0.0000000000000D+00  0.0000000000000D+00
   285  2.8400000000000D+00  0.0000000000000D+00  0.0000000000000D+00
   286  2.8500000000000D+00  0.0000000000000D+00  0.0000000000000D+00
   287  2.8600000000000D+00  0.0000000000000D+00  0.0000000000000D+00
   288  2.8700000000000D+00  0.0000000000000D+00  0.0000000000000D+00
   289  2.8800000000000D+00  0.0000000000000D+00  0.0000000000000D+00
   290  2.8900000000000D+00  0.0000000000000D+00  0.0000000000000D+00
   291  2.9000000000000D+00  0.0000000000000D+00  0.0000000000000D+00
   292  2.9100000000000D+00  0.0000000000000D+00  0.0000000000000D+00
   293  2.9200000000000D+00  0.0000000000000D+00  0.0000000000000D+00
   294  2.9300000000000D+00  0.0000000000000D+00  0.0000000000000D+00
   295  2.9400000000000D+00  0.0000000000000D+00  0.0000000000000D+00
   296  2.9500000000000D+00  0.0000000000000D+00  0.0000000000000D+00
   297  2.9600000000000D+00  0.0000000000000D+00  0.0000000000000D+00
   298  2.9700000000000D+00  0.0000000000000D+00  0.0000000000000D+00
   299  2.9800000000000D+00  0.0000000000000D+00  0.0000000000000D+00
   300  2.9900000000000D+00  0.0000000000000D+00  0.0000000000000D+00
   301  3.0000000000000D+00  0.0000000000000D+00  0.0000000000000D+00
   302  3.0100000000000D+00  0.0000000000000D+00  0.0000000000000D+00
   303  3.0200000000000D+00  0.0000000000000D+00  0.0000000000000D+00
   304  3.0300000000000D+00  0.0000000000000D+00  0.0000000000000D+00
   305  3.0400000000000D+00  0.0000000000000D+00  0.0000000000000D+00
   306  3.0500000000000D+00  0.0000000000000D+00  0.0000000000000D+00
   307  3.0600000000000D+00  0.0000000000000D+00  0.0000000000000D+00
   308  3.0700000000000D+00  0.0000000000000D+00  0.0000000000000D+00
   309  3.0800000000000D+00  0.0000000000000D+00  0.0000000000000D+00
   310  3.0900000000000D+00  0.0000000000000D+00  0.0000000000000D+00
   311  3.1000000000000D+00  0.0000000000000D+00  0.0000000000000D+00
   312  3.1100000000000D+00  0.0000000000000D+00  0.0000000000000D+00
   313  3.1200000000000D+00  0.0000000000000D+00  0.0000000000000D+00
   314  3.1300000000000D+00  0.0000000000000D+00  0.0000000000000D+00
   315  3.1400000000000D+00  0.0000000000000D+00  0.0000000000000D+00
   316  3.1500000000000D+00  0.0000000000000D+00  0.0000000000000D+00
   317  3.1600000000000D+00  0.0000000000000D+00  0.0000000000000D+00
   318  3.1700000000000D+00  0.0000000000000D+00  0.0000000000000D+00
   319  3.1800000000000D+00  0.0000000000000D+00  0.0000000000000D+00
   320  3.1900000000000D+00  0.0000000000000D+00  0.0000000000000D+00
   321  3.2000000000000D+00  0.0000000000000D+00  0.0000000000000D+00
   322  3.2100000000000D+00  0.0000000000000D+00  0.0000000000000D+00
   323  3.2200000000000D+00  0.0000000000000D+00  0.0000000000000D+00
   324  3.2300000000000D+00  0.0000000000000D+00  0.0000000000000D+00
   325  3.2400000000000D+00  0.0000000000000D+00  0.0000000000000D+00
   326  3.2500000000000D+00  0.0000000000000D+00  0.0000000000000D+00
   327  3.2600000000000D+00  0.0000000000000D+00  0.0000000000000D+00
   328  3.2700000000000D+00  0.0000000000000D+00  0.0000000000000D+00
   329  3.2800000000000D+00  0.0000000000000D+00  0.0000000000000D+00
   330  3.2900000000000D+00  0.0000000000000D+00  0.0000000000000D+00
   331  3.3000000000000D+00  0.0000000000000D+00  0.0000000000000D+00
   332  3.3100000000000D+00  0.0000000000000D+00  0.0000000000000D+00
   333  3.3200000000000D+00  0.0000000000000D+00  0.0000000000000D+00
   334  3.3300000000000D+00  0.0000000000000D+00  0.0000000000000D+00
   335  3.3400000000000D+00  0.0000000000000D+00  0.0000000000000D+00
   336  3.3500000000000D+00  0.0000000000000D+00  0.0000000000000D+00
   337  3.3600000000000D+00  0.0000000000000D+00  0.0000000000000D+00
   338  3.3700000000000D+00  0.0000000000000D+00  0.0000000000000D+00
   339  3.3800000000000D+00  0.0000000000000D+00  0.0000000000000D+00
   340  3.3900000000000D+00  0.0000000000000D+00  0.0000000000000D+00
   341  3.4000000000000D+00  0.0000000000000D+00  0.0000000000000D+00
   342  3.4100000000000D+00  0.0000000000000D+00  0.0000000000000D+00
   343  3.4200000000000D+00  0.0000000000000D+00  0.0000000000000D+00
   344  3.4300000000000D+00  0.0000000000000D+00  0.0000000000000D+00
   345  3.4400000000000D+00  0.0000000000000D+00  0.0000000000000D+00
   346  3.4500000000000D+00  0.0000000000000D+00  0.0000000000000D+00
   347  3.4600000000000D+00  0.0000000000000D+00  0.0000000000000D+00
   348  3.4700000000000D+00  0.0000000000000D+00  0.0000000000000D+00
   349  3.4800000000000D+00  0.0000000000000D+00  0.0000000000000D+00
   350  3.4900000000000D+00  0.0000000000000D+00  0.0000000000000D+00
   351  3.5000000000000D+00  0.0000000000000D+00  0.0000000000000D+00
   352  3.5100000000000D+00  0.0000000000000D+00  0.0000000000000D+00
   353  3.5200000000000D+00  0.0000000000000D+00  0.0000000000000D+00
   354  3.5300000000000D+00  0.0000000000000D+00  0.0000000000000D+00
   355  3.5400000000000D+00  0.0000000000000D+00  0.0000000000000D+00
   356  3.5500000000000D+00  0.0000000000000D+00  0.0000000000000D+00
   357  3.5600000000000D+00  0.0000000000000D+00  0.0000000000000D+00
   358  3.5700000000000D+00  0.0000000000000D+00  0.0000000000000D+00
   359  3.5800000000000D+00  0.0000000000000D+00  0.0000000000000D+00
   360  3.5900000000000D+00  0.0000000000000D+00  0.0000000000000D+00
   361  3.6000000000000D+00  0.0000000000000D+00  0.0000000000000D+00
   362  3.6100000000000D+00  0.0000000000000D+00  0.0000000000000D+00
   363  3.6200000000000D+00  0.0000000000000D+00  0.0000000000000D+00
   364  3.6300000000000D+00  0.0000000000000D+00  0.0000000000000D+00
   365  3.6400000000000D+00  0.0000000000000D+00  0.0000000000000D+00
   366  3.6500000000000D+00  0.0000000000000D+00  0.0000000000000D+00
   367  3.6600000000000D+00  0.0000000000000D+00  0.0000000000000D+00
   368  3.6700000000000D+00  0.0000000000000D+00  0.0000000000000D+00
   369  3.6800000000000D+00  0.0000000000000D+00  0.0000000000000D+00
   370  3.6900000000000D+00  0.0000000000000D+00  0.0000000000000D+00
   371  3.7000000000000D+00  0.0000000000000D+00  0.0000000000000D+00
   372  3.7100000000000D+00  0.0000000000000D+00  0.0000000000000D+00
   373  3.7200000000000D+00  0.0000000000000D+00  0.0000000000000D+00
   374  3.7300000000000D+00  0.0000000000000D+00  0.0000000000000D+00
   375  3.7400000000000D+00  0.0000000000000D+00  0.0000000000000D+00
   376  3.7500000000000D+00  0.0000000000000D+00  0.0000000000000D+00
   377  3.7600000000000D+00  0.0000000000000D+00  0.0000000000000D+00
   378  3.7700000000000D+00  0.0000000000000D+00  0.0000000000000D+00
   379  3.7800000000000D+00  0.0000000000000D+00  0.0000000000000D+00
   380  3.7900000000000D+00  0.0000000000000D+00  0.0000000000000D+00
   381  3.8000000000000D+00  0.0000000000000D+00  0.0000000000000D+00
   382  3.8100000000000D+00  0.0000000000000D+00  0.0000000000000D+00
   383  3.8200000000000D+00  0.0000000000000D+00  0.0000000000000D+00
   384  3.8300000000000D+00  0.0000000000000D+00  0.0000000000000D+00
   385  3.8400000000000D+00  0.0000000000000D+00  0.0000000000000D+00
   386  3.8500000000000D+00  0.0000000000000D+00  0.0000000000000D+00
   387  3.8600000000000D+00  0.0000000000000D+00  0.0000000000000D+00
   388  3.8700000000000D+00  0.0000000000000D+00  0.0000000000000D+00
   389  3.8800000000000D+00  0.0000000000000D+00  0.0000000000000D+00
   390  3.8900000000000D+00  0.0000000000000D+00  0.0000000000000D+00
   391  3.9000000000000D+00  0.0000000000000D+00  0.0000000000000D+00
   392  3.9100000000000D+00  0.0000000000000D+00  0.0000000000000D+00
   393  3.9200000000000D+00  0.0000000000000D+00  0.0000000000000D+00
   394  3.9300000000000D+00  0.0000000000000D+00  0.0000000000000D+00
   395  3.9400000000000D+00  0.0000000000000D+00  0.0000000000000D+00
   396  3.9500000000000D+00  0.0000000000000D+00  0.0000000000000D+00
   397  3.9600000000000D+00  0.0000000000000D+00  0.0000000000000D+00
   398  3.9700000000000D+00  0.0000000000000D+00  0.0000000000000D+00
   399  3.9800000000000D+00  0.0000000000000D+00  0.0000000000000D+00
   400  3.9900000000000D+00  0.0000000000000D+00  0.0000000000000D+00
   401  4.0000000000000D+00  0.0000000000000D+00  0.0000000000000D+00
   402  4.0100000000000D+00  0.0000000000000D+00  0.0000000000000D+00
   403  4.0200000000000D+00  0.0000000000000D+00  0.0000000000000D+00
   404  4.0300000000000D+00  0.0000000000000D+00  0.0000000000000D+00
   405  4.0400000000000D+00  0.0000000000000D+00  0.0000000000000D+00
   406  4.0500000000000D+00  0.0000000000000D+00  0.0000000000000D+00
   407  4.0600000000000D+00  0.0000000000000D+00  0.0000000000000D+00
   408  4.0700000000000D+00  0.0000000000000D+00  0.0000000000000D+00
   409  4.0800000000000D+00  0.0000000000000D+00  0.0000000000000D+00
   410  4.0900000000000D+00  0.0000000000000D+00  0.0000000000000D+00
   411  4.1000000000000D+00  0.0000000000000D+00  0.0000000000000D+00
   412  4.1100000000000D+00  0.0000000000000D+00  0.0000000000000D+00
   413  4.1200000000000D+00  0.0000000000000D+00  0.0000000000000D+00
   414  4.1300000000000D+00  0.0000000000000D+00  0.0000000000000D+00
   415  4.1400000000000D+00  0.0000000000000D+00  0.0000000000000D+00
   416  4.1500000000000D+00  0.0000000000000D+00  0.0000000000000D+00
   417  4.1600000000000D+00  0.0000000000000D+00  0.0000000000000D+00
   418  4.1700000000000D+00  0.0000000000000D+00  0.0000000000000D+00
   419  4.1800000000000D+00  0.0000000000000D+00  0.0000000000000D+00
   420  4.1900000000000D+00  0.0000000000000D+00  0.0000000000000D+00
   421  4.2000000000000D+00  0.0000000000000D+00  0.0000000000000D+00
   422  4.2100000000000D+00  0.0000000000000D+00  0.0000000000000D+00