V     ONCVPSP-3.3.1  r_core=   1.72984   1.99606   2.02001
     23.0000     13.0000      210904    zatom,zion,pspd
     8       2   2     4   600     0    pspcod,pspxc,lmax,lloc,mmax,r2well
  5.99000000  0.00000000  0.00000000    rchrg fchrg qchrg
     2     3     2     0    nproj
     3     1           extension_switch
     4     3     0    nprojso
   0                        -5.1609337792673D-01  3.5800529837566D+00
     1  0.0000000000000D+00  6.7195558839384D-10  3.2564856367046D-10
     2  1.0000000000000D-02 -6.9842709900728D-03  5.8691182659514D-02
     3  2.0000000000000D-02 -1.3778889957878D-02  1.1733571790189D-01
     4  3.0000000000000D-02 -2.0196020223959D-02  1.7588634162518D-01
     5  4.0000000000000D-02 -2.6051438153032D-02  2.3429456463745D-01
     6  5.0000000000000D-02 -3.1166295744591D-02  2.9251008072728D-01
     7  6.0000000000000D-02 -3.5368830986068D-02  3.5048019924051D-01
     8  7.0000000000000D-02 -3.8496009351605D-02  4.0814930994612D-01
     9  8.0000000000000D-02 -4.0395080501471D-02  4.6545838764930D-01
    10  9.0000000000000D-02 -4.0925035064752D-02  5.2234454360790D-01
    11  1.0000000000000D-01 -3.9957947363195D-02  5.7874063033571D-01
    12  1.1000000000000D-01 -3.7380191047525D-02  6.3457490583580D-01
    13  1.2000000000000D-01 -3.3093515858229D-02  6.8977076270440D-01
    14  1.3000000000000D-01 -2.7015975078862D-02  7.4424652688707D-01
    15  1.4000000000000D-01 -1.9082694708001D-02  7.9791533015957D-01
    16  1.5000000000000D-01 -9.2464769220017D-03  8.5068505965328D-01
    17  1.6000000000000D-01  2.5217679804647D-03  9.0245838695604D-01
    18  1.7000000000000D-01  1.6232765285096D-02  9.5313287850152D-01
    19  1.8000000000000D-01  3.1878797636131D-02  1.0026011881213D+00
    20  1.9000000000000D-01  4.9433805553486D-02  1.0507513317821D+00
    21  2.0000000000000D-01  6.8853665620420D-02  1.0974670436742D+00
    22  2.1000000000000D-01  9.0076643531382D-02  1.1426282119625D+00
    23  2.2000000000000D-01  1.1302401747872D-01  1.1861113916714D+00
    24  2.3000000000000D-01  1.3760086568964D-01  1.2277903913510D+00
    25  2.4000000000000D-01  1.6369701031736D-01  1.2675369293776D+00
    26  2.5000000000000D-01  1.9118810835892D-01  1.3052213549814D+00
    27  2.6000000000000D-01  2.1993687883085D-01  1.3407134283775D+00
    28  2.7000000000000D-01  2.4979445409833D-01  1.3738831537078D+00
    29  2.8000000000000D-01  2.8060184203465D-01  1.4046016578904D+00
    30  2.9000000000000D-01  3.1219148460041D-01  1.4327421079211D+00
    31  3.0000000000000D-01  3.4438889748382D-01  1.4581806586918D+00
    32  3.1000000000000D-01  3.7701437464667D-01  1.4807974229785D+00
    33  3.2000000000000D-01  4.0988474098080D-01  1.5004774549167D+00
    34  3.3000000000000D-01  4.4281513580540D-01  1.5171117380316D+00
    35  3.4000000000000D-01  4.7562080962935D-01  1.5305981687136D+00
    36  3.5000000000000D-01  5.0811891646996D-01  1.5408425259466D+00
    37  3.6000000000000D-01  5.4013028405931D-01  1.5477594180932D+00
    38  3.7000000000000D-01  5.7148114448393D-01  1.5512731976253D+00
    39  3.8000000000000D-01  6.0200480818881D-01  1.5513188348587D+00
    40  3.9000000000000D-01  6.3154326483070D-01  1.5478427420034D+00
    41  4.0000000000000D-01  6.5994869518162D-01  1.5408035391807D+00
    42  4.1000000000000D-01  6.8708487915631D-01  1.5301727544688D+00
    43  4.2000000000000D-01  7.1282848605662D-01  1.5159354505356D+00
    44  4.3000000000000D-01  7.3707023428353D-01  1.4980907709772D+00
    45  4.4000000000000D-01  7.5971590905111D-01  1.4766524001116D+00
    46  4.5000000000000D-01  7.8068722803436D-01  1.4516489306684D+00
    47  4.6000000000000D-01  7.9992254638104D-01  1.4231241345610D+00
    48  4.7000000000000D-01  8.1737739410084D-01  1.3911371327219D+00
    49  4.8000000000000D-01  8.3302484049960D-01  1.3557624608182D+00
    50  4.9000000000000D-01  8.4685568203333D-01  1.3170900285324D+00
    51  5.0000000000000D-01  8.5887845170251D-01  1.2752249709891D+00
    52  5.1000000000000D-01  8.6911924987156D-01  1.2302873918213D+00
    53  5.2000000000000D-01  8.7762139816690D-01  1.1824119982913D+00
    54  5.3000000000000D-01  8.8444491985862D-01  1.1317476298051D+00
    55  5.4000000000000D-01  8.8966585185352D-01  1.0784566820746D+00
    56  5.5000000000000D-01  8.9337539509779D-01  1.0227144300825D+00
    57  5.6000000000000D-01  8.9567891179360D-01  9.6470825388106D-01
    58  5.7000000000000D-01  8.9669477936048D-01  9.0463677209918D-01
    59  5.8000000000000D-01  8.9655311249655D-01  8.4270888883939D-01
    60  5.9000000000000D-01  8.9539436601592D-01  7.7914276040230D-01
    61  6.0000000000000D-01  8.9336783232632D-01  7.1416468898024D-01
    62  6.1000000000000D-01  8.9063004847196D-01  6.4800795110729D-01
    63  6.2000000000000D-01  8.8734312857268D-01  5.8091156922835D-01
    64  6.3000000000000D-01  8.8367303824607D-01  5.1311903525746D-01
    65  6.4000000000000D-01  8.7978782818892D-01  4.4487699542583D-01
    66  6.5000000000000D-01  8.7585584451372D-01  3.7643390606895D-01
    67  6.6000000000000D-01  8.7204393368345D-01  3.0803867027095D-01
    68  6.7000000000000D-01  8.6851565995595D-01  2.3993926546477D-01
    69  6.8000000000000D-01  8.6542955314214D-01  1.7238137218171D-01
    70  6.9000000000000D-01  8.6293740419659D-01  1.0560701415024D-01
    71  7.0000000000000D-01  8.6118262569980D-01  3.9853219862752D-02
    72  7.1000000000000D-01  8.6029869366139D-01 -2.4649284440265D-02
    73  7.2000000000000D-01  8.6040768628353D-01 -8.7677340671958D-02
    74  7.3000000000000D-01  8.6161893437154D-01 -1.4901657432851D-01
    75  7.4000000000000D-01  8.6402779698414D-01 -2.0846255050453D-01
    76  7.5000000000000D-01  8.6771457468414D-01 -2.6582186204586D-01
    77  7.6000000000000D-01  8.7274357139430D-01 -3.2091314195593D-01
    78  7.7000000000000D-01  8.7916231439532D-01 -3.7356799280303D-01
    79  7.8000000000000D-01  8.8700094044265D-01 -4.2363182656614D-01
    80  7.9000000000000D-01  8.9627175433489D-01 -4.7096460910232D-01
    81  8.0000000000000D-01  9.0696896455691D-01 -5.1544150421212D-01
    82  8.1000000000000D-01  9.1906859886912D-01 -5.5695341310983D-01
    83  8.2000000000000D-01  9.3252860092847D-01 -5.9540740597061D-01
    84  8.3000000000000D-01  9.4728910723071D-01 -6.3072704311472D-01
    85  8.4000000000000D-01  9.6327290187292D-01 -6.6285258429376D-01
    86  8.5000000000000D-01  9.8038604486917D-01 -6.9174108545652D-01
    87  8.6000000000000D-01  9.9851866802756D-01 -7.1736638328414D-01
    88  8.7000000000000D-01  1.0175459307310D+00 -7.3971896868820D-01
    89  8.8000000000000D-01  1.0373291263744D+00 -7.5880575135233D-01
    90  8.9000000000000D-01  1.0577169287136D+00 -7.7464971826046D-01
    91  9.0000000000000D-01  1.0785467659880D+00 -7.8728948998523D-01
    92  9.1000000000000D-01  1.0996463094128D+00 -7.9677877930073D-01
    93  9.2000000000000D-01  1.1208350614954D+00 -8.0318575742831D-01
    94  9.3000000000000D-01  1.1419260286448D+00 -8.0659233391552D-01
    95  9.4000000000000D-01  1.1627274617019D+00 -8.0709335678192D-01
    96  9.5000000000000D-01  1.1830446473521D+00 -8.0479574013418D-01
    97  9.6000000000000D-01  1.2026817328802D+00 -7.9981752695001D-01
    98  9.7000000000000D-01  1.2214435663964D+00 -7.9228689516505D-01
    99  9.8000000000000D-01  1.2391375345249D+00 -7.8234111554243D-01
   100  9.9000000000000D-01  1.2555753795783D+00 -7.7012547008096D-01
   101  1.0000000000000D+00  1.2705749784539D+00 -7.5579213991095D-01
   102  1.0100000000000D+00  1.2839620658844D+00 -7.3949907173961D-01
   103  1.0200000000000D+00  1.2955718852561D+00 -7.2140883193575D-01
   104  1.0300000000000D+00  1.3052507509177D+00 -7.0168745729825D-01
   105  1.0400000000000D+00  1.3128575068171D+00 -6.8050331142377D-01
   106  1.0500000000000D+00  1.3182648673644D+00 -6.5802595537885D-01
   107  1.0600000000000D+00  1.3213606275870D+00 -6.3442504110619D-01
   108  1.0700000000000D+00  1.3220487309897D+00 -6.0986923563842D-01
   109  1.0800000000000D+00  1.3202501849805D+00 -5.8452518376729D-01
   110  1.0900000000000D+00  1.3159038151470D+00 -5.5855651637852D-01
   111  1.1000000000000D+00  1.3089668514837D+00 -5.3212291106098D-01
   112  1.1100000000000D+00  1.2994153411906D+00 -5.0537921107009D-01
   113  1.1200000000000D+00  1.2872443846025D+00 -4.7847460801996D-01
   114  1.1300000000000D+00  1.2724681922558D+00 -4.5155189314017D-01
   115  1.1400000000000D+00  1.2551199632571D+00 -4.2474678109311D-01
   116  1.1500000000000D+00  1.2352515866880D+00 -3.9818730970860D-01
   117  1.1600000000000D+00  1.2129331697660D+00 -3.7199331815632D-01
   118  1.1700000000000D+00  1.1882523977426D+00 -3.4627600554022D-01
   119  1.1800000000000D+00  1.1613137327734D+00 -3.2113757089552D-01
   120  1.1900000000000D+00  1.1322374602771D+00 -2.9667093495518D-01
   121  1.2000000000000D+00  1.1011585928975D+00 -2.7295954327410D-01
   122  1.2100000000000D+00  1.0682256433139D+00 -2.5007724975030D-01
   123  1.2200000000000D+00  1.0335992789608D+00 -2.2808827861272D-01
   124  1.2300000000000D+00  9.9745087254405D-01 -2.0704726241827D-01
   125  1.2400000000000D+00  9.5996096296615D-01 -1.8699935322136D-01
   126  1.2500000000000D+00  9.2131764276786D-01 -1.6798040310220D-01
   127  1.2600000000000D+00  8.8171488843735D-01 -1.5001720991405D-01
   128  1.2700000000000D+00  8.4135085039597D-01 -1.3312782380698D-01
   129  1.2800000000000D+00  8.0042612019248D-01 -1.1732190937707D-01
   130  1.2900000000000D+00  7.5914199218546D-01 -1.0260115805153D-01
   131  1.3000000000000D+00  7.1769873719795D-01 -8.8959745198206D-02
   132  1.3100000000000D+00  6.7629390555376D-01 -7.6384825939792D-02
   133  1.3200000000000D+00  6.3512067585629D-01 -6.4857063688563D-02
   134  1.3300000000000D+00  5.9436626644210D-01 -5.4351185300580D-02
   135  1.3400000000000D+00  5.5421042480809D-01 -4.4836556586814D-02
   136  1.3500000000000D+00  5.1482400908117D-01 -3.6277772228745D-02
   137  1.3600000000000D+00  4.7636767668431D-01 -2.8635253823944D-02
   138  1.3700000000000D+00  4.3899069107767D-01 -2.1865850402864D-02
   139  1.3800000000000D+00  4.0282985846239D-01 -1.5923435710149D-02
   140  1.3900000000000D+00  3.6800860508088D-01 -1.0759496590800D-02
   141  1.4000000000000D+00  3.3463620098170D-01 -6.3237079722967D-03
   142  1.4100000000000D+00  3.0280714007657D-01 -2.5644889775306D-03
   143  1.4200000000000D+00  2.7260067899662D-01  5.7046359859161D-04
   144  1.4300000000000D+00  2.4408053861762D-01  3.1336684130335D-03
   145  1.4400000000000D+00  2.1729477179063D-01  5.1773833506125D-03
   146  1.4500000000000D+00  1.9227579297496D-01  6.7531617026535D-03
   147  1.4600000000000D+00  1.6904057313521D-01  7.9114447544685D-03
   148  1.4700000000000D+00  1.4759099149381D-01  8.7011913421679D-03
   149  1.4800000000000D+00  1.2791434178647D-01  9.1695466609363D-03
   150  1.4900000000000D+00  1.0998398576708D-01  9.3615512464612D-03
   151  1.5000000000000D+00  9.3760143388874D-02  9.3198897534038D-03
   152  1.5100000000000D+00  7.9190814082258D-02  9.0846810475621D-03
   153  1.5200000000000D+00  6.6212812436146D-02  8.6933070620764D-03
   154  1.5300000000000D+00  5.4752911726072D-02  8.1802816549032D-03
   155  1.5400000000000D+00  4.4729076751409D-02  7.5771561409318D-03
   156  1.5500000000000D+00  3.6051775511323D-02  6.9124612610745D-03
   157  1.5600000000000D+00  2.8625352089408D-02  6.2116825573340D-03
   158  1.5700000000000D+00  2.2349446606367D-02  5.4972672468048D-03
   159  1.5800000000000D+00  1.7120445140963D-02  4.7886598721000D-03
   160  1.5900000000000D+00  1.2832944243428D-02  4.1023637419752D-03
   161  1.6000000000000D+00  9.3812121493883D-03  3.4520254074248D-03
   162  1.6100000000000D+00  6.6606329052454D-03  2.8485388793050D-03
   163  1.6200000000000D+00  4.5691133246248D-03  2.3001663930944D-03
   164  1.6300000000000D+00  3.0084432678707D-03  1.8126729109226D-03
   165  1.6400000000000D+00  1.8855859916880D-03  1.3894703819543D-03
   166  1.6500000000000D+00  1.1138953873174D-03  1.0317702821056D-03
   167  1.6600000000000D+00  6.1423470687549D-04  7.3874007162747D-04
   168  1.6700000000000D+00  3.1601684284942D-04  5.0766783670261D-04
   169  1.6800000000000D+00  1.5819245953770D-04  3.3416728526947D-04
   170  1.6900000000000D+00  8.9027737677343D-05  2.1178031803968D-04
   171  1.7000000000000D+00  6.8065139859670D-05  1.3254698980937D-04
   172  1.7100000000000D+00  7.0758922372938D-05  9.1520764557554D-05
   173  1.7200000000000D+00  8.0668097461650D-05  7.9970630878689D-05
   174  1.7300000000000D+00  7.4482190678057D-05  6.9064191269906D-05
   175  1.7400000000000D+00  3.9123813547988D-05  3.5702836793045D-05
   176  1.7500000000000D+00  1.7564291751189D-06  1.6071709804268D-06
   177  1.7600000000000D+00 -8.1243200879355D-06 -7.1707210987653D-06
   178  1.7700000000000D+00 -1.5347742414162D-06 -1.3492996740024D-06
   179  1.7800000000000D+00  1.7689713928312D-06  1.5641171255007D-06
   180  1.7900000000000D+00  6.6847033201652D-07  5.8941207012020D-07
   181  1.8000000000000D+00 -1.9211389315929D-07 -1.7823762697863D-07
   182  1.8100000000000D+00 -1.1998565486432D-07 -1.1131916616130D-07
   183  1.8200000000000D+00  0.0000000000000D+00  0.0000000000000D+00
   184  1.8300000000000D+00  0.0000000000000D+00  0.0000000000000D+00
   185  1.8400000000000D+00  0.0000000000000D+00  0.0000000000000D+00
   186  1.8500000000000D+00  0.0000000000000D+00  0.0000000000000D+00
   187  1.8600000000000D+00  0.0000000000000D+00  0.0000000000000D+00
   188  1.8700000000000D+00  0.0000000000000D+00  0.0000000000000D+00
   189  1.8800000000000D+00  0.0000000000000D+00  0.0000000000000D+00
   190  1.8900000000000D+00  0.0000000000000D+00  0.0000000000000D+00
   191  1.9000000000000D+00  0.0000000000000D+00  0.0000000000000D+00
   192  1.9100000000000D+00  0.0000000000000D+00  0.0000000000000D+00
   193  1.9200000000000D+00  0.0000000000000D+00  0.0000000000000D+00
   194  1.9300000000000D+00  0.0000000000000D+00  0.0000000000000D+00
   195  1.9400000000000D+00  0.0000000000000D+00  0.0000000000000D+00
   196  1.9500000000000D+00  0.0000000000000D+00  0.0000000000000D+00
   197  1.9600000000000D+00  0.0000000000000D+00  0.0000000000000D+00
   198  1.9700000000000D+00  0.0000000000000D+00  0.0000000000000D+00
   199  1.9800000000000D+00  0.0000000000000D+00  0.0000000000000D+00
   200  1.9900000000000D+00  0.0000000000000D+00  0.0000000000000D+00
   201  2.0000000000000D+00  0.0000000000000D+00  0.0000000000000D+00
   202  2.0100000000000D+00  0.0000000000000D+00  0.0000000000000D+00
   203  2.0200000000000D+00  0.0000000000000D+00  0.0000000000000D+00
   204  2.0300000000000D+00  0.0000000000000D+00  0.0000000000000D+00
   205  2.0400000000000D+00  0.0000000000000D+00  0.0000000000000D+00
   206  2.0500000000000D+00  0.0000000000000D+00  0.0000000000000D+00
   207  2.0600000000000D+00  0.0000000000000D+00  0.0000000000000D+00
   208  2.0700000000000D+00  0.0000000000000D+00  0.0000000000000D+00
   209  2.0800000000000D+00  0.0000000000000D+00  0.0000000000000D+00
   210  2.0900000000000D+00  0.0000000000000D+00  0.0000000000000D+00
   211  2.1000000000000D+00  0.0000000000000D+00  0.0000000000000D+00
   212  2.1100000000000D+00  0.0000000000000D+00  0.0000000000000D+00
   213  2.1200000000000D+00  0.0000000000000D+00  0.0000000000000D+00
   214  2.1300000000000D+00  0.0000000000000D+00  0.0000000000000D+00
   215  2.1400000000000D+00  0.0000000000000D+00  0.0000000000000D+00
   216  2.1500000000000D+00  0.0000000000000D+00  0.0000000000000D+00
   217  2.1600000000000D+00  0.0000000000000D+00  0.0000000000000D+00
   218  2.1700000000000D+00  0.0000000000000D+00  0.0000000000000D+00
   219  2.1800000000000D+00  0.0000000000000D+00  0.0000000000000D+00
   220  2.1900000000000D+00  0.0000000000000D+00  0.0000000000000D+00
   221  2.2000000000000D+00  0.0000000000000D+00  0.0000000000000D+00
   222  2.2100000000000D+00  0.0000000000000D+00  0.0000000000000D+00
   223  2.2200000000000D+00  0.0000000000000D+00  0.0000000000000D+00
   224  2.2300000000000D+00  0.0000000000000D+00  0.0000000000000D+00
   225  2.2400000000000D+00  0.0000000000000D+00  0.0000000000000D+00
   226  2.2500000000000D+00  0.0000000000000D+00  0.0000000000000D+00
   227  2.2600000000000D+00  0.0000000000000D+00  0.0000000000000D+00
   228  2.2700000000000D+00  0.0000000000000D+00  0.0000000000000D+00
   229  2.2800000000000D+00  0.0000000000000D+00  0.0000000000000D+00
   230  2.2900000000000D+00  0.0000000000000D+00  0.0000000000000D+00
   231  2.3000000000000D+00  0.0000000000000D+00  0.0000000000000D+00
   232  2.3100000000000D+00  0.0000000000000D+00  0.0000000000000D+00
   233  2.3200000000000D+00  0.0000000000000D+00  0.0000000000000D+00
   234  2.3300000000000D+00  0.0000000000000D+00  0.0000000000000D+00
   235  2.3400000000000D+00  0.0000000000000D+00  0.0000000000000D+00
   236  2.3500000000000D+00  0.0000000000000D+00  0.0000000000000D+00
   237  2.3600000000000D+00  0.0000000000000D+00  0.0000000000000D+00
   238  2.3700000000000D+00  0.0000000000000D+00  0.0000000000000D+00
   239  2.3800000000000D+00  0.0000000000000D+00  0.0000000000000D+00
   240  2.3900000000000D+00  0.0000000000000D+00  0.0000000000000D+00
   241  2.4000000000000D+00  0.0000000000000D+00  0.0000000000000D+00
   242  2.4100000000000D+00  0.0000000000000D+00  0.0000000000000D+00
   243  2.4200000000000D+00  0.0000000000000D+00  0.0000000000000D+00
   244  2.4300000000000D+00  0.0000000000000D+00  0.0000000000000D+00
   245  2.4400000000000D+00  0.0000000000000D+00  0.0000000000000D+00
   246  2.4500000000000D+00  0.0000000000000D+00  0.0000000000000D+00
   247  2.4600000000000D+00  0.0000000000000D+00  0.0000000000000D+00
   248  2.4700000000000D+00  0.0000000000000D+00  0.0000000000000D+00
   249  2.4800000000000D+00  0.0000000000000D+00  0.0000000000000D+00
   250  2.4900000000000D+00  0.0000000000000D+00  0.0000000000000D+00
   251  2.5000000000000D+00  0.0000000000000D+00  0.0000000000000D+00
   252  2.5100000000000D+00  0.0000000000000D+00  0.0000000000000D+00
   253  2.5200000000000D+00  0.0000000000000D+00  0.0000000000000D+00
   254  2.5300000000000D+00  0.0000000000000D+00  0.0000000000000D+00
   255  2.5400000000000D+00  0.0000000000000D+00  0.0000000000000D+00
   256  2.5500000000000D+00  0.0000000000000D+00  0.0000000000000D+00
   257  2.5600000000000D+00  0.0000000000000D+00  0.0000000000000D+00
   258  2.5700000000000D+00  0.0000000000000D+00  0.0000000000000D+00
   259  2.5800000000000D+00  0.0000000000000D+00  0.0000000000000D+00
   260  2.5900000000000D+00  0.0000000000000D+00  0.0000000000000D+00
   261  2.6000000000000D+00  0.0000000000000D+00  0.0000000000000D+00
   262  2.6100000000000D+00  0.0000000000000D+00  0.0000000000000D+00
   263  2.6200000000000D+00  0.0000000000000D+00  0.0000000000000D+00
   264  2.6300000000000D+00  0.0000000000000D+00  0.0000000000000D+00
   265  2.6400000000000D+00  0.0000000000000D+00  0.0000000000000D+00
   266  2.6500000000000D+00  0.0000000000000D+00  0.0000000000000D+00
   267  2.6600000000000D+00  0.0000000000000D+00  0.0000000000000D+00
   268  2.6700000000000D+00  0.0000000000000D+00  0.0000000000000D+00
   269  2.6800000000000D+00  0.0000000000000D+00  0.0000000000000D+00
   270  2.6900000000000D+00  0.0000000000000D+00  0.0000000000000D+00
   271  2.7000000000000D+00  0.0000000000000D+00  0.0000000000000D+00
   272  2.7100000000000D+00  0.0000000000000D+00  0.0000000000000D+00
   273  2.7200000000000D+00  0.0000000000000D+00  0.0000000000000D+00
   274  2.7300000000000D+00  0.0000000000000D+00  0.0000000000000D+00
   275  2.7400000000000D+00  0.0000000000000D+00  0.0000000000000D+00
   276  2.7500000000000D+00  0.0000000000000D+00  0.0000000000000D+00
   277  2.7600000000000D+00  0.0000000000000D+00  0.0000000000000D+00
   278  2.7700000000000D+00  0.0000000000000D+00  0.0000000000000D+00
   279  2.7800000000000D+00  0.0000000000000D+00  0.0000000000000D+00
   280  2.7900000000000D+00  0.0000000000000D+00  0.0000000000000D+00
   281  2.8000000000000D+00  0.0000000000000D+00  0.0000000000000D+00
   282  2.8100000000000D+00  0.0000000000000D+00  0.0000000000000D+00
   283  2.8200000000000D+00  0.0000000000000D+00  0.0000000000000D+00
   284  2.8300000000000D+00  0.0000000000000D+00  0.0000000000000D+00
   285  2.8400000000000D+00  0.0000000000000D+00  0.0000000000000D+00
   286  2.8500000000000D+00  0.0000000000000D+00  0.0000000000000D+00
   287  2.8600000000000D+00  0.0000000000000D+00  0.0000000000000D+00
   288  2.8700000000000D+00  0.0000000000000D+00  0.0000000000000D+00
   289  2.8800000000000D+00  0.0000000000000D+00  0.0000000000000D+00
   290  2.8900000000000D+00  0.0000000000000D+00  0.0000000000000D+00
   291  2.9000000000000D+00  0.0000000000000D+00  0.0000000000000D+00
   292  2.9100000000000D+00  0.0000000000000D+00  0.0000000000000D+00
   293  2.9200000000000D+00  0.0000000000000D+00  0.0000000000000D+00
   294  2.9300000000000D+00  0.0000000000000D+00  0.0000000000000D+00
   295  2.9400000000000D+00  0.0000000000000D+00  0.0000000000000D+00
   296  2.9500000000000D+00  0.0000000000000D+00  0.0000000000000D+00
   297  2.9600000000000D+00  0.0000000000000D+00  0.0000000000000D+00
   298  2.9700000000000D+00  0.0000000000000D+00  0.0000000000000D+00
   299  2.9800000000000D+00  0.0000000000000D+00  0.0000000000000D+00
   300  2.9900000000000D+00  0.0000000000000D+00  0.0000000000000D+00
   301  3.0000000000000D+00  0.0000000000000D+00  0.0000000000000D+00
   302  3.0100000000000D+00  0.0000000000000D+00  0.0000000000000D+00
   303  3.0200000000000D+00  0.0000000000000D+00  0.0000000000000D+00
   304  3.0300000000000D+00  0.0000000000000D+00  0.0000000000000D+00
   305  3.0400000000000D+00  0.0000000000000D+00  0.0000000000000D+00
   306  3.0500000000000D+00  0.0000000000000D+00  0.0000000000000D+00
   307  3.0600000000000D+00  0.0000000000000D+00  0.0000000000000D+00
   308  3.0700000000000D+00  0.0000000000000D+00  0.0000000000000D+00
   309  3.0800000000000D+00  0.0000000000000D+00  0.0000000000000D+00
   310  3.0900000000000D+00  0.0000000000000D+00  0.0000000000000D+00
   311  3.1000000000000D+00  0.0000000000000D+00  0.0000000000000D+00
   312  3.1100000000000D+00  0.0000000000000D+00  0.0000000000000D+00
   313  3.1200000000000D+00  0.0000000000000D+00  0.0000000000000D+00
   314  3.1300000000000D+00  0.0000000000000D+00  0.0000000000000D+00
   315  3.1400000000000D+00  0.0000000000000D+00  0.0000000000000D+00
   316  3.1500000000000D+00  0.0000000000000D+00  0.0000000000000D+00
   317  3.1600000000000D+00  0.0000000000000D+00  0.0000000000000D+00
   318  3.1700000000000D+00  0.0000000000000D+00  0.0000000000000D+00
   319  3.1800000000000D+00  0.0000000000000D+00  0.0000000000000D+00
   320  3.1900000000000D+00  0.0000000000000D+00  0.0000000000000D+00
   321  3.2000000000000D+00  0.0000000000000D+00  0.0000000000000D+00
   322  3.2100000000000D+00  0.0000000000000D+00  0.0000000000000D+00
   323  3.2200000000000D+00  0.0000000000000D+00  0.0000000000000D+00
   324  3.2300000000000D+00  0.0000000000000D+00  0.0000000000000D+00
   325  3.2400000000000D+00  0.0000000000000D+00  0.0000000000000D+00
   326  3.2500000000000D+00  0.0000000000000D+00  0.0000000000000D+00
   327  3.2600000000000D+00  0.0000000000000D+00  0.0000000000000D+00
   328  3.2700000000000D+00  0.0000000000000D+00  0.0000000000000D+00
   329  3.2800000000000D+00  0.0000000000000D+00  0.0000000000000D+00
   330  3.2900000000000D+00  0.0000000000000D+00  0.0000000000000D+00
   331  3.3000000000000D+00  0.0000000000000D+00  0.0000000000000D+00
   332  3.3100000000000D+00  0.0000000000000D+00  0.0000000000000D+00
   333  3.3200000000000D+00  0.0000000000000D+00  0.0000000000000D+00
   334  3.3300000000000D+00  0.0000000000000D+00  0.0000000000000D+00
   335  3.3400000000000D+00  0.0000000000000D+00  0.0000000000000D+00
   336  3.3500000000000D+00  0.0000000000000D+00  0.0000000000000D+00
   337  3.3600000000000D+00  0.0000000000000D+00  0.0000000000000D+00
   338  3.3700000000000D+00  0.0000000000000D+00  0.0000000000000D+00
   339  3.3800000000000D+00  0.0000000000000D+00  0.0000000000000D+00
   340  3.3900000000000D+00  0.0000000000000D+00  0.0000000000000D+00
   341  3.4000000000000D+00  0.0000000000000D+00  0.0000000000000D+00
   342  3.4100000000000D+00  0.0000000000000D+00  0.0000000000000D+00
   343  3.4200000000000D+00  0.0000000000000D+00  0.0000000000000D+00
   344  3.4300000000000D+00  0.0000000000000D+00  0.0000000000000D+00
   345  3.4400000000000D+00  0.0000000000000D+00  0.0000000000000D+00
   346  3.4500000000000D+00  0.0000000000000D+00  0.0000000000000D+00
   347  3.4600000000000D+00  0.0000000000000D+00  0.0000000000000D+00
   348  3.4700000000000D+00  0.0000000000000D+00  0.0000000000000D+00
   349  3.4800000000000D+00  0.0000000000000D+00  0.0000000000000D+00
   350  3.4900000000000D+00  0.0000000000000D+00  0.0000000000000D+00
   351  3.5000000000000D+00  0.0000000000000D+00  0.0000000000000D+00
   352  3.5100000000000D+00  0.0000000000000D+00  0.0000000000000D+00
   353  3.5200000000000D+00  0.0000000000000D+00  0.0000000000000D+00
   354  3.5300000000000D+00  0.0000000000000D+00  0.0000000000000D+00
   355  3.5400000000000D+00  0.0000000000000D+00  0.0000000000000D+00
   356  3.5500000000000D+00  0.0000000000000D+00  0.0000000000000D+00
   357  3.5600000000000D+00  0.0000000000000D+00  0.0000000000000D+00
   358  3.5700000000000D+00  0.0000000000000D+00  0.0000000000000D+00
   359  3.5800000000000D+00  0.0000000000000D+00  0.0000000000000D+00
   360  3.5900000000000D+00  0.0000000000000D+00  0.0000000000000D+00
   361  3.6000000000000D+00  0.0000000000000D+00  0.0000000000000D+00
   362  3.6100000000000D+00  0.0000000000000D+00  0.0000000000000D+00
   363  3.6200000000000D+00  0.0000000000000D+00  0.0000000000000D+00
   364  3.6300000000000D+00  0.0000000000000D+00  0.0000000000000D+00
   365  3.6400000000000D+00  0.0000000000000D+00  0.0000000000000D+00
   366  3.6500000000000D+00  0.0000000000000D+00  0.0000000000000D+00
   367  3.6600000000000D+00  0.0000000000000D+00  0.0000000000000D+00
   368  3.6700000000000D+00  0.0000000000000D+00  0.0000000000000D+00
   369  3.6800000000000D+00  0.0000000000000D+00  0.0000000000000D+00
   370  3.6900000000000D+00  0.0000000000000D+00  0.0000000000000D+00
   371  3.7000000000000D+00  0.0000000000000D+00  0.0000000000000D+00
   372  3.7100000000000D+00  0.0000000000000D+00  0.0000000000000D+00
   373  3.7200000000000D+00  0.0000000000000D+00  0.0000000000000D+00
   374  3.7300000000000D+00  0.0000000000000D+00  0.0000000000000D+00
   375  3.7400000000000D+00  0.0000000000000D+00  0.0000000000000D+00
   376  3.7500000000000D+00  0.0000000000000D+00  0.0000000000000D+00
   377  3.7600000000000D+00  0.0000000000000D+00  0.0000000000000D+00
   378  3.7700000000000D+00  0.0000000000000D+00  0.0000000000000D+00
   379  3.7800000000000D+00  0.0000000000000D+00  0.0000000000000D+00
   380  3.7900000000000D+00  0.0000000000000D+00  0.0000000000000D+00
   381  3.8000000000000D+00  0.0000000000000D+00  0.0000000000000D+00
   382  3.8100000000000D+00  0.0000000000000D+00  0.0000000000000D+00
   383  3.8200000000000D+00  0.0000000000000D+00  0.0000000000000D+00
   384  3.8300000000000D+00  0.0000000000000D+00  0.0000000000000D+00
   385  3.8400000000000D+00  0.0000000000000D+00  0.0000000000000D+00
   386  3.8500000000000D+00  0.0000000000000D+00  0.0000000000000D+00
   387  3.8600000000000D+00  0.0000000000000D+00  0.0000000000000D+00
   388  3.8700000000000D+00  0.0000000000000D+00  0.0000000000000D+00
   389  3.8800000000000D+00  0.0000000000000D+00  0.0000000000000D+00
   390  3.8900000000000D+00  0.0000000000000D+00  0.0000000000000D+00
   391  3.9000000000000D+00  0.0000000000000D+00  0.0000000000000D+00
   392  3.9100000000000D+00  0.0000000000000D+00  0.0000000000000D+00
   393  3.9200000000000D+00  0.0000000000000D+00  0.0000000000000D+00
   394  3.9300000000000D+00  0.0000000000000D+00  0.0000000000000D+00
   395  3.9400000000000D+00  0.0000000000000D+00  0.0000000000000D+00
   396  3.9500000000000D+00  0.0000000000000D+00  0.0000000000000D+00
   397  3.9600000000000D+00  0.0000000000000D+00  0.0000000000000D+00
   398  3.9700000000000D+00  0.0000000000000D+00  0.0000000000000D+00
   399  3.9800000000000D+00  0.0000000000000D+00  0.0000000000000D+00
   400  3.9900000000000D+00  0.0000000000000D+00  0.0000000000000D+00
   401  4.0000000000000D+00  0.0000000000000D+00  0.0000000000000D+00
   402  4.0100000000000D+00  0.0000000000000D+00  0.0000000000000D+00
   403  4.0200000000000D+00  0.0000000000000D+00  0.0000000000000D+00
   404  4.0300000000000D+00  0.0000000000000D+00  0.0000000000000D+00
   405  4.0400000000000D+00  0.0000000000000D+00  0.0000000000000D+00
   406  4.0500000000000D+00  0.0000000000000D+00  0.0000000000000D+00
   407  4.0600000000000D+00  0.0000000000000D+00  0.0000000000000D+00
   408  4.0700000000000D+00  0.0000000000000D+00  0.0000000000000D+00
   409  4.0800000000000D+00  0.0000000000000D+00  0.0000000000000D+00
   410  4.0900000000000D+00  0.0000000000000D+00  0.0000000000000D+00
   411  4.1000000000000D+00  0.0000000000000D+00  0.0000000000000D+00
   412  4.1100000000000D+00  0.0000000000000D+00  0.0000000000000D+00
   413  4.1200000000000D+00  0.0000000000000D+00  0.0000000000000D+00
   414  4.1300000000000D+00  0.0000000000000D+00  0.0000000000000D+00
   415  4.1400000000000D+00  0.0000000000000D+00  0.0000000000000D+00
   416  4.1500000000000D+00  0.0000000000000D+00  0.0000000000000D+00
   417  4.1600000000000D+00  0.0000000000000D+00  0.0000000000000D+00
   418  4.1700000000000D+00  0.0000000000000D+00  0.0000000000000D+00
   419  4.1800000000000D+00  0.0000000000000D+00  0.0000000000000D+00
   420  4.1900000000000D+00  0.0000000000000D+00  0.0000000000000D+00
   421  4.2000000000000D+00  0.0000000000000D+00  0.0000000000000D+00
   422  4.2100000000000D+00  0.0000000000000D+00  0.0000000000000D+00