W     ONCVPSP-3.3.1  r_core=   2.17082   2.22323   1.90387   3.06802
     74.0000     28.0000      210904    zatom,zion,pspd
     8       2   3     4   600     0    pspcod,pspxc,lmax,lloc,mmax,r2well
  5.99000000  0.00000000  0.00000000    rchrg fchrg qchrg
     2     4     4     3    nproj
     3     1           extension_switch
     4     4     3    nprojso
   0                         9.3118989625298D-01  7.8848068700434D+00
     1  0.0000000000000D+00 -2.0113674614741D-11  9.6382901659808D-12
     2  1.0000000000000D-02 -1.4951759168565D-02  6.1002671914952D-02
     3  2.0000000000000D-02 -2.9832472982093D-02  1.2190467621839D-01
     4  3.0000000000000D-02 -4.4571227105270D-02  1.8260550918437D-01
     5  4.0000000000000D-02 -5.9097369485565D-02  2.4300499483457D-01
     6  5.0000000000000D-02 -7.3340642097816D-02  3.0300344875078D-01
     7  6.0000000000000D-02 -8.7231313398329D-02  3.6250184180704D-01
     8  7.0000000000000D-02 -1.0070031170126D-01  4.2140196378310D-01
     9  8.0000000000000D-02 -1.1367935966997D-01  4.7960658681155D-01
    10  9.0000000000000D-02 -1.2610111009125D-01  5.3701962859892D-01
    11  1.0000000000000D-01 -1.3789928307129D-01  5.9354631534715D-01
    12  1.1000000000000D-01 -1.4900880475853D-01  6.4909334428603D-01
    13  1.2000000000000D-01 -1.5936594766169D-01  7.0356904570922D-01
    14  1.3000000000000D-01 -1.6890847258998D-01  7.5688354438729D-01
    15  1.4000000000000D-01 -1.7757577219894D-01  8.0894892021031D-01
    16  1.5000000000000D-01 -1.8530901607820D-01  8.5967936789018D-01
    17  1.6000000000000D-01 -1.9205129726862D-01  9.0899135553032D-01
    18  1.7000000000000D-01 -1.9774778004515D-01  9.5680378184571D-01
    19  1.8000000000000D-01 -2.0234584874933D-01  1.0030381317924D+00
    20  1.9000000000000D-01 -2.0579525740222D-01  1.0476186303404D+00
    21  2.0000000000000D-01 -2.0804827977466D-01  1.0904723940998D+00
    22  2.1000000000000D-01 -2.0905985953832D-01  1.1315295804842D+00
    23  2.2000000000000D-01 -2.0878776006805D-01  1.1707235340725D+00
    24  2.3000000000000D-01 -2.0719271341426D-01  1.2079909298069D+00
    25  2.4000000000000D-01 -2.0423856791401D-01  1.2432719126417D+00
    26  2.5000000000000D-01 -1.9989243386177D-01  1.2765102332379D+00
    27  2.6000000000000D-01 -1.9412482661541D-01  1.3076533792776D+00
    28  2.7000000000000D-01 -1.8690980647141D-01  1.3366527019571D+00
    29  2.8000000000000D-01 -1.7822511460468D-01  1.3634635371989D+00
    30  2.9000000000000D-01 -1.6805230433462D-01  1.3880453211134D+00
    31  3.0000000000000D-01 -1.5637686694922D-01  1.4103616992261D+00
    32  3.1000000000000D-01 -1.4318835129445D-01  1.4303806289825D+00
    33  3.2000000000000D-01 -1.2848047631700D-01  1.4480744750347D+00
    34  3.3000000000000D-01 -1.1225123573447D-01  1.4634200968127D+00
    35  3.4000000000000D-01 -9.4502993999564D-02  1.4763989278853D+00
    36  3.5000000000000D-01 -7.5242572723108D-02  1.4869970466183D+00
    37  3.6000000000000D-01 -5.4481326725247D-02  1.4952052376479D+00
    38  3.7000000000000D-01 -3.2235208895689D-02  1.5010190436955D+00
    39  3.8000000000000D-01 -8.5248230613695D-03  1.5044388072695D+00
    40  3.9000000000000D-01  1.6624535915561D-02  1.5054697018131D+00
    41  4.0000000000000D-01  4.3182855555294D-02  1.5041217518829D+00
    42  4.1000000000000D-01  7.1115393401828D-02  1.5004098419683D+00
    43  4.2000000000000D-01  1.0038267955231D-01  1.4943537135888D+00
    44  4.3000000000000D-01  1.3094053468772D-01  1.4859779503410D+00
    45  4.4000000000000D-01  1.6274010416138D-01  1.4753119506024D+00
    46  4.5000000000000D-01  1.9572790863949D-01  1.4623898876373D+00
    47  4.6000000000000D-01  2.2984591171898D-01  1.4472506568936D+00
    48  4.7000000000000D-01  2.6503160487479D-01  1.4299378103228D+00
    49  4.8000000000000D-01  3.0121811001003D-01  1.4104994776042D+00
    50  4.9000000000000D-01  3.3833429979915D-01  1.3889882742035D+00
    51  5.0000000000000D-01  3.7630493592766D-01  1.3654611962486D+00
    52  5.1000000000000D-01  4.1505082524106D-01  1.3399795022580D+00
    53  5.2000000000000D-01  4.5448899372216D-01  1.3126085818166D+00
    54  5.3000000000000D-01  4.9453287812011D-01  1.2834178113443D+00
    55  5.4000000000000D-01  5.3509253495648D-01  1.2524803971678D+00
    56  5.5000000000000D-01  5.7607486653504D-01  1.2198732061587D+00
    57  5.6000000000000D-01  6.1738386348199D-01  1.1856765842630D+00
    58  5.7000000000000D-01  6.5892086324430D-01  1.1499741633055D+00
    59  5.8000000000000D-01  7.0058482387454D-01  1.1128526565102D+00
    60  5.9000000000000D-01  7.4227261233384D-01  1.0744016432355D+00
    61  6.0000000000000D-01  7.8387930644889D-01  1.0347133434815D+00
    62  6.1000000000000D-01  8.2529850956624D-01  9.9388238277901D-01
    63  6.2000000000000D-01  8.6642267685838D-01  9.5200554812460D-01
    64  6.3000000000000D-01  9.0714345215050D-01  9.0918153567826D-01
    65  6.4000000000000D-01  9.4735201405599D-01  8.6551069098681D-01
    66  6.5000000000000D-01  9.8693943013417D-01  8.2109474254322D-01
    67  6.6000000000000D-01  1.0257970177132D+00  7.7603652953470D-01
    68  6.7000000000000D-01  1.0638167099584D+00  7.3043972467144D-01
    69  6.8000000000000D-01  1.1008914257094D+00  6.8440855302323D-01
    70  6.9000000000000D-01  1.1369154415608D+00  6.3804750782316D-01
    71  7.0000000000000D-01  1.1717847646195D+00  5.9146106422466D-01
    72  7.1000000000000D-01  1.2053975043377D+00  5.4475339202098D-01
    73  7.2000000000000D-01  1.2376542417968D+00  4.9802806835442D-01
    74  7.3000000000000D-01  1.2684583948005D+00  4.5138779145630D-01
    75  7.4000000000000D-01  1.2977165771288D+00  4.0493409646652D-01
    76  7.5000000000000D-01  1.3253389503048D+00  3.5876707438564D-01
    77  7.6000000000000D-01  1.3512395662399D+00  3.1298509520992D-01
    78  7.7000000000000D-01  1.3753366991398D+00  2.6768453629349D-01
    79  7.8000000000000D-01  1.3975531650877D+00  2.2295951696874D-01
    80  7.9000000000000D-01  1.4178166277543D+00  1.7890164043960D-01
    81  8.0000000000000D-01  1.4360598887386D+00  1.3559974393883D-01
    82  8.1000000000000D-01  1.4522211610926D+00  9.3139658113403D-02
    83  8.2000000000000D-01  1.4662443246567D+00  5.1603976568875D-02
    84  8.3000000000000D-01  1.4780791618984D+00  1.1071836466418D-02
    85  8.4000000000000D-01  1.4876815730345D+00 -2.8381288976280D-02
    86  8.5000000000000D-01  1.4950137693029D+00 -6.6683785275853D-02
    87  8.6000000000000D-01  1.5000444433479D+00 -1.0376807801236D-01
    88  8.7000000000000D-01  1.5027489157854D+00 -1.3957079999840D-01
    89  8.8000000000000D-01  1.5031092571227D+00 -1.7403294364877D-01
    90  8.9000000000000D-01  1.5011143843248D+00 -2.0709999797359D-01
    91  9.0000000000000D-01  1.4967601314334D+00 -2.3872206968313D-01
    92  9.1000000000000D-01  1.4900492937733D+00 -2.6885398796095D-01
    93  9.2000000000000D-01  1.4809916454044D+00 -2.9745539253246D-01
    94  9.3000000000000D-01  1.4696039296072D+00 -3.2449080472885D-01
    95  9.4000000000000D-01  1.4559098223227D+00 -3.4992968132085D-01
    96  9.5000000000000D-01  1.4399398685983D+00 -3.7374645097187D-01
    97  9.6000000000000D-01  1.4217313922233D+00 -3.9592053323698D-01
    98  9.7000000000000D-01  1.4013283788737D+00 -4.1643634011104D-01
    99  9.8000000000000D-01  1.3787813332125D+00 -4.3528326020610D-01
   100  9.9000000000000D-01  1.3541471105227D+00 -4.5245562571438D-01
   101  1.0000000000000D+00  1.3274887235780D+00 -4.6795266238923D-01
   102  1.0100000000000D+00  1.2988751255738D+00 -4.8177842284995D-01
   103  1.0200000000000D+00  1.2683809700684D+00 -4.9394170359120D-01
   104  1.0300000000000D+00  1.2360863489824D+00 -5.0445594614374D-01
   105  1.0400000000000D+00  1.2020765098296D+00 -5.1333912290653D-01
   106  1.0500000000000D+00  1.1664415534384D+00 -5.2061360823209D-01
   107  1.0600000000000D+00  1.1292761135255D+00 -5.2630603540986D-01
   108  1.0700000000000D+00  1.0906790195659D+00 -5.3044714025136D-01
   109  1.0800000000000D+00  1.0507529444812D+00 -5.3307159203398D-01
   110  1.0900000000000D+00  1.0096040387366D+00 -5.3421781261076D-01
   111  1.1000000000000D+00  9.6734155250028D-01 -5.3392778454146D-01
   112  1.1100000000000D+00  9.2407744756529D-01 -5.3224684913851D-01
   113  1.1200000000000D+00  8.7992600077615D-01 -5.2922349536046D-01
   114  1.1300000000000D+00  8.3500340073016D-01 -5.2490914051129D-01
   115  1.1400000000000D+00  7.8942733954853D-01 -5.1935790373712D-01
   116  1.1500000000000D+00  7.4331660151742D-01 -5.1262637332670D-01
   117  1.1600000000000D+00  6.9679065039534D-01 -5.0477336883852D-01
   118  1.1700000000000D+00  6.4996921718074D-01 -4.9585969908585D-01
   119  1.1800000000000D+00  6.0297189010290D-01 -4.8594791701732D-01
   120  1.1900000000000D+00  5.5591770856780D-01 -4.7510207252507D-01
   121  1.2000000000000D+00  5.0892476274692D-01 -4.6338746420546D-01
   122  1.2100000000000D+00  4.6210980045743D-01 -4.5087039108952D-01
   123  1.2200000000000D+00  4.1558784290082D-01 -4.3761790533594D-01
   124  1.2300000000000D+00  3.6947181074615D-01 -4.2369756684988D-01
   125  1.2400000000000D+00  3.2387216202266D-01 -4.0917720078637D-01
   126  1.2500000000000D+00  2.7889654312426D-01 -3.9412465883572D-01
   127  1.2600000000000D+00  2.3464945414961D-01 -3.7860758515387D-01
   128  1.2700000000000D+00  1.9123192976168D-01 -3.6269318778709D-01
   129  1.2800000000000D+00  1.4874123656062D-01 -3.4644801635995D-01
   130  1.2900000000000D+00  1.0727058784536D-01 -3.2993774674105D-01
   131  1.3000000000000D+00  6.6908876630186D-02 -3.1322697339890D-01
   132  1.3100000000000D+00  2.7740427531489D-02 -2.9637901004686D-01
   133  1.3200000000000D+00 -1.0155231991150D-02 -2.7945569911119D-01
   134  1.3300000000000D+00 -4.6703580502155D-02 -2.6251723058464D-01
   135  1.3400000000000D+00 -8.1835291417560D-02 -2.4562197064064D-01
   136  1.3500000000000D+00 -1.1548640164567D-01 -2.2882630037822D-01
   137  1.3600000000000D+00 -1.4759845992250D-01 -2.1218446505871D-01
   138  1.3700000000000D+00 -1.7811865514427D-01 -1.9574843397952D-01
   139  1.3800000000000D+00 -2.0699992483797D-01 -1.7956777121090D-01
   140  1.3900000000000D+00 -2.3420104416090D-01 -1.6368951729709D-01
   141  1.4000000000000D+00 -2.5968669609699D-01 -1.4815808186737D-01
   142  1.4100000000000D+00 -2.8342752324404D-01 -1.3301514725659D-01
   143  1.4200000000000D+00 -3.0540016218974D-01 -1.1829958290126D-01
   144  1.4300000000000D+00 -3.2558726122017D-01 -1.0404737041196D-01
   145  1.4400000000000D+00 -3.4397748230653D-01 -9.0291539120236D-02
   146  1.4500000000000D+00 -3.6056548862436D-01 -7.7062111697855D-02
   147  1.4600000000000D+00 -3.7535191849986D-01 -6.4386059679419D-02
   148  1.4700000000000D+00 -3.8834334731063D-01 -5.2287268315020D-02
   149  1.4800000000000D+00 -3.9955223846168D-01 -4.0786510435969D-02
   150  1.4900000000000D+00 -4.0899688492745D-01 -2.9901428785164D-02
   151  1.5000000000000D+00 -4.1670134279826D-01 -1.9646526263448D-02
   152  1.5100000000000D+00 -4.2269535826574D-01 -1.0033163595184D-02
   153  1.5200000000000D+00 -4.2701428966882D-01 -1.0695636890867D-03
   154  1.5300000000000D+00 -4.2969902605941D-01  7.2391778019493D-03
   155  1.5400000000000D+00 -4.3079590393270D-01  1.4891076511569D-02
   156  1.5500000000000D+00 -4.3035662365249D-01  2.1887238557102D-02
   157  1.5600000000000D+00 -4.2843816716919D-01  2.8231835668049D-02
   158  1.5700000000000D+00 -4.2510271854875D-01  3.3932076900735D-02
   159  1.5800000000000D+00 -4.2041758891392D-01  3.8998177686500D-02
   160  1.5900000000000D+00 -4.1445514714840D-01  4.3443326879747D-02
   161  1.6000000000000D+00 -4.0729276988964D-01  4.7283656366434D-02
   162  1.6100000000000D+00 -3.9901273156465D-01  5.0538188107281D-02
   163  1.6200000000000D+00 -3.8970234533752D-01  5.3228858874382D-02
   164  1.6300000000000D+00 -3.7945345070443D-01  5.5380330429102D-02
   165  1.6400000000000D+00 -3.6836282139824D-01  5.7020097810669D-02
   166  1.6500000000000D+00 -3.5653325803324D-01  5.8178807191658D-02
   167  1.6600000000000D+00 -3.4407026023675D-01  5.8889159827733D-02
   168  1.6700000000000D+00 -3.3107946813915D-01  5.9185063331763D-02
   169  1.6800000000000D+00 -3.1766422909184D-01  5.9100779108885D-02
   170  1.6900000000000D+00 -3.0392199650658D-01  5.8669698589586D-02
   171  1.7000000000000D+00 -2.8994515979870D-01  5.7924533016769D-02
   172  1.7100000000000D+00 -2.7582150452021D-01  5.6897375598446D-02
   173  1.7200000000000D+00 -2.6163347433418D-01  5.5619393857082D-02
   174  1.7300000000000D+00 -2.4745831855112D-01  5.4120800569384D-02
   175  1.7400000000000D+00 -2.3336794428914D-01  5.2430733697773D-02
   176  1.7500000000000D+00 -2.1942888347055D-01  5.0577174454012D-02
   177  1.7600000000000D+00 -2.0570227119539D-01  4.8586871273076D-02
   178  1.7700000000000D+00 -1.9224384733835D-01  4.6485273251430D-02
   179  1.7800000000000D+00 -1.7910398325368D-01  4.4296474114741D-02
   180  1.7900000000000D+00 -1.6632773097463D-01  4.2043165690332D-02
   181  1.8000000000000D+00 -1.5395489594537D-01  3.9746601594806D-02
   182  1.8100000000000D+00 -1.4202013103109D-01  3.7426570263612D-02
   183  1.8200000000000D+00 -1.3055305195804D-01  3.5101377624258D-02
   184  1.8300000000000D+00 -1.1957837249443D-01  3.2787838800503D-02
   185  1.8400000000000D+00 -1.0911605851330D-01  3.0501278661422D-02
   186  1.8500000000000D+00 -9.9181499928459D-02  2.8255540938437D-02
   187  1.8600000000000D+00 -8.9785698642617D-02  2.6063005211065D-02
   188  1.8700000000000D+00 -8.0935472131483D-02  2.3934611827703D-02
   189  1.8800000000000D+00 -7.2633670018366D-02  2.1879893616169D-02
   190  1.8900000000000D+00 -6.4879403573346D-02  1.9907014666700D-02
   191  1.9000000000000D+00 -5.7668285309492D-02  1.8022814874288D-02
   192  1.9100000000000D+00 -5.0992678201588D-02  1.6232860366843D-02
   193  1.9200000000000D+00 -4.4841952276246D-02  1.4541498764213D-02
   194  1.9300000000000D+00 -3.9202747270492D-02  1.2951918943251D-02
   195  1.9400000000000D+00 -3.4059239746716D-02  1.1466214642597D-02
   196  1.9500000000000D+00 -2.9393412976124D-02  1.0085451244802D-02
   197  1.9600000000000D+00 -2.5185327883405D-02  8.8097351937280D-03
   198  1.9700000000000D+00 -2.1413393981084D-02  7.6382854510439D-03
   199  1.9800000000000D+00 -1.8054637667660D-02  6.5695061987150D-03
   200  1.9900000000000D+00 -1.5084967744694D-02  5.6010605072052D-03
   201  2.0000000000000D+00 -1.2479435248676D-02  4.7299439882566D-03
   202  2.0100000000000D+00 -1.0212487040349D-02  3.9525581259730D-03
   203  2.0200000000000D+00 -8.2582117689586D-03  3.2647827233118D-03
   204  2.0300000000000D+00 -6.5905754781752D-03  2.6620464515833D-03
   205  2.0400000000000D+00 -5.1836483658138D-03  2.1393959547682D-03
   206  2.0500000000000D+00 -4.0118176878600D-03  1.6915616498042D-03
   207  2.0600000000000D+00 -3.0499893023825D-03  1.3130210751674D-03
   208  2.0700000000000D+00 -2.2737746100943D-03  9.9805853637234D-04
   209  2.0800000000000D+00 -1.6596615794859D-03  7.4082050794898D-04
   210  2.0900000000000D+00 -1.1851723108252D-03  5.3536768602585D-04
   211  2.1000000000000D+00 -8.2915550583075D-04  3.7575776045970D-04
   212  2.1100000000000D+00 -5.7138880543398D-04  2.5596468153095D-04
   213  2.1200000000000D+00 -3.9285833002355D-04  1.6995030683687D-04
   214  2.1300000000000D+00 -2.7487176157797D-04  1.1134892366981D-04
   215  2.1400000000000D+00 -2.0688381853564D-04  7.5903167854782D-05
   216  2.1500000000000D+00 -1.7951850042471D-04  5.9430404107593D-05
   217  2.1600000000000D+00 -1.7204209865041D-04  5.3761198927920D-05
   218  2.1700000000000D+00 -1.5523204558847D-04  4.7833758758953D-05
   219  2.1800000000000D+00 -1.0187116779794D-04  3.1336712347155D-05
   220  2.1900000000000D+00 -3.7353942569826D-05  1.1521868598287D-05
   221  2.2000000000000D+00  8.0359877218333D-06 -2.4494189838751D-06
   222  2.2100000000000D+00  1.5620452000901D-05 -4.7594349328767D-06
   223  2.2200000000000D+00  4.8128246178188D-06 -1.4665115500335D-06
   224  2.2300000000000D+00 -2.8356370188184D-06  8.5771900419917D-07
   225  2.2400000000000D+00 -3.1019865619716D-06  9.3735647867262D-07
   226  2.2500000000000D+00  5.6887288017277D-09 -1.7529332578970D-09
   227  2.2600000000000D+00  4.1310000103976D-07 -1.2729324175903D-07
   228  2.2700000000000D+00  2.9676080149765D-07 -9.1444309742345D-08
   229  2.2800000000000D+00  0.0000000000000D+00  0.0000000000000D+00
   230  2.2900000000000D+00  0.0000000000000D+00  0.0000000000000D+00
   231  2.3000000000000D+00  0.0000000000000D+00  0.0000000000000D+00
   232  2.3100000000000D+00  0.0000000000000D+00  0.0000000000000D+00
   233  2.3200000000000D+00  0.0000000000000D+00  0.0000000000000D+00
   234  2.3300000000000D+00  0.0000000000000D+00  0.0000000000000D+00
   235  2.3400000000000D+00  0.0000000000000D+00  0.0000000000000D+00
   236  2.3500000000000D+00  0.0000000000000D+00  0.0000000000000D+00
   237  2.3600000000000D+00  0.0000000000000D+00  0.0000000000000D+00
   238  2.3700000000000D+00  0.0000000000000D+00  0.0000000000000D+00
   239  2.3800000000000D+00  0.0000000000000D+00  0.0000000000000D+00
   240  2.3900000000000D+00  0.0000000000000D+00  0.0000000000000D+00
   241  2.4000000000000D+00  0.0000000000000D+00  0.0000000000000D+00
   242  2.4100000000000D+00  0.0000000000000D+00  0.0000000000000D+00
   243  2.4200000000000D+00  0.0000000000000D+00  0.0000000000000D+00
   244  2.4300000000000D+00  0.0000000000000D+00  0.0000000000000D+00
   245  2.4400000000000D+00  0.0000000000000D+00  0.0000000000000D+00
   246  2.4500000000000D+00  0.0000000000000D+00  0.0000000000000D+00
   247  2.4600000000000D+00  0.0000000000000D+00  0.0000000000000D+00
   248  2.4700000000000D+00  0.0000000000000D+00  0.0000000000000D+00
   249  2.4800000000000D+00  0.0000000000000D+00  0.0000000000000D+00
   250  2.4900000000000D+00  0.0000000000000D+00  0.0000000000000D+00
   251  2.5000000000000D+00  0.0000000000000D+00  0.0000000000000D+00
   252  2.5100000000000D+00  0.0000000000000D+00  0.0000000000000D+00
   253  2.5200000000000D+00  0.0000000000000D+00  0.0000000000000D+00
   254  2.5300000000000D+00  0.0000000000000D+00  0.0000000000000D+00
   255  2.5400000000000D+00  0.0000000000000D+00  0.0000000000000D+00
   256  2.5500000000000D+00  0.0000000000000D+00  0.0000000000000D+00
   257  2.5600000000000D+00  0.0000000000000D+00  0.0000000000000D+00
   258  2.5700000000000D+00  0.0000000000000D+00  0.0000000000000D+00
   259  2.5800000000000D+00  0.0000000000000D+00  0.0000000000000D+00
   260  2.5900000000000D+00  0.0000000000000D+00  0.0000000000000D+00
   261  2.6000000000000D+00  0.0000000000000D+00  0.0000000000000D+00
   262  2.6100000000000D+00  0.0000000000000D+00  0.0000000000000D+00
   263  2.6200000000000D+00  0.0000000000000D+00  0.0000000000000D+00
   264  2.6300000000000D+00  0.0000000000000D+00  0.0000000000000D+00
   265  2.6400000000000D+00  0.0000000000000D+00  0.0000000000000D+00
   266  2.6500000000000D+00  0.0000000000000D+00  0.0000000000000D+00
   267  2.6600000000000D+00  0.0000000000000D+00  0.0000000000000D+00
   268  2.6700000000000D+00  0.0000000000000D+00  0.0000000000000D+00
   269  2.6800000000000D+00  0.0000000000000D+00  0.0000000000000D+00
   270  2.6900000000000D+00  0.0000000000000D+00  0.0000000000000D+00
   271  2.7000000000000D+00  0.0000000000000D+00  0.0000000000000D+00
   272  2.7100000000000D+00  0.0000000000000D+00  0.0000000000000D+00
   273  2.7200000000000D+00  0.0000000000000D+00  0.0000000000000D+00
   274  2.7300000000000D+00  0.0000000000000D+00  0.0000000000000D+00
   275  2.7400000000000D+00  0.0000000000000D+00  0.0000000000000D+00
   276  2.7500000000000D+00  0.0000000000000D+00  0.0000000000000D+00
   277  2.7600000000000D+00  0.0000000000000D+00  0.0000000000000D+00
   278  2.7700000000000D+00  0.0000000000000D+00  0.0000000000000D+00
   279  2.7800000000000D+00  0.0000000000000D+00  0.0000000000000D+00
   280  2.7900000000000D+00  0.0000000000000D+00  0.0000000000000D+00
   281  2.8000000000000D+00  0.0000000000000D+00  0.0000000000000D+00
   282  2.8100000000000D+00  0.0000000000000D+00  0.0000000000000D+00
   283  2.8200000000000D+00  0.0000000000000D+00  0.0000000000000D+00
   284  2.8300000000000D+00  0.0000000000000D+00  0.0000000000000D+00
   285  2.8400000000000D+00  0.0000000000000D+00  0.0000000000000D+00
   286  2.8500000000000D+00  0.0000000000000D+00  0.0000000000000D+00
   287  2.8600000000000D+00  0.0000000000000D+00  0.0000000000000D+00
   288  2.8700000000000D+00  0.0000000000000D+00  0.0000000000000D+00
   289  2.8800000000000D+00  0.0000000000000D+00  0.0000000000000D+00
   290  2.8900000000000D+00  0.0000000000000D+00  0.0000000000000D+00
   291  2.9000000000000D+00  0.0000000000000D+00  0.0000000000000D+00
   292  2.9100000000000D+00  0.0000000000000D+00  0.0000000000000D+00
   293  2.9200000000000D+00  0.0000000000000D+00  0.0000000000000D+00
   294  2.9300000000000D+00  0.0000000000000D+00  0.0000000000000D+00
   295  2.9400000000000D+00  0.0000000000000D+00  0.0000000000000D+00
   296  2.9500000000000D+00  0.0000000000000D+00  0.0000000000000D+00
   297  2.9600000000000D+00  0.0000000000000D+00  0.0000000000000D+00
   298  2.9700000000000D+00  0.0000000000000D+00  0.0000000000000D+00
   299  2.9800000000000D+00  0.0000000000000D+00  0.0000000000000D+00
   300  2.9900000000000D+00  0.0000000000000D+00  0.0000000000000D+00
   301  3.0000000000000D+00  0.0000000000000D+00  0.0000000000000D+00
   302  3.0100000000000D+00  0.0000000000000D+00  0.0000000000000D+00
   303  3.0200000000000D+00  0.0000000000000D+00  0.0000000000000D+00
   304  3.0300000000000D+00  0.0000000000000D+00  0.0000000000000D+00
   305  3.0400000000000D+00  0.0000000000000D+00  0.0000000000000D+00
   306  3.0500000000000D+00  0.0000000000000D+00  0.0000000000000D+00
   307  3.0600000000000D+00  0.0000000000000D+00  0.0000000000000D+00
   308  3.0700000000000D+00  0.0000000000000D+00  0.0000000000000D+00
   309  3.0800000000000D+00  0.0000000000000D+00  0.0000000000000D+00
   310  3.0900000000000D+00  0.0000000000000D+00  0.0000000000000D+00
   311  3.1000000000000D+00  0.0000000000000D+00  0.0000000000000D+00
   312  3.1100000000000D+00  0.0000000000000D+00  0.0000000000000D+00
   313  3.1200000000000D+00  0.0000000000000D+00  0.0000000000000D+00
   314  3.1300000000000D+00  0.0000000000000D+00  0.0000000000000D+00
   315  3.1400000000000D+00  0.0000000000000D+00  0.0000000000000D+00
   316  3.1500000000000D+00  0.0000000000000D+00  0.0000000000000D+00
   317  3.1600000000000D+00  0.0000000000000D+00  0.0000000000000D+00
   318  3.1700000000000D+00  0.0000000000000D+00  0.0000000000000D+00
   319  3.1800000000000D+00  0.0000000000000D+00  0.0000000000000D+00
   320  3.1900000000000D+00  0.0000000000000D+00  0.0000000000000D+00
   321  3.2000000000000D+00  0.0000000000000D+00  0.0000000000000D+00
   322  3.2100000000000D+00  0.0000000000000D+00  0.0000000000000D+00
   323  3.2200000000000D+00  0.0000000000000D+00  0.0000000000000D+00
   324  3.2300000000000D+00  0.0000000000000D+00  0.0000000000000D+00
   325  3.2400000000000D+00  0.0000000000000D+00  0.0000000000000D+00
   326  3.2500000000000D+00  0.0000000000000D+00  0.0000000000000D+00
   327  3.2600000000000D+00  0.0000000000000D+00  0.0000000000000D+00
   328  3.2700000000000D+00  0.0000000000000D+00  0.0000000000000D+00
   329  3.2800000000000D+00  0.0000000000000D+00  0.0000000000000D+00
   330  3.2900000000000D+00  0.0000000000000D+00  0.0000000000000D+00
   331  3.3000000000000D+00  0.0000000000000D+00  0.0000000000000D+00
   332  3.3100000000000D+00  0.0000000000000D+00  0.0000000000000D+00
   333  3.3200000000000D+00  0.0000000000000D+00  0.0000000000000D+00
   334  3.3300000000000D+00  0.0000000000000D+00  0.0000000000000D+00
   335  3.3400000000000D+00  0.0000000000000D+00  0.0000000000000D+00
   336  3.3500000000000D+00  0.0000000000000D+00  0.0000000000000D+00
   337  3.3600000000000D+00  0.0000000000000D+00  0.0000000000000D+00
   338  3.3700000000000D+00  0.0000000000000D+00  0.0000000000000D+00
   339  3.3800000000000D+00  0.0000000000000D+00  0.0000000000000D+00
   340  3.3900000000000D+00  0.0000000000000D+00  0.0000000000000D+00
   341  3.4000000000000D+00  0.0000000000000D+00  0.0000000000000D+00
   342  3.4100000000000D+00  0.0000000000000D+00  0.0000000000000D+00
   343  3.4200000000000D+00  0.0000000000000D+00  0.0000000000000D+00
   344  3.4300000000000D+00  0.0000000000000D+00  0.0000000000000D+00
   345  3.4400000000000D+00  0.0000000000000D+00  0.0000000000000D+00
   346  3.4500000000000D+00  0.0000000000000D+00  0.0000000000000D+00
   347  3.4600000000000D+00  0.0000000000000D+00  0.0000000000000D+00
   348  3.4700000000000D+00  0.0000000000000D+00  0.0000000000000D+00
   349  3.4800000000000D+00  0.0000000000000D+00  0.0000000000000D+00
   350  3.4900000000000D+00  0.0000000000000D+00  0.0000000000000D+00
   351  3.5000000000000D+00  0.0000000000000D+00  0.0000000000000D+00
   352  3.5100000000000D+00  0.0000000000000D+00  0.0000000000000D+00
   353  3.5200000000000D+00  0.0000000000000D+00  0.0000000000000D+00
   354  3.5300000000000D+00  0.0000000000000D+00  0.0000000000000D+00
   355  3.5400000000000D+00  0.0000000000000D+00  0.0000000000000D+00
   356  3.5500000000000D+00  0.0000000000000D+00  0.0000000000000D+00
   357  3.5600000000000D+00  0.0000000000000D+00  0.0000000000000D+00
   358  3.5700000000000D+00  0.0000000000000D+00  0.0000000000000D+00
   359  3.5800000000000D+00  0.0000000000000D+00  0.0000000000000D+00
   360  3.5900000000000D+00  0.0000000000000D+00  0.0000000000000D+00
   361  3.6000000000000D+00  0.0000000000000D+00  0.0000000000000D+00
   362  3.6100000000000D+00  0.0000000000000D+00  0.0000000000000D+00
   363  3.6200000000000D+00  0.0000000000000D+00  0.0000000000000D+00
   364  3.6300000000000D+00  0.0000000000000D+00  0.0000000000000D+00
   365  3.6400000000000D+00  0.0000000000000D+00  0.0000000000000D+00
   366  3.6500000000000D+00  0.0000000000000D+00  0.0000000000000D+00
   367  3.6600000000000D+00  0.0000000000000D+00  0.0000000000000D+00
   368  3.6700000000000D+00  0.0000000000000D+00  0.0000000000000D+00
   369  3.6800000000000D+00  0.0000000000000D+00  0.0000000000000D+00
   370  3.6900000000000D+00  0.0000000000000D+00  0.0000000000000D+00
   371  3.7000000000000D+00  0.0000000000000D+00  0.0000000000000D+00
   372  3.7100000000000D+00  0.0000000000000D+00  0.0000000000000D+00
   373  3.7200000000000D+00  0.0000000000000D+00  0.0000000000000D+00
   374  3.7300000000000D+00  0.0000000000000D+00  0.0000000000000D+00
   375  3.7400000000000D+00  0.0000000000000D+00  0.0000000000000D+00
   376  3.7500000000000D+00  0.0000000000000D+00  0.0000000000000D+00
   377  3.7600000000000D+00  0.0000000000000D+00  0.0000000000000D+00
   378  3.7700000000000D+00  0.0000000000000D+00  0.0000000000000D+00
   379  3.7800000000000D+00  0.0000000000000D+00  0.0000000000000D+00
   380  3.7900000000000D+00  0.0000000000000D+00  0.0000000000000D+00
   381  3.8000000000000D+00  0.0000000000000D+00  0.0000000000000D+00
   382  3.8100000000000D+00  0.0000000000000D+00  0.0000000000000D+00
   383  3.8200000000000D+00  0.0000000000000D+00  0.0000000000000D+00
   384  3.8300000000000D+00  0.0000000000000D+00  0.0000000000000D+00
   385  3.8400000000000D+00  0.0000000000000D+00  0.0000000000000D+00
   386  3.8500000000000D+00  0.0000000000000D+00  0.0000000000000D+00
   387  3.8600000000000D+00  0.0000000000000D+00  0.0000000000000D+00
   388  3.8700000000000D+00  0.0000000000000D+00  0.0000000000000D+00
   389  3.8800000000000D+00  0.0000000000000D+00  0.0000000000000D+00
   390  3.8900000000000D+00  0.0000000000000D+00  0.0000000000000D+00
   391  3.9000000000000D+00  0.0000000000000D+00  0.0000000000000D+00
   392  3.9100000000000D+00  0.0000000000000D+00  0.0000000000000D+00
   393  3.9200000000000D+00  0.0000000000000D+00  0.0000000000000D+00
   394  3.9300000000000D+00  0.0000000000000D+00  0.0000000000000D+00
   395  3.9400000000000D+00  0.0000000000000D+00  0.0000000000000D+00
   396  3.9500000000000D+00  0.0000000000000D+00  0.0000000000000D+00
   397  3.9600000000000D+00  0.0000000000000D+00  0.0000000000000D+00
   398  3.9700000000000D+00  0.0000000000000D+00  0.0000000000000D+00
   399  3.9800000000000D+00  0.0000000000000D+00  0.0000000000000D+00
   400  3.9900000000000D+00  0.0000000000000D+00  0.0000000000000D+00
   401  4.0000000000000D+00  0.0000000000000D+00  0.0000000000000D+00
   402  4.0100000000000D+00  0.0000000000000D+00  0.0000000000000D+00
   403  4.0200000000000D+00  0.0000000000000D+00  0.0000000000000D+00
   404  4.0300000000000D+00  0.0000000000000D+00  0.0000000000000D+00
   405  4.0400000000000D+00  0.0000000000000D+00  0.0000000000000D+00
   406  4.0500000000000D+00  0.0000000000000D+00  0.0000000000000D+00
   407  4.0600000000000D+00  0.0000000000000D+00  0.0000000000000D+00
   408  4.0700000000000D+00  0.0000000000000D+00  0.0000000000000D+00
   409  4.0800000000000D+00  0.0000000000000D+00  0.0000000000000D+00
   410  4.0900000000000D+00  0.0000000000000D+00  0.0000000000000D+00
   411  4.1000000000000D+00  0.0000000000000D+00  0.0000000000000D+00
   412  4.1100000000000D+00  0.0000000000000D+00  0.0000000000000D+00
   413  4.1200000000000D+00  0.0000000000000D+00  0.0000000000000D+00
   414  4.1300000000000D+00  0.0000000000000D+00  0.0000000000000D+00
   415  4.1400000000000D+00  0.0000000000000D+00  0.0000000000000D+00
   416  4.1500000000000D+00  0.0000000000000D+00  0.0000000000000D+00
   417  4.1600000000000D+00  0.0000000000000D+00  0.0000000000000D+00
   418  4.1700000000000D+00  0.0000000000000D+00  0.0000000000000D+00
   419  4.1800000000000D+00  0.0000000000000D+00  0.0000000000000D+00
   420  4.1900000000000D+00  0.0000000000000D+00  0.0000000000000D+00
   421  4.2000000000000D+00  0.0000000000000D+00  0.0000000000000D+00
   422  4.2100000000000D+00  0.0000000000000D+00  0.0000000000000D+00