Xe    ONCVPSP-3.3.1  r_core=   3.01052   3.01052   2.70406
     54.0000     18.0000      210904    zatom,zion,pspd
     8       2   2     4   600     0    pspcod,pspxc,lmax,lloc,mmax,r2well
  5.99000000  0.00000000  0.00000000    rchrg fchrg qchrg
     2     4     2     0    nproj
     3     1           extension_switch
     4     3     0    nprojso
   0                         4.9819872413317D-01  4.5596355733393D+00
     1  0.0000000000000D+00 -7.4538986094552D-13  3.5749181392930D-13
     2  1.0000000000000D-02 -1.5574416874673D-02  3.2124574945059D-02
     3  2.0000000000000D-02 -3.1124189682937D-02  6.4227586859515D-02
     4  3.0000000000000D-02 -4.6624694870654D-02  9.6287485603672D-02
     5  4.0000000000000D-02 -6.2051349927637D-02  1.2828274683029D-01
     6  5.0000000000000D-02 -7.7379633957938D-02  1.6019188490736D-01
     7  6.0000000000000D-02 -9.2585108307588D-02  1.9199346587244D-01
     8  7.0000000000000D-02 -1.0764343726802D-01  2.2366612042864D-01
     9  8.0000000000000D-02 -1.2253040887269D-01  2.5518855699215D-01
    10  9.0000000000000D-02 -1.3722195580342D-01  2.8653957480029D-01
    11  1.0000000000000D-01 -1.5169417642188D-01  3.1769807708916D-01
    12  1.1000000000000D-01 -1.6592335594038D-01  3.4864308434879D-01
    13  1.2000000000000D-01 -1.7988598774450D-01  3.7935374766331D-01
    14  1.3000000000000D-01 -1.9355879487874D-01  4.0980936214275D-01
    15  1.4000000000000D-01 -2.0691875170418D-01  4.3998938045226D-01
    16  1.5000000000000D-01 -2.1994310573573D-01  4.6987342644363D-01
    17  1.6000000000000D-01 -2.3260939966390D-01  4.9944130889287D-01
    18  1.7000000000000D-01 -2.4489549356421D-01  5.2867303534676D-01
    19  1.8000000000000D-01 -2.5677958729501D-01  5.5754882607998D-01
    20  1.9000000000000D-01 -2.6824024308170D-01  5.8604912816330D-01
    21  2.0000000000000D-01 -2.7925640828327D-01  6.1415462964208D-01
    22  2.1000000000000D-01 -2.8980743833414D-01  6.4184627382322D-01
    23  2.2000000000000D-01 -2.9987311985163D-01  6.6910527366695D-01
    24  2.3000000000000D-01 -3.0943369389676D-01  6.9591312627910D-01
    25  2.4000000000000D-01 -3.1846987937307D-01  7.2225162749758D-01
    26  2.5000000000000D-01 -3.2696289654549D-01  7.4810288656576D-01
    27  2.6000000000000D-01 -3.3489449065818D-01  7.7344934088374D-01
    28  2.7000000000000D-01 -3.4224695562773D-01  7.9827377082744D-01
    29  2.8000000000000D-01 -3.4900315778471D-01  8.2255931462353D-01
    30  2.9000000000000D-01 -3.5514655963423D-01  8.4628948326721D-01
    31  3.0000000000000D-01 -3.6066124360288D-01  8.6944817546825D-01
    32  3.1000000000000D-01 -3.6553193573697D-01  8.9201969260913D-01
    33  3.2000000000000D-01 -3.6974402931394D-01  9.1398875369813D-01
    34  3.3000000000000D-01 -3.7328360832639D-01  9.3534051029845D-01
    35  3.4000000000000D-01 -3.7613747079543D-01  9.5606056141328D-01
    36  3.5000000000000D-01 -3.7829315186767D-01  9.7613496830550D-01
    37  3.6000000000000D-01 -3.7973894664758D-01  9.9555026922931D-01
    38  3.7000000000000D-01 -3.8046393271512D-01  1.0142934940500D+00
    39  3.8000000000000D-01 -3.8045799227584D-01  1.0323521787268D+00
    40  3.9000000000000D-01 -3.7971183388918D-01  1.0497143796327D+00
    41  4.0000000000000D-01 -3.7821701371856D-01  1.0663686876844D+00
    42  4.1000000000000D-01 -3.7596595624543D-01  1.0823042422539D+00
    43  4.2000000000000D-01 -3.7295197438773D-01  1.0975107448331D+00
    44  4.3000000000000D-01 -3.6916928896223D-01  1.1119784724219D+00
    45  4.4000000000000D-01 -3.6461304742887D-01  1.1256982906086D+00
    46  4.5000000000000D-01 -3.5927934185448D-01  1.1386616663129D+00
    47  4.6000000000000D-01 -3.5316522603268D-01  1.1508606801581D+00
    48  4.7000000000000D-01 -3.4626873169615D-01  1.1622880384421D+00
    49  4.8000000000000D-01 -3.3858888375734D-01  1.1729370846746D+00
    50  4.9000000000000D-01 -3.3012571451385D-01  1.1828018106473D+00
    51  5.0000000000000D-01 -3.2088027675469D-01  1.1918768670047D+00
    52  5.1000000000000D-01 -3.1085465570447D-01  1.2001575732833D+00
    53  5.2000000000000D-01 -3.0005197974309D-01  1.2076399273863D+00
    54  5.3000000000000D-01 -2.8847642983963D-01  1.2143206144616D+00
    55  5.4000000000000D-01 -2.7613324764033D-01  1.2201970151506D+00
    56  5.5000000000000D-01 -2.6302874215225D-01  1.2252672131769D+00
    57  5.6000000000000D-01 -2.4917029496553D-01  1.2295300022439D+00
    58  5.7000000000000D-01 -2.3456636395977D-01  1.2329848922101D+00
    59  5.8000000000000D-01 -2.1922648544175D-01  1.2356321145133D+00
    60  5.9000000000000D-01 -2.0316127466460D-01  1.2374726268152D+00
    61  6.0000000000000D-01 -1.8638242468100D-01  1.2385081168381D+00
    62  6.1000000000000D-01 -1.6890270348615D-01  1.2387410053669D+00
    63  6.2000000000000D-01 -1.5073594940934D-01  1.2381744483930D+00
    64  6.3000000000000D-01 -1.3189706471626D-01  1.2368123383731D+00
    65  6.4000000000000D-01 -1.1240200738810D-01  1.2346593045829D+00
    66  6.5000000000000D-01 -9.2267781047131D-02  1.2317207125439D+00
    67  6.6000000000000D-01 -7.1512423002241D-02  1.2280026625027D+00
    68  6.7000000000000D-01 -5.0154990392718D-02  1.2235119869473D+00
    69  6.8000000000000D-01 -2.8215544412227D-02  1.2182562471425D+00
    70  6.9000000000000D-01 -5.7151326000609D-03  1.2122437286713D+00
    71  7.0000000000000D-01  1.7324230808973D-02  1.2054834359709D+00
    72  7.1000000000000D-01  4.0879586479779D-02  1.1979850858516D+00
    73  7.2000000000000D-01  6.4927053515906D-02  1.1897590999926D+00
    74  7.3000000000000D-01  8.9441854936020D-02  1.1808165964078D+00
    75  7.4000000000000D-01  1.1439834507663D-01  1.1711693798779D+00
    76  7.5000000000000D-01  1.3977003890426D-01  1.1608299313492D+00
    77  7.6000000000000D-01  1.6552964321543D-01  1.1498113962980D+00
    78  7.7000000000000D-01  1.9164908969721D-01  1.1381275720662D+00
    79  7.8000000000000D-01  2.1809956981592D-01  1.1257928941718D+00
    80  7.9000000000000D-01  2.4485157149623D-01  1.1128224216049D+00
    81  8.0000000000000D-01  2.7187491754751D-01  1.0992318211175D+00
    82  8.1000000000000D-01  2.9913880578908D-01  1.0850373505224D+00
    83  8.2000000000000D-01  3.2661185082078D-01  1.0702558410147D+00
    84  8.3000000000000D-01  3.5426212737991D-01  1.0549046785355D+00
    85  8.4000000000000D-01  3.8205721522075D-01  1.0390017841976D+00
    86  8.5000000000000D-01  4.0996424544776D-01  1.0225655937953D+00
    87  8.6000000000000D-01  4.3794994822850D-01  1.0056150364249D+00
    88  8.7000000000000D-01  4.6598070180785D-01  9.8816951224183D-01
    89  8.8000000000000D-01  4.9402258274031D-01  9.7024886938546D-01
    90  8.9000000000000D-01  5.2204141725276D-01  9.5187338010243D-01
    91  9.0000000000000D-01  5.5000283364568D-01  9.3306371610381D-01
    92  9.1000000000000D-01  5.7787231563720D-01  9.1384092319157D-01
    93  9.2000000000000D-01  6.0561525654978D-01  8.9422639519308D-01
    94  9.3000000000000D-01  6.3319701423644D-01  8.7424184724385D-01
    95  9.4000000000000D-01  6.6058296663952D-01  8.5390928846079D-01
    96  9.5000000000000D-01  6.8773856787216D-01  8.3325099404991D-01
    97  9.6000000000000D-01  7.1462940470967D-01  8.1228947689425D-01
    98  9.7000000000000D-01  7.4122125337542D-01  7.9104745866931D-01
    99  9.8000000000000D-01  7.6748013650369D-01  7.6954784053476D-01
   100  9.9000000000000D-01  7.9337238015967D-01  7.4781367345273D-01
   101  1.0000000000000D+00  8.1886467079547D-01  7.2586812818398D-01
   102  1.0100000000000D+00  8.4392411201947D-01  7.0373446501469D-01
   103  1.0200000000000D+00  8.6851828105521D-01  6.8143600326736D-01
   104  1.0300000000000D+00  8.9261528476553D-01  6.5899609065051D-01
   105  1.0400000000000D+00  9.1618381511731D-01  6.3643807250231D-01
   106  1.0500000000000D+00  9.3919320396187D-01  6.1378526098403D-01
   107  1.0600000000000D+00  9.6161347700685D-01  5.9106090427987D-01
   108  1.0700000000000D+00  9.8341540685583D-01  5.6828815585971D-01
   109  1.0800000000000D+00  1.0045705649929D+00  5.4549004386184D-01
   110  1.0900000000000D+00  1.0250513725908D+00  5.2268944065269D-01
   111  1.1000000000000D+00  1.0448311500243D+00  4.9990903262037D-01
   112  1.1100000000000D+00  1.0638841649688D+00  4.7717129025887D-01
   113  1.1200000000000D+00  1.0821856789724D+00  4.5449843859923D-01
   114  1.1300000000000D+00  1.0997119923864D+00  4.3191242804341D-01
   115  1.1400000000000D+00  1.1164404875472D+00  4.0943490565616D-01
   116  1.1500000000000D+00  1.1323496701029D+00  3.8708718696920D-01
   117  1.1600000000000D+00  1.1474192083824D+00  3.6489022835125D-01
   118  1.1700000000000D+00  1.1616299707104D+00  3.4286459999617D-01
   119  1.1800000000000D+00  1.1749640605740D+00  3.2103045958043D-01
   120  1.1900000000000D+00  1.1874048495521D+00  2.9940752663979D-01
   121  1.2000000000000D+00  1.1989370079238D+00  2.7801505771359D-01
   122  1.2100000000000D+00  1.2095465328781D+00  2.5687182230330D-01
   123  1.2200000000000D+00  1.2192207742504D+00  2.3599607969034D-01
   124  1.2300000000000D+00  1.2279484577192D+00  2.1540555665688D-01
   125  1.2400000000000D+00  1.2357197054007D+00  1.9511742615045D-01
   126  1.2500000000000D+00  1.2425260537878D+00  1.7514828693137D-01
   127  1.2600000000000D+00  1.2483604689815D+00  1.5551414424122D-01
   128  1.2700000000000D+00  1.2532173591736D+00  1.3623039152627D-01
   129  1.2800000000000D+00  1.2570925843473D+00  1.1731179324808D-01
   130  1.2900000000000D+00  1.2599834631603D+00  9.8772468813127D-02
   131  1.3000000000000D+00  1.2618887769935D+00  8.0625877647496D-02
   132  1.3100000000000D+00  1.2628087711496D+00  6.2884805441738D-02
   133  1.3200000000000D+00  1.2627451531887D+00  4.5561351590300D-02
   134  1.3300000000000D+00  1.2617010884045D+00  2.8666917843110D-02
   135  1.3400000000000D+00  1.2596811924464D+00  1.2212198187259D-02
   136  1.3500000000000D+00  1.2566915210960D+00 -3.7928300253432D-03
   137  1.3600000000000D+00  1.2527395572254D+00 -1.9338913695690D-02
   138  1.3700000000000D+00  1.2478341949579D+00 -3.4417530329222D-02
   139  1.3800000000000D+00  1.2419857210672D+00 -4.9020893115679D-02
   140  1.3900000000000D+00  1.2352057936622D+00 -6.3141954736973D-02
   141  1.4000000000000D+00  1.2275074181926D+00 -7.6774409897053D-02
   142  1.4100000000000D+00  1.2189049208436D+00 -8.9912696582006D-02
   143  1.4200000000000D+00  1.2094139193731D+00 -1.0255199605242D-01
   144  1.4300000000000D+00  1.1990512914582D+00 -1.1468823157505D-01
   145  1.4400000000000D+00  1.1878351406342D+00 -1.2631806590970D-01
   146  1.4500000000000D+00  1.1757847598912D+00 -1.3743889755660D-01
   147  1.4600000000000D+00  1.1629205930294D+00 -1.4804885578874D-01
   148  1.4700000000000D+00  1.1492641938532D+00 -1.5814679448190D-01
   149  1.4800000000000D+00  1.1348381833051D+00 -1.6773228476542D-01
   150  1.4900000000000D+00  1.1196662046443D+00 -1.7680560651983D-01
   151  1.5000000000000D+00  1.1037728767657D+00 -1.8536773874096D-01
   152  1.5100000000000D+00  1.0871837457863D+00 -1.9342034880811D-01
   153  1.5200000000000D+00  1.0699252349953D+00 -2.0096578067627D-01
   154  1.5300000000000D+00  1.0520245933040D+00 -2.0800704203488D-01
   155  1.5400000000000D+00  1.0335098423038D+00 -2.1454779046025D-01
   156  1.5500000000000D+00  1.0144097220666D+00 -2.2059231860271D-01
   157  1.5600000000000D+00  9.9475363581124D-01 -2.2614553844540D-01
   158  1.5700000000000D+00  9.7457159356624D-01 -2.3121296467343D-01
   159  1.5800000000000D+00  9.5389415496350D-01 -2.3580069719874D-01
   160  1.5900000000000D+00  9.3275237129322D-01 -2.3991540287805D-01
   161  1.6000000000000D+00  9.1117772695825D-01 -2.4356429647546D-01
   162  1.6100000000000D+00  8.8920208046129D-01 -2.4675512090700D-01
   163  1.6200000000000D+00  8.6685760506087D-01 -2.4949612682259D-01
   164  1.6300000000000D+00  8.4417672923534D-01 -2.5179605156415D-01
   165  1.6400000000000D+00  8.2119207708348D-01 -2.5366409755622D-01
   166  1.6500000000000D+00  7.9793640880701D-01 -2.5510991017133D-01
   167  1.6600000000000D+00  7.7444256139415D-01 -2.5614355512481D-01
   168  1.6700000000000D+00  7.5074338965387D-01 -2.5677549544516D-01
   169  1.6800000000000D+00  7.2687170770916D-01 -2.5701656807241D-01
   170  1.6900000000000D+00  7.0286023110186D-01 -2.5687796013361D-01
   171  1.7000000000000D+00  6.7874151960410D-01 -2.5637118494530D-01
   172  1.7100000000000D+00  6.5454792089251D-01 -2.5550805779469D-01
   173  1.7200000000000D+00  6.3031151516201D-01 -2.5430067154569D-01
   174  1.7300000000000D+00  6.0606406084202D-01 -2.5276137212457D-01
   175  1.7400000000000D+00  5.8183694146683D-01 -2.5090273392578D-01
   176  1.7500000000000D+00  5.5766111387508D-01 -2.4873753519709D-01
   177  1.7600000000000D+00  5.3356705775565D-01 -2.4627873343621D-01
   178  1.7700000000000D+00  5.0958472673503D-01 -2.4353944086438D-01
   179  1.7800000000000D+00  4.8574350097869D-01 -2.4053289999791D-01
   180  1.7900000000000D+00  4.6207214152490D-01 -2.3727245939035D-01
   181  1.8000000000000D+00  4.3859874628672D-01 -2.3377154955608D-01
   182  1.8100000000000D+00  4.1535070793776D-01 -2.3004365914977D-01
   183  1.8200000000000D+00  3.9235467361290D-01 -2.2610231140907D-01
   184  1.8300000000000D+00  3.6963650660547D-01 -2.2196104092897D-01
   185  1.8400000000000D+00  3.4722125001320D-01 -2.1763337077862D-01
   186  1.8500000000000D+00  3.2513309245345D-01 -2.1313279001513D-01
   187  1.8600000000000D+00  3.0339533584915D-01 -2.0847273161664D-01
   188  1.8700000000000D+00  2.8203036531442D-01 -2.0366655086555D-01
   189  1.8800000000000D+00  2.6105962122041D-01 -1.9872750422591D-01
   190  1.8900000000000D+00  2.4050357335051D-01 -1.9366872871140D-01
   191  1.9000000000000D+00  2.2038169732403D-01 -1.8850322181778D-01
   192  1.9100000000000D+00  2.0071245307892D-01 -1.8324382197952D-01
   193  1.9200000000000D+00  1.8151326565106D-01 -1.7790318964437D-01
   194  1.9300000000000D+00  1.6280050801616D-01 -1.7249378891556D-01
   195  1.9400000000000D+00  1.4458948615321D-01 -1.6702786983381D-01
   196  1.9500000000000D+00  1.2689442620925D-01 -1.6151745128228D-01
   197  1.9600000000000D+00  1.0972846374748D-01 -1.5597430453147D-01
   198  1.9700000000000D+00  9.3103635127819D-02 -1.5040993746235D-01
   199  1.9800000000000D+00  7.7030870803561D-02 -1.4483557941741D-01
   200  1.9900000000000D+00  6.1519990727455D-02 -1.3926216676944D-01
   201  2.0000000000000D+00  4.6579701564379D-02 -1.3370032912434D-01
   202  2.0100000000000D+00  3.2217595851474D-02 -1.2816037623316D-01
   203  2.0200000000000D+00  1.8440152933838D-02 -1.2265228557344D-01
   204  2.0300000000000D+00  5.2527416090262D-03 -1.1718569059985D-01
   205  2.0400000000000D+00 -7.3403754941958D-03 -1.1176986970041D-01
   206  2.0500000000000D+00 -1.9336036053729D-02 -1.0641373578187D-01
   207  2.0600000000000D+00 -3.0732170591159D-02 -1.0112582656387D-01
   208  2.0700000000000D+00 -4.1527793658291D-02 -9.5914295499741D-02
   209  2.0800000000000D+00 -5.1722993680066D-02 -9.0786903352896D-02
   210  2.0900000000000D+00 -6.1318921533276D-02 -8.5751010425139D-02
   211  2.1000000000000D+00 -7.0317778044179D-02 -8.0813569373804D-02
   212  2.1100000000000D+00 -7.8722800379064D-02 -7.5981118680488D-02
   213  2.1200000000000D+00 -8.6538247532971D-02 -7.1259776683125D-02
   214  2.1300000000000D+00 -9.3769384962700D-02 -6.6655236197865D-02
   215  2.1400000000000D+00 -1.0042246847206D-01 -6.2172759711871D-02
   216  2.1500000000000D+00 -1.0650472746153D-01 -5.7817175095507D-02
   217  2.1600000000000D+00 -1.1202434764811D-01 -5.3592871866266D-02
   218  2.1700000000000D+00 -1.1699045333510D-01 -4.9503797939562D-02
   219  2.1800000000000D+00 -1.2141308935439D-01 -4.5553456867806D-02
   220  2.1900000000000D+00 -1.2530320280246D-01 -4.1744905549586D-02
   221  2.2000000000000D+00 -1.2867262457740D-01 -3.8080752373706D-02
   222  2.2100000000000D+00 -1.3153405096337D-01 -3.4563155789537D-02
   223  2.2200000000000D+00 -1.3390102523166D-01 -3.1193823276412D-02
   224  2.2300000000000D+00 -1.3578791935673D-01 -2.7974010693384D-02
   225  2.2400000000000D+00 -1.3720991609394D-01 -2.4904521979552D-02
   226  2.2500000000000D+00 -1.3818299124639D-01 -2.1985709201661D-02
   227  2.2600000000000D+00 -1.3872389642999D-01 -1.9217472908448D-02
   228  2.2700000000000D+00 -1.3885014797694D-01 -1.6599261231545D-02
   229  2.2800000000000D+00 -1.3857998857014D-01 -1.4130076901500D-02
   230  2.2900000000000D+00 -1.3793240687725D-01 -1.1808468691718D-02
   231  2.3000000000000D+00 -1.3692712403594D-01 -9.6325324647198D-03
   232  2.3100000000000D+00 -1.3558445388192D-01 -7.5999480951996D-03
   233  2.3200000000000D+00 -1.3392542089805D-01 -5.7079438026132D-03
   234  2.3300000000000D+00 -1.3197187645532D-01 -3.9532635654348D-03
   235  2.3400000000000D+00 -1.2974645853446D-01 -2.3321774732090D-03
   236  2.3500000000000D+00 -1.2727210608081D-01 -8.4061510892134D-04
   237  2.3600000000000D+00 -1.2457186204358D-01  5.2578309953843D-04
   238  2.3700000000000D+00 -1.2166859801107D-01  1.7715851453830D-03
   239  2.3800000000000D+00 -1.1858486827107D-01  2.9015211130629D-03
   240  2.3900000000000D+00 -1.1534223697902D-01  3.9202923759379D-03
   241  2.4000000000000D+00 -1.1196155604768D-01  4.8326413758196D-03
   242  2.4100000000000D+00 -1.0846286831852D-01  5.6433180748590D-03
   243  2.4200000000000D+00 -1.0486562281615D-01  6.3571285184202D-03
   244  2.4300000000000D+00 -1.0118842518477D-01  6.9788610101329D-03
   245  2.4400000000000D+00 -9.7449075366805D-02  7.5132878992673D-03
   246  2.4500000000000D+00 -9.3664578344021D-02  7.9651603013583D-03
   247  2.4600000000000D+00 -8.9851105329649D-02  8.3391893373107D-03
   248  2.4700000000000D+00 -8.6023989363888D-02  8.6400365369330D-03
   249  2.4800000000000D+00 -8.2197716780496D-02  8.8723030300854D-03
   250  2.4900000000000D+00 -7.8385921821371D-02  9.0405195152837D-03
   251  2.5000000000000D+00 -7.4601383454701D-02  9.1491367468265D-03
   252  2.5100000000000D+00 -7.0856024677054D-02  9.2025166354825D-03
   253  2.5200000000000D+00 -6.7160914785106D-02  9.2049241221737D-03
   254  2.5300000000000D+00 -6.3526273720612D-02  9.1605195732325D-03
   255  2.5400000000000D+00 -5.9961478750443D-02  9.0733517892152D-03
   256  2.5500000000000D+00 -5.6475073897216D-02  8.9473517701091D-03
   257  2.5600000000000D+00 -5.3074781268679D-02  8.7863269918997D-03
   258  2.5700000000000D+00 -4.9767514481375D-02  8.5939562685834D-03
   259  2.5800000000000D+00 -4.6559394579578D-02  8.3737853435056D-03
   260  2.5900000000000D+00 -4.3455767637793D-02  8.1292229693486D-03
   261  2.6000000000000D+00 -4.0461224143715D-02  7.8635375212215D-03
   262  2.6100000000000D+00 -3.7579620581354D-02  7.5798543011661D-03
   263  2.6200000000000D+00 -3.4814102445621D-02  7.2811532970069D-03
   264  2.6300000000000D+00 -3.2167128681190D-02  6.9702674048704D-03
   265  2.6400000000000D+00 -2.9640497976007D-02  6.6498812922192D-03
   266  2.6500000000000D+00 -2.7235376191223D-02  6.3225306664253D-03
   267  2.6600000000000D+00 -2.4952324883391D-02  5.9906019406447D-03
   268  2.6700000000000D+00 -2.2791331232621D-02  5.6563324590204D-03
   269  2.6800000000000D+00 -2.0751838797282D-02  5.3218110697965D-03
   270  2.6900000000000D+00 -1.8832779086763D-02  4.9889790523488D-03
   271  2.7000000000000D+00 -1.7032603968668D-02  4.6596314695150D-03
   272  2.7100000000000D+00 -1.5349318635317D-02  4.3354188327897D-03
   273  2.7200000000000D+00 -1.3780515069259D-02  4.0178490607289D-03
   274  2.7300000000000D+00 -1.2323405833062D-02  3.7082897355277D-03
   275  2.7400000000000D+00 -1.0974858060863D-02  3.4079706167854D-03
   276  2.7500000000000D+00 -9.7314276070482D-03  3.1179863796841D-03
   277  2.7600000000000D+00 -8.5893931734253D-03  2.8392995577560D-03
   278  2.7700000000000D+00 -7.5447901301367D-03  2.5727436506450D-03
   279  2.7800000000000D+00 -6.5934441307979D-03  2.3190263803319D-03
   280  2.7900000000000D+00 -5.7310046063263D-03  2.0787331134987D-03
   281  2.8000000000000D+00 -4.9529771991263D-03  1.8523302963702D-03
   282  2.8100000000000D+00 -4.2547558146660D-03  1.6401689944178D-03
   283  2.8200000000000D+00 -3.6316542475663D-03  1.4424885366689D-03
   284  2.8300000000000D+00 -3.0789364238209D-03  1.2594200825161D-03
   285  2.8400000000000D+00 -2.5918457801561D-03  1.0909902002231D-03
   286  2.8500000000000D+00 -2.1656338592671D-03  9.3712447207490D-04
   287  2.8600000000000D+00 -1.7955877130389D-03  7.9765104272544D-04
   288  2.8700000000000D+00 -1.4770555508187D-03  6.7230399327586D-04
   289  2.8800000000000D+00 -1.2054712924265D-03  5.6072667024275D-04
   290  2.8900000000000D+00 -9.7637850570832D-04  4.6247507328968D-04
   291  2.9000000000000D+00 -7.8545139688306D-04  3.7702080619229D-04
   292  2.9100000000000D+00 -6.2864829612224D-04  3.0379499351793D-04
   293  2.9200000000000D+00 -5.0186480403209D-04  2.4207880272992D-04
   294  2.9300000000000D+00 -4.0103690227406D-04  1.9103257611795D-04
   295  2.9400000000000D+00 -3.2243982689097D-04  1.4978038232800D-04
   296  2.9500000000000D+00 -2.6126962356990D-04  1.1689296894017D-04
   297  2.9600000000000D+00 -2.1737747428710D-04  9.2484292625671D-05
   298  2.9700000000000D+00 -1.8872917511242D-04  7.5821708874828D-05
   299  2.9800000000000D+00 -1.7551278796129D-04  6.6893619667424D-05
   300  2.9900000000000D+00 -1.7159068277882D-04  6.3149708401872D-05
   301  3.0000000000000D+00 -1.6576694977867D-04  6.0014534129913D-05
   302  3.0100000000000D+00 -1.5089381602557D-04  5.4414294540316D-05
   303  3.0200000000000D+00 -1.1374509558048D-04  4.0952385032005D-05
   304  3.0300000000000D+00 -6.8443284578317D-05  2.4652951420982D-05
   305  3.0400000000000D+00 -2.4275904355673D-05  8.7567102707888D-06
   306  3.0500000000000D+00  6.3056980639727D-06 -2.2549635659597D-06
   307  3.0600000000000D+00  1.5379357459713D-05 -5.4971828357557D-06
   308  3.0700000000000D+00  1.2630909319675D-05 -4.5136162315634D-06
   309  3.0800000000000D+00  3.3573699992791D-06 -1.1995986765705D-06
   310  3.0900000000000D+00 -2.2130308456574D-06  7.8864455098217D-07
   311  3.1000000000000D+00 -3.4956842198910D-06  1.2451249853636D-06
   312  3.1100000000000D+00 -2.4627174950274D-06  8.7682314993652D-07
   313  3.1200000000000D+00 -5.3906682340140D-08  1.9185830200198D-08
   314  3.1300000000000D+00  3.3477290260180D-07 -1.2072510953057D-07
   315  3.1400000000000D+00  4.1804684931994D-07 -1.5075518741458D-07
   316  3.1500000000000D+00  2.4049752142126D-07 -8.6727717177117D-08
   317  3.1600000000000D+00  0.0000000000000D+00  0.0000000000000D+00
   318  3.1700000000000D+00  0.0000000000000D+00  0.0000000000000D+00
   319  3.1800000000000D+00  0.0000000000000D+00  0.0000000000000D+00
   320  3.1900000000000D+00  0.0000000000000D+00  0.0000000000000D+00
   321  3.2000000000000D+00  0.0000000000000D+00  0.0000000000000D+00
   322  3.2100000000000D+00  0.0000000000000D+00  0.0000000000000D+00
   323  3.2200000000000D+00  0.0000000000000D+00  0.0000000000000D+00
   324  3.2300000000000D+00  0.0000000000000D+00  0.0000000000000D+00
   325  3.2400000000000D+00  0.0000000000000D+00  0.0000000000000D+00
   326  3.2500000000000D+00  0.0000000000000D+00  0.0000000000000D+00
   327  3.2600000000000D+00  0.0000000000000D+00  0.0000000000000D+00
   328  3.2700000000000D+00  0.0000000000000D+00  0.0000000000000D+00
   329  3.2800000000000D+00  0.0000000000000D+00  0.0000000000000D+00
   330  3.2900000000000D+00  0.0000000000000D+00  0.0000000000000D+00
   331  3.3000000000000D+00  0.0000000000000D+00  0.0000000000000D+00
   332  3.3100000000000D+00  0.0000000000000D+00  0.0000000000000D+00
   333  3.3200000000000D+00  0.0000000000000D+00  0.0000000000000D+00
   334  3.3300000000000D+00  0.0000000000000D+00  0.0000000000000D+00
   335  3.3400000000000D+00  0.0000000000000D+00  0.0000000000000D+00
   336  3.3500000000000D+00  0.0000000000000D+00  0.0000000000000D+00
   337  3.3600000000000D+00  0.0000000000000D+00  0.0000000000000D+00
   338  3.3700000000000D+00  0.0000000000000D+00  0.0000000000000D+00
   339  3.3800000000000D+00  0.0000000000000D+00  0.0000000000000D+00
   340  3.3900000000000D+00  0.0000000000000D+00  0.0000000000000D+00
   341  3.4000000000000D+00  0.0000000000000D+00  0.0000000000000D+00
   342  3.4100000000000D+00  0.0000000000000D+00  0.0000000000000D+00
   343  3.4200000000000D+00  0.0000000000000D+00  0.0000000000000D+00
   344  3.4300000000000D+00  0.0000000000000D+00  0.0000000000000D+00
   345  3.4400000000000D+00  0.0000000000000D+00  0.0000000000000D+00
   346  3.4500000000000D+00  0.0000000000000D+00  0.0000000000000D+00
   347  3.4600000000000D+00  0.0000000000000D+00  0.0000000000000D+00
   348  3.4700000000000D+00  0.0000000000000D+00  0.0000000000000D+00
   349  3.4800000000000D+00  0.0000000000000D+00  0.0000000000000D+00
   350  3.4900000000000D+00  0.0000000000000D+00  0.0000000000000D+00
   351  3.5000000000000D+00  0.0000000000000D+00  0.0000000000000D+00
   352  3.5100000000000D+00  0.0000000000000D+00  0.0000000000000D+00
   353  3.5200000000000D+00  0.0000000000000D+00  0.0000000000000D+00
   354  3.5300000000000D+00  0.0000000000000D+00  0.0000000000000D+00
   355  3.5400000000000D+00  0.0000000000000D+00  0.0000000000000D+00
   356  3.5500000000000D+00  0.0000000000000D+00  0.0000000000000D+00
   357  3.5600000000000D+00  0.0000000000000D+00  0.0000000000000D+00
   358  3.5700000000000D+00  0.0000000000000D+00  0.0000000000000D+00
   359  3.5800000000000D+00  0.0000000000000D+00  0.0000000000000D+00
   360  3.5900000000000D+00  0.0000000000000D+00  0.0000000000000D+00
   361  3.6000000000000D+00  0.0000000000000D+00  0.0000000000000D+00
   362  3.6100000000000D+00  0.0000000000000D+00  0.0000000000000D+00
   363  3.6200000000000D+00  0.0000000000000D+00  0.0000000000000D+00
   364  3.6300000000000D+00  0.0000000000000D+00  0.0000000000000D+00
   365  3.6400000000000D+00  0.0000000000000D+00  0.0000000000000D+00
   366  3.6500000000000D+00  0.0000000000000D+00  0.0000000000000D+00
   367  3.6600000000000D+00  0.0000000000000D+00  0.0000000000000D+00
   368  3.6700000000000D+00  0.0000000000000D+00  0.0000000000000D+00
   369  3.6800000000000D+00  0.0000000000000D+00  0.0000000000000D+00
   370  3.6900000000000D+00  0.0000000000000D+00  0.0000000000000D+00
   371  3.7000000000000D+00  0.0000000000000D+00  0.0000000000000D+00
   372  3.7100000000000D+00  0.0000000000000D+00  0.0000000000000D+00
   373  3.7200000000000D+00  0.0000000000000D+00  0.0000000000000D+00
   374  3.7300000000000D+00  0.0000000000000D+00  0.0000000000000D+00
   375  3.7400000000000D+00  0.0000000000000D+00  0.0000000000000D+00
   376  3.7500000000000D+00  0.0000000000000D+00  0.0000000000000D+00
   377  3.7600000000000D+00  0.0000000000000D+00  0.0000000000000D+00
   378  3.7700000000000D+00  0.0000000000000D+00  0.0000000000000D+00
   379  3.7800000000000D+00  0.0000000000000D+00  0.0000000000000D+00
   380  3.7900000000000D+00  0.0000000000000D+00  0.0000000000000D+00
   381  3.8000000000000D+00  0.0000000000000D+00  0.0000000000000D+00
   382  3.8100000000000D+00  0.0000000000000D+00  0.0000000000000D+00
   383  3.8200000000000D+00  0.0000000000000D+00  0.0000000000000D+00
   384  3.8300000000000D+00  0.0000000000000D+00  0.0000000000000D+00
   385  3.8400000000000D+00  0.0000000000000D+00  0.0000000000000D+00
   386  3.8500000000000D+00  0.0000000000000D+00  0.0000000000000D+00
   387  3.8600000000000D+00  0.0000000000000D+00  0.0000000000000D+00
   388  3.8700000000000D+00  0.0000000000000D+00  0.0000000000000D+00
   389  3.8800000000000D+00  0.0000000000000D+00  0.0000000000000D+00
   390  3.8900000000000D+00  0.0000000000000D+00  0.0000000000000D+00
   391  3.9000000000000D+00  0.0000000000000D+00  0.0000000000000D+00
   392  3.9100000000000D+00  0.0000000000000D+00  0.0000000000000D+00
   393  3.9200000000000D+00  0.0000000000000D+00  0.0000000000000D+00
   394  3.9300000000000D+00  0.0000000000000D+00  0.0000000000000D+00
   395  3.9400000000000D+00  0.0000000000000D+00  0.0000000000000D+00
   396  3.9500000000000D+00  0.0000000000000D+00  0.0000000000000D+00
   397  3.9600000000000D+00  0.0000000000000D+00  0.0000000000000D+00
   398  3.9700000000000D+00  0.0000000000000D+00  0.0000000000000D+00
   399  3.9800000000000D+00  0.0000000000000D+00  0.0000000000000D+00
   400  3.9900000000000D+00  0.0000000000000D+00  0.0000000000000D+00
   401  4.0000000000000D+00  0.0000000000000D+00  0.0000000000000D+00
   402  4.0100000000000D+00  0.0000000000000D+00  0.0000000000000D+00
   403  4.0200000000000D+00  0.0000000000000D+00  0.0000000000000D+00
   404  4.0300000000000D+00  0.0000000000000D+00  0.0000000000000D+00
   405  4.0400000000000D+00  0.0000000000000D+00  0.0000000000000D+00
   406  4.0500000000000D+00  0.0000000000000D+00  0.0000000000000D+00
   407  4.0600000000000D+00  0.0000000000000D+00  0.0000000000000D+00
   408  4.0700000000000D+00  0.0000000000000D+00  0.0000000000000D+00
   409  4.0800000000000D+00  0.0000000000000D+00  0.0000000000000D+00
   410  4.0900000000000D+00  0.0000000000000D+00  0.0000000000000D+00
   411  4.1000000000000D+00  0.0000000000000D+00  0.0000000000000D+00
   412  4.1100000000000D+00  0.0000000000000D+00  0.0000000000000D+00
   413  4.1200000000000D+00  0.0000000000000D+00  0.0000000000000D+00
   414  4.1300000000000D+00  0.0000000000000D+00  0.0000000000000D+00
   415  4.1400000000000D+00  0.0000000000000D+00  0.0000000000000D+00
   416  4.1500000000000D+00  0.0000000000000D+00  0.0000000000000D+00
   417  4.1600000000000D+00  0.0000000000000D+00  0.0000000000000D+00
   418  4.1700000000000D+00  0.0000000000000D+00  0.0000000000000D+00
   419  4.1800000000000D+00  0.0000000000000D+00  0.0000000000000D+00
   420  4.1900000000000D+00  0.0000000000000D+00  0.0000000000000D+00
   421  4.2000000000000D+00  0.0000000000000D+00  0.0000000000000D+00
   422  4.2100000000000D+00  0.0000000000000D+00  0.0000000000000D+00