Zr    ONCVPSP-3.3.1  r_core=   2.49215   1.91692   2.18569
     40.0000     12.0000      210904    zatom,zion,pspd
     8       2   2     4   600     0    pspcod,pspxc,lmax,lloc,mmax,r2well
  5.99000000  0.00000000  0.00000000    rchrg fchrg qchrg
     2     2     2     0     0    nproj
     1     1           extension_switch
   0                         5.4425682777620D+00  1.0412771762006D+00
     1  0.0000000000000D+00  3.2944758032727D-12 -8.3594381417029D-12
     2  1.0000000000000D-02  4.3147106590150D-02 -7.9131960769385D-03
     3  2.0000000000000D-02  8.6254055881248D-02 -1.5813376685388D-02
     4  3.0000000000000D-02  1.2928070595757D-01 -2.3687465859665D-02
     5  4.0000000000000D-02  1.7218694581502D-01 -3.1522267115820D-02
     6  5.0000000000000D-02  2.1493271117848D-01 -3.9304404380708D-02
     7  6.0000000000000D-02  2.5747800075071D-01 -4.7020264341019D-02
     8  7.0000000000000D-02  2.9978289303282D-01 -5.4655940675755D-02
     9  8.0000000000000D-02  3.4180756385297D-01 -6.2197180627320D-02
    10  9.0000000000000D-02  3.8351230473585D-01 -6.9629334355911D-02
    11  1.0000000000000D-01  4.2485754224084D-01 -7.6937307509479D-02
    12  1.1000000000000D-01  4.6580385839075D-01 -8.4105517427118D-02
    13  1.2000000000000D-01  5.0631201230682D-01 -9.1117853377263D-02
    14  1.3000000000000D-01  5.4634296315859D-01 -9.7957641213924D-02
    15  1.4000000000000D-01  5.8585789452918D-01 -1.0460761281390D-01
    16  1.5000000000000D-01  6.2481824028816D-01 -1.1104988063612D-01
    17  1.6000000000000D-01  6.6318571205489D-01 -1.1726591772042D-01
    18  1.7000000000000D-01  7.0092232832543D-01 -1.2323654341798D-01
    19  1.8000000000000D-01  7.3799044532577D-01 -1.2894191511849D-01
    20  1.9000000000000D-01  7.7435278964302D-01 -1.3436152621078D-01
    21  2.0000000000000D-01  8.0997249267493D-01 -1.3947421048405D-01
    22  2.1000000000000D-01  8.4481312692597D-01 -1.4425815314527D-01
    23  2.2000000000000D-01  8.7883874416605D-01 -1.4869090859636D-01
    24  2.3000000000000D-01  9.1201391545496D-01 -1.5274942508114D-01
    25  2.4000000000000D-01  9.4430377302281D-01 -1.5641007627750D-01
    26  2.5000000000000D-01  9.7567405398320D-01 -1.5964869987518D-01
    27  2.6000000000000D-01  1.0060911458424D+00 -1.6244064314321D-01
    28  2.7000000000000D-01  1.0355221337539D+00 -1.6476081545464D-01
    29  2.8000000000000D-01  1.0639348494543D+00 -1.6658374769877D-01
    30  2.9000000000000D-01  1.0912979218019D+00 -1.6788365847400D-01
    31  3.0000000000000D-01  1.1175808288261D+00 -1.6863452691637D-01
    32  3.1000000000000D-01  1.1427539511813D+00 -1.6881017198143D-01
    33  3.2000000000000D-01  1.1667886268865D+00 -1.6838433795966D-01
    34  3.3000000000000D-01  1.1896572072168D+00 -1.6733078596794D-01
    35  3.4000000000000D-01  1.2113331136001D+00 -1.6562339112342D-01
    36  3.5000000000000D-01  1.2317908953610D+00 -1.6323624506953D-01
    37  3.6000000000000D-01  1.2510062881398D+00 -1.6014376348871D-01
    38  3.7000000000000D-01  1.2689562728021D+00 -1.5632079820200D-01
    39  3.8000000000000D-01  1.2856191346453D+00 -1.5174275342252D-01
    40  3.9000000000000D-01  1.3009745226952D+00 -1.4638570569788D-01
    41  4.0000000000000D-01  1.3150035088767D+00 -1.4022652704602D-01
    42  4.1000000000000D-01  1.3276886468331D+00 -1.3324301076055D-01
    43  4.2000000000000D-01  1.3390140301601D+00 -1.2541399933440D-01
    44  4.3000000000000D-01  1.3489653498113D+00 -1.1671951392586D-01
    45  4.4000000000000D-01  1.3575299504281D+00 -1.0714088476828D-01
    46  4.5000000000000D-01  1.3646968853366D+00 -9.6660881904246D-02
    47  4.6000000000000D-01  1.3704569699549D+00 -8.5263845607034D-02
    48  4.7000000000000D-01  1.3748028333443D+00 -7.2935815836710D-02
    49  4.8000000000000D-01  1.3777289676393D+00 -5.9664660065818D-02
    50  4.9000000000000D-01  1.3792317750896D+00 -4.5440198799484D-02
    51  5.0000000000000D-01  1.3793096124437D+00 -3.0254328108289D-02
    52  5.1000000000000D-01  1.3779628324090D+00 -1.4101138488261D-02
    53  5.2000000000000D-01  1.3751938219219D+00  3.0229706379062D-03
    54  5.3000000000000D-01  1.3710070369673D+00  2.1119181461852D-02
    55  5.4000000000000D-01  1.3654090336896D+00  4.0186154049974D-02
    56  5.5000000000000D-01  1.3584084955453D+00  6.0219928991149D-02
    57  5.6000000000000D-01  1.3500162562541D+00  8.1213837086744D-02
    58  5.7000000000000D-01  1.3402453183127D+00  1.0315841672169D-01
    59  5.8000000000000D-01  1.3291108668479D+00  1.2604133953559D-01
    60  5.9000000000000D-01  1.3166302785963D+00  1.4984734498986D-01
    61  6.0000000000000D-01  1.3028231258085D+00  1.7455818440011D-01
    62  6.1000000000000D-01  1.2877111748929D+00  2.0015257497347D-01
    63  6.2000000000000D-01  1.2713183796278D+00  2.2660616435695D-01
    64  6.3000000000000D-01  1.2536708687859D+00  2.5389150616695D-01
    65  6.4000000000000D-01  1.2347969280345D+00  2.8197804693040D-01
    66  6.5000000000000D-01  1.2147269759936D+00  3.1083212482568D-01
    67  6.6000000000000D-01  1.1934935343509D+00  3.4041698056589D-01
    68  6.7000000000000D-01  1.1711311919570D+00  3.7069278071968D-01
    69  6.8000000000000D-01  1.1476765628437D+00  4.0161665371396D-01
    70  6.9000000000000D-01  1.1231682381304D+00  4.3314273870990D-01
    71  7.0000000000000D-01  1.0976467318074D+00  4.6522224748949D-01
    72  7.1000000000000D-01  1.0711544204085D+00  4.9780353943231D-01
    73  7.2000000000000D-01  1.0437354766109D+00  5.3083220960455D-01
    74  7.3000000000000D-01  1.0154357968207D+00  5.6425118992176D-01
    75  7.4000000000000D-01  9.8630292283426D-01  5.9800086328675D-01
    76  7.5000000000000D-01  9.5638595768404D-01  6.3201919054158D-01
    77  7.6000000000000D-01  9.2573547580857D-01  6.6624185001069D-01
    78  7.7000000000000D-01  8.9440342770772D-01  7.0060238934964D-01
    79  7.8000000000000D-01  8.6244303927200D-01  7.3503238935103D-01
    80  7.9000000000000D-01  8.2990870599897D-01  7.6946163929749D-01
    81  8.0000000000000D-01  7.9685588233455D-01  8.0381832338962D-01
    82  8.1000000000000D-01  7.6334096640141D-01  8.3802921771678D-01
    83  8.2000000000000D-01  7.2942118040038D-01  8.7201989717876D-01
    84  8.3000000000000D-01  6.9515444699354D-01  9.0571495170923D-01
    85  8.4000000000000D-01  6.6059926199992D-01  9.3903821109611D-01
    86  8.5000000000000D-01  6.2581456375589D-01  9.7191297764022D-01
    87  8.6000000000000D-01  5.9085959951224D-01  1.0042622658432D+00
    88  8.7000000000000D-01  5.5579378925908D-01  1.0360090482676D+00
    89  8.8000000000000D-01  5.2067658738699D-01  1.0670765066658D+00
    90  8.9000000000000D-01  4.8556734260918D-01  1.0973882874363D+00
    91  9.0000000000000D-01  4.5052515658418D-01  1.1268687604235D+00
    92  9.1000000000000D-01  4.1560874169147D-01  1.1554432800473D+00
    93  9.2000000000000D-01  3.8087627842388D-01  1.1830384477167D+00
    94  9.3000000000000D-01  3.4638527287050D-01  1.2095823744566D+00
    95  9.4000000000000D-01  3.1219241477126D-01  1.2350049426583D+00
    96  9.5000000000000D-01  2.7835343663049D-01  1.2592380658436D+00
    97  9.6000000000000D-01  2.4492297438070D-01  1.2822159453266D+00
    98  9.7000000000000D-01  2.1195443008972D-01  1.3038753226462D+00
    99  9.8000000000000D-01  1.7949983720423D-01  1.3241557266457D+00
   100  9.9000000000000D-01  1.4760972882075D-01  1.3429997140760D+00
   101  1.0000000000000D+00  1.1633300947076D-01  1.3603531026095D+00
   102  1.0100000000000D+00  8.5716830900310D-02  1.3761651951694D+00
   103  1.0200000000000D+00  5.5806472316386D-02  1.3903889944930D+00
   104  1.0300000000000D+00  2.6645225561403D-02  1.4029814068773D+00
   105  1.0400000000000D+00 -1.7257143349931D-03  1.4139034340840D+00
   106  1.0500000000000D+00 -2.9267352792327D-02  1.4231203524152D+00
   107  1.0600000000000D+00 -5.5942993085247D-02  1.4306018780112D+00
   108  1.0700000000000D+00 -8.1718327119820D-02  1.4363223174679D+00
   109  1.0800000000000D+00 -1.0656151920010D-01  1.4402607029194D+00
   110  1.0900000000000D+00 -1.3044328242792D-01  1.4424009107865D+00
   111  1.1000000000000D+00 -1.5333694740143D-01  1.4427317634481D+00
   112  1.1100000000000D+00 -1.7521852290291D-01  1.4412471131533D+00
   113  1.1200000000000D+00 -1.9606674829466D-01  1.4379459075615D+00
   114  1.1300000000000D+00 -2.1586313736825D-01  1.4328322363627D+00
   115  1.1400000000000D+00 -2.3459201342376D-01  1.4259153585074D+00
   116  1.1500000000000D+00 -2.5224053538030D-01  1.4172097096354D+00
   117  1.1600000000000D+00 -2.6879871475837D-01  1.4067348893893D+00
   118  1.1700000000000D+00 -2.8425942340237D-01  1.3945156283657D+00
   119  1.1800000000000D+00 -2.9861839184442D-01  1.3805817345392D+00
   120  1.1900000000000D+00 -3.1187419824172D-01  1.3649680190669D+00
   121  1.2000000000000D+00 -3.2402824785942D-01  1.3477142014805D+00
   122  1.2100000000000D+00 -3.3508474310518D-01  1.3288647943543D+00
   123  1.2200000000000D+00 -3.4505064414082D-01  1.3084689675856D+00
   124  1.2300000000000D+00 -3.5393562015048D-01  1.2865803925516D+00
   125  1.2400000000000D+00 -3.6175199137068D-01  1.2632570664725D+00
   126  1.2500000000000D+00 -3.6851466201175D-01  1.2385611173643D+00
   127  1.2600000000000D+00 -3.7424104424294D-01  1.2125585900713D+00
   128  1.2700000000000D+00 -3.7895097344981D-01  1.1853192139494D+00
   129  1.2800000000000D+00 -3.8266661498728D-01  1.1569161528100D+00
   130  1.2900000000000D+00 -3.8541236269079D-01  1.1274257378227D+00
   131  1.3000000000000D+00 -3.8721472944779D-01  1.0969271841699D+00
   132  1.3100000000000D+00 -3.8810223013449D-01  1.0655022922491D+00
   133  1.3200000000000D+00 -3.8810525726547D-01  1.0332351343193D+00
   134  1.3300000000000D+00 -3.8725594973637D-01  1.0002117275589D+00
   135  1.3400000000000D+00 -3.8558805503131D-01  9.6651969448204D-01
   136  1.3500000000000D+00 -3.8313678532015D-01  9.3224791178167D-01
   137  1.3600000000000D+00 -3.7993866788041D-01  8.9748614868035D-01
   138  1.3700000000000D+00 -3.7603139027210D-01  8.6232469586226D-01
   139  1.3800000000000D+00 -3.7145364075138D-01  8.2685398617302D-01
   140  1.3900000000000D+00 -3.6624494438329D-01  7.9116420821896D-01
   141  1.4000000000000D+00 -3.6044549534242D-01  7.5534491405970D-01
   142  1.4100000000000D+00 -3.5409598590196D-01  7.1948462218846D-01
   143  1.4200000000000D+00 -3.4723743260111D-01  6.8367041699403D-01
   144  1.4300000000000D+00 -3.3991100010536D-01  6.4798754591441D-01
   145  1.4400000000000D+00 -3.3215782325530D-01  6.1251901545693D-01
   146  1.4500000000000D+00 -3.2401882782109D-01  5.7734518730896D-01
   147  1.4600000000000D+00 -3.1553455044584D-01  5.4254337563523D-01
   148  1.4700000000000D+00 -3.0674495829939D-01  5.0818744680034D-01
   149  1.4800000000000D+00 -2.9768926896651D-01  4.7434742279644D-01
   150  1.4900000000000D+00 -2.8840577067864D-01  4.4108908784981D-01
   151  1.5000000000000D+00 -2.7893163564649D-01  4.0847356670788D-01
   152  1.5100000000000D+00 -2.6930278658890D-01  3.7655712787085D-01
   153  1.5200000000000D+00 -2.5955366495899D-01  3.4539057557480D-01
   154  1.5300000000000D+00 -2.4971698425913D-01  3.1501853822936D-01
   155  1.5400000000000D+00 -2.3982377789394D-01  2.8548009355198D-01
   156  1.5500000000000D+00 -2.2990342290853D-01  2.5680922986732D-01
   157  1.5600000000000D+00 -2.1998400969452D-01  2.2903663563929D-01
   158  1.5700000000000D+00 -2.1009254545613D-01  2.0219074704109D-01
   159  1.5800000000000D+00 -2.0025478754621D-01  1.7629709630276D-01
   160  1.5900000000000D+00 -1.9049521951447D-01  1.5137828802100D-01
   161  1.6000000000000D+00 -1.8083703821509D-01  1.2745403558706D-01
   162  1.6100000000000D+00 -1.7130212282472D-01  1.0454109638603D-01
   163  1.6200000000000D+00 -1.6191101910212D-01  8.2653269247400D-02
   164  1.6300000000000D+00 -1.5268292405106D-01  6.1801384551673D-02
   165  1.6400000000000D+00 -1.4363567605992D-01  4.1993310234576D-02
   166  1.6500000000000D+00 -1.3478574967097D-01  2.3233969636310D-02
   167  1.6600000000000D+00 -1.2614825477503D-01  5.5253705703115D-03
   168  1.6700000000000D+00 -1.1773694031281D-01 -1.1133354223790D-02
   169  1.6800000000000D+00 -1.0956420221733D-01 -2.6745896035497D-02
   170  1.6900000000000D+00 -1.0164109566797D-01 -4.1318708415975D-02
   171  1.7000000000000D+00 -9.3977351344889D-02 -5.4860935601609D-02
   172  1.7100000000000D+00 -8.6581395733545D-02 -6.7384331058648D-02
   173  1.7200000000000D+00 -7.9460375142148D-02 -7.8903167125899D-02
   174  1.7300000000000D+00 -7.2620183437497D-02 -8.9434135819727D-02
   175  1.7400000000000D+00 -6.6065493158020D-02 -9.8996241777634D-02
   176  1.7500000000000D+00 -5.9799789972072D-02 -1.0761068750256D-01
   177  1.7600000000000D+00 -5.3825410145502D-02 -1.1530075186564D-01
   178  1.7700000000000D+00 -4.8143580915089D-02 -1.2209166223927D-01
   179  1.7800000000000D+00 -4.2754463467519D-02 -1.2801046110530D-01
   180  1.7900000000000D+00 -3.7657198362656D-02 -1.3308586765984D-01
   181  1.8000000000000D+00 -3.2849953132266D-02 -1.3734813517519D-01
   182  1.8100000000000D+00 -2.8329971831820D-02 -1.4082890479687D-01
   183  1.8200000000000D+00 -2.4093626310189D-02 -1.4356105645111D-01
   184  1.8300000000000D+00 -2.0136468937816D-02 -1.4557855761238D-01
   185  1.8400000000000D+00 -1.6453286568159D-02 -1.4691631060455D-01
   186  1.8500000000000D+00 -1.3038155475735D-02 -1.4760999912743D-01
   187  1.8600000000000D+00 -9.8844970142027D-03 -1.4769593481427D-01
   188  1.8700000000000D+00 -6.9851337992066D-03 -1.4721090427061D-01
   189  1.8800000000000D+00 -4.3323460815897D-03 -1.4619201767012D-01
   190  1.8900000000000D+00 -1.9179282075653D-03 -1.4467655904787D-01
   191  1.9000000000000D+00  2.6675522563595D-04 -1.4270183952764D-01
   192  1.9100000000000D+00  2.2307135877527D-03 -1.4030505354518D-01
   193  1.9200000000000D+00  3.9832751543727D-03 -1.3752313910972D-01
   194  1.9300000000000D+00  5.5340329180981D-03 -1.3439264247422D-01
   195  1.9400000000000D+00  6.8927914377950D-03 -1.3094958762766D-01
   196  1.9500000000000D+00  8.0695150960402D-03 -1.2722935171100D-01
   197  1.9600000000000D+00  9.0742776167924D-03 -1.2326654574279D-01
   198  1.9700000000000D+00  9.9172134822707D-03 -1.1909490261872D-01
   199  1.9800000000000D+00  1.0608470910566D-02 -1.1474717117210D-01
   200  1.9900000000000D+00  1.1158166963947D-02 -1.1025501801467D-01
   201  2.0000000000000D+00  1.1576344684801D-02 -1.0564893671954D-01
   202  2.0100000000000D+00  1.1872932384472D-02 -1.0095816463528D-01
   203  2.0200000000000D+00  1.2057705474232D-02 -9.6210608454669D-02
   204  2.0300000000000D+00  1.2140250392741D-02 -9.1432777036268D-02
   205  2.0400000000000D+00  1.2129931420646D-02 -8.6649723845843D-02
   206  2.0500000000000D+00  1.2035859782330D-02 -8.1884997050670D-02
   207  2.0600000000000D+00  1.1866865509293D-02 -7.7160598635698D-02
   208  2.0700000000000D+00  1.1631472072114D-02 -7.2496952462914D-02
   209  2.0800000000000D+00  1.1337873418632D-02 -6.7912880064389D-02
   210  2.0900000000000D+00  1.0993914145058D-02 -6.3425586288268D-02
   211  2.1000000000000D+00  1.0607071997686D-02 -5.9050652259848D-02
   212  2.1100000000000D+00  1.0184443288740D-02 -5.4802037324784D-02
   213  2.1200000000000D+00  9.7327310025036D-03 -5.0692089199990D-02
   214  2.1300000000000D+00  9.2582352603663D-03 -4.6731561242932D-02
   215  2.1400000000000D+00  8.7668467554168D-03 -4.2929638553630D-02
   216  2.1500000000000D+00  8.2640423230440D-03 -3.9293970342276D-02
   217  2.1600000000000D+00  7.7548831110601D-03 -3.5830709821533D-02
   218  2.1700000000000D+00  7.2440151447972D-03 -3.2544560917902D-02
   219  2.1800000000000D+00  6.7356718233357D-03 -2.9438830363371D-02
   220  2.1900000000000D+00  6.2336789115214D-03 -2.6515486661099D-02
   221  2.2000000000000D+00  5.7414612481822D-03 -2.3775223610495D-02
   222  2.2100000000000D+00  5.2620513805052D-03 -2.1217528860470D-02
   223  2.2200000000000D+00  4.7981000465588D-03 -1.8840757140131D-02
   224  2.2300000000000D+00  4.3518880389705D-03 -1.6642206805501D-02
   225  2.2400000000000D+00  3.9253396740930D-03 -1.4618200109117D-02
   226  2.2500000000000D+00  3.5200374823933D-03 -1.2764166084642D-02
   227  2.2600000000000D+00  3.1372379761423D-03 -1.1074725558594D-02
   228  2.2700000000000D+00  2.7778884614611D-03 -9.5437779200006D-03
   229  2.2800000000000D+00  2.4426446106198D-03 -8.1645889776903D-03
   230  2.2900000000000D+00  2.1318886767773D-03 -6.9298793106597D-03
   231  2.3000000000000D+00  1.8457481597554D-03 -5.8319124394002D-03
   232  2.3100000000000D+00  1.5841148806835D-03 -4.8625828592645D-03
   233  2.3200000000000D+00  1.3466640942243D-03 -4.0135024486701D-03
   234  2.3300000000000D+00  1.1328735956387D-03 -3.2760852315929D-03
   235  2.3400000000000D+00  9.4204290140899D-04 -2.6416308431117D-03
   236  2.3500000000000D+00  7.7331175480972D-04 -2.1014039433899D-03
   237  2.3600000000000D+00  6.2567842277599D-04 -1.6467113853612D-03
   238  2.3700000000000D+00  4.9801751104174D-04 -1.2689761545352D-03
   239  2.3800000000000D+00  3.8909666570914D-04 -9.5980586891881D-04
   240  2.3900000000000D+00  2.9759282850976D-04 -7.1105824547986D-04
   241  2.4000000000000D+00  2.2210746564598D-04 -5.1490151157191D-04
   242  2.4100000000000D+00  1.6118429154136D-04 -3.6389939002301D-04
   243  2.4200000000000D+00  1.1331050989861D-04 -2.5096664413529D-04
   244  2.4300000000000D+00  7.6933077364675D-05 -1.6944932295321D-04
   245  2.4400000000000D+00  5.0382310011589D-05 -1.1294070071111D-04
   246  2.4500000000000D+00  3.2213772859175D-05 -7.6386628079293D-05
   247  2.4600000000000D+00  2.0977056334299D-05 -5.5316947585545D-05
   248  2.4700000000000D+00  1.5467700609795D-05 -4.6438000456339D-05
   249  2.4800000000000D+00  1.3189658933672D-05 -4.3169749839880D-05
   250  2.4900000000000D+00  1.1734728442244D-05 -3.9463108823936D-05
   251  2.5000000000000D+00  8.6249629746869D-06 -2.9157489120268D-05
   252  2.5100000000000D+00  4.5123640850494D-06 -1.5218836263403D-05
   253  2.5200000000000D+00  6.5355755670778D-07 -2.1910723302694D-06
   254  2.5300000000000D+00 -1.0075789682318D-06  3.4789376648475D-06
   255  2.5400000000000D+00 -1.0185818181813D-06  3.5199806456907D-06
   256  2.5500000000000D+00 -2.1848210074097D-07  7.5519567505693D-07
   257  2.5600000000000D+00  1.9794307691029D-07 -6.9223420835718D-07
   258  2.5700000000000D+00  2.3364322921705D-07 -8.1861380691980D-07
   259  2.5800000000000D+00  6.6367380892691D-08 -2.3289735874754D-07
   260  2.5900000000000D+00 -2.3026201422703D-08  7.7472353833262D-08
   261  2.6000000000000D+00 -3.1269526578972D-08  1.0520727161434D-07
   262  2.6100000000000D+00 -1.1799831260200D-08  3.9700890554259D-08
   263  2.6200000000000D+00  0.0000000000000D+00  0.0000000000000D+00
   264  2.6300000000000D+00  0.0000000000000D+00  0.0000000000000D+00
   265  2.6400000000000D+00  0.0000000000000D+00  0.0000000000000D+00
   266  2.6500000000000D+00  0.0000000000000D+00  0.0000000000000D+00
   267  2.6600000000000D+00  0.0000000000000D+00  0.0000000000000D+00
   268  2.6700000000000D+00  0.0000000000000D+00  0.0000000000000D+00
   269  2.6800000000000D+00  0.0000000000000D+00  0.0000000000000D+00
   270  2.6900000000000D+00  0.0000000000000D+00  0.0000000000000D+00
   271  2.7000000000000D+00  0.0000000000000D+00  0.0000000000000D+00
   272  2.7100000000000D+00  0.0000000000000D+00  0.0000000000000D+00
   273  2.7200000000000D+00  0.0000000000000D+00  0.0000000000000D+00
   274  2.7300000000000D+00  0.0000000000000D+00  0.0000000000000D+00
   275  2.7400000000000D+00  0.0000000000000D+00  0.0000000000000D+00
   276  2.7500000000000D+00  0.0000000000000D+00  0.0000000000000D+00
   277  2.7600000000000D+00  0.0000000000000D+00  0.0000000000000D+00
   278  2.7700000000000D+00  0.0000000000000D+00  0.0000000000000D+00
   279  2.7800000000000D+00  0.0000000000000D+00  0.0000000000000D+00
   280  2.7900000000000D+00  0.0000000000000D+00  0.0000000000000D+00
   281  2.8000000000000D+00  0.0000000000000D+00  0.0000000000000D+00
   282  2.8100000000000D+00  0.0000000000000D+00  0.0000000000000D+00
   283  2.8200000000000D+00  0.0000000000000D+00  0.0000000000000D+00
   284  2.8300000000000D+00  0.0000000000000D+00  0.0000000000000D+00
   285  2.8400000000000D+00  0.0000000000000D+00  0.0000000000000D+00
   286  2.8500000000000D+00  0.0000000000000D+00  0.0000000000000D+00
   287  2.8600000000000D+00  0.0000000000000D+00  0.0000000000000D+00
   288  2.8700000000000D+00  0.0000000000000D+00  0.0000000000000D+00
   289  2.8800000000000D+00  0.0000000000000D+00  0.0000000000000D+00
   290  2.8900000000000D+00  0.0000000000000D+00  0.0000000000000D+00
   291  2.9000000000000D+00  0.0000000000000D+00  0.0000000000000D+00
   292  2.9100000000000D+00  0.0000000000000D+00  0.0000000000000D+00
   293  2.9200000000000D+00  0.0000000000000D+00  0.0000000000000D+00
   294  2.9300000000000D+00  0.0000000000000D+00  0.0000000000000D+00
   295  2.9400000000000D+00  0.0000000000000D+00  0.0000000000000D+00
   296  2.9500000000000D+00  0.0000000000000D+00  0.0000000000000D+00
   297  2.9600000000000D+00  0.0000000000000D+00  0.0000000000000D+00
   298  2.9700000000000D+00  0.0000000000000D+00  0.0000000000000D+00
   299  2.9800000000000D+00  0.0000000000000D+00  0.0000000000000D+00
   300  2.9900000000000D+00  0.0000000000000D+00  0.0000000000000D+00
   301  3.0000000000000D+00  0.0000000000000D+00  0.0000000000000D+00
   302  3.0100000000000D+00  0.0000000000000D+00  0.0000000000000D+00
   303  3.0200000000000D+00  0.0000000000000D+00  0.0000000000000D+00
   304  3.0300000000000D+00  0.0000000000000D+00  0.0000000000000D+00
   305  3.0400000000000D+00  0.0000000000000D+00  0.0000000000000D+00
   306  3.0500000000000D+00  0.0000000000000D+00  0.0000000000000D+00
   307  3.0600000000000D+00  0.0000000000000D+00  0.0000000000000D+00
   308  3.0700000000000D+00  0.0000000000000D+00  0.0000000000000D+00
   309  3.0800000000000D+00  0.0000000000000D+00  0.0000000000000D+00
   310  3.0900000000000D+00  0.0000000000000D+00  0.0000000000000D+00
   311  3.1000000000000D+00  0.0000000000000D+00  0.0000000000000D+00
   312  3.1100000000000D+00  0.0000000000000D+00  0.0000000000000D+00
   313  3.1200000000000D+00  0.0000000000000D+00  0.0000000000000D+00
   314  3.1300000000000D+00  0.0000000000000D+00  0.0000000000000D+00
   315  3.1400000000000D+00  0.0000000000000D+00  0.0000000000000D+00
   316  3.1500000000000D+00  0.0000000000000D+00  0.0000000000000D+00
   317  3.1600000000000D+00  0.0000000000000D+00  0.0000000000000D+00
   318  3.1700000000000D+00  0.0000000000000D+00  0.0000000000000D+00
   319  3.1800000000000D+00  0.0000000000000D+00  0.0000000000000D+00
   320  3.1900000000000D+00  0.0000000000000D+00  0.0000000000000D+00
   321  3.2000000000000D+00  0.0000000000000D+00  0.0000000000000D+00
   322  3.2100000000000D+00  0.0000000000000D+00  0.0000000000000D+00
   323  3.2200000000000D+00  0.0000000000000D+00  0.0000000000000D+00
   324  3.2300000000000D+00  0.0000000000000D+00  0.0000000000000D+00
   325  3.2400000000000D+00  0.0000000000000D+00  0.0000000000000D+00
   326  3.2500000000000D+00  0.0000000000000D+00  0.0000000000000D+00
   327  3.2600000000000D+00  0.0000000000000D+00  0.0000000000000D+00
   328  3.2700000000000D+00  0.0000000000000D+00  0.0000000000000D+00
   329  3.2800000000000D+00  0.0000000000000D+00  0.0000000000000D+00
   330  3.2900000000000D+00  0.0000000000000D+00  0.0000000000000D+00
   331  3.3000000000000D+00  0.0000000000000D+00  0.0000000000000D+00
   332  3.3100000000000D+00  0.0000000000000D+00  0.0000000000000D+00
   333  3.3200000000000D+00  0.0000000000000D+00  0.0000000000000D+00
   334  3.3300000000000D+00  0.0000000000000D+00  0.0000000000000D+00
   335  3.3400000000000D+00  0.0000000000000D+00  0.0000000000000D+00
   336  3.3500000000000D+00  0.0000000000000D+00  0.0000000000000D+00
   337  3.3600000000000D+00  0.0000000000000D+00  0.0000000000000D+00
   338  3.3700000000000D+00  0.0000000000000D+00  0.0000000000000D+00
   339  3.3800000000000D+00  0.0000000000000D+00  0.0000000000000D+00
   340  3.3900000000000D+00  0.0000000000000D+00  0.0000000000000D+00
   341  3.4000000000000D+00  0.0000000000000D+00  0.0000000000000D+00
   342  3.4100000000000D+00  0.0000000000000D+00  0.0000000000000D+00
   343  3.4200000000000D+00  0.0000000000000D+00  0.0000000000000D+00
   344  3.4300000000000D+00  0.0000000000000D+00  0.0000000000000D+00
   345  3.4400000000000D+00  0.0000000000000D+00  0.0000000000000D+00
   346  3.4500000000000D+00  0.0000000000000D+00  0.0000000000000D+00
   347  3.4600000000000D+00  0.0000000000000D+00  0.0000000000000D+00
   348  3.4700000000000D+00  0.0000000000000D+00  0.0000000000000D+00
   349  3.4800000000000D+00  0.0000000000000D+00  0.0000000000000D+00
   350  3.4900000000000D+00  0.0000000000000D+00  0.0000000000000D+00
   351  3.5000000000000D+00  0.0000000000000D+00  0.0000000000000D+00
   352  3.5100000000000D+00  0.0000000000000D+00  0.0000000000000D+00
   353  3.5200000000000D+00  0.0000000000000D+00  0.0000000000000D+00
   354  3.5300000000000D+00  0.0000000000000D+00  0.0000000000000D+00
   355  3.5400000000000D+00  0.0000000000000D+00  0.0000000000000D+00
   356  3.5500000000000D+00  0.0000000000000D+00  0.0000000000000D+00
   357  3.5600000000000D+00  0.0000000000000D+00  0.0000000000000D+00
   358  3.5700000000000D+00  0.0000000000000D+00  0.0000000000000D+00
   359  3.5800000000000D+00  0.0000000000000D+00  0.0000000000000D+00
   360  3.5900000000000D+00  0.0000000000000D+00  0.0000000000000D+00
   361  3.6000000000000D+00  0.0000000000000D+00  0.0000000000000D+00
   362  3.6100000000000D+00  0.0000000000000D+00  0.0000000000000D+00
   363  3.6200000000000D+00  0.0000000000000D+00  0.0000000000000D+00
   364  3.6300000000000D+00  0.0000000000000D+00  0.0000000000000D+00
   365  3.6400000000000D+00  0.0000000000000D+00  0.0000000000000D+00
   366  3.6500000000000D+00  0.0000000000000D+00  0.0000000000000D+00
   367  3.6600000000000D+00  0.0000000000000D+00  0.0000000000000D+00
   368  3.6700000000000D+00  0.0000000000000D+00  0.0000000000000D+00
   369  3.6800000000000D+00  0.0000000000000D+00  0.0000000000000D+00
   370  3.6900000000000D+00  0.0000000000000D+00  0.0000000000000D+00
   371  3.7000000000000D+00  0.0000000000000D+00  0.0000000000000D+00
   372  3.7100000000000D+00  0.0000000000000D+00  0.0000000000000D+00
   373  3.7200000000000D+00  0.0000000000000D+00  0.0000000000000D+00
   374  3.7300000000000D+00  0.0000000000000D+00  0.0000000000000D+00
   375  3.7400000000000D+00  0.0000000000000D+00  0.0000000000000D+00
   376  3.7500000000000D+00  0.0000000000000D+00  0.0000000000000D+00
   377  3.7600000000000D+00  0.0000000000000D+00  0.0000000000000D+00
   378  3.7700000000000D+00  0.0000000000000D+00  0.0000000000000D+00
   379  3.7800000000000D+00  0.0000000000000D+00  0.0000000000000D+00
   380  3.7900000000000D+00  0.0000000000000D+00  0.0000000000000D+00
   381  3.8000000000000D+00  0.0000000000000D+00  0.0000000000000D+00
   382  3.8100000000000D+00  0.0000000000000D+00  0.0000000000000D+00
   383  3.8200000000000D+00  0.0000000000000D+00  0.0000000000000D+00
   384  3.8300000000000D+00  0.0000000000000D+00  0.0000000000000D+00
   385  3.8400000000000D+00  0.0000000000000D+00  0.0000000000000D+00
   386  3.8500000000000D+00  0.0000000000000D+00  0.0000000000000D+00
   387  3.8600000000000D+00  0.0000000000000D+00  0.0000000000000D+00
   388  3.8700000000000D+00  0.0000000000000D+00  0.0000000000000D+00
   389  3.8800000000000D+00  0.0000000000000D+00  0.0000000000000D+00
   390  3.8900000000000D+00  0.0000000000000D+00  0.0000000000000D+00
   391  3.9000000000000D+00  0.0000000000000D+00  0.0000000000000D+00
   392  3.9100000000000D+00  0.0000000000000D+00  0.0000000000000D+00
   393  3.9200000000000D+00  0.0000000000000D+00  0.0000000000000D+00
   394  3.9300000000000D+00  0.0000000000000D+00  0.0000000000000D+00
   395  3.9400000000000D+00  0.0000000000000D+00  0.0000000000000D+00
   396  3.9500000000000D+00  0.0000000000000D+00  0.0000000000000D+00
   397  3.9600000000000D+00  0.0000000000000D+00  0.0000000000000D+00
   398  3.9700000000000D+00  0.0000000000000D+00  0.0000000000000D+00
   399  3.9800000000000D+00  0.0000000000000D+00  0.0000000000000D+00
   400  3.9900000000000D+00  0.0000000000000D+00  0.0000000000000D+00
   401  4.0000000000000D+00  0.0000000000000D+00  0.0000000000000D+00
   402  4.0100000000000D+00  0.0000000000000D+00  0.0000000000000D+00
   403  4.0200000000000D+00  0.0000000000000D+00  0.0000000000000D+00
   404  4.0300000000000D+00  0.0000000000000D+00  0.0000000000000D+00
   405  4.0400000000000D+00  0.0000000000000D+00  0.0000000000000D+00
   406  4.0500000000000D+00  0.0000000000000D+00  0.0000000000000D+00
   407  4.0600000000000D+00  0.0000000000000D+00  0.0000000000000D+00
   408  4.0700000000000D+00  0.0000000000000D+00  0.0000000000000D+00
   409  4.0800000000000D+00  0.0000000000000D+00  0.0000000000000D+00
   410  4.0900000000000D+00  0.0000000000000D+00  0.0000000000000D+00
   411  4.1000000000000D+00  0.0000000000000D+00  0.0000000000000D+00
   412  4.1100000000000D+00  0.0000000000000D+00  0.0000000000000D+00
   413  4.1200000000000D+00  0.0000000000000D+00  0.0000000000000D+00
   414  4.1300000000000D+00  0.0000000000000D+00  0.0000000000000D+00
   415  4.1400000000000D+00  0.0000000000000D+00  0.0000000000000D+00
   416  4.1500000000000D+00  0.0000000000000D+00  0.0000000000000D+00
   417  4.1600000000000D+00  0.0000000000000D+00  0.0000000000000D+00
   418  4.1700000000000D+00  0.0000000000000D+00  0.0000000000000D+00
   419  4.1800000000000D+00  0.0000000000000D+00  0.0000000000000D+00
   420  4.1900000000000D+00  0.0000000000000D+00  0.0000000000000D+00
   421  4.2000000000000D+00  0.0000000000000D+00  0.0000000000000D+00
   422  4.2100000000000D+00  0.0000000000000D+00  0.0000000000000D+00