<UPF version="2.0.1">
  <PP_INFO>

 This pseudopotential file has been produced using the code
 ONCVPSP  (Optimized Norm-Conservinng Vanderbilt PSeudopotential)
 scalar-relativistic version 3.3.1 12/12/2017 by D. R. Hamann
 The code is available through a link at URL www.mat-simresearch.com.
 Documentation with the package provides a full discription of the
 input data below.


 While it is not required under the terms of the GNU GPL, it is
 suggested that you cite D. R. Hamann, Phys. Rev. B 88, 085117 (2013)
 in any publication using these pseudopotentials.

    <PP_INPUTFILE>
# ATOM AND REFERENCE CONFIGURATION
# atsym  z   nc   nv     iexc    psfile
  F  9.00    1    2 -116133      upf
#
#   n    l    f        energy (Ha)
    1    0    2.00
    2    0    2.00
    2    1    5.00
#
# PSEUDOPOTENTIAL AND OPTIMIZATION
# lmax
    1
#
#   l,   rc,      ep,       ncon, nbas, qcut
    0   1.58478  -1.09221    5    8   8.73495
    1   1.66223  -0.40615    5    8   8.69707
#
# LOCAL POTENTIAL
# lloc, lpopt,  rc(5),   dvloc0
    4    5   0.97178      0.00000
#
# VANDERBILT-KLEINMAN-BYLANDER PROJECTORs
# l, nproj, debl
    0    2   1.51125
    1    2   1.53167
#
# MODEL CORE CHARGE
# icmod, fcfact, rcfact
    0   0.00000   0.00000
#
# LOG DERIVATIVE ANALYSIS
# epsh1, epsh2, depsh
   -5.00    3.00    0.02
#
# OUTPUT GRID
# rlmax, drl
    6.00    0.01
#
# TEST CONFIGURATIONS
# ncnf
    0
# nvcnf
#   n    l    f
    </PP_INPUTFILE>
  </PP_INFO>
  <!--                               -->
  <!-- END OF HUMAN READABLE SECTION -->
  <!--                               -->
    <PP_HEADER
       generated="Generated using ONCVPSP code by D. R. Hamann"
       author="anonymous"
       date="210904"
       comment=""
       element="F "
       pseudo_type="NC"
       relativistic="scalar"
       is_ultrasoft="F"
       is_paw="F"
       is_coulomb="F"
       has_so="F"
       has_wfc="F"
       has_gipaw="F"
       core_correction="F"
       functional="PBESOL"
       z_valence="    7.00"
       total_psenergy="  -4.73246791927E+01"
       rho_cutoff="   8.31000000000E+00"
       l_max="1"
       l_local="-1"
       mesh_size="   832"
       number_of_wfc="2"
       number_of_proj="4"/>
 <PP_MESH>
   <PP_R type="real"  size=" 832" columns="8">
    0.0000    0.0100    0.0200    0.0300    0.0400    0.0500    0.0600    0.0700
    0.0800    0.0900    0.1000    0.1100    0.1200    0.1300    0.1400    0.1500
    0.1600    0.1700    0.1800    0.1900    0.2000    0.2100    0.2200    0.2300
    0.2400    0.2500    0.2600    0.2700    0.2800    0.2900    0.3000    0.3100
    0.3200    0.3300    0.3400    0.3500    0.3600    0.3700    0.3800    0.3900
    0.4000    0.4100    0.4200    0.4300    0.4400    0.4500    0.4600    0.4700
    0.4800    0.4900    0.5000    0.5100    0.5200    0.5300    0.5400    0.5500
    0.5600    0.5700    0.5800    0.5900    0.6000    0.6100    0.6200    0.6300
    0.6400    0.6500    0.6600    0.6700    0.6800    0.6900    0.7000    0.7100
    0.7200    0.7300    0.7400    0.7500    0.7600    0.7700    0.7800    0.7900
    0.8000    0.8100    0.8200    0.8300    0.8400    0.8500    0.8600    0.8700
    0.8800    0.8900    0.9000    0.9100    0.9200    0.9300    0.9400    0.9500
    0.9600    0.9700    0.9800    0.9900    1.0000    1.0100    1.0200    1.0300
    1.0400    1.0500    1.0600    1.0700    1.0800    1.0900    1.1000    1.1100
    1.1200    1.1300    1.1400    1.1500    1.1600    1.1700    1.1800    1.1900
    1.2000    1.2100    1.2200    1.2300    1.2400    1.2500    1.2600    1.2700
    1.2800    1.2900    1.3000    1.3100    1.3200    1.3300    1.3400    1.3500
    1.3600    1.3700    1.3800    1.3900    1.4000    1.4100    1.4200    1.4300
    1.4400    1.4500    1.4600    1.4700    1.4800    1.4900    1.5000    1.5100
    1.5200    1.5300    1.5400    1.5500    1.5600    1.5700    1.5800    1.5900
    1.6000    1.6100    1.6200    1.6300    1.6400    1.6500    1.6600    1.6700
    1.6800    1.6900    1.7000    1.7100    1.7200    1.7300    1.7400    1.7500
    1.7600    1.7700    1.7800    1.7900    1.8000    1.8100    1.8200    1.8300
    1.8400    1.8500    1.8600    1.8700    1.8800    1.8900    1.9000    1.9100
    1.9200    1.9300    1.9400    1.9500    1.9600    1.9700    1.9800    1.9900
    2.0000    2.0100    2.0200    2.0300    2.0400    2.0500    2.0600    2.0700
    2.0800    2.0900    2.1000    2.1100    2.1200    2.1300    2.1400    2.1500
    2.1600    2.1700    2.1800    2.1900    2.2000    2.2100    2.2200    2.2300
    2.2400    2.2500    2.2600    2.2700    2.2800    2.2900    2.3000    2.3100
    2.3200    2.3300    2.3400    2.3500    2.3600    2.3700    2.3800    2.3900
    2.4000    2.4100    2.4200    2.4300    2.4400    2.4500    2.4600    2.4700
    2.4800    2.4900    2.5000    2.5100    2.5200    2.5300    2.5400    2.5500
    2.5600    2.5700    2.5800    2.5900    2.6000    2.6100    2.6200    2.6300
    2.6400    2.6500    2.6600    2.6700    2.6800    2.6900    2.7000    2.7100
    2.7200    2.7300    2.7400    2.7500    2.7600    2.7700    2.7800    2.7900
    2.8000    2.8100    2.8200    2.8300    2.8400    2.8500    2.8600    2.8700
    2.8800    2.8900    2.9000    2.9100    2.9200    2.9300    2.9400    2.9500
    2.9600    2.9700    2.9800    2.9900    3.0000    3.0100    3.0200    3.0300
    3.0400    3.0500    3.0600    3.0700    3.0800    3.0900    3.1000    3.1100
    3.1200    3.1300    3.1400    3.1500    3.1600    3.1700    3.1800    3.1900
    3.2000    3.2100    3.2200    3.2300    3.2400    3.2500    3.2600    3.2700
    3.2800    3.2900    3.3000    3.3100    3.3200    3.3300    3.3400    3.3500
    3.3600    3.3700    3.3800    3.3900    3.4000    3.4100    3.4200    3.4300
    3.4400    3.4500    3.4600    3.4700    3.4800    3.4900    3.5000    3.5100
    3.5200    3.5300    3.5400    3.5500    3.5600    3.5700    3.5800    3.5900
    3.6000    3.6100    3.6200    3.6300    3.6400    3.6500    3.6600    3.6700
    3.6800    3.6900    3.7000    3.7100    3.7200    3.7300    3.7400    3.7500
    3.7600    3.7700    3.7800    3.7900    3.8000    3.8100    3.8200    3.8300
    3.8400    3.8500    3.8600    3.8700    3.8800    3.8900    3.9000    3.9100
    3.9200    3.9300    3.9400    3.9500    3.9600    3.9700    3.9800    3.9900
    4.0000    4.0100    4.0200    4.0300    4.0400    4.0500    4.0600    4.0700
    4.0800    4.0900    4.1000    4.1100    4.1200    4.1300    4.1400    4.1500
    4.1600    4.1700    4.1800    4.1900    4.2000    4.2100    4.2200    4.2300
    4.2400    4.2500    4.2600    4.2700    4.2800    4.2900    4.3000    4.3100
    4.3200    4.3300    4.3400    4.3500    4.3600    4.3700    4.3800    4.3900
    4.4000    4.4100    4.4200    4.4300    4.4400    4.4500    4.4600    4.4700
    4.4800    4.4900    4.5000    4.5100    4.5200    4.5300    4.5400    4.5500
    4.5600    4.5700    4.5800    4.5900    4.6000    4.6100    4.6200    4.6300
    4.6400    4.6500    4.6600    4.6700    4.6800    4.6900    4.7000    4.7100
    4.7200    4.7300    4.7400    4.7500    4.7600    4.7700    4.7800    4.7900
    4.8000    4.8100    4.8200    4.8300    4.8400    4.8500    4.8600    4.8700
    4.8800    4.8900    4.9000    4.9100    4.9200    4.9300    4.9400    4.9500
    4.9600    4.9700    4.9800    4.9900    5.0000    5.0100    5.0200    5.0300
    5.0400    5.0500    5.0600    5.0700    5.0800    5.0900    5.1000    5.1100
    5.1200    5.1300    5.1400    5.1500    5.1600    5.1700    5.1800    5.1900
    5.2000    5.2100    5.2200    5.2300    5.2400    5.2500    5.2600    5.2700
    5.2800    5.2900    5.3000    5.3100    5.3200    5.3300    5.3400    5.3500
    5.3600    5.3700    5.3800    5.3900    5.4000    5.4100    5.4200    5.4300
    5.4400    5.4500    5.4600    5.4700    5.4800    5.4900    5.5000    5.5100
    5.5200    5.5300    5.5400    5.5500    5.5600    5.5700    5.5800    5.5900
    5.6000    5.6100    5.6200    5.6300    5.6400    5.6500    5.6600    5.6700
    5.6800    5.6900    5.7000    5.7100    5.7200    5.7300    5.7400    5.7500
    5.7600    5.7700    5.7800    5.7900    5.8000    5.8100    5.8200    5.8300
    5.8400    5.8500    5.8600    5.8700    5.8800    5.8900    5.9000    5.9100
    5.9200    5.9300    5.9400    5.9500    5.9600    5.9700    5.9800    5.9900
    6.0000    6.0100    6.0200    6.0300    6.0400    6.0500    6.0600    6.0700
    6.0800    6.0900    6.1000    6.1100    6.1200    6.1300    6.1400    6.1500
    6.1600    6.1700    6.1800    6.1900    6.2000    6.2100    6.2200    6.2300
    6.2400    6.2500    6.2600    6.2700    6.2800    6.2900    6.3000    6.3100
    6.3200    6.3300    6.3400    6.3500    6.3600    6.3700    6.3800    6.3900
    6.4000    6.4100    6.4200    6.4300    6.4400    6.4500    6.4600    6.4700
    6.4800    6.4900    6.5000    6.5100    6.5200    6.5300    6.5400    6.5500
    6.5600    6.5700    6.5800    6.5900    6.6000    6.6100    6.6200    6.6300
    6.6400    6.6500    6.6600    6.6700    6.6800    6.6900    6.7000    6.7100
    6.7200    6.7300    6.7400    6.7500    6.7600    6.7700    6.7800    6.7900
    6.8000    6.8100    6.8200    6.8300    6.8400    6.8500    6.8600    6.8700
    6.8800    6.8900    6.9000    6.9100    6.9200    6.9300    6.9400    6.9500
    6.9600    6.9700    6.9800    6.9900    7.0000    7.0100    7.0200    7.0300
    7.0400    7.0500    7.0600    7.0700    7.0800    7.0900    7.1000    7.1100
    7.1200    7.1300    7.1400    7.1500    7.1600    7.1700    7.1800    7.1900
    7.2000    7.2100    7.2200    7.2300    7.2400    7.2500    7.2600    7.2700
    7.2800    7.2900    7.3000    7.3100    7.3200    7.3300    7.3400    7.3500
    7.3600    7.3700    7.3800    7.3900    7.4000    7.4100    7.4200    7.4300
    7.4400    7.4500    7.4600    7.4700    7.4800    7.4900    7.5000    7.5100
    7.5200    7.5300    7.5400    7.5500    7.5600    7.5700    7.5800    7.5900
    7.6000    7.6100    7.6200    7.6300    7.6400    7.6500    7.6600    7.6700
    7.6800    7.6900    7.7000    7.7100    7.7200    7.7300    7.7400    7.7500
    7.7600    7.7700    7.7800    7.7900    7.8000    7.8100    7.8200    7.8300
    7.8400    7.8500    7.8600    7.8700    7.8800    7.8900    7.9000    7.9100
    7.9200    7.9300    7.9400    7.9500    7.9600    7.9700    7.9800    7.9900
    8.0000    8.0100    8.0200    8.0300    8.0400    8.0500    8.0600    8.0700
    8.0800    8.0900    8.1000    8.1100    8.1200    8.1300    8.1400    8.1500
    8.1600    8.1700    8.1800    8.1900    8.2000    8.2100    8.2200    8.2300
    8.2400    8.2500    8.2600    8.2700    8.2800    8.2900    8.3000    8.3100
   </PP_R>
   <PP_RAB type="real"  size=" 832" columns="8">
    0.0100    0.0100    0.0100    0.0100    0.0100    0.0100    0.0100    0.0100
    0.0100    0.0100    0.0100    0.0100    0.0100    0.0100    0.0100    0.0100
    0.0100    0.0100    0.0100    0.0100    0.0100    0.0100    0.0100    0.0100
    0.0100    0.0100    0.0100    0.0100    0.0100    0.0100    0.0100    0.0100
    0.0100    0.0100    0.0100    0.0100    0.0100    0.0100    0.0100    0.0100
    0.0100    0.0100    0.0100    0.0100    0.0100    0.0100    0.0100    0.0100
    0.0100    0.0100    0.0100    0.0100    0.0100    0.0100    0.0100    0.0100
    0.0100    0.0100    0.0100    0.0100    0.0100    0.0100    0.0100    0.0100
    0.0100    0.0100    0.0100    0.0100    0.0100    0.0100    0.0100    0.0100
    0.0100    0.0100    0.0100    0.0100    0.0100    0.0100    0.0100    0.0100
    0.0100    0.0100    0.0100    0.0100    0.0100    0.0100    0.0100    0.0100
    0.0100    0.0100    0.0100    0.0100    0.0100    0.0100    0.0100    0.0100
    0.0100    0.0100    0.0100    0.0100    0.0100    0.0100    0.0100    0.0100
    0.0100    0.0100    0.0100    0.0100    0.0100    0.0100    0.0100    0.0100
    0.0100    0.0100    0.0100    0.0100    0.0100    0.0100    0.0100    0.0100
    0.0100    0.0100    0.0100    0.0100    0.0100    0.0100    0.0100    0.0100
    0.0100    0.0100    0.0100    0.0100    0.0100    0.0100    0.0100    0.0100
    0.0100    0.0100    0.0100    0.0100    0.0100    0.0100    0.0100    0.0100
    0.0100    0.0100    0.0100    0.0100    0.0100    0.0100    0.0100    0.0100
    0.0100    0.0100    0.0100    0.0100    0.0100    0.0100    0.0100    0.0100
    0.0100    0.0100    0.0100    0.0100    0.0100    0.0100    0.0100    0.0100
    0.0100    0.0100    0.0100    0.0100    0.0100    0.0100    0.0100    0.0100
    0.0100    0.0100    0.0100    0.0100    0.0100    0.0100    0.0100    0.0100
    0.0100    0.0100    0.0100    0.0100    0.0100    0.0100    0.0100    0.0100
    0.0100    0.0100    0.0100    0.0100    0.0100    0.0100    0.0100    0.0100
    0.0100    0.0100    0.0100    0.0100    0.0100    0.0100    0.0100    0.0100
    0.0100    0.0100    0.0100    0.0100    0.0100    0.0100    0.0100    0.0100
    0.0100    0.0100    0.0100    0.0100    0.0100    0.0100    0.0100    0.0100
    0.0100    0.0100    0.0100    0.0100    0.0100    0.0100    0.0100    0.0100
    0.0100    0.0100    0.0100    0.0100    0.0100    0.0100    0.0100    0.0100
    0.0100    0.0100    0.0100    0.0100    0.0100    0.0100    0.0100    0.0100
    0.0100    0.0100    0.0100    0.0100    0.0100    0.0100    0.0100    0.0100
    0.0100    0.0100    0.0100    0.0100    0.0100    0.0100    0.0100    0.0100
    0.0100    0.0100    0.0100    0.0100    0.0100    0.0100    0.0100    0.0100
    0.0100    0.0100    0.0100    0.0100    0.0100    0.0100    0.0100    0.0100
    0.0100    0.0100    0.0100    0.0100    0.0100    0.0100    0.0100    0.0100
    0.0100    0.0100    0.0100    0.0100    0.0100    0.0100    0.0100    0.0100
    0.0100    0.0100    0.0100    0.0100    0.0100    0.0100    0.0100    0.0100
    0.0100    0.0100    0.0100    0.0100    0.0100    0.0100    0.0100    0.0100
    0.0100    0.0100    0.0100    0.0100    0.0100    0.0100    0.0100    0.0100
    0.0100    0.0100    0.0100    0.0100    0.0100    0.0100    0.0100    0.0100
    0.0100    0.0100    0.0100    0.0100    0.0100    0.0100    0.0100    0.0100
    0.0100    0.0100    0.0100    0.0100    0.0100    0.0100    0.0100    0.0100
    0.0100    0.0100    0.0100    0.0100    0.0100    0.0100    0.0100    0.0100
    0.0100    0.0100    0.0100    0.0100    0.0100    0.0100    0.0100    0.0100
    0.0100    0.0100    0.0100    0.0100    0.0100    0.0100    0.0100    0.0100
    0.0100    0.0100    0.0100    0.0100    0.0100    0.0100    0.0100    0.0100
    0.0100    0.0100    0.0100    0.0100    0.0100    0.0100    0.0100    0.0100
    0.0100    0.0100    0.0100    0.0100    0.0100    0.0100    0.0100    0.0100
    0.0100    0.0100    0.0100    0.0100    0.0100    0.0100    0.0100    0.0100
    0.0100    0.0100    0.0100    0.0100    0.0100    0.0100    0.0100    0.0100
    0.0100    0.0100    0.0100    0.0100    0.0100    0.0100    0.0100    0.0100
    0.0100    0.0100    0.0100    0.0100    0.0100    0.0100    0.0100    0.0100
    0.0100    0.0100    0.0100    0.0100    0.0100    0.0100    0.0100    0.0100
    0.0100    0.0100    0.0100    0.0100    0.0100    0.0100    0.0100    0.0100
    0.0100    0.0100    0.0100    0.0100    0.0100    0.0100    0.0100    0.0100
    0.0100    0.0100    0.0100    0.0100    0.0100    0.0100    0.0100    0.0100
    0.0100    0.0100    0.0100    0.0100    0.0100    0.0100    0.0100    0.0100
    0.0100    0.0100    0.0100    0.0100    0.0100    0.0100    0.0100    0.0100
    0.0100    0.0100    0.0100    0.0100    0.0100    0.0100    0.0100    0.0100
    0.0100    0.0100    0.0100    0.0100    0.0100    0.0100    0.0100    0.0100
    0.0100    0.0100    0.0100    0.0100    0.0100    0.0100    0.0100    0.0100
    0.0100    0.0100    0.0100    0.0100    0.0100    0.0100    0.0100    0.0100
    0.0100    0.0100    0.0100    0.0100    0.0100    0.0100    0.0100    0.0100
    0.0100    0.0100    0.0100    0.0100    0.0100    0.0100    0.0100    0.0100
    0.0100    0.0100    0.0100    0.0100    0.0100    0.0100    0.0100    0.0100
    0.0100    0.0100    0.0100    0.0100    0.0100    0.0100    0.0100    0.0100
    0.0100    0.0100    0.0100    0.0100    0.0100    0.0100    0.0100    0.0100
    0.0100    0.0100    0.0100    0.0100    0.0100    0.0100    0.0100    0.0100
    0.0100    0.0100    0.0100    0.0100    0.0100    0.0100    0.0100    0.0100
    0.0100    0.0100    0.0100    0.0100    0.0100    0.0100    0.0100    0.0100
    0.0100    0.0100    0.0100    0.0100    0.0100    0.0100    0.0100    0.0100
    0.0100    0.0100    0.0100    0.0100    0.0100    0.0100    0.0100    0.0100
    0.0100    0.0100    0.0100    0.0100    0.0100    0.0100    0.0100    0.0100
    0.0100    0.0100    0.0100    0.0100    0.0100    0.0100    0.0100    0.0100
    0.0100    0.0100    0.0100    0.0100    0.0100    0.0100    0.0100    0.0100
    0.0100    0.0100    0.0100    0.0100    0.0100    0.0100    0.0100    0.0100
    0.0100    0.0100    0.0100    0.0100    0.0100    0.0100    0.0100    0.0100
    0.0100    0.0100    0.0100    0.0100    0.0100    0.0100    0.0100    0.0100
    0.0100    0.0100    0.0100    0.0100    0.0100    0.0100    0.0100    0.0100
    0.0100    0.0100    0.0100    0.0100    0.0100    0.0100    0.0100    0.0100
    0.0100    0.0100    0.0100    0.0100    0.0100    0.0100    0.0100    0.0100
    0.0100    0.0100    0.0100    0.0100    0.0100    0.0100    0.0100    0.0100
    0.0100    0.0100    0.0100    0.0100    0.0100    0.0100    0.0100    0.0100
    0.0100    0.0100    0.0100    0.0100    0.0100    0.0100    0.0100    0.0100
    0.0100    0.0100    0.0100    0.0100    0.0100    0.0100    0.0100    0.0100
    0.0100    0.0100    0.0100    0.0100    0.0100    0.0100    0.0100    0.0100
    0.0100    0.0100    0.0100    0.0100    0.0100    0.0100    0.0100    0.0100
    0.0100    0.0100    0.0100    0.0100    0.0100    0.0100    0.0100    0.0100
    0.0100    0.0100    0.0100    0.0100    0.0100    0.0100    0.0100    0.0100
    0.0100    0.0100    0.0100    0.0100    0.0100    0.0100    0.0100    0.0100
    0.0100    0.0100    0.0100    0.0100    0.0100    0.0100    0.0100    0.0100
    0.0100    0.0100    0.0100    0.0100    0.0100    0.0100    0.0100    0.0100
    0.0100    0.0100    0.0100    0.0100    0.0100    0.0100    0.0100    0.0100
    0.0100    0.0100    0.0100    0.0100    0.0100    0.0100    0.0100    0.0100
    0.0100    0.0100    0.0100    0.0100    0.0100    0.0100    0.0100    0.0100
    0.0100    0.0100    0.0100    0.0100    0.0100    0.0100    0.0100    0.0100
    0.0100    0.0100    0.0100    0.0100    0.0100    0.0100    0.0100    0.0100
    0.0100    0.0100    0.0100    0.0100    0.0100    0.0100    0.0100    0.0100
    0.0100    0.0100    0.0100    0.0100    0.0100    0.0100    0.0100    0.0100
    0.0100    0.0100    0.0100    0.0100    0.0100    0.0100    0.0100    0.0100
    0.0100    0.0100    0.0100    0.0100    0.0100    0.0100    0.0100    0.0100
    0.0100    0.0100    0.0100    0.0100    0.0100    0.0100    0.0100    0.0100
    0.0100    0.0100    0.0100    0.0100    0.0100    0.0100    0.0100    0.0100
   </PP_RAB>
 </PP_MESH>
  <PP_LOCAL type="real"  size=" 832" columns="4">
   -3.0789767648E+01   -3.0816075924E+01   -3.0882478261E+01   -3.0967446893E+01
   -3.1046919858E+01   -3.1103975873E+01   -3.1130906640E+01   -3.1126998267E+01
   -3.1095333499E+01   -3.1040351038E+01   -3.0966467494E+01   -3.0877484778E+01
   -3.0776442638E+01   -3.0665676752E+01   -3.0546947525E+01   -3.0421574825E+01
   -3.0290553007E+01   -3.0154639930E+01   -3.0014421990E+01   -2.9870359938E+01
   -2.9722820492E+01   -2.9572097936E+01   -2.9418428906E+01   -2.9262002618E+01
   -2.9102968082E+01   -2.8941439293E+01   -2.8777499087E+01   -2.8611202093E+01
   -2.8442577123E+01   -2.8271629248E+01   -2.8098341790E+01   -2.7922678431E+01
   -2.7744585607E+01   -2.7563995337E+01   -2.7380828572E+01   -2.7194999107E+01
   -2.7006418019E+01   -2.6814998525E+01   -2.6620661087E+01   -2.6423338534E+01
   -2.6222980934E+01   -2.6019559947E+01   -2.5813072403E+01   -2.5603542898E+01
   -2.5391025284E+01   -2.5175602990E+01   -2.4957388224E+01   -2.4736520155E+01
   -2.4513162259E+01   -2.4287499054E+01   -2.4059732442E+01   -2.3830077895E+01
   -2.3598760699E+01   -2.3366012404E+01   -2.3132067623E+01   -2.2897161250E+01
   -2.2661526138E+01   -2.2425391247E+01   -2.2188980221E+01   -2.1952510370E+01
   -2.1716191993E+01   -2.1480227972E+01   -2.1244813605E+01   -2.1010136593E+01
   -2.0776377145E+01   -2.0543708164E+01   -2.0312295465E+01   -2.0082298009E+01
   -1.9853868135E+01   -1.9627151755E+01   -1.9402288534E+01   -1.9179412019E+01
   -1.8958649734E+01   -1.8740123236E+01   -1.8523948120E+01   -1.8310234005E+01
   -1.8099084467E+01   -1.7890596957E+01   -1.7684862679E+01   -1.7481966455E+01
   -1.7281986563E+01   -1.7084994561E+01   -1.6891055096E+01   -1.6700225701E+01
   -1.6512556582E+01   -1.6328090397E+01   -1.6146862034E+01   -1.5968898372E+01
   -1.5794218053E+01   -1.5622831236E+01   -1.5454739361E+01   -1.5289934903E+01
   -1.5128401122E+01   -1.4970111820E+01   -1.4815031087E+01   -1.4663113045E+01
   -1.4514301599E+01   -1.4368530160E+01   -1.4225721496E+01   -1.4085787094E+01
   -1.3948632289E+01   -1.3814163479E+01   -1.3682291348E+01   -1.3552930099E+01
   -1.3425997481E+01   -1.3301414664E+01   -1.3179106118E+01   -1.3058999505E+01
   -1.2941025571E+01   -1.2825118051E+01   -1.2711213566E+01   -1.2599251532E+01
   -1.2489174071E+01   -1.2380925921E+01   -1.2274454356E+01   -1.2169709097E+01
   -1.2066642236E+01   -1.1965208155E+01   -1.1865363448E+01   -1.1767066844E+01
   -1.1670279129E+01   -1.1574963069E+01   -1.1481083333E+01   -1.1388606415E+01
   -1.1297500555E+01   -1.1207735654E+01   -1.1119283199E+01   -1.1032116171E+01
   -1.0946208966E+01   -1.0861537299E+01   -1.0778078124E+01   -1.0695809533E+01
   -1.0614710670E+01   -1.0534761634E+01   -1.0455943386E+01   -1.0378237654E+01
   -1.0301626841E+01   -1.0226093931E+01   -1.0151622401E+01   -1.0078196132E+01
   -1.0005799325E+01   -9.9344164268E+00   -9.8640320519E+00   -9.7946309176E+00
   -9.7261977830E+00   -9.6587173973E+00   -9.5921744547E+00   -9.5265535590E+00
   -9.4618391970E+00   -9.3980157209E+00   -9.3350673402E+00   -9.2729781228E+00
   -9.2117320045E+00   -9.1513128076E+00   -9.0917042672E+00   -9.0328900649E+00
   -8.9748538679E+00   -8.9175793751E+00   -8.8610503559E+00   -8.8052507084E+00
   -8.7501645357E+00   -8.6957762285E+00   -8.6420705751E+00   -8.5890328210E+00
   -8.5366487109E+00   -8.4849045212E+00   -8.4337870447E+00   -8.3832836539E+00
   -8.3333823719E+00   -8.2840718525E+00   -8.2353413997E+00   -8.1871808244E+00
   -8.1395802452E+00   -8.0925300283E+00   -8.0460206975E+00   -8.0000429387E+00
   -7.9545876654E+00   -7.9096460122E+00   -7.8652093209E+00   -7.8212691364E+00
   -7.7778171884E+00   -7.7348453820E+00   -7.6923458004E+00   -7.6503107028E+00
   -7.6087325161E+00   -7.5676038306E+00   -7.5269173961E+00   -7.4866661173E+00
   -7.4468430502E+00   -7.4074413975E+00   -7.3684545050E+00   -7.3298758580E+00
   -7.2916990776E+00   -7.2539179168E+00   -7.2165262577E+00   -7.1795181077E+00
   -7.1428875966E+00   -7.1066289735E+00   -7.0707366035E+00   -7.0352049650E+00
   -7.0000286469E+00   -6.9652023458E+00   -6.9307208633E+00   -6.8965791033E+00
   -6.8627720699E+00   -6.8292948644E+00   -6.7961426835E+00   -6.7633108165E+00
   -6.7307946434E+00   -6.6985896325E+00   -6.6666913387E+00   -6.6350954009E+00
   -6.6037975404E+00   -6.5727935587E+00   -6.5420793362E+00   -6.5116508295E+00
   -6.4815040702E+00   -6.4516351632E+00   -6.4220402847E+00   -6.3927156809E+00
   -6.3636576662E+00   -6.3348626216E+00   -6.3063269934E+00   -6.2780472917E+00
   -6.2500200889E+00   -6.2222420182E+00   -6.1947097725E+00   -6.1674201031E+00
   -6.1403698181E+00   -6.1135557815E+00   -6.0869749116E+00   -6.0606241805E+00
   -6.0345006120E+00   -6.0086012814E+00   -5.9829233137E+00   -5.9574638832E+00
   -5.9322202116E+00   -5.9071895680E+00   -5.8823692671E+00   -5.8577566686E+00
   -5.8333491762E+00   -5.8091442368E+00   -5.7851393393E+00   -5.7613320141E+00
   -5.7377198321E+00   -5.7143004037E+00   -5.6910713782E+00   -5.6680304433E+00
   -5.6451753234E+00   -5.6225037800E+00   -5.6000136101E+00   -5.5777026460E+00
   -5.5555687542E+00   -5.5336098350E+00   -5.5118238220E+00   -5.4902086809E+00
   -5.4687624093E+00   -5.4474830360E+00   -5.4263686204E+00   -5.4054172518E+00
   -5.3846270488E+00   -5.3639961590E+00   -5.3435227583E+00   -5.3232050501E+00
   -5.3030412654E+00   -5.2830296615E+00   -5.2631685222E+00   -5.2434561569E+00
   -5.2238909001E+00   -5.2044711114E+00   -5.1851951744E+00   -5.1660614966E+00
   -5.1470685091E+00   -5.1282146659E+00   -5.1094984433E+00   -5.0909183403E+00
   -5.0724728771E+00   -5.0541605957E+00   -5.0359800587E+00   -5.0179298498E+00
   -5.0000085723E+00   -4.9822148500E+00   -4.9645473258E+00   -4.9470046619E+00
   -4.9295855394E+00   -4.9122886579E+00   -4.8951127351E+00   -4.8780565066E+00
   -4.8611187258E+00   -4.8442981628E+00   -4.8275936053E+00   -4.8110038573E+00
   -4.7945277391E+00   -4.7781640874E+00   -4.7619117546E+00   -4.7457696085E+00
   -4.7297365325E+00   -4.7138114248E+00   -4.6979931984E+00   -4.6822807811E+00
   -4.6666731146E+00   -4.6511691550E+00   -4.6357678720E+00   -4.6204682491E+00
   -4.6052692829E+00   -4.5901699835E+00   -4.5751693737E+00   -4.5602664891E+00
   -4.5454603778E+00   -4.5307501003E+00   -4.5161347291E+00   -4.5016133487E+00
   -4.4871850553E+00   -4.4728489568E+00   -4.4586041723E+00   -4.4444498320E+00
   -4.4303850774E+00   -4.4164090606E+00   -4.4025209445E+00   -4.3887199023E+00
   -4.3750051178E+00   -4.3613757848E+00   -4.3478311071E+00   -4.3343702984E+00
   -4.3209925823E+00   -4.3076971915E+00   -4.2944833686E+00   -4.2813503652E+00
   -4.2682974421E+00   -4.2553238690E+00   -4.2424289245E+00   -4.2296118960E+00
   -4.2168720795E+00   -4.2042087792E+00   -4.1916213079E+00   -4.1791089866E+00
   -4.1666711442E+00   -4.1543071176E+00   -4.1420162517E+00   -4.1297978991E+00
   -4.1176514199E+00   -4.1055761818E+00   -4.0935715597E+00   -4.0816369362E+00
   -4.0697717006E+00   -4.0579752497E+00   -4.0462469869E+00   -4.0345863228E+00
   -4.0229926746E+00   -4.0114654662E+00   -4.0000041281E+00   -3.9886080973E+00
   -3.9772768172E+00   -3.9660097375E+00   -3.9548063140E+00   -3.9436660089E+00
   -3.9325882902E+00   -3.9215726320E+00   -3.9106185141E+00   -3.8997254224E+00
   -3.8888928482E+00   -3.8781202887E+00   -3.8674072464E+00   -3.8567532294E+00
   -3.8461577513E+00   -3.8356203310E+00   -3.8251404924E+00   -3.8147177649E+00
   -3.8043516830E+00   -3.7940417860E+00   -3.7837876184E+00   -3.7735887296E+00
   -3.7634446737E+00   -3.7533550097E+00   -3.7433193013E+00   -3.7333371169E+00
   -3.7234080293E+00   -3.7135316161E+00   -3.7037074592E+00   -3.6939351449E+00
   -3.6842142639E+00   -3.6745444113E+00   -3.6649251863E+00   -3.6553561924E+00
   -3.6458370370E+00   -3.6363673318E+00   -3.6269466925E+00   -3.6175747387E+00
   -3.6082510940E+00   -3.5989753859E+00   -3.5897472454E+00   -3.5805663078E+00
   -3.5714322117E+00   -3.5623445995E+00   -3.5533031174E+00   -3.5443074149E+00
   -3.5353571452E+00   -3.5264519650E+00   -3.5175915344E+00   -3.5087755170E+00
   -3.5000035797E+00   -3.4912753926E+00   -3.4825906292E+00   -3.4739489664E+00
   -3.4653500841E+00   -3.4567936652E+00   -3.4482793962E+00   -3.4398069663E+00
   -3.4313760678E+00   -3.4229863961E+00   -3.4146376496E+00   -3.4063295295E+00
   -3.3980617399E+00   -3.3898339881E+00   -3.3816459837E+00   -3.3734974395E+00
   -3.3653880709E+00   -3.3573175960E+00   -3.3492857358E+00   -3.3412922136E+00
   -3.3333367558E+00   -3.3254190910E+00   -3.3175389506E+00   -3.3096960685E+00
   -3.3018901809E+00   -3.2941210269E+00   -3.2863883476E+00   -3.2786918868E+00
   -3.2710313907E+00   -3.2634066078E+00   -3.2558172889E+00   -3.2482631871E+00
   -3.2407440578E+00   -3.2332596589E+00   -3.2258097502E+00   -3.2183940938E+00
   -3.2110124540E+00   -3.2036645974E+00   -3.1963502925E+00   -3.1890693101E+00
   -3.1818214230E+00   -3.1746064060E+00   -3.1674240360E+00   -3.1602740919E+00
   -3.1531563547E+00   -3.1460706072E+00   -3.1390166342E+00   -3.1319942225E+00
   -3.1250031608E+00   -3.1180432396E+00   -3.1111142512E+00   -3.1042159899E+00
   -3.0973482518E+00   -3.0905108348E+00   -3.0837035384E+00   -3.0769261641E+00
   -3.0701785150E+00   -3.0634603961E+00   -3.0567716137E+00   -3.0501119763E+00
   -3.0434812938E+00   -3.0368793777E+00   -3.0303060412E+00   -3.0237610991E+00
   -3.0172443679E+00   -3.0107556656E+00   -3.0042948117E+00   -2.9978616273E+00
   -2.9914559351E+00   -2.9850775592E+00   -2.9787263252E+00   -2.9724020602E+00
   -2.9661045929E+00   -2.9598337533E+00   -2.9535893729E+00   -2.9473712845E+00
   -2.9411793225E+00   -2.9350133225E+00   -2.9288731215E+00   -2.9227585581E+00
   -2.9166694720E+00   -2.9106057042E+00   -2.9045670972E+00   -2.8985534948E+00
   -2.8925647418E+00   -2.8866006847E+00   -2.8806611710E+00   -2.8747460495E+00
   -2.8688551702E+00   -2.8629883844E+00   -2.8571455446E+00   -2.8513265045E+00
   -2.8455311190E+00   -2.8397592442E+00   -2.8340107372E+00   -2.8282854564E+00
   -2.8225832614E+00   -2.8169040128E+00   -2.8112475724E+00   -2.8056138030E+00
   -2.8000025687E+00   -2.7944137344E+00   -2.7888471664E+00   -2.7833027318E+00
   -2.7777802989E+00   -2.7722797370E+00   -2.7668009164E+00   -2.7613437084E+00
   -2.7559079855E+00   -2.7504936210E+00   -2.7451004892E+00   -2.7397284656E+00
   -2.7343774264E+00   -2.7290472489E+00   -2.7237378114E+00   -2.7184489930E+00
   -2.7131806739E+00   -2.7079327351E+00   -2.7027050586E+00   -2.6974975273E+00
   -2.6923100249E+00   -2.6871424361E+00   -2.6819946464E+00   -2.6768665424E+00
   -2.6717580113E+00   -2.6666689412E+00   -2.6615992212E+00   -2.6565487410E+00