<UPF version="2.0.1">
  <PP_INFO>

 This pseudopotential file has been produced using the code
 ONCVPSP  (Optimized Norm-Conservinng Vanderbilt PSeudopotential)
 fully-relativistic version 3.3.1 12/12/2017 by D. R. Hamann
 The code is available through a link at URL www.mat-simresearch.com.
 Documentation with the package provides a full discription of the
 input data below.


 While it is not required under the terms of the GNU GPL, it is
 suggested that you cite D. R. Hamann, Phys. Rev. B 88, 085117 (2013)
 in any publication using these pseudopotentials.

    <PP_INPUTFILE>
# ATOM AND REFERENCE CONFIGURATION
# atsym  z   nc   nv     iexc    psfile
  F  9.00    1    2 -116133      upf
#
#   n    l    f        energy (Ha)
    1    0    2.00
    2    0    2.00
    2    1    5.00
#
# PSEUDOPOTENTIAL AND OPTIMIZATION
# lmax
    1
#
#   l,   rc,     ep,   ncon, nbas, qcut
    0   1.58478  -1.09217    5    8   8.73495
    1   1.66223  -0.40534    5    8   8.69707
#
# LOCAL POTENTIAL
# lloc, lpopt,  rc(5),   dvloc0
    4    5   0.97178      0.00000
#
# VANDERBILT-KLEINMAN-BYLANDER PROJECTORs
# l, nproj, debl
    0    2   1.51125
    1    2   1.53089
#
# MODEL CORE CHARGE
# icmod, fcfact, rcfact
    0   0.00000   0.00000
#
# LOG DERIVATIVE ANALYSIS
# epsh1, epsh2, depsh
   -5.00    3.00    0.02
#
# OUTPUT GRID
# rlmax, drl
    6.00    0.01
#
# TEST CONFIGURATIONS
# ncnf
    0
# nvcnf
#   n    l    f
    </PP_INPUTFILE>
  </PP_INFO>
  <!--                               -->
  <!-- END OF HUMAN READABLE SECTION -->
  <!--                               -->
    <PP_HEADER
       generated="Generated using ONCVPSP code by D. R. Hamann"
       author="anonymous"
       date="210904"
       comment=""
       element="F "
       pseudo_type="NC"
       relativistic="full"
       is_ultrasoft="F"
       is_paw="F"
       is_coulomb="F"
       has_so="T"
       has_wfc="F"
       has_gipaw="F"
       core_correction="F"
       functional="PBESOL"
       z_valence="    7.00"
       total_psenergy="  -4.73228460359E+01"
       rho_cutoff="   8.31000000000E+00"
       l_max="1"
       l_local="-1"
       mesh_size="   832"
       number_of_wfc="3"
       number_of_proj="6"/>
 <PP_MESH>
   <PP_R type="real"  size=" 832" columns="8">
    0.0000    0.0100    0.0200    0.0300    0.0400    0.0500    0.0600    0.0700
    0.0800    0.0900    0.1000    0.1100    0.1200    0.1300    0.1400    0.1500
    0.1600    0.1700    0.1800    0.1900    0.2000    0.2100    0.2200    0.2300
    0.2400    0.2500    0.2600    0.2700    0.2800    0.2900    0.3000    0.3100
    0.3200    0.3300    0.3400    0.3500    0.3600    0.3700    0.3800    0.3900
    0.4000    0.4100    0.4200    0.4300    0.4400    0.4500    0.4600    0.4700
    0.4800    0.4900    0.5000    0.5100    0.5200    0.5300    0.5400    0.5500
    0.5600    0.5700    0.5800    0.5900    0.6000    0.6100    0.6200    0.6300
    0.6400    0.6500    0.6600    0.6700    0.6800    0.6900    0.7000    0.7100
    0.7200    0.7300    0.7400    0.7500    0.7600    0.7700    0.7800    0.7900
    0.8000    0.8100    0.8200    0.8300    0.8400    0.8500    0.8600    0.8700
    0.8800    0.8900    0.9000    0.9100    0.9200    0.9300    0.9400    0.9500
    0.9600    0.9700    0.9800    0.9900    1.0000    1.0100    1.0200    1.0300
    1.0400    1.0500    1.0600    1.0700    1.0800    1.0900    1.1000    1.1100
    1.1200    1.1300    1.1400    1.1500    1.1600    1.1700    1.1800    1.1900
    1.2000    1.2100    1.2200    1.2300    1.2400    1.2500    1.2600    1.2700
    1.2800    1.2900    1.3000    1.3100    1.3200    1.3300    1.3400    1.3500
    1.3600    1.3700    1.3800    1.3900    1.4000    1.4100    1.4200    1.4300
    1.4400    1.4500    1.4600    1.4700    1.4800    1.4900    1.5000    1.5100
    1.5200    1.5300    1.5400    1.5500    1.5600    1.5700    1.5800    1.5900
    1.6000    1.6100    1.6200    1.6300    1.6400    1.6500    1.6600    1.6700
    1.6800    1.6900    1.7000    1.7100    1.7200    1.7300    1.7400    1.7500
    1.7600    1.7700    1.7800    1.7900    1.8000    1.8100    1.8200    1.8300
    1.8400    1.8500    1.8600    1.8700    1.8800    1.8900    1.9000    1.9100
    1.9200    1.9300    1.9400    1.9500    1.9600    1.9700    1.9800    1.9900
    2.0000    2.0100    2.0200    2.0300    2.0400    2.0500    2.0600    2.0700
    2.0800    2.0900    2.1000    2.1100    2.1200    2.1300    2.1400    2.1500
    2.1600    2.1700    2.1800    2.1900    2.2000    2.2100    2.2200    2.2300
    2.2400    2.2500    2.2600    2.2700    2.2800    2.2900    2.3000    2.3100
    2.3200    2.3300    2.3400    2.3500    2.3600    2.3700    2.3800    2.3900
    2.4000    2.4100    2.4200    2.4300    2.4400    2.4500    2.4600    2.4700
    2.4800    2.4900    2.5000    2.5100    2.5200    2.5300    2.5400    2.5500
    2.5600    2.5700    2.5800    2.5900    2.6000    2.6100    2.6200    2.6300
    2.6400    2.6500    2.6600    2.6700    2.6800    2.6900    2.7000    2.7100
    2.7200    2.7300    2.7400    2.7500    2.7600    2.7700    2.7800    2.7900
    2.8000    2.8100    2.8200    2.8300    2.8400    2.8500    2.8600    2.8700
    2.8800    2.8900    2.9000    2.9100    2.9200    2.9300    2.9400    2.9500
    2.9600    2.9700    2.9800    2.9900    3.0000    3.0100    3.0200    3.0300
    3.0400    3.0500    3.0600    3.0700    3.0800    3.0900    3.1000    3.1100
    3.1200    3.1300    3.1400    3.1500    3.1600    3.1700    3.1800    3.1900
    3.2000    3.2100    3.2200    3.2300    3.2400    3.2500    3.2600    3.2700
    3.2800    3.2900    3.3000    3.3100    3.3200    3.3300    3.3400    3.3500
    3.3600    3.3700    3.3800    3.3900    3.4000    3.4100    3.4200    3.4300
    3.4400    3.4500    3.4600    3.4700    3.4800    3.4900    3.5000    3.5100
    3.5200    3.5300    3.5400    3.5500    3.5600    3.5700    3.5800    3.5900
    3.6000    3.6100    3.6200    3.6300    3.6400    3.6500    3.6600    3.6700
    3.6800    3.6900    3.7000    3.7100    3.7200    3.7300    3.7400    3.7500
    3.7600    3.7700    3.7800    3.7900    3.8000    3.8100    3.8200    3.8300
    3.8400    3.8500    3.8600    3.8700    3.8800    3.8900    3.9000    3.9100
    3.9200    3.9300    3.9400    3.9500    3.9600    3.9700    3.9800    3.9900
    4.0000    4.0100    4.0200    4.0300    4.0400    4.0500    4.0600    4.0700
    4.0800    4.0900    4.1000    4.1100    4.1200    4.1300    4.1400    4.1500
    4.1600    4.1700    4.1800    4.1900    4.2000    4.2100    4.2200    4.2300
    4.2400    4.2500    4.2600    4.2700    4.2800    4.2900    4.3000    4.3100
    4.3200    4.3300    4.3400    4.3500    4.3600    4.3700    4.3800    4.3900
    4.4000    4.4100    4.4200    4.4300    4.4400    4.4500    4.4600    4.4700
    4.4800    4.4900    4.5000    4.5100    4.5200    4.5300    4.5400    4.5500
    4.5600    4.5700    4.5800    4.5900    4.6000    4.6100    4.6200    4.6300
    4.6400    4.6500    4.6600    4.6700    4.6800    4.6900    4.7000    4.7100
    4.7200    4.7300    4.7400    4.7500    4.7600    4.7700    4.7800    4.7900
    4.8000    4.8100    4.8200    4.8300    4.8400    4.8500    4.8600    4.8700
    4.8800    4.8900    4.9000    4.9100    4.9200    4.9300    4.9400    4.9500
    4.9600    4.9700    4.9800    4.9900    5.0000    5.0100    5.0200    5.0300
    5.0400    5.0500    5.0600    5.0700    5.0800    5.0900    5.1000    5.1100
    5.1200    5.1300    5.1400    5.1500    5.1600    5.1700    5.1800    5.1900
    5.2000    5.2100    5.2200    5.2300    5.2400    5.2500    5.2600    5.2700
    5.2800    5.2900    5.3000    5.3100    5.3200    5.3300    5.3400    5.3500
    5.3600    5.3700    5.3800    5.3900    5.4000    5.4100    5.4200    5.4300
    5.4400    5.4500    5.4600    5.4700    5.4800    5.4900    5.5000    5.5100
    5.5200    5.5300    5.5400    5.5500    5.5600    5.5700    5.5800    5.5900
    5.6000    5.6100    5.6200    5.6300    5.6400    5.6500    5.6600    5.6700
    5.6800    5.6900    5.7000    5.7100    5.7200    5.7300    5.7400    5.7500
    5.7600    5.7700    5.7800    5.7900    5.8000    5.8100    5.8200    5.8300
    5.8400    5.8500    5.8600    5.8700    5.8800    5.8900    5.9000    5.9100
    5.9200    5.9300    5.9400    5.9500    5.9600    5.9700    5.9800    5.9900
    6.0000    6.0100    6.0200    6.0300    6.0400    6.0500    6.0600    6.0700
    6.0800    6.0900    6.1000    6.1100    6.1200    6.1300    6.1400    6.1500
    6.1600    6.1700    6.1800    6.1900    6.2000    6.2100    6.2200    6.2300
    6.2400    6.2500    6.2600    6.2700    6.2800    6.2900    6.3000    6.3100
    6.3200    6.3300    6.3400    6.3500    6.3600    6.3700    6.3800    6.3900
    6.4000    6.4100    6.4200    6.4300    6.4400    6.4500    6.4600    6.4700
    6.4800    6.4900    6.5000    6.5100    6.5200    6.5300    6.5400    6.5500
    6.5600    6.5700    6.5800    6.5900    6.6000    6.6100    6.6200    6.6300
    6.6400    6.6500    6.6600    6.6700    6.6800    6.6900    6.7000    6.7100
    6.7200    6.7300    6.7400    6.7500    6.7600    6.7700    6.7800    6.7900
    6.8000    6.8100    6.8200    6.8300    6.8400    6.8500    6.8600    6.8700
    6.8800    6.8900    6.9000    6.9100    6.9200    6.9300    6.9400    6.9500
    6.9600    6.9700    6.9800    6.9900    7.0000    7.0100    7.0200    7.0300
    7.0400    7.0500    7.0600    7.0700    7.0800    7.0900    7.1000    7.1100
    7.1200    7.1300    7.1400    7.1500    7.1600    7.1700    7.1800    7.1900
    7.2000    7.2100    7.2200    7.2300    7.2400    7.2500    7.2600    7.2700
    7.2800    7.2900    7.3000    7.3100    7.3200    7.3300    7.3400    7.3500
    7.3600    7.3700    7.3800    7.3900    7.4000    7.4100    7.4200    7.4300
    7.4400    7.4500    7.4600    7.4700    7.4800    7.4900    7.5000    7.5100
    7.5200    7.5300    7.5400    7.5500    7.5600    7.5700    7.5800    7.5900
    7.6000    7.6100    7.6200    7.6300    7.6400    7.6500    7.6600    7.6700
    7.6800    7.6900    7.7000    7.7100    7.7200    7.7300    7.7400    7.7500
    7.7600    7.7700    7.7800    7.7900    7.8000    7.8100    7.8200    7.8300
    7.8400    7.8500    7.8600    7.8700    7.8800    7.8900    7.9000    7.9100
    7.9200    7.9300    7.9400    7.9500    7.9600    7.9700    7.9800    7.9900
    8.0000    8.0100    8.0200    8.0300    8.0400    8.0500    8.0600    8.0700
    8.0800    8.0900    8.1000    8.1100    8.1200    8.1300    8.1400    8.1500
    8.1600    8.1700    8.1800    8.1900    8.2000    8.2100    8.2200    8.2300
    8.2400    8.2500    8.2600    8.2700    8.2800    8.2900    8.3000    8.3100
   </PP_R>
   <PP_RAB type="real"  size=" 832" columns="8">
    0.0100    0.0100    0.0100    0.0100    0.0100    0.0100    0.0100    0.0100
    0.0100    0.0100    0.0100    0.0100    0.0100    0.0100    0.0100    0.0100
    0.0100    0.0100    0.0100    0.0100    0.0100    0.0100    0.0100    0.0100
    0.0100    0.0100    0.0100    0.0100    0.0100    0.0100    0.0100    0.0100
    0.0100    0.0100    0.0100    0.0100    0.0100    0.0100    0.0100    0.0100
    0.0100    0.0100    0.0100    0.0100    0.0100    0.0100    0.0100    0.0100
    0.0100    0.0100    0.0100    0.0100    0.0100    0.0100    0.0100    0.0100
    0.0100    0.0100    0.0100    0.0100    0.0100    0.0100    0.0100    0.0100
    0.0100    0.0100    0.0100    0.0100    0.0100    0.0100    0.0100    0.0100
    0.0100    0.0100    0.0100    0.0100    0.0100    0.0100    0.0100    0.0100
    0.0100    0.0100    0.0100    0.0100    0.0100    0.0100    0.0100    0.0100
    0.0100    0.0100    0.0100    0.0100    0.0100    0.0100    0.0100    0.0100
    0.0100    0.0100    0.0100    0.0100    0.0100    0.0100    0.0100    0.0100
    0.0100    0.0100    0.0100    0.0100    0.0100    0.0100    0.0100    0.0100
    0.0100    0.0100    0.0100    0.0100    0.0100    0.0100    0.0100    0.0100
    0.0100    0.0100    0.0100    0.0100    0.0100    0.0100    0.0100    0.0100
    0.0100    0.0100    0.0100    0.0100    0.0100    0.0100    0.0100    0.0100
    0.0100    0.0100    0.0100    0.0100    0.0100    0.0100    0.0100    0.0100
    0.0100    0.0100    0.0100    0.0100    0.0100    0.0100    0.0100    0.0100
    0.0100    0.0100    0.0100    0.0100    0.0100    0.0100    0.0100    0.0100
    0.0100    0.0100    0.0100    0.0100    0.0100    0.0100    0.0100    0.0100
    0.0100    0.0100    0.0100    0.0100    0.0100    0.0100    0.0100    0.0100
    0.0100    0.0100    0.0100    0.0100    0.0100    0.0100    0.0100    0.0100
    0.0100    0.0100    0.0100    0.0100    0.0100    0.0100    0.0100    0.0100
    0.0100    0.0100    0.0100    0.0100    0.0100    0.0100    0.0100    0.0100
    0.0100    0.0100    0.0100    0.0100    0.0100    0.0100    0.0100    0.0100
    0.0100    0.0100    0.0100    0.0100    0.0100    0.0100    0.0100    0.0100
    0.0100    0.0100    0.0100    0.0100    0.0100    0.0100    0.0100    0.0100
    0.0100    0.0100    0.0100    0.0100    0.0100    0.0100    0.0100    0.0100
    0.0100    0.0100    0.0100    0.0100    0.0100    0.0100    0.0100    0.0100
    0.0100    0.0100    0.0100    0.0100    0.0100    0.0100    0.0100    0.0100
    0.0100    0.0100    0.0100    0.0100    0.0100    0.0100    0.0100    0.0100
    0.0100    0.0100    0.0100    0.0100    0.0100    0.0100    0.0100    0.0100
    0.0100    0.0100    0.0100    0.0100    0.0100    0.0100    0.0100    0.0100
    0.0100    0.0100    0.0100    0.0100    0.0100    0.0100    0.0100    0.0100
    0.0100    0.0100    0.0100    0.0100    0.0100    0.0100    0.0100    0.0100
    0.0100    0.0100    0.0100    0.0100    0.0100    0.0100    0.0100    0.0100
    0.0100    0.0100    0.0100    0.0100    0.0100    0.0100    0.0100    0.0100
    0.0100    0.0100    0.0100    0.0100    0.0100    0.0100    0.0100    0.0100
    0.0100    0.0100    0.0100    0.0100    0.0100    0.0100    0.0100    0.0100
    0.0100    0.0100    0.0100    0.0100    0.0100    0.0100    0.0100    0.0100
    0.0100    0.0100    0.0100    0.0100    0.0100    0.0100    0.0100    0.0100
    0.0100    0.0100    0.0100    0.0100    0.0100    0.0100    0.0100    0.0100
    0.0100    0.0100    0.0100    0.0100    0.0100    0.0100    0.0100    0.0100
    0.0100    0.0100    0.0100    0.0100    0.0100    0.0100    0.0100    0.0100
    0.0100    0.0100    0.0100    0.0100    0.0100    0.0100    0.0100    0.0100
    0.0100    0.0100    0.0100    0.0100    0.0100    0.0100    0.0100    0.0100
    0.0100    0.0100    0.0100    0.0100    0.0100    0.0100    0.0100    0.0100
    0.0100    0.0100    0.0100    0.0100    0.0100    0.0100    0.0100    0.0100
    0.0100    0.0100    0.0100    0.0100    0.0100    0.0100    0.0100    0.0100
    0.0100    0.0100    0.0100    0.0100    0.0100    0.0100    0.0100    0.0100
    0.0100    0.0100    0.0100    0.0100    0.0100    0.0100    0.0100    0.0100
    0.0100    0.0100    0.0100    0.0100    0.0100    0.0100    0.0100    0.0100
    0.0100    0.0100    0.0100    0.0100    0.0100    0.0100    0.0100    0.0100
    0.0100    0.0100    0.0100    0.0100    0.0100    0.0100    0.0100    0.0100
    0.0100    0.0100    0.0100    0.0100    0.0100    0.0100    0.0100    0.0100
    0.0100    0.0100    0.0100    0.0100    0.0100    0.0100    0.0100    0.0100
    0.0100    0.0100    0.0100    0.0100    0.0100    0.0100    0.0100    0.0100
    0.0100    0.0100    0.0100    0.0100    0.0100    0.0100    0.0100    0.0100
    0.0100    0.0100    0.0100    0.0100    0.0100    0.0100    0.0100    0.0100
    0.0100    0.0100    0.0100    0.0100    0.0100    0.0100    0.0100    0.0100
    0.0100    0.0100    0.0100    0.0100    0.0100    0.0100    0.0100    0.0100
    0.0100    0.0100    0.0100    0.0100    0.0100    0.0100    0.0100    0.0100
    0.0100    0.0100    0.0100    0.0100    0.0100    0.0100    0.0100    0.0100
    0.0100    0.0100    0.0100    0.0100    0.0100    0.0100    0.0100    0.0100
    0.0100    0.0100    0.0100    0.0100    0.0100    0.0100    0.0100    0.0100
    0.0100    0.0100    0.0100    0.0100    0.0100    0.0100    0.0100    0.0100
    0.0100    0.0100    0.0100    0.0100    0.0100    0.0100    0.0100    0.0100
    0.0100    0.0100    0.0100    0.0100    0.0100    0.0100    0.0100    0.0100
    0.0100    0.0100    0.0100    0.0100    0.0100    0.0100    0.0100    0.0100
    0.0100    0.0100    0.0100    0.0100    0.0100    0.0100    0.0100    0.0100
    0.0100    0.0100    0.0100    0.0100    0.0100    0.0100    0.0100    0.0100
    0.0100    0.0100    0.0100    0.0100    0.0100    0.0100    0.0100    0.0100
    0.0100    0.0100    0.0100    0.0100    0.0100    0.0100    0.0100    0.0100
    0.0100    0.0100    0.0100    0.0100    0.0100    0.0100    0.0100    0.0100
    0.0100    0.0100    0.0100    0.0100    0.0100    0.0100    0.0100    0.0100
    0.0100    0.0100    0.0100    0.0100    0.0100    0.0100    0.0100    0.0100
    0.0100    0.0100    0.0100    0.0100    0.0100    0.0100    0.0100    0.0100
    0.0100    0.0100    0.0100    0.0100    0.0100    0.0100    0.0100    0.0100
    0.0100    0.0100    0.0100    0.0100    0.0100    0.0100    0.0100    0.0100
    0.0100    0.0100    0.0100    0.0100    0.0100    0.0100    0.0100    0.0100
    0.0100    0.0100    0.0100    0.0100    0.0100    0.0100    0.0100    0.0100
    0.0100    0.0100    0.0100    0.0100    0.0100    0.0100    0.0100    0.0100
    0.0100    0.0100    0.0100    0.0100    0.0100    0.0100    0.0100    0.0100
    0.0100    0.0100    0.0100    0.0100    0.0100    0.0100    0.0100    0.0100
    0.0100    0.0100    0.0100    0.0100    0.0100    0.0100    0.0100    0.0100
    0.0100    0.0100    0.0100    0.0100    0.0100    0.0100    0.0100    0.0100
    0.0100    0.0100    0.0100    0.0100    0.0100    0.0100    0.0100    0.0100
    0.0100    0.0100    0.0100    0.0100    0.0100    0.0100    0.0100    0.0100
    0.0100    0.0100    0.0100    0.0100    0.0100    0.0100    0.0100    0.0100
    0.0100    0.0100    0.0100    0.0100    0.0100    0.0100    0.0100    0.0100
    0.0100    0.0100    0.0100    0.0100    0.0100    0.0100    0.0100    0.0100
    0.0100    0.0100    0.0100    0.0100    0.0100    0.0100    0.0100    0.0100
    0.0100    0.0100    0.0100    0.0100    0.0100    0.0100    0.0100    0.0100
    0.0100    0.0100    0.0100    0.0100    0.0100    0.0100    0.0100    0.0100
    0.0100    0.0100    0.0100    0.0100    0.0100    0.0100    0.0100    0.0100
    0.0100    0.0100    0.0100    0.0100    0.0100    0.0100    0.0100    0.0100
    0.0100    0.0100    0.0100    0.0100    0.0100    0.0100    0.0100    0.0100
    0.0100    0.0100    0.0100    0.0100    0.0100    0.0100    0.0100    0.0100
    0.0100    0.0100    0.0100    0.0100    0.0100    0.0100    0.0100    0.0100
    0.0100    0.0100    0.0100    0.0100    0.0100    0.0100    0.0100    0.0100
    0.0100    0.0100    0.0100    0.0100    0.0100    0.0100    0.0100    0.0100
    0.0100    0.0100    0.0100    0.0100    0.0100    0.0100    0.0100    0.0100
    0.0100    0.0100    0.0100    0.0100    0.0100    0.0100    0.0100    0.0100
   </PP_RAB>
 </PP_MESH>
  <PP_LOCAL type="real"  size=" 832" columns="4">
   -3.0789095536E+01   -3.0815405920E+01   -3.0881813875E+01   -3.0966789612E+01
   -3.1046269339E+01   -3.1103330789E+01   -3.1130265489E+01   -3.1126359823E+01
   -3.1094696936E+01   -3.1039715899E+01   -3.0965833593E+01   -3.0876852111E+01
   -3.0775811310E+01   -3.0665046925E+01   -3.0546319392E+01   -3.0420948585E+01
   -3.0289928858E+01   -3.0154018067E+01   -3.0013802601E+01   -2.9869743207E+01
   -2.9722206599E+01   -2.9571487058E+01   -2.9417821220E+01   -2.9261398302E+01
   -2.9102367315E+01   -2.8940842257E+01   -2.8776905967E+01   -2.8610613078E+01
   -2.8441992407E+01   -2.8271049028E+01   -2.8097766270E+01   -2.7922107819E+01
   -2.7744020116E+01   -2.7563435184E+01   -2.7380273977E+01   -2.7194450292E+01
   -2.7005875207E+01   -2.6814461936E+01   -2.6620130938E+01   -2.6422815034E+01
   -2.6222464284E+01   -2.6019050338E+01   -2.5812570010E+01   -2.5603047881E+01
   -2.5390537787E+01   -2.5175123140E+01   -2.4956916128E+01   -2.4736055902E+01
   -2.4512705921E+01   -2.4287050686E+01   -2.4059292083E+01   -2.3829645571E+01
   -2.3598336421E+01   -2.3365596173E+01   -2.3131659429E+01   -2.2896761073E+01
   -2.2661133952E+01   -2.2425007018E+01   -2.2188603908E+01   -2.1952141929E+01
   -2.1715831371E+01   -2.1479875114E+01   -2.1244468450E+01   -2.1009799076E+01
   -2.0776047197E+01   -2.0543385710E+01   -2.0311980427E+01   -2.0081990305E+01
   -1.9853567678E+01   -1.9626858453E+01   -1.9402002292E+01   -1.9179132737E+01
   -1.8958377309E+01   -1.8739857558E+01   -1.8523689079E+01   -1.8309981485E+01
   -1.8098838350E+01   -1.7890357120E+01   -1.7684628996E+01   -1.7481738799E+01
   -1.7281764803E+01   -1.7084778564E+01   -1.6890844727E+01   -1.6700020824E+01
   -1.6512357058E+01   -1.6327896090E+01   -1.6146672803E+01   -1.5968714079E+01
   -1.5794038558E+01   -1.5622656401E+01   -1.5454569049E+01   -1.5289768977E+01
   -1.5128239449E+01   -1.4969954267E+01   -1.4814877525E+01   -1.4662963347E+01
   -1.4514155642E+01   -1.4368387825E+01   -1.4225582667E+01   -1.4085651660E+01
   -1.3948500144E+01   -1.3814034522E+01   -1.3682165481E+01   -1.3552807229E+01
   -1.3425877520E+01   -1.3301297527E+01   -1.3178991723E+01   -1.3058887774E+01
   -1.2940916431E+01   -1.2825011430E+01   -1.2711109395E+01   -1.2599149746E+01
   -1.2489074606E+01   -1.2380828718E+01   -1.2274359356E+01   -1.2169616245E+01
   -1.2066551478E+01   -1.1965119439E+01   -1.1865276725E+01   -1.1766982064E+01
   -1.1670196246E+01   -1.1574882038E+01   -1.1481004110E+01   -1.1388528958E+01
   -1.1297424821E+01   -1.1207661604E+01   -1.1119210793E+01   -1.1032045371E+01
   -1.0946139733E+01   -1.0861469598E+01   -1.0778011917E+01   -1.0695744785E+01
   -1.0614647345E+01   -1.0534699697E+01   -1.0455882804E+01   -1.0378178393E+01
   -1.0301568867E+01   -1.0226037211E+01   -1.0151566902E+01   -1.0078141821E+01
   -1.0005746172E+01   -9.9343643992E+00   -9.8639811188E+00   -9.7945810481E+00
   -9.7261489472E+00   -9.6586695656E+00   -9.5921275980E+00   -9.5265076490E+00
   -9.4617942061E+00   -9.3979716221E+00   -9.3350241073E+00   -9.2729357303E+00
   -9.2116904279E+00   -9.1512720232E+00   -9.0916642520E+00   -9.0328507970E+00
   -8.9748153262E+00   -8.9175415394E+00   -8.8610132067E+00   -8.8052142272E+00
   -8.7501287048E+00   -8.6957410308E+00   -8.6420359942E+00   -8.5889988415E+00
   -8.5366153176E+00   -8.4848716996E+00   -8.4337547810E+00   -8.3832519344E+00
   -8.3333511837E+00   -8.2840411828E+00   -8.2353112363E+00   -8.1871511554E+00
   -8.1395510591E+00   -8.0925013140E+00   -8.0459924443E+00   -8.0000151361E+00
   -7.9545603032E+00   -7.9096190806E+00   -7.8651828104E+00   -7.8212430377E+00
   -7.7777914928E+00   -7.7348200806E+00   -7.6923208851E+00   -7.6502861653E+00
   -7.6087083487E+00   -7.5675800256E+00   -7.5268939462E+00   -7.4866430155E+00
   -7.4468202895E+00   -7.4074189712E+00   -7.3684324068E+00   -7.3298540817E+00
   -7.2916776170E+00   -7.2538967661E+00   -7.2165054113E+00   -7.1794975601E+00
   -7.1428673426E+00   -7.1066090079E+00   -7.0707169213E+00   -7.0351855615E+00
   -7.0000095174E+00   -6.9651834858E+00   -6.9307022684E+00   -6.8965607694E+00
   -6.8627539928E+00   -6.8292770402E+00   -6.7961251084E+00   -6.7632934867E+00
   -6.7307775553E+00   -6.6985727826E+00   -6.6666747236E+00   -6.6350790173E+00
   -6.6037813851E+00   -6.5727776286E+00   -6.5420636282E+00   -6.5116353407E+00
   -6.4814887977E+00   -6.4516201042E+00   -6.4220254366E+00   -6.3927010409E+00
   -6.3636432317E+00   -6.3348483900E+00   -6.3063129623E+00   -6.2780334587E+00
   -6.2500064515E+00   -6.2222285741E+00   -6.1946965195E+00   -6.1674070388E+00
   -6.1403569404E+00   -6.1135430881E+00   -6.0869624005E+00   -6.0606118494E+00
   -6.0344884590E+00   -6.0085893043E+00   -5.9829115106E+00   -5.9574522519E+00
   -5.9322087503E+00   -5.9071782746E+00   -5.8823581397E+00   -5.8577457052E+00
   -5.8333383749E+00   -5.8091335957E+00   -5.7851288564E+00   -5.7613216876E+00
   -5.7377096601E+00   -5.7142903843E+00   -5.6910615096E+00   -5.6680207235E+00
   -5.6451657507E+00   -5.6224943525E+00   -5.6000043260E+00   -5.5776935033E+00
   -5.5555597511E+00   -5.5336009698E+00   -5.5118150928E+00   -5.4902000858E+00
   -5.4687539466E+00   -5.4474747038E+00   -5.4263604169E+00   -5.4054091751E+00
   -5.3846190971E+00   -5.3639883306E+00   -5.3435150513E+00   -5.3231974627E+00
   -5.3030337958E+00   -5.2830223079E+00   -5.2631612827E+00   -5.2434490298E+00
   -5.2238838836E+00   -5.2044642037E+00   -5.1851883737E+00   -5.1660548012E+00
   -5.1470619171E+00   -5.1282081755E+00   -5.1094920529E+00   -5.0909120480E+00
   -5.0724666813E+00   -5.0541544945E+00   -5.0359740505E+00   -5.0179239327E+00
   -5.0000027448E+00   -4.9822091102E+00   -4.9645416721E+00   -4.9469990926E+00
   -4.9295800529E+00   -4.9122832524E+00   -4.8951074090E+00   -4.8780512584E+00
   -4.8611135536E+00   -4.8442930652E+00   -4.8275885807E+00   -4.8109989040E+00
   -4.7945228556E+00   -4.7781592721E+00   -4.7619070060E+00   -4.7457649251E+00
   -4.7297319128E+00   -4.7138068672E+00   -4.6979887016E+00   -4.6822763435E+00
   -4.6666687349E+00   -4.6511648317E+00   -4.6357636037E+00   -4.6204640344E+00
   -4.6052651206E+00   -4.5901658721E+00   -4.5751653120E+00   -4.5602624757E+00
   -4.5454564115E+00   -4.5307461797E+00   -4.5161308531E+00   -4.5016095161E+00
   -4.4871812649E+00   -4.4728452074E+00   -4.4586004627E+00   -4.4444461611E+00
   -4.4303814441E+00   -4.4164054639E+00   -4.4025173832E+00   -4.3887163754E+00
   -4.3750016243E+00   -4.3613723237E+00   -4.3478276774E+00   -4.3343668992E+00
   -4.3209892126E+00   -4.3076938504E+00   -4.2944800553E+00   -4.2813470787E+00
   -4.2682941816E+00   -4.2553206336E+00   -4.2424257135E+00   -4.2296087087E+00
   -4.2168689149E+00   -4.2042056367E+00   -4.1916181868E+00   -4.1791058861E+00
   -4.1666680636E+00   -4.1543040564E+00   -4.1420132092E+00   -4.1297948746E+00
   -4.1176484128E+00   -4.1055731915E+00   -4.0935685858E+00   -4.0816339779E+00
   -4.0697687576E+00   -4.0579723213E+00   -4.0462440727E+00   -4.0345834223E+00
   -4.0229897874E+00   -4.0114625918E+00   -4.0000012661E+00   -3.9886052472E+00
   -3.9772739787E+00   -3.9660069101E+00   -3.9548034975E+00   -3.9436632029E+00
   -3.9325854943E+00   -3.9215698459E+00   -3.9106157376E+00   -3.8997226551E+00
   -3.8888900899E+00   -3.8781175390E+00   -3.8674045052E+00   -3.8567504964E+00
   -3.8461550263E+00   -3.8356176136E+00   -3.8251377826E+00   -3.8147150625E+00
   -3.8043489877E+00   -3.7940390977E+00   -3.7837849370E+00   -3.7735860549E+00
   -3.7634420055E+00   -3.7533523479E+00   -3.7433166459E+00   -3.7333344676E+00
   -3.7234053861E+00   -3.7135289789E+00   -3.7037048279E+00   -3.6939325194E+00
   -3.6842116442E+00   -3.6745417973E+00   -3.6649225779E+00   -3.6553535895E+00
   -3.6458344397E+00   -3.6363647400E+00   -3.6269441062E+00   -3.6175721579E+00
   -3.6082485186E+00   -3.5989728158E+00   -3.5897446808E+00   -3.5805637486E+00
   -3.5714296579E+00   -3.5623420511E+00   -3.5533005744E+00   -3.5443048773E+00
   -3.5353546131E+00   -3.5264494384E+00   -3.5175890133E+00   -3.5087730014E+00
   -3.5000010696E+00   -3.4912728881E+00   -3.4825881304E+00   -3.4739464732E+00
   -3.4653475966E+00   -3.4567911835E+00   -3.4482769203E+00   -3.4398044962E+00
   -3.4313736036E+00   -3.4229839379E+00   -3.4146351974E+00   -3.4063270833E+00
   -3.3980592999E+00   -3.3898315542E+00   -3.3816435561E+00   -3.3734950181E+00
   -3.3653856559E+00   -3.3573151874E+00   -3.3492833337E+00   -3.3412898181E+00
   -3.3333343669E+00   -3.3254167088E+00   -3.3175365751E+00   -3.3096936997E+00
   -3.3018878191E+00   -3.2941186719E+00   -3.2863859996E+00   -3.2786895459E+00
   -3.2710290569E+00   -3.2634042812E+00   -3.2558149695E+00   -3.2482608750E+00
   -3.2407417531E+00   -3.2332573616E+00   -3.2258074603E+00   -3.2183918115E+00
   -3.2110101793E+00   -3.2036623304E+00   -3.1963480332E+00   -3.1890670586E+00
   -3.1818191793E+00   -3.1746041702E+00   -3.1674218081E+00   -3.1602718720E+00
   -3.1531541429E+00   -3.1460684035E+00   -3.1390144386E+00   -3.1319920352E+00
   -3.1250009817E+00   -3.1180410687E+00   -3.1111120887E+00   -3.1042138358E+00
   -3.0973461062E+00   -3.0905086976E+00   -3.0837014097E+00   -3.0769240440E+00
   -3.0701764035E+00   -3.0634582932E+00   -3.0567695195E+00   -3.0501098908E+00
   -3.0434792170E+00   -3.0368773097E+00   -3.0303039820E+00   -3.0237590488E+00
   -3.0172423264E+00   -3.0107536330E+00   -3.0042927880E+00   -2.9978596126E+00
   -2.9914539293E+00   -2.9850755624E+00   -2.9787243374E+00   -2.9724000815E+00
   -2.9661026233E+00   -2.9598317928E+00   -2.9535874214E+00   -2.9473693421E+00
   -2.9411773892E+00   -2.9350113983E+00   -2.9288712066E+00   -2.9227566523E+00
   -2.9166675753E+00   -2.9106038168E+00   -2.9045652190E+00   -2.8985516257E+00
   -2.8925628820E+00   -2.8865988341E+00   -2.8806593296E+00   -2.8747442173E+00
   -2.8688533472E+00   -2.8629865706E+00   -2.8571437401E+00   -2.8513247092E+00
   -2.8455293329E+00   -2.8397574673E+00   -2.8340089695E+00   -2.8282836980E+00
   -2.8225815122E+00   -2.8169022728E+00   -2.8112458415E+00   -2.8056120814E+00
   -2.8000008562E+00   -2.7944120311E+00   -2.7888454723E+00   -2.7833010468E+00
   -2.7777786230E+00   -2.7722780702E+00   -2.7667992587E+00   -2.7613420599E+00
   -2.7559063460E+00   -2.7504919906E+00   -2.7450988679E+00   -2.7397268533E+00
   -2.7343758231E+00   -2.7290456546E+00   -2.7237362261E+00   -2.7184474167E+00
   -2.7131791065E+00   -2.7079311766E+00   -2.7027035090E+00   -2.6974959865E+00
   -2.6923084930E+00   -2.6871409130E+00   -2.6819931322E+00   -2.6768650370E+00
   -2.6717565146E+00   -2.6666674532E+00   -2.6615977419E+00   -2.6565472705E+00