<UPF version="2.0.1">
  <PP_INFO>

 This pseudopotential file has been produced using the code
 ONCVPSP  (Optimized Norm-Conservinng Vanderbilt PSeudopotential)
 fully-relativistic version 3.3.1 12/12/2017 by D. R. Hamann
 The code is available through a link at URL www.mat-simresearch.com.
 Documentation with the package provides a full discription of the
 input data below.


 While it is not required under the terms of the GNU GPL, it is
 suggested that you cite D. R. Hamann, Phys. Rev. B 88, 085117 (2013)
 in any publication using these pseudopotentials.

    <PP_INPUTFILE>
# ATOM AND REFERENCE CONFIGURATION
# atsym  z   nc   nv     iexc    psfile
  Ne 10.00    1    2 -116133      upf
#
#   n    l    f        energy (Ha)
    1    0    2.00
    2    0    2.00
    2    1    6.00
#
# PSEUDOPOTENTIAL AND OPTIMIZATION
# lmax
    1
#
#   l,   rc,     ep,   ncon, nbas, qcut
    0   2.62070  -1.33029    5    8   7.96858
    1   2.65215  -0.48638    5    8   6.60628
#
# LOCAL POTENTIAL
# lloc, lpopt,  rc(5),   dvloc0
    4    5   2.62070      0.00000
#
# VANDERBILT-KLEINMAN-BYLANDER PROJECTORs
# l, nproj, debl
    0    2   1.54861
    1    2   1.10874
#
# MODEL CORE CHARGE
# icmod, fcfact, rcfact
    0   0.00000   0.00000
#
# LOG DERIVATIVE ANALYSIS
# epsh1, epsh2, depsh
   -5.00    3.00    0.02
#
# OUTPUT GRID
# rlmax, drl
    6.00    0.01
#
# TEST CONFIGURATIONS
# ncnf
    0
# nvcnf
#   n    l    f
    </PP_INPUTFILE>
  </PP_INFO>
  <!--                               -->
  <!-- END OF HUMAN READABLE SECTION -->
  <!--                               -->
    <PP_HEADER
       generated="Generated using ONCVPSP code by D. R. Hamann"
       author="anonymous"
       date="210904"
       comment=""
       element="Ne"
       pseudo_type="NC"
       relativistic="full"
       is_ultrasoft="F"
       is_paw="F"
       is_coulomb="F"
       has_so="T"
       has_wfc="F"
       has_gipaw="F"
       core_correction="F"
       functional="PBESOL"
       z_valence="    8.00"
       total_psenergy="  -6.07008847961E+01"
       rho_cutoff="   7.57000000000E+00"
       l_max="1"
       l_local="-1"
       mesh_size="   758"
       number_of_wfc="3"
       number_of_proj="6"/>
 <PP_MESH>
   <PP_R type="real"  size=" 758" columns="8">
    0.0000    0.0100    0.0200    0.0300    0.0400    0.0500    0.0600    0.0700
    0.0800    0.0900    0.1000    0.1100    0.1200    0.1300    0.1400    0.1500
    0.1600    0.1700    0.1800    0.1900    0.2000    0.2100    0.2200    0.2300
    0.2400    0.2500    0.2600    0.2700    0.2800    0.2900    0.3000    0.3100
    0.3200    0.3300    0.3400    0.3500    0.3600    0.3700    0.3800    0.3900
    0.4000    0.4100    0.4200    0.4300    0.4400    0.4500    0.4600    0.4700
    0.4800    0.4900    0.5000    0.5100    0.5200    0.5300    0.5400    0.5500
    0.5600    0.5700    0.5800    0.5900    0.6000    0.6100    0.6200    0.6300
    0.6400    0.6500    0.6600    0.6700    0.6800    0.6900    0.7000    0.7100
    0.7200    0.7300    0.7400    0.7500    0.7600    0.7700    0.7800    0.7900
    0.8000    0.8100    0.8200    0.8300    0.8400    0.8500    0.8600    0.8700
    0.8800    0.8900    0.9000    0.9100    0.9200    0.9300    0.9400    0.9500
    0.9600    0.9700    0.9800    0.9900    1.0000    1.0100    1.0200    1.0300
    1.0400    1.0500    1.0600    1.0700    1.0800    1.0900    1.1000    1.1100
    1.1200    1.1300    1.1400    1.1500    1.1600    1.1700    1.1800    1.1900
    1.2000    1.2100    1.2200    1.2300    1.2400    1.2500    1.2600    1.2700
    1.2800    1.2900    1.3000    1.3100    1.3200    1.3300    1.3400    1.3500
    1.3600    1.3700    1.3800    1.3900    1.4000    1.4100    1.4200    1.4300
    1.4400    1.4500    1.4600    1.4700    1.4800    1.4900    1.5000    1.5100
    1.5200    1.5300    1.5400    1.5500    1.5600    1.5700    1.5800    1.5900
    1.6000    1.6100    1.6200    1.6300    1.6400    1.6500    1.6600    1.6700
    1.6800    1.6900    1.7000    1.7100    1.7200    1.7300    1.7400    1.7500
    1.7600    1.7700    1.7800    1.7900    1.8000    1.8100    1.8200    1.8300
    1.8400    1.8500    1.8600    1.8700    1.8800    1.8900    1.9000    1.9100
    1.9200    1.9300    1.9400    1.9500    1.9600    1.9700    1.9800    1.9900
    2.0000    2.0100    2.0200    2.0300    2.0400    2.0500    2.0600    2.0700
    2.0800    2.0900    2.1000    2.1100    2.1200    2.1300    2.1400    2.1500
    2.1600    2.1700    2.1800    2.1900    2.2000    2.2100    2.2200    2.2300
    2.2400    2.2500    2.2600    2.2700    2.2800    2.2900    2.3000    2.3100
    2.3200    2.3300    2.3400    2.3500    2.3600    2.3700    2.3800    2.3900
    2.4000    2.4100    2.4200    2.4300    2.4400    2.4500    2.4600    2.4700
    2.4800    2.4900    2.5000    2.5100    2.5200    2.5300    2.5400    2.5500
    2.5600    2.5700    2.5800    2.5900    2.6000    2.6100    2.6200    2.6300
    2.6400    2.6500    2.6600    2.6700    2.6800    2.6900    2.7000    2.7100
    2.7200    2.7300    2.7400    2.7500    2.7600    2.7700    2.7800    2.7900
    2.8000    2.8100    2.8200    2.8300    2.8400    2.8500    2.8600    2.8700
    2.8800    2.8900    2.9000    2.9100    2.9200    2.9300    2.9400    2.9500
    2.9600    2.9700    2.9800    2.9900    3.0000    3.0100    3.0200    3.0300
    3.0400    3.0500    3.0600    3.0700    3.0800    3.0900    3.1000    3.1100
    3.1200    3.1300    3.1400    3.1500    3.1600    3.1700    3.1800    3.1900
    3.2000    3.2100    3.2200    3.2300    3.2400    3.2500    3.2600    3.2700
    3.2800    3.2900    3.3000    3.3100    3.3200    3.3300    3.3400    3.3500
    3.3600    3.3700    3.3800    3.3900    3.4000    3.4100    3.4200    3.4300
    3.4400    3.4500    3.4600    3.4700    3.4800    3.4900    3.5000    3.5100
    3.5200    3.5300    3.5400    3.5500    3.5600    3.5700    3.5800    3.5900
    3.6000    3.6100    3.6200    3.6300    3.6400    3.6500    3.6600    3.6700
    3.6800    3.6900    3.7000    3.7100    3.7200    3.7300    3.7400    3.7500
    3.7600    3.7700    3.7800    3.7900    3.8000    3.8100    3.8200    3.8300
    3.8400    3.8500    3.8600    3.8700    3.8800    3.8900    3.9000    3.9100
    3.9200    3.9300    3.9400    3.9500    3.9600    3.9700    3.9800    3.9900
    4.0000    4.0100    4.0200    4.0300    4.0400    4.0500    4.0600    4.0700
    4.0800    4.0900    4.1000    4.1100    4.1200    4.1300    4.1400    4.1500
    4.1600    4.1700    4.1800    4.1900    4.2000    4.2100    4.2200    4.2300
    4.2400    4.2500    4.2600    4.2700    4.2800    4.2900    4.3000    4.3100
    4.3200    4.3300    4.3400    4.3500    4.3600    4.3700    4.3800    4.3900
    4.4000    4.4100    4.4200    4.4300    4.4400    4.4500    4.4600    4.4700
    4.4800    4.4900    4.5000    4.5100    4.5200    4.5300    4.5400    4.5500
    4.5600    4.5700    4.5800    4.5900    4.6000    4.6100    4.6200    4.6300
    4.6400    4.6500    4.6600    4.6700    4.6800    4.6900    4.7000    4.7100
    4.7200    4.7300    4.7400    4.7500    4.7600    4.7700    4.7800    4.7900
    4.8000    4.8100    4.8200    4.8300    4.8400    4.8500    4.8600    4.8700
    4.8800    4.8900    4.9000    4.9100    4.9200    4.9300    4.9400    4.9500
    4.9600    4.9700    4.9800    4.9900    5.0000    5.0100    5.0200    5.0300
    5.0400    5.0500    5.0600    5.0700    5.0800    5.0900    5.1000    5.1100
    5.1200    5.1300    5.1400    5.1500    5.1600    5.1700    5.1800    5.1900
    5.2000    5.2100    5.2200    5.2300    5.2400    5.2500    5.2600    5.2700
    5.2800    5.2900    5.3000    5.3100    5.3200    5.3300    5.3400    5.3500
    5.3600    5.3700    5.3800    5.3900    5.4000    5.4100    5.4200    5.4300
    5.4400    5.4500    5.4600    5.4700    5.4800    5.4900    5.5000    5.5100
    5.5200    5.5300    5.5400    5.5500    5.5600    5.5700    5.5800    5.5900
    5.6000    5.6100    5.6200    5.6300    5.6400    5.6500    5.6600    5.6700
    5.6800    5.6900    5.7000    5.7100    5.7200    5.7300    5.7400    5.7500
    5.7600    5.7700    5.7800    5.7900    5.8000    5.8100    5.8200    5.8300
    5.8400    5.8500    5.8600    5.8700    5.8800    5.8900    5.9000    5.9100
    5.9200    5.9300    5.9400    5.9500    5.9600    5.9700    5.9800    5.9900
    6.0000    6.0100    6.0200    6.0300    6.0400    6.0500    6.0600    6.0700
    6.0800    6.0900    6.1000    6.1100    6.1200    6.1300    6.1400    6.1500
    6.1600    6.1700    6.1800    6.1900    6.2000    6.2100    6.2200    6.2300
    6.2400    6.2500    6.2600    6.2700    6.2800    6.2900    6.3000    6.3100
    6.3200    6.3300    6.3400    6.3500    6.3600    6.3700    6.3800    6.3900
    6.4000    6.4100    6.4200    6.4300    6.4400    6.4500    6.4600    6.4700
    6.4800    6.4900    6.5000    6.5100    6.5200    6.5300    6.5400    6.5500
    6.5600    6.5700    6.5800    6.5900    6.6000    6.6100    6.6200    6.6300
    6.6400    6.6500    6.6600    6.6700    6.6800    6.6900    6.7000    6.7100
    6.7200    6.7300    6.7400    6.7500    6.7600    6.7700    6.7800    6.7900
    6.8000    6.8100    6.8200    6.8300    6.8400    6.8500    6.8600    6.8700
    6.8800    6.8900    6.9000    6.9100    6.9200    6.9300    6.9400    6.9500
    6.9600    6.9700    6.9800    6.9900    7.0000    7.0100    7.0200    7.0300
    7.0400    7.0500    7.0600    7.0700    7.0800    7.0900    7.1000    7.1100
    7.1200    7.1300    7.1400    7.1500    7.1600    7.1700    7.1800    7.1900
    7.2000    7.2100    7.2200    7.2300    7.2400    7.2500    7.2600    7.2700
    7.2800    7.2900    7.3000    7.3100    7.3200    7.3300    7.3400    7.3500
    7.3600    7.3700    7.3800    7.3900    7.4000    7.4100    7.4200    7.4300
    7.4400    7.4500    7.4600    7.4700    7.4800    7.4900    7.5000    7.5100
    7.5200    7.5300    7.5400    7.5500    7.5600    7.5700
   </PP_R>
   <PP_RAB type="real"  size=" 758" columns="8">
    0.0100    0.0100    0.0100    0.0100    0.0100    0.0100    0.0100    0.0100
    0.0100    0.0100    0.0100    0.0100    0.0100    0.0100    0.0100    0.0100
    0.0100    0.0100    0.0100    0.0100    0.0100    0.0100    0.0100    0.0100
    0.0100    0.0100    0.0100    0.0100    0.0100    0.0100    0.0100    0.0100
    0.0100    0.0100    0.0100    0.0100    0.0100    0.0100    0.0100    0.0100
    0.0100    0.0100    0.0100    0.0100    0.0100    0.0100    0.0100    0.0100
    0.0100    0.0100    0.0100    0.0100    0.0100    0.0100    0.0100    0.0100
    0.0100    0.0100    0.0100    0.0100    0.0100    0.0100    0.0100    0.0100
    0.0100    0.0100    0.0100    0.0100    0.0100    0.0100    0.0100    0.0100
    0.0100    0.0100    0.0100    0.0100    0.0100    0.0100    0.0100    0.0100
    0.0100    0.0100    0.0100    0.0100    0.0100    0.0100    0.0100    0.0100
    0.0100    0.0100    0.0100    0.0100    0.0100    0.0100    0.0100    0.0100
    0.0100    0.0100    0.0100    0.0100    0.0100    0.0100    0.0100    0.0100
    0.0100    0.0100    0.0100    0.0100    0.0100    0.0100    0.0100    0.0100
    0.0100    0.0100    0.0100    0.0100    0.0100    0.0100    0.0100    0.0100
    0.0100    0.0100    0.0100    0.0100    0.0100    0.0100    0.0100    0.0100
    0.0100    0.0100    0.0100    0.0100    0.0100    0.0100    0.0100    0.0100
    0.0100    0.0100    0.0100    0.0100    0.0100    0.0100    0.0100    0.0100
    0.0100    0.0100    0.0100    0.0100    0.0100    0.0100    0.0100    0.0100
    0.0100    0.0100    0.0100    0.0100    0.0100    0.0100    0.0100    0.0100
    0.0100    0.0100    0.0100    0.0100    0.0100    0.0100    0.0100    0.0100
    0.0100    0.0100    0.0100    0.0100    0.0100    0.0100    0.0100    0.0100
    0.0100    0.0100    0.0100    0.0100    0.0100    0.0100    0.0100    0.0100
    0.0100    0.0100    0.0100    0.0100    0.0100    0.0100    0.0100    0.0100
    0.0100    0.0100    0.0100    0.0100    0.0100    0.0100    0.0100    0.0100
    0.0100    0.0100    0.0100    0.0100    0.0100    0.0100    0.0100    0.0100
    0.0100    0.0100    0.0100    0.0100    0.0100    0.0100    0.0100    0.0100
    0.0100    0.0100    0.0100    0.0100    0.0100    0.0100    0.0100    0.0100
    0.0100    0.0100    0.0100    0.0100    0.0100    0.0100    0.0100    0.0100
    0.0100    0.0100    0.0100    0.0100    0.0100    0.0100    0.0100    0.0100
    0.0100    0.0100    0.0100    0.0100    0.0100    0.0100    0.0100    0.0100
    0.0100    0.0100    0.0100    0.0100    0.0100    0.0100    0.0100    0.0100
    0.0100    0.0100    0.0100    0.0100    0.0100    0.0100    0.0100    0.0100
    0.0100    0.0100    0.0100    0.0100    0.0100    0.0100    0.0100    0.0100
    0.0100    0.0100    0.0100    0.0100    0.0100    0.0100    0.0100    0.0100
    0.0100    0.0100    0.0100    0.0100    0.0100    0.0100    0.0100    0.0100
    0.0100    0.0100    0.0100    0.0100    0.0100    0.0100    0.0100    0.0100
    0.0100    0.0100    0.0100    0.0100    0.0100    0.0100    0.0100    0.0100
    0.0100    0.0100    0.0100    0.0100    0.0100    0.0100    0.0100    0.0100
    0.0100    0.0100    0.0100    0.0100    0.0100    0.0100    0.0100    0.0100
    0.0100    0.0100    0.0100    0.0100    0.0100    0.0100    0.0100    0.0100
    0.0100    0.0100    0.0100    0.0100    0.0100    0.0100    0.0100    0.0100
    0.0100    0.0100    0.0100    0.0100    0.0100    0.0100    0.0100    0.0100
    0.0100    0.0100    0.0100    0.0100    0.0100    0.0100    0.0100    0.0100
    0.0100    0.0100    0.0100    0.0100    0.0100    0.0100    0.0100    0.0100
    0.0100    0.0100    0.0100    0.0100    0.0100    0.0100    0.0100    0.0100
    0.0100    0.0100    0.0100    0.0100    0.0100    0.0100    0.0100    0.0100
    0.0100    0.0100    0.0100    0.0100    0.0100    0.0100    0.0100    0.0100
    0.0100    0.0100    0.0100    0.0100    0.0100    0.0100    0.0100    0.0100
    0.0100    0.0100    0.0100    0.0100    0.0100    0.0100    0.0100    0.0100
    0.0100    0.0100    0.0100    0.0100    0.0100    0.0100    0.0100    0.0100
    0.0100    0.0100    0.0100    0.0100    0.0100    0.0100    0.0100    0.0100
    0.0100    0.0100    0.0100    0.0100    0.0100    0.0100    0.0100    0.0100
    0.0100    0.0100    0.0100    0.0100    0.0100    0.0100    0.0100    0.0100
    0.0100    0.0100    0.0100    0.0100    0.0100    0.0100    0.0100    0.0100
    0.0100    0.0100    0.0100    0.0100    0.0100    0.0100    0.0100    0.0100
    0.0100    0.0100    0.0100    0.0100    0.0100    0.0100    0.0100    0.0100
    0.0100    0.0100    0.0100    0.0100    0.0100    0.0100    0.0100    0.0100
    0.0100    0.0100    0.0100    0.0100    0.0100    0.0100    0.0100    0.0100
    0.0100    0.0100    0.0100    0.0100    0.0100    0.0100    0.0100    0.0100
    0.0100    0.0100    0.0100    0.0100    0.0100    0.0100    0.0100    0.0100
    0.0100    0.0100    0.0100    0.0100    0.0100    0.0100    0.0100    0.0100
    0.0100    0.0100    0.0100    0.0100    0.0100    0.0100    0.0100    0.0100
    0.0100    0.0100    0.0100    0.0100    0.0100    0.0100    0.0100    0.0100
    0.0100    0.0100    0.0100    0.0100    0.0100    0.0100    0.0100    0.0100
    0.0100    0.0100    0.0100    0.0100    0.0100    0.0100    0.0100    0.0100
    0.0100    0.0100    0.0100    0.0100    0.0100    0.0100    0.0100    0.0100
    0.0100    0.0100    0.0100    0.0100    0.0100    0.0100    0.0100    0.0100
    0.0100    0.0100    0.0100    0.0100    0.0100    0.0100    0.0100    0.0100
    0.0100    0.0100    0.0100    0.0100    0.0100    0.0100    0.0100    0.0100
    0.0100    0.0100    0.0100    0.0100    0.0100    0.0100    0.0100    0.0100
    0.0100    0.0100    0.0100    0.0100    0.0100    0.0100    0.0100    0.0100
    0.0100    0.0100    0.0100    0.0100    0.0100    0.0100    0.0100    0.0100
    0.0100    0.0100    0.0100    0.0100    0.0100    0.0100    0.0100    0.0100
    0.0100    0.0100    0.0100    0.0100    0.0100    0.0100    0.0100    0.0100
    0.0100    0.0100    0.0100    0.0100    0.0100    0.0100    0.0100    0.0100
    0.0100    0.0100    0.0100    0.0100    0.0100    0.0100    0.0100    0.0100
    0.0100    0.0100    0.0100    0.0100    0.0100    0.0100    0.0100    0.0100
    0.0100    0.0100    0.0100    0.0100    0.0100    0.0100    0.0100    0.0100
    0.0100    0.0100    0.0100    0.0100    0.0100    0.0100    0.0100    0.0100
    0.0100    0.0100    0.0100    0.0100    0.0100    0.0100    0.0100    0.0100
    0.0100    0.0100    0.0100    0.0100    0.0100    0.0100    0.0100    0.0100
    0.0100    0.0100    0.0100    0.0100    0.0100    0.0100    0.0100    0.0100
    0.0100    0.0100    0.0100    0.0100    0.0100    0.0100    0.0100    0.0100
    0.0100    0.0100    0.0100    0.0100    0.0100    0.0100    0.0100    0.0100
    0.0100    0.0100    0.0100    0.0100    0.0100    0.0100    0.0100    0.0100
    0.0100    0.0100    0.0100    0.0100    0.0100    0.0100    0.0100    0.0100
    0.0100    0.0100    0.0100    0.0100    0.0100    0.0100    0.0100    0.0100
    0.0100    0.0100    0.0100    0.0100    0.0100    0.0100    0.0100    0.0100
    0.0100    0.0100    0.0100    0.0100    0.0100    0.0100    0.0100    0.0100
    0.0100    0.0100    0.0100    0.0100    0.0100    0.0100    0.0100    0.0100
    0.0100    0.0100    0.0100    0.0100    0.0100    0.0100    0.0100    0.0100
    0.0100    0.0100    0.0100    0.0100    0.0100    0.0100    0.0100    0.0100
    0.0100    0.0100    0.0100    0.0100    0.0100    0.0100    0.0100    0.0100
    0.0100    0.0100    0.0100    0.0100    0.0100    0.0100
   </PP_RAB>
 </PP_MESH>
  <PP_LOCAL type="real"  size=" 758" columns="4">
   -1.7398962640E+01   -1.7401484354E+01   -1.7408635440E+01   -1.7419505773E+01
   -1.7432733444E+01   -1.7446765568E+01   -1.7460086905E+01   -1.7471394838E+01
   -1.7479699213E+01   -1.7484350416E+01   -1.7485014155E+01   -1.7481615757E+01
   -1.7474273682E+01   -1.7463235744E+01   -1.7448825255E+01   -1.7431399608E+01
   -1.7411320866E+01   -1.7388936487E+01   -1.7364567895E+01   -1.7338504680E+01
   -1.7311002635E+01   -1.7282284186E+01   -1.7252540245E+01   -1.7221932759E+01
   -1.7190597540E+01   -1.7158647083E+01   -1.7126173239E+01   -1.7093249652E+01
   -1.7059933953E+01   -1.7026269700E+01   -1.6992288094E+01   -1.6958009484E+01
   -1.6923444705E+01   -1.6888596258E+01   -1.6853459366E+01   -1.6818022928E+01
   -1.6782270381E+01   -1.6746180492E+01   -1.6709728094E+01   -1.6672884767E+01
   -1.6635619484E+01   -1.6597899214E+01   -1.6559689500E+01   -1.6520955008E+01
   -1.6481660043E+01   -1.6441769045E+01   -1.6401247048E+01   -1.6360060119E+01
   -1.6318175756E+01   -1.6275563259E+01   -1.6232194057E+01   -1.6188042002E+01
   -1.6143083623E+01   -1.6097298329E+01   -1.6050668578E+01   -1.6003180002E+01
   -1.5954821479E+01   -1.5905585181E+01   -1.5855466562E+01   -1.5804464330E+01
   -1.5752580365E+01   -1.5699819624E+01   -1.5646190008E+01   -1.5591702212E+01
   -1.5536369555E+01   -1.5480207801E+01   -1.5423234961E+01   -1.5365471098E+01
   -1.5306938126E+01   -1.5247659608E+01   -1.5187660561E+01   -1.5126967264E+01
   -1.5065607076E+01   -1.5003608262E+01   -1.4940999830E+01   -1.4877811376E+01
   -1.4814072947E+01   -1.4749814913E+01   -1.4685067843E+01   -1.4619862406E+01
   -1.4554229274E+01   -1.4488199034E+01   -1.4421802119E+01   -1.4355068735E+01
   -1.4288028805E+01   -1.4220711922E+01   -1.4153147298E+01   -1.4085363729E+01
   -1.4017389562E+01   -1.3949252666E+01   -1.3880980403E+01   -1.3812599613E+01
   -1.3744136589E+01   -1.3675617065E+01   -1.3607066198E+01   -1.3538508561E+01
   -1.3469968126E+01   -1.3401468256E+01   -1.3333031700E+01   -1.3264680581E+01
   -1.3196436388E+01   -1.3128319973E+01   -1.3060351545E+01   -1.2992550658E+01
   -1.2924936215E+01   -1.2857526455E+01   -1.2790338951E+01   -1.2723390606E+01
   -1.2656697649E+01   -1.2590275626E+01   -1.2524139401E+01   -1.2458303146E+01
   -1.2392780341E+01   -1.2327583765E+01   -1.2262725494E+01   -1.2198216892E+01
   -1.2134068609E+01   -1.2070290574E+01   -1.2006891988E+01   -1.1943881316E+01
   -1.1881266285E+01   -1.1819053872E+01   -1.1757250302E+01   -1.1695861037E+01
   -1.1634890773E+01   -1.1574343433E+01   -1.1514222161E+01   -1.1454529319E+01
   -1.1395266485E+01   -1.1336434452E+01   -1.1278033230E+01   -1.1220062049E+01
   -1.1162519369E+01   -1.1105402889E+01   -1.1048709562E+01   -1.0992435618E+01
   -1.0936576583E+01   -1.0881127315E+01   -1.0826082032E+01   -1.0771434357E+01
   -1.0717177361E+01   -1.0663303618E+01   -1.0609805254E+01   -1.0556674015E+01
   -1.0503901328E+01   -1.0451478367E+01   -1.0399396132E+01   -1.0347645515E+01
   -1.0296217377E+01   -1.0245102624E+01   -1.0194292277E+01   -1.0143777547E+01
   -1.0093549903E+01   -1.0043601134E+01   -9.9939234141E+00   -9.9445093515E+00
   -9.8953520406E+00   -9.8464451020E+00   -9.7977827165E+00   -9.7493596522E+00
   -9.7011712835E+00   -9.6532136020E+00   -9.6054832211E+00   -9.5579773722E+00
   -9.5106938948E+00   -9.4636312201E+00   -9.4167883488E+00   -9.3701648239E+00
   -9.3237606992E+00   -9.2775765034E+00   -9.2316132027E+00   -9.1858721593E+00
   -9.1403550900E+00   -9.0950640233E+00   -9.0500012557E+00   -9.0051693095E+00
   -8.9605708909E+00   -8.9162088493E+00   -8.8720861389E+00   -8.8282057819E+00
   -8.7845708348E+00   -8.7411843563E+00   -8.6980493793E+00   -8.6551688848E+00
   -8.6125457789E+00   -8.5701828731E+00   -8.5280828674E+00   -8.4862483358E+00
   -8.4446817151E+00   -8.4033852959E+00   -8.3623612159E+00   -8.3216114558E+00
   -8.2811378366E+00   -8.2409420190E+00   -8.2010255043E+00   -8.1613896363E+00
   -8.1220356046E+00   -8.0829644482E+00   -8.0441770599E+00   -8.0056741912E+00
   -7.9674564568E+00   -7.9295243394E+00   -7.8918781942E+00   -7.8545182526E+00
   -7.8174446259E+00   -7.7806573078E+00   -7.7441561772E+00   -7.7079409983E+00
   -7.6720114225E+00   -7.6363669873E+00   -7.6010071160E+00   -7.5659311163E+00
   -7.5311381783E+00   -7.4966273725E+00   -7.4623976474E+00   -7.4284478271E+00
   -7.3947766090E+00   -7.3613825623E+00   -7.3282641264E+00   -7.2954196102E+00
   -7.2628471925E+00   -7.2305449229E+00   -7.1985107243E+00   -7.1667423964E+00
   -7.1352376201E+00   -7.1039939637E+00   -7.0730088904E+00   -7.0422797661E+00
   -7.0118038702E+00   -6.9815784053E+00   -6.9516005096E+00   -6.9218672692E+00
   -6.8923757313E+00   -6.8631229176E+00   -6.8341058384E+00   -6.8053215061E+00
   -6.7767669488E+00   -6.7484392238E+00   -6.7203354296E+00   -6.6924527176E+00
   -6.6647883036E+00   -6.6373394764E+00   -6.6101036059E+00   -6.5830781512E+00
   -6.5562606648E+00   -6.5296487960E+00   -6.5032402950E+00   -6.4770330117E+00
   -6.4510248955E+00   -6.4252139931E+00   -6.3995984446E+00   -6.3741764779E+00
   -6.3489464029E+00   -6.3239066036E+00   -6.2990555296E+00   -6.2743916867E+00
   -6.2499136268E+00   -6.2256199367E+00   -6.2015092290E+00   -6.1775801277E+00
   -6.1538312537E+00   -6.1302612266E+00   -6.1068686367E+00   -6.0836520416E+00
   -6.0606099347E+00   -6.0377407599E+00   -6.0150429107E+00   -5.9925147186E+00
   -5.9701544690E+00   -5.9479604114E+00   -5.9259307714E+00   -5.9040637621E+00
   -5.8823575919E+00   -5.8608104796E+00   -5.8394206666E+00   -5.8181864156E+00
   -5.7971060155E+00   -5.7761778017E+00   -5.7554001350E+00   -5.7347714083E+00
   -5.7142900277E+00   -5.6939544230E+00   -5.6737630473E+00   -5.6537143728E+00
   -5.6338068902E+00   -5.6140391112E+00   -5.5944095670E+00   -5.5749168141E+00
   -5.5555594277E+00   -5.5363360037E+00   -5.5172451563E+00   -5.4982855184E+00
   -5.4794557420E+00   -5.4607544974E+00   -5.4421804730E+00   -5.4237323750E+00
   -5.4054089272E+00   -5.3872088704E+00   -5.3691309625E+00   -5.3511739778E+00
   -5.3333367071E+00   -5.3156179573E+00   -5.2980165509E+00   -5.2805313262E+00
   -5.2631611365E+00   -5.2459048504E+00   -5.2287613512E+00   -5.2117295367E+00
   -5.1948083190E+00   -5.1779966244E+00   -5.1612933930E+00   -5.1446975784E+00
   -5.1282081479E+00   -5.1118240817E+00   -5.0955443732E+00   -5.0793680285E+00
   -5.0632940662E+00   -5.0473215174E+00   -5.0314494254E+00   -5.0156768454E+00
   -5.0000028446E+00   -4.9844265015E+00   -4.9689469063E+00   -4.9535631604E+00
   -4.9382743764E+00   -4.9230796776E+00   -4.9079781981E+00   -4.8929690828E+00
   -4.8780514869E+00   -4.8632245758E+00   -4.8484875251E+00   -4.8338395204E+00
   -4.8192797570E+00   -4.8048074399E+00   -4.7904217837E+00   -4.7761220122E+00
   -4.7619073587E+00   -4.7477770654E+00   -4.7337303834E+00   -4.7197665730E+00
   -4.7058849028E+00   -4.6920846503E+00   -4.6783651012E+00   -4.6647255497E+00
   -4.6511652981E+00   -4.6376836569E+00   -4.6242799443E+00   -4.6109534868E+00
   -4.5977036182E+00   -4.5845296803E+00   -4.5714310221E+00   -4.5584070003E+00
   -4.5454569787E+00   -4.5325803284E+00   -4.5197764276E+00   -4.5070446616E+00
   -4.4943844225E+00   -4.4817951091E+00   -4.4692761272E+00   -4.4568268889E+00
   -4.4444468132E+00   -4.4321353252E+00   -4.4198918565E+00   -4.4077158449E+00
   -4.3956067346E+00   -4.3835639756E+00   -4.3715870240E+00   -4.3596753419E+00
   -4.3478283973E+00   -4.3360456637E+00   -4.3243266206E+00   -4.3126707530E+00
   -4.3010775513E+00   -4.2895465115E+00   -4.2780771350E+00   -4.2666689285E+00
   -4.2553214040E+00   -4.2440340785E+00   -4.2328064743E+00   -4.2216381186E+00
   -4.2105285437E+00   -4.1994772868E+00   -4.1884838898E+00   -4.1775478996E+00
   -4.1666688676E+00   -4.1558463500E+00   -4.1450799076E+00   -4.1343691057E+00
   -4.1237135141E+00   -4.1131127069E+00   -4.1025662628E+00   -4.0920737647E+00
   -4.0816347997E+00   -4.0712489591E+00   -4.0609158385E+00   -4.0506350374E+00
   -4.0404061595E+00   -4.0302288124E+00   -4.0201026077E+00   -4.0100271609E+00
   -4.0000020912E+00   -3.9900270219E+00   -3.9801015797E+00   -3.9702253952E+00
   -3.9603981026E+00   -3.9506193399E+00   -3.9408887483E+00   -3.9312059728E+00
   -3.9215706619E+00   -3.9119824673E+00   -3.9024410444E+00   -3.8929460517E+00
   -3.8834971511E+00   -3.8740940079E+00   -3.8647362904E+00   -3.8554236702E+00
   -3.8461558223E+00   -3.8369324244E+00   -3.8277531575E+00   -3.8186177057E+00
   -3.8095257559E+00   -3.8004769983E+00   -3.7914711257E+00   -3.7825078341E+00
   -3.7735868220E+00   -3.7647077911E+00   -3.7558704458E+00   -3.7470744931E+00
   -3.7383196430E+00   -3.7296056080E+00   -3.7209321033E+00   -3.7122988468E+00
   -3.7037055591E+00   -3.6951519632E+00   -3.6866377847E+00   -3.6781627518E+00
   -3.6697265952E+00   -3.6613290479E+00   -3.6529698456E+00   -3.6446487262E+00
   -3.6363654299E+00   -3.6281196996E+00   -3.6199112803E+00   -3.6117399192E+00
   -3.6036053660E+00   -3.5955073726E+00   -3.5874456930E+00   -3.5794200836E+00
   -3.5714303027E+00   -3.5634761109E+00   -3.5555572712E+00   -3.5476735482E+00
   -3.5398247088E+00   -3.5320105222E+00   -3.5242307593E+00   -3.5164851931E+00
   -3.5087735986E+00   -3.5010957529E+00   -3.4934514348E+00   -3.4858404253E+00
   -3.4782625072E+00   -3.4707174650E+00   -3.4632050853E+00   -3.4557251564E+00
   -3.4482774686E+00   -3.4408618139E+00   -3.4334779859E+00   -3.4261257804E+00
   -3.4188049944E+00   -3.4115154272E+00   -3.4042568794E+00   -3.3970291534E+00
   -3.3898320534E+00   -3.3826653850E+00   -3.3755289558E+00   -3.3684225746E+00
   -3.3613460522E+00   -3.3542992007E+00   -3.3472818340E+00   -3.3402937673E+00
   -3.3333348175E+00   -3.3264048030E+00   -3.3195035438E+00   -3.3126308612E+00
   -3.3057865782E+00   -3.2989705189E+00   -3.2921825093E+00   -3.2854223765E+00
   -3.2786899491E+00   -3.2719850573E+00   -3.2653075323E+00   -3.2586572070E+00
   -3.2520339156E+00   -3.2454374935E+00   -3.2388677775E+00   -3.2323246058E+00
   -3.2258078179E+00   -3.2193172545E+00   -3.2128527576E+00   -3.2064141705E+00
   -3.2000013378E+00   -3.1936141052E+00   -3.1872523197E+00   -3.1809158296E+00
   -3.1746044843E+00   -3.1683181344E+00   -3.1620566317E+00   -3.1558198293E+00
   -3.1496075812E+00   -3.1434197427E+00   -3.1372561703E+00   -3.1311167214E+00
   -3.1250012548E+00   -3.1189096301E+00   -3.1128417082E+00   -3.1067973511E+00
   -3.1007764218E+00   -3.0947787842E+00   -3.0888043036E+00   -3.0828528460E+00
   -3.0769242786E+00   -3.0710184697E+00   -3.0651352884E+00   -3.0592746049E+00
   -3.0534362904E+00   -3.0476202172E+00   -3.0418262583E+00   -3.0360542878E+00
   -3.0303041809E+00   -3.0245758136E+00   -3.0188690627E+00   -3.0131838062E+00
   -3.0075199228E+00   -3.0018772923E+00   -2.9962557953E+00   -2.9906553132E+00
   -2.9850757284E+00   -2.9795169242E+00   -2.9739787848E+00   -2.9684611950E+00
   -2.9629640408E+00   -2.9574872087E+00   -2.9520305864E+00   -2.9465940622E+00
   -2.9411775252E+00   -2.9357808654E+00   -2.9304039736E+00   -2.9250467414E+00
   -2.9197090611E+00   -2.9143908259E+00   -2.9090919298E+00   -2.9038122675E+00
   -2.8985517344E+00   -2.8933102267E+00   -2.8880876415E+00   -2.8828838764E+00
   -2.8776988299E+00   -2.8725324011E+00   -2.8673844901E+00   -2.8622549973E+00
   -2.8571438242E+00   -2.8520508728E+00   -2.8469760457E+00   -2.8419192465E+00
   -2.8368803792E+00   -2.8318593486E+00   -2.8268560602E+00   -2.8218704200E+00
   -2.8169023350E+00   -2.8119517125E+00   -2.8070184606E+00   -2.8021024881E+00
   -2.7972037043E+00   -2.7923220193E+00   -2.7874573436E+00   -2.7826095886E+00
   -2.7777786660E+00   -2.7729644884E+00   -2.7681669689E+00   -2.7633860212E+00
   -2.7586215595E+00   -2.7538734988E+00   -2.7491417544E+00   -2.7444262424E+00
   -2.7397268795E+00   -2.7350435828E+00   -2.7303762700E+00   -2.7257248595E+00
   -2.7210892702E+00   -2.7164694214E+00   -2.7118652332E+00   -2.7072766260E+00
   -2.7027035208E+00   -2.6981458393E+00   -2.6936035035E+00   -2.6890764362E+00
   -2.6845645603E+00   -2.6800677996E+00   -2.6755860783E+00   -2.6711193210E+00
   -2.6666674530E+00   -2.6622303998E+00   -2.6578080877E+00   -2.6534004433E+00