<UPF version="2.0.1">
  <PP_INFO>

 This pseudopotential file has been produced using the code
 ONCVPSP  (Optimized Norm-Conservinng Vanderbilt PSeudopotential)
 scalar-relativistic version 3.3.1 12/12/2017 by D. R. Hamann
 The code is available through a link at URL www.mat-simresearch.com.
 Documentation with the package provides a full discription of the
 input data below.


 While it is not required under the terms of the GNU GPL, it is
 suggested that you cite D. R. Hamann, Phys. Rev. B 88, 085117 (2013)
 in any publication using these pseudopotentials.

    <PP_INPUTFILE>
# ATOM AND REFERENCE CONFIGURATION
# atsym  z   nc   nv     iexc    psfile
  Ne 10.00    1    2 -116133      upf
#
#   n    l    f        energy (Ha)
    1    0    2.00
    2    0    2.00
    2    1    6.00
#
# PSEUDOPOTENTIAL AND OPTIMIZATION
# lmax
    1
#
#   l,   rc,      ep,       ncon, nbas, qcut
    0   2.62070  -1.33034    5    8   7.96858
    1   2.65215  -0.48769    5    8   6.60628
#
# LOCAL POTENTIAL
# lloc, lpopt,  rc(5),   dvloc0
    4    5   2.62070      0.00000
#
# VANDERBILT-KLEINMAN-BYLANDER PROJECTORs
# l, nproj, debl
    0    2   1.54861
    1    2   1.11000
#
# MODEL CORE CHARGE
# icmod, fcfact, rcfact
    0   0.00000   0.00000
#
# LOG DERIVATIVE ANALYSIS
# epsh1, epsh2, depsh
   -5.00    3.00    0.02
#
# OUTPUT GRID
# rlmax, drl
    6.00    0.01
#
# TEST CONFIGURATIONS
# ncnf
    0
# nvcnf
#   n    l    f
    </PP_INPUTFILE>
  </PP_INFO>
  <!--                               -->
  <!-- END OF HUMAN READABLE SECTION -->
  <!--                               -->
    <PP_HEADER
       generated="Generated using ONCVPSP code by D. R. Hamann"
       author="anonymous"
       date="210904"
       comment=""
       element="Ne"
       pseudo_type="NC"
       relativistic="scalar"
       is_ultrasoft="F"
       is_paw="F"
       is_coulomb="F"
       has_so="F"
       has_wfc="F"
       has_gipaw="F"
       core_correction="F"
       functional="PBESOL"
       z_valence="    8.00"
       total_psenergy="  -6.07031710699E+01"
       rho_cutoff="   7.57000000000E+00"
       l_max="1"
       l_local="-1"
       mesh_size="   758"
       number_of_wfc="2"
       number_of_proj="4"/>
 <PP_MESH>
   <PP_R type="real"  size=" 758" columns="8">
    0.0000    0.0100    0.0200    0.0300    0.0400    0.0500    0.0600    0.0700
    0.0800    0.0900    0.1000    0.1100    0.1200    0.1300    0.1400    0.1500
    0.1600    0.1700    0.1800    0.1900    0.2000    0.2100    0.2200    0.2300
    0.2400    0.2500    0.2600    0.2700    0.2800    0.2900    0.3000    0.3100
    0.3200    0.3300    0.3400    0.3500    0.3600    0.3700    0.3800    0.3900
    0.4000    0.4100    0.4200    0.4300    0.4400    0.4500    0.4600    0.4700
    0.4800    0.4900    0.5000    0.5100    0.5200    0.5300    0.5400    0.5500
    0.5600    0.5700    0.5800    0.5900    0.6000    0.6100    0.6200    0.6300
    0.6400    0.6500    0.6600    0.6700    0.6800    0.6900    0.7000    0.7100
    0.7200    0.7300    0.7400    0.7500    0.7600    0.7700    0.7800    0.7900
    0.8000    0.8100    0.8200    0.8300    0.8400    0.8500    0.8600    0.8700
    0.8800    0.8900    0.9000    0.9100    0.9200    0.9300    0.9400    0.9500
    0.9600    0.9700    0.9800    0.9900    1.0000    1.0100    1.0200    1.0300
    1.0400    1.0500    1.0600    1.0700    1.0800    1.0900    1.1000    1.1100
    1.1200    1.1300    1.1400    1.1500    1.1600    1.1700    1.1800    1.1900
    1.2000    1.2100    1.2200    1.2300    1.2400    1.2500    1.2600    1.2700
    1.2800    1.2900    1.3000    1.3100    1.3200    1.3300    1.3400    1.3500
    1.3600    1.3700    1.3800    1.3900    1.4000    1.4100    1.4200    1.4300
    1.4400    1.4500    1.4600    1.4700    1.4800    1.4900    1.5000    1.5100
    1.5200    1.5300    1.5400    1.5500    1.5600    1.5700    1.5800    1.5900
    1.6000    1.6100    1.6200    1.6300    1.6400    1.6500    1.6600    1.6700
    1.6800    1.6900    1.7000    1.7100    1.7200    1.7300    1.7400    1.7500
    1.7600    1.7700    1.7800    1.7900    1.8000    1.8100    1.8200    1.8300
    1.8400    1.8500    1.8600    1.8700    1.8800    1.8900    1.9000    1.9100
    1.9200    1.9300    1.9400    1.9500    1.9600    1.9700    1.9800    1.9900
    2.0000    2.0100    2.0200    2.0300    2.0400    2.0500    2.0600    2.0700
    2.0800    2.0900    2.1000    2.1100    2.1200    2.1300    2.1400    2.1500
    2.1600    2.1700    2.1800    2.1900    2.2000    2.2100    2.2200    2.2300
    2.2400    2.2500    2.2600    2.2700    2.2800    2.2900    2.3000    2.3100
    2.3200    2.3300    2.3400    2.3500    2.3600    2.3700    2.3800    2.3900
    2.4000    2.4100    2.4200    2.4300    2.4400    2.4500    2.4600    2.4700
    2.4800    2.4900    2.5000    2.5100    2.5200    2.5300    2.5400    2.5500
    2.5600    2.5700    2.5800    2.5900    2.6000    2.6100    2.6200    2.6300
    2.6400    2.6500    2.6600    2.6700    2.6800    2.6900    2.7000    2.7100
    2.7200    2.7300    2.7400    2.7500    2.7600    2.7700    2.7800    2.7900
    2.8000    2.8100    2.8200    2.8300    2.8400    2.8500    2.8600    2.8700
    2.8800    2.8900    2.9000    2.9100    2.9200    2.9300    2.9400    2.9500
    2.9600    2.9700    2.9800    2.9900    3.0000    3.0100    3.0200    3.0300
    3.0400    3.0500    3.0600    3.0700    3.0800    3.0900    3.1000    3.1100
    3.1200    3.1300    3.1400    3.1500    3.1600    3.1700    3.1800    3.1900
    3.2000    3.2100    3.2200    3.2300    3.2400    3.2500    3.2600    3.2700
    3.2800    3.2900    3.3000    3.3100    3.3200    3.3300    3.3400    3.3500
    3.3600    3.3700    3.3800    3.3900    3.4000    3.4100    3.4200    3.4300
    3.4400    3.4500    3.4600    3.4700    3.4800    3.4900    3.5000    3.5100
    3.5200    3.5300    3.5400    3.5500    3.5600    3.5700    3.5800    3.5900
    3.6000    3.6100    3.6200    3.6300    3.6400    3.6500    3.6600    3.6700
    3.6800    3.6900    3.7000    3.7100    3.7200    3.7300    3.7400    3.7500
    3.7600    3.7700    3.7800    3.7900    3.8000    3.8100    3.8200    3.8300
    3.8400    3.8500    3.8600    3.8700    3.8800    3.8900    3.9000    3.9100
    3.9200    3.9300    3.9400    3.9500    3.9600    3.9700    3.9800    3.9900
    4.0000    4.0100    4.0200    4.0300    4.0400    4.0500    4.0600    4.0700
    4.0800    4.0900    4.1000    4.1100    4.1200    4.1300    4.1400    4.1500
    4.1600    4.1700    4.1800    4.1900    4.2000    4.2100    4.2200    4.2300
    4.2400    4.2500    4.2600    4.2700    4.2800    4.2900    4.3000    4.3100
    4.3200    4.3300    4.3400    4.3500    4.3600    4.3700    4.3800    4.3900
    4.4000    4.4100    4.4200    4.4300    4.4400    4.4500    4.4600    4.4700
    4.4800    4.4900    4.5000    4.5100    4.5200    4.5300    4.5400    4.5500
    4.5600    4.5700    4.5800    4.5900    4.6000    4.6100    4.6200    4.6300
    4.6400    4.6500    4.6600    4.6700    4.6800    4.6900    4.7000    4.7100
    4.7200    4.7300    4.7400    4.7500    4.7600    4.7700    4.7800    4.7900
    4.8000    4.8100    4.8200    4.8300    4.8400    4.8500    4.8600    4.8700
    4.8800    4.8900    4.9000    4.9100    4.9200    4.9300    4.9400    4.9500
    4.9600    4.9700    4.9800    4.9900    5.0000    5.0100    5.0200    5.0300
    5.0400    5.0500    5.0600    5.0700    5.0800    5.0900    5.1000    5.1100
    5.1200    5.1300    5.1400    5.1500    5.1600    5.1700    5.1800    5.1900
    5.2000    5.2100    5.2200    5.2300    5.2400    5.2500    5.2600    5.2700
    5.2800    5.2900    5.3000    5.3100    5.3200    5.3300    5.3400    5.3500
    5.3600    5.3700    5.3800    5.3900    5.4000    5.4100    5.4200    5.4300
    5.4400    5.4500    5.4600    5.4700    5.4800    5.4900    5.5000    5.5100
    5.5200    5.5300    5.5400    5.5500    5.5600    5.5700    5.5800    5.5900
    5.6000    5.6100    5.6200    5.6300    5.6400    5.6500    5.6600    5.6700
    5.6800    5.6900    5.7000    5.7100    5.7200    5.7300    5.7400    5.7500
    5.7600    5.7700    5.7800    5.7900    5.8000    5.8100    5.8200    5.8300
    5.8400    5.8500    5.8600    5.8700    5.8800    5.8900    5.9000    5.9100
    5.9200    5.9300    5.9400    5.9500    5.9600    5.9700    5.9800    5.9900
    6.0000    6.0100    6.0200    6.0300    6.0400    6.0500    6.0600    6.0700
    6.0800    6.0900    6.1000    6.1100    6.1200    6.1300    6.1400    6.1500
    6.1600    6.1700    6.1800    6.1900    6.2000    6.2100    6.2200    6.2300
    6.2400    6.2500    6.2600    6.2700    6.2800    6.2900    6.3000    6.3100
    6.3200    6.3300    6.3400    6.3500    6.3600    6.3700    6.3800    6.3900
    6.4000    6.4100    6.4200    6.4300    6.4400    6.4500    6.4600    6.4700
    6.4800    6.4900    6.5000    6.5100    6.5200    6.5300    6.5400    6.5500
    6.5600    6.5700    6.5800    6.5900    6.6000    6.6100    6.6200    6.6300
    6.6400    6.6500    6.6600    6.6700    6.6800    6.6900    6.7000    6.7100
    6.7200    6.7300    6.7400    6.7500    6.7600    6.7700    6.7800    6.7900
    6.8000    6.8100    6.8200    6.8300    6.8400    6.8500    6.8600    6.8700
    6.8800    6.8900    6.9000    6.9100    6.9200    6.9300    6.9400    6.9500
    6.9600    6.9700    6.9800    6.9900    7.0000    7.0100    7.0200    7.0300
    7.0400    7.0500    7.0600    7.0700    7.0800    7.0900    7.1000    7.1100
    7.1200    7.1300    7.1400    7.1500    7.1600    7.1700    7.1800    7.1900
    7.2000    7.2100    7.2200    7.2300    7.2400    7.2500    7.2600    7.2700
    7.2800    7.2900    7.3000    7.3100    7.3200    7.3300    7.3400    7.3500
    7.3600    7.3700    7.3800    7.3900    7.4000    7.4100    7.4200    7.4300
    7.4400    7.4500    7.4600    7.4700    7.4800    7.4900    7.5000    7.5100
    7.5200    7.5300    7.5400    7.5500    7.5600    7.5700
   </PP_R>
   <PP_RAB type="real"  size=" 758" columns="8">
    0.0100    0.0100    0.0100    0.0100    0.0100    0.0100    0.0100    0.0100
    0.0100    0.0100    0.0100    0.0100    0.0100    0.0100    0.0100    0.0100
    0.0100    0.0100    0.0100    0.0100    0.0100    0.0100    0.0100    0.0100
    0.0100    0.0100    0.0100    0.0100    0.0100    0.0100    0.0100    0.0100
    0.0100    0.0100    0.0100    0.0100    0.0100    0.0100    0.0100    0.0100
    0.0100    0.0100    0.0100    0.0100    0.0100    0.0100    0.0100    0.0100
    0.0100    0.0100    0.0100    0.0100    0.0100    0.0100    0.0100    0.0100
    0.0100    0.0100    0.0100    0.0100    0.0100    0.0100    0.0100    0.0100
    0.0100    0.0100    0.0100    0.0100    0.0100    0.0100    0.0100    0.0100
    0.0100    0.0100    0.0100    0.0100    0.0100    0.0100    0.0100    0.0100
    0.0100    0.0100    0.0100    0.0100    0.0100    0.0100    0.0100    0.0100
    0.0100    0.0100    0.0100    0.0100    0.0100    0.0100    0.0100    0.0100
    0.0100    0.0100    0.0100    0.0100    0.0100    0.0100    0.0100    0.0100
    0.0100    0.0100    0.0100    0.0100    0.0100    0.0100    0.0100    0.0100
    0.0100    0.0100    0.0100    0.0100    0.0100    0.0100    0.0100    0.0100
    0.0100    0.0100    0.0100    0.0100    0.0100    0.0100    0.0100    0.0100
    0.0100    0.0100    0.0100    0.0100    0.0100    0.0100    0.0100    0.0100
    0.0100    0.0100    0.0100    0.0100    0.0100    0.0100    0.0100    0.0100
    0.0100    0.0100    0.0100    0.0100    0.0100    0.0100    0.0100    0.0100
    0.0100    0.0100    0.0100    0.0100    0.0100    0.0100    0.0100    0.0100
    0.0100    0.0100    0.0100    0.0100    0.0100    0.0100    0.0100    0.0100
    0.0100    0.0100    0.0100    0.0100    0.0100    0.0100    0.0100    0.0100
    0.0100    0.0100    0.0100    0.0100    0.0100    0.0100    0.0100    0.0100
    0.0100    0.0100    0.0100    0.0100    0.0100    0.0100    0.0100    0.0100
    0.0100    0.0100    0.0100    0.0100    0.0100    0.0100    0.0100    0.0100
    0.0100    0.0100    0.0100    0.0100    0.0100    0.0100    0.0100    0.0100
    0.0100    0.0100    0.0100    0.0100    0.0100    0.0100    0.0100    0.0100
    0.0100    0.0100    0.0100    0.0100    0.0100    0.0100    0.0100    0.0100
    0.0100    0.0100    0.0100    0.0100    0.0100    0.0100    0.0100    0.0100
    0.0100    0.0100    0.0100    0.0100    0.0100    0.0100    0.0100    0.0100
    0.0100    0.0100    0.0100    0.0100    0.0100    0.0100    0.0100    0.0100
    0.0100    0.0100    0.0100    0.0100    0.0100    0.0100    0.0100    0.0100
    0.0100    0.0100    0.0100    0.0100    0.0100    0.0100    0.0100    0.0100
    0.0100    0.0100    0.0100    0.0100    0.0100    0.0100    0.0100    0.0100
    0.0100    0.0100    0.0100    0.0100    0.0100    0.0100    0.0100    0.0100
    0.0100    0.0100    0.0100    0.0100    0.0100    0.0100    0.0100    0.0100
    0.0100    0.0100    0.0100    0.0100    0.0100    0.0100    0.0100    0.0100
    0.0100    0.0100    0.0100    0.0100    0.0100    0.0100    0.0100    0.0100
    0.0100    0.0100    0.0100    0.0100    0.0100    0.0100    0.0100    0.0100
    0.0100    0.0100    0.0100    0.0100    0.0100    0.0100    0.0100    0.0100
    0.0100    0.0100    0.0100    0.0100    0.0100    0.0100    0.0100    0.0100
    0.0100    0.0100    0.0100    0.0100    0.0100    0.0100    0.0100    0.0100
    0.0100    0.0100    0.0100    0.0100    0.0100    0.0100    0.0100    0.0100
    0.0100    0.0100    0.0100    0.0100    0.0100    0.0100    0.0100    0.0100
    0.0100    0.0100    0.0100    0.0100    0.0100    0.0100    0.0100    0.0100
    0.0100    0.0100    0.0100    0.0100    0.0100    0.0100    0.0100    0.0100
    0.0100    0.0100    0.0100    0.0100    0.0100    0.0100    0.0100    0.0100
    0.0100    0.0100    0.0100    0.0100    0.0100    0.0100    0.0100    0.0100
    0.0100    0.0100    0.0100    0.0100    0.0100    0.0100    0.0100    0.0100
    0.0100    0.0100    0.0100    0.0100    0.0100    0.0100    0.0100    0.0100
    0.0100    0.0100    0.0100    0.0100    0.0100    0.0100    0.0100    0.0100
    0.0100    0.0100    0.0100    0.0100    0.0100    0.0100    0.0100    0.0100
    0.0100    0.0100    0.0100    0.0100    0.0100    0.0100    0.0100    0.0100
    0.0100    0.0100    0.0100    0.0100    0.0100    0.0100    0.0100    0.0100
    0.0100    0.0100    0.0100    0.0100    0.0100    0.0100    0.0100    0.0100
    0.0100    0.0100    0.0100    0.0100    0.0100    0.0100    0.0100    0.0100
    0.0100    0.0100    0.0100    0.0100    0.0100    0.0100    0.0100    0.0100
    0.0100    0.0100    0.0100    0.0100    0.0100    0.0100    0.0100    0.0100
    0.0100    0.0100    0.0100    0.0100    0.0100    0.0100    0.0100    0.0100
    0.0100    0.0100    0.0100    0.0100    0.0100    0.0100    0.0100    0.0100
    0.0100    0.0100    0.0100    0.0100    0.0100    0.0100    0.0100    0.0100
    0.0100    0.0100    0.0100    0.0100    0.0100    0.0100    0.0100    0.0100
    0.0100    0.0100    0.0100    0.0100    0.0100    0.0100    0.0100    0.0100
    0.0100    0.0100    0.0100    0.0100    0.0100    0.0100    0.0100    0.0100
    0.0100    0.0100    0.0100    0.0100    0.0100    0.0100    0.0100    0.0100
    0.0100    0.0100    0.0100    0.0100    0.0100    0.0100    0.0100    0.0100
    0.0100    0.0100    0.0100    0.0100    0.0100    0.0100    0.0100    0.0100
    0.0100    0.0100    0.0100    0.0100    0.0100    0.0100    0.0100    0.0100
    0.0100    0.0100    0.0100    0.0100    0.0100    0.0100    0.0100    0.0100
    0.0100    0.0100    0.0100    0.0100    0.0100    0.0100    0.0100    0.0100
    0.0100    0.0100    0.0100    0.0100    0.0100    0.0100    0.0100    0.0100
    0.0100    0.0100    0.0100    0.0100    0.0100    0.0100    0.0100    0.0100
    0.0100    0.0100    0.0100    0.0100    0.0100    0.0100    0.0100    0.0100
    0.0100    0.0100    0.0100    0.0100    0.0100    0.0100    0.0100    0.0100
    0.0100    0.0100    0.0100    0.0100    0.0100    0.0100    0.0100    0.0100
    0.0100    0.0100    0.0100    0.0100    0.0100    0.0100    0.0100    0.0100
    0.0100    0.0100    0.0100    0.0100    0.0100    0.0100    0.0100    0.0100
    0.0100    0.0100    0.0100    0.0100    0.0100    0.0100    0.0100    0.0100
    0.0100    0.0100    0.0100    0.0100    0.0100    0.0100    0.0100    0.0100
    0.0100    0.0100    0.0100    0.0100    0.0100    0.0100    0.0100    0.0100
    0.0100    0.0100    0.0100    0.0100    0.0100    0.0100    0.0100    0.0100
    0.0100    0.0100    0.0100    0.0100    0.0100    0.0100    0.0100    0.0100
    0.0100    0.0100    0.0100    0.0100    0.0100    0.0100    0.0100    0.0100
    0.0100    0.0100    0.0100    0.0100    0.0100    0.0100    0.0100    0.0100
    0.0100    0.0100    0.0100    0.0100    0.0100    0.0100    0.0100    0.0100
    0.0100    0.0100    0.0100    0.0100    0.0100    0.0100    0.0100    0.0100
    0.0100    0.0100    0.0100    0.0100    0.0100    0.0100    0.0100    0.0100
    0.0100    0.0100    0.0100    0.0100    0.0100    0.0100    0.0100    0.0100
    0.0100    0.0100    0.0100    0.0100    0.0100    0.0100    0.0100    0.0100
    0.0100    0.0100    0.0100    0.0100    0.0100    0.0100    0.0100    0.0100
    0.0100    0.0100    0.0100    0.0100    0.0100    0.0100    0.0100    0.0100
    0.0100    0.0100    0.0100    0.0100    0.0100    0.0100    0.0100    0.0100
    0.0100    0.0100    0.0100    0.0100    0.0100    0.0100    0.0100    0.0100
    0.0100    0.0100    0.0100    0.0100    0.0100    0.0100    0.0100    0.0100
    0.0100    0.0100    0.0100    0.0100    0.0100    0.0100
   </PP_RAB>
 </PP_MESH>
  <PP_LOCAL type="real"  size=" 758" columns="4">
   -1.7399283279E+01   -1.7401805056E+01   -1.7408956301E+01   -1.7419826844E+01
   -1.7433054713E+01   -1.7447086955E+01   -1.7460408276E+01   -1.7471716024E+01
   -1.7480020034E+01   -1.7484670695E+01   -1.7485333733E+01   -1.7481934500E+01
   -1.7474591480E+01   -1.7463552513E+01   -1.7449140931E+01   -1.7431714147E+01
   -1.7411634237E+01   -1.7389248669E+01   -1.7364878873E+01   -1.7338814447E+01
   -1.7311311184E+01   -1.7282591514E+01   -1.7252846348E+01   -1.7222237632E+01
   -1.7190901177E+01   -1.7158949477E+01   -1.7126474381E+01   -1.7093549530E+01
   -1.7060232552E+01   -1.7026567004E+01   -1.6992584082E+01   -1.6958304133E+01
   -1.6923737989E+01   -1.6888888148E+01   -1.6853749829E+01   -1.6818311929E+01
   -1.6782557880E+01   -1.6746466448E+01   -1.6710012462E+01   -1.6673167500E+01
   -1.6635900530E+01   -1.6598178521E+01   -1.6559967013E+01   -1.6521230669E+01
   -1.6481933794E+01   -1.6442040824E+01   -1.6401516793E+01   -1.6360327767E+01
   -1.6318441243E+01   -1.6275826520E+01   -1.6232455027E+01   -1.6188300618E+01
   -1.6143339820E+01   -1.6097552045E+01   -1.6050919752E+01   -1.6003428572E+01
   -1.5955067388E+01   -1.5905828372E+01   -1.5855706982E+01   -1.5804701925E+01
   -1.5752815088E+01   -1.5700051428E+01   -1.5646418849E+01   -1.5591928049E+01
   -1.5536592352E+01   -1.5480427523E+01   -1.5423451576E+01   -1.5365684579E+01
   -1.5307148447E+01   -1.5247866748E+01   -1.5187864500E+01   -1.5127167987E+01
   -1.5065804570E+01   -1.5003802517E+01   -1.4941190837E+01   -1.4877999132E+01
   -1.4814257451E+01   -1.4749996164E+01   -1.4685245845E+01   -1.4620037166E+01
   -1.4554400799E+01   -1.4488367335E+01   -1.4421967208E+01   -1.4355230627E+01
   -1.4288187517E+01   -1.4220867473E+01   -1.4153299709E+01   -1.4085513023E+01
   -1.4017535765E+01   -1.3949395802E+01   -1.3881120503E+01   -1.3812736705E+01
   -1.3744270706E+01   -1.3675748239E+01   -1.3607194466E+01   -1.3538633958E+01
   -1.3470090689E+01   -1.3401588025E+01   -1.3333148715E+01   -1.3264794883E+01
   -1.3196548021E+01   -1.3128428981E+01   -1.3060457972E+01   -1.2992654552E+01
   -1.2925037621E+01   -1.2857625421E+01   -1.2790435527E+01   -1.2723484842E+01
   -1.2656789595E+01   -1.2590365333E+01   -1.2524226921E+01   -1.2458388531E+01
   -1.2392863644E+01   -1.2327665039E+01   -1.2262804792E+01   -1.2198294269E+01
   -1.2134144119E+01   -1.2070364272E+01   -1.2006963927E+01   -1.1943951551E+01
   -1.1881334870E+01   -1.1819120861E+01   -1.1757315750E+01   -1.1695924997E+01
   -1.1634953298E+01   -1.1574404575E+01   -1.1514281971E+01   -1.1454587849E+01
   -1.1395323785E+01   -1.1336490571E+01   -1.1278088215E+01   -1.1220115947E+01
   -1.1162572224E+01   -1.1105454745E+01   -1.1048760460E+01   -1.0992485598E+01
   -1.0936625682E+01   -1.0881175569E+01   -1.0826129474E+01   -1.0771481017E+01
   -1.0717223269E+01   -1.0663348799E+01   -1.0609849733E+01   -1.0556717812E+01
   -1.0503944461E+01   -1.0451520853E+01   -1.0399437984E+01   -1.0347686744E+01
   -1.0296257993E+01   -1.0245142632E+01   -1.0194331682E+01   -1.0143816352E+01
   -1.0093588108E+01   -1.0043638739E+01   -9.9939604160E+00   -9.9445457473E+00
   -9.8953878259E+00   -9.8464802716E+00   -9.7978172646E+00   -9.7493935728E+00
   -9.7012045703E+00   -9.6532462489E+00   -9.6055152221E+00   -9.5580087218E+00
   -9.5107245882E+00   -9.4636612531E+00   -9.4168177182E+00   -9.3701935274E+00
   -9.3237887355E+00   -9.2776038727E+00   -9.2316399061E+00   -9.1858981993E+00
   -9.1403804706E+00   -9.0950887494E+00   -9.0500253340E+00   -9.0051927477E+00
   -8.9605936981E+00   -8.9162310359E+00   -8.8721077163E+00   -8.8282267629E+00
   -8.7845912330E+00   -8.7412041865E+00   -8.6980686573E+00   -8.6551876271E+00
   -8.6125640028E+00   -8.5702005966E+00   -8.5281001091E+00   -8.4862651148E+00
   -8.4446980510E+00   -8.4034012085E+00   -8.3623767254E+00   -8.3216265824E+00
   -8.2811526007E+00   -8.2409564410E+00   -8.2010396045E+00   -8.1614034349E+00
   -8.1220491214E+00   -8.0829777029E+00   -8.0441900718E+00   -8.0056869792E+00
   -7.9674690392E+00   -7.9295367341E+00   -7.8918904183E+00   -7.8545303228E+00
   -7.8174565580E+00   -7.7806691170E+00   -7.7441678778E+00   -7.7079526039E+00
   -7.6720229457E+00   -7.6363784400E+00   -7.6010185091E+00   -7.5659424598E+00
   -7.5311494812E+00   -7.4966386429E+00   -7.4624088924E+00   -7.4284590528E+00
   -7.3947878207E+00   -7.3613937643E+00   -7.3282753219E+00   -7.2954308015E+00
   -7.2628583812E+00   -7.2305561095E+00   -7.1985219086E+00   -7.1667535773E+00
   -7.1352487958E+00   -7.1040051316E+00   -7.0730200472E+00   -7.0422909081E+00
   -7.0118149929E+00   -6.9815895038E+00   -6.9516115785E+00   -6.9218783029E+00
   -6.8923867238E+00   -6.8631338626E+00   -6.8341167295E+00   -6.8053323368E+00
   -6.7767777126E+00   -6.7484499140E+00   -6.7203460399E+00   -6.6924632419E+00
   -6.6647987357E+00   -6.6373498104E+00   -6.6101138365E+00   -6.5830882732E+00
   -6.5562706734E+00   -6.5296586870E+00   -6.5032500644E+00   -6.4770426560E+00
   -6.4510344117E+00   -6.4252233788E+00   -6.3996076977E+00   -6.3741855969E+00
   -6.3489553866E+00   -6.3239154515E+00   -6.2990642414E+00   -6.2744002625E+00
   -6.2499220672E+00   -6.2256282427E+00   -6.2015174019E+00   -6.1775881689E+00
   -6.1538391651E+00   -6.1302690102E+00   -6.1068762947E+00   -6.0836595765E+00
   -6.0606173489E+00   -6.0377480560E+00   -6.0150500914E+00   -5.9925217865E+00
   -5.9701614269E+00   -5.9479672619E+00   -5.9259375173E+00   -5.9040704059E+00
   -5.8823641362E+00   -5.8608169269E+00   -5.8394270194E+00   -5.8181926764E+00
   -5.7971121865E+00   -5.7761838855E+00   -5.7554061339E+00   -5.7347773248E+00
   -5.7142958639E+00   -5.6939601813E+00   -5.6737687299E+00   -5.6537199819E+00
   -5.6338124280E+00   -5.6140445798E+00   -5.5944149684E+00   -5.5749221504E+00
   -5.5555647009E+00   -5.5363412157E+00   -5.5172503090E+00   -5.4982906138E+00
   -5.4794607819E+00   -5.4607594835E+00   -5.4421854071E+00   -5.4237372589E+00
   -5.4054137625E+00   -5.3872136587E+00   -5.3691357054E+00   -5.3511786770E+00
   -5.3333413640E+00   -5.3156225733E+00   -5.2980211276E+00   -5.2805358648E+00
   -5.2631656385E+00   -5.2459093172E+00   -5.2287657839E+00   -5.2117339366E+00
   -5.1948126873E+00   -5.1780009623E+00   -5.1612977016E+00   -5.1447018588E+00
   -5.1282124012E+00   -5.1118283088E+00   -5.0955485752E+00   -5.0793722062E+00
   -5.0632982207E+00   -5.0473256495E+00   -5.0314535359E+00   -5.0156809352E+00
   -5.0000069144E+00   -4.9844305521E+00   -4.9689509385E+00   -4.9535671748E+00
   -4.9382783736E+00   -4.9230836583E+00   -4.9079821629E+00   -4.8929730323E+00
   -4.8780554216E+00   -4.8632284963E+00   -4.8484914318E+00   -4.8338434138E+00
   -4.8192836375E+00   -4.8048113080E+00   -4.7904256398E+00   -4.7761258566E+00
   -4.7619111918E+00   -4.7477808875E+00   -4.7337341949E+00   -4.7197703741E+00
   -4.7058886938E+00   -4.6920884314E+00   -4.6783688727E+00   -4.6647293117E+00
   -4.6511690509E+00   -4.6376874006E+00   -4.6242836792E+00   -4.6109572129E+00
   -4.5977073358E+00   -4.5845333893E+00   -4.5714347228E+00   -4.5584106926E+00
   -4.5454606628E+00   -4.5325840044E+00   -4.5197800956E+00   -4.5070483215E+00
   -4.4943880743E+00   -4.4817987530E+00   -4.4692797631E+00   -4.4568305168E+00
   -4.4444504331E+00   -4.4321389371E+00   -4.4198954603E+00   -4.4077194407E+00
   -4.3956103223E+00   -4.3835675551E+00   -4.3715905953E+00   -4.3596789050E+00
   -4.3478319520E+00   -4.3360492101E+00   -4.3243301585E+00   -4.3126742823E+00
   -4.3010810720E+00   -4.2895500235E+00   -4.2780806382E+00   -4.2666724229E+00
   -4.2553248893E+00   -4.2440375547E+00   -4.2328099413E+00   -4.2216415763E+00
   -4.2105319921E+00   -4.1994807256E+00   -4.1884873190E+00   -4.1775513190E+00
   -4.1666722772E+00   -4.1558497496E+00   -4.1450832972E+00   -4.1343724851E+00
   -4.1237168831E+00   -4.1131160655E+00   -4.1025696109E+00   -4.0920771021E+00
   -4.0816381263E+00   -4.0712522749E+00   -4.0609191433E+00   -4.0506383311E+00
   -4.0404094420E+00   -4.0302320836E+00   -4.0201058674E+00   -4.0100304091E+00
   -4.0000053278E+00   -3.9900302466E+00   -3.9801047926E+00   -3.9702285961E+00
   -3.9604012915E+00   -3.9506225166E+00   -3.9408919127E+00   -3.9312091249E+00
   -3.9215738015E+00   -3.9119855944E+00   -3.9024441588E+00   -3.8929491534E+00
   -3.8835002400E+00   -3.8740970839E+00   -3.8647393534E+00   -3.8554267202E+00
   -3.8461588591E+00   -3.8369354480E+00   -3.8277561679E+00   -3.8186207027E+00
   -3.8095287396E+00   -3.8004799685E+00   -3.7914740823E+00   -3.7825107771E+00
   -3.7735897514E+00   -3.7647107068E+00   -3.7558733477E+00   -3.7470773812E+00
   -3.7383225172E+00   -3.7296084682E+00   -3.7209349496E+00   -3.7123016791E+00
   -3.7037083773E+00   -3.6951547673E+00   -3.6866405747E+00   -3.6781655277E+00
   -3.6697293569E+00   -3.6613317955E+00   -3.6529725789E+00   -3.6446514452E+00
   -3.6363681346E+00   -3.6281223900E+00   -3.6199139564E+00   -3.6117425810E+00
   -3.6036080134E+00   -3.5955100057E+00   -3.5874483117E+00   -3.5794226878E+00
   -3.5714328926E+00   -3.5634786865E+00   -3.5555598323E+00   -3.5476760949E+00
   -3.5398272412E+00   -3.5320130401E+00   -3.5242332628E+00   -3.5164876822E+00
   -3.5087760734E+00   -3.5010982133E+00   -3.4934538809E+00   -3.4858428571E+00
   -3.4782649246E+00   -3.4707198681E+00   -3.4632074741E+00   -3.4557275310E+00
   -3.4482798289E+00   -3.4408641599E+00   -3.4334803178E+00   -3.4261280980E+00
   -3.4188072980E+00   -3.4115177166E+00   -3.4042591547E+00   -3.3970314147E+00
   -3.3898343006E+00   -3.3826676182E+00   -3.3755311750E+00   -3.3684247799E+00
   -3.3613482436E+00   -3.3543013782E+00   -3.3472839976E+00   -3.3402959171E+00
   -3.3333369536E+00   -3.3264069254E+00   -3.3195056526E+00   -3.3126329563E+00
   -3.3057886597E+00   -3.2989725869E+00   -3.2921845638E+00   -3.2854244175E+00
   -3.2786919767E+00   -3.2719870715E+00   -3.2653095332E+00   -3.2586591947E+00
   -3.2520358900E+00   -3.2454394547E+00   -3.2388697256E+00   -3.2323265409E+00
   -3.2258097400E+00   -3.2193191636E+00   -3.2128546538E+00   -3.2064160538E+00
   -3.2000032083E+00   -3.1936159629E+00   -3.1872541647E+00   -3.1809176620E+00
   -3.1746063040E+00   -3.1683199416E+00   -3.1620584265E+00   -3.1558216116E+00
   -3.1496093511E+00   -3.1434215003E+00   -3.1372579156E+00   -3.1311184545E+00
   -3.1250029757E+00   -3.1189113390E+00   -3.1128434051E+00   -3.1067990360E+00
   -3.1007780947E+00   -3.0947804453E+00   -3.0888059529E+00   -3.0828544835E+00
   -3.0769259045E+00   -3.0710200839E+00   -3.0651368910E+00   -3.0592761960E+00
   -3.0534378701E+00   -3.0476217854E+00   -3.0418278152E+00   -3.0360558334E+00
   -3.0303057153E+00   -3.0245773368E+00   -3.0188705748E+00   -3.0131853072E+00
   -3.0075214129E+00   -3.0018787714E+00   -2.9962572635E+00   -2.9906567706E+00
   -2.9850771751E+00   -2.9795183602E+00   -2.9739802101E+00   -2.9684626098E+00
   -2.9629654450E+00   -2.9574886025E+00   -2.9520319698E+00   -2.9465954352E+00
   -2.9411788878E+00   -2.9357822178E+00   -2.9304053158E+00   -2.9250480735E+00
   -2.9197103831E+00   -2.9143921380E+00   -2.9090932319E+00   -2.9038135597E+00
   -2.8985530167E+00   -2.8933114992E+00   -2.8880889042E+00   -2.8828851295E+00
   -2.8777000733E+00   -2.8725336350E+00   -2.8673857144E+00   -2.8622562122E+00
   -2.8571450297E+00   -2.8520520689E+00   -2.8469772325E+00   -2.8419204240E+00
   -2.8368815475E+00   -2.8318605078E+00   -2.8268572103E+00   -2.8218715611E+00
   -2.8169034671E+00   -2.8119528356E+00   -2.8070195749E+00   -2.8021035935E+00
   -2.7972048009E+00   -2.7923231071E+00   -2.7874584228E+00   -2.7826106591E+00
   -2.7777797279E+00   -2.7729655418E+00   -2.7681680138E+00   -2.7633870577E+00
   -2.7586225876E+00   -2.7538745185E+00   -2.7491427658E+00   -2.7444272455E+00
   -2.7397278744E+00   -2.7350445695E+00   -2.7303772486E+00   -2.7257258301E+00
   -2.7210902327E+00   -2.7164703759E+00   -2.7118661797E+00   -2.7072775646E+00
   -2.7027044516E+00   -2.6981467623E+00   -2.6936044188E+00   -2.6890773437E+00
   -2.6845654601E+00   -2.6800686918E+00   -2.6755869629E+00   -2.6711201981E+00
   -2.6666683225E+00   -2.6622312618E+00   -2.6578089422E+00   -2.6534012904E+00